LAMMPS (12 Dec 2018)
Lattice spacing in x,y,z = 4 4 4
Created orthogonal box = (0 0 0) to (68 68 68)
  1 by 1 by 2 MPI processor grid
Created 19652 atoms
  Time spent = 0.00163889 secs
Setting atom values ...
  19652 settings made for type/fraction
Neighbor list info ...
  update every 1 steps, delay 0 steps, check no
  max neighbors/atom: 2000, page size: 100000
  master list distance cutoff = 8.5
  ghost atom cutoff = 8.5
  binsize = 4.25, bins = 16 16 16
  1 neighbor lists, perpetual/occasional/extra = 1 0 0
  (1) pair eam/alloy, perpetual
      attributes: half, newton on
      pair build: half/bin/atomonly/newton
      stencil: half/bin/3d/newton
      bin: standard
Setting up Verlet run ...
  Unit style    : metal
  Current step  : 0
  Time step     : 0.001
Per MPI rank memory allocation (min/avg/max) = 11.15 | 11.15 | 11.15 Mbytes
Step Temp Press TotEng PotEng Enthalpy 
       0          300    713593.33   -100529.05   -101291.08    39515.802 
    1000    287.12879    601682.47   -100528.98   -101258.31    17553.034 
Loop time of 84.3204 on 2 procs for 1000 steps with 19652 atoms

Performance: 1.025 ns/day, 23.422 hours/ns, 11.860 timesteps/s
98.1% CPU use with 2 MPI tasks x no OpenMP threads

MPI task timing breakdown:
Section |  min time  |  avg time  |  max time  |%varavg| %total
---------------------------------------------------------------
Pair    | 46.559     | 46.724     | 46.888     |   2.4 | 55.41
Neigh   | 33.144     | 33.274     | 33.405     |   2.3 | 39.46
Comm    | 3.897      | 3.9304     | 3.9637     |   1.7 |  4.66
Output  | 0.0001049  | 0.00014651 | 0.00018811 |   0.0 |  0.00
Modify  | 0.19284    | 0.19689    | 0.20093    |   0.9 |  0.23
Other   |            | 0.1953     |            |       |  0.23

Nlocal:    9826 ave 9827 max 9825 min
Histogram: 1 0 0 0 0 0 0 0 0 1
Nghost:    13819.5 ave 13835 max 13804 min
Histogram: 1 0 0 0 0 0 0 0 0 1
Neighs:    791632 ave 792369 max 790894 min
Histogram: 1 0 0 0 0 0 0 0 0 1

Total # of neighbors = 1583263
Ave neighs/atom = 80.565
Neighbor list builds = 1000
Dangerous builds not checked
Setting up Verlet run ...
  Unit style    : metal
  Current step  : 1000
  Time step     : 0.001
Per MPI rank memory allocation (min/avg/max) = 11.15 | 11.15 | 11.15 Mbytes
Step Temp Press TotEng PotEng Enthalpy 
    1000    287.12879    601682.47   -100528.98   -101258.31    17553.034 
    2000     294.3336    35.096421   -122926.05   -123673.69   -122915.94 
Loop time of 68.8158 on 2 procs for 1000 steps with 19652 atoms

Performance: 1.256 ns/day, 19.116 hours/ns, 14.532 timesteps/s
97.7% CPU use with 2 MPI tasks x no OpenMP threads

MPI task timing breakdown:
Section |  min time  |  avg time  |  max time  |%varavg| %total
---------------------------------------------------------------
Pair    | 36.316     | 36.484     | 36.652     |   2.8 | 53.02
Neigh   | 26.377     | 27.569     | 28.761     |  22.7 | 40.06
Comm    | 2.8037     | 3.8429     | 4.8821     |  53.0 |  5.58
Output  | 9.7036e-05 | 0.000108   | 0.00011897 |   0.0 |  0.00
Modify  | 0.72739    | 0.73572    | 0.74405    |   1.0 |  1.07
Other   |            | 0.1846     |            |       |  0.27

Nlocal:    9826 ave 9838 max 9814 min
Histogram: 1 0 0 0 0 0 0 0 0 1
Nghost:    10346.5 ave 10359 max 10334 min
Histogram: 1 0 0 0 0 0 0 0 0 1
Neighs:    534198 ave 535529 max 532868 min
Histogram: 1 0 0 0 0 0 0 0 0 1

Total # of neighbors = 1068397
Ave neighs/atom = 54.3658
Neighbor list builds = 1000
Dangerous builds not checked
Setting up Verlet run ...
  Unit style    : metal
  Current step  : 2000
  Time step     : 0.001
Per MPI rank memory allocation (min/avg/max) = 11.15 | 11.15 | 11.15 Mbytes
Step Temp Press TotEng PotEng Enthalpy 
    2000     294.3336    35.096421   -122926.05   -123673.69   -122915.94 
   10000    2377.3589   -1239.5007   -108582.47   -114621.18   -108961.33 
Loop time of 502.902 on 2 procs for 8000 steps with 19652 atoms

Performance: 1.374 ns/day, 17.462 hours/ns, 15.908 timesteps/s
97.9% CPU use with 2 MPI tasks x no OpenMP threads

MPI task timing breakdown:
Section |  min time  |  avg time  |  max time  |%varavg| %total
---------------------------------------------------------------
Pair    | 263.84     | 264.15     | 264.46     |   1.9 | 52.53
Neigh   | 206.32     | 206.57     | 206.83     |   1.8 | 41.08
Comm    | 22.781     | 23.334     | 23.888     |  11.5 |  4.64
Output  | 0.032477   | 0.032495   | 0.032512   |   0.0 |  0.01
Modify  | 7.3219     | 7.3431     | 7.3644     |   0.8 |  1.46
Other   |            | 1.467      |            |       |  0.29

Nlocal:    9826 ave 9840 max 9812 min
Histogram: 1 0 0 0 0 0 0 0 0 1
Nghost:    10746 ave 10753 max 10739 min
Histogram: 1 0 0 0 0 0 0 0 0 1
Neighs:    500750 ave 502097 max 499404 min
Histogram: 1 0 0 0 0 0 0 0 0 1

Total # of neighbors = 1001501
Ave neighs/atom = 50.9618
Neighbor list builds = 8000
Dangerous builds not checked
Setting up Verlet run ...
  Unit style    : metal
  Current step  : 10000
  Time step     : 0.001
Per MPI rank memory allocation (min/avg/max) = 11.17 | 11.17 | 11.17 Mbytes
Step Temp Press TotEng PotEng Enthalpy 
   10000    2377.3589   -1239.5007   -108582.47   -114621.18   -108961.33 
   20000    2455.5218    398.04493   -106963.48   -113200.73   -106840.85 
   30000    2434.2421   -1645.6952   -107012.68   -113195.87   -107521.23 
   40000    2474.6854   -461.20943   -106914.38    -113200.3   -107056.66 
Loop time of 1836.86 on 2 procs for 30000 steps with 19652 atoms

Performance: 1.411 ns/day, 17.008 hours/ns, 16.332 timesteps/s
98.4% CPU use with 2 MPI tasks x no OpenMP threads

MPI task timing breakdown:
Section |  min time  |  avg time  |  max time  |%varavg| %total
---------------------------------------------------------------
Pair    | 935.69     | 936.82     | 937.94     |   3.7 | 51.00
Neigh   | 779.71     | 782.13     | 784.56     |   8.7 | 42.58
Comm    | 89.436     | 90.765     | 92.094     |  13.9 |  4.94
Output  | 0.088089   | 0.088118   | 0.088147   |   0.0 |  0.00
Modify  | 21.791     | 21.795     | 21.8       |   0.1 |  1.19
Other   |            | 5.262      |            |       |  0.29

Nlocal:    9826 ave 9837 max 9815 min
Histogram: 1 0 0 0 0 0 0 0 0 1
Nghost:    10916.5 ave 10928 max 10905 min
Histogram: 1 0 0 0 0 0 0 0 0 1
Neighs:    496810 ave 497399 max 496222 min
Histogram: 1 0 0 0 0 0 0 0 0 1

Total # of neighbors = 993621
Ave neighs/atom = 50.5608
Neighbor list builds = 30000
Dangerous builds not checked
Setting up Verlet run ...
  Unit style    : metal
  Current step  : 40000
  Time step     : 0.001
Per MPI rank memory allocation (min/avg/max) = 11.21 | 11.21 | 11.21 Mbytes
Step Temp Press TotEng PotEng Enthalpy 
   40000    2474.6854   -461.20943   -106914.38    -113200.3   -107056.66 
   40495    2387.1819    -131.6073    -107219.8   -113283.46   -107260.33 
Loop time of 29.7579 on 2 procs for 495 steps with 19652 atoms

Performance: 1.437 ns/day, 16.699 hours/ns, 16.634 timesteps/s
98.6% CPU use with 2 MPI tasks x no OpenMP threads

MPI task timing breakdown:
Section |  min time  |  avg time  |  max time  |%varavg| %total
---------------------------------------------------------------
Pair    | 14.923     | 14.967     | 15.012     |   1.1 | 50.30
Neigh   | 12.765     | 12.773     | 12.781     |   0.2 | 42.92
Comm    | 1.5376     | 1.5736     | 1.6095     |   2.9 |  5.29
Output  | 7.7009e-05 | 0.00010955 | 0.0001421  |   0.0 |  0.00
Modify  | 0.35681    | 0.35707    | 0.35733    |   0.0 |  1.20
Other   |            | 0.08678    |            |       |  0.29

Nlocal:    9826 ave 9847 max 9805 min
Histogram: 1 0 0 0 0 0 0 0 0 1
Nghost:    10922 ave 10929 max 10915 min
Histogram: 1 0 0 0 0 0 0 0 0 1
Neighs:    497734 ave 499930 max 495539 min
Histogram: 1 0 0 0 0 0 0 0 0 1

Total # of neighbors = 995469
Ave neighs/atom = 50.6548
Neighbor list builds = 495
Dangerous builds not checked
Setting up Verlet run ...
  Unit style    : metal
  Current step  : 40495
  Time step     : 0.001
Per MPI rank memory allocation (min/avg/max) = 11.21 | 11.21 | 11.21 Mbytes
Step Temp Press TotEng PotEng Enthalpy 
   40495    2387.1819    -131.6073    -107219.8   -113283.46   -107260.33 
   50000    2417.5256    1078.1473   -107239.18   -113379.91   -106907.72 
Loop time of 571.594 on 2 procs for 9505 steps with 19652 atoms

Performance: 1.437 ns/day, 16.704 hours/ns, 16.629 timesteps/s
99.2% CPU use with 2 MPI tasks x no OpenMP threads

MPI task timing breakdown:
Section |  min time  |  avg time  |  max time  |%varavg| %total
---------------------------------------------------------------
Pair    | 291.11     | 292.49     | 293.88     |   8.1 | 51.17
Neigh   | 241.76     | 245.16     | 248.56     |  21.7 | 42.89
Comm    | 23.405     | 25.506     | 27.607     |  41.6 |  4.46
Output  | 0.035177   | 0.035191   | 0.035205   |   0.0 |  0.01
Modify  | 6.6917     | 6.755      | 6.8184     |   2.4 |  1.18
Other   |            | 1.643      |            |       |  0.29

Nlocal:    9826 ave 9830 max 9822 min
Histogram: 1 0 0 0 0 0 0 0 0 1
Nghost:    10920.5 ave 10941 max 10900 min
Histogram: 1 0 0 0 0 0 0 0 0 1
Neighs:    499052 ave 499154 max 498949 min
Histogram: 1 0 0 0 0 0 0 0 0 1

Total # of neighbors = 998103
Ave neighs/atom = 50.7889
Neighbor list builds = 9505
Dangerous builds not checked
Setting up Verlet run ...
  Unit style    : metal
  Current step  : 50000
  Time step     : 0.001
Per MPI rank memory allocation (min/avg/max) = 11.22 | 11.22 | 11.22 Mbytes
Step Temp Press TotEng PotEng Enthalpy 
   50000    2417.5256    1078.1473   -107239.18   -113379.91   -106907.72 
   50495    2363.2343    1072.4562    -107507.4   -113510.23   -107178.33 
Loop time of 30.381 on 2 procs for 495 steps with 19652 atoms

Performance: 1.408 ns/day, 17.049 hours/ns, 16.293 timesteps/s
99.6% CPU use with 2 MPI tasks x no OpenMP threads

MPI task timing breakdown:
Section |  min time  |  avg time  |  max time  |%varavg| %total
---------------------------------------------------------------
Pair    | 15.347     | 15.675     | 16.002     |   8.3 | 51.59
Neigh   | 11.688     | 12.62      | 13.553     |  26.3 | 41.54
Comm    | 1.0115     | 1.6411     | 2.2706     |  49.1 |  5.40
Output  | 8.2016e-05 | 0.00011003 | 0.00013804 |   0.0 |  0.00
Modify  | 0.33993    | 0.3588     | 0.37766    |   3.1 |  1.18
Other   |            | 0.08598    |            |       |  0.28

Nlocal:    9826 ave 9833 max 9819 min
Histogram: 1 0 0 0 0 0 0 0 0 1
Nghost:    10928 ave 10948 max 10908 min
Histogram: 1 0 0 0 0 0 0 0 0 1
Neighs:    499766 ave 499853 max 499679 min
Histogram: 1 0 0 0 0 0 0 0 0 1

Total # of neighbors = 999532
Ave neighs/atom = 50.8616
Neighbor list builds = 495
Dangerous builds not checked
Setting up Verlet run ...
  Unit style    : metal
  Current step  : 50495
  Time step     : 0.001
Per MPI rank memory allocation (min/avg/max) = 11.22 | 11.22 | 11.22 Mbytes
Step Temp Press TotEng PotEng Enthalpy 
   50495    2363.2343    1072.4562    -107507.4   -113510.23   -107178.33 
   60000    2358.8139    114.75226   -107585.12   -113576.72   -107549.87 
Loop time of 566.583 on 2 procs for 9505 steps with 19652 atoms

Performance: 1.449 ns/day, 16.558 hours/ns, 16.776 timesteps/s
98.3% CPU use with 2 MPI tasks x no OpenMP threads

MPI task timing breakdown:
Section |  min time  |  avg time  |  max time  |%varavg| %total
---------------------------------------------------------------
Pair    | 287.81     | 288.15     | 288.5      |   2.0 | 50.86
Neigh   | 239.23     | 240.69     | 242.16     |   9.4 | 42.48
Comm    | 27.487     | 28.661     | 29.835     |  21.9 |  5.06
Output  | 0.032829   | 0.032843   | 0.032858   |   0.0 |  0.01
Modify  | 7.3991     | 7.438      | 7.477      |   1.4 |  1.31
Other   |            | 1.606      |            |       |  0.28

Nlocal:    9826 ave 9840 max 9812 min
Histogram: 1 0 0 0 0 0 0 0 0 1
Nghost:    10955.5 ave 10997 max 10914 min
Histogram: 1 0 0 0 0 0 0 0 0 1
Neighs:    499317 ave 500557 max 498077 min
Histogram: 1 0 0 0 0 0 0 0 0 1

Total # of neighbors = 998634
Ave neighs/atom = 50.8159
Neighbor list builds = 9505
Dangerous builds not checked
Setting up Verlet run ...
  Unit style    : metal
  Current step  : 60000
  Time step     : 0.001
Per MPI rank memory allocation (min/avg/max) = 11.23 | 11.23 | 11.23 Mbytes
Step Temp Press TotEng PotEng Enthalpy 
   60000    2358.8139    114.75226   -107585.12   -113576.72   -107549.87 
   60495    2317.8089    125.45238   -107809.97   -113697.42   -107771.49 
Loop time of 30.3851 on 2 procs for 495 steps with 19652 atoms

Performance: 1.408 ns/day, 17.051 hours/ns, 16.291 timesteps/s
99.3% CPU use with 2 MPI tasks x no OpenMP threads

MPI task timing breakdown:
Section |  min time  |  avg time  |  max time  |%varavg| %total
---------------------------------------------------------------
Pair    | 15.514     | 15.783     | 16.052     |   6.8 | 51.94
Neigh   | 11.738     | 12.721     | 13.704     |  27.6 | 41.87
Comm    | 0.69196    | 1.4321     | 2.1723     |  61.9 |  4.71
Output  | 8.7023e-05 | 0.00012302 | 0.00015903 |   0.0 |  0.00
Modify  | 0.3416     | 0.36143    | 0.38125    |   3.3 |  1.19
Other   |            | 0.08729    |            |       |  0.29

Nlocal:    9826 ave 9840 max 9812 min
Histogram: 1 0 0 0 0 0 0 0 0 1
Nghost:    10956 ave 10968 max 10944 min
Histogram: 1 0 0 0 0 0 0 0 0 1
Neighs:    499838 ave 500677 max 498999 min
Histogram: 1 0 0 0 0 0 0 0 0 1

Total # of neighbors = 999676
Ave neighs/atom = 50.8689
Neighbor list builds = 495
Dangerous builds not checked
Setting up Verlet run ...
  Unit style    : metal
  Current step  : 60495
  Time step     : 0.001
Per MPI rank memory allocation (min/avg/max) = 11.23 | 11.23 | 11.23 Mbytes
Step Temp Press TotEng PotEng Enthalpy 
   60495    2317.8089    125.45238   -107809.97   -113697.42   -107771.49 
   70000    2296.2457    795.37746   -107974.72   -113807.39   -107731.25 
Loop time of 555.393 on 2 procs for 9505 steps with 19652 atoms

Performance: 1.479 ns/day, 16.231 hours/ns, 17.114 timesteps/s
99.5% CPU use with 2 MPI tasks x no OpenMP threads

MPI task timing breakdown:
Section |  min time  |  avg time  |  max time  |%varavg| %total
---------------------------------------------------------------
Pair    | 283.33     | 283.94     | 284.54     |   3.6 | 51.12
Neigh   | 236.49     | 239.63     | 242.77     |  20.3 | 43.15
Comm    | 21.045     | 23.653     | 26.26      |  53.6 |  4.26
Output  | 0.034039   | 0.034043   | 0.034047   |   0.0 |  0.01
Modify  | 6.484      | 6.5366     | 6.5893     |   2.1 |  1.18
Other   |            | 1.603      |            |       |  0.29

Nlocal:    9826 ave 9833 max 9819 min
Histogram: 1 0 0 0 0 0 0 0 0 1
Nghost:    10943.5 ave 10946 max 10941 min
Histogram: 1 0 0 0 0 0 0 0 0 1
Neighs:    501204 ave 501486 max 500923 min
Histogram: 1 0 0 0 0 0 0 0 0 1

Total # of neighbors = 1002409
Ave neighs/atom = 51.008
Neighbor list builds = 9505
Dangerous builds not checked
Setting up Verlet run ...
  Unit style    : metal
  Current step  : 70000
  Time step     : 0.001
Per MPI rank memory allocation (min/avg/max) = 11.23 | 11.23 | 11.23 Mbytes
Step Temp Press TotEng PotEng Enthalpy 
   70000    2296.2457    795.37746   -107974.72   -113807.39   -107731.25 
   70495    2248.9663    927.96288   -108223.24   -113935.82   -107939.57 
Loop time of 33.4015 on 2 procs for 495 steps with 19652 atoms

Performance: 1.280 ns/day, 18.744 hours/ns, 14.820 timesteps/s
93.2% CPU use with 2 MPI tasks x no OpenMP threads

MPI task timing breakdown:
Section |  min time  |  avg time  |  max time  |%varavg| %total
---------------------------------------------------------------
Pair    | 15.284     | 15.358     | 15.432     |   1.9 | 45.98
Neigh   | 12.461     | 12.522     | 12.583     |   1.7 | 37.49
Comm    | 5.0765     | 5.0883     | 5.1001     |   0.5 | 15.23
Output  | 6.7949e-05 | 9.8944e-05 | 0.00012994 |   0.0 |  0.00
Modify  | 0.34593    | 0.3475     | 0.34907    |   0.3 |  1.04
Other   |            | 0.08564    |            |       |  0.26

Nlocal:    9826 ave 9843 max 9809 min
Histogram: 1 0 0 0 0 0 0 0 0 1
Nghost:    10963.5 ave 10981 max 10946 min
Histogram: 1 0 0 0 0 0 0 0 0 1
Neighs:    502120 ave 503654 max 500587 min
Histogram: 1 0 0 0 0 0 0 0 0 1

Total # of neighbors = 1004241
Ave neighs/atom = 51.1012
Neighbor list builds = 495
Dangerous builds not checked
Setting up Verlet run ...
  Unit style    : metal
  Current step  : 70495
  Time step     : 0.001
Per MPI rank memory allocation (min/avg/max) = 11.23 | 11.23 | 11.23 Mbytes
Step Temp Press TotEng PotEng Enthalpy 
   70495    2248.9663    927.96288   -108223.24   -113935.82   -107939.57 
   80000    2256.4975    231.70031   -108267.15   -113998.86   -108196.26 
Loop time of 565.877 on 2 procs for 9505 steps with 19652 atoms

Performance: 1.451 ns/day, 16.537 hours/ns, 16.797 timesteps/s
99.1% CPU use with 2 MPI tasks x no OpenMP threads

MPI task timing breakdown:
Section |  min time  |  avg time  |  max time  |%varavg| %total
---------------------------------------------------------------
Pair    | 290.41     | 291.13     | 291.84     |   4.2 | 51.45
Neigh   | 241.24     | 241.57     | 241.9      |   2.1 | 42.69
Comm    | 24.536     | 24.925     | 25.314     |   7.8 |  4.40
Output  | 0.034534   | 0.034561   | 0.034587   |   0.0 |  0.01
Modify  | 6.5762     | 6.5913     | 6.6065     |   0.6 |  1.16
Other   |            | 1.626      |            |       |  0.29

Nlocal:    9826 ave 9833 max 9819 min
Histogram: 1 0 0 0 0 0 0 0 0 1
Nghost:    10930.5 ave 10940 max 10921 min
Histogram: 1 0 0 0 0 0 0 0 0 1
Neighs:    501233 ave 501736 max 500730 min
Histogram: 1 0 0 0 0 0 0 0 0 1

Total # of neighbors = 1002466
Ave neighs/atom = 51.0109
Neighbor list builds = 9505
Dangerous builds not checked
Setting up Verlet run ...
  Unit style    : metal
  Current step  : 80000
  Time step     : 0.001
Per MPI rank memory allocation (min/avg/max) = 11.24 | 11.24 | 11.24 Mbytes
Step Temp Press TotEng PotEng Enthalpy 
   80000    2256.4975    231.70031   -108267.15   -113998.86   -108196.26 
   80495    2222.5102    584.09642   -108497.28   -114142.66    -108318.8 
Loop time of 32.6521 on 2 procs for 495 steps with 19652 atoms

Performance: 1.310 ns/day, 18.323 hours/ns, 15.160 timesteps/s
99.5% CPU use with 2 MPI tasks x no OpenMP threads

MPI task timing breakdown:
Section |  min time  |  avg time  |  max time  |%varavg| %total
---------------------------------------------------------------
Pair    | 16.977     | 17.04      | 17.104     |   1.5 | 52.19
Neigh   | 13.696     | 14.039     | 14.382     |   9.2 | 42.99
Comm    | 0.78681    | 1.0766     | 1.3664     |  27.9 |  3.30
Output  | 7.7009e-05 | 0.00011456 | 0.00015211 |   0.0 |  0.00
Modify  | 0.38985    | 0.39737    | 0.40489    |   1.2 |  1.22
Other   |            | 0.09904    |            |       |  0.30

Nlocal:    9826 ave 9830 max 9822 min
Histogram: 1 0 0 0 0 0 0 0 0 1
Nghost:    10957.5 ave 10968 max 10947 min
Histogram: 1 0 0 0 0 0 0 0 0 1
Neighs:    502042 ave 502778 max 501307 min
Histogram: 1 0 0 0 0 0 0 0 0 1

Total # of neighbors = 1004085
Ave neighs/atom = 51.0933
Neighbor list builds = 495
Dangerous builds not checked
Setting up Verlet run ...
  Unit style    : metal
  Current step  : 80495
  Time step     : 0.001
Per MPI rank memory allocation (min/avg/max) = 11.24 | 11.24 | 11.24 Mbytes
Step Temp Press TotEng PotEng Enthalpy 
   80495    2222.5102    584.09642   -108497.28   -114142.66    -108318.8 
   90000    2179.5903   -1006.9629   -108673.91   -114210.27   -108981.98 
Loop time of 643.858 on 2 procs for 9505 steps with 19652 atoms

Performance: 1.275 ns/day, 18.816 hours/ns, 14.763 timesteps/s
98.1% CPU use with 2 MPI tasks x no OpenMP threads

MPI task timing breakdown:
Section |  min time  |  avg time  |  max time  |%varavg| %total
---------------------------------------------------------------
Pair    | 335.1      | 335.56     | 336.02     |   2.5 | 52.12
Neigh   | 267.95     | 269.47     | 271        |   9.3 | 41.85
Comm    | 26.908     | 28.87      | 30.832     |  36.5 |  4.48
Output  | 0.15335    | 0.15337    | 0.15339    |   0.0 |  0.02
Modify  | 7.881      | 7.9212     | 7.9614     |   1.4 |  1.23
Other   |            | 1.88       |            |       |  0.29

Nlocal:    9826 ave 9829 max 9823 min
Histogram: 1 0 0 0 0 0 0 0 0 1
Nghost:    10953 ave 10967 max 10939 min
Histogram: 1 0 0 0 0 0 0 0 0 1
Neighs:    501688 ave 501984 max 501393 min
Histogram: 1 0 0 0 0 0 0 0 0 1

Total # of neighbors = 1003377
Ave neighs/atom = 51.0572
Neighbor list builds = 9505
Dangerous builds not checked
Setting up Verlet run ...
  Unit style    : metal
  Current step  : 90000
  Time step     : 0.001
Per MPI rank memory allocation (min/avg/max) = 11.24 | 11.24 | 11.24 Mbytes
Step Temp Press TotEng PotEng Enthalpy 
   90000    2179.5903   -1006.9629   -108673.91   -114210.27   -108981.98 
   90495    2161.4402    100.09879   -108885.75   -114376.01    -108855.2 
Loop time of 33.4618 on 2 procs for 495 steps with 19652 atoms

Performance: 1.278 ns/day, 18.778 hours/ns, 14.793 timesteps/s
97.6% CPU use with 2 MPI tasks x no OpenMP threads

MPI task timing breakdown:
Section |  min time  |  avg time  |  max time  |%varavg| %total
---------------------------------------------------------------
Pair    | 17.114     | 17.146     | 17.178     |   0.8 | 51.24
Neigh   | 13.668     | 13.776     | 13.883     |   2.9 | 41.17
Comm    | 1.9717     | 2.0477     | 2.1236     |   5.3 |  6.12
Output  | 8.0109e-05 | 0.00014353 | 0.00020695 |   0.0 |  0.00
Modify  | 0.39393    | 0.39424    | 0.39454    |   0.0 |  1.18
Other   |            | 0.09806    |            |       |  0.29

Nlocal:    9826 ave 9837 max 9815 min
Histogram: 1 0 0 0 0 0 0 0 0 1
Nghost:    10973 ave 10986 max 10960 min
Histogram: 1 0 0 0 0 0 0 0 0 1
Neighs:    502873 ave 503710 max 502036 min
Histogram: 1 0 0 0 0 0 0 0 0 1

Total # of neighbors = 1005746
Ave neighs/atom = 51.1778
Neighbor list builds = 495
Dangerous builds not checked
Setting up Verlet run ...
  Unit style    : metal
  Current step  : 90495
  Time step     : 0.001
Per MPI rank memory allocation (min/avg/max) = 11.24 | 11.24 | 11.24 Mbytes
Step Temp Press TotEng PotEng Enthalpy 
   90495    2161.4402    100.09879   -108885.75   -114376.01    -108855.2 
  100000    2142.3301    109.39515   -108975.81   -114417.52   -108942.46 
Loop time of 650.164 on 2 procs for 9505 steps with 19652 atoms

Performance: 1.263 ns/day, 19.001 hours/ns, 14.619 timesteps/s
98.5% CPU use with 2 MPI tasks x no OpenMP threads

MPI task timing breakdown:
Section |  min time  |  avg time  |  max time  |%varavg| %total
---------------------------------------------------------------
Pair    | 333.85     | 334.09     | 334.32     |   1.3 | 51.39
Neigh   | 274.66     | 275.51     | 276.36     |   5.1 | 42.38
Comm    | 29.549     | 30.474     | 31.399     |  16.8 |  4.69
Output  | 0.033257   | 0.033277   | 0.033297   |   0.0 |  0.01
Modify  | 7.9627     | 8.133      | 8.3033     |   6.0 |  1.25
Other   |            | 1.924      |            |       |  0.30

Nlocal:    9826 ave 9850 max 9802 min
Histogram: 1 0 0 0 0 0 0 0 0 1
Nghost:    10950 ave 10965 max 10935 min
Histogram: 1 0 0 0 0 0 0 0 0 1
Neighs:    503305 ave 505783 max 500827 min
Histogram: 1 0 0 0 0 0 0 0 0 1

Total # of neighbors = 1006610
Ave neighs/atom = 51.2218
Neighbor list builds = 9505
Dangerous builds not checked
Setting up Verlet run ...
  Unit style    : metal
  Current step  : 100000
  Time step     : 0.001
Per MPI rank memory allocation (min/avg/max) = 11.25 | 11.25 | 11.25 Mbytes
Step Temp Press TotEng PotEng Enthalpy 
  100000    2142.3301    109.39515   -108975.81   -114417.52   -108942.46 
  100495    2113.4868    213.99983    -109169.7   -114538.15   -109104.52 
Loop time of 32.1801 on 2 procs for 495 steps with 19652 atoms

Performance: 1.329 ns/day, 18.058 hours/ns, 15.382 timesteps/s
99.3% CPU use with 2 MPI tasks x no OpenMP threads

MPI task timing breakdown:
Section |  min time  |  avg time  |  max time  |%varavg| %total
---------------------------------------------------------------
Pair    | 16.823     | 16.849     | 16.875     |   0.6 | 52.36
Neigh   | 13.701     | 13.731     | 13.761     |   0.8 | 42.67
Comm    | 1.1083     | 1.1129     | 1.1175     |   0.4 |  3.46
Output  | 8.9884e-05 | 0.00010693 | 0.00012398 |   0.0 |  0.00
Modify  | 0.38875    | 0.38972    | 0.3907     |   0.2 |  1.21
Other   |            | 0.09701    |            |       |  0.30

Nlocal:    9826 ave 9831 max 9821 min
Histogram: 1 0 0 0 0 0 0 0 0 1
Nghost:    11004.5 ave 11028 max 10981 min
Histogram: 1 0 0 0 0 0 0 0 0 1
Neighs:    504011 ave 504698 max 503324 min
Histogram: 1 0 0 0 0 0 0 0 0 1

Total # of neighbors = 1008022
Ave neighs/atom = 51.2936
Neighbor list builds = 495
Dangerous builds not checked
Setting up Verlet run ...
  Unit style    : metal
  Current step  : 100495
  Time step     : 0.001
Per MPI rank memory allocation (min/avg/max) = 11.25 | 11.25 | 11.25 Mbytes
Step Temp Press TotEng PotEng Enthalpy 
  100495    2113.4868    213.99983    -109169.7   -114538.15   -109104.52 
  110000    2098.4955   -583.30024   -109339.81   -114670.18   -109517.45 
Loop time of 636.573 on 2 procs for 9505 steps with 19652 atoms

Performance: 1.290 ns/day, 18.603 hours/ns, 14.932 timesteps/s
99.0% CPU use with 2 MPI tasks x no OpenMP threads

MPI task timing breakdown:
Section |  min time  |  avg time  |  max time  |%varavg| %total
---------------------------------------------------------------
Pair    | 328.63     | 329.54     | 330.46     |   5.0 | 51.77
Neigh   | 271.76     | 272.07     | 272.37     |   1.8 | 42.74
Comm    | 24.505     | 24.985     | 25.465     |   9.6 |  3.92
Output  | 0.035545   | 0.035556   | 0.035567   |   0.0 |  0.01
Modify  | 7.9316     | 8.0595     | 8.1874     |   4.5 |  1.27
Other   |            | 1.882      |            |       |  0.30

Nlocal:    9826 ave 9843 max 9809 min
Histogram: 1 0 0 0 0 0 0 0 0 1
Nghost:    10948 ave 10967 max 10929 min
Histogram: 1 0 0 0 0 0 0 0 0 1
Neighs:    504082 ave 505833 max 502330 min
Histogram: 1 0 0 0 0 0 0 0 0 1

Total # of neighbors = 1008163
Ave neighs/atom = 51.3008
Neighbor list builds = 9505
Dangerous builds not checked
Setting up Verlet run ...
  Unit style    : metal
  Current step  : 110000
  Time step     : 0.001
Per MPI rank memory allocation (min/avg/max) = 11.25 | 11.25 | 11.25 Mbytes
Step Temp Press TotEng PotEng Enthalpy 
  110000    2098.4955   -583.30024   -109339.81   -114670.18   -109517.45 
  110495    2056.2078    -491.4078   -109530.92   -114753.87   -109680.44 
Loop time of 33.0333 on 2 procs for 495 steps with 19652 atoms

Performance: 1.295 ns/day, 18.537 hours/ns, 14.985 timesteps/s
97.9% CPU use with 2 MPI tasks x no OpenMP threads

MPI task timing breakdown:
Section |  min time  |  avg time  |  max time  |%varavg| %total
---------------------------------------------------------------
Pair    | 16.953     | 17.207     | 17.46      |   6.1 | 52.09
Neigh   | 13.779     | 13.893     | 14.006     |   3.0 | 42.06
Comm    | 1.0239     | 1.3936     | 1.7634     |  31.3 |  4.22
Output  | 8.1062e-05 | 0.00010705 | 0.00013304 |   0.0 |  0.00
Modify  | 0.441      | 0.44348    | 0.44596    |   0.4 |  1.34
Other   |            | 0.09696    |            |       |  0.29

Nlocal:    9826 ave 9852 max 9800 min
Histogram: 1 0 0 0 0 0 0 0 0 1
Nghost:    10940.5 ave 10967 max 10914 min
Histogram: 1 0 0 0 0 0 0 0 0 1
Neighs:    504468 ave 505883 max 503052 min
Histogram: 1 0 0 0 0 0 0 0 0 1

Total # of neighbors = 1008935
Ave neighs/atom = 51.3401
Neighbor list builds = 495
Dangerous builds not checked
Setting up Verlet run ...
  Unit style    : metal
  Current step  : 110495
  Time step     : 0.001
Per MPI rank memory allocation (min/avg/max) = 11.25 | 11.25 | 11.25 Mbytes
Step Temp Press TotEng PotEng Enthalpy 
  110495    2056.2078    -491.4078   -109530.92   -114753.87   -109680.44 
  120000    2056.9003    1233.4487   -109595.25   -114819.96   -109220.99 
Loop time of 632.626 on 2 procs for 9505 steps with 19652 atoms

Performance: 1.298 ns/day, 18.488 hours/ns, 15.025 timesteps/s
98.7% CPU use with 2 MPI tasks x no OpenMP threads

MPI task timing breakdown:
Section |  min time  |  avg time  |  max time  |%varavg| %total
---------------------------------------------------------------
Pair    | 326.02     | 326.93     | 327.84     |   5.0 | 51.68
Neigh   | 264.42     | 266.41     | 268.4      |  12.2 | 42.11
Comm    | 28.301     | 29.448     | 30.596     |  21.1 |  4.65
Output  | 0.035388   | 0.035408   | 0.035429   |   0.0 |  0.01
Modify  | 7.9214     | 7.9758     | 8.0303     |   1.9 |  1.26
Other   |            | 1.83       |            |       |  0.29

Nlocal:    9826 ave 9827 max 9825 min
Histogram: 1 0 0 0 0 0 0 0 0 1
Nghost:    10993.5 ave 10999 max 10988 min
Histogram: 1 0 0 0 0 0 0 0 0 1
Neighs:    506260 ave 506283 max 506238 min
Histogram: 1 0 0 0 0 0 0 0 0 1

Total # of neighbors = 1012521
Ave neighs/atom = 51.5225
Neighbor list builds = 9505
Dangerous builds not checked
Setting up Verlet run ...
  Unit style    : metal
  Current step  : 120000
  Time step     : 0.001
Per MPI rank memory allocation (min/avg/max) = 11.26 | 11.26 | 11.26 Mbytes
Step Temp Press TotEng PotEng Enthalpy 
  120000    2056.9003    1233.4487   -109595.25   -114819.96   -109220.99 
  120495    2024.4732    759.73661   -109813.71   -114956.06   -109583.25 
Loop time of 32.4383 on 2 procs for 495 steps with 19652 atoms

Performance: 1.318 ns/day, 18.203 hours/ns, 15.260 timesteps/s
99.8% CPU use with 2 MPI tasks x no OpenMP threads

MPI task timing breakdown:
Section |  min time  |  avg time  |  max time  |%varavg| %total
---------------------------------------------------------------
Pair    | 16.777     | 16.897     | 17.017     |   2.9 | 52.09
Neigh   | 13.646     | 14.041     | 14.436     |  10.5 | 43.29
Comm    | 0.70996    | 0.99944    | 1.2889     |  29.0 |  3.08
Output  | 8.2016e-05 | 0.00011158 | 0.00014114 |   0.0 |  0.00
Modify  | 0.38924    | 0.39925    | 0.40926    |   1.6 |  1.23
Other   |            | 0.1009     |            |       |  0.31

Nlocal:    9826 ave 9826 max 9826 min
Histogram: 2 0 0 0 0 0 0 0 0 0
Nghost:    10996 ave 10997 max 10995 min
Histogram: 1 0 0 0 0 0 0 0 0 1
Neighs:    506417 ave 506533 max 506301 min
Histogram: 1 0 0 0 0 0 0 0 0 1

Total # of neighbors = 1012834
Ave neighs/atom = 51.5385
Neighbor list builds = 495
Dangerous builds not checked
Setting up Verlet run ...
  Unit style    : metal
  Current step  : 120495
  Time step     : 0.001
Per MPI rank memory allocation (min/avg/max) = 11.26 | 11.26 | 11.26 Mbytes
Step Temp Press TotEng PotEng Enthalpy 
  120495    2024.4732    759.73661   -109813.71   -114956.06   -109583.25 
  130000     2005.397    1132.6043   -109900.92   -114994.81   -109557.74 
Loop time of 638.078 on 2 procs for 9505 steps with 19652 atoms

Performance: 1.287 ns/day, 18.647 hours/ns, 14.896 timesteps/s
98.6% CPU use with 2 MPI tasks x no OpenMP threads

MPI task timing breakdown:
Section |  min time  |  avg time  |  max time  |%varavg| %total
---------------------------------------------------------------
Pair    | 329.11     | 330.02     | 330.93     |   5.0 | 51.72
Neigh   | 268.74     | 269.92     | 271.11     |   7.2 | 42.30
Comm    | 27.832     | 28.411     | 28.989     |  10.9 |  4.45
Output  | 0.035366   | 0.035387   | 0.035408   |   0.0 |  0.01
Modify  | 7.5206     | 7.8211     | 8.1217     |  10.7 |  1.23
Other   |            | 1.871      |            |       |  0.29

Nlocal:    9826 ave 9831 max 9821 min
Histogram: 1 0 0 0 0 0 0 0 0 1
Nghost:    10992.5 ave 11000 max 10985 min
Histogram: 1 0 0 0 0 0 0 0 0 1
Neighs:    507188 ave 507704 max 506673 min
Histogram: 1 0 0 0 0 0 0 0 0 1

Total # of neighbors = 1014377
Ave neighs/atom = 51.617
Neighbor list builds = 9505
Dangerous builds not checked
Setting up Verlet run ...
  Unit style    : metal
  Current step  : 130000
  Time step     : 0.001
Per MPI rank memory allocation (min/avg/max) = 11.26 | 11.26 | 11.26 Mbytes
Step Temp Press TotEng PotEng Enthalpy 
  130000     2005.397    1132.6043   -109900.92   -114994.81   -109557.74 
  130495    1977.4792    1614.7026   -110133.58   -115156.56   -109645.18 
Loop time of 32.3904 on 2 procs for 495 steps with 19652 atoms

Performance: 1.320 ns/day, 18.176 hours/ns, 15.282 timesteps/s
99.8% CPU use with 2 MPI tasks x no OpenMP threads

MPI task timing breakdown:
Section |  min time  |  avg time  |  max time  |%varavg| %total
---------------------------------------------------------------
Pair    | 16.796     | 16.861     | 16.927     |   1.6 | 52.06
Neigh   | 13.911     | 13.967     | 14.022     |   1.5 | 43.12
Comm    | 0.94286    | 1.0662     | 1.1894     |  11.9 |  3.29
Output  | 8.3923e-05 | 0.00011003 | 0.00013614 |   0.0 |  0.00
Modify  | 0.39483    | 0.39659    | 0.39836    |   0.3 |  1.22
Other   |            | 0.0996     |            |       |  0.31

Nlocal:    9826 ave 9831 max 9821 min
Histogram: 1 0 0 0 0 0 0 0 0 1
Nghost:    11011.5 ave 11013 max 11010 min
Histogram: 1 0 0 0 0 0 0 0 0 1
Neighs:    508166 ave 508352 max 507979 min
Histogram: 1 0 0 0 0 0 0 0 0 1

Total # of neighbors = 1016331
Ave neighs/atom = 51.7164
Neighbor list builds = 495
Dangerous builds not checked
Setting up Verlet run ...
  Unit style    : metal
  Current step  : 130495
  Time step     : 0.001
Per MPI rank memory allocation (min/avg/max) = 11.26 | 11.26 | 11.26 Mbytes
Step Temp Press TotEng PotEng Enthalpy 
  130495    1977.4792    1614.7026   -110133.58   -115156.56   -109645.18 
  140000    1960.5532    1695.8564   -110334.75   -115314.73   -109822.61 
Loop time of 645.083 on 2 procs for 9505 steps with 19652 atoms

Performance: 1.273 ns/day, 18.852 hours/ns, 14.735 timesteps/s
98.1% CPU use with 2 MPI tasks x no OpenMP threads

MPI task timing breakdown:
Section |  min time  |  avg time  |  max time  |%varavg| %total
---------------------------------------------------------------
Pair    | 335.76     | 336.17     | 336.58     |   2.2 | 52.11
Neigh   | 273.05     | 273.2      | 273.34     |   0.9 | 42.35
Comm    | 24.664     | 24.948     | 25.233     |   5.7 |  3.87
Output  | 0.036173   | 0.036184   | 0.036195   |   0.0 |  0.01
Modify  | 8.8195     | 8.8395     | 8.8594     |   0.7 |  1.37
Other   |            | 1.892      |            |       |  0.29

Nlocal:    9826 ave 9837 max 9815 min
Histogram: 1 0 0 0 0 0 0 0 0 1
Nghost:    11070 ave 11070 max 11070 min
Histogram: 2 0 0 0 0 0 0 0 0 0
Neighs:    508984 ave 510060 max 507909 min
Histogram: 1 0 0 0 0 0 0 0 0 1

Total # of neighbors = 1017969
Ave neighs/atom = 51.7998
Neighbor list builds = 9505
Dangerous builds not checked
Setting up Verlet run ...
  Unit style    : metal
  Current step  : 140000
  Time step     : 0.001
Per MPI rank memory allocation (min/avg/max) = 11.26 | 11.26 | 11.26 Mbytes
Step Temp Press TotEng PotEng Enthalpy 
  140000    1960.5532    1695.8564   -110334.75   -115314.73   -109822.61 
  140495    1921.8592    1586.1689   -110544.85   -115426.55   -110066.29 
Loop time of 32.7518 on 2 procs for 495 steps with 19652 atoms

Performance: 1.306 ns/day, 18.379 hours/ns, 15.114 timesteps/s
99.1% CPU use with 2 MPI tasks x no OpenMP threads

MPI task timing breakdown:
Section |  min time  |  avg time  |  max time  |%varavg| %total
---------------------------------------------------------------
Pair    | 16.825     | 16.849     | 16.874     |   0.6 | 51.45
Neigh   | 13.924     | 13.981     | 14.037     |   1.5 | 42.69
Comm    | 1.3899     | 1.4235     | 1.4571     |   2.8 |  4.35
Output  | 7.7009e-05 | 0.00010192 | 0.00012684 |   0.0 |  0.00
Modify  | 0.39797    | 0.39881    | 0.39965    |   0.1 |  1.22
Other   |            | 0.0992     |            |       |  0.30

Nlocal:    9826 ave 9834 max 9818 min
Histogram: 1 0 0 0 0 0 0 0 0 1
Nghost:    10993 ave 11006 max 10980 min
Histogram: 1 0 0 0 0 0 0 0 0 1
Neighs:    509580 ave 510337 max 508823 min
Histogram: 1 0 0 0 0 0 0 0 0 1

Total # of neighbors = 1019160
Ave neighs/atom = 51.8604
Neighbor list builds = 495
Dangerous builds not checked
Setting up Verlet run ...
  Unit style    : metal
  Current step  : 140495
  Time step     : 0.001
Per MPI rank memory allocation (min/avg/max) = 11.26 | 11.26 | 11.26 Mbytes
Step Temp Press TotEng PotEng Enthalpy 
  140495    1921.8592    1586.1689   -110544.85   -115426.55   -110066.29 
  150000    1917.9598    588.35801    -110627.2      -115499   -110449.48 
Loop time of 643.086 on 2 procs for 9505 steps with 19652 atoms

Performance: 1.277 ns/day, 18.794 hours/ns, 14.780 timesteps/s
98.3% CPU use with 2 MPI tasks x no OpenMP threads

MPI task timing breakdown:
Section |  min time  |  avg time  |  max time  |%varavg| %total
---------------------------------------------------------------
Pair    | 330.56     | 331        | 331.45     |   2.5 | 51.47
Neigh   | 270.6      | 271.52     | 272.44     |   5.6 | 42.22
Comm    | 29.287     | 30.698     | 32.108     |  25.5 |  4.77
Output  | 0.035716   | 0.035739   | 0.035761   |   0.0 |  0.01
Modify  | 7.8934     | 7.9331     | 7.9728     |   1.4 |  1.23
Other   |            | 1.893      |            |       |  0.29

Nlocal:    9826 ave 9833 max 9819 min
Histogram: 1 0 0 0 0 0 0 0 0 1
Nghost:    10973 ave 11002 max 10944 min
Histogram: 1 0 0 0 0 0 0 0 0 1
Neighs:    509047 ave 509932 max 508162 min
Histogram: 1 0 0 0 0 0 0 0 0 1

Total # of neighbors = 1018094
Ave neighs/atom = 51.8061
Neighbor list builds = 9505
Dangerous builds not checked
Setting up Verlet run ...
  Unit style    : metal
  Current step  : 150000
  Time step     : 0.001
Per MPI rank memory allocation (min/avg/max) = 11.27 | 11.27 | 11.27 Mbytes
Step Temp Press TotEng PotEng Enthalpy 
  150000    1917.9598    588.35801    -110627.2      -115499   -110449.48 
  150495    1859.5328     244.6068   -110865.17   -115588.55   -110791.31 
Loop time of 32.0349 on 2 procs for 495 steps with 19652 atoms

Performance: 1.335 ns/day, 17.977 hours/ns, 15.452 timesteps/s
99.8% CPU use with 2 MPI tasks x no OpenMP threads

MPI task timing breakdown:
Section |  min time  |  avg time  |  max time  |%varavg| %total
---------------------------------------------------------------
Pair    | 16.592     | 16.65      | 16.708     |   1.4 | 51.97
Neigh   | 13.796     | 13.88      | 13.964     |   2.3 | 43.33
Comm    | 0.98706    | 1.0155     | 1.044      |   2.8 |  3.17
Output  | 8.6069e-05 | 0.0001235  | 0.00016093 |   0.0 |  0.00
Modify  | 0.38952    | 0.3909     | 0.39228    |   0.2 |  1.22
Other   |            | 0.09851    |            |       |  0.31

Nlocal:    9826 ave 9830 max 9822 min
Histogram: 1 0 0 0 0 0 0 0 0 1
Nghost:    11008.5 ave 11013 max 11004 min
Histogram: 1 0 0 0 0 0 0 0 0 1
Neighs:    509472 ave 510021 max 508922 min
Histogram: 1 0 0 0 0 0 0 0 0 1

Total # of neighbors = 1018943
Ave neighs/atom = 51.8493
Neighbor list builds = 495
Dangerous builds not checked
Setting up Verlet run ...
  Unit style    : metal
  Current step  : 150495
  Time step     : 0.001
Per MPI rank memory allocation (min/avg/max) = 11.27 | 11.27 | 11.27 Mbytes
Step Temp Press TotEng PotEng Enthalpy 
  150495    1859.5328     244.6068   -110865.17   -115588.55   -110791.31 
  160000    1859.2083    244.45956   -110960.51   -115683.07   -110886.74 
Loop time of 649.602 on 2 procs for 9505 steps with 19652 atoms

Performance: 1.264 ns/day, 18.984 hours/ns, 14.632 timesteps/s
97.9% CPU use with 2 MPI tasks x no OpenMP threads

MPI task timing breakdown:
Section |  min time  |  avg time  |  max time  |%varavg| %total
---------------------------------------------------------------
Pair    | 337.52     | 338.11     | 338.69     |   3.2 | 52.05
Neigh   | 273.43     | 273.61     | 273.79     |   1.1 | 42.12
Comm    | 26.774     | 27.564     | 28.355     |  15.1 |  4.24
Output  | 0.034351   | 0.034365   | 0.03438    |   0.0 |  0.01
Modify  | 8.3527     | 8.3744     | 8.3961     |   0.8 |  1.29
Other   |            | 1.915      |            |       |  0.29

Nlocal:    9826 ave 9844 max 9808 min
Histogram: 1 0 0 0 0 0 0 0 0 1
Nghost:    10956.5 ave 10993 max 10920 min
Histogram: 1 0 0 0 0 0 0 0 0 1
Neighs:    509689 ave 510971 max 508407 min
Histogram: 1 0 0 0 0 0 0 0 0 1

Total # of neighbors = 1019378
Ave neighs/atom = 51.8715
Neighbor list builds = 9505
Dangerous builds not checked
Setting up Verlet run ...
  Unit style    : metal
  Current step  : 160000
  Time step     : 0.001
Per MPI rank memory allocation (min/avg/max) = 11.27 | 11.27 | 11.27 Mbytes
Step Temp Press TotEng PotEng Enthalpy 
  160000    1859.2083    244.45956   -110960.51   -115683.07   -110886.74 
  160495    1806.5578    360.00038   -111239.79   -115828.61   -111131.34 
Loop time of 32.8964 on 2 procs for 495 steps with 19652 atoms

Performance: 1.300 ns/day, 18.460 hours/ns, 15.047 timesteps/s
99.0% CPU use with 2 MPI tasks x no OpenMP threads

MPI task timing breakdown:
Section |  min time  |  avg time  |  max time  |%varavg| %total
---------------------------------------------------------------
Pair    | 17.329     | 17.358     | 17.387     |   0.7 | 52.77
Neigh   | 13.947     | 13.974     | 14.002     |   0.7 | 42.48
Comm    | 1.0142     | 1.0717     | 1.1293     |   5.6 |  3.26
Output  | 8.4877e-05 | 0.00011444 | 0.000144   |   0.0 |  0.00
Modify  | 0.3919     | 0.39325    | 0.3946     |   0.2 |  1.20
Other   |            | 0.09856    |            |       |  0.30

Nlocal:    9826 ave 9830 max 9822 min
Histogram: 1 0 0 0 0 0 0 0 0 1
Nghost:    11020 ave 11033 max 11007 min
Histogram: 1 0 0 0 0 0 0 0 0 1
Neighs:    510832 ave 510863 max 510800 min
Histogram: 1 0 0 0 0 0 0 0 0 1

Total # of neighbors = 1021663
Ave neighs/atom = 51.9877
Neighbor list builds = 495
Dangerous builds not checked
Setting up Verlet run ...
  Unit style    : metal
  Current step  : 160495
  Time step     : 0.001
Per MPI rank memory allocation (min/avg/max) = 11.27 | 11.27 | 11.27 Mbytes
Step Temp Press TotEng PotEng Enthalpy 
  160495    1806.5578    360.00038   -111239.79   -115828.61   -111131.34 
  170000    1786.6894    202.64558   -111378.88   -115917.24   -111317.85 
Loop time of 645.676 on 2 procs for 9505 steps with 19652 atoms

Performance: 1.272 ns/day, 18.869 hours/ns, 14.721 timesteps/s
98.6% CPU use with 2 MPI tasks x no OpenMP threads

MPI task timing breakdown:
Section |  min time  |  avg time  |  max time  |%varavg| %total
---------------------------------------------------------------
Pair    | 333.88     | 334.52     | 335.16     |   3.5 | 51.81
Neigh   | 272.47     | 272.99     | 273.52     |   3.2 | 42.28
Comm    | 27.419     | 27.533     | 27.647     |   2.2 |  4.26
Output  | 0.035194   | 0.035213   | 0.035231   |   0.0 |  0.01
Modify  | 8.6854     | 8.6862     | 8.6871     |   0.0 |  1.35
Other   |            | 1.906      |            |       |  0.30

Nlocal:    9826 ave 9832 max 9820 min
Histogram: 1 0 0 0 0 0 0 0 0 1
Nghost:    11025 ave 11030 max 11020 min
Histogram: 1 0 0 0 0 0 0 0 0 1
Neighs:    511044 ave 511661 max 510428 min
Histogram: 1 0 0 0 0 0 0 0 0 1

Total # of neighbors = 1022089
Ave neighs/atom = 52.0094
Neighbor list builds = 9505
Dangerous builds not checked
Setting up Verlet run ...
  Unit style    : metal
  Current step  : 170000
  Time step     : 0.001
Per MPI rank memory allocation (min/avg/max) = 11.27 | 11.27 | 11.27 Mbytes
Step Temp Press TotEng PotEng Enthalpy 
  170000    1786.6894    202.64558   -111378.88   -115917.24   -111317.85 
  170495    1764.1231   -10.081685   -111595.38   -116076.41   -111598.41 
Loop time of 33.5115 on 2 procs for 495 steps with 19652 atoms

Performance: 1.276 ns/day, 18.806 hours/ns, 14.771 timesteps/s
97.6% CPU use with 2 MPI tasks x no OpenMP threads

MPI task timing breakdown:
Section |  min time  |  avg time  |  max time  |%varavg| %total
---------------------------------------------------------------
Pair    | 16.728     | 16.757     | 16.785     |   0.7 | 50.00
Neigh   | 13.727     | 13.789     | 13.851     |   1.7 | 41.15
Comm    | 1.9877     | 2.0222     | 2.0567     |   2.4 |  6.03
Output  | 9.4891e-05 | 0.00011146 | 0.00012803 |   0.0 |  0.00
Modify  | 0.84315    | 0.84488    | 0.84661    |   0.2 |  2.52
Other   |            | 0.09837    |            |       |  0.29

Nlocal:    9826 ave 9833 max 9819 min
Histogram: 1 0 0 0 0 0 0 0 0 1
Nghost:    11038.5 ave 11062 max 11015 min
Histogram: 1 0 0 0 0 0 0 0 0 1
Neighs:    511355 ave 512391 max 510319 min
Histogram: 1 0 0 0 0 0 0 0 0 1

Total # of neighbors = 1022710
Ave neighs/atom = 52.041
Neighbor list builds = 495
Dangerous builds not checked
Setting up Verlet run ...
  Unit style    : metal
  Current step  : 170495
  Time step     : 0.001
Per MPI rank memory allocation (min/avg/max) = 11.27 | 11.27 | 11.27 Mbytes
Step Temp Press TotEng PotEng Enthalpy 
  170495    1764.1231   -10.081685   -111595.38   -116076.41   -111598.41 
  180000     1763.101    180.24499   -111639.93   -116118.37   -111585.74 
Loop time of 661.453 on 2 procs for 9505 steps with 19652 atoms

Performance: 1.242 ns/day, 19.331 hours/ns, 14.370 timesteps/s
98.6% CPU use with 2 MPI tasks x no OpenMP threads

MPI task timing breakdown:
Section |  min time  |  avg time  |  max time  |%varavg| %total
---------------------------------------------------------------
Pair    | 347.24     | 347.24     | 347.24     |   0.0 | 52.50
Neigh   | 276.07     | 276.4      | 276.73     |   2.0 | 41.79
Comm    | 27.731     | 27.981     | 28.232     |   4.7 |  4.23
Output  | 0.033463   | 0.033489   | 0.033516   |   0.0 |  0.01
Modify  | 7.7729     | 7.8513     | 7.9298     |   2.8 |  1.19
Other   |            | 1.946      |            |       |  0.29

Nlocal:    9826 ave 9832 max 9820 min
Histogram: 1 0 0 0 0 0 0 0 0 1
Nghost:    11065 ave 11071 max 11059 min
Histogram: 1 0 0 0 0 0 0 0 0 1
Neighs:    511680 ave 512506 max 510855 min
Histogram: 1 0 0 0 0 0 0 0 0 1

Total # of neighbors = 1023361
Ave neighs/atom = 52.0741
Neighbor list builds = 9505
Dangerous builds not checked
Setting up Verlet run ...
  Unit style    : metal
  Current step  : 180000
  Time step     : 0.001
Per MPI rank memory allocation (min/avg/max) = 11.27 | 11.27 | 11.27 Mbytes
Step Temp Press TotEng PotEng Enthalpy 
  180000     1763.101    180.24499   -111639.93   -116118.37   -111585.74 
  180495    1705.8053    667.74091   -111899.73   -116232.63    -111699.2 
Loop time of 34.3746 on 2 procs for 495 steps with 19652 atoms

Performance: 1.244 ns/day, 19.290 hours/ns, 14.400 timesteps/s
98.3% CPU use with 2 MPI tasks x no OpenMP threads

MPI task timing breakdown:
Section |  min time  |  avg time  |  max time  |%varavg| %total
---------------------------------------------------------------
Pair    | 18.271     | 18.288     | 18.305     |   0.4 | 53.20
Neigh   | 14.208     | 14.209     | 14.209     |   0.0 | 41.33
Comm    | 1.3571     | 1.373      | 1.3889     |   1.4 |  3.99
Output  | 8.2016e-05 | 0.00016749 | 0.00025296 |   0.0 |  0.00
Modify  | 0.40197    | 0.40324    | 0.40451    |   0.2 |  1.17
Other   |            | 0.1015     |            |       |  0.30

Nlocal:    9826 ave 9827 max 9825 min
Histogram: 1 0 0 0 0 0 0 0 0 1
Nghost:    10996 ave 10998 max 10994 min
Histogram: 1 0 0 0 0 0 0 0 0 1
Neighs:    512808 ave 512914 max 512702 min
Histogram: 1 0 0 0 0 0 0 0 0 1

Total # of neighbors = 1025616
Ave neighs/atom = 52.1889
Neighbor list builds = 495
Dangerous builds not checked
Setting up Verlet run ...
  Unit style    : metal
  Current step  : 180495
  Time step     : 0.001
Per MPI rank memory allocation (min/avg/max) = 11.27 | 11.27 | 11.27 Mbytes
Step Temp Press TotEng PotEng Enthalpy 
  180495    1705.8053    667.74091   -111899.73   -116232.63    -111699.2 
  190000    1702.0035    274.40584   -112040.49   -116363.73   -111958.13 
Loop time of 668.356 on 2 procs for 9505 steps with 19652 atoms

Performance: 1.229 ns/day, 19.532 hours/ns, 14.221 timesteps/s
98.5% CPU use with 2 MPI tasks x no OpenMP threads

MPI task timing breakdown:
Section |  min time  |  avg time  |  max time  |%varavg| %total
---------------------------------------------------------------
Pair    | 349.67     | 350.86     | 352.05     |   6.4 | 52.50
Neigh   | 277.26     | 277.83     | 278.39     |   3.4 | 41.57
Comm    | 27.51      | 28.12      | 28.731     |  11.5 |  4.21
Output  | 0.29586    | 0.29588    | 0.29589    |   0.0 |  0.04
Modify  | 9.2734     | 9.29       | 9.3067     |   0.5 |  1.39
Other   |            | 1.967      |            |       |  0.29

Nlocal:    9826 ave 9848 max 9804 min
Histogram: 1 0 0 0 0 0 0 0 0 1
Nghost:    11008.5 ave 11030 max 10987 min
Histogram: 1 0 0 0 0 0 0 0 0 1
Neighs:    513304 ave 514442 max 512166 min
Histogram: 1 0 0 0 0 0 0 0 0 1

Total # of neighbors = 1026608
Ave neighs/atom = 52.2394
Neighbor list builds = 9505
Dangerous builds not checked
Setting up Verlet run ...
  Unit style    : metal
  Current step  : 190000
  Time step     : 0.001
Per MPI rank memory allocation (min/avg/max) = 11.27 | 11.27 | 11.27 Mbytes
Step Temp Press TotEng PotEng Enthalpy 
  190000    1702.0035    274.40584   -112040.49   -116363.73   -111958.13 
  190495    1665.9852    539.05176   -112251.58   -116483.33   -112090.03 
Loop time of 34.2112 on 2 procs for 495 steps with 19652 atoms

Performance: 1.250 ns/day, 19.198 hours/ns, 14.469 timesteps/s
97.2% CPU use with 2 MPI tasks x no OpenMP threads

MPI task timing breakdown:
Section |  min time  |  avg time  |  max time  |%varavg| %total
---------------------------------------------------------------
Pair    | 18.242     | 18.274     | 18.307     |   0.8 | 53.42
Neigh   | 14.041     | 14.143     | 14.245     |   2.7 | 41.34
Comm    | 1.0144     | 1.2215     | 1.4285     |  18.7 |  3.57
Output  | 8.3923e-05 | 0.00010896 | 0.00013399 |   0.0 |  0.00
Modify  | 0.40006    | 0.47146    | 0.54287    |  10.4 |  1.38
Other   |            | 0.1008     |            |       |  0.29

Nlocal:    9826 ave 9842 max 9810 min
Histogram: 1 0 0 0 0 0 0 0 0 1
Nghost:    11058.5 ave 11059 max 11058 min
Histogram: 1 0 0 0 0 0 0 0 0 1
Neighs:    514264 ave 515790 max 512737 min
Histogram: 1 0 0 0 0 0 0 0 0 1

Total # of neighbors = 1028527
Ave neighs/atom = 52.337
Neighbor list builds = 495
Dangerous builds not checked
Setting up Verlet run ...
  Unit style    : metal
  Current step  : 190495
  Time step     : 0.001
Per MPI rank memory allocation (min/avg/max) = 11.27 | 11.27 | 11.27 Mbytes
Step Temp Press TotEng PotEng Enthalpy 
  190495    1665.9852    539.05176   -112251.58   -116483.33   -112090.03 
  200000    1648.0869    686.21934      -112382   -116568.29   -112176.47 
Loop time of 663.763 on 2 procs for 9505 steps with 19652 atoms

Performance: 1.237 ns/day, 19.398 hours/ns, 14.320 timesteps/s
98.6% CPU use with 2 MPI tasks x no OpenMP threads

MPI task timing breakdown:
Section |  min time  |  avg time  |  max time  |%varavg| %total
---------------------------------------------------------------
Pair    | 349.21     | 350.83     | 352.44     |   8.6 | 52.85
Neigh   | 276.58     | 276.9      | 277.21     |   1.9 | 41.72
Comm    | 24.3       | 26.256     | 28.213     |  38.2 |  3.96
Output  | 0.035971   | 0.035995   | 0.036018   |   0.0 |  0.01
Modify  | 7.7683     | 7.7884     | 7.8086     |   0.7 |  1.17
Other   |            | 1.959      |            |       |  0.30

Nlocal:    9826 ave 9852 max 9800 min
Histogram: 1 0 0 0 0 0 0 0 0 1
Nghost:    11026 ave 11049 max 11003 min
Histogram: 1 0 0 0 0 0 0 0 0 1
Neighs:    514534 ave 515793 max 513274 min
Histogram: 1 0 0 0 0 0 0 0 0 1

Total # of neighbors = 1029067
Ave neighs/atom = 52.3645
Neighbor list builds = 9505
Dangerous builds not checked
Setting up Verlet run ...
  Unit style    : metal
  Current step  : 200000
  Time step     : 0.001
Per MPI rank memory allocation (min/avg/max) = 11.27 | 11.28 | 11.28 Mbytes
Step Temp Press TotEng PotEng Enthalpy 
  200000    1648.0869    686.21934      -112382   -116568.29   -112176.47 
  200495    1612.9289   -9.0962854   -112618.28   -116715.27      -112621 
Loop time of 33.6379 on 2 procs for 495 steps with 19652 atoms

Performance: 1.271 ns/day, 18.877 hours/ns, 14.716 timesteps/s
99.9% CPU use with 2 MPI tasks x no OpenMP threads

MPI task timing breakdown:
Section |  min time  |  avg time  |  max time  |%varavg| %total
---------------------------------------------------------------
Pair    | 17.718     | 17.724     | 17.731     |   0.2 | 52.69
Neigh   | 14.202     | 14.305     | 14.407     |   2.7 | 42.53
Comm    | 0.98526    | 1.0962     | 1.2072     |  10.6 |  3.26
Output  | 9.1076e-05 | 0.00019109 | 0.00029111 |   0.0 |  0.00
Modify  | 0.40716    | 0.40887    | 0.41059    |   0.3 |  1.22
Other   |            | 0.1039     |            |       |  0.31

Nlocal:    9826 ave 9836 max 9816 min
Histogram: 1 0 0 0 0 0 0 0 0 1
Nghost:    11074.5 ave 11110 max 11039 min
Histogram: 1 0 0 0 0 0 0 0 0 1
Neighs:    515008 ave 515757 max 514259 min
Histogram: 1 0 0 0 0 0 0 0 0 1

Total # of neighbors = 1030016
Ave neighs/atom = 52.4128
Neighbor list builds = 495
Dangerous builds not checked
Setting up Verlet run ...
  Unit style    : metal
  Current step  : 200495
  Time step     : 0.001
Per MPI rank memory allocation (min/avg/max) = 11.27 | 11.28 | 11.28 Mbytes
Step Temp Press TotEng PotEng Enthalpy 
  200495    1612.9289   -9.0962854   -112618.28   -116715.27      -112621 
  210000    1604.4968     211.5965   -112729.86   -116805.42   -112666.55 
Loop time of 665.121 on 2 procs for 9505 steps with 19652 atoms

Performance: 1.235 ns/day, 19.438 hours/ns, 14.291 timesteps/s
98.4% CPU use with 2 MPI tasks x no OpenMP threads

MPI task timing breakdown:
Section |  min time  |  avg time  |  max time  |%varavg| %total
---------------------------------------------------------------
Pair    | 348.08     | 348.77     | 349.45     |   3.7 | 52.44
Neigh   | 277.12     | 277.16     | 277.19     |   0.2 | 41.67
Comm    | 28.7       | 29.231     | 29.762     |   9.8 |  4.39
Output  | 0.03593    | 0.035948   | 0.035965   |   0.0 |  0.01
Modify  | 7.7831     | 7.9703     | 8.1575     |   6.6 |  1.20
Other   |            | 1.961      |            |       |  0.29

Nlocal:    9826 ave 9836 max 9816 min
Histogram: 1 0 0 0 0 0 0 0 0 1
Nghost:    11083 ave 11103 max 11063 min
Histogram: 1 0 0 0 0 0 0 0 0 1
Neighs:    515528 ave 516050 max 515005 min
Histogram: 1 0 0 0 0 0 0 0 0 1

Total # of neighbors = 1031055
Ave neighs/atom = 52.4657
Neighbor list builds = 9505
Dangerous builds not checked
Setting up Verlet run ...
  Unit style    : metal
  Current step  : 210000
  Time step     : 0.001
Per MPI rank memory allocation (min/avg/max) = 11.28 | 11.28 | 11.28 Mbytes
Step Temp Press TotEng PotEng Enthalpy 
  210000    1604.4968     211.5965   -112729.86   -116805.42   -112666.55 
  210495    1563.9996   -230.78974   -112950.12   -116922.82   -113019.16 
Loop time of 33.9632 on 2 procs for 495 steps with 19652 atoms

Performance: 1.259 ns/day, 19.059 hours/ns, 14.575 timesteps/s
99.4% CPU use with 2 MPI tasks x no OpenMP threads

MPI task timing breakdown:
Section |  min time  |  avg time  |  max time  |%varavg| %total
---------------------------------------------------------------
Pair    | 17.867     | 17.869     | 17.871     |   0.0 | 52.61
Neigh   | 14.303     | 14.381     | 14.459     |   2.0 | 42.34
Comm    | 1.1164     | 1.1581     | 1.1997     |   3.9 |  3.41
Output  | 8.2016e-05 | 0.00011647 | 0.00015092 |   0.0 |  0.00
Modify  | 0.4146     | 0.44966    | 0.48472    |   5.2 |  1.32
Other   |            | 0.1054     |            |       |  0.31

Nlocal:    9826 ave 9842 max 9810 min
Histogram: 1 0 0 0 0 0 0 0 0 1
Nghost:    11056.5 ave 11068 max 11045 min
Histogram: 1 0 0 0 0 0 0 0 0 1
Neighs:    515810 ave 516941 max 514680 min
Histogram: 1 0 0 0 0 0 0 0 0 1

Total # of neighbors = 1031621
Ave neighs/atom = 52.4945
Neighbor list builds = 495
Dangerous builds not checked
Setting up Verlet run ...
  Unit style    : metal
  Current step  : 210495
  Time step     : 0.001
Per MPI rank memory allocation (min/avg/max) = 11.28 | 11.28 | 11.28 Mbytes
Step Temp Press TotEng PotEng Enthalpy 
  210495    1563.9996   -230.78974   -112950.12   -116922.82   -113019.16 
  220000    1544.4991   -899.40038   -113121.76   -117044.92   -113390.74 
Loop time of 671.985 on 2 procs for 9505 steps with 19652 atoms

Performance: 1.222 ns/day, 19.638 hours/ns, 14.145 timesteps/s
98.1% CPU use with 2 MPI tasks x no OpenMP threads

MPI task timing breakdown:
Section |  min time  |  avg time  |  max time  |%varavg| %total
---------------------------------------------------------------
Pair    | 350.26     | 351.14     | 352.01     |   4.7 | 52.25
Neigh   | 278.19     | 278.95     | 279.71     |   4.5 | 41.51
Comm    | 30.464     | 31.008     | 31.552     |   9.8 |  4.61
Output  | 0.035501   | 0.035566   | 0.035632   |   0.0 |  0.01
Modify  | 8.4467     | 8.8814     | 9.3161     |  14.6 |  1.32
Other   |            | 1.976      |            |       |  0.29

Nlocal:    9826 ave 9829 max 9823 min
Histogram: 1 0 0 0 0 0 0 0 0 1
Nghost:    11053 ave 11053 max 11053 min
Histogram: 2 0 0 0 0 0 0 0 0 0
Neighs:    515986 ave 516794 max 515178 min
Histogram: 1 0 0 0 0 0 0 0 0 1

Total # of neighbors = 1031972
Ave neighs/atom = 52.5123
Neighbor list builds = 9505
Dangerous builds not checked
Setting up Verlet run ...
  Unit style    : metal
  Current step  : 220000
  Time step     : 0.001
Per MPI rank memory allocation (min/avg/max) = 11.28 | 11.28 | 11.28 Mbytes
Step Temp Press TotEng PotEng Enthalpy 
  220000    1544.4991   -899.40038   -113121.76   -117044.92   -113390.74 
  220495    1507.2847    240.99914   -113331.59   -117160.23    -113259.7 
Loop time of 36.0135 on 2 procs for 495 steps with 19652 atoms

Performance: 1.188 ns/day, 20.210 hours/ns, 13.745 timesteps/s
97.2% CPU use with 2 MPI tasks x no OpenMP threads

MPI task timing breakdown:
Section |  min time  |  avg time  |  max time  |%varavg| %total
---------------------------------------------------------------
Pair    | 18.714     | 18.95      | 19.186     |   5.4 | 52.62
Neigh   | 15.159     | 15.291     | 15.422     |   3.4 | 42.46
Comm    | 1.0865     | 1.197      | 1.3075     |  10.1 |  3.32
Output  | 8.297e-05  | 0.00011897 | 0.00015497 |   0.0 |  0.00
Modify  | 0.46202    | 0.4659     | 0.46978    |   0.6 |  1.29
Other   |            | 0.1098     |            |       |  0.30

Nlocal:    9826 ave 9850 max 9802 min
Histogram: 1 0 0 0 0 0 0 0 0 1
Nghost:    11042 ave 11054 max 11030 min
Histogram: 1 0 0 0 0 0 0 0 0 1
Neighs:    517476 ave 519433 max 515519 min
Histogram: 1 0 0 0 0 0 0 0 0 1

Total # of neighbors = 1034952
Ave neighs/atom = 52.664
Neighbor list builds = 495
Dangerous builds not checked
Setting up Verlet run ...
  Unit style    : metal
  Current step  : 220495
  Time step     : 0.001
Per MPI rank memory allocation (min/avg/max) = 11.28 | 11.28 | 11.28 Mbytes
Step Temp Press TotEng PotEng Enthalpy 
  220495    1507.2847    240.99914   -113331.59   -117160.23    -113259.7 
  230000     1504.829   -1179.9106   -113449.48   -117271.88    -113801.9 
Loop time of 710.477 on 2 procs for 9505 steps with 19652 atoms

Performance: 1.156 ns/day, 20.763 hours/ns, 13.378 timesteps/s
95.8% CPU use with 2 MPI tasks x no OpenMP threads

MPI task timing breakdown:
Section |  min time  |  avg time  |  max time  |%varavg| %total
---------------------------------------------------------------
Pair    | 375.46     | 376.6      | 377.73     |   5.9 | 53.01
Neigh   | 288.88     | 289.05     | 289.22     |   1.0 | 40.68
Comm    | 32.92      | 34.265     | 35.609     |  23.0 |  4.82
Output  | 0.034221   | 0.034238   | 0.034254   |   0.0 |  0.00
Modify  | 8.3787     | 8.4109     | 8.4431     |   1.1 |  1.18
Other   |            | 2.119      |            |       |  0.30

Nlocal:    9826 ave 9844 max 9808 min
Histogram: 1 0 0 0 0 0 0 0 0 1
Nghost:    11092.5 ave 11135 max 11050 min
Histogram: 1 0 0 0 0 0 0 0 0 1
Neighs:    517076 ave 518263 max 515890 min
Histogram: 1 0 0 0 0 0 0 0 0 1

Total # of neighbors = 1034153
Ave neighs/atom = 52.6233
Neighbor list builds = 9505
Dangerous builds not checked
Setting up Verlet run ...
  Unit style    : metal
  Current step  : 230000
  Time step     : 0.001
Per MPI rank memory allocation (min/avg/max) = 11.28 | 11.28 | 11.28 Mbytes
Step Temp Press TotEng PotEng Enthalpy 
  230000     1504.829   -1179.9106   -113449.48   -117271.88    -113801.9 
  230495    1465.0057    467.96652   -113670.17   -117391.42   -113530.83 
Loop time of 34.1238 on 2 procs for 495 steps with 19652 atoms

Performance: 1.253 ns/day, 19.149 hours/ns, 14.506 timesteps/s
99.9% CPU use with 2 MPI tasks x no OpenMP threads

MPI task timing breakdown:
Section |  min time  |  avg time  |  max time  |%varavg| %total
---------------------------------------------------------------
Pair    | 17.787     | 17.957     | 18.126     |   4.0 | 52.62
Neigh   | 14.421     | 14.491     | 14.56      |   1.8 | 42.46
Comm    | 0.90434    | 1.147      | 1.3896     |  22.7 |  3.36
Output  | 9.3937e-05 | 0.00018704 | 0.00028014 |   0.0 |  0.00
Modify  | 0.41768    | 0.42107    | 0.42446    |   0.5 |  1.23
Other   |            | 0.1082     |            |       |  0.32

Nlocal:    9826 ave 9831 max 9821 min
Histogram: 1 0 0 0 0 0 0 0 0 1
Nghost:    11061.5 ave 11077 max 11046 min
Histogram: 1 0 0 0 0 0 0 0 0 1
Neighs:    518650 ave 519370 max 517931 min
Histogram: 1 0 0 0 0 0 0 0 0 1

Total # of neighbors = 1037301
Ave neighs/atom = 52.7835
Neighbor list builds = 495
Dangerous builds not checked
Setting up Verlet run ...
  Unit style    : metal
  Current step  : 230495
  Time step     : 0.001
Per MPI rank memory allocation (min/avg/max) = 11.28 | 11.28 | 11.28 Mbytes
Step Temp Press TotEng PotEng Enthalpy 
  230495    1465.0057    467.96652   -113670.17   -117391.42   -113530.83 
  240000     1461.542   -403.59754   -113786.27   -117498.72   -113906.51 
Loop time of 679.683 on 2 procs for 9505 steps with 19652 atoms

Performance: 1.208 ns/day, 19.863 hours/ns, 13.984 timesteps/s
98.4% CPU use with 2 MPI tasks x no OpenMP threads

MPI task timing breakdown:
Section |  min time  |  avg time  |  max time  |%varavg| %total
---------------------------------------------------------------
Pair    | 358.72     | 360.17     | 361.63     |   7.7 | 52.99
Neigh   | 284.34     | 284.55     | 284.77     |   1.3 | 41.87
Comm    | 23.285     | 24.571     | 25.857     |  25.9 |  3.62
Output  | 0.034731   | 0.034763   | 0.034795   |   0.0 |  0.01
Modify  | 8.2153     | 8.2435     | 8.2716     |   1.0 |  1.21
Other   |            | 2.11       |            |       |  0.31

Nlocal:    9826 ave 9828 max 9824 min
Histogram: 1 0 0 0 0 0 0 0 0 1
Nghost:    11076.5 ave 11087 max 11066 min
Histogram: 1 0 0 0 0 0 0 0 0 1
Neighs:    518824 ave 518888 max 518761 min
Histogram: 1 0 0 0 0 0 0 0 0 1

Total # of neighbors = 1037649
Ave neighs/atom = 52.8012
Neighbor list builds = 9505
Dangerous builds not checked
Setting up Verlet run ...
  Unit style    : metal
  Current step  : 240000
  Time step     : 0.001
Per MPI rank memory allocation (min/avg/max) = 11.28 | 11.28 | 11.28 Mbytes
Step Temp Press TotEng PotEng Enthalpy 
  240000     1461.542   -403.59754   -113786.27   -117498.72   -113906.51 
  240495    1408.5067   -148.91105   -114028.69   -117606.43   -114072.99 
Loop time of 35.1693 on 2 procs for 495 steps with 19652 atoms

Performance: 1.216 ns/day, 19.736 hours/ns, 14.075 timesteps/s
97.6% CPU use with 2 MPI tasks x no OpenMP threads

MPI task timing breakdown:
Section |  min time  |  avg time  |  max time  |%varavg| %total
---------------------------------------------------------------
Pair    | 18.821     | 18.865     | 18.91      |   1.0 | 53.64
Neigh   | 14.648     | 14.72      | 14.791     |   1.9 | 41.85
Comm    | 0.94089    | 1.0525     | 1.1642     |  10.9 |  2.99
Output  | 9.203e-05  | 0.00012696 | 0.00016189 |   0.0 |  0.00
Modify  | 0.41947    | 0.42207    | 0.42467    |   0.4 |  1.20
Other   |            | 0.1094     |            |       |  0.31

Nlocal:    9826 ave 9828 max 9824 min
Histogram: 1 0 0 0 0 0 0 0 0 1
Nghost:    11063.5 ave 11096 max 11031 min
Histogram: 1 0 0 0 0 0 0 0 0 1
Neighs:    519706 ave 520051 max 519362 min
Histogram: 1 0 0 0 0 0 0 0 0 1

Total # of neighbors = 1039413
Ave neighs/atom = 52.891
Neighbor list builds = 495
Dangerous builds not checked
Setting up Verlet run ...
  Unit style    : metal
  Current step  : 240495
  Time step     : 0.001
Per MPI rank memory allocation (min/avg/max) = 11.28 | 11.28 | 11.28 Mbytes
Step Temp Press TotEng PotEng Enthalpy 
  240495    1408.5067   -148.91105   -114028.69   -117606.43   -114072.99 
  250000    1400.1049   -731.27913   -114130.68   -117687.07   -114348.31 
Loop time of 668.743 on 2 procs for 9505 steps with 19652 atoms

Performance: 1.228 ns/day, 19.544 hours/ns, 14.213 timesteps/s
99.2% CPU use with 2 MPI tasks x no OpenMP threads

MPI task timing breakdown:
Section |  min time  |  avg time  |  max time  |%varavg| %total
---------------------------------------------------------------
Pair    | 352.85     | 353.54     | 354.22     |   3.7 | 52.87
Neigh   | 280.04     | 280.32     | 280.61     |   1.7 | 41.92
Comm    | 23.559     | 24.626     | 25.693     |  21.5 |  3.68
Output  | 0.033497   | 0.033678   | 0.033859   |   0.1 |  0.01
Modify  | 8.0609     | 8.1444     | 8.2279     |   2.9 |  1.22
Other   |            | 2.079      |            |       |  0.31

Nlocal:    9826 ave 9837 max 9815 min
Histogram: 1 0 0 0 0 0 0 0 0 1
Nghost:    11118.5 ave 11121 max 11116 min
Histogram: 1 0 0 0 0 0 0 0 0 1
Neighs:    519566 ave 520465 max 518666 min
Histogram: 1 0 0 0 0 0 0 0 0 1

Total # of neighbors = 1039131
Ave neighs/atom = 52.8766
Neighbor list builds = 9505
Dangerous builds not checked
Setting up Verlet run ...
  Unit style    : metal
  Current step  : 250000
  Time step     : 0.001
Per MPI rank memory allocation (min/avg/max) = 11.28 | 11.28 | 11.28 Mbytes
Step Temp Press TotEng PotEng Enthalpy 
  250000    1400.1049   -731.27913   -114130.68   -117687.07   -114348.31 
  250495     1360.969    547.39523   -114368.67   -117825.65   -114206.21 
Loop time of 34.3119 on 2 procs for 495 steps with 19652 atoms

Performance: 1.246 ns/day, 19.255 hours/ns, 14.426 timesteps/s
98.1% CPU use with 2 MPI tasks x no OpenMP threads

MPI task timing breakdown:
Section |  min time  |  avg time  |  max time  |%varavg| %total
---------------------------------------------------------------
Pair    | 18.313     | 18.348     | 18.382     |   0.8 | 53.47
Neigh   | 14.088     | 14.208     | 14.328     |   3.2 | 41.41
Comm    | 1.0848     | 1.2419     | 1.3991     |  14.1 |  3.62
Output  | 8.893e-05  | 0.00012851 | 0.00016809 |   0.0 |  0.00
Modify  | 0.4063     | 0.40793    | 0.40956    |   0.3 |  1.19
Other   |            | 0.106      |            |       |  0.31

Nlocal:    9826 ave 9834 max 9818 min
Histogram: 1 0 0 0 0 0 0 0 0 1
Nghost:    11112 ave 11115 max 11109 min
Histogram: 1 0 0 0 0 0 0 0 0 1
Neighs:    521436 ave 522939 max 519933 min
Histogram: 1 0 0 0 0 0 0 0 0 1

Total # of neighbors = 1042872
Ave neighs/atom = 53.067
Neighbor list builds = 495
Dangerous builds not checked
Setting up Verlet run ...
  Unit style    : metal
  Current step  : 250495
  Time step     : 0.001
Per MPI rank memory allocation (min/avg/max) = 11.28 | 11.28 | 11.28 Mbytes
Step Temp Press TotEng PotEng Enthalpy 
  250495     1360.969    547.39523   -114368.67   -117825.65   -114206.21 
  260000    1349.4195    991.13731   -114513.79   -117941.44   -114220.11 
Loop time of 663.997 on 2 procs for 9505 steps with 19652 atoms

Performance: 1.237 ns/day, 19.405 hours/ns, 14.315 timesteps/s
99.5% CPU use with 2 MPI tasks x no OpenMP threads

MPI task timing breakdown:
Section |  min time  |  avg time  |  max time  |%varavg| %total
---------------------------------------------------------------
Pair    | 351.37     | 351.95     | 352.53     |   3.1 | 53.00
Neigh   | 278.02     | 278.42     | 278.83     |   2.4 | 41.93
Comm    | 23.36      | 23.563     | 23.766     |   4.2 |  3.55
Output  | 0.035506   | 0.035583   | 0.03566    |   0.0 |  0.01
Modify  | 7.9289     | 7.9526     | 7.9762     |   0.8 |  1.20
Other   |            | 2.076      |            |       |  0.31

Nlocal:    9826 ave 9832 max 9820 min
Histogram: 1 0 0 0 0 0 0 0 0 1
Nghost:    11109.5 ave 11126 max 11093 min
Histogram: 1 0 0 0 0 0 0 0 0 1
Neighs:    522758 ave 523409 max 522107 min
Histogram: 1 0 0 0 0 0 0 0 0 1

Total # of neighbors = 1045516
Ave neighs/atom = 53.2015
Neighbor list builds = 9505
Dangerous builds not checked
Setting up Verlet run ...
  Unit style    : metal
  Current step  : 260000
  Time step     : 0.001
Per MPI rank memory allocation (min/avg/max) = 11.28 | 11.28 | 11.28 Mbytes
Step Temp Press TotEng PotEng Enthalpy 
  260000    1349.4195    991.13731   -114513.79   -117941.44   -114220.11 
  260495    1310.6628   -898.29867   -114748.72   -118077.92   -115015.29 
Loop time of 33.6775 on 2 procs for 495 steps with 19652 atoms

Performance: 1.270 ns/day, 18.899 hours/ns, 14.698 timesteps/s
99.8% CPU use with 2 MPI tasks x no OpenMP threads

MPI task timing breakdown:
Section |  min time  |  avg time  |  max time  |%varavg| %total
---------------------------------------------------------------
Pair    | 17.727     | 17.791     | 17.855     |   1.5 | 52.83
Neigh   | 14.191     | 14.286     | 14.381     |   2.5 | 42.42
Comm    | 1.0409     | 1.0752     | 1.1095     |   3.3 |  3.19
Output  | 8.893e-05  | 0.00019395 | 0.00029898 |   0.0 |  0.00
Modify  | 0.41522    | 0.41635    | 0.41748    |   0.2 |  1.24
Other   |            | 0.1085     |            |       |  0.32

Nlocal:    9826 ave 9838 max 9814 min
Histogram: 1 0 0 0 0 0 0 0 0 1
Nghost:    11078 ave 11089 max 11067 min
Histogram: 1 0 0 0 0 0 0 0 0 1
Neighs:    522154 ave 523530 max 520778 min
Histogram: 1 0 0 0 0 0 0 0 0 1

Total # of neighbors = 1044308
Ave neighs/atom = 53.14
Neighbor list builds = 495
Dangerous builds not checked
Setting up Verlet run ...
  Unit style    : metal
  Current step  : 260495
  Time step     : 0.001
Per MPI rank memory allocation (min/avg/max) = 11.28 | 11.28 | 11.28 Mbytes
Step Temp Press TotEng PotEng Enthalpy 
  260495    1310.6628   -898.29867   -114748.72   -118077.92   -115015.29 
  270000    1296.0824   -1625.3589   -114950.61   -118242.78   -115433.06 
Loop time of 658.634 on 2 procs for 9505 steps with 19652 atoms

Performance: 1.247 ns/day, 19.248 hours/ns, 14.431 timesteps/s
99.5% CPU use with 2 MPI tasks x no OpenMP threads

MPI task timing breakdown:
Section |  min time  |  avg time  |  max time  |%varavg| %total
---------------------------------------------------------------
Pair    | 348.26     | 349.19     | 350.13     |   5.0 | 53.02
Neigh   | 275.44     | 275.64     | 275.84     |   1.2 | 41.85
Comm    | 23.054     | 23.82      | 24.586     |  15.7 |  3.62
Output  | 0.033625   | 0.033628   | 0.03363    |   0.0 |  0.01
Modify  | 7.8854     | 7.9044     | 7.9233     |   0.7 |  1.20
Other   |            | 2.041      |            |       |  0.31

Nlocal:    9826 ave 9830 max 9822 min
Histogram: 1 0 0 0 0 0 0 0 0 1
Nghost:    11094.5 ave 11110 max 11079 min
Histogram: 1 0 0 0 0 0 0 0 0 1
Neighs:    521696 ave 522306 max 521086 min
Histogram: 1 0 0 0 0 0 0 0 0 1

Total # of neighbors = 1043392
Ave neighs/atom = 53.0934
Neighbor list builds = 9505
Dangerous builds not checked
Setting up Verlet run ...
  Unit style    : metal
  Current step  : 270000
  Time step     : 0.001
Per MPI rank memory allocation (min/avg/max) = 11.28 | 11.28 | 11.28 Mbytes
Step Temp Press TotEng PotEng Enthalpy 
  270000    1296.0824   -1625.3589   -114950.61   -118242.78   -115433.06 
  270495    1261.7997    1278.8877   -115091.06   -118296.14   -114713.18 
Loop time of 33.7673 on 2 procs for 495 steps with 19652 atoms

Performance: 1.267 ns/day, 18.949 hours/ns, 14.659 timesteps/s
99.9% CPU use with 2 MPI tasks x no OpenMP threads

MPI task timing breakdown:
Section |  min time  |  avg time  |  max time  |%varavg| %total
---------------------------------------------------------------
Pair    | 17.713     | 17.809     | 17.906     |   2.3 | 52.74
Neigh   | 14.027     | 14.176     | 14.325     |   4.0 | 41.98
Comm    | 1.2124     | 1.2671     | 1.3219     |   4.9 |  3.75
Output  | 0.00012589 | 0.00013244 | 0.000139   |   0.0 |  0.00
Modify  | 0.40884    | 0.40929    | 0.40974    |   0.1 |  1.21
Other   |            | 0.1057     |            |       |  0.31

Nlocal:    9826 ave 9845 max 9807 min
Histogram: 1 0 0 0 0 0 0 0 0 1
Nghost:    11098 ave 11110 max 11086 min
Histogram: 1 0 0 0 0 0 0 0 0 1
Neighs:    524792 ave 525834 max 523751 min
Histogram: 1 0 0 0 0 0 0 0 0 1

Total # of neighbors = 1049585
Ave neighs/atom = 53.4086
Neighbor list builds = 495
Dangerous builds not checked
Setting up Verlet run ...
  Unit style    : metal
  Current step  : 270495
  Time step     : 0.001
Per MPI rank memory allocation (min/avg/max) = 11.28 | 11.28 | 11.28 Mbytes
Step Temp Press TotEng PotEng Enthalpy 
  270495    1261.7997    1278.8877   -115091.06   -118296.14   -114713.18 
  280000    1253.3778    324.96714   -115271.46   -118455.15   -115175.41 
Loop time of 730.525 on 2 procs for 9505 steps with 19652 atoms

Performance: 1.124 ns/day, 21.349 hours/ns, 13.011 timesteps/s
94.5% CPU use with 2 MPI tasks x no OpenMP threads

MPI task timing breakdown:
Section |  min time  |  avg time  |  max time  |%varavg| %total
---------------------------------------------------------------
Pair    | 390.82     | 390.91     | 391        |   0.5 | 53.51
Neigh   | 292.96     | 293.08     | 293.21     |   0.7 | 40.12
Comm    | 34.643     | 34.823     | 35.002     |   3.0 |  4.77
Output  | 0.036025   | 0.036114   | 0.036204   |   0.0 |  0.00
Modify  | 9.4539     | 9.4943     | 9.5346     |   1.3 |  1.30
Other   |            | 2.177      |            |       |  0.30

Nlocal:    9826 ave 9843 max 9809 min
Histogram: 1 0 0 0 0 0 0 0 0 1
Nghost:    11098.5 ave 11121 max 11076 min
Histogram: 1 0 0 0 0 0 0 0 0 1
Neighs:    524964 ave 526372 max 523555 min
Histogram: 1 0 0 0 0 0 0 0 0 1

Total # of neighbors = 1049927
Ave neighs/atom = 53.426
Neighbor list builds = 9505
Dangerous builds not checked
Setting up Verlet run ...
  Unit style    : metal
  Current step  : 280000
  Time step     : 0.001
Per MPI rank memory allocation (min/avg/max) = 11.28 | 11.28 | 11.28 Mbytes
Step Temp Press TotEng PotEng Enthalpy 
  280000    1253.3778    324.96714   -115271.46   -118455.15   -115175.41 
  280495    1210.9972   -274.94837    -115463.1   -118539.15   -115544.36 
Loop time of 37.7387 on 2 procs for 495 steps with 19652 atoms

Performance: 1.133 ns/day, 21.178 hours/ns, 13.117 timesteps/s
93.8% CPU use with 2 MPI tasks x no OpenMP threads

MPI task timing breakdown:
Section |  min time  |  avg time  |  max time  |%varavg| %total
---------------------------------------------------------------
Pair    | 20.3       | 20.412     | 20.524     |   2.5 | 54.09
Neigh   | 14.991     | 15.32      | 15.65      |   8.4 | 40.60
Comm    | 1.1976     | 1.4196     | 1.6417     |  18.6 |  3.76
Output  | 9.1076e-05 | 0.00013256 | 0.00017405 |   0.0 |  0.00
Modify  | 0.47221    | 0.4758     | 0.4794     |   0.5 |  1.26
Other   |            | 0.1107     |            |       |  0.29

Nlocal:    9826 ave 9843 max 9809 min
Histogram: 1 0 0 0 0 0 0 0 0 1
Nghost:    11131 ave 11132 max 11130 min
Histogram: 1 0 0 0 0 0 0 0 0 1
Neighs:    524742 ave 526328 max 523155 min
Histogram: 1 0 0 0 0 0 0 0 0 1

Total # of neighbors = 1049483
Ave neighs/atom = 53.4034
Neighbor list builds = 495
Dangerous builds not checked
Setting up Verlet run ...
  Unit style    : metal
  Current step  : 280495
  Time step     : 0.001
Per MPI rank memory allocation (min/avg/max) = 11.28 | 11.28 | 11.28 Mbytes
Step Temp Press TotEng PotEng Enthalpy 
  280495    1210.9972   -274.94837    -115463.1   -118539.15   -115544.36 
  290000    1196.6427   -564.70635   -115689.95   -118729.53   -115856.73 
Loop time of 798.631 on 2 procs for 9505 steps with 19652 atoms

Performance: 1.028 ns/day, 23.340 hours/ns, 11.902 timesteps/s
89.5% CPU use with 2 MPI tasks x no OpenMP threads

MPI task timing breakdown:
Section |  min time  |  avg time  |  max time  |%varavg| %total
---------------------------------------------------------------
Pair    | 425        | 425.33     | 425.65     |   1.6 | 53.26
Neigh   | 315.38     | 315.39     | 315.41     |   0.1 | 39.49
Comm    | 40.965     | 41.234     | 41.504     |   4.2 |  5.16
Output  | 0.033932   | 0.033953   | 0.033975   |   0.0 |  0.00
Modify  | 14.281     | 14.313     | 14.344     |   0.8 |  1.79
Other   |            | 2.331      |            |       |  0.29

Nlocal:    9826 ave 9830 max 9822 min
Histogram: 1 0 0 0 0 0 0 0 0 1
Nghost:    11103.5 ave 11138 max 11069 min
Histogram: 1 0 0 0 0 0 0 0 0 1
Neighs:    525814 ave 525875 max 525753 min
Histogram: 1 0 0 0 0 0 0 0 0 1

Total # of neighbors = 1051628
Ave neighs/atom = 53.5125
Neighbor list builds = 9505
Dangerous builds not checked
Setting up Verlet run ...
  Unit style    : metal
  Current step  : 290000
  Time step     : 0.001
Per MPI rank memory allocation (min/avg/max) = 11.28 | 11.28 | 11.28 Mbytes
Step Temp Press TotEng PotEng Enthalpy 
  290000    1196.6427   -564.70635   -115689.95   -118729.53   -115856.73 
  290495     1161.027       503.68   -115845.16   -118794.27   -115696.64 
Loop time of 46.0426 on 2 procs for 495 steps with 19652 atoms

Performance: 0.929 ns/day, 25.838 hours/ns, 10.751 timesteps/s
82.6% CPU use with 2 MPI tasks x no OpenMP threads

MPI task timing breakdown:
Section |  min time  |  avg time  |  max time  |%varavg| %total
---------------------------------------------------------------
Pair    | 24.878     | 25.081     | 25.285     |   4.1 | 54.47
Neigh   | 17.58      | 17.61      | 17.64      |   0.7 | 38.25
Comm    | 2.4403     | 2.6587     | 2.8771     |  13.4 |  5.77
Output  | 8.893e-05  | 0.00010848 | 0.00012803 |   0.0 |  0.00
Modify  | 0.55593    | 0.57302    | 0.59012    |   2.3 |  1.24
Other   |            | 0.119      |            |       |  0.26

Nlocal:    9826 ave 9827 max 9825 min
Histogram: 1 0 0 0 0 0 0 0 0 1
Nghost:    11103.5 ave 11118 max 11089 min
Histogram: 1 0 0 0 0 0 0 0 0 1
Neighs:    527068 ave 527209 max 526926 min
Histogram: 1 0 0 0 0 0 0 0 0 1

Total # of neighbors = 1054135
Ave neighs/atom = 53.6401
Neighbor list builds = 495
Dangerous builds not checked
Setting up Verlet run ...
  Unit style    : metal
  Current step  : 290495
  Time step     : 0.001
Per MPI rank memory allocation (min/avg/max) = 11.28 | 11.28 | 11.28 Mbytes
Step Temp Press TotEng PotEng Enthalpy 
  290495     1161.027       503.68   -115845.16   -118794.27   -115696.64 
  300000    1139.5157   -58.741895   -116074.52      -118969   -116091.83 
Loop time of 819.254 on 2 procs for 9505 steps with 19652 atoms

Performance: 1.002 ns/day, 23.942 hours/ns, 11.602 timesteps/s
88.4% CPU use with 2 MPI tasks x no OpenMP threads

MPI task timing breakdown:
Section |  min time  |  avg time  |  max time  |%varavg| %total
---------------------------------------------------------------
Pair    | 439.12     | 440.49     | 441.87     |   6.6 | 53.77
Neigh   | 318.27     | 318.42     | 318.57     |   0.8 | 38.87
Comm    | 46.051     | 47.45      | 48.85      |  20.3 |  5.79
Output  | 0.131      | 0.13746    | 0.14392    |   1.7 |  0.02
Modify  | 10.187     | 10.339     | 10.492     |   4.7 |  1.26
Other   |            | 2.419      |            |       |  0.30

Nlocal:    9826 ave 9832 max 9820 min
Histogram: 1 0 0 0 0 0 0 0 0 1
Nghost:    11102.5 ave 11110 max 11095 min
Histogram: 1 0 0 0 0 0 0 0 0 1
Neighs:    527551 ave 527844 max 527258 min
Histogram: 1 0 0 0 0 0 0 0 0 1

Total # of neighbors = 1055102
Ave neighs/atom = 53.6893
Neighbor list builds = 9505
Dangerous builds not checked
Setting up Verlet run ...
  Unit style    : metal
  Current step  : 300000
  Time step     : 0.001
Per MPI rank memory allocation (min/avg/max) = 11.28 | 11.28 | 11.28 Mbytes
Step Temp Press TotEng PotEng Enthalpy 
[...]
Histogram: 1 0 0 0 0 0 0 0 0 1
Neighs:    540983 ave 541394 max 540572 min
Histogram: 1 0 0 0 0 0 0 0 0 1

Total # of neighbors = 1081966
Ave neighs/atom = 55.0563
Neighbor list builds = 9505
Dangerous builds not checked
Setting up Verlet run ...
  Unit style    : metal
  Current step  : 440000
  Time step     : 0.001
Per MPI rank memory allocation (min/avg/max) = 11.28 | 11.28 | 11.28 Mbytes
Step Temp Press TotEng PotEng Enthalpy 
  440000    445.94486   -513.49085   -120780.81   -121913.55   -120929.33 
  440495    418.96771    440.81913   -120929.47   -121993.69   -120802.17 
Loop time of 35.6366 on 2 procs for 495 steps with 19652 atoms

Performance: 1.200 ns/day, 19.998 hours/ns, 13.890 timesteps/s
99.4% CPU use with 2 MPI tasks x no OpenMP threads

MPI task timing breakdown:
Section |  min time  |  avg time  |  max time  |%varavg| %total
---------------------------------------------------------------
Pair    | 18.965     | 19.02      | 19.075     |   1.3 | 53.37
Neigh   | 14.334     | 14.352     | 14.37      |   0.5 | 40.27
Comm    | 1.6556     | 1.7269     | 1.7981     |   5.4 |  4.85
Output  | 6.8903e-05 | 0.00011444 | 0.00015998 |   0.0 |  0.00
Modify  | 0.42361    | 0.4253     | 0.42699    |   0.3 |  1.19
Other   |            | 0.1125     |            |       |  0.32

Nlocal:    9826 ave 9836 max 9816 min
Histogram: 1 0 0 0 0 0 0 0 0 1
Nghost:    11209.5 ave 11215 max 11204 min
Histogram: 1 0 0 0 0 0 0 0 0 1
Neighs:    542026 ave 543185 max 540866 min
Histogram: 1 0 0 0 0 0 0 0 0 1

Total # of neighbors = 1084051
Ave neighs/atom = 55.1624
Neighbor list builds = 495
Dangerous builds not checked
Setting up Verlet run ...
  Unit style    : metal
  Current step  : 440495
  Time step     : 0.001
Per MPI rank memory allocation (min/avg/max) = 11.28 | 11.28 | 11.28 Mbytes
Step Temp Press TotEng PotEng Enthalpy 
  440495    418.96771    440.81913   -120929.47   -121993.69   -120802.17 
  450000    399.79901    267.85131   -121059.42   -122074.94   -120982.09 
Loop time of 687.398 on 2 procs for 9505 steps with 19652 atoms

Performance: 1.195 ns/day, 20.089 hours/ns, 13.828 timesteps/s
98.9% CPU use with 2 MPI tasks x no OpenMP threads

MPI task timing breakdown:
Section |  min time  |  avg time  |  max time  |%varavg| %total
---------------------------------------------------------------
Pair    | 368.15     | 368.18     | 368.22     |   0.2 | 53.56
Neigh   | 277.11     | 277.22     | 277.33     |   0.7 | 40.33
Comm    | 31.01      | 31.129     | 31.247     |   2.1 |  4.53
Output  | 0.039184   | 0.039277   | 0.03937    |   0.0 |  0.01
Modify  | 8.6222     | 8.6412     | 8.6602     |   0.6 |  1.26
Other   |            | 2.189      |            |       |  0.32

Nlocal:    9826 ave 9827 max 9825 min
Histogram: 1 0 0 0 0 0 0 0 0 1
Nghost:    11188 ave 11191 max 11185 min
Histogram: 1 0 0 0 0 0 0 0 0 1
Neighs:    542176 ave 542636 max 541716 min
Histogram: 1 0 0 0 0 0 0 0 0 1

Total # of neighbors = 1084352
Ave neighs/atom = 55.1777
Neighbor list builds = 9505
Dangerous builds not checked
Setting up Verlet run ...
  Unit style    : metal
  Current step  : 450000
  Time step     : 0.001
Per MPI rank memory allocation (min/avg/max) = 11.28 | 11.28 | 11.28 Mbytes
Step Temp Press TotEng PotEng Enthalpy 
  450000    399.79901    267.85131   -121059.42   -122074.94   -120982.09 
  450495    371.79734    -108.1013   -121209.62   -122154.02   -121240.82 
Loop time of 36.0422 on 2 procs for 495 steps with 19652 atoms

Performance: 1.187 ns/day, 20.226 hours/ns, 13.734 timesteps/s
98.8% CPU use with 2 MPI tasks x no OpenMP threads

MPI task timing breakdown:
Section |  min time  |  avg time  |  max time  |%varavg| %total
---------------------------------------------------------------
Pair    | 18.926     | 19.045     | 19.165     |   2.7 | 52.84
Neigh   | 14.333     | 14.415     | 14.498     |   2.2 | 40.00
Comm    | 2.0001     | 2.0351     | 2.07       |   2.5 |  5.65
Output  | 9.1076e-05 | 0.00013506 | 0.00017905 |   0.0 |  0.00
Modify  | 0.43028    | 0.43214    | 0.434      |   0.3 |  1.20
Other   |            | 0.1144     |            |       |  0.32

Nlocal:    9826 ave 9833 max 9819 min
Histogram: 1 0 0 0 0 0 0 0 0 1
Nghost:    11201 ave 11224 max 11178 min
Histogram: 1 0 0 0 0 0 0 0 0 1
Neighs:    542281 ave 542476 max 542086 min
Histogram: 1 0 0 0 0 0 0 0 0 1

Total # of neighbors = 1084562
Ave neighs/atom = 55.1884
Neighbor list builds = 495
Dangerous builds not checked
Setting up Verlet run ...
  Unit style    : metal
  Current step  : 450495
  Time step     : 0.001
Per MPI rank memory allocation (min/avg/max) = 11.28 | 11.28 | 11.28 Mbytes
Step Temp Press TotEng PotEng Enthalpy 
  450495    371.79734    -108.1013   -121209.62   -122154.02   -121240.82 
  460000    352.07135    651.72817   -121324.01    -122218.3   -121136.09 
Loop time of 682.602 on 2 procs for 9505 steps with 19652 atoms

Performance: 1.203 ns/day, 19.949 hours/ns, 13.925 timesteps/s
99.0% CPU use with 2 MPI tasks x no OpenMP threads

MPI task timing breakdown:
Section |  min time  |  avg time  |  max time  |%varavg| %total
---------------------------------------------------------------
Pair    | 369.26     | 369.31     | 369.36     |   0.3 | 54.10
Neigh   | 275.22     | 275.32     | 275.42     |   0.6 | 40.33
Comm    | 27.492     | 27.521     | 27.549     |   0.6 |  4.03
Output  | 0.035053   | 0.035078   | 0.035102   |   0.0 |  0.01
Modify  | 8.2162     | 8.2345     | 8.2529     |   0.6 |  1.21
Other   |            | 2.181      |            |       |  0.32

Nlocal:    9826 ave 9827 max 9825 min
Histogram: 1 0 0 0 0 0 0 0 0 1
Nghost:    11200 ave 11202 max 11198 min
Histogram: 1 0 0 0 0 0 0 0 0 1
Neighs:    542834 ave 543198 max 542470 min
Histogram: 1 0 0 0 0 0 0 0 0 1

Total # of neighbors = 1085668
Ave neighs/atom = 55.2447
Neighbor list builds = 9505
Dangerous builds not checked
Setting up Verlet run ...
  Unit style    : metal
  Current step  : 460000
  Time step     : 0.001
Per MPI rank memory allocation (min/avg/max) = 11.28 | 11.28 | 11.28 Mbytes
Step Temp Press TotEng PotEng Enthalpy 
  460000    352.07135    651.72817   -121324.01    -122218.3   -121136.09 
  460495    321.81954    502.87497   -121476.25   -122293.71   -121331.32 
Loop time of 35.0077 on 2 procs for 495 steps with 19652 atoms

Performance: 1.222 ns/day, 19.645 hours/ns, 14.140 timesteps/s
99.2% CPU use with 2 MPI tasks x no OpenMP threads

MPI task timing breakdown:
Section |  min time  |  avg time  |  max time  |%varavg| %total
---------------------------------------------------------------
Pair    | 18.939     | 18.997     | 19.054     |   1.3 | 54.26
Neigh   | 14.081     | 14.139     | 14.198     |   1.6 | 40.39
Comm    | 1.335      | 1.3362     | 1.3375     |   0.1 |  3.82
Output  | 7.8917e-05 | 0.00011802 | 0.00015712 |   0.0 |  0.00
Modify  | 0.42116    | 0.42185    | 0.42253    |   0.1 |  1.21
Other   |            | 0.1134     |            |       |  0.32

Nlocal:    9826 ave 9829 max 9823 min
Histogram: 1 0 0 0 0 0 0 0 0 1
Nghost:    11228.5 ave 11243 max 11214 min
Histogram: 1 0 0 0 0 0 0 0 0 1
Neighs:    543028 ave 543380 max 542676 min
Histogram: 1 0 0 0 0 0 0 0 0 1

Total # of neighbors = 1086056
Ave neighs/atom = 55.2644
Neighbor list builds = 495
Dangerous builds not checked
Setting up Verlet run ...
  Unit style    : metal
  Current step  : 460495
  Time step     : 0.001
Per MPI rank memory allocation (min/avg/max) = 11.28 | 11.28 | 11.28 Mbytes
Step Temp Press TotEng PotEng Enthalpy 
  460495    321.81954    502.87497   -121476.25   -122293.71   -121331.32 
  470000     299.7383    371.37229   -121601.31   -122362.67    -121494.3 
Loop time of 680.36 on 2 procs for 9505 steps with 19652 atoms

Performance: 1.207 ns/day, 19.883 hours/ns, 13.971 timesteps/s
99.2% CPU use with 2 MPI tasks x no OpenMP threads

MPI task timing breakdown:
Section |  min time  |  avg time  |  max time  |%varavg| %total
---------------------------------------------------------------
Pair    | 366.3      | 367.3      | 368.3      |   5.2 | 53.99
Neigh   | 274.85     | 274.89     | 274.93     |   0.2 | 40.40
Comm    | 26.681     | 27.706     | 28.731     |  19.5 |  4.07
Output  | 0.038009   | 0.038047   | 0.038086   |   0.0 |  0.01
Modify  | 8.231      | 8.2396     | 8.2482     |   0.3 |  1.21
Other   |            | 2.185      |            |       |  0.32

Nlocal:    9826 ave 9827 max 9825 min
Histogram: 1 0 0 0 0 0 0 0 0 1
Nghost:    11203 ave 11215 max 11191 min
Histogram: 1 0 0 0 0 0 0 0 0 1
Neighs:    543472 ave 543764 max 543179 min
Histogram: 1 0 0 0 0 0 0 0 0 1

Total # of neighbors = 1086943
Ave neighs/atom = 55.3095
Neighbor list builds = 9505
Dangerous builds not checked
Setting up Verlet run ...
  Unit style    : metal
  Current step  : 470000
  Time step     : 0.001
Per MPI rank memory allocation (min/avg/max) = 11.28 | 11.28 | 11.28 Mbytes
Step Temp Press TotEng PotEng Enthalpy 
  470000     299.7383    371.37229   -121601.31   -122362.67    -121494.3 
  470495    272.30673    389.70469   -121733.67   -122425.36   -121621.44 
Loop time of 35.2094 on 2 procs for 495 steps with 19652 atoms

Performance: 1.215 ns/day, 19.758 hours/ns, 14.059 timesteps/s
99.9% CPU use with 2 MPI tasks x no OpenMP threads

MPI task timing breakdown:
Section |  min time  |  avg time  |  max time  |%varavg| %total
---------------------------------------------------------------
Pair    | 18.906     | 18.928     | 18.949     |   0.5 | 53.76
Neigh   | 14.009     | 14.197     | 14.385     |   5.0 | 40.32
Comm    | 1.3653     | 1.537      | 1.7087     |  13.9 |  4.37
Output  | 8.5831e-05 | 0.00017285 | 0.00025988 |   0.0 |  0.00
Modify  | 0.42889    | 0.43262    | 0.43636    |   0.6 |  1.23
Other   |            | 0.1149     |            |       |  0.33

Nlocal:    9826 ave 9830 max 9822 min
Histogram: 1 0 0 0 0 0 0 0 0 1
Nghost:    11213 ave 11222 max 11204 min
Histogram: 1 0 0 0 0 0 0 0 0 1
Neighs:    543694 ave 544460 max 542927 min
Histogram: 1 0 0 0 0 0 0 0 0 1

Total # of neighbors = 1087387
Ave neighs/atom = 55.3321
Neighbor list builds = 495
Dangerous builds not checked
Setting up Verlet run ...
  Unit style    : metal
  Current step  : 470495
  Time step     : 0.001
Per MPI rank memory allocation (min/avg/max) = 11.28 | 11.28 | 11.28 Mbytes
Step Temp Press TotEng PotEng Enthalpy 
  470495    272.30673    389.70469   -121733.67   -122425.36   -121621.44 
  480000    253.01633    511.11867   -121849.15   -122491.84      -121702 
Loop time of 679.103 on 2 procs for 9505 steps with 19652 atoms

Performance: 1.209 ns/day, 19.846 hours/ns, 13.996 timesteps/s
99.0% CPU use with 2 MPI tasks x no OpenMP threads

MPI task timing breakdown:
Section |  min time  |  avg time  |  max time  |%varavg| %total
---------------------------------------------------------------
Pair    | 365.32     | 365.82     | 366.32     |   2.6 | 53.87
Neigh   | 273.16     | 274.29     | 275.42     |   6.8 | 40.39
Comm    | 26.792     | 28.442     | 30.093     |  30.9 |  4.19
Output  | 0.035438   | 0.035461   | 0.035484   |   0.0 |  0.01
Modify  | 8.3127     | 8.3257     | 8.3388     |   0.5 |  1.23
Other   |            | 2.19       |            |       |  0.32

Nlocal:    9826 ave 9837 max 9815 min
Histogram: 1 0 0 0 0 0 0 0 0 1
Nghost:    11225.5 ave 11240 max 11211 min
Histogram: 1 0 0 0 0 0 0 0 0 1
Neighs:    543801 ave 545307 max 542295 min
Histogram: 1 0 0 0 0 0 0 0 0 1

Total # of neighbors = 1087602
Ave neighs/atom = 55.3431
Neighbor list builds = 9505
Dangerous builds not checked
Setting up Verlet run ...
  Unit style    : metal
  Current step  : 480000
  Time step     : 0.001
Per MPI rank memory allocation (min/avg/max) = 11.28 | 11.28 | 11.28 Mbytes
Step Temp Press TotEng PotEng Enthalpy 
  480000    253.01633    511.11867   -121849.15   -122491.84      -121702 
  480495    223.06043   -424.02672   -121989.58   -122556.17   -122111.71 
Loop time of 35.55 on 2 procs for 495 steps with 19652 atoms

Performance: 1.203 ns/day, 19.949 hours/ns, 13.924 timesteps/s
99.1% CPU use with 2 MPI tasks x no OpenMP threads

MPI task timing breakdown:
Section |  min time  |  avg time  |  max time  |%varavg| %total
---------------------------------------------------------------
Pair    | 19.157     | 19.309     | 19.461     |   3.5 | 54.32
Neigh   | 14.17      | 14.26      | 14.349     |   2.4 | 40.11
Comm    | 1.368      | 1.4251     | 1.4823     |   4.8 |  4.01
Output  | 9.2983e-05 | 0.00018799 | 0.000283   |   0.0 |  0.00
Modify  | 0.43676    | 0.43964    | 0.44251    |   0.4 |  1.24
Other   |            | 0.116      |            |       |  0.33

Nlocal:    9826 ave 9833 max 9819 min
Histogram: 1 0 0 0 0 0 0 0 0 1
Nghost:    11224 ave 11226 max 11222 min
Histogram: 1 0 0 0 0 0 0 0 0 1
Neighs:    543498 ave 544539 max 542457 min
Histogram: 1 0 0 0 0 0 0 0 0 1

Total # of neighbors = 1086996
Ave neighs/atom = 55.3122
Neighbor list builds = 495
Dangerous builds not checked
Setting up Verlet run ...
  Unit style    : metal
  Current step  : 480495
  Time step     : 0.001
Per MPI rank memory allocation (min/avg/max) = 11.28 | 11.28 | 11.28 Mbytes
Step Temp Press TotEng PotEng Enthalpy 
  480495    223.06043   -424.02672   -121989.58   -122556.17   -122111.71 
  490000    199.29816    507.22912   -122117.25   -122623.48   -121971.35 
Loop time of 674.46 on 2 procs for 9505 steps with 19652 atoms

Performance: 1.218 ns/day, 19.711 hours/ns, 14.093 timesteps/s
99.2% CPU use with 2 MPI tasks x no OpenMP threads

MPI task timing breakdown:
Section |  min time  |  avg time  |  max time  |%varavg| %total
---------------------------------------------------------------
Pair    | 363.13     | 363.63     | 364.13     |   2.6 | 53.91
Neigh   | 273.03     | 273.04     | 273.06     |   0.1 | 40.48
Comm    | 26.876     | 27.36      | 27.844     |   9.2 |  4.06
Output  | 0.037131   | 0.037151   | 0.037171   |   0.0 |  0.01
Modify  | 8.1841     | 8.2057     | 8.2274     |   0.8 |  1.22
Other   |            | 2.186      |            |       |  0.32

Nlocal:    9826 ave 9833 max 9819 min
Histogram: 1 0 0 0 0 0 0 0 0 1
Nghost:    11217.5 ave 11228 max 11207 min
Histogram: 1 0 0 0 0 0 0 0 0 1
Neighs:    544484 ave 545378 max 543590 min
Histogram: 1 0 0 0 0 0 0 0 0 1

Total # of neighbors = 1088968
Ave neighs/atom = 55.4126
Neighbor list builds = 9505
Dangerous builds not checked
Setting up Verlet run ...
  Unit style    : metal
  Current step  : 490000
  Time step     : 0.001
Per MPI rank memory allocation (min/avg/max) = 11.28 | 11.28 | 11.28 Mbytes
Step Temp Press TotEng PotEng Enthalpy 
  490000    199.29816    507.22912   -122117.25   -122623.48   -121971.35 
  490495    174.96024     71.32797   -122241.34   -122685.75   -122220.82 
Loop time of 35.6886 on 2 procs for 495 steps with 19652 atoms

Performance: 1.198 ns/day, 20.027 hours/ns, 13.870 timesteps/s
98.3% CPU use with 2 MPI tasks x no OpenMP threads

MPI task timing breakdown:
Section |  min time  |  avg time  |  max time  |%varavg| %total
---------------------------------------------------------------
Pair    | 19.574     | 19.6       | 19.627     |   0.6 | 54.92
Neigh   | 14.229     | 14.266     | 14.303     |   1.0 | 39.97
Comm    | 1.2173     | 1.2733     | 1.3293     |   5.0 |  3.57
Output  | 9.1076e-05 | 0.000139   | 0.00018692 |   0.0 |  0.00
Modify  | 0.42776    | 0.43538    | 0.443      |   1.2 |  1.22
Other   |            | 0.1133     |            |       |  0.32

Nlocal:    9826 ave 9828 max 9824 min
Histogram: 1 0 0 0 0 0 0 0 0 1
Nghost:    11207 ave 11215 max 11199 min
Histogram: 1 0 0 0 0 0 0 0 0 1
Neighs:    544365 ave 544499 max 544231 min
Histogram: 1 0 0 0 0 0 0 0 0 1

Total # of neighbors = 1088730
Ave neighs/atom = 55.4005
Neighbor list builds = 495
Dangerous builds not checked
Setting up Verlet run ...
  Unit style    : metal
  Current step  : 490495
  Time step     : 0.001
Per MPI rank memory allocation (min/avg/max) = 11.28 | 11.28 | 11.28 Mbytes
Step Temp Press TotEng PotEng Enthalpy 
  490495    174.96024     71.32797   -122241.34   -122685.75   -122220.82 
  500000    149.24265    303.39715   -122378.24   -122757.33   -122291.03 
Loop time of 678.104 on 2 procs for 9505 steps with 19652 atoms

Performance: 1.211 ns/day, 19.817 hours/ns, 14.017 timesteps/s
99.1% CPU use with 2 MPI tasks x no OpenMP threads

MPI task timing breakdown:
Section |  min time  |  avg time  |  max time  |%varavg| %total
---------------------------------------------------------------
Pair    | 363.19     | 365.94     | 368.7      |  14.4 | 53.97
Neigh   | 272.18     | 272.76     | 273.34     |   3.5 | 40.22
Comm    | 26.795     | 28.925     | 31.055     |  39.6 |  4.27
Output  | 0.036286   | 0.036314   | 0.036342   |   0.0 |  0.01
Modify  | 8.2278     | 8.2668     | 8.3057     |   1.4 |  1.22
Other   |            | 2.177      |            |       |  0.32

Nlocal:    9826 ave 9826 max 9826 min
Histogram: 2 0 0 0 0 0 0 0 0 0
Nghost:    11215.5 ave 11221 max 11210 min
Histogram: 1 0 0 0 0 0 0 0 0 1
Neighs:    544818 ave 545226 max 544411 min
Histogram: 1 0 0 0 0 0 0 0 0 1

Total # of neighbors = 1089637
Ave neighs/atom = 55.4466
Neighbor list builds = 9505
Dangerous builds not checked
Setting up Verlet run ...
  Unit style    : metal
  Current step  : 500000
  Time step     : 0.001
Per MPI rank memory allocation (min/avg/max) = 11.28 | 11.28 | 11.28 Mbytes
Step Temp Press TotEng PotEng Enthalpy 
  500000    149.24265    303.39715   -122378.24   -122757.33   -122291.03 
  500495    125.86696    -216.3148   -122492.08   -122811.79   -122554.27 
Loop time of 35.2648 on 2 procs for 495 steps with 19652 atoms

Performance: 1.213 ns/day, 19.789 hours/ns, 14.037 timesteps/s
99.0% CPU use with 2 MPI tasks x no OpenMP threads

MPI task timing breakdown:
Section |  min time  |  avg time  |  max time  |%varavg| %total
---------------------------------------------------------------
Pair    | 19.136     | 19.221     | 19.306     |   1.9 | 54.50
Neigh   | 14.17      | 14.19      | 14.211     |   0.6 | 40.24
Comm    | 1.2079     | 1.313      | 1.4181     |   9.2 |  3.72
Output  | 8.893e-05  | 0.0001384  | 0.00018787 |   0.0 |  0.00
Modify  | 0.42607    | 0.42678    | 0.42749    |   0.1 |  1.21
Other   |            | 0.1136     |            |       |  0.32

Nlocal:    9826 ave 9833 max 9819 min
Histogram: 1 0 0 0 0 0 0 0 0 1
Nghost:    11225.5 ave 11240 max 11211 min
Histogram: 1 0 0 0 0 0 0 0 0 1
Neighs:    544594 ave 545642 max 543546 min
Histogram: 1 0 0 0 0 0 0 0 0 1

Total # of neighbors = 1089188
Ave neighs/atom = 55.4238
Neighbor list builds = 495
Dangerous builds not checked
Setting up Verlet run ...
  Unit style    : metal
  Current step  : 500495
  Time step     : 0.001
Per MPI rank memory allocation (min/avg/max) = 11.28 | 11.28 | 11.28 Mbytes
Step Temp Press TotEng PotEng Enthalpy 
  500495    125.86696    -216.3148   -122492.08   -122811.79   -122554.27 
  510000    99.505662   -8.7985019    -122629.1   -122881.86   -122631.63 
Loop time of 681.096 on 2 procs for 9505 steps with 19652 atoms

Performance: 1.206 ns/day, 19.905 hours/ns, 13.955 timesteps/s
98.6% CPU use with 2 MPI tasks x no OpenMP threads

MPI task timing breakdown:
Section |  min time  |  avg time  |  max time  |%varavg| %total
---------------------------------------------------------------
Pair    | 369.08     | 370.35     | 371.62     |   6.6 | 54.38
Neigh   | 273.97     | 274.16     | 274.34     |   1.1 | 40.25
Comm    | 24.634     | 26.086     | 27.538     |  28.4 |  3.83
Output  | 0.036749   | 0.036851   | 0.036953   |   0.1 |  0.01
Modify  | 8.2671     | 8.2731     | 8.2792     |   0.2 |  1.21
Other   |            | 2.189      |            |       |  0.32

Nlocal:    9826 ave 9832 max 9820 min
Histogram: 1 0 0 0 0 0 0 0 0 1
Nghost:    11235.5 ave 11242 max 11229 min
Histogram: 1 0 0 0 0 0 0 0 0 1
Neighs:    545042 ave 545931 max 544154 min
Histogram: 1 0 0 0 0 0 0 0 0 1

Total # of neighbors = 1090085
Ave neighs/atom = 55.4694
Neighbor list builds = 9505
Dangerous builds not checked
Total wall time: 10:17:21
