LAMMPS (12 Dec 2018)
Lattice spacing in x,y,z = 4 4 4
Created orthogonal box = (0 0 0) to (68 68 68)
  1 by 1 by 1 MPI processor grid
Created 19652 atoms
  Time spent = 0.00446415 secs
Setting atom values ...
  19281 settings made for type/fraction
Neighbor list info ...
  update every 1 steps, delay 0 steps, check no
  max neighbors/atom: 2000, page size: 100000
  master list distance cutoff = 8.5
  ghost atom cutoff = 8.5
  binsize = 4.25, bins = 16 16 16
  1 neighbor lists, perpetual/occasional/extra = 1 0 0
  (1) pair eam/alloy, perpetual
      attributes: half, newton on
      pair build: half/bin/atomonly/newton
      stencil: half/bin/3d/newton
      bin: standard
Setting up Verlet run ...
  Unit style    : metal
  Current step  : 0
  Time step     : 0.001
Per MPI rank memory allocation (min/avg/max) = 18.19 | 18.19 | 18.19 Mbytes
Step Temp Press TotEng PotEng Enthalpy 
       0          300    20088.665   -66737.626   -67499.653   -62795.164 
    1000    161.13089    26333.014   -66737.454   -67146.741    -61569.52 
Loop time of 152.693 on 1 procs for 1000 steps with 19652 atoms

Performance: 0.566 ns/day, 42.415 hours/ns, 6.549 timesteps/s
98.9% CPU use with 1 MPI tasks x no OpenMP threads

MPI task timing breakdown:
Section |  min time  |  avg time  |  max time  |%varavg| %total
---------------------------------------------------------------
Pair    | 87.294     | 87.294     | 87.294     |   0.0 | 57.17
Neigh   | 63.475     | 63.475     | 63.475     |   0.0 | 41.57
Comm    | 1.15       | 1.15       | 1.15       |   0.0 |  0.75
Output  | 0.0001421  | 0.0001421  | 0.0001421  |   0.0 |  0.00
Modify  | 0.40337    | 0.40337    | 0.40337    |   0.0 |  0.26
Other   |            | 0.3711     |            |       |  0.24

Nlocal:    19652 ave 19652 max 19652 min
Histogram: 1 0 0 0 0 0 0 0 0 0
Nghost:    20102 ave 20102 max 20102 min
Histogram: 1 0 0 0 0 0 0 0 0 0
Neighs:    1.57211e+06 ave 1.57211e+06 max 1.57211e+06 min
Histogram: 1 0 0 0 0 0 0 0 0 0

Total # of neighbors = 1572106
Ave neighs/atom = 79.9973
Neighbor list builds = 1000
Dangerous builds not checked
Setting up Verlet run ...
  Unit style    : metal
  Current step  : 1000
  Time step     : 0.001
Per MPI rank memory allocation (min/avg/max) = 18.2 | 18.2 | 18.2 Mbytes
Step Temp Press TotEng PotEng Enthalpy 
    1000    161.13089    26333.014   -66737.454   -67146.741    -61569.52 
    2000    299.48955    70.045698   -66015.407   -66776.138   -66001.037 
Loop time of 137.924 on 1 procs for 1000 steps with 19652 atoms

Performance: 0.626 ns/day, 38.312 hours/ns, 7.250 timesteps/s
99.7% CPU use with 1 MPI tasks x no OpenMP threads

MPI task timing breakdown:
Section |  min time  |  avg time  |  max time  |%varavg| %total
---------------------------------------------------------------
Pair    | 77.206     | 77.206     | 77.206     |   0.0 | 55.98
Neigh   | 58.014     | 58.014     | 58.014     |   0.0 | 42.06
Comm    | 1.0037     | 1.0037     | 1.0037     |   0.0 |  0.73
Output  | 0.076925   | 0.076925   | 0.076925   |   0.0 |  0.06
Modify  | 1.2759     | 1.2759     | 1.2759     |   0.0 |  0.93
Other   |            | 0.3478     |            |       |  0.25

Nlocal:    19652 ave 19652 max 19652 min
Histogram: 1 0 0 0 0 0 0 0 0 0
Nghost:    20102 ave 20102 max 20102 min
Histogram: 1 0 0 0 0 0 0 0 0 0
Neighs:    1.45284e+06 ave 1.45284e+06 max 1.45284e+06 min
Histogram: 1 0 0 0 0 0 0 0 0 0

Total # of neighbors = 1452835
Ave neighs/atom = 73.9281
Neighbor list builds = 1000
Dangerous builds not checked
Setting up Verlet run ...
  Unit style    : metal
  Current step  : 2000
  Time step     : 0.001
Per MPI rank memory allocation (min/avg/max) = 18.2 | 18.2 | 18.2 Mbytes
Step Temp Press TotEng PotEng Enthalpy 
    2000    299.48955    70.045698   -66015.407   -66776.138   -66001.037 
    4000    778.97566    -518.4948   -63188.778   -65167.447   -63300.616 
    6000    1324.7778    527.04365   -58183.891   -61548.947   -58055.127 
    8000    1893.6056   -1203.2955   -54808.211   -59618.141    -55124.45 
   10000    2410.9357   -450.38888   -51802.073   -57926.069   -51927.997 
Loop time of 974.132 on 1 procs for 8000 steps with 19652 atoms

Performance: 0.710 ns/day, 33.824 hours/ns, 8.212 timesteps/s
99.4% CPU use with 1 MPI tasks x no OpenMP threads

MPI task timing breakdown:
Section |  min time  |  avg time  |  max time  |%varavg| %total
---------------------------------------------------------------
Pair    | 511.94     | 511.94     | 511.94     |   0.0 | 52.55
Neigh   | 442.8      | 442.8      | 442.8      |   0.0 | 45.46
Comm    | 7.2467     | 7.2467     | 7.2467     |   0.0 |  0.74
Output  | 0.26821    | 0.26821    | 0.26821    |   0.0 |  0.03
Modify  | 9.387      | 9.387      | 9.387      |   0.0 |  0.96
Other   |            | 2.497      |            |       |  0.26

Nlocal:    19652 ave 19652 max 19652 min
Histogram: 1 0 0 0 0 0 0 0 0 0
Nghost:    16193 ave 16193 max 16193 min
Histogram: 1 0 0 0 0 0 0 0 0 0
Neighs:    1.10082e+06 ave 1.10082e+06 max 1.10082e+06 min
Histogram: 1 0 0 0 0 0 0 0 0 0

Total # of neighbors = 1100817
Ave neighs/atom = 56.0155
Neighbor list builds = 8000
Dangerous builds not checked
Setting up Verlet run ...
  Unit style    : metal
  Current step  : 10000
  Time step     : 0.001
Per MPI rank memory allocation (min/avg/max) = 18.21 | 18.21 | 18.21 Mbytes
Step Temp Press TotEng PotEng Enthalpy 
   10000    2410.9357   -450.38888   -51802.073   -57926.069   -51927.997 
   12000    2464.4018   -815.78372   -51678.269   -57938.074   -51906.972 
   14000    2442.8074   -1067.7751   -51713.758   -57918.711   -52012.787 
   16000    2473.6924    621.70103   -51728.412   -58011.816   -51555.221 
   18000    2450.3885    573.42561   -51773.951   -57998.161   -51614.319 
   20000    2457.1089   -836.93237   -51658.923   -57900.204   -51893.517 
   22000    2432.6466   -570.76875   -51854.054   -58033.198   -52013.272 
   24000    2436.1059    101.20235   -51732.186   -57920.117   -51703.907 
   26000    2451.2815    260.94712   -51669.118   -57895.597   -51596.084 
   28000    2457.5653    311.66987   -51657.014   -57899.453   -51569.814 
   30000    2448.1977   -1531.0962   -51675.421   -57894.066   -52105.182 
   32000    2449.5442    348.88554    -51735.43   -57957.495   -51638.009 
   34000    2436.0752   -112.81107   -51817.598   -58005.451   -51849.055 
   36000    2453.8558   -688.01816   -51675.551   -57908.568   -51868.383 
   38000    2439.8781   -1016.9044   -51811.883   -58009.396    -52095.97 
   40000    2464.0566    321.65717   -51733.833   -57992.761   -51644.147 
Loop time of 3594.36 on 1 procs for 30000 steps with 19652 atoms

Performance: 0.721 ns/day, 33.281 hours/ns, 8.346 timesteps/s
99.6% CPU use with 1 MPI tasks x no OpenMP threads

MPI task timing breakdown:
Section |  min time  |  avg time  |  max time  |%varavg| %total
---------------------------------------------------------------
Pair    | 1879.6     | 1879.6     | 1879.6     |   0.0 | 52.29
Neigh   | 1635.9     | 1635.9     | 1635.9     |   0.0 | 45.51
Comm    | 28.596     | 28.596     | 28.596     |   0.0 |  0.80
Output  | 4.1003     | 4.1003     | 4.1003     |   0.0 |  0.11
Modify  | 36.116     | 36.116     | 36.116     |   0.0 |  1.00
Other   |            | 10.08      |            |       |  0.28

Nlocal:    19652 ave 19652 max 19652 min
Histogram: 1 0 0 0 0 0 0 0 0 0
Nghost:    16230 ave 16230 max 16230 min
Histogram: 1 0 0 0 0 0 0 0 0 0
Neighs:    1.1049e+06 ave 1.1049e+06 max 1.1049e+06 min
Histogram: 1 0 0 0 0 0 0 0 0 0

Total # of neighbors = 1104899
Ave neighs/atom = 56.2232
Neighbor list builds = 30000
Dangerous builds not checked
Setting up Verlet run ...
  Unit style    : metal
  Current step  : 40000
  Time step     : 0.001
Per MPI rank memory allocation (min/avg/max) = 18.21 | 18.21 | 18.21 Mbytes
Step Temp Press TotEng PotEng Enthalpy 
   40000    2464.0566    321.65717   -51733.833   -57992.761   -51644.147 
   40495    2425.4147   -115.07011   -51835.374   -57996.148   -51867.449 
Loop time of 50.5843 on 1 procs for 495 steps with 19652 atoms

Performance: 0.845 ns/day, 28.386 hours/ns, 9.786 timesteps/s
100.0% CPU use with 1 MPI tasks x no OpenMP threads

MPI task timing breakdown:
Section |  min time  |  avg time  |  max time  |%varavg| %total
---------------------------------------------------------------
Pair    | 25.576     | 25.576     | 25.576     |   0.0 | 50.56
Neigh   | 23.949     | 23.949     | 23.949     |   0.0 | 47.35
Comm    | 0.39683    | 0.39683    | 0.39683    |   0.0 |  0.78
Output  | 0.00012493 | 0.00012493 | 0.00012493 |   0.0 |  0.00
Modify  | 0.52537    | 0.52537    | 0.52537    |   0.0 |  1.04
Other   |            | 0.1366     |            |       |  0.27

Nlocal:    19652 ave 19652 max 19652 min
Histogram: 1 0 0 0 0 0 0 0 0 0
Nghost:    16184 ave 16184 max 16184 min
Histogram: 1 0 0 0 0 0 0 0 0 0
Neighs:    1.10534e+06 ave 1.10534e+06 max 1.10534e+06 min
Histogram: 1 0 0 0 0 0 0 0 0 0

Total # of neighbors = 1105342
Ave neighs/atom = 56.2458
Neighbor list builds = 495
Dangerous builds not checked
Setting up Verlet run ...
  Unit style    : metal
  Current step  : 40495
  Time step     : 0.001
Per MPI rank memory allocation (min/avg/max) = 18.21 | 18.21 | 18.21 Mbytes
Step Temp Press TotEng PotEng Enthalpy 
   40495    2425.4147   -115.07011   -51835.374   -57996.148   -51867.449 
   42000     2400.452   -1339.7859   -52019.009   -58116.375   -52391.506 
Loop time of 158.344 on 1 procs for 1505 steps with 19652 atoms

Performance: 0.821 ns/day, 29.226 hours/ns, 9.505 timesteps/s
99.8% CPU use with 1 MPI tasks x no OpenMP threads

MPI task timing breakdown:
Section |  min time  |  avg time  |  max time  |%varavg| %total
---------------------------------------------------------------
Pair    | 79.651     | 79.651     | 79.651     |   0.0 | 50.30
Neigh   | 75.241     | 75.241     | 75.241     |   0.0 | 47.52
Comm    | 1.2472     | 1.2472     | 1.2472     |   0.0 |  0.79
Output  | 0.17357    | 0.17357    | 0.17357    |   0.0 |  0.11
Modify  | 1.5901     | 1.5901     | 1.5901     |   0.0 |  1.00
Other   |            | 0.4416     |            |       |  0.28

Nlocal:    19652 ave 19652 max 19652 min
Histogram: 1 0 0 0 0 0 0 0 0 0
Nghost:    16234 ave 16234 max 16234 min
Histogram: 1 0 0 0 0 0 0 0 0 0
Neighs:    1.10812e+06 ave 1.10812e+06 max 1.10812e+06 min
Histogram: 1 0 0 0 0 0 0 0 0 0

Total # of neighbors = 1108122
Ave neighs/atom = 56.3872
Neighbor list builds = 1505
Dangerous builds not checked
Setting up Verlet run ...
  Unit style    : metal
  Current step  : 42000
  Time step     : 0.001
Per MPI rank memory allocation (min/avg/max) = 18.21 | 18.21 | 18.21 Mbytes
Step Temp Press TotEng PotEng Enthalpy 
   42000     2400.452   -1339.7859   -52019.009   -58116.375   -52391.506 
   42495    2352.4381   -369.53428    -52196.73   -58172.137   -52299.102 
Loop time of 50.9431 on 1 procs for 495 steps with 19652 atoms

Performance: 0.840 ns/day, 28.588 hours/ns, 9.717 timesteps/s
99.6% CPU use with 1 MPI tasks x no OpenMP threads

MPI task timing breakdown:
Section |  min time  |  avg time  |  max time  |%varavg| %total
---------------------------------------------------------------
Pair    | 25.642     | 25.642     | 25.642     |   0.0 | 50.33
Neigh   | 24.216     | 24.216     | 24.216     |   0.0 | 47.54
Comm    | 0.39911    | 0.39911    | 0.39911    |   0.0 |  0.78
Output  | 0.00013518 | 0.00013518 | 0.00013518 |   0.0 |  0.00
Modify  | 0.53028    | 0.53028    | 0.53028    |   0.0 |  1.04
Other   |            | 0.1555     |            |       |  0.31

Nlocal:    19652 ave 19652 max 19652 min
Histogram: 1 0 0 0 0 0 0 0 0 0
Nghost:    16252 ave 16252 max 16252 min
Histogram: 1 0 0 0 0 0 0 0 0 0
Neighs:    1.11182e+06 ave 1.11182e+06 max 1.11182e+06 min
Histogram: 1 0 0 0 0 0 0 0 0 0

Total # of neighbors = 1111822
Ave neighs/atom = 56.5755
Neighbor list builds = 495
Dangerous builds not checked
Setting up Verlet run ...
  Unit style    : metal
  Current step  : 42495
  Time step     : 0.001
Per MPI rank memory allocation (min/avg/max) = 18.21 | 18.21 | 18.21 Mbytes
Step Temp Press TotEng PotEng Enthalpy 
   42495    2352.4381   -369.53428    -52196.73   -58172.137   -52299.102 
   44000    2331.4353    131.97704   -52349.637   -58271.695   -52313.272 
Loop time of 152.755 on 1 procs for 1505 steps with 19652 atoms

Performance: 0.851 ns/day, 28.194 hours/ns, 9.852 timesteps/s
99.7% CPU use with 1 MPI tasks x no OpenMP threads

MPI task timing breakdown:
Section |  min time  |  avg time  |  max time  |%varavg| %total
---------------------------------------------------------------
Pair    | 76.935     | 76.935     | 76.935     |   0.0 | 50.37
Neigh   | 72.065     | 72.065     | 72.065     |   0.0 | 47.18
Comm    | 1.2133     | 1.2133     | 1.2133     |   0.0 |  0.79
Output  | 0.56247    | 0.56247    | 0.56247    |   0.0 |  0.37
Modify  | 1.5273     | 1.5273     | 1.5273     |   0.0 |  1.00
Other   |            | 0.4516     |            |       |  0.30

Nlocal:    19652 ave 19652 max 19652 min
Histogram: 1 0 0 0 0 0 0 0 0 0
Nghost:    16353 ave 16353 max 16353 min
Histogram: 1 0 0 0 0 0 0 0 0 0
Neighs:    1.11812e+06 ave 1.11812e+06 max 1.11812e+06 min
Histogram: 1 0 0 0 0 0 0 0 0 0

Total # of neighbors = 1118116
Ave neighs/atom = 56.8958
Neighbor list builds = 1505
Dangerous builds not checked
Setting up Verlet run ...
  Unit style    : metal
  Current step  : 44000
  Time step     : 0.001
Per MPI rank memory allocation (min/avg/max) = 18.21 | 18.21 | 18.21 Mbytes
Step Temp Press TotEng PotEng Enthalpy 
   44000    2331.4353    131.97704   -52349.637   -58271.695   -52313.272 
   44495    2302.8154   -792.14986   -52445.041   -58294.402   -52663.694 
Loop time of 51.3276 on 1 procs for 495 steps with 19652 atoms

Performance: 0.833 ns/day, 28.803 hours/ns, 9.644 timesteps/s
100.0% CPU use with 1 MPI tasks x no OpenMP threads

MPI task timing breakdown:
Section |  min time  |  avg time  |  max time  |%varavg| %total
---------------------------------------------------------------
Pair    | 25.978     | 25.978     | 25.978     |   0.0 | 50.61
Neigh   | 24.258     | 24.258     | 24.258     |   0.0 | 47.26
Comm    | 0.41078    | 0.41078    | 0.41078    |   0.0 |  0.80
Output  | 0.00013113 | 0.00013113 | 0.00013113 |   0.0 |  0.00
Modify  | 0.52506    | 0.52506    | 0.52506    |   0.0 |  1.02
Other   |            | 0.1549     |            |       |  0.30

Nlocal:    19652 ave 19652 max 19652 min
Histogram: 1 0 0 0 0 0 0 0 0 0
Nghost:    16268 ave 16268 max 16268 min
Histogram: 1 0 0 0 0 0 0 0 0 0
Neighs:    1.11618e+06 ave 1.11618e+06 max 1.11618e+06 min
Histogram: 1 0 0 0 0 0 0 0 0 0

Total # of neighbors = 1116181
Ave neighs/atom = 56.7973
Neighbor list builds = 495
Dangerous builds not checked
Setting up Verlet run ...
  Unit style    : metal
  Current step  : 44495
  Time step     : 0.001
Per MPI rank memory allocation (min/avg/max) = 18.21 | 18.21 | 18.21 Mbytes
Step Temp Press TotEng PotEng Enthalpy 
   44495    2302.8154   -792.14986   -52445.041   -58294.402   -52663.694 
   46000    2293.3398    1115.2927   -52553.057    -58378.35   -52247.431 
Loop time of 158.034 on 1 procs for 1505 steps with 19652 atoms

Performance: 0.823 ns/day, 29.168 hours/ns, 9.523 timesteps/s
98.7% CPU use with 1 MPI tasks x no OpenMP threads

MPI task timing breakdown:
Section |  min time  |  avg time  |  max time  |%varavg| %total
---------------------------------------------------------------
Pair    | 79.394     | 79.394     | 79.394     |   0.0 | 50.24
Neigh   | 73.237     | 73.237     | 73.237     |   0.0 | 46.34
Comm    | 1.2351     | 1.2351     | 1.2351     |   0.0 |  0.78
Output  | 2.1719     | 2.1719     | 2.1719     |   0.0 |  1.37
Modify  | 1.5439     | 1.5439     | 1.5439     |   0.0 |  0.98
Other   |            | 0.4529     |            |       |  0.29

Nlocal:    19652 ave 19652 max 19652 min
Histogram: 1 0 0 0 0 0 0 0 0 0
Nghost:    16337 ave 16337 max 16337 min
Histogram: 1 0 0 0 0 0 0 0 0 0
Neighs:    1.12466e+06 ave 1.12466e+06 max 1.12466e+06 min
Histogram: 1 0 0 0 0 0 0 0 0 0

Total # of neighbors = 1124664
Ave neighs/atom = 57.229
Neighbor list builds = 1505
Dangerous builds not checked
Setting up Verlet run ...
  Unit style    : metal
  Current step  : 46000
  Time step     : 0.001
Per MPI rank memory allocation (min/avg/max) = 18.21 | 18.21 | 18.21 Mbytes
Step Temp Press TotEng PotEng Enthalpy 
   46000    2293.3398    1115.2927   -52553.057    -58378.35   -52247.431 
   46495     2284.658    -553.5783   -52678.254   -58481.494   -52829.923 
Loop time of 49.6384 on 1 procs for 495 steps with 19652 atoms

Performance: 0.862 ns/day, 27.855 hours/ns, 9.972 timesteps/s
100.0% CPU use with 1 MPI tasks x no OpenMP threads

MPI task timing breakdown:
Section |  min time  |  avg time  |  max time  |%varavg| %total
---------------------------------------------------------------
Pair    | 25.196     | 25.196     | 25.196     |   0.0 | 50.76
Neigh   | 23.402     | 23.402     | 23.402     |   0.0 | 47.14
Comm    | 0.39475    | 0.39475    | 0.39475    |   0.0 |  0.80
Output  | 0.00013995 | 0.00013995 | 0.00013995 |   0.0 |  0.00
Modify  | 0.49943    | 0.49943    | 0.49943    |   0.0 |  1.01
Other   |            | 0.1466     |            |       |  0.30

Nlocal:    19652 ave 19652 max 19652 min
Histogram: 1 0 0 0 0 0 0 0 0 0
Nghost:    16412 ave 16412 max 16412 min
Histogram: 1 0 0 0 0 0 0 0 0 0
Neighs:    1.12506e+06 ave 1.12506e+06 max 1.12506e+06 min
Histogram: 1 0 0 0 0 0 0 0 0 0

Total # of neighbors = 1125063
Ave neighs/atom = 57.2493
Neighbor list builds = 495
Dangerous builds not checked
Setting up Verlet run ...
  Unit style    : metal
  Current step  : 46495
  Time step     : 0.001
Per MPI rank memory allocation (min/avg/max) = 18.21 | 18.21 | 18.21 Mbytes
Step Temp Press TotEng PotEng Enthalpy 
   46495     2284.658    -553.5783   -52678.254   -58481.494   -52829.923 
   48000    2264.1982      609.511   -52781.499   -58532.768   -52615.169 
Loop time of 158.137 on 1 procs for 1505 steps with 19652 atoms

Performance: 0.822 ns/day, 29.187 hours/ns, 9.517 timesteps/s
99.9% CPU use with 1 MPI tasks x no OpenMP threads

MPI task timing breakdown:
Section |  min time  |  avg time  |  max time  |%varavg| %total
---------------------------------------------------------------
Pair    | 80.51      | 80.51      | 80.51      |   0.0 | 50.91
Neigh   | 74.196     | 74.196     | 74.196     |   0.0 | 46.92
Comm    | 1.2453     | 1.2453     | 1.2453     |   0.0 |  0.79
Output  | 0.16532    | 0.16532    | 0.16532    |   0.0 |  0.10
Modify  | 1.565      | 1.565      | 1.565      |   0.0 |  0.99
Other   |            | 0.4544     |            |       |  0.29

Nlocal:    19652 ave 19652 max 19652 min
Histogram: 1 0 0 0 0 0 0 0 0 0
Nghost:    16341 ave 16341 max 16341 min
Histogram: 1 0 0 0 0 0 0 0 0 0
Neighs:    1.12935e+06 ave 1.12935e+06 max 1.12935e+06 min
Histogram: 1 0 0 0 0 0 0 0 0 0

Total # of neighbors = 1129347
Ave neighs/atom = 57.4673
Neighbor list builds = 1505
Dangerous builds not checked
Setting up Verlet run ...
  Unit style    : metal
  Current step  : 48000
  Time step     : 0.001
Per MPI rank memory allocation (min/avg/max) = 18.21 | 18.21 | 18.21 Mbytes
Step Temp Press TotEng PotEng Enthalpy 
   48000    2264.1982      609.511   -52781.499   -58532.768   -52615.169 
   48495    2219.6732    175.36439   -53009.517   -58647.689   -52961.803 
Loop time of 50.765 on 1 procs for 495 steps with 19652 atoms

Performance: 0.842 ns/day, 28.488 hours/ns, 9.751 timesteps/s
100.0% CPU use with 1 MPI tasks x no OpenMP threads

MPI task timing breakdown:
Section |  min time  |  avg time  |  max time  |%varavg| %total
---------------------------------------------------------------
Pair    | 25.929     | 25.929     | 25.929     |   0.0 | 51.08
Neigh   | 23.766     | 23.766     | 23.766     |   0.0 | 46.81
Comm    | 0.40388    | 0.40388    | 0.40388    |   0.0 |  0.80
Output  | 0.00014186 | 0.00014186 | 0.00014186 |   0.0 |  0.00
Modify  | 0.51611    | 0.51611    | 0.51611    |   0.0 |  1.02
Other   |            | 0.15       |            |       |  0.30

Nlocal:    19652 ave 19652 max 19652 min
Histogram: 1 0 0 0 0 0 0 0 0 0
Nghost:    16473 ave 16473 max 16473 min
Histogram: 1 0 0 0 0 0 0 0 0 0
Neighs:    1.1326e+06 ave 1.1326e+06 max 1.1326e+06 min
Histogram: 1 0 0 0 0 0 0 0 0 0

Total # of neighbors = 1132599
Ave neighs/atom = 57.6328
Neighbor list builds = 495
Dangerous builds not checked
Setting up Verlet run ...
  Unit style    : metal
  Current step  : 48495
  Time step     : 0.001
Per MPI rank memory allocation (min/avg/max) = 18.21 | 18.21 | 18.21 Mbytes
Step Temp Press TotEng PotEng Enthalpy 
   48495    2219.6732    175.36439   -53009.517   -58647.689   -52961.803 
   50000    2193.9559   -66.368255   -53130.505   -58703.353    -53148.52 
Loop time of 166.329 on 1 procs for 1505 steps with 19652 atoms

Performance: 0.782 ns/day, 30.699 hours/ns, 9.048 timesteps/s
99.5% CPU use with 1 MPI tasks x no OpenMP threads

MPI task timing breakdown:
Section |  min time  |  avg time  |  max time  |%varavg| %total
---------------------------------------------------------------
Pair    | 85.052     | 85.052     | 85.052     |   0.0 | 51.14
Neigh   | 77.033     | 77.033     | 77.033     |   0.0 | 46.31
Comm    | 1.2934     | 1.2934     | 1.2934     |   0.0 |  0.78
Output  | 0.83661    | 0.83661    | 0.83661    |   0.0 |  0.50
Modify  | 1.6394     | 1.6394     | 1.6394     |   0.0 |  0.99
Other   |            | 0.4735     |            |       |  0.28

Nlocal:    19652 ave 19652 max 19652 min
Histogram: 1 0 0 0 0 0 0 0 0 0
Nghost:    16368 ave 16368 max 16368 min
Histogram: 1 0 0 0 0 0 0 0 0 0
Neighs:    1.13566e+06 ave 1.13566e+06 max 1.13566e+06 min
Histogram: 1 0 0 0 0 0 0 0 0 0

Total # of neighbors = 1135664
Ave neighs/atom = 57.7887
Neighbor list builds = 1505
Dangerous builds not checked
Setting up Verlet run ...
  Unit style    : metal
  Current step  : 50000
  Time step     : 0.001
Per MPI rank memory allocation (min/avg/max) = 18.21 | 18.21 | 18.21 Mbytes
Step Temp Press TotEng PotEng Enthalpy 
   50000    2193.9559   -66.368255   -53130.505   -58703.353    -53148.52 
   50495     2165.093    280.71709   -53307.628   -58807.161   -53231.795 
Loop time of 56.5144 on 1 procs for 495 steps with 19652 atoms

Performance: 0.757 ns/day, 31.714 hours/ns, 8.759 timesteps/s
100.0% CPU use with 1 MPI tasks x no OpenMP threads

MPI task timing breakdown:
Section |  min time  |  avg time  |  max time  |%varavg| %total
---------------------------------------------------------------
Pair    | 29.228     | 29.228     | 29.228     |   0.0 | 51.72
Neigh   | 26.103     | 26.103     | 26.103     |   0.0 | 46.19
Comm    | 0.45396    | 0.45396    | 0.45396    |   0.0 |  0.80
Output  | 0.00013995 | 0.00013995 | 0.00013995 |   0.0 |  0.00
Modify  | 0.56776    | 0.56776    | 0.56776    |   0.0 |  1.00
Other   |            | 0.1623     |            |       |  0.29

Nlocal:    19652 ave 19652 max 19652 min
Histogram: 1 0 0 0 0 0 0 0 0 0
Nghost:    16523 ave 16523 max 16523 min
Histogram: 1 0 0 0 0 0 0 0 0 0
Neighs:    1.14086e+06 ave 1.14086e+06 max 1.14086e+06 min
Histogram: 1 0 0 0 0 0 0 0 0 0

Total # of neighbors = 1140863
Ave neighs/atom = 58.0533
Neighbor list builds = 495
Dangerous builds not checked
Setting up Verlet run ...
  Unit style    : metal
  Current step  : 50495
  Time step     : 0.001
Per MPI rank memory allocation (min/avg/max) = 18.21 | 18.21 | 18.21 Mbytes
Step Temp Press TotEng PotEng Enthalpy 
   50495     2165.093    280.71709   -53307.628   -58807.161   -53231.795 
   52000     2124.573   -643.63597   -53420.334   -58816.943   -53594.375 
Loop time of 151.759 on 1 procs for 1505 steps with 19652 atoms

Performance: 0.857 ns/day, 28.010 hours/ns, 9.917 timesteps/s
99.8% CPU use with 1 MPI tasks x no OpenMP threads

MPI task timing breakdown:
Section |  min time  |  avg time  |  max time  |%varavg| %total
---------------------------------------------------------------
Pair    | 76.314     | 76.314     | 76.314     |   0.0 | 50.29
Neigh   | 72.167     | 72.167     | 72.167     |   0.0 | 47.55
Comm    | 1.1794     | 1.1794     | 1.1794     |   0.0 |  0.78
Output  | 0.17613    | 0.17613    | 0.17613    |   0.0 |  0.12
Modify  | 1.514      | 1.514      | 1.514      |   0.0 |  1.00
Other   |            | 0.4084     |            |       |  0.27

Nlocal:    19652 ave 19652 max 19652 min
Histogram: 1 0 0 0 0 0 0 0 0 0
Nghost:    16432 ave 16432 max 16432 min
Histogram: 1 0 0 0 0 0 0 0 0 0
Neighs:    1.14002e+06 ave 1.14002e+06 max 1.14002e+06 min
Histogram: 1 0 0 0 0 0 0 0 0 0

Total # of neighbors = 1140016
Ave neighs/atom = 58.0102
Neighbor list builds = 1505
Dangerous builds not checked
Setting up Verlet run ...
  Unit style    : metal
  Current step  : 52000
  Time step     : 0.001
Per MPI rank memory allocation (min/avg/max) = 18.21 | 18.21 | 18.21 Mbytes
Step Temp Press TotEng PotEng Enthalpy 
   52000     2124.573   -643.63597   -53420.334   -58816.943   -53594.375 
   52495    2112.6807   -340.22672   -53575.456   -58941.858   -53667.089 
Loop time of 47.6901 on 1 procs for 495 steps with 19652 atoms

Performance: 0.897 ns/day, 26.762 hours/ns, 10.380 timesteps/s
99.8% CPU use with 1 MPI tasks x no OpenMP threads

MPI task timing breakdown:
Section |  min time  |  avg time  |  max time  |%varavg| %total
---------------------------------------------------------------
Pair    | 23.924     | 23.924     | 23.924     |   0.0 | 50.17
Neigh   | 22.792     | 22.792     | 22.792     |   0.0 | 47.79
Comm    | 0.3636     | 0.3636     | 0.3636     |   0.0 |  0.76
Output  | 0.00012207 | 0.00012207 | 0.00012207 |   0.0 |  0.00
Modify  | 0.48187    | 0.48187    | 0.48187    |   0.0 |  1.01
Other   |            | 0.1285     |            |       |  0.27

Nlocal:    19652 ave 19652 max 19652 min
Histogram: 1 0 0 0 0 0 0 0 0 0
Nghost:    16568 ave 16568 max 16568 min
Histogram: 1 0 0 0 0 0 0 0 0 0
Neighs:    1.1446e+06 ave 1.1446e+06 max 1.1446e+06 min
Histogram: 1 0 0 0 0 0 0 0 0 0

Total # of neighbors = 1144602
Ave neighs/atom = 58.2435
Neighbor list builds = 495
Dangerous builds not checked
Setting up Verlet run ...
  Unit style    : metal
  Current step  : 52495
  Time step     : 0.001
Per MPI rank memory allocation (min/avg/max) = 18.21 | 18.21 | 18.21 Mbytes
Step Temp Press TotEng PotEng Enthalpy 
   52495    2112.6807   -340.22672   -53575.456   -58941.858   -53667.089 
   54000    2107.4342    1219.3005   -53730.847   -59083.922   -53405.266 
Loop time of 150.649 on 1 procs for 1505 steps with 19652 atoms

Performance: 0.863 ns/day, 27.805 hours/ns, 9.990 timesteps/s
99.6% CPU use with 1 MPI tasks x no OpenMP threads

MPI task timing breakdown:
Section |  min time  |  avg time  |  max time  |%varavg| %total
---------------------------------------------------------------
Pair    | 75.721     | 75.721     | 75.721     |   0.0 | 50.26
Neigh   | 71.298     | 71.298     | 71.298     |   0.0 | 47.33
Comm    | 1.1581     | 1.1581     | 1.1581     |   0.0 |  0.77
Output  | 0.57208    | 0.57208    | 0.57208    |   0.0 |  0.38
Modify  | 1.4924     | 1.4924     | 1.4924     |   0.0 |  0.99
Other   |            | 0.4071     |            |       |  0.27

Nlocal:    19652 ave 19652 max 19652 min
Histogram: 1 0 0 0 0 0 0 0 0 0
Nghost:    16503 ave 16503 max 16503 min
Histogram: 1 0 0 0 0 0 0 0 0 0
Neighs:    1.15431e+06 ave 1.15431e+06 max 1.15431e+06 min
Histogram: 1 0 0 0 0 0 0 0 0 0

Total # of neighbors = 1154310
Ave neighs/atom = 58.7375
Neighbor list builds = 1505
Dangerous builds not checked
Setting up Verlet run ...
  Unit style    : metal
  Current step  : 54000
  Time step     : 0.001
Per MPI rank memory allocation (min/avg/max) = 18.21 | 18.21 | 18.21 Mbytes
Step Temp Press TotEng PotEng Enthalpy 
   54000    2107.4342    1219.3005   -53730.847   -59083.922   -53405.266 
   54495    2069.6562    -272.9068   -53791.763   -59048.879   -53864.886 
Loop time of 54.9731 on 1 procs for 495 steps with 19652 atoms

Performance: 0.778 ns/day, 30.849 hours/ns, 9.004 timesteps/s
99.9% CPU use with 1 MPI tasks x no OpenMP threads

MPI task timing breakdown:
Section |  min time  |  avg time  |  max time  |%varavg| %total
---------------------------------------------------------------
Pair    | 28.049     | 28.049     | 28.049     |   0.0 | 51.02
Neigh   | 25.782     | 25.782     | 25.782     |   0.0 | 46.90
Comm    | 0.42449    | 0.42449    | 0.42449    |   0.0 |  0.77
Output  | 0.00012207 | 0.00012207 | 0.00012207 |   0.0 |  0.00
Modify  | 0.56916    | 0.56916    | 0.56916    |   0.0 |  1.04
Other   |            | 0.1478     |            |       |  0.27

Nlocal:    19652 ave 19652 max 19652 min
Histogram: 1 0 0 0 0 0 0 0 0 0
Nghost:    16468 ave 16468 max 16468 min
Histogram: 1 0 0 0 0 0 0 0 0 0
Neighs:    1.1505e+06 ave 1.1505e+06 max 1.1505e+06 min
Histogram: 1 0 0 0 0 0 0 0 0 0

Total # of neighbors = 1150501
Ave neighs/atom = 58.5437
Neighbor list builds = 495
Dangerous builds not checked
Setting up Verlet run ...
  Unit style    : metal
  Current step  : 54495
  Time step     : 0.001
Per MPI rank memory allocation (min/avg/max) = 18.21 | 18.21 | 18.21 Mbytes
Step Temp Press TotEng PotEng Enthalpy 
   54495    2069.6562    -272.9068   -53791.763   -59048.879   -53864.886 
   56000    2042.8934    1135.0314   -53959.472   -59148.607    -53657.06 
Loop time of 152.012 on 1 procs for 1505 steps with 19652 atoms

Performance: 0.855 ns/day, 28.057 hours/ns, 9.901 timesteps/s
99.8% CPU use with 1 MPI tasks x no OpenMP threads

MPI task timing breakdown:
Section |  min time  |  avg time  |  max time  |%varavg| %total
---------------------------------------------------------------
Pair    | 76.637     | 76.637     | 76.637     |   0.0 | 50.41
Neigh   | 72.196     | 72.196     | 72.196     |   0.0 | 47.49
Comm    | 1.1592     | 1.1592     | 1.1592     |   0.0 |  0.76
Output  | 0.10674    | 0.10674    | 0.10674    |   0.0 |  0.07
Modify  | 1.5105     | 1.5105     | 1.5105     |   0.0 |  0.99
Other   |            | 0.4027     |            |       |  0.26

Nlocal:    19652 ave 19652 max 19652 min
Histogram: 1 0 0 0 0 0 0 0 0 0
Nghost:    16504 ave 16504 max 16504 min
Histogram: 1 0 0 0 0 0 0 0 0 0
Neighs:    1.15768e+06 ave 1.15768e+06 max 1.15768e+06 min
Histogram: 1 0 0 0 0 0 0 0 0 0

Total # of neighbors = 1157678
Ave neighs/atom = 58.9089
Neighbor list builds = 1505
Dangerous builds not checked
Setting up Verlet run ...
  Unit style    : metal
  Current step  : 56000
  Time step     : 0.001
Per MPI rank memory allocation (min/avg/max) = 18.21 | 18.21 | 18.21 Mbytes
Step Temp Press TotEng PotEng Enthalpy 
   56000    2042.8934    1135.0314   -53959.472   -59148.607    -53657.06 
   56495    2010.5306     918.4053    -54117.59   -59224.521   -53873.431 
Loop time of 48.3482 on 1 procs for 495 steps with 19652 atoms

Performance: 0.885 ns/day, 27.131 hours/ns, 10.238 timesteps/s
99.7% CPU use with 1 MPI tasks x no OpenMP threads

MPI task timing breakdown:
Section |  min time  |  avg time  |  max time  |%varavg| %total
---------------------------------------------------------------
Pair    | 24.332     | 24.332     | 24.332     |   0.0 | 50.33
Neigh   | 23.03      | 23.03      | 23.03      |   0.0 | 47.63
Comm    | 0.36817    | 0.36817    | 0.36817    |   0.0 |  0.76
Output  | 0.00011086 | 0.00011086 | 0.00011086 |   0.0 |  0.00
Modify  | 0.48832    | 0.48832    | 0.48832    |   0.0 |  1.01
Other   |            | 0.1295     |            |       |  0.27

Nlocal:    19652 ave 19652 max 19652 min
Histogram: 1 0 0 0 0 0 0 0 0 0
Nghost:    16611 ave 16611 max 16611 min
Histogram: 1 0 0 0 0 0 0 0 0 0
Neighs:    1.15993e+06 ave 1.15993e+06 max 1.15993e+06 min
Histogram: 1 0 0 0 0 0 0 0 0 0

Total # of neighbors = 1159934
Ave neighs/atom = 59.0237
Neighbor list builds = 495
Dangerous builds not checked
Setting up Verlet run ...
  Unit style    : metal
  Current step  : 56495
  Time step     : 0.001
Per MPI rank memory allocation (min/avg/max) = 18.21 | 18.21 | 18.21 Mbytes
Step Temp Press TotEng PotEng Enthalpy 
   56495    2010.5306     918.4053    -54117.59   -59224.521   -53873.431 
   58000    1996.7692   -387.79951   -54206.968   -59278.944   -54310.014 
Loop time of 150.674 on 1 procs for 1505 steps with 19652 atoms

Performance: 0.863 ns/day, 27.810 hours/ns, 9.988 timesteps/s
99.8% CPU use with 1 MPI tasks x no OpenMP threads

MPI task timing breakdown:
Section |  min time  |  avg time  |  max time  |%varavg| %total
---------------------------------------------------------------
Pair    | 75.595     | 75.595     | 75.595     |   0.0 | 50.17
Neigh   | 71.631     | 71.631     | 71.631     |   0.0 | 47.54
Comm    | 1.1694     | 1.1694     | 1.1694     |   0.0 |  0.78
Output  | 0.34403    | 0.34403    | 0.34403    |   0.0 |  0.23
Modify  | 1.5124     | 1.5124     | 1.5124     |   0.0 |  1.00
Other   |            | 0.4215     |            |       |  0.28

Nlocal:    19652 ave 19652 max 19652 min
Histogram: 1 0 0 0 0 0 0 0 0 0
Nghost:    16537 ave 16537 max 16537 min
Histogram: 1 0 0 0 0 0 0 0 0 0
Neighs:    1.16052e+06 ave 1.16052e+06 max 1.16052e+06 min
Histogram: 1 0 0 0 0 0 0 0 0 0

Total # of neighbors = 1160522
Ave neighs/atom = 59.0536
Neighbor list builds = 1505
Dangerous builds not checked
Setting up Verlet run ...
  Unit style    : metal
  Current step  : 58000
  Time step     : 0.001
Per MPI rank memory allocation (min/avg/max) = 18.21 | 18.21 | 18.21 Mbytes
Step Temp Press TotEng PotEng Enthalpy 
   58000    1996.7692   -387.79951   -54206.968   -59278.944   -54310.014 
   58495    1955.9189    785.69694   -54397.915   -59366.127   -54190.247 
Loop time of 47.9242 on 1 procs for 495 steps with 19652 atoms

Performance: 0.892 ns/day, 26.893 hours/ns, 10.329 timesteps/s
100.0% CPU use with 1 MPI tasks x no OpenMP threads

MPI task timing breakdown:
Section |  min time  |  avg time  |  max time  |%varavg| %total
---------------------------------------------------------------
Pair    | 24.076     | 24.076     | 24.076     |   0.0 | 50.24
Neigh   | 22.858     | 22.858     | 22.858     |   0.0 | 47.70
Comm    | 0.37006    | 0.37006    | 0.37006    |   0.0 |  0.77
Output  | 0.00012517 | 0.00012517 | 0.00012517 |   0.0 |  0.00
Modify  | 0.47761    | 0.47761    | 0.47761    |   0.0 |  1.00
Other   |            | 0.1423     |            |       |  0.30

Nlocal:    19652 ave 19652 max 19652 min
Histogram: 1 0 0 0 0 0 0 0 0 0
Nghost:    16600 ave 16600 max 16600 min
Histogram: 1 0 0 0 0 0 0 0 0 0
Neighs:    1.1668e+06 ave 1.1668e+06 max 1.1668e+06 min
Histogram: 1 0 0 0 0 0 0 0 0 0

Total # of neighbors = 1166804
Ave neighs/atom = 59.3733
Neighbor list builds = 495
Dangerous builds not checked
Setting up Verlet run ...
  Unit style    : metal
  Current step  : 58495
  Time step     : 0.001
Per MPI rank memory allocation (min/avg/max) = 18.21 | 18.21 | 18.21 Mbytes
Step Temp Press TotEng PotEng Enthalpy 
   58495    1955.9189    785.69694   -54397.915   -59366.127   -54190.247 
   60000    1941.5118    1133.7244   -54498.747   -59430.364   -54200.136 
Loop time of 148.983 on 1 procs for 1505 steps with 19652 atoms

Performance: 0.873 ns/day, 27.498 hours/ns, 10.102 timesteps/s
99.9% CPU use with 1 MPI tasks x no OpenMP threads

MPI task timing breakdown:
Section |  min time  |  avg time  |  max time  |%varavg| %total
---------------------------------------------------------------
Pair    | 75.239     | 75.239     | 75.239     |   0.0 | 50.50
Neigh   | 70.56      | 70.56      | 70.56      |   0.0 | 47.36
Comm    | 1.1593     | 1.1593     | 1.1593     |   0.0 |  0.78
Output  | 0.12113    | 0.12113    | 0.12113    |   0.0 |  0.08
Modify  | 1.465      | 1.465      | 1.465      |   0.0 |  0.98
Other   |            | 0.4378     |            |       |  0.29

Nlocal:    19652 ave 19652 max 19652 min
Histogram: 1 0 0 0 0 0 0 0 0 0
Nghost:    16606 ave 16606 max 16606 min
Histogram: 1 0 0 0 0 0 0 0 0 0
Neighs:    1.17101e+06 ave 1.17101e+06 max 1.17101e+06 min
Histogram: 1 0 0 0 0 0 0 0 0 0

Total # of neighbors = 1171011
Ave neighs/atom = 59.5874
Neighbor list builds = 1505
Dangerous builds not checked
Setting up Verlet run ...
  Unit style    : metal
  Current step  : 60000
  Time step     : 0.001
Per MPI rank memory allocation (min/avg/max) = 18.21 | 18.21 | 18.21 Mbytes
Step Temp Press TotEng PotEng Enthalpy 
   60000    1941.5118    1133.7244   -54498.747   -59430.364   -54200.136 
   60495     1911.817    152.05611   -54681.401    -59537.59   -54641.411 
Loop time of 49.1651 on 1 procs for 495 steps with 19652 atoms

Performance: 0.870 ns/day, 27.590 hours/ns, 10.068 timesteps/s
99.9% CPU use with 1 MPI tasks x no OpenMP threads

MPI task timing breakdown:
Section |  min time  |  avg time  |  max time  |%varavg| %total
---------------------------------------------------------------
Pair    | 24.85      | 24.85      | 24.85      |   0.0 | 50.54
Neigh   | 23.29      | 23.29      | 23.29      |   0.0 | 47.37
Comm    | 0.38253    | 0.38253    | 0.38253    |   0.0 |  0.78
Output  | 0.00012898 | 0.00012898 | 0.00012898 |   0.0 |  0.00
Modify  | 0.49503    | 0.49503    | 0.49503    |   0.0 |  1.01
Other   |            | 0.1476     |            |       |  0.30

Nlocal:    19652 ave 19652 max 19652 min
Histogram: 1 0 0 0 0 0 0 0 0 0
Nghost:    16684 ave 16684 max 16684 min
Histogram: 1 0 0 0 0 0 0 0 0 0
Neighs:    1.1734e+06 ave 1.1734e+06 max 1.1734e+06 min
Histogram: 1 0 0 0 0 0 0 0 0 0

Total # of neighbors = 1173398
Ave neighs/atom = 59.7088
Neighbor list builds = 495
Dangerous builds not checked
Setting up Verlet run ...
  Unit style    : metal
  Current step  : 60495
  Time step     : 0.001
Per MPI rank memory allocation (min/avg/max) = 18.21 | 18.21 | 18.21 Mbytes
Step Temp Press TotEng PotEng Enthalpy 
   60495     1911.817    152.05611   -54681.401    -59537.59   -54641.411 
   62000    1892.7443   -652.26117   -54763.181   -59570.924   -54934.703 
Loop time of 162.194 on 1 procs for 1505 steps with 19652 atoms

Performance: 0.802 ns/day, 29.936 hours/ns, 9.279 timesteps/s
99.6% CPU use with 1 MPI tasks x no OpenMP threads

MPI task timing breakdown:
Section |  min time  |  avg time  |  max time  |%varavg| %total
---------------------------------------------------------------
Pair    | 82.451     | 82.451     | 82.451     |   0.0 | 50.83
Neigh   | 75.731     | 75.731     | 75.731     |   0.0 | 46.69
Comm    | 1.2506     | 1.2506     | 1.2506     |   0.0 |  0.77
Output  | 0.6813     | 0.6813     | 0.6813     |   0.0 |  0.42
Modify  | 1.6132     | 1.6132     | 1.6132     |   0.0 |  0.99
Other   |            | 0.4674     |            |       |  0.29

Nlocal:    19652 ave 19652 max 19652 min
Histogram: 1 0 0 0 0 0 0 0 0 0
Nghost:    16621 ave 16621 max 16621 min
Histogram: 1 0 0 0 0 0 0 0 0 0
Neighs:    1.17335e+06 ave 1.17335e+06 max 1.17335e+06 min
Histogram: 1 0 0 0 0 0 0 0 0 0

Total # of neighbors = 1173351
Ave neighs/atom = 59.7064
Neighbor list builds = 1505
Dangerous builds not checked
Setting up Verlet run ...
  Unit style    : metal
  Current step  : 62000
  Time step     : 0.001
Per MPI rank memory allocation (min/avg/max) = 18.21 | 18.21 | 18.21 Mbytes
Step Temp Press TotEng PotEng Enthalpy 
   62000    1892.7443   -652.26117   -54763.181   -59570.924   -54934.703 
   62495    1850.9765   -94.937273   -54982.436   -59684.085   -55007.261 
Loop time of 48.9886 on 1 procs for 495 steps with 19652 atoms

Performance: 0.873 ns/day, 27.491 hours/ns, 10.104 timesteps/s
100.0% CPU use with 1 MPI tasks x no OpenMP threads

MPI task timing breakdown:
Section |  min time  |  avg time  |  max time  |%varavg| %total
---------------------------------------------------------------
Pair    | 24.663     | 24.663     | 24.663     |   0.0 | 50.34
Neigh   | 23.311     | 23.311     | 23.311     |   0.0 | 47.59
Comm    | 0.37114    | 0.37114    | 0.37114    |   0.0 |  0.76
Output  | 0.00013304 | 0.00013304 | 0.00013304 |   0.0 |  0.00
Modify  | 0.49438    | 0.49438    | 0.49438    |   0.0 |  1.01
Other   |            | 0.1488     |            |       |  0.30

Nlocal:    19652 ave 19652 max 19652 min
Histogram: 1 0 0 0 0 0 0 0 0 0
Nghost:    16706 ave 16706 max 16706 min
Histogram: 1 0 0 0 0 0 0 0 0 0
Neighs:    1.17975e+06 ave 1.17975e+06 max 1.17975e+06 min
Histogram: 1 0 0 0 0 0 0 0 0 0

Total # of neighbors = 1179746
Ave neighs/atom = 60.0319
Neighbor list builds = 495
Dangerous builds not checked
Setting up Verlet run ...
  Unit style    : metal
  Current step  : 62495
  Time step     : 0.001
Per MPI rank memory allocation (min/avg/max) = 18.21 | 18.21 | 18.21 Mbytes
Step Temp Press TotEng PotEng Enthalpy 
   62495    1850.9765   -94.937273   -54982.436   -59684.085   -55007.261 
   64000    1854.2573   -38.543196   -55088.629   -59798.611    -55098.67 
Loop time of 155.639 on 1 procs for 1505 steps with 19652 atoms

Performance: 0.835 ns/day, 28.726 hours/ns, 9.670 timesteps/s
99.8% CPU use with 1 MPI tasks x no OpenMP threads

MPI task timing breakdown:
Section |  min time  |  avg time  |  max time  |%varavg| %total
---------------------------------------------------------------
Pair    | 79.092     | 79.092     | 79.092     |   0.0 | 50.82
Neigh   | 72.933     | 72.933     | 72.933     |   0.0 | 46.86
Comm    | 1.2006     | 1.2006     | 1.2006     |   0.0 |  0.77
Output  | 0.42496    | 0.42496    | 0.42496    |   0.0 |  0.27
Modify  | 1.5312     | 1.5312     | 1.5312     |   0.0 |  0.98
Other   |            | 0.4577     |            |       |  0.29

Nlocal:    19652 ave 19652 max 19652 min
Histogram: 1 0 0 0 0 0 0 0 0 0
Nghost:    16742 ave 16742 max 16742 min
Histogram: 1 0 0 0 0 0 0 0 0 0
Neighs:    1.18509e+06 ave 1.18509e+06 max 1.18509e+06 min
Histogram: 1 0 0 0 0 0 0 0 0 0

Total # of neighbors = 1185089
Ave neighs/atom = 60.3037
Neighbor list builds = 1505
Dangerous builds not checked
Setting up Verlet run ...
  Unit style    : metal
  Current step  : 64000
  Time step     : 0.001
Per MPI rank memory allocation (min/avg/max) = 18.21 | 18.21 | 18.21 Mbytes
Step Temp Press TotEng PotEng Enthalpy 
   64000    1854.2573   -38.543196   -55088.629   -59798.611    -55098.67 
   64495    1799.1343    791.31632   -55253.026   -59822.991   -55047.464 
Loop time of 55.4282 on 1 procs for 495 steps with 19652 atoms

Performance: 0.772 ns/day, 31.104 hours/ns, 8.930 timesteps/s
100.0% CPU use with 1 MPI tasks x no OpenMP threads

MPI task timing breakdown:
Section |  min time  |  avg time  |  max time  |%varavg| %total
---------------------------------------------------------------
Pair    | 28.55      | 28.55      | 28.55      |   0.0 | 51.51
Neigh   | 25.72      | 25.72      | 25.72      |   0.0 | 46.40
Comm    | 0.4291     | 0.4291     | 0.4291     |   0.0 |  0.77
Output  | 0.00013208 | 0.00013208 | 0.00013208 |   0.0 |  0.00
Modify  | 0.56483    | 0.56483    | 0.56483    |   0.0 |  1.02
Other   |            | 0.1634     |            |       |  0.29

Nlocal:    19652 ave 19652 max 19652 min
Histogram: 1 0 0 0 0 0 0 0 0 0
Nghost:    16699 ave 16699 max 16699 min
Histogram: 1 0 0 0 0 0 0 0 0 0
Neighs:    1.18804e+06 ave 1.18804e+06 max 1.18804e+06 min
Histogram: 1 0 0 0 0 0 0 0 0 0

Total # of neighbors = 1188036
Ave neighs/atom = 60.4537
Neighbor list builds = 495
Dangerous builds not checked
Setting up Verlet run ...
  Unit style    : metal
  Current step  : 64495
  Time step     : 0.001
Per MPI rank memory allocation (min/avg/max) = 18.21 | 18.21 | 18.21 Mbytes
Step Temp Press TotEng PotEng Enthalpy 
   64495    1799.1343    791.31632   -55253.026   -59822.991   -55047.464 
   66000    1813.5053     10.69678   -55280.095   -59886.564   -55277.318 
Loop time of 155.557 on 1 procs for 1505 steps with 19652 atoms

Performance: 0.836 ns/day, 28.711 hours/ns, 9.675 timesteps/s
100.0% CPU use with 1 MPI tasks x no OpenMP threads

MPI task timing breakdown:
Section |  min time  |  avg time  |  max time  |%varavg| %total
---------------------------------------------------------------
Pair    | 79.347     | 79.347     | 79.347     |   0.0 | 51.01
Neigh   | 72.964     | 72.964     | 72.964     |   0.0 | 46.91
Comm    | 1.1968     | 1.1968     | 1.1968     |   0.0 |  0.77
Output  | 0.065211   | 0.065211   | 0.065211   |   0.0 |  0.04
Modify  | 1.5277     | 1.5277     | 1.5277     |   0.0 |  0.98
Other   |            | 0.4553     |            |       |  0.29

Nlocal:    19652 ave 19652 max 19652 min
Histogram: 1 0 0 0 0 0 0 0 0 0
Nghost:    16635 ave 16635 max 16635 min
Histogram: 1 0 0 0 0 0 0 0 0 0
Neighs:    1.18827e+06 ave 1.18827e+06 max 1.18827e+06 min
Histogram: 1 0 0 0 0 0 0 0 0 0

Total # of neighbors = 1188268
Ave neighs/atom = 60.4655
Neighbor list builds = 1505
Dangerous builds not checked
Setting up Verlet run ...
  Unit style    : metal
  Current step  : 66000
  Time step     : 0.001
Per MPI rank memory allocation (min/avg/max) = 18.21 | 18.21 | 18.21 Mbytes
Step Temp Press TotEng PotEng Enthalpy 
   66000    1813.5053     10.69678   -55280.095   -59886.564   -55277.318 
   66495     1756.937   -253.96019   -55559.414   -60022.194   -55625.034 
Loop time of 55.2187 on 1 procs for 495 steps with 19652 atoms

Performance: 0.775 ns/day, 30.987 hours/ns, 8.964 timesteps/s
100.0% CPU use with 1 MPI tasks x no OpenMP threads

MPI task timing breakdown:
Section |  min time  |  avg time  |  max time  |%varavg| %total
---------------------------------------------------------------
Pair    | 28.349     | 28.349     | 28.349     |   0.0 | 51.34
Neigh   | 25.729     | 25.729     | 25.729     |   0.0 | 46.59
Comm    | 0.41921    | 0.41921    | 0.41921    |   0.0 |  0.76
Output  | 0.00014186 | 0.00014186 | 0.00014186 |   0.0 |  0.00
Modify  | 0.55792    | 0.55792    | 0.55792    |   0.0 |  1.01
Other   |            | 0.1631     |            |       |  0.30

Nlocal:    19652 ave 19652 max 19652 min
Histogram: 1 0 0 0 0 0 0 0 0 0
Nghost:    16747 ave 16747 max 16747 min
Histogram: 1 0 0 0 0 0 0 0 0 0
Neighs:    1.19476e+06 ave 1.19476e+06 max 1.19476e+06 min
Histogram: 1 0 0 0 0 0 0 0 0 0

Total # of neighbors = 1194760
Ave neighs/atom = 60.7958
Neighbor list builds = 495
Dangerous builds not checked
Setting up Verlet run ...
  Unit style    : metal
  Current step  : 66495
  Time step     : 0.001
Per MPI rank memory allocation (min/avg/max) = 18.21 | 18.21 | 18.21 Mbytes
Step Temp Press TotEng PotEng Enthalpy 
   66495     1756.937   -253.96019   -55559.414   -60022.194   -55625.034 
   68000    1753.9741   -477.62119   -55639.852   -60095.106   -55763.011 
Loop time of 150.791 on 1 procs for 1505 steps with 19652 atoms

Performance: 0.862 ns/day, 27.831 hours/ns, 9.981 timesteps/s
100.0% CPU use with 1 MPI tasks x no OpenMP threads

MPI task timing breakdown:
Section |  min time  |  avg time  |  max time  |%varavg| %total
---------------------------------------------------------------
Pair    | 76.801     | 76.801     | 76.801     |   0.0 | 50.93
Neigh   | 70.812     | 70.812     | 70.812     |   0.0 | 46.96
Comm    | 1.1677     | 1.1677     | 1.1677     |   0.0 |  0.77
Output  | 0.089861   | 0.089861   | 0.089861   |   0.0 |  0.06
Modify  | 1.4741     | 1.4741     | 1.4741     |   0.0 |  0.98
Other   |            | 0.4459     |            |       |  0.30

Nlocal:    19652 ave 19652 max 19652 min
Histogram: 1 0 0 0 0 0 0 0 0 0
Nghost:    16767 ave 16767 max 16767 min
Histogram: 1 0 0 0 0 0 0 0 0 0
Neighs:    1.19684e+06 ave 1.19684e+06 max 1.19684e+06 min
Histogram: 1 0 0 0 0 0 0 0 0 0

Total # of neighbors = 1196840
Ave neighs/atom = 60.9017
Neighbor list builds = 1505
Dangerous builds not checked
Setting up Verlet run ...
  Unit style    : metal
  Current step  : 68000
  Time step     : 0.001
Per MPI rank memory allocation (min/avg/max) = 18.21 | 18.21 | 18.21 Mbytes
Step Temp Press TotEng PotEng Enthalpy 
   68000    1753.9741   -477.62119   -55639.852   -60095.106   -55763.011 
   68495    1700.2059    390.49378   -55864.018   -60182.696   -55763.782 
Loop time of 49.479 on 1 procs for 495 steps with 19652 atoms

Performance: 0.864 ns/day, 27.766 hours/ns, 10.004 timesteps/s
100.0% CPU use with 1 MPI tasks x no OpenMP threads

MPI task timing breakdown:
Section |  min time  |  avg time  |  max time  |%varavg| %total
---------------------------------------------------------------
Pair    | 25.136     | 25.136     | 25.136     |   0.0 | 50.80
Neigh   | 23.325     | 23.325     | 23.325     |   0.0 | 47.14
Comm    | 0.37895    | 0.37895    | 0.37895    |   0.0 |  0.77
Output  | 0.00014091 | 0.00014091 | 0.00014091 |   0.0 |  0.00
Modify  | 0.49181    | 0.49181    | 0.49181    |   0.0 |  0.99
Other   |            | 0.1471     |            |       |  0.30

Nlocal:    19652 ave 19652 max 19652 min
Histogram: 1 0 0 0 0 0 0 0 0 0
Nghost:    16823 ave 16823 max 16823 min
Histogram: 1 0 0 0 0 0 0 0 0 0
Neighs:    1.20269e+06 ave 1.20269e+06 max 1.20269e+06 min
Histogram: 1 0 0 0 0 0 0 0 0 0

Total # of neighbors = 1202694
Ave neighs/atom = 61.1996
Neighbor list builds = 495
Dangerous builds not checked
Setting up Verlet run ...
  Unit style    : metal
  Current step  : 68495
  Time step     : 0.001
Per MPI rank memory allocation (min/avg/max) = 18.21 | 18.21 | 18.21 Mbytes
Step Temp Press TotEng PotEng Enthalpy 
   68495    1700.2059    390.49378   -55864.018   -60182.696   -55763.782 
   70000    1713.1866    558.55375   -55849.941   -60201.591   -55706.672 
Loop time of 160.344 on 1 procs for 1505 steps with 19652 atoms

Performance: 0.811 ns/day, 29.595 hours/ns, 9.386 timesteps/s
99.9% CPU use with 1 MPI tasks x no OpenMP threads

MPI task timing breakdown:
Section |  min time  |  avg time  |  max time  |%varavg| %total
---------------------------------------------------------------
Pair    | 82.169     | 82.169     | 82.169     |   0.0 | 51.25
Neigh   | 74.659     | 74.659     | 74.659     |   0.0 | 46.56
Comm    | 1.2253     | 1.2253     | 1.2253     |   0.0 |  0.76
Output  | 0.25014    | 0.25014    | 0.25014    |   0.0 |  0.16
Modify  | 1.5774     | 1.5774     | 1.5774     |   0.0 |  0.98
Other   |            | 0.4626     |            |       |  0.29

Nlocal:    19652 ave 19652 max 19652 min
Histogram: 1 0 0 0 0 0 0 0 0 0
Nghost:    16844 ave 16844 max 16844 min
Histogram: 1 0 0 0 0 0 0 0 0 0
Neighs:    1.20363e+06 ave 1.20363e+06 max 1.20363e+06 min
Histogram: 1 0 0 0 0 0 0 0 0 0

Total # of neighbors = 1203629
Ave neighs/atom = 61.2472
Neighbor list builds = 1505
Dangerous builds not checked
Setting up Verlet run ...
  Unit style    : metal
  Current step  : 70000
  Time step     : 0.001
Per MPI rank memory allocation (min/avg/max) = 18.21 | 18.21 | 18.21 Mbytes
Step Temp Press TotEng PotEng Enthalpy 
   70000    1713.1866    558.55375   -55849.941   -60201.591   -55706.672 
   70495      1669.77     281.9441   -56108.302    -60349.67   -56036.389 
Loop time of 57.9282 on 1 procs for 495 steps with 19652 atoms

Performance: 0.738 ns/day, 32.507 hours/ns, 8.545 timesteps/s
99.9% CPU use with 1 MPI tasks x no OpenMP threads

MPI task timing breakdown:
Section |  min time  |  avg time  |  max time  |%varavg| %total
---------------------------------------------------------------
Pair    | 30.084     | 30.084     | 30.084     |   0.0 | 51.93
Neigh   | 26.65      | 26.65      | 26.65      |   0.0 | 46.01
Comm    | 0.45112    | 0.45112    | 0.45112    |   0.0 |  0.78
Output  | 0.00015593 | 0.00015593 | 0.00015593 |   0.0 |  0.00
Modify  | 0.57779    | 0.57779    | 0.57779    |   0.0 |  1.00
Other   |            | 0.165      |            |       |  0.28

Nlocal:    19652 ave 19652 max 19652 min
Histogram: 1 0 0 0 0 0 0 0 0 0
Nghost:    16816 ave 16816 max 16816 min
Histogram: 1 0 0 0 0 0 0 0 0 0
Neighs:    1.2108e+06 ave 1.2108e+06 max 1.2108e+06 min
Histogram: 1 0 0 0 0 0 0 0 0 0

Total # of neighbors = 1210805
Ave neighs/atom = 61.6123
Neighbor list builds = 495
Dangerous builds not checked
Setting up Verlet run ...
  Unit style    : metal
  Current step  : 70495
  Time step     : 0.001
Per MPI rank memory allocation (min/avg/max) = 18.21 | 18.21 | 18.21 Mbytes
Step Temp Press TotEng PotEng Enthalpy 
   70495      1669.77     281.9441   -56108.302    -60349.67   -56036.389 
   72000    1646.5446    459.24716   -56237.053   -60419.426     -56120.2 
Loop time of 166.352 on 1 procs for 1505 steps with 19652 atoms

Performance: 0.782 ns/day, 30.704 hours/ns, 9.047 timesteps/s
99.9% CPU use with 1 MPI tasks x no OpenMP threads

MPI task timing breakdown:
Section |  min time  |  avg time  |  max time  |%varavg| %total
---------------------------------------------------------------
Pair    | 86.259     | 86.259     | 86.259     |   0.0 | 51.85
Neigh   | 76.644     | 76.644     | 76.644     |   0.0 | 46.07
Comm    | 1.2636     | 1.2636     | 1.2636     |   0.0 |  0.76
Output  | 0.070228   | 0.070228   | 0.070228   |   0.0 |  0.04
Modify  | 1.6319     | 1.6319     | 1.6319     |   0.0 |  0.98
Other   |            | 0.483      |            |       |  0.29

Nlocal:    19652 ave 19652 max 19652 min
Histogram: 1 0 0 0 0 0 0 0 0 0
Nghost:    16810 ave 16810 max 16810 min
Histogram: 1 0 0 0 0 0 0 0 0 0
Neighs:    1.21366e+06 ave 1.21366e+06 max 1.21366e+06 min
Histogram: 1 0 0 0 0 0 0 0 0 0

Total # of neighbors = 1213658
Ave neighs/atom = 61.7575
Neighbor list builds = 1505
Dangerous builds not checked
Setting up Verlet run ...
  Unit style    : metal
  Current step  : 72000
  Time step     : 0.001
Per MPI rank memory allocation (min/avg/max) = 18.21 | 18.21 | 18.21 Mbytes
Step Temp Press TotEng PotEng Enthalpy 
   72000    1646.5446    459.24716   -56237.053   -60419.426     -56120.2 
   72495    1614.9705    488.59068    -56413.61   -60515.782   -56289.713 
Loop time of 50.6681 on 1 procs for 495 steps with 19652 atoms

Performance: 0.844 ns/day, 28.433 hours/ns, 9.769 timesteps/s
99.9% CPU use with 1 MPI tasks x no OpenMP threads

MPI task timing breakdown:
Section |  min time  |  avg time  |  max time  |%varavg| %total
---------------------------------------------------------------
Pair    | 25.956     | 25.956     | 25.956     |   0.0 | 51.23
Neigh   | 23.681     | 23.681     | 23.681     |   0.0 | 46.74
Comm    | 0.38417    | 0.38417    | 0.38417    |   0.0 |  0.76
Output  | 0.00013781 | 0.00013781 | 0.00013781 |   0.0 |  0.00
Modify  | 0.49862    | 0.49862    | 0.49862    |   0.0 |  0.98
Other   |            | 0.1489     |            |       |  0.29

Nlocal:    19652 ave 19652 max 19652 min
Histogram: 1 0 0 0 0 0 0 0 0 0
Nghost:    16843 ave 16843 max 16843 min
Histogram: 1 0 0 0 0 0 0 0 0 0
Neighs:    1.21765e+06 ave 1.21765e+06 max 1.21765e+06 min
Histogram: 1 0 0 0 0 0 0 0 0 0

Total # of neighbors = 1217654
Ave neighs/atom = 61.9608
Neighbor list builds = 495
Dangerous builds not checked
Setting up Verlet run ...
  Unit style    : metal
  Current step  : 72495
  Time step     : 0.001
Per MPI rank memory allocation (min/avg/max) = 18.21 | 18.21 | 18.21 Mbytes
Step Temp Press TotEng PotEng Enthalpy 
   72495    1614.9705    488.59068    -56413.61   -60515.782   -56289.713 
   74000    1584.5242   -427.04366   -56525.493   -60550.329   -56633.762 
Loop time of 161.086 on 1 procs for 1505 steps with 19652 atoms

Performance: 0.807 ns/day, 29.732 hours/ns, 9.343 timesteps/s
99.5% CPU use with 1 MPI tasks x no OpenMP threads

MPI task timing breakdown:
Section |  min time  |  avg time  |  max time  |%varavg| %total
---------------------------------------------------------------
Pair    | 82.829     | 82.829     | 82.829     |   0.0 | 51.42
Neigh   | 74.685     | 74.685     | 74.685     |   0.0 | 46.36
Comm    | 1.2222     | 1.2222     | 1.2222     |   0.0 |  0.76
Output  | 0.29012    | 0.29012    | 0.29012    |   0.0 |  0.18
Modify  | 1.5908     | 1.5908     | 1.5908     |   0.0 |  0.99
Other   |            | 0.4677     |            |       |  0.29

Nlocal:    19652 ave 19652 max 19652 min
Histogram: 1 0 0 0 0 0 0 0 0 0
Nghost:    16841 ave 16841 max 16841 min
Histogram: 1 0 0 0 0 0 0 0 0 0
Neighs:    1.21836e+06 ave 1.21836e+06 max 1.21836e+06 min
Histogram: 1 0 0 0 0 0 0 0 0 0

Total # of neighbors = 1218360
Ave neighs/atom = 61.9967
Neighbor list builds = 1505
Dangerous builds not checked
Setting up Verlet run ...
  Unit style    : metal
  Current step  : 74000
  Time step     : 0.001
Per MPI rank memory allocation (min/avg/max) = 18.21 | 18.21 | 18.21 Mbytes
Step Temp Press TotEng PotEng Enthalpy 
   74000    1584.5242   -427.04366   -56525.493   -60550.329   -56633.762 
   74495    1563.2516   -382.28302   -56699.689    -60670.49    -56796.22 
Loop time of 47.8843 on 1 procs for 495 steps with 19652 atoms

Performance: 0.893 ns/day, 26.871 hours/ns, 10.337 timesteps/s
100.0% CPU use with 1 MPI tasks x no OpenMP threads

MPI task timing breakdown:
Section |  min time  |  avg time  |  max time  |%varavg| %total
---------------------------------------------------------------
Pair    | 24.344     | 24.344     | 24.344     |   0.0 | 50.84
Neigh   | 22.566     | 22.566     | 22.566     |   0.0 | 47.13
Comm    | 0.35883    | 0.35883    | 0.35883    |   0.0 |  0.75
Output  | 0.00012398 | 0.00012398 | 0.00012398 |   0.0 |  0.00
Modify  | 0.47084    | 0.47084    | 0.47084    |   0.0 |  0.98
Other   |            | 0.1446     |            |       |  0.30

Nlocal:    19652 ave 19652 max 19652 min
Histogram: 1 0 0 0 0 0 0 0 0 0
Nghost:    16981 ave 16981 max 16981 min
Histogram: 1 0 0 0 0 0 0 0 0 0
Neighs:    1.22361e+06 ave 1.22361e+06 max 1.22361e+06 min
Histogram: 1 0 0 0 0 0 0 0 0 0

Total # of neighbors = 1223614
Ave neighs/atom = 62.2641
Neighbor list builds = 495
Dangerous builds not checked
Setting up Verlet run ...
  Unit style    : metal
  Current step  : 74495
  Time step     : 0.001
Per MPI rank memory allocation (min/avg/max) = 18.21 | 18.21 | 18.21 Mbytes
Step Temp Press TotEng PotEng Enthalpy 
   74495    1563.2516   -382.28302   -56699.689    -60670.49    -56796.22 
   76000    1546.7908    1827.0344   -56816.407   -60745.396   -56358.058 
Loop time of 164.695 on 1 procs for 1505 steps with 19652 atoms

Performance: 0.790 ns/day, 30.398 hours/ns, 9.138 timesteps/s
99.9% CPU use with 1 MPI tasks x no OpenMP threads

MPI task timing breakdown:
Section |  min time  |  avg time  |  max time  |%varavg| %total
---------------------------------------------------------------
Pair    | 84.576     | 84.576     | 84.576     |   0.0 | 51.35
Neigh   | 76.522     | 76.522     | 76.522     |   0.0 | 46.46
Comm    | 1.2325     | 1.2325     | 1.2325     |   0.0 |  0.75
Output  | 0.23963    | 0.23963    | 0.23963    |   0.0 |  0.15
Modify  | 1.6368     | 1.6368     | 1.6368     |   0.0 |  0.99
Other   |            | 0.4891     |            |       |  0.30

Nlocal:    19652 ave 19652 max 19652 min
Histogram: 1 0 0 0 0 0 0 0 0 0
Nghost:    16994 ave 16994 max 16994 min
Histogram: 1 0 0 0 0 0 0 0 0 0
Neighs:    1.23146e+06 ave 1.23146e+06 max 1.23146e+06 min
Histogram: 1 0 0 0 0 0 0 0 0 0

Total # of neighbors = 1231462
Ave neighs/atom = 62.6634
Neighbor list builds = 1505
Dangerous builds not checked
Setting up Verlet run ...
  Unit style    : metal
  Current step  : 76000
  Time step     : 0.001
Per MPI rank memory allocation (min/avg/max) = 18.21 | 18.21 | 18.21 Mbytes
Step Temp Press TotEng PotEng Enthalpy 
   76000    1546.7908    1827.0344   -56816.407   -60745.396   -56358.058 
   76495    1526.9421    609.88217    -56973.98   -60852.552   -56821.263 
Loop time of 51.5178 on 1 procs for 495 steps with 19652 atoms

Performance: 0.830 ns/day, 28.910 hours/ns, 9.608 timesteps/s
100.0% CPU use with 1 MPI tasks x no OpenMP threads

MPI task timing breakdown:
Section |  min time  |  avg time  |  max time  |%varavg| %total
---------------------------------------------------------------
Pair    | 26.41      | 26.41      | 26.41      |   0.0 | 51.26
Neigh   | 24.051     | 24.051     | 24.051     |   0.0 | 46.68
Comm    | 0.38588    | 0.38588    | 0.38588    |   0.0 |  0.75
Output  | 0.0001359  | 0.0001359  | 0.0001359  |   0.0 |  0.00
Modify  | 0.51715    | 0.51715    | 0.51715    |   0.0 |  1.00
Other   |            | 0.1542     |            |       |  0.30

Nlocal:    19652 ave 19652 max 19652 min
Histogram: 1 0 0 0 0 0 0 0 0 0
Nghost:    16994 ave 16994 max 16994 min
Histogram: 1 0 0 0 0 0 0 0 0 0
Neighs:    1.2338e+06 ave 1.2338e+06 max 1.2338e+06 min
Histogram: 1 0 0 0 0 0 0 0 0 0

Total # of neighbors = 1233803
Ave neighs/atom = 62.7826
Neighbor list builds = 495
Dangerous builds not checked
Setting up Verlet run ...
  Unit style    : metal
  Current step  : 76495
  Time step     : 0.001
Per MPI rank memory allocation (min/avg/max) = 18.21 | 18.21 | 18.21 Mbytes
Step Temp Press TotEng PotEng Enthalpy 
   76495    1526.9421    609.88217    -56973.98   -60852.552   -56821.263 
   78000    1500.1423   -239.28262   -57065.874   -60876.372   -57125.814 
Loop time of 165.883 on 1 procs for 1505 steps with 19652 atoms

Performance: 0.784 ns/day, 30.617 hours/ns, 9.073 timesteps/s
99.9% CPU use with 1 MPI tasks x no OpenMP threads

MPI task timing breakdown:
Section |  min time  |  avg time  |  max time  |%varavg| %total
---------------------------------------------------------------
Pair    | 85.493     | 85.493     | 85.493     |   0.0 | 51.54
Neigh   | 76.751     | 76.751     | 76.751     |   0.0 | 46.27
Comm    | 1.2464     | 1.2464     | 1.2464     |   0.0 |  0.75
Output  | 0.25181    | 0.25181    | 0.25181    |   0.0 |  0.15
Modify  | 1.6465     | 1.6465     | 1.6465     |   0.0 |  0.99
Other   |            | 0.4936     |            |       |  0.30

Nlocal:    19652 ave 19652 max 19652 min
Histogram: 1 0 0 0 0 0 0 0 0 0
Nghost:    16973 ave 16973 max 16973 min
Histogram: 1 0 0 0 0 0 0 0 0 0
Neighs:    1.2334e+06 ave 1.2334e+06 max 1.2334e+06 min
Histogram: 1 0 0 0 0 0 0 0 0 0

Total # of neighbors = 1233400
Ave neighs/atom = 62.7621
Neighbor list builds = 1505
Dangerous builds not checked
Setting up Verlet run ...
  Unit style    : metal
  Current step  : 78000
  Time step     : 0.001
Per MPI rank memory allocation (min/avg/max) = 18.21 | 18.21 | 18.21 Mbytes
Step Temp Press TotEng PotEng Enthalpy 
   78000    1500.1423   -239.28262   -57065.874   -60876.372   -57125.814 
   78495    1470.6908    109.47022   -57281.845   -61017.534   -57254.557 
Loop time of 51.1816 on 1 procs for 495 steps with 19652 atoms

Performance: 0.836 ns/day, 28.721 hours/ns, 9.671 timesteps/s
99.9% CPU use with 1 MPI tasks x no OpenMP threads

MPI task timing breakdown:
Section |  min time  |  avg time  |  max time  |%varavg| %total
---------------------------------------------------------------
Pair    | 26.294     | 26.294     | 26.294     |   0.0 | 51.37
Neigh   | 23.837     | 23.837     | 23.837     |   0.0 | 46.57
Comm    | 0.38386    | 0.38386    | 0.38386    |   0.0 |  0.75
Output  | 0.0001471  | 0.0001471  | 0.0001471  |   0.0 |  0.00
Modify  | 0.51148    | 0.51148    | 0.51148    |   0.0 |  1.00
Other   |            | 0.1548     |            |       |  0.30

Nlocal:    19652 ave 19652 max 19652 min
Histogram: 1 0 0 0 0 0 0 0 0 0
Nghost:    17050 ave 17050 max 17050 min
Histogram: 1 0 0 0 0 0 0 0 0 0
Neighs:    1.23975e+06 ave 1.23975e+06 max 1.23975e+06 min
Histogram: 1 0 0 0 0 0 0 0 0 0

Total # of neighbors = 1239750
Ave neighs/atom = 63.0852
Neighbor list builds = 495
Dangerous builds not checked
Setting up Verlet run ...
  Unit style    : metal
  Current step  : 78495
  Time step     : 0.001
Per MPI rank memory allocation (min/avg/max) = 18.21 | 18.21 | 18.21 Mbytes
Step Temp Press TotEng PotEng Enthalpy 
   78495    1470.6908    109.47022   -57281.845   -61017.534   -57254.557 
   80000    1454.4411   -1071.8538   -57344.904   -61039.316   -57612.189 
Loop time of 162.072 on 1 procs for 1505 steps with 19652 atoms

Performance: 0.802 ns/day, 29.914 hours/ns, 9.286 timesteps/s
99.8% CPU use with 1 MPI tasks x no OpenMP threads

MPI task timing breakdown:
Section |  min time  |  avg time  |  max time  |%varavg| %total
---------------------------------------------------------------
Pair    | 83.541     | 83.541     | 83.541     |   0.0 | 51.55
Neigh   | 75.063     | 75.063     | 75.063     |   0.0 | 46.31
Comm    | 1.2197     | 1.2197     | 1.2197     |   0.0 |  0.75
Output  | 0.15859    | 0.15859    | 0.15859    |   0.0 |  0.10
Modify  | 1.604      | 1.604      | 1.604      |   0.0 |  0.99
Other   |            | 0.4864     |            |       |  0.30

Nlocal:    19652 ave 19652 max 19652 min
Histogram: 1 0 0 0 0 0 0 0 0 0
Nghost:    16971 ave 16971 max 16971 min
Histogram: 1 0 0 0 0 0 0 0 0 0
Neighs:    1.23992e+06 ave 1.23992e+06 max 1.23992e+06 min
Histogram: 1 0 0 0 0 0 0 0 0 0

Total # of neighbors = 1239921
Ave neighs/atom = 63.0939
Neighbor list builds = 1505
Dangerous builds not checked
Setting up Verlet run ...
  Unit style    : metal
  Current step  : 80000
  Time step     : 0.001
Per MPI rank memory allocation (min/avg/max) = 18.21 | 18.21 | 18.21 Mbytes
Step Temp Press TotEng PotEng Enthalpy 
   80000    1454.4411   -1071.8538   -57344.904   -61039.316   -57612.189 
   80495    1411.1355   -407.55222   -57590.469   -61174.881   -57691.536 
Loop time of 50.6313 on 1 procs for 495 steps with 19652 atoms

Performance: 0.845 ns/day, 28.413 hours/ns, 9.777 timesteps/s
100.0% CPU use with 1 MPI tasks x no OpenMP threads

MPI task timing breakdown:
Section |  min time  |  avg time  |  max time  |%varavg| %total
---------------------------------------------------------------
Pair    | 26.014     | 26.014     | 26.014     |   0.0 | 51.38
Neigh   | 23.595     | 23.595     | 23.595     |   0.0 | 46.60
Comm    | 0.37327    | 0.37327    | 0.37327    |   0.0 |  0.74
Output  | 0.00011396 | 0.00011396 | 0.00011396 |   0.0 |  0.00
Modify  | 0.49839    | 0.49839    | 0.49839    |   0.0 |  0.98
Other   |            | 0.1505     |            |       |  0.30

Nlocal:    19652 ave 19652 max 19652 min
Histogram: 1 0 0 0 0 0 0 0 0 0
Nghost:    17048 ave 17048 max 17048 min
Histogram: 1 0 0 0 0 0 0 0 0 0
Neighs:    1.24676e+06 ave 1.24676e+06 max 1.24676e+06 min
Histogram: 1 0 0 0 0 0 0 0 0 0

Total # of neighbors = 1246762
Ave neighs/atom = 63.442
Neighbor list builds = 495
Dangerous builds not checked
Setting up Verlet run ...
  Unit style    : metal
  Current step  : 80495
  Time step     : 0.001
Per MPI rank memory allocation (min/avg/max) = 18.21 | 18.21 | 18.21 Mbytes
Step Temp Press TotEng PotEng Enthalpy 
   80495    1411.1355   -407.55222   -57590.469   -61174.881   -57691.536 
   82000     1399.065    339.34856   -57679.747   -61233.499   -57595.852 
Loop time of 164.831 on 1 procs for 1505 steps with 19652 atoms

Performance: 0.789 ns/day, 30.423 hours/ns, 9.131 timesteps/s
99.8% CPU use with 1 MPI tasks x no OpenMP threads

MPI task timing breakdown:
Section |  min time  |  avg time  |  max time  |%varavg| %total
---------------------------------------------------------------
Pair    | 85.131     | 85.131     | 85.131     |   0.0 | 51.65
Neigh   | 76.011     | 76.011     | 76.011     |   0.0 | 46.11
Comm    | 1.2316     | 1.2316     | 1.2316     |   0.0 |  0.75
Output  | 0.32232    | 0.32232    | 0.32232    |   0.0 |  0.20
Modify  | 1.6443     | 1.6443     | 1.6443     |   0.0 |  1.00
Other   |            | 0.4917     |            |       |  0.30

Nlocal:    19652 ave 19652 max 19652 min
Histogram: 1 0 0 0 0 0 0 0 0 0
Nghost:    17088 ave 17088 max 17088 min
Histogram: 1 0 0 0 0 0 0 0 0 0
Neighs:    1.25053e+06 ave 1.25053e+06 max 1.25053e+06 min
Histogram: 1 0 0 0 0 0 0 0 0 0

Total # of neighbors = 1250526
Ave neighs/atom = 63.6335
Neighbor list builds = 1505
Dangerous builds not checked
Setting up Verlet run ...
  Unit style    : metal
  Current step  : 82000
  Time step     : 0.001
Per MPI rank memory allocation (min/avg/max) = 18.21 | 18.21 | 18.21 Mbytes
Step Temp Press TotEng PotEng Enthalpy 
   82000     1399.065    339.34856   -57679.747   -61233.499   -57595.852 
   82495    1360.9418    1123.7139   -57860.914   -61317.831   -57584.466 
Loop time of 51.5305 on 1 procs for 495 steps with 19652 atoms

Performance: 0.830 ns/day, 28.917 hours/ns, 9.606 timesteps/s
99.9% CPU use with 1 MPI tasks x no OpenMP threads

MPI task timing breakdown:
Section |  min time  |  avg time  |  max time  |%varavg| %total
---------------------------------------------------------------
Pair    | 26.574     | 26.574     | 26.574     |   0.0 | 51.57
Neigh   | 23.907     | 23.907     | 23.907     |   0.0 | 46.39
Comm    | 0.38081    | 0.38081    | 0.38081    |   0.0 |  0.74
Output  | 0.00013399 | 0.00013399 | 0.00013399 |   0.0 |  0.00
Modify  | 0.51271    | 0.51271    | 0.51271    |   0.0 |  0.99
Other   |            | 0.1554     |            |       |  0.30

Nlocal:    19652 ave 19652 max 19652 min
Histogram: 1 0 0 0 0 0 0 0 0 0
Nghost:    17055 ave 17055 max 17055 min
Histogram: 1 0 0 0 0 0 0 0 0 0
Neighs:    1.25658e+06 ave 1.25658e+06 max 1.25658e+06 min
Histogram: 1 0 0 0 0 0 0 0 0 0

Total # of neighbors = 1256584
Ave neighs/atom = 63.9418
Neighbor list builds = 495
Dangerous builds not checked
Setting up Verlet run ...
  Unit style    : metal
  Current step  : 82495
  Time step     : 0.001
Per MPI rank memory allocation (min/avg/max) = 18.21 | 18.21 | 18.21 Mbytes
Step Temp Press TotEng PotEng Enthalpy 
   82495    1360.9418    1123.7139   -57860.914   -61317.831   -57584.466 
   84000    1347.5401    -786.7083   -57964.846    -61387.72   -58158.702 
Loop time of 162.027 on 1 procs for 1505 steps with 19652 atoms

Performance: 0.803 ns/day, 29.905 hours/ns, 9.289 timesteps/s
99.8% CPU use with 1 MPI tasks x no OpenMP threads

MPI task timing breakdown:
Section |  min time  |  avg time  |  max time  |%varavg| %total
---------------------------------------------------------------
Pair    | 83.824     | 83.824     | 83.824     |   0.0 | 51.73
Neigh   | 74.76      | 74.76      | 74.76      |   0.0 | 46.14
Comm    | 1.2054     | 1.2054     | 1.2054     |   0.0 |  0.74
Output  | 0.17766    | 0.17766    | 0.17766    |   0.0 |  0.11
Modify  | 1.5789     | 1.5789     | 1.5789     |   0.0 |  0.97
Other   |            | 0.4807     |            |       |  0.30

Nlocal:    19652 ave 19652 max 19652 min
Histogram: 1 0 0 0 0 0 0 0 0 0
Nghost:    17070 ave 17070 max 17070 min
Histogram: 1 0 0 0 0 0 0 0 0 0
Neighs:    1.25513e+06 ave 1.25513e+06 max 1.25513e+06 min
Histogram: 1 0 0 0 0 0 0 0 0 0

Total # of neighbors = 1255131
Ave neighs/atom = 63.8679
Neighbor list builds = 1505
Dangerous builds not checked
Setting up Verlet run ...
  Unit style    : metal
  Current step  : 84000
  Time step     : 0.001
Per MPI rank memory allocation (min/avg/max) = 18.21 | 18.21 | 18.21 Mbytes
Step Temp Press TotEng PotEng Enthalpy 
   84000    1347.5401    -786.7083   -57964.846    -61387.72   -58158.702 
   84495    1313.0206   -389.28239   -58173.544   -61508.736   -58268.959 
Loop time of 56.424 on 1 procs for 495 steps with 19652 atoms

Performance: 0.758 ns/day, 31.663 hours/ns, 8.773 timesteps/s
99.9% CPU use with 1 MPI tasks x no OpenMP threads

MPI task timing breakdown:
Section |  min time  |  avg time  |  max time  |%varavg| %total
---------------------------------------------------------------
Pair    | 29.423     | 29.423     | 29.423     |   0.0 | 52.15
Neigh   | 25.851     | 25.851     | 25.851     |   0.0 | 45.82
Comm    | 0.41746    | 0.41746    | 0.41746    |   0.0 |  0.74
Output  | 0.00016785 | 0.00016785 | 0.00016785 |   0.0 |  0.00
Modify  | 0.56517    | 0.56517    | 0.56517    |   0.0 |  1.00
Other   |            | 0.1667     |            |       |  0.30

Nlocal:    19652 ave 19652 max 19652 min
Histogram: 1 0 0 0 0 0 0 0 0 0
Nghost:    17136 ave 17136 max 17136 min
Histogram: 1 0 0 0 0 0 0 0 0 0
Neighs:    1.26194e+06 ave 1.26194e+06 max 1.26194e+06 min
Histogram: 1 0 0 0 0 0 0 0 0 0

Total # of neighbors = 1261936
Ave neighs/atom = 64.2141
Neighbor list builds = 495
Dangerous builds not checked
Setting up Verlet run ...
  Unit style    : metal
  Current step  : 84495
  Time step     : 0.001
Per MPI rank memory allocation (min/avg/max) = 18.21 | 18.21 | 18.21 Mbytes
Step Temp Press TotEng PotEng Enthalpy 
   84495    1313.0206   -389.28239   -58173.544   -61508.736   -58268.959 
   86000    1294.5108    45.072241   -58283.521   -61571.696    -58272.51 
Loop time of 156.04 on 1 procs for 1505 steps with 19652 atoms

Performance: 0.833 ns/day, 28.800 hours/ns, 9.645 timesteps/s
100.0% CPU use with 1 MPI tasks x no OpenMP threads

MPI task timing breakdown:
Section |  min time  |  avg time  |  max time  |%varavg| %total
---------------------------------------------------------------
Pair    | 80.713     | 80.713     | 80.713     |   0.0 | 51.73
Neigh   | 72.1       | 72.1       | 72.1       |   0.0 | 46.21
Comm    | 1.1627     | 1.1627     | 1.1627     |   0.0 |  0.75
Output  | 0.086038   | 0.086038   | 0.086038   |   0.0 |  0.06
Modify  | 1.5115     | 1.5115     | 1.5115     |   0.0 |  0.97
Other   |            | 0.4665     |            |       |  0.30

Nlocal:    19652 ave 19652 max 19652 min
Histogram: 1 0 0 0 0 0 0 0 0 0
Nghost:    17127 ave 17127 max 17127 min
Histogram: 1 0 0 0 0 0 0 0 0 0
Neighs:    1.26634e+06 ave 1.26634e+06 max 1.26634e+06 min
Histogram: 1 0 0 0 0 0 0 0 0 0

Total # of neighbors = 1266337
Ave neighs/atom = 64.4381
Neighbor list builds = 1505
Dangerous builds not checked
Setting up Verlet run ...
  Unit style    : metal
  Current step  : 86000
  Time step     : 0.001
Per MPI rank memory allocation (min/avg/max) = 18.21 | 18.21 | 18.21 Mbytes
Step Temp Press TotEng PotEng Enthalpy 
   86000    1294.5108    45.072241   -58283.521   -61571.696    -58272.51 
   86495     1264.175     75.73133    -58482.97    -61694.09   -58464.546 
Loop time of 50.0563 on 1 procs for 495 steps with 19652 atoms

Performance: 0.854 ns/day, 28.090 hours/ns, 9.889 timesteps/s
99.8% CPU use with 1 MPI tasks x no OpenMP threads

MPI task timing breakdown:
Section |  min time  |  avg time  |  max time  |%varavg| %total
---------------------------------------------------------------
Pair    | 25.842     | 25.842     | 25.842     |   0.0 | 51.63
Neigh   | 23.204     | 23.204     | 23.204     |   0.0 | 46.36
Comm    | 0.36985    | 0.36985    | 0.36985    |   0.0 |  0.74
Output  | 0.00012207 | 0.00012207 | 0.00012207 |   0.0 |  0.00
Modify  | 0.48887    | 0.48887    | 0.48887    |   0.0 |  0.98
Other   |            | 0.1509     |            |       |  0.30

Nlocal:    19652 ave 19652 max 19652 min
Histogram: 1 0 0 0 0 0 0 0 0 0
Nghost:    17146 ave 17146 max 17146 min
Histogram: 1 0 0 0 0 0 0 0 0 0
Neighs:    1.27197e+06 ave 1.27197e+06 max 1.27197e+06 min
Histogram: 1 0 0 0 0 0 0 0 0 0

Total # of neighbors = 1271968
Ave neighs/atom = 64.7246
Neighbor list builds = 495
Dangerous builds not checked
Setting up Verlet run ...
  Unit style    : metal
  Current step  : 86495
  Time step     : 0.001
Per MPI rank memory allocation (min/avg/max) = 18.21 | 18.21 | 18.21 Mbytes
Step Temp Press TotEng PotEng Enthalpy 
   86495     1264.175     75.73133    -58482.97    -61694.09   -58464.546 
   88000     1247.603    725.59705   -58623.802   -61792.828    -58448.01 
Loop time of 156.717 on 1 procs for 1505 steps with 19652 atoms

Performance: 0.830 ns/day, 28.925 hours/ns, 9.603 timesteps/s
99.9% CPU use with 1 MPI tasks x no OpenMP threads

MPI task timing breakdown:
Section |  min time  |  avg time  |  max time  |%varavg| %total
---------------------------------------------------------------
Pair    | 81.136     | 81.136     | 81.136     |   0.0 | 51.77
Neigh   | 72.307     | 72.307     | 72.307     |   0.0 | 46.14
Comm    | 1.1567     | 1.1567     | 1.1567     |   0.0 |  0.74
Output  | 0.12497    | 0.12497    | 0.12497    |   0.0 |  0.08
Modify  | 1.5201     | 1.5201     | 1.5201     |   0.0 |  0.97
Other   |            | 0.4718     |            |       |  0.30

Nlocal:    19652 ave 19652 max 19652 min
Histogram: 1 0 0 0 0 0 0 0 0 0
Nghost:    17163 ave 17163 max 17163 min
Histogram: 1 0 0 0 0 0 0 0 0 0
Neighs:    1.27802e+06 ave 1.27802e+06 max 1.27802e+06 min
Histogram: 1 0 0 0 0 0 0 0 0 0

Total # of neighbors = 1278025
Ave neighs/atom = 65.0328
Neighbor list builds = 1505
Dangerous builds not checked
Setting up Verlet run ...
  Unit style    : metal
  Current step  : 88000
  Time step     : 0.001
Per MPI rank memory allocation (min/avg/max) = 18.21 | 18.21 | 18.21 Mbytes
Step Temp Press TotEng PotEng Enthalpy 
   88000     1247.603    725.59705   -58623.802   -61792.828    -58448.01 
   88495    1218.2648     673.1035   -58804.663   -61899.167   -58642.157 
Loop time of 55.225 on 1 procs for 495 steps with 19652 atoms

Performance: 0.774 ns/day, 30.990 hours/ns, 8.963 timesteps/s
99.8% CPU use with 1 MPI tasks x no OpenMP threads

MPI task timing breakdown:
Section |  min time  |  avg time  |  max time  |%varavg| %total
---------------------------------------------------------------
Pair    | 28.808     | 28.808     | 28.808     |   0.0 | 52.16
Neigh   | 25.289     | 25.289     | 25.289     |   0.0 | 45.79
Comm    | 0.41008    | 0.41008    | 0.41008    |   0.0 |  0.74
Output  | 0.00014091 | 0.00014091 | 0.00014091 |   0.0 |  0.00
Modify  | 0.55217    | 0.55217    | 0.55217    |   0.0 |  1.00
Other   |            | 0.1658     |            |       |  0.30

Nlocal:    19652 ave 19652 max 19652 min
Histogram: 1 0 0 0 0 0 0 0 0 0
Nghost:    17174 ave 17174 max 17174 min
Histogram: 1 0 0 0 0 0 0 0 0 0
Neighs:    1.28189e+06 ave 1.28189e+06 max 1.28189e+06 min
Histogram: 1 0 0 0 0 0 0 0 0 0

Total # of neighbors = 1281888
Ave neighs/atom = 65.2294
Neighbor list builds = 495
Dangerous builds not checked
Setting up Verlet run ...
  Unit style    : metal
  Current step  : 88495
  Time step     : 0.001
Per MPI rank memory allocation (min/avg/max) = 18.21 | 18.21 | 18.21 Mbytes
Step Temp Press TotEng PotEng Enthalpy 
   88495    1218.2648     673.1035   -58804.663   -61899.167   -58642.157 
   90000    1201.2946   -697.88689   -58913.678   -61965.076   -59082.171 
Loop time of 162.723 on 1 procs for 1505 steps with 19652 atoms

Performance: 0.799 ns/day, 30.034 hours/ns, 9.249 timesteps/s
100.0% CPU use with 1 MPI tasks x no OpenMP threads

MPI task timing breakdown:
Section |  min time  |  avg time  |  max time  |%varavg| %total
---------------------------------------------------------------
Pair    | 84.938     | 84.938     | 84.938     |   0.0 | 52.20
Neigh   | 74.401     | 74.401     | 74.401     |   0.0 | 45.72
Comm    | 1.208      | 1.208      | 1.208      |   0.0 |  0.74
Output  | 0.11171    | 0.11171    | 0.11171    |   0.0 |  0.07
Modify  | 1.5812     | 1.5812     | 1.5812     |   0.0 |  0.97
Other   |            | 0.4835     |            |       |  0.30

Nlocal:    19652 ave 19652 max 19652 min
Histogram: 1 0 0 0 0 0 0 0 0 0
Nghost:    17237 ave 17237 max 17237 min
Histogram: 1 0 0 0 0 0 0 0 0 0
Neighs:    1.28274e+06 ave 1.28274e+06 max 1.28274e+06 min
Histogram: 1 0 0 0 0 0 0 0 0 0

Total # of neighbors = 1282740
Ave neighs/atom = 65.2727
Neighbor list builds = 1505
Dangerous builds not checked
Setting up Verlet run ...
  Unit style    : metal
  Current step  : 90000
  Time step     : 0.001
Per MPI rank memory allocation (min/avg/max) = 18.21 | 18.21 | 18.21 Mbytes
Step Temp Press TotEng PotEng Enthalpy 
   90000    1201.2946   -697.88689   -58913.678   -61965.076   -59082.171 
   90495    1170.2791   -124.07636   -59110.565   -62083.181   -59140.367 
Loop time of 54.9462 on 1 procs for 495 steps with 19652 atoms

Performance: 0.778 ns/day, 30.834 hours/ns, 9.009 timesteps/s
100.0% CPU use with 1 MPI tasks x no OpenMP threads

MPI task timing breakdown:
Section |  min time  |  avg time  |  max time  |%varavg| %total
---------------------------------------------------------------
Pair    | 28.717     | 28.717     | 28.717     |   0.0 | 52.26
Neigh   | 25.11      | 25.11      | 25.11      |   0.0 | 45.70
Comm    | 0.40862    | 0.40862    | 0.40862    |   0.0 |  0.74
Output  | 0.00013113 | 0.00013113 | 0.00013113 |   0.0 |  0.00
Modify  | 0.54648    | 0.54648    | 0.54648    |   0.0 |  0.99
Other   |            | 0.1639     |            |       |  0.30

[...]
Setting up Verlet run ...
  Unit style    : metal
  Current step  : 120000
  Time step     : 0.001
Per MPI rank memory allocation (min/avg/max) = 18.21 | 18.21 | 18.21 Mbytes
Step Temp Press TotEng PotEng Enthalpy 
  120000     450.1461    242.94313   -63959.476   -65102.888   -63906.898 
  120495     421.1099    257.57886   -64119.063   -65188.721   -64063.479 
Loop time of 60.0311 on 1 procs for 495 steps with 19652 atoms

Performance: 0.712 ns/day, 33.687 hours/ns, 8.246 timesteps/s
100.0% CPU use with 1 MPI tasks x no OpenMP threads

MPI task timing breakdown:
Section |  min time  |  avg time  |  max time  |%varavg| %total
---------------------------------------------------------------
Pair    | 31.563     | 31.563     | 31.563     |   0.0 | 52.58
Neigh   | 27.3       | 27.3       | 27.3       |   0.0 | 45.48
Comm    | 0.43222    | 0.43222    | 0.43222    |   0.0 |  0.72
Output  | 0.00013304 | 0.00013304 | 0.00013304 |   0.0 |  0.00
Modify  | 0.57009    | 0.57009    | 0.57009    |   0.0 |  0.95
Other   |            | 0.165      |            |       |  0.27

Nlocal:    19652 ave 19652 max 19652 min
Histogram: 1 0 0 0 0 0 0 0 0 0
Nghost:    17981 ave 17981 max 17981 min
Histogram: 1 0 0 0 0 0 0 0 0 0
Neighs:    1.43988e+06 ave 1.43988e+06 max 1.43988e+06 min
Histogram: 1 0 0 0 0 0 0 0 0 0

Total # of neighbors = 1439877
Ave neighs/atom = 73.2687
Neighbor list builds = 495
Dangerous builds not checked
Setting up Verlet run ...
  Unit style    : metal
  Current step  : 120495
  Time step     : 0.001
Per MPI rank memory allocation (min/avg/max) = 18.21 | 18.21 | 18.21 Mbytes
Step Temp Press TotEng PotEng Enthalpy 
  120495     421.1099    257.57886   -64119.063   -65188.721   -64063.479 
  122000    399.12142     229.6241   -64273.392   -65287.197   -64223.998 
Loop time of 184.35 on 1 procs for 1505 steps with 19652 atoms

Performance: 0.705 ns/day, 34.025 hours/ns, 8.164 timesteps/s
99.9% CPU use with 1 MPI tasks x no OpenMP threads

MPI task timing breakdown:
Section |  min time  |  avg time  |  max time  |%varavg| %total
---------------------------------------------------------------
Pair    | 96.948     | 96.948     | 96.948     |   0.0 | 52.59
Neigh   | 83.746     | 83.746     | 83.746     |   0.0 | 45.43
Comm    | 1.3397     | 1.3397     | 1.3397     |   0.0 |  0.73
Output  | 0.067359   | 0.067359   | 0.067359   |   0.0 |  0.04
Modify  | 1.7455     | 1.7455     | 1.7455     |   0.0 |  0.95
Other   |            | 0.5036     |            |       |  0.27

Nlocal:    19652 ave 19652 max 19652 min
Histogram: 1 0 0 0 0 0 0 0 0 0
Nghost:    18070 ave 18070 max 18070 min
Histogram: 1 0 0 0 0 0 0 0 0 0
Neighs:    1.44413e+06 ave 1.44413e+06 max 1.44413e+06 min
Histogram: 1 0 0 0 0 0 0 0 0 0

Total # of neighbors = 1444130
Ave neighs/atom = 73.4851
Neighbor list builds = 1505
Dangerous builds not checked
Setting up Verlet run ...
  Unit style    : metal
  Current step  : 122000
  Time step     : 0.001
Per MPI rank memory allocation (min/avg/max) = 18.21 | 18.21 | 18.21 Mbytes
Step Temp Press TotEng PotEng Enthalpy 
  122000    399.12142     229.6241   -64273.392   -65287.197   -64223.998 
  122495    373.53955     243.2132    -64441.17   -65389.994   -64389.022 
Loop time of 55.6256 on 1 procs for 495 steps with 19652 atoms

Performance: 0.769 ns/day, 31.215 hours/ns, 8.899 timesteps/s
100.0% CPU use with 1 MPI tasks x no OpenMP threads

MPI task timing breakdown:
Section |  min time  |  avg time  |  max time  |%varavg| %total
---------------------------------------------------------------
Pair    | 29.021     | 29.021     | 29.021     |   0.0 | 52.17
Neigh   | 25.53      | 25.53      | 25.53      |   0.0 | 45.90
Comm    | 0.39994    | 0.39994    | 0.39994    |   0.0 |  0.72
Output  | 0.00011492 | 0.00011492 | 0.00011492 |   0.0 |  0.00
Modify  | 0.52258    | 0.52258    | 0.52258    |   0.0 |  0.94
Other   |            | 0.152      |            |       |  0.27

Nlocal:    19652 ave 19652 max 19652 min
Histogram: 1 0 0 0 0 0 0 0 0 0
Nghost:    18084 ave 18084 max 18084 min
Histogram: 1 0 0 0 0 0 0 0 0 0
Neighs:    1.44844e+06 ave 1.44844e+06 max 1.44844e+06 min
Histogram: 1 0 0 0 0 0 0 0 0 0

Total # of neighbors = 1448440
Ave neighs/atom = 73.7045
Neighbor list builds = 495
Dangerous builds not checked
Setting up Verlet run ...
  Unit style    : metal
  Current step  : 122495
  Time step     : 0.001
Per MPI rank memory allocation (min/avg/max) = 18.21 | 18.21 | 18.21 Mbytes
Step Temp Press TotEng PotEng Enthalpy 
  122495    373.53955     243.2132    -64441.17   -65389.994   -64389.022 
  124000    349.09931   -758.30194   -64593.366    -65480.11   -64755.679 
Loop time of 189.651 on 1 procs for 1505 steps with 19652 atoms

Performance: 0.686 ns/day, 35.004 hours/ns, 7.936 timesteps/s
99.7% CPU use with 1 MPI tasks x no OpenMP threads

MPI task timing breakdown:
Section |  min time  |  avg time  |  max time  |%varavg| %total
---------------------------------------------------------------
Pair    | 100.26     | 100.26     | 100.26     |   0.0 | 52.87
Neigh   | 85.506     | 85.506     | 85.506     |   0.0 | 45.09
Comm    | 1.3798     | 1.3798     | 1.3798     |   0.0 |  0.73
Output  | 0.18502    | 0.18502    | 0.18502    |   0.0 |  0.10
Modify  | 1.8027     | 1.8027     | 1.8027     |   0.0 |  0.95
Other   |            | 0.5151     |            |       |  0.27

Nlocal:    19652 ave 19652 max 19652 min
Histogram: 1 0 0 0 0 0 0 0 0 0
Nghost:    18089 ave 18089 max 18089 min
Histogram: 1 0 0 0 0 0 0 0 0 0
Neighs:    1.45132e+06 ave 1.45132e+06 max 1.45132e+06 min
Histogram: 1 0 0 0 0 0 0 0 0 0

Total # of neighbors = 1451324
Ave neighs/atom = 73.8512
Neighbor list builds = 1505
Dangerous builds not checked
Setting up Verlet run ...
  Unit style    : metal
  Current step  : 124000
  Time step     : 0.001
Per MPI rank memory allocation (min/avg/max) = 18.21 | 18.21 | 18.21 Mbytes
Step Temp Press TotEng PotEng Enthalpy 
  124000    349.09931   -758.30194   -64593.366    -65480.11   -64755.679 
  124495    322.14283   -370.71392   -64748.149   -65566.421    -64827.25 
Loop time of 58.7634 on 1 procs for 495 steps with 19652 atoms

Performance: 0.728 ns/day, 32.976 hours/ns, 8.424 timesteps/s
99.7% CPU use with 1 MPI tasks x no OpenMP threads

MPI task timing breakdown:
Section |  min time  |  avg time  |  max time  |%varavg| %total
---------------------------------------------------------------
Pair    | 30.859     | 30.859     | 30.859     |   0.0 | 52.51
Neigh   | 26.77      | 26.77      | 26.77      |   0.0 | 45.56
Comm    | 0.42177    | 0.42177    | 0.42177    |   0.0 |  0.72
Output  | 0.00018001 | 0.00018001 | 0.00018001 |   0.0 |  0.00
Modify  | 0.55422    | 0.55422    | 0.55422    |   0.0 |  0.94
Other   |            | 0.1575     |            |       |  0.27

Nlocal:    19652 ave 19652 max 19652 min
Histogram: 1 0 0 0 0 0 0 0 0 0
Nghost:    18109 ave 18109 max 18109 min
Histogram: 1 0 0 0 0 0 0 0 0 0
Neighs:    1.45564e+06 ave 1.45564e+06 max 1.45564e+06 min
Histogram: 1 0 0 0 0 0 0 0 0 0

Total # of neighbors = 1455643
Ave neighs/atom = 74.071
Neighbor list builds = 495
Dangerous builds not checked
Setting up Verlet run ...
  Unit style    : metal
  Current step  : 124495
  Time step     : 0.001
Per MPI rank memory allocation (min/avg/max) = 18.21 | 18.21 | 18.21 Mbytes
Step Temp Press TotEng PotEng Enthalpy 
  124495    322.14283   -370.71392   -64748.149   -65566.421    -64827.25 
  126000    298.63041   -714.78982   -64898.789   -65657.337   -65050.916 
Loop time of 224.307 on 1 procs for 1505 steps with 19652 atoms

Performance: 0.580 ns/day, 41.400 hours/ns, 6.710 timesteps/s
98.8% CPU use with 1 MPI tasks x no OpenMP threads

MPI task timing breakdown:
Section |  min time  |  avg time  |  max time  |%varavg| %total
---------------------------------------------------------------
Pair    | 120.92     | 120.92     | 120.92     |   0.0 | 53.91
Neigh   | 98.774     | 98.774     | 98.774     |   0.0 | 44.04
Comm    | 1.6499     | 1.6499     | 1.6499     |   0.0 |  0.74
Output  | 0.10648    | 0.10648    | 0.10648    |   0.0 |  0.05
Modify  | 2.2037     | 2.2037     | 2.2037     |   0.0 |  0.98
Other   |            | 0.6541     |            |       |  0.29

Nlocal:    19652 ave 19652 max 19652 min
Histogram: 1 0 0 0 0 0 0 0 0 0
Nghost:    18140 ave 18140 max 18140 min
Histogram: 1 0 0 0 0 0 0 0 0 0
Neighs:    1.45938e+06 ave 1.45938e+06 max 1.45938e+06 min
Histogram: 1 0 0 0 0 0 0 0 0 0

Total # of neighbors = 1459382
Ave neighs/atom = 74.2612
Neighbor list builds = 1505
Dangerous builds not checked
Setting up Verlet run ...
  Unit style    : metal
  Current step  : 126000
  Time step     : 0.001
Per MPI rank memory allocation (min/avg/max) = 18.21 | 18.21 | 18.21 Mbytes
Step Temp Press TotEng PotEng Enthalpy 
  126000    298.63041   -714.78982   -64898.789   -65657.337   -65050.916 
  126495    274.10978    123.43624   -65042.654   -65738.918   -65016.479 
Loop time of 81.1429 on 1 procs for 495 steps with 19652 atoms

Performance: 0.527 ns/day, 45.535 hours/ns, 6.100 timesteps/s
95.2% CPU use with 1 MPI tasks x no OpenMP threads

MPI task timing breakdown:
Section |  min time  |  avg time  |  max time  |%varavg| %total
---------------------------------------------------------------
Pair    | 44.093     | 44.093     | 44.093     |   0.0 | 54.34
Neigh   | 35.401     | 35.401     | 35.401     |   0.0 | 43.63
Comm    | 0.61744    | 0.61744    | 0.61744    |   0.0 |  0.76
Output  | 0.00016117 | 0.00016117 | 0.00016117 |   0.0 |  0.00
Modify  | 0.79259    | 0.79259    | 0.79259    |   0.0 |  0.98
Other   |            | 0.2393     |            |       |  0.29

Nlocal:    19652 ave 19652 max 19652 min
Histogram: 1 0 0 0 0 0 0 0 0 0
Nghost:    18120 ave 18120 max 18120 min
Histogram: 1 0 0 0 0 0 0 0 0 0
Neighs:    1.46386e+06 ave 1.46386e+06 max 1.46386e+06 min
Histogram: 1 0 0 0 0 0 0 0 0 0

Total # of neighbors = 1463865
Ave neighs/atom = 74.4894
Neighbor list builds = 495
Dangerous builds not checked
Setting up Verlet run ...
  Unit style    : metal
  Current step  : 126495
  Time step     : 0.001
Per MPI rank memory allocation (min/avg/max) = 18.21 | 18.21 | 18.21 Mbytes
Step Temp Press TotEng PotEng Enthalpy 
  126495    274.10978    123.43624   -65042.654   -65738.918   -65016.479 
  128000    251.73636   -401.45545   -65189.981   -65829.414   -65274.933 
Loop time of 236.013 on 1 procs for 1505 steps with 19652 atoms

Performance: 0.551 ns/day, 43.561 hours/ns, 6.377 timesteps/s
90.5% CPU use with 1 MPI tasks x no OpenMP threads

MPI task timing breakdown:
Section |  min time  |  avg time  |  max time  |%varavg| %total
---------------------------------------------------------------
Pair    | 127.32     | 127.32     | 127.32     |   0.0 | 53.95
Neigh   | 103.79     | 103.79     | 103.79     |   0.0 | 43.98
Comm    | 1.7947     | 1.7947     | 1.7947     |   0.0 |  0.76
Output  | 0.17385    | 0.17385    | 0.17385    |   0.0 |  0.07
Modify  | 2.2227     | 2.2227     | 2.2227     |   0.0 |  0.94
Other   |            | 0.7133     |            |       |  0.30

Nlocal:    19652 ave 19652 max 19652 min
Histogram: 1 0 0 0 0 0 0 0 0 0
Nghost:    18136 ave 18136 max 18136 min
Histogram: 1 0 0 0 0 0 0 0 0 0
Neighs:    1.46704e+06 ave 1.46704e+06 max 1.46704e+06 min
Histogram: 1 0 0 0 0 0 0 0 0 0

Total # of neighbors = 1467037
Ave neighs/atom = 74.6508
Neighbor list builds = 1505
Dangerous builds not checked
Setting up Verlet run ...
  Unit style    : metal
  Current step  : 128000
  Time step     : 0.001
Per MPI rank memory allocation (min/avg/max) = 18.21 | 18.21 | 18.21 Mbytes
Step Temp Press TotEng PotEng Enthalpy 
  128000    251.73636   -401.45545   -65189.981   -65829.414   -65274.933 
  128495    224.91831    18.879749   -65328.556   -65899.869   -65324.572 
Loop time of 76.8259 on 1 procs for 495 steps with 19652 atoms

Performance: 0.557 ns/day, 43.112 hours/ns, 6.443 timesteps/s
98.8% CPU use with 1 MPI tasks x no OpenMP threads

MPI task timing breakdown:
Section |  min time  |  avg time  |  max time  |%varavg| %total
---------------------------------------------------------------
Pair    | 41.89      | 41.89      | 41.89      |   0.0 | 54.53
Neigh   | 33.359     | 33.359     | 33.359     |   0.0 | 43.42
Comm    | 0.58353    | 0.58353    | 0.58353    |   0.0 |  0.76
Output  | 0.0001421  | 0.0001421  | 0.0001421  |   0.0 |  0.00
Modify  | 0.76187    | 0.76187    | 0.76187    |   0.0 |  0.99
Other   |            | 0.2314     |            |       |  0.30

Nlocal:    19652 ave 19652 max 19652 min
Histogram: 1 0 0 0 0 0 0 0 0 0
Nghost:    18180 ave 18180 max 18180 min
Histogram: 1 0 0 0 0 0 0 0 0 0
Neighs:    1.4704e+06 ave 1.4704e+06 max 1.4704e+06 min
Histogram: 1 0 0 0 0 0 0 0 0 0

Total # of neighbors = 1470405
Ave neighs/atom = 74.8222
Neighbor list builds = 495
Dangerous builds not checked
Setting up Verlet run ...
  Unit style    : metal
  Current step  : 128495
  Time step     : 0.001
Per MPI rank memory allocation (min/avg/max) = 18.21 | 18.21 | 18.21 Mbytes
Step Temp Press TotEng PotEng Enthalpy 
  128495    224.91831    18.879749   -65328.556   -65899.869   -65324.572 
  130000    199.33213    -148.6057   -65475.526   -65981.847   -65506.816 
Loop time of 182.109 on 1 procs for 1505 steps with 19652 atoms

Performance: 0.714 ns/day, 33.612 hours/ns, 8.264 timesteps/s
96.8% CPU use with 1 MPI tasks x no OpenMP threads

MPI task timing breakdown:
Section |  min time  |  avg time  |  max time  |%varavg| %total
---------------------------------------------------------------
Pair    | 95.837     | 95.837     | 95.837     |   0.0 | 52.63
Neigh   | 82.084     | 82.084     | 82.084     |   0.0 | 45.07
Comm    | 1.3068     | 1.3068     | 1.3068     |   0.0 |  0.72
Output  | 0.67867    | 0.67867    | 0.67867    |   0.0 |  0.37
Modify  | 1.713      | 1.713      | 1.713      |   0.0 |  0.94
Other   |            | 0.49       |            |       |  0.27

Nlocal:    19652 ave 19652 max 19652 min
Histogram: 1 0 0 0 0 0 0 0 0 0
Nghost:    18163 ave 18163 max 18163 min
Histogram: 1 0 0 0 0 0 0 0 0 0
Neighs:    1.473e+06 ave 1.473e+06 max 1.473e+06 min
Histogram: 1 0 0 0 0 0 0 0 0 0

Total # of neighbors = 1473005
Ave neighs/atom = 74.9545
Neighbor list builds = 1505
Dangerous builds not checked
Setting up Verlet run ...
  Unit style    : metal
  Current step  : 130000
  Time step     : 0.001
Per MPI rank memory allocation (min/avg/max) = 18.21 | 18.21 | 18.21 Mbytes
Step Temp Press TotEng PotEng Enthalpy 
  130000    199.33213    -148.6057   -65475.526   -65981.847   -65506.816 
  130495     176.3438   -179.12045   -65603.693   -66051.622   -65641.317 
Loop time of 77.9372 on 1 procs for 495 steps with 19652 atoms

Performance: 0.549 ns/day, 43.736 hours/ns, 6.351 timesteps/s
99.2% CPU use with 1 MPI tasks x no OpenMP threads

MPI task timing breakdown:
Section |  min time  |  avg time  |  max time  |%varavg| %total
---------------------------------------------------------------
Pair    | 42.746     | 42.746     | 42.746     |   0.0 | 54.85
Neigh   | 33.583     | 33.583     | 33.583     |   0.0 | 43.09
Comm    | 0.59836    | 0.59836    | 0.59836    |   0.0 |  0.77
Output  | 0.00014091 | 0.00014091 | 0.00014091 |   0.0 |  0.00
Modify  | 0.77054    | 0.77054    | 0.77054    |   0.0 |  0.99
Other   |            | 0.2399     |            |       |  0.31

Nlocal:    19652 ave 19652 max 19652 min
Histogram: 1 0 0 0 0 0 0 0 0 0
Nghost:    18195 ave 18195 max 18195 min
Histogram: 1 0 0 0 0 0 0 0 0 0
Neighs:    1.47666e+06 ave 1.47666e+06 max 1.47666e+06 min
Histogram: 1 0 0 0 0 0 0 0 0 0

Total # of neighbors = 1476656
Ave neighs/atom = 75.1402
Neighbor list builds = 495
Dangerous builds not checked
Setting up Verlet run ...
  Unit style    : metal
  Current step  : 130495
  Time step     : 0.001
Per MPI rank memory allocation (min/avg/max) = 18.21 | 18.21 | 18.21 Mbytes
Step Temp Press TotEng PotEng Enthalpy 
  130495     176.3438   -179.12045   -65603.693   -66051.622   -65641.317 
  132000    150.33987   -341.56649   -65750.264   -66132.141   -65821.872 
Loop time of 217.178 on 1 procs for 1505 steps with 19652 atoms

Performance: 0.599 ns/day, 40.084 hours/ns, 6.930 timesteps/s
98.0% CPU use with 1 MPI tasks x no OpenMP threads

MPI task timing breakdown:
Section |  min time  |  avg time  |  max time  |%varavg| %total
---------------------------------------------------------------
Pair    | 117.05     | 117.05     | 117.05     |   0.0 | 53.90
Neigh   | 95.395     | 95.395     | 95.395     |   0.0 | 43.92
Comm    | 1.5995     | 1.5995     | 1.5995     |   0.0 |  0.74
Output  | 0.3959     | 0.3959     | 0.3959     |   0.0 |  0.18
Modify  | 2.0959     | 2.0959     | 2.0959     |   0.0 |  0.97
Other   |            | 0.6379     |            |       |  0.29

Nlocal:    19652 ave 19652 max 19652 min
Histogram: 1 0 0 0 0 0 0 0 0 0
Nghost:    18228 ave 18228 max 18228 min
Histogram: 1 0 0 0 0 0 0 0 0 0
Neighs:    1.47915e+06 ave 1.47915e+06 max 1.47915e+06 min
Histogram: 1 0 0 0 0 0 0 0 0 0

Total # of neighbors = 1479151
Ave neighs/atom = 75.2672
Neighbor list builds = 1505
Dangerous builds not checked
Setting up Verlet run ...
  Unit style    : metal
  Current step  : 132000
  Time step     : 0.001
Per MPI rank memory allocation (min/avg/max) = 18.21 | 18.21 | 18.21 Mbytes
Step Temp Press TotEng PotEng Enthalpy 
  132000    150.33987   -341.56649   -65750.264   -66132.141   -65821.872 
  132495    127.42406    113.42492   -65869.183   -66192.852   -65845.463 
Loop time of 55.8227 on 1 procs for 495 steps with 19652 atoms

Performance: 0.766 ns/day, 31.326 hours/ns, 8.867 timesteps/s
99.8% CPU use with 1 MPI tasks x no OpenMP threads

MPI task timing breakdown:
Section |  min time  |  avg time  |  max time  |%varavg| %total
---------------------------------------------------------------
Pair    | 29.289     | 29.289     | 29.289     |   0.0 | 52.47
Neigh   | 25.391     | 25.391     | 25.391     |   0.0 | 45.49
Comm    | 0.39855    | 0.39855    | 0.39855    |   0.0 |  0.71
Output  | 0.063429   | 0.063429   | 0.063429   |   0.0 |  0.11
Modify  | 0.52236    | 0.52236    | 0.52236    |   0.0 |  0.94
Other   |            | 0.1584     |            |       |  0.28

Nlocal:    19652 ave 19652 max 19652 min
Histogram: 1 0 0 0 0 0 0 0 0 0
Nghost:    18249 ave 18249 max 18249 min
Histogram: 1 0 0 0 0 0 0 0 0 0
Neighs:    1.48218e+06 ave 1.48218e+06 max 1.48218e+06 min
Histogram: 1 0 0 0 0 0 0 0 0 0

Total # of neighbors = 1482177
Ave neighs/atom = 75.4212
Neighbor list builds = 495
Dangerous builds not checked
Setting up Verlet run ...
  Unit style    : metal
  Current step  : 132495
  Time step     : 0.001
Per MPI rank memory allocation (min/avg/max) = 18.21 | 18.21 | 18.21 Mbytes
Step Temp Press TotEng PotEng Enthalpy 
  132495    127.42406    113.42492   -65869.183   -66192.852   -65845.463 
  134000    99.732514    194.27308    -66019.25    -66272.58   -65978.721 
Loop time of 223.129 on 1 procs for 1505 steps with 19652 atoms

Performance: 0.583 ns/day, 41.183 hours/ns, 6.745 timesteps/s
98.3% CPU use with 1 MPI tasks x no OpenMP threads

MPI task timing breakdown:
Section |  min time  |  avg time  |  max time  |%varavg| %total
---------------------------------------------------------------
Pair    | 120.71     | 120.71     | 120.71     |   0.0 | 54.10
Neigh   | 97.453     | 97.453     | 97.453     |   0.0 | 43.68
Comm    | 1.6615     | 1.6615     | 1.6615     |   0.0 |  0.74
Output  | 0.43618    | 0.43618    | 0.43618    |   0.0 |  0.20
Modify  | 2.187      | 2.187      | 2.187      |   0.0 |  0.98
Other   |            | 0.6811     |            |       |  0.31

Nlocal:    19652 ave 19652 max 19652 min
Histogram: 1 0 0 0 0 0 0 0 0 0
Nghost:    18248 ave 18248 max 18248 min
Histogram: 1 0 0 0 0 0 0 0 0 0
Neighs:    1.48578e+06 ave 1.48578e+06 max 1.48578e+06 min
Histogram: 1 0 0 0 0 0 0 0 0 0

Total # of neighbors = 1485779
Ave neighs/atom = 75.6045
Neighbor list builds = 1505
Dangerous builds not checked
Total wall time: 4:20:51
