LAMMPS (12 Dec 2018)
Lattice spacing in x,y,z = 4 4 4
Created orthogonal box = (0 0 0) to (68 68 68)
  1 by 1 by 2 MPI processor grid
Created 19652 atoms
  Time spent = 0.00157905 secs
Setting atom values ...
  19480 settings made for type/fraction
Neighbor list info ...
  update every 1 steps, delay 0 steps, check no
  max neighbors/atom: 2000, page size: 100000
  master list distance cutoff = 8.5
  ghost atom cutoff = 8.5
  binsize = 4.25, bins = 16 16 16
  1 neighbor lists, perpetual/occasional/extra = 1 0 0
  (1) pair eam/alloy, perpetual
      attributes: half, newton on
      pair build: half/bin/atomonly/newton
      stencil: half/bin/3d/newton
      bin: standard
Setting up Verlet run ...
  Unit style    : metal
  Current step  : 0
  Time step     : 0.001
Per MPI rank memory allocation (min/avg/max) = 11.15 | 11.15 | 11.15 Mbytes
Step Temp Press TotEng PotEng Enthalpy 
       0          300   -183049.92   -61915.329   -62677.356   -97839.431 
    1000    479.68606    -84624.93   -61915.355   -63133.801   -78523.254 
Loop time of 111.62 on 2 procs for 1000 steps with 19652 atoms

Performance: 0.774 ns/day, 31.006 hours/ns, 8.959 timesteps/s
92.8% CPU use with 2 MPI tasks x no OpenMP threads

MPI task timing breakdown:
Section |  min time  |  avg time  |  max time  |%varavg| %total
---------------------------------------------------------------
Pair    | 63.764     | 64.116     | 64.469     |   4.4 | 57.44
Neigh   | 35.891     | 38.383     | 40.876     |  40.2 | 34.39
Comm    | 5.7733     | 8.6406     | 11.508     |  97.5 |  7.74
Output  | 9.799e-05  | 0.000139   | 0.00018001 |   0.0 |  0.00
Modify  | 0.22258    | 0.24041    | 0.25824    |   3.6 |  0.22
Other   |            | 0.2388     |            |       |  0.21

Nlocal:    9826 ave 9847 max 9805 min
Histogram: 1 0 0 0 0 0 0 0 0 1
Nghost:    13523.5 ave 13556 max 13491 min
Histogram: 1 0 0 0 0 0 0 0 0 1
Neighs:    788694 ave 789090 max 788299 min
Histogram: 1 0 0 0 0 0 0 0 0 1

Total # of neighbors = 1577389
Ave neighs/atom = 80.2661
Neighbor list builds = 1000
Dangerous builds not checked
Setting up Verlet run ...
  Unit style    : metal
  Current step  : 1000
  Time step     : 0.001
Per MPI rank memory allocation (min/avg/max) = 11.15 | 11.15 | 11.15 Mbytes
Step Temp Press TotEng PotEng Enthalpy 
    1000    479.68606    -84624.93   -61915.355   -63133.801   -78523.254 
    2000     399.7113   -1779.5467   -66542.448   -67557.751   -66813.585 
Loop time of 130.765 on 2 procs for 1000 steps with 19652 atoms

Performance: 0.661 ns/day, 36.324 hours/ns, 7.647 timesteps/s
97.0% CPU use with 2 MPI tasks x no OpenMP threads

MPI task timing breakdown:
Section |  min time  |  avg time  |  max time  |%varavg| %total
---------------------------------------------------------------
Pair    | 73.282     | 73.874     | 74.467     |   6.9 | 56.49
Neigh   | 49.492     | 50.674     | 51.855     |  16.6 | 38.75
Comm    | 3.1725     | 4.9857     | 6.7989     |  81.2 |  3.81
Output  | 8.7976e-05 | 0.00013304 | 0.0001781  |   0.0 |  0.00
Modify  | 0.92628    | 0.95962    | 0.99296    |   3.4 |  0.73
Other   |            | 0.2717     |            |       |  0.21

Nlocal:    9826 ave 9888 max 9764 min
Histogram: 1 0 0 0 0 0 0 0 0 1
Nghost:    14388 ave 14449 max 14327 min
Histogram: 1 0 0 0 0 0 0 0 0 1
Neighs:    1.0048e+06 ave 1.01265e+06 max 996946 min
Histogram: 1 0 0 0 0 0 0 0 0 1

Total # of neighbors = 2009592
Ave neighs/atom = 102.259
Neighbor list builds = 1000
Dangerous builds not checked
Setting up Verlet run ...
  Unit style    : metal
  Current step  : 2000
  Time step     : 0.001
Per MPI rank memory allocation (min/avg/max) = 11.92 | 11.92 | 11.92 Mbytes
Step Temp Press TotEng PotEng Enthalpy 
    2000     399.7113   -1779.5467   -66542.448   -67557.751   -66813.585 
   10000    2436.6804   -263.48851   -53665.895   -59855.285   -53714.078 
Loop time of 1083.18 on 2 procs for 8000 steps with 19652 atoms

Performance: 0.638 ns/day, 37.610 hours/ns, 7.386 timesteps/s
96.5% CPU use with 2 MPI tasks x no OpenMP threads

MPI task timing breakdown:
Section |  min time  |  avg time  |  max time  |%varavg| %total
---------------------------------------------------------------
Pair    | 605.97     | 608.67     | 611.37     |  10.9 | 56.19
Neigh   | 379.75     | 383.86     | 387.97     |  21.0 | 35.44
Comm    | 73.158     | 80.466     | 87.774     |  81.5 |  7.43
Output  | 0.15833    | 0.15836    | 0.15839    |   0.0 |  0.01
Modify  | 7.4812     | 7.954      | 8.4267     |  16.8 |  0.73
Other   |            | 2.077      |            |       |  0.19

Nlocal:    9826 ave 9826 max 9826 min
Histogram: 2 0 0 0 0 0 0 0 0 0
Nghost:    13621 ave 13647 max 13595 min
Histogram: 1 0 0 0 0 0 0 0 0 1
Neighs:    840935 ave 850861 max 831009 min
Histogram: 1 0 0 0 0 0 0 0 0 1

Total # of neighbors = 1681870
Ave neighs/atom = 85.5826
Neighbor list builds = 8000
Dangerous builds not checked
Setting up Verlet run ...
  Unit style    : metal
  Current step  : 10000
  Time step     : 0.001
Per MPI rank memory allocation (min/avg/max) = 11.94 | 11.94 | 11.94 Mbytes
Step Temp Press TotEng PotEng Enthalpy 
   10000    2436.6804   -263.48851   -53665.895   -59855.285   -53714.078 
   20000    2454.1006   -739.48312   -53546.009   -59779.648   -53681.634 
   30000    2458.9575    306.63264   -53464.508   -59710.484   -53408.238 
   40000    2465.9633    45.145779   -53489.341   -59753.112   -53481.065 
Loop time of 3674.26 on 2 procs for 30000 steps with 19652 atoms

Performance: 0.705 ns/day, 34.021 hours/ns, 8.165 timesteps/s
98.1% CPU use with 2 MPI tasks x no OpenMP threads

MPI task timing breakdown:
Section |  min time  |  avg time  |  max time  |%varavg| %total
---------------------------------------------------------------
Pair    | 2036.9     | 2037.1     | 2037.3     |   0.5 | 55.44
Neigh   | 1340.5     | 1353.8     | 1367.1     |  36.1 | 36.85
Comm    | 227.53     | 245.85     | 264.17     | 116.8 |  6.69
Output  | 0.32323    | 0.32332    | 0.32342    |   0.0 |  0.01
Modify  | 25.602     | 30.207     | 34.812     |  83.8 |  0.82
Other   |            | 7.012      |            |       |  0.19

Nlocal:    9826 ave 9849 max 9803 min
Histogram: 1 0 0 0 0 0 0 0 0 1
Nghost:    13619.5 ave 13626 max 13613 min
Histogram: 1 0 0 0 0 0 0 0 0 1
Neighs:    839402 ave 852460 max 826345 min
Histogram: 1 0 0 0 0 0 0 0 0 1

Total # of neighbors = 1678805
Ave neighs/atom = 85.4267
Neighbor list builds = 30000
Dangerous builds not checked
Setting up Verlet run ...
  Unit style    : metal
  Current step  : 40000
  Time step     : 0.001
Per MPI rank memory allocation (min/avg/max) = 12.01 | 12.01 | 12.01 Mbytes
Step Temp Press TotEng PotEng Enthalpy 
   40000    2465.9633    45.145779   -53489.341   -59753.112   -53481.065 
   40495    2392.5484    1221.7684    -53761.03   -59838.321   -53538.005 
Loop time of 58.6331 on 2 procs for 495 steps with 19652 atoms

Performance: 0.729 ns/day, 32.903 hours/ns, 8.442 timesteps/s
97.1% CPU use with 2 MPI tasks x no OpenMP threads

MPI task timing breakdown:
Section |  min time  |  avg time  |  max time  |%varavg| %total
---------------------------------------------------------------
Pair    | 32.101     | 32.68      | 33.259     |  10.1 | 55.74
Neigh   | 21.176     | 21.964     | 22.751     |  16.8 | 37.46
Comm    | 1.9919     | 3.3738     | 4.7558     |  75.2 |  5.75
Output  | 7.2956e-05 | 0.00010049 | 0.00012803 |   0.0 |  0.00
Modify  | 0.49277    | 0.50372    | 0.51466    |   1.5 |  0.86
Other   |            | 0.1114     |            |       |  0.19

Nlocal:    9826 ave 9830 max 9822 min
Histogram: 1 0 0 0 0 0 0 0 0 1
Nghost:    13627 ave 13635 max 13619 min
Histogram: 1 0 0 0 0 0 0 0 0 1
Neighs:    842752 ave 853211 max 832294 min
Histogram: 1 0 0 0 0 0 0 0 0 1

Total # of neighbors = 1685505
Ave neighs/atom = 85.7676
Neighbor list builds = 495
Dangerous builds not checked
Setting up Verlet run ...
  Unit style    : metal
  Current step  : 40495
  Time step     : 0.001
Per MPI rank memory allocation (min/avg/max) = 12.01 | 12.01 | 12.01 Mbytes
Step Temp Press TotEng PotEng Enthalpy 
   40495    2392.5484    1221.7684    -53761.03   -59838.321   -53538.005 
   50000    2383.7565   -2059.1439   -53826.208   -59881.167   -54203.361 
Loop time of 1194.95 on 2 procs for 9505 steps with 19652 atoms

Performance: 0.687 ns/day, 34.922 hours/ns, 7.954 timesteps/s
96.3% CPU use with 2 MPI tasks x no OpenMP threads

MPI task timing breakdown:
Section |  min time  |  avg time  |  max time  |%varavg| %total
---------------------------------------------------------------
Pair    | 664.5      | 666.07     | 667.65     |   6.1 | 55.74
Neigh   | 422.71     | 430.75     | 438.79     |  38.7 | 36.05
Comm    | 72.682     | 78.775     | 84.868     |  68.6 |  6.59
Output  | 0.18481    | 0.18485    | 0.18489    |   0.0 |  0.02
Modify  | 16.45      | 16.954     | 17.458     |  12.2 |  1.42
Other   |            | 2.219      |            |       |  0.19

Nlocal:    9826 ave 9840 max 9812 min
Histogram: 1 0 0 0 0 0 0 0 0 1
Nghost:    13587.5 ave 13590 max 13585 min
Histogram: 1 0 0 0 0 0 0 0 0 1
Neighs:    839702 ave 847631 max 831772 min
Histogram: 1 0 0 0 0 0 0 0 0 1

Total # of neighbors = 1679403
Ave neighs/atom = 85.4571
Neighbor list builds = 9505
Dangerous builds not checked
Setting up Verlet run ...
  Unit style    : metal
  Current step  : 50000
  Time step     : 0.001
Per MPI rank memory allocation (min/avg/max) = 12.02 | 12.02 | 12.02 Mbytes
Step Temp Press TotEng PotEng Enthalpy 
   50000    2383.7565   -2059.1439   -53826.208   -59881.167   -54203.361 
   50495    2342.4798    482.16222    -54042.37   -59992.482   -53954.618 
Loop time of 59.5852 on 2 procs for 495 steps with 19652 atoms

Performance: 0.718 ns/day, 33.437 hours/ns, 8.307 timesteps/s
99.5% CPU use with 2 MPI tasks x no OpenMP threads

MPI task timing breakdown:
Section |  min time  |  avg time  |  max time  |%varavg| %total
---------------------------------------------------------------
Pair    | 33.658     | 33.908     | 34.159     |   4.3 | 56.91
Neigh   | 19.801     | 21.734     | 23.666     |  41.5 | 36.48
Comm    | 1.1654     | 3.3818     | 5.5982     | 120.5 |  5.68
Output  | 6.6042e-05 | 8.8096e-05 | 0.00011015 |   0.0 |  0.00
Modify  | 0.42493    | 0.44056    | 0.4562     |   2.4 |  0.74
Other   |            | 0.1205     |            |       |  0.20

Nlocal:    9826 ave 9830 max 9822 min
Histogram: 1 0 0 0 0 0 0 0 0 1
Nghost:    13726 ave 13737 max 13715 min
Histogram: 1 0 0 0 0 0 0 0 0 1
Neighs:    844956 ave 855081 max 834831 min
Histogram: 1 0 0 0 0 0 0 0 0 1

Total # of neighbors = 1689912
Ave neighs/atom = 85.9919
Neighbor list builds = 495
Dangerous builds not checked
Setting up Verlet run ...
  Unit style    : metal
  Current step  : 50495
  Time step     : 0.001
Per MPI rank memory allocation (min/avg/max) = 12.02 | 12.02 | 12.02 Mbytes
Step Temp Press TotEng PotEng Enthalpy 
   50495    2342.4798    482.16222    -54042.37   -59992.482   -53954.618 
   60000    2369.9974    588.66207   -54069.594   -60089.603   -53962.666 
Loop time of 1231.84 on 2 procs for 9505 steps with 19652 atoms

Performance: 0.667 ns/day, 36.000 hours/ns, 7.716 timesteps/s
92.0% CPU use with 2 MPI tasks x no OpenMP threads

MPI task timing breakdown:
Section |  min time  |  avg time  |  max time  |%varavg| %total
---------------------------------------------------------------
Pair    | 659.24     | 662.26     | 665.28     |  11.7 | 53.76
Neigh   | 411.36     | 411.65     | 411.94     |   1.4 | 33.42
Comm    | 132.97     | 136.82     | 140.67     |  32.9 | 11.11
Output  | 0.15066    | 0.15069    | 0.15072    |   0.0 |  0.01
Modify  | 12.316     | 18.855     | 25.394     | 150.6 |  1.53
Other   |            | 2.105      |            |       |  0.17

Nlocal:    9826 ave 9859 max 9793 min
Histogram: 1 0 0 0 0 0 0 0 0 1
Nghost:    13719.5 ave 13753 max 13686 min
Histogram: 1 0 0 0 0 0 0 0 0 1
Neighs:    846857 ave 851879 max 841835 min
Histogram: 1 0 0 0 0 0 0 0 0 1

Total # of neighbors = 1693714
Ave neighs/atom = 86.1853
Neighbor list builds = 9505
Dangerous builds not checked
Setting up Verlet run ...
  Unit style    : metal
  Current step  : 60000
  Time step     : 0.001
Per MPI rank memory allocation (min/avg/max) = 12.03 | 12.03 | 12.03 Mbytes
Step Temp Press TotEng PotEng Enthalpy 
   60000    2369.9974    588.66207   -54069.594   -60089.603   -53962.666 
   60495    2311.8906    898.33597   -54286.174   -60158.587   -54123.539 
Loop time of 81.3702 on 2 procs for 495 steps with 19652 atoms

Performance: 0.526 ns/day, 45.662 hours/ns, 6.083 timesteps/s
81.5% CPU use with 2 MPI tasks x no OpenMP threads

MPI task timing breakdown:
Section |  min time  |  avg time  |  max time  |%varavg| %total
---------------------------------------------------------------
Pair    | 39.244     | 39.539     | 39.833     |   4.7 | 48.59
Neigh   | 20.787     | 21.109     | 21.431     |   7.0 | 25.94
Comm    | 13.486     | 14.02      | 14.554     |  14.3 | 17.23
Output  | 7.8917e-05 | 8.9526e-05 | 0.00010014 |   0.0 |  0.00
Modify  | 6.4994     | 6.5802     | 6.661      |   3.1 |  8.09
Other   |            | 0.1225     |            |       |  0.15

Nlocal:    9826 ave 9861 max 9791 min
Histogram: 1 0 0 0 0 0 0 0 0 1
Nghost:    13698.5 ave 13705 max 13692 min
Histogram: 1 0 0 0 0 0 0 0 0 1
Neighs:    849468 ave 853049 max 845886 min
Histogram: 1 0 0 0 0 0 0 0 0 1

Total # of neighbors = 1698935
Ave neighs/atom = 86.451
Neighbor list builds = 495
Dangerous builds not checked
Setting up Verlet run ...
  Unit style    : metal
  Current step  : 60495
  Time step     : 0.001
Per MPI rank memory allocation (min/avg/max) = 12.03 | 12.03 | 12.03 Mbytes
Step Temp Press TotEng PotEng Enthalpy 
   60495    2311.8906    898.33597   -54286.174   -60158.587   -54123.539 
   70000    2315.1773    601.90378   -54321.694   -60202.455   -54212.774 
Loop time of 1271.89 on 2 procs for 9505 steps with 19652 atoms

Performance: 0.646 ns/day, 37.170 hours/ns, 7.473 timesteps/s
91.5% CPU use with 2 MPI tasks x no OpenMP threads

MPI task timing breakdown:
Section |  min time  |  avg time  |  max time  |%varavg| %total
---------------------------------------------------------------
Pair    | 668.08     | 683.94     | 699.8      |  60.6 | 53.77
Neigh   | 403.39     | 417.32     | 431.26     |  68.2 | 32.81
Comm    | 126.81     | 154.74     | 182.66     | 224.5 | 12.17
Output  | 0.16432    | 0.16434    | 0.16436    |   0.0 |  0.01
Modify  | 11.532     | 13.562     | 15.591     |  55.1 |  1.07
Other   |            | 2.17       |            |       |  0.17

Nlocal:    9826 ave 9848 max 9804 min
Histogram: 1 0 0 0 0 0 0 0 0 1
Nghost:    13680 ave 13695 max 13665 min
Histogram: 1 0 0 0 0 0 0 0 0 1
Neighs:    849949 ave 856394 max 843504 min
Histogram: 1 0 0 0 0 0 0 0 0 1

Total # of neighbors = 1699898
Ave neighs/atom = 86.5
Neighbor list builds = 9505
Dangerous builds not checked
Setting up Verlet run ...
  Unit style    : metal
  Current step  : 70000
  Time step     : 0.001
Per MPI rank memory allocation (min/avg/max) = 12.04 | 12.04 | 12.04 Mbytes
Step Temp Press TotEng PotEng Enthalpy 
   70000    2315.1773    601.90378   -54321.694   -60202.455   -54212.774 
   70495     2266.515     864.9599   -54619.417   -60376.572   -54463.688 
Loop time of 57.0537 on 2 procs for 495 steps with 19652 atoms

Performance: 0.750 ns/day, 32.017 hours/ns, 8.676 timesteps/s
99.0% CPU use with 2 MPI tasks x no OpenMP threads

MPI task timing breakdown:
Section |  min time  |  avg time  |  max time  |%varavg| %total
---------------------------------------------------------------
Pair    | 31.508     | 32.075     | 32.642     |  10.0 | 56.22
Neigh   | 20.316     | 21.451     | 22.586     |  24.5 | 37.60
Comm    | 1.2654     | 2.9905     | 4.7157     |  99.8 |  5.24
Output  | 7.8917e-05 | 9.2506e-05 | 0.0001061  |   0.0 |  0.00
Modify  | 0.41087    | 0.42065    | 0.43042    |   1.5 |  0.74
Other   |            | 0.1162     |            |       |  0.20

Nlocal:    9826 ave 9832 max 9820 min
Histogram: 1 0 0 0 0 0 0 0 0 1
Nghost:    13720.5 ave 13728 max 13713 min
Histogram: 1 0 0 0 0 0 0 0 0 1
Neighs:    853996 ave 862038 max 845955 min
Histogram: 1 0 0 0 0 0 0 0 0 1

Total # of neighbors = 1707993
Ave neighs/atom = 86.9119
Neighbor list builds = 495
Dangerous builds not checked
Setting up Verlet run ...
  Unit style    : metal
  Current step  : 70495
  Time step     : 0.001
Per MPI rank memory allocation (min/avg/max) = 12.04 | 12.04 | 12.04 Mbytes
Step Temp Press TotEng PotEng Enthalpy 
   70495     2266.515     864.9599   -54619.417   -60376.572   -54463.688 
   80000    2243.5089    966.95186   -54748.642   -60447.359   -54574.943 
Loop time of 1150.5 on 2 procs for 9505 steps with 19652 atoms

Performance: 0.714 ns/day, 33.623 hours/ns, 8.262 timesteps/s
96.5% CPU use with 2 MPI tasks x no OpenMP threads

MPI task timing breakdown:
Section |  min time  |  avg time  |  max time  |%varavg| %total
---------------------------------------------------------------
Pair    | 630.1      | 637.1      | 644.11     |  27.7 | 55.38
Neigh   | 404.07     | 418.82     | 433.58     |  72.1 | 36.40
Comm    | 59.732     | 81.615     | 103.5      | 242.2 |  7.09
Output  | 0.1282     | 0.12822    | 0.12824    |   0.0 |  0.01
Modify  | 10.646     | 10.669     | 10.692     |   0.7 |  0.93
Other   |            | 2.159      |            |       |  0.19

Nlocal:    9826 ave 9834 max 9818 min
Histogram: 1 0 0 0 0 0 0 0 0 1
Nghost:    13678 ave 13693 max 13663 min
Histogram: 1 0 0 0 0 0 0 0 0 1
Neighs:    855896 ave 864137 max 847654 min
Histogram: 1 0 0 0 0 0 0 0 0 1

Total # of neighbors = 1711791
Ave neighs/atom = 87.1052
Neighbor list builds = 9505
Dangerous builds not checked
Setting up Verlet run ...
  Unit style    : metal
  Current step  : 80000
  Time step     : 0.001
Per MPI rank memory allocation (min/avg/max) = 12.04 | 12.04 | 12.04 Mbytes
Step Temp Press TotEng PotEng Enthalpy 
   80000    2243.5089    966.95186   -54748.642   -60447.359   -54574.943 
   80495    2215.2913    1422.4698   -54921.651   -60548.693   -54666.878 
Loop time of 55.2086 on 2 procs for 495 steps with 19652 atoms

Performance: 0.775 ns/day, 30.981 hours/ns, 8.966 timesteps/s
99.7% CPU use with 2 MPI tasks x no OpenMP threads

MPI task timing breakdown:
Section |  min time  |  avg time  |  max time  |%varavg| %total
---------------------------------------------------------------
Pair    | 30.966     | 30.98      | 30.994     |   0.2 | 56.11
Neigh   | 21.395     | 21.845     | 22.294     |   9.6 | 39.57
Comm    | 1.3539     | 1.8305     | 2.3071     |  35.2 |  3.32
Output  | 9.4891e-05 | 0.0001204  | 0.00014591 |   0.0 |  0.00
Modify  | 0.42414    | 0.43243    | 0.44073    |   1.3 |  0.78
Other   |            | 0.121      |            |       |  0.22

Nlocal:    9826 ave 9846 max 9806 min
Histogram: 1 0 0 0 0 0 0 0 0 1
Nghost:    13727.5 ave 13757 max 13698 min
Histogram: 1 0 0 0 0 0 0 0 0 1
Neighs:    858764 ave 871084 max 846445 min
Histogram: 1 0 0 0 0 0 0 0 0 1

Total # of neighbors = 1717529
Ave neighs/atom = 87.3972
Neighbor list builds = 495
Dangerous builds not checked
Setting up Verlet run ...
  Unit style    : metal
  Current step  : 80495
  Time step     : 0.001
Per MPI rank memory allocation (min/avg/max) = 12.04 | 12.04 | 12.04 Mbytes
Step Temp Press TotEng PotEng Enthalpy 
   80495    2215.2913    1422.4698   -54921.651   -60548.693   -54666.878 
   90000    2214.6301   -590.47413   -54962.396   -60587.758   -55068.278 
Loop time of 1189.38 on 2 procs for 9505 steps with 19652 atoms

Performance: 0.690 ns/day, 34.759 hours/ns, 7.992 timesteps/s
99.1% CPU use with 2 MPI tasks x no OpenMP threads

MPI task timing breakdown:
Section |  min time  |  avg time  |  max time  |%varavg| %total
---------------------------------------------------------------
Pair    | 671.72     | 678.43     | 685.13     |  25.7 | 57.04
Neigh   | 427.12     | 443.33     | 459.54     |  77.0 | 37.27
Comm    | 33.467     | 56.626     | 79.785     | 307.8 |  4.76
Output  | 0.090956   | 0.090981   | 0.091006   |   0.0 |  0.01
Modify  | 8.3938     | 8.542      | 8.6903     |   5.1 |  0.72
Other   |            | 2.366      |            |       |  0.20

Nlocal:    9826 ave 9855 max 9797 min
Histogram: 1 0 0 0 0 0 0 0 0 1
Nghost:    13775 ave 13802 max 13748 min
Histogram: 1 0 0 0 0 0 0 0 0 1
Neighs:    857423 ave 862319 max 852527 min
Histogram: 1 0 0 0 0 0 0 0 0 1

Total # of neighbors = 1714846
Ave neighs/atom = 87.2606
Neighbor list builds = 9505
Dangerous builds not checked
Setting up Verlet run ...
  Unit style    : metal
  Current step  : 90000
  Time step     : 0.001
Per MPI rank memory allocation (min/avg/max) = 12.05 | 12.05 | 12.05 Mbytes
Step Temp Press TotEng PotEng Enthalpy 
   90000    2214.6301   -590.47413   -54962.396   -60587.758   -55068.278 
   90495    2158.9767    -276.7081   -55211.724   -60695.722   -55261.172 
Loop time of 55.8742 on 2 procs for 495 steps with 19652 atoms

Performance: 0.765 ns/day, 31.355 hours/ns, 8.859 timesteps/s
99.8% CPU use with 2 MPI tasks x no OpenMP threads

MPI task timing breakdown:
Section |  min time  |  avg time  |  max time  |%varavg| %total
---------------------------------------------------------------
Pair    | 31.188     | 31.469     | 31.751     |   5.0 | 56.32
Neigh   | 22.208     | 22.544     | 22.88      |   7.1 | 40.35
Comm    | 1.2545     | 1.3092     | 1.3639     |   4.8 |  2.34
Output  | 0.00011015 | 0.00016153 | 0.00021291 |   0.0 |  0.00
Modify  | 0.4275     | 0.4277     | 0.42791    |   0.0 |  0.77
Other   |            | 0.1236     |            |       |  0.22

Nlocal:    9826 ave 9865 max 9787 min
Histogram: 1 0 0 0 0 0 0 0 0 1
Nghost:    13750.5 ave 13768 max 13733 min
Histogram: 1 0 0 0 0 0 0 0 0 1
Neighs:    860476 ave 863180 max 857773 min
Histogram: 1 0 0 0 0 0 0 0 0 1

Total # of neighbors = 1720953
Ave neighs/atom = 87.5714
Neighbor list builds = 495
Dangerous builds not checked
Setting up Verlet run ...
  Unit style    : metal
  Current step  : 90495
  Time step     : 0.001
Per MPI rank memory allocation (min/avg/max) = 12.05 | 12.05 | 12.05 Mbytes
Step Temp Press TotEng PotEng Enthalpy 
   90495    2158.9767    -276.7081   -55211.724   -60695.722   -55261.172 
  100000    2156.3237   -1363.1636   -55367.463   -60844.722   -55610.457 
Loop time of 1169.2 on 2 procs for 9505 steps with 19652 atoms

Performance: 0.702 ns/day, 34.169 hours/ns, 8.130 timesteps/s
97.8% CPU use with 2 MPI tasks x no OpenMP threads

MPI task timing breakdown:
Section |  min time  |  avg time  |  max time  |%varavg| %total
---------------------------------------------------------------
Pair    | 665.54     | 669.72     | 673.9      |  16.1 | 57.28
Neigh   | 433.75     | 437.88     | 442.02     |  19.8 | 37.45
Comm    | 50.533     | 50.612     | 50.692     |   1.1 |  4.33
Output  | 0.1156     | 0.11563    | 0.11566    |   0.0 |  0.01
Modify  | 8.4892     | 8.536      | 8.5828     |   1.6 |  0.73
Other   |            | 2.329      |            |       |  0.20

Nlocal:    9826 ave 9828 max 9824 min
Histogram: 1 0 0 0 0 0 0 0 0 1
Nghost:    13722.5 ave 13759 max 13686 min
Histogram: 1 0 0 0 0 0 0 0 0 1
Neighs:    862607 ave 870993 max 854221 min
Histogram: 1 0 0 0 0 0 0 0 0 1

Total # of neighbors = 1725214
Ave neighs/atom = 87.7882
Neighbor list builds = 9505
Dangerous builds not checked
Setting up Verlet run ...
  Unit style    : metal
  Current step  : 100000
  Time step     : 0.001
Per MPI rank memory allocation (min/avg/max) = 12.06 | 12.06 | 12.06 Mbytes
Step Temp Press TotEng PotEng Enthalpy 
  100000    2156.3237   -1363.1636   -55367.463   -60844.722   -55610.457 
  100495    2110.9506   -419.48876   -55517.974   -60879.981   -55592.601 
Loop time of 54.3871 on 2 procs for 495 steps with 19652 atoms

Performance: 0.786 ns/day, 30.520 hours/ns, 9.101 timesteps/s
98.8% CPU use with 2 MPI tasks x no OpenMP threads

MPI task timing breakdown:
Section |  min time  |  avg time  |  max time  |%varavg| %total
---------------------------------------------------------------
Pair    | 30.286     | 30.535     | 30.784     |   4.5 | 56.14
Neigh   | 21.713     | 21.774     | 21.836     |   1.3 | 40.04
Comm    | 1.2271     | 1.5451     | 1.863      |  25.6 |  2.84
Output  | 6.8903e-05 | 8.75e-05   | 0.0001061  |   0.0 |  0.00
Modify  | 0.40599    | 0.41283    | 0.41967    |   1.1 |  0.76
Other   |            | 0.1201     |            |       |  0.22

Nlocal:    9826 ave 9834 max 9818 min
Histogram: 1 0 0 0 0 0 0 0 0 1
Nghost:    13801.5 ave 13814 max 13789 min
Histogram: 1 0 0 0 0 0 0 0 0 1
Neighs:    863968 ave 874541 max 853395 min
Histogram: 1 0 0 0 0 0 0 0 0 1

Total # of neighbors = 1727936
Ave neighs/atom = 87.9267
Neighbor list builds = 495
Dangerous builds not checked
Setting up Verlet run ...
  Unit style    : metal
  Current step  : 100495
  Time step     : 0.001
Per MPI rank memory allocation (min/avg/max) = 12.06 | 12.06 | 12.06 Mbytes
Step Temp Press TotEng PotEng Enthalpy 
  100495    2110.9506   -419.48876   -55517.974   -60879.981   -55592.601 
  110000    2100.8656   -1276.7527   -55613.612   -60950.002   -55840.456 
Loop time of 1154.24 on 2 procs for 9505 steps with 19652 atoms

Performance: 0.711 ns/day, 33.732 hours/ns, 8.235 timesteps/s
99.0% CPU use with 2 MPI tasks x no OpenMP threads

MPI task timing breakdown:
Section |  min time  |  avg time  |  max time  |%varavg| %total
---------------------------------------------------------------
Pair    | 643.14     | 654.59     | 666.03     |  44.7 | 56.71
Neigh   | 411.44     | 430.94     | 450.44     |  93.9 | 37.34
Comm    | 26.759     | 57.997     | 89.235     | 410.2 |  5.02
Output  | 0.14728    | 0.14731    | 0.14733    |   0.0 |  0.01
Modify  | 8.1715     | 8.2943     | 8.4171     |   4.3 |  0.72
Other   |            | 2.275      |            |       |  0.20

Nlocal:    9826 ave 9835 max 9817 min
Histogram: 1 0 0 0 0 0 0 0 0 1
Nghost:    13781 ave 13799 max 13763 min
Histogram: 1 0 0 0 0 0 0 0 0 1
Neighs:    865144 ave 873390 max 856898 min
Histogram: 1 0 0 0 0 0 0 0 0 1

Total # of neighbors = 1730288
Ave neighs/atom = 88.0464
Neighbor list builds = 9505
Dangerous builds not checked
Setting up Verlet run ...
  Unit style    : metal
  Current step  : 110000
  Time step     : 0.001
Per MPI rank memory allocation (min/avg/max) = 12.06 | 12.06 | 12.06 Mbytes
Step Temp Press TotEng PotEng Enthalpy 
  110000    2100.8656   -1276.7527   -55613.612   -60950.002   -55840.456 
  110495     2062.239    596.28972    -55855.42   -61093.695    -55750.08 
Loop time of 58.7463 on 2 procs for 495 steps with 19652 atoms

Performance: 0.728 ns/day, 32.966 hours/ns, 8.426 timesteps/s
97.9% CPU use with 2 MPI tasks x no OpenMP threads

MPI task timing breakdown:
Section |  min time  |  avg time  |  max time  |%varavg| %total
---------------------------------------------------------------
Pair    | 32.673     | 33.286     | 33.899     |  10.6 | 56.66
Neigh   | 22.375     | 22.448     | 22.521     |   1.5 | 38.21
Comm    | 1.7604     | 2.4483     | 3.1363     |  44.0 |  4.17
Output  | 8.3208e-05 | 0.0001086  | 0.00013399 |   0.0 |  0.00
Modify  | 0.44016    | 0.44017    | 0.44017    |   0.0 |  0.75
Other   |            | 0.1237     |            |       |  0.21

Nlocal:    9826 ave 9853 max 9799 min
Histogram: 1 0 0 0 0 0 0 0 0 1
Nghost:    13882.5 ave 13895 max 13870 min
Histogram: 1 0 0 0 0 0 0 0 0 1
Neighs:    870463 ave 876575 max 864351 min
Histogram: 1 0 0 0 0 0 0 0 0 1

Total # of neighbors = 1740926
Ave neighs/atom = 88.5877
Neighbor list builds = 495
Dangerous builds not checked
Setting up Verlet run ...
  Unit style    : metal
  Current step  : 110495
  Time step     : 0.001
Per MPI rank memory allocation (min/avg/max) = 12.06 | 12.06 | 12.06 Mbytes
Step Temp Press TotEng PotEng Enthalpy 
  110495     2062.239    596.28972    -55855.42   -61093.695    -55750.08 
  120000    2040.6489   -104.79149   -55883.988   -61067.422    -55902.52 
Loop time of 1171.07 on 2 procs for 9505 steps with 19652 atoms

Performance: 0.701 ns/day, 34.224 hours/ns, 8.117 timesteps/s
97.7% CPU use with 2 MPI tasks x no OpenMP threads

MPI task timing breakdown:
Section |  min time  |  avg time  |  max time  |%varavg| %total
---------------------------------------------------------------
Pair    | 658.59     | 666.3      | 674.02     |  29.9 | 56.90
Neigh   | 423.8      | 431.09     | 438.37     |  35.1 | 36.81
Comm    | 47.562     | 62.678     | 77.793     | 190.9 |  5.35
Output  | 0.18299    | 0.18301    | 0.18304    |   0.0 |  0.02
Modify  | 8.5185     | 8.5519     | 8.5852     |   1.1 |  0.73
Other   |            | 2.264      |            |       |  0.19

Nlocal:    9826 ave 9848 max 9804 min
Histogram: 1 0 0 0 0 0 0 0 0 1
Nghost:    13817 ave 13828 max 13806 min
Histogram: 1 0 0 0 0 0 0 0 0 1
Neighs:    869081 ave 881230 max 856932 min
Histogram: 1 0 0 0 0 0 0 0 0 1

Total # of neighbors = 1738162
Ave neighs/atom = 88.4471
Neighbor list builds = 9505
Dangerous builds not checked
Setting up Verlet run ...
  Unit style    : metal
  Current step  : 120000
  Time step     : 0.001
Per MPI rank memory allocation (min/avg/max) = 12.07 | 12.07 | 12.07 Mbytes
Step Temp Press TotEng PotEng Enthalpy 
  120000    2040.6489   -104.79149   -55883.988   -61067.422    -55902.52 
  120495    1996.9533     1076.039   -56145.994   -61218.437   -55956.687 
Loop time of 57.7627 on 2 procs for 495 steps with 19652 atoms

Performance: 0.740 ns/day, 32.415 hours/ns, 8.570 timesteps/s
99.8% CPU use with 2 MPI tasks x no OpenMP threads

MPI task timing breakdown:
Section |  min time  |  avg time  |  max time  |%varavg| %total
---------------------------------------------------------------
Pair    | 32.864     | 32.946     | 33.029     |   1.4 | 57.04
Neigh   | 21.738     | 22.012     | 22.286     |   5.8 | 38.11
Comm    | 1.8903     | 2.2526     | 2.615      |  24.1 |  3.90
Output  | 0.0001049  | 0.00013149 | 0.00015807 |   0.0 |  0.00
Modify  | 0.42337    | 0.42822    | 0.43308    |   0.7 |  0.74
Other   |            | 0.1236     |            |       |  0.21

Nlocal:    9826 ave 9831 max 9821 min
Histogram: 1 0 0 0 0 0 0 0 0 1
Nghost:    13856 ave 13864 max 13848 min
Histogram: 1 0 0 0 0 0 0 0 0 1
Neighs:    873334 ave 882667 max 864000 min
Histogram: 1 0 0 0 0 0 0 0 0 1

Total # of neighbors = 1746667
Ave neighs/atom = 88.8799
Neighbor list builds = 495
Dangerous builds not checked
Setting up Verlet run ...
  Unit style    : metal
  Current step  : 120495
  Time step     : 0.001
Per MPI rank memory allocation (min/avg/max) = 12.07 | 12.07 | 12.07 Mbytes
Step Temp Press TotEng PotEng Enthalpy 
  120495    1996.9533     1076.039   -56145.994   -61218.437   -55956.687 
  130000    1972.9127   -1728.6625   -56255.716   -61267.094   -56560.157 
Loop time of 1186.55 on 2 procs for 9505 steps with 19652 atoms

Performance: 0.692 ns/day, 34.676 hours/ns, 8.011 timesteps/s
97.6% CPU use with 2 MPI tasks x no OpenMP threads

MPI task timing breakdown:
Section |  min time  |  avg time  |  max time  |%varavg| %total
---------------------------------------------------------------
Pair    | 660.35     | 664.57     | 668.8      |  16.4 | 56.01
Neigh   | 445.57     | 446.3      | 447.03     |   3.5 | 37.61
Comm    | 59.338     | 64.145     | 68.953     |  60.0 |  5.41
Output  | 0.17341    | 0.17342    | 0.17344    |   0.0 |  0.01
Modify  | 8.7916     | 8.9376     | 9.0836     |   4.9 |  0.75
Other   |            | 2.427      |            |       |  0.20

Nlocal:    9826 ave 9840 max 9812 min
Histogram: 1 0 0 0 0 0 0 0 0 1
Nghost:    13810 ave 13820 max 13800 min
Histogram: 1 0 0 0 0 0 0 0 0 1
Neighs:    872404 ave 883388 max 861419 min
Histogram: 1 0 0 0 0 0 0 0 0 1

Total # of neighbors = 1744807
Ave neighs/atom = 88.7852
Neighbor list builds = 9505
Dangerous builds not checked
Setting up Verlet run ...
  Unit style    : metal
  Current step  : 130000
  Time step     : 0.001
Per MPI rank memory allocation (min/avg/max) = 12.07 | 12.07 | 12.07 Mbytes
Step Temp Press TotEng PotEng Enthalpy 
  130000    1972.9127   -1728.6625   -56255.716   -61267.094   -56560.157 
  130495    1966.2407   -1912.2928   -56442.361   -61436.791   -56777.858 
Loop time of 60.135 on 2 procs for 495 steps with 19652 atoms

Performance: 0.711 ns/day, 33.746 hours/ns, 8.231 timesteps/s
97.6% CPU use with 2 MPI tasks x no OpenMP threads

MPI task timing breakdown:
Section |  min time  |  avg time  |  max time  |%varavg| %total
---------------------------------------------------------------
Pair    | 32.693     | 33.095     | 33.497     |   7.0 | 55.03
Neigh   | 22.291     | 22.42      | 22.548     |   2.7 | 37.28
Comm    | 1.8176     | 2.0932     | 2.3689     |  19.1 |  3.48
Output  | 7.0095e-05 | 0.71527    | 1.4305     |  84.6 |  1.19
Modify  | 0.96988    | 0.97107    | 0.97226    |   0.1 |  1.61
Other   |            | 0.841      |            |       |  1.40

Nlocal:    9826 ave 9835 max 9817 min
Histogram: 1 0 0 0 0 0 0 0 0 1
Nghost:    13862.5 ave 13884 max 13841 min
Histogram: 1 0 0 0 0 0 0 0 0 1
Neighs:    875912 ave 888151 max 863672 min
Histogram: 1 0 0 0 0 0 0 0 0 1

Total # of neighbors = 1751823
Ave neighs/atom = 89.1422
Neighbor list builds = 495
Dangerous builds not checked
Setting up Verlet run ...
  Unit style    : metal
  Current step  : 130495
  Time step     : 0.001
Per MPI rank memory allocation (min/avg/max) = 12.07 | 12.07 | 12.07 Mbytes
Step Temp Press TotEng PotEng Enthalpy 
  130495    1966.2407   -1912.2928   -56442.361   -61436.791   -56777.858 
  140000    1953.7603    -1263.548   -56493.466   -61456.195   -56714.911 
Loop time of 1137.68 on 2 procs for 9505 steps with 19652 atoms

Performance: 0.722 ns/day, 33.248 hours/ns, 8.355 timesteps/s
98.9% CPU use with 2 MPI tasks x no OpenMP threads

MPI task timing breakdown:
Section |  min time  |  avg time  |  max time  |%varavg| %total
---------------------------------------------------------------
Pair    | 637.79     | 646.82     | 655.85     |  35.5 | 56.85
Neigh   | 425.82     | 433.17     | 440.52     |  35.3 | 38.07
Comm    | 30.481     | 46.981     | 63.481     | 240.7 |  4.13
Output  | 0.089893   | 0.089917   | 0.089941   |   0.0 |  0.01
Modify  | 8.234      | 8.2955     | 8.3569     |   2.1 |  0.73
Other   |            | 2.325      |            |       |  0.20

Nlocal:    9826 ave 9827 max 9825 min
Histogram: 1 0 0 0 0 0 0 0 0 1
Nghost:    13847.5 ave 13853 max 13842 min
Histogram: 1 0 0 0 0 0 0 0 0 1
Neighs:    876762 ave 886535 max 866990 min
Histogram: 1 0 0 0 0 0 0 0 0 1

Total # of neighbors = 1753525
Ave neighs/atom = 89.2288
Neighbor list builds = 9505
Dangerous builds not checked
Setting up Verlet run ...
  Unit style    : metal
  Current step  : 140000
  Time step     : 0.001
Per MPI rank memory allocation (min/avg/max) = 12.07 | 12.07 | 12.07 Mbytes
Step Temp Press TotEng PotEng Enthalpy 
  140000    1953.7603    -1263.548   -56493.466   -61456.195   -56714.911 
  140495     1903.185   -565.48181     -56720.3   -61554.563   -56819.002 
Loop time of 58.5914 on 2 procs for 495 steps with 19652 atoms

Performance: 0.730 ns/day, 32.880 hours/ns, 8.448 timesteps/s
99.5% CPU use with 2 MPI tasks x no OpenMP threads

MPI task timing breakdown:
Section |  min time  |  avg time  |  max time  |%varavg| %total
---------------------------------------------------------------
Pair    | 32.769     | 33.27      | 33.771     |   8.7 | 56.78
Neigh   | 22.316     | 22.421     | 22.525     |   2.2 | 38.27
Comm    | 1.7275     | 2.3417     | 2.9558     |  40.1 |  4.00
Output  | 8.2016e-05 | 0.00011599 | 0.00014997 |   0.0 |  0.00
Modify  | 0.42653    | 0.43433    | 0.44213    |   1.2 |  0.74
Other   |            | 0.1249     |            |       |  0.21

Nlocal:    9826 ave 9846 max 9806 min
Histogram: 1 0 0 0 0 0 0 0 0 1
Nghost:    13848.5 ave 13896 max 13801 min
Histogram: 1 0 0 0 0 0 0 0 0 1
Neighs:    880024 ave 887795 max 872252 min
Histogram: 1 0 0 0 0 0 0 0 0 1

Total # of neighbors = 1760047
Ave neighs/atom = 89.5607
Neighbor list builds = 495
Dangerous builds not checked
Setting up Verlet run ...
  Unit style    : metal
  Current step  : 140495
  Time step     : 0.001
Per MPI rank memory allocation (min/avg/max) = 12.07 | 12.07 | 12.07 Mbytes
Step Temp Press TotEng PotEng Enthalpy 
  140495     1903.185   -565.48181     -56720.3   -61554.563   -56819.002 
  150000    1916.6748    1702.3761   -56799.672   -61668.201   -56503.882 
Loop time of 1203.13 on 2 procs for 9505 steps with 19652 atoms

Performance: 0.683 ns/day, 35.161 hours/ns, 7.900 timesteps/s
96.8% CPU use with 2 MPI tasks x no OpenMP threads

MPI task timing breakdown:
Section |  min time  |  avg time  |  max time  |%varavg| %total
---------------------------------------------------------------
Pair    | 670.29     | 673.33     | 676.36     |  11.7 | 55.96
Neigh   | 415.73     | 431.42     | 447.12     |  75.6 | 35.86
Comm    | 68.568     | 87.574     | 106.58     | 203.1 |  7.28
Output  | 0.10246    | 0.10248    | 0.10251    |   0.0 |  0.01
Modify  | 8.2577     | 8.3986     | 8.5395     |   4.9 |  0.70
Other   |            | 2.301      |            |       |  0.19

Nlocal:    9826 ave 9855 max 9797 min
Histogram: 1 0 0 0 0 0 0 0 0 1
Nghost:    13878.5 ave 13906 max 13851 min
Histogram: 1 0 0 0 0 0 0 0 0 1
Neighs:    884140 ave 889872 max 878407 min
Histogram: 1 0 0 0 0 0 0 0 0 1

Total # of neighbors = 1768279
Ave neighs/atom = 89.9796
Neighbor list builds = 9505
Dangerous builds not checked
Setting up Verlet run ...
  Unit style    : metal
  Current step  : 150000
  Time step     : 0.001
Per MPI rank memory allocation (min/avg/max) = 12.07 | 12.07 | 12.08 Mbytes
Step Temp Press TotEng PotEng Enthalpy 
  150000    1916.6748    1702.3761   -56799.672   -61668.201   -56503.882 
  150495    1861.2774    609.66963   -56984.297   -61712.111   -56878.399 
Loop time of 50.7074 on 2 procs for 495 steps with 19652 atoms

Performance: 0.843 ns/day, 28.455 hours/ns, 9.762 timesteps/s
98.6% CPU use with 2 MPI tasks x no OpenMP threads

MPI task timing breakdown:
Section |  min time  |  avg time  |  max time  |%varavg| %total
---------------------------------------------------------------
Pair    | 28.443     | 28.495     | 28.547     |   1.0 | 56.19
Neigh   | 19.708     | 19.872     | 20.036     |   3.7 | 39.19
Comm    | 1.6409     | 1.8574     | 2.0739     |  15.9 |  3.66
Output  | 7.4148e-05 | 9.7632e-05 | 0.00012112 |   0.0 |  0.00
Modify  | 0.37911    | 0.38058    | 0.38205    |   0.2 |  0.75
Other   |            | 0.1027     |            |       |  0.20

Nlocal:    9826 ave 9834 max 9818 min
Histogram: 1 0 0 0 0 0 0 0 0 1
Nghost:    13883 ave 13886 max 13880 min
Histogram: 1 0 0 0 0 0 0 0 0 1
Neighs:    884774 ave 895774 max 873773 min
Histogram: 1 0 0 0 0 0 0 0 0 1

Total # of neighbors = 1769547
Ave neighs/atom = 90.0441
Neighbor list builds = 495
Dangerous builds not checked
Setting up Verlet run ...
  Unit style    : metal
  Current step  : 150495
  Time step     : 0.001
Per MPI rank memory allocation (min/avg/max) = 12.07 | 12.07 | 12.08 Mbytes
Step Temp Press TotEng PotEng Enthalpy 
  150495    1861.2774    609.66963   -56984.297   -61712.111   -56878.399 
  160000    1838.8579   -1843.7733   -57202.768   -61873.635   -57522.247 
Loop time of 1025 on 2 procs for 9505 steps with 19652 atoms

Performance: 0.801 ns/day, 29.955 hours/ns, 9.273 timesteps/s
98.9% CPU use with 2 MPI tasks x no OpenMP threads

MPI task timing breakdown:
Section |  min time  |  avg time  |  max time  |%varavg| %total
---------------------------------------------------------------
Pair    | 573.26     | 575.4      | 577.54     |   8.9 | 56.14
Neigh   | 399.93     | 401.87     | 403.81     |   9.7 | 39.21
Comm    | 36.769     | 36.94      | 37.112     |   2.8 |  3.60
Output  | 0.15928    | 0.15931    | 0.15934    |   0.0 |  0.02
Modify  | 8.5517     | 8.5675     | 8.5834     |   0.5 |  0.84
Other   |            | 2.065      |            |       |  0.20

Nlocal:    9826 ave 9829 max 9823 min
Histogram: 1 0 0 0 0 0 0 0 0 1
Nghost:    13945.5 ave 13964 max 13927 min
Histogram: 1 0 0 0 0 0 0 0 0 1
Neighs:    886262 ave 895870 max 876653 min
Histogram: 1 0 0 0 0 0 0 0 0 1

Total # of neighbors = 1772523
Ave neighs/atom = 90.1956
Neighbor list builds = 9505
Dangerous builds not checked
Setting up Verlet run ...
  Unit style    : metal
  Current step  : 160000
  Time step     : 0.001
Per MPI rank memory allocation (min/avg/max) = 12.08 | 12.08 | 12.08 Mbytes
Step Temp Press TotEng PotEng Enthalpy 
  160000    1838.8579   -1843.7733   -57202.768   -61873.635   -57522.247 
  160495    1809.6481   -1173.9418   -57254.981   -61851.652   -57458.422 
Loop time of 57.5637 on 2 procs for 495 steps with 19652 atoms

Performance: 0.743 ns/day, 32.303 hours/ns, 8.599 timesteps/s
99.2% CPU use with 2 MPI tasks x no OpenMP threads

MPI task timing breakdown:
Section |  min time  |  avg time  |  max time  |%varavg| %total
---------------------------------------------------------------
Pair    | 32.716     | 32.918     | 33.121     |   3.5 | 57.19
Neigh   | 22.175     | 22.2       | 22.225     |   0.5 | 38.57
Comm    | 1.6557     | 1.8841     | 2.1126     |  16.6 |  3.27
Output  | 8.0824e-05 | 0.00012732 | 0.00017381 |   0.0 |  0.00
Modify  | 0.43538    | 0.44079    | 0.44621    |   0.8 |  0.77
Other   |            | 0.1204     |            |       |  0.21

Nlocal:    9826 ave 9841 max 9811 min
Histogram: 1 0 0 0 0 0 0 0 0 1
Nghost:    13956.5 ave 13974 max 13939 min
Histogram: 1 0 0 0 0 0 0 0 0 1
Neighs:    886460 ave 894432 max 878489 min
Histogram: 1 0 0 0 0 0 0 0 0 1

Total # of neighbors = 1772921
Ave neighs/atom = 90.2158
Neighbor list builds = 495
Dangerous builds not checked
Setting up Verlet run ...
  Unit style    : metal
  Current step  : 160495
  Time step     : 0.001
Per MPI rank memory allocation (min/avg/max) = 12.08 | 12.08 | 12.08 Mbytes
Step Temp Press TotEng PotEng Enthalpy 
  160495    1809.6481   -1173.9418   -57254.981   -61851.652   -57458.422 
  170000    1792.8364    276.51954   -57462.461   -62016.428   -57414.774 
Loop time of 1129.73 on 2 procs for 9505 steps with 19652 atoms

Performance: 0.727 ns/day, 33.016 hours/ns, 8.414 timesteps/s
99.0% CPU use with 2 MPI tasks x no OpenMP threads

MPI task timing breakdown:
Section |  min time  |  avg time  |  max time  |%varavg| %total
---------------------------------------------------------------
Pair    | 639.59     | 641.61     | 643.62     |   8.0 | 56.79
Neigh   | 416.51     | 423.61     | 430.71     |  34.5 | 37.50
Comm    | 47.462     | 52.627     | 57.792     |  71.2 |  4.66
Output  | 1.4451     | 1.4451     | 1.4451     |   0.0 |  0.13
Modify  | 8.1369     | 8.1567     | 8.1765     |   0.7 |  0.72
Other   |            | 2.278      |            |       |  0.20

Nlocal:    9826 ave 9836 max 9816 min
Histogram: 1 0 0 0 0 0 0 0 0 1
Nghost:    14003.5 ave 14004 max 14003 min
Histogram: 1 0 0 0 0 0 0 0 0 1
Neighs:    890419 ave 897880 max 882958 min
Histogram: 1 0 0 0 0 0 0 0 0 1

Total # of neighbors = 1780838
Ave neighs/atom = 90.6187
Neighbor list builds = 9505
Dangerous builds not checked
Setting up Verlet run ...
  Unit style    : metal
  Current step  : 170000
  Time step     : 0.001
Per MPI rank memory allocation (min/avg/max) = 12.08 | 12.08 | 12.08 Mbytes
Step Temp Press TotEng PotEng Enthalpy 
  170000    1792.8364    276.51954   -57462.461   -62016.428   -57414.774 
  170495    1752.7284    882.74835   -57625.642   -62077.732   -57473.796 
Loop time of 58.8109 on 2 procs for 495 steps with 19652 atoms

Performance: 0.727 ns/day, 33.003 hours/ns, 8.417 timesteps/s
99.2% CPU use with 2 MPI tasks x no OpenMP threads

MPI task timing breakdown:
Section |  min time  |  avg time  |  max time  |%varavg| %total
---------------------------------------------------------------
Pair    | 33.656     | 33.789     | 33.923     |   2.3 | 57.45
Neigh   | 22.114     | 22.468     | 22.823     |   7.5 | 38.20
Comm    | 1.4948     | 1.989      | 2.4833     |  35.0 |  3.38
Output  | 0.00010085 | 0.00014293 | 0.00018501 |   0.0 |  0.00
Modify  | 0.43201    | 0.43789    | 0.44378    |   0.9 |  0.74
Other   |            | 0.126      |            |       |  0.21

Nlocal:    9826 ave 9842 max 9810 min
Histogram: 1 0 0 0 0 0 0 0 0 1
Nghost:    13992 ave 13992 max 13992 min
Histogram: 2 0 0 0 0 0 0 0 0 0
Neighs:    892673 ave 904466 max 880880 min
Histogram: 1 0 0 0 0 0 0 0 0 1

Total # of neighbors = 1785346
Ave neighs/atom = 90.8481
Neighbor list builds = 495
Dangerous builds not checked
Setting up Verlet run ...
  Unit style    : metal
  Current step  : 170495
  Time step     : 0.001
Per MPI rank memory allocation (min/avg/max) = 12.08 | 12.08 | 12.08 Mbytes
Step Temp Press TotEng PotEng Enthalpy 
  170495    1752.7284    882.74835   -57625.642   -62077.732   -57473.796 
  180000     1754.136    2216.3298   -57682.297   -62137.962    -57301.96 
Loop time of 1171.13 on 2 procs for 9505 steps with 19652 atoms

Performance: 0.701 ns/day, 34.226 hours/ns, 8.116 timesteps/s
97.8% CPU use with 2 MPI tasks x no OpenMP threads

MPI task timing breakdown:
Section |  min time  |  avg time  |  max time  |%varavg| %total
---------------------------------------------------------------
Pair    | 662.18     | 662.18     | 662.18     |   0.0 | 56.54
Neigh   | 422.25     | 429.02     | 435.78     |  32.7 | 36.63
Comm    | 62.159     | 69.01      | 75.862     |  82.5 |  5.89
Output  | 0.081579   | 0.081607   | 0.081634   |   0.0 |  0.01
Modify  | 8.4917     | 8.5283     | 8.5649     |   1.3 |  0.73
Other   |            | 2.311      |            |       |  0.20

Nlocal:    9826 ave 9845 max 9807 min
Histogram: 1 0 0 0 0 0 0 0 0 1
Nghost:    14012 ave 14024 max 14000 min
Histogram: 1 0 0 0 0 0 0 0 0 1
Neighs:    894536 ave 902568 max 886504 min
Histogram: 1 0 0 0 0 0 0 0 0 1

Total # of neighbors = 1789072
Ave neighs/atom = 91.0377
Neighbor list builds = 9505
Dangerous builds not checked
Setting up Verlet run ...
  Unit style    : metal
  Current step  : 180000
  Time step     : 0.001
Per MPI rank memory allocation (min/avg/max) = 12.08 | 12.08 | 12.08 Mbytes
Step Temp Press TotEng PotEng Enthalpy 
  180000     1754.136    2216.3298   -57682.297   -62137.962    -57301.96 
  180495    1725.2309    1728.0489   -57921.819   -62304.062   -57626.522 
Loop time of 60.4369 on 2 procs for 495 steps with 19652 atoms

Performance: 0.708 ns/day, 33.915 hours/ns, 8.190 timesteps/s
96.0% CPU use with 2 MPI tasks x no OpenMP threads

MPI task timing breakdown:
Section |  min time  |  avg time  |  max time  |%varavg| %total
---------------------------------------------------------------
Pair    | 33.415     | 33.598     | 33.781     |   3.2 | 55.59
Neigh   | 21.748     | 21.782     | 21.816     |   0.7 | 36.04
Comm    | 4.3588     | 4.508      | 4.6573     |   7.0 |  7.46
Output  | 7.2956e-05 | 9.954e-05  | 0.00012612 |   0.0 |  0.00
Modify  | 0.42117    | 0.42354    | 0.42592    |   0.4 |  0.70
Other   |            | 0.1253     |            |       |  0.21

Nlocal:    9826 ave 9855 max 9797 min
Histogram: 1 0 0 0 0 0 0 0 0 1
Nghost:    14040.5 ave 14088 max 13993 min
Histogram: 1 0 0 0 0 0 0 0 0 1
Neighs:    898752 ave 906339 max 891165 min
Histogram: 1 0 0 0 0 0 0 0 0 1

Total # of neighbors = 1797504
Ave neighs/atom = 91.4667
Neighbor list builds = 495
Dangerous builds not checked
Setting up Verlet run ...
  Unit style    : metal
  Current step  : 180495
  Time step     : 0.001
Per MPI rank memory allocation (min/avg/max) = 12.08 | 12.08 | 12.08 Mbytes
Step Temp Press TotEng PotEng Enthalpy 
  180495    1725.2309    1728.0489   -57921.819   -62304.062   -57626.522 
  190000     1724.213    754.54874   -57982.555   -62362.213   -57853.624 
Loop time of 1157.44 on 2 procs for 9505 steps with 19652 atoms

Performance: 0.710 ns/day, 33.825 hours/ns, 8.212 timesteps/s
98.0% CPU use with 2 MPI tasks x no OpenMP threads

MPI task timing breakdown:
Section |  min time  |  avg time  |  max time  |%varavg| %total
---------------------------------------------------------------
Pair    | 640.2      | 650.74     | 661.29     |  41.3 | 56.22
Neigh   | 402.15     | 420.01     | 437.88     |  87.2 | 36.29
Comm    | 46.639     | 75.343     | 104.05     | 330.7 |  6.51
Output  | 0.23147    | 0.23148    | 0.2315     |   0.0 |  0.02
Modify  | 8.7081     | 8.8759     | 9.0438     |   5.6 |  0.77
Other   |            | 2.23       |            |       |  0.19

Nlocal:    9826 ave 9830 max 9822 min
Histogram: 1 0 0 0 0 0 0 0 0 1
Nghost:    14018.5 ave 14041 max 13996 min
Histogram: 1 0 0 0 0 0 0 0 0 1
Neighs:    898454 ave 908544 max 888365 min
Histogram: 1 0 0 0 0 0 0 0 0 1

Total # of neighbors = 1796909
Ave neighs/atom = 91.4364
Neighbor list builds = 9505
Dangerous builds not checked
Setting up Verlet run ...
  Unit style    : metal
  Current step  : 190000
  Time step     : 0.001
Per MPI rank memory allocation (min/avg/max) = 12.08 | 12.08 | 12.08 Mbytes
Step Temp Press TotEng PotEng Enthalpy 
  190000     1724.213    754.54874   -57982.555   -62362.213   -57853.624 
  190495    1651.3046    1545.7348   -58242.732   -62437.196   -57979.565 
Loop time of 55.8884 on 2 procs for 495 steps with 19652 atoms

Performance: 0.765 ns/day, 31.363 hours/ns, 8.857 timesteps/s
98.2% CPU use with 2 MPI tasks x no OpenMP threads

MPI task timing breakdown:
Section |  min time  |  avg time  |  max time  |%varavg| %total
---------------------------------------------------------------
Pair    | 30.872     | 31.643     | 32.414     |  13.7 | 56.62
Neigh   | 18.983     | 20.512     | 22.04      |  33.8 | 36.70
Comm    | 0.89663    | 3.2233     | 5.5499     | 129.6 |  5.77
Output  | 7.6771e-05 | 0.00010192 | 0.00012708 |   0.0 |  0.00
Modify  | 0.38363    | 0.39731    | 0.411      |   2.2 |  0.71
Other   |            | 0.1132     |            |       |  0.20

Nlocal:    9826 ave 9850 max 9802 min
Histogram: 1 0 0 0 0 0 0 0 0 1
Nghost:    14008 ave 14023 max 13993 min
Histogram: 1 0 0 0 0 0 0 0 0 1
Neighs:    901719 ave 907912 max 895526 min
Histogram: 1 0 0 0 0 0 0 0 0 1

Total # of neighbors = 1803438
Ave neighs/atom = 91.7687
Neighbor list builds = 495
Dangerous builds not checked
Setting up Verlet run ...
  Unit style    : metal
  Current step  : 190495
  Time step     : 0.001
Per MPI rank memory allocation (min/avg/max) = 12.08 | 12.08 | 12.08 Mbytes
Step Temp Press TotEng PotEng Enthalpy 
  190495    1651.3046    1545.7348   -58242.732   -62437.196   -57979.565 
  200000    1661.7357    1448.8053   -58349.692   -62570.652   -58103.619 
Loop time of 1129.68 on 2 procs for 9505 steps with 19652 atoms

Performance: 0.727 ns/day, 33.014 hours/ns, 8.414 timesteps/s
98.1% CPU use with 2 MPI tasks x no OpenMP threads

MPI task timing breakdown:
Section |  min time  |  avg time  |  max time  |%varavg| %total
---------------------------------------------------------------
Pair    | 637.24     | 649.62     | 661.99     |  48.6 | 57.50
Neigh   | 377.01     | 400.53     | 424.06     | 117.6 | 35.46
Comm    | 31.326     | 67.613     | 103.9      | 441.3 |  5.99
Output  | 1.7984     | 1.7984     | 1.7984     |   0.0 |  0.16
Modify  | 7.7905     | 7.9757     | 8.1609     |   6.6 |  0.71
Other   |            | 2.141      |            |       |  0.19

Nlocal:    9826 ave 9852 max 9800 min
Histogram: 1 0 0 0 0 0 0 0 0 1
Nghost:    14069 ave 14093 max 14045 min
Histogram: 1 0 0 0 0 0 0 0 0 1
Neighs:    903870 ave 910205 max 897535 min
Histogram: 1 0 0 0 0 0 0 0 0 1

Total # of neighbors = 1807740
Ave neighs/atom = 91.9876
Neighbor list builds = 9505
Dangerous builds not checked
Setting up Verlet run ...
  Unit style    : metal
  Current step  : 200000
  Time step     : 0.001
Per MPI rank memory allocation (min/avg/max) = 12.08 | 12.09 | 12.09 Mbytes
Step Temp Press TotEng PotEng Enthalpy 
  200000    1661.7357    1448.8053   -58349.692   -62570.652   -58103.619 
  200495    1627.6367    1308.8158   -58516.021   -62650.366   -58294.188 
Loop time of 54.0523 on 2 procs for 495 steps with 19652 atoms

Performance: 0.791 ns/day, 30.332 hours/ns, 9.158 timesteps/s
93.6% CPU use with 2 MPI tasks x no OpenMP threads

MPI task timing breakdown:
Section |  min time  |  avg time  |  max time  |%varavg| %total
---------------------------------------------------------------
Pair    | 28.955     | 29.351     | 29.748     |   7.3 | 54.30
Neigh   | 18.71      | 19.11      | 19.51      |   9.1 | 35.35
Comm    | 4.5617     | 4.6668     | 4.7719     |   4.9 |  8.63
Output  | 6.485e-05  | 7.987e-05  | 9.4891e-05 |   0.0 |  0.00
Modify  | 0.71419    | 0.81911    | 0.92403    |  11.6 |  1.52
Other   |            | 0.1053     |            |       |  0.19

Nlocal:    9826 ave 9843 max 9809 min
Histogram: 1 0 0 0 0 0 0 0 0 1
Nghost:    14053 ave 14066 max 14040 min
Histogram: 1 0 0 0 0 0 0 0 0 1
Neighs:    905568 ave 912068 max 899067 min
Histogram: 1 0 0 0 0 0 0 0 0 1

Total # of neighbors = 1811135
Ave neighs/atom = 92.1603
Neighbor list builds = 495
Dangerous builds not checked
Setting up Verlet run ...
  Unit style    : metal
  Current step  : 200495
  Time step     : 0.001
Per MPI rank memory allocation (min/avg/max) = 12.08 | 12.09 | 12.09 Mbytes
Step Temp Press TotEng PotEng Enthalpy 
  200495    1627.6367    1308.8158   -58516.021   -62650.366   -58294.188 
  210000    1605.1251   -929.49115   -58684.082   -62761.245   -58841.506 
Loop time of 1127.45 on 2 procs for 9505 steps with 19652 atoms

Performance: 0.728 ns/day, 32.949 hours/ns, 8.431 timesteps/s
97.7% CPU use with 2 MPI tasks x no OpenMP threads

MPI task timing breakdown:
Section |  min time  |  avg time  |  max time  |%varavg| %total
---------------------------------------------------------------
Pair    | 642.27     | 643.65     | 645.04     |   5.5 | 57.09
Neigh   | 396.77     | 410.99     | 425.2      |  70.1 | 36.45
Comm    | 46.613     | 62.47      | 78.326     | 200.6 |  5.54
Output  | 0.057988   | 0.058013   | 0.058038   |   0.0 |  0.01
Modify  | 7.9138     | 8.0575     | 8.2012     |   5.1 |  0.71
Other   |            | 2.219      |            |       |  0.20

Nlocal:    9826 ave 9829 max 9823 min
Histogram: 1 0 0 0 0 0 0 0 0 1
Nghost:    14060.5 ave 14067 max 14054 min
Histogram: 1 0 0 0 0 0 0 0 0 1
Neighs:    906150 ave 914541 max 897758 min
Histogram: 1 0 0 0 0 0 0 0 0 1

Total # of neighbors = 1812299
Ave neighs/atom = 92.2196
Neighbor list builds = 9505
Dangerous builds not checked
Setting up Verlet run ...
  Unit style    : metal
  Current step  : 210000
  Time step     : 0.001
Per MPI rank memory allocation (min/avg/max) = 12.09 | 12.09 | 12.09 Mbytes
Step Temp Press TotEng PotEng Enthalpy 
  210000    1605.1251   -929.49115   -58684.082   -62761.245   -58841.506 
  210495    1564.7876   -827.63758   -58885.672   -62860.375   -59025.497 
Loop time of 53.5109 on 2 procs for 495 steps with 19652 atoms

Performance: 0.799 ns/day, 30.029 hours/ns, 9.250 timesteps/s
99.9% CPU use with 2 MPI tasks x no OpenMP threads

MPI task timing breakdown:
Section |  min time  |  avg time  |  max time  |%varavg| %total
---------------------------------------------------------------
Pair    | 30.469     | 30.539     | 30.608     |   1.3 | 57.07
Neigh   | 18.097     | 19.695     | 21.293     |  36.0 | 36.81
Comm    | 1.2371     | 2.7942     | 4.3514     |  93.2 |  5.22
Output  | 6.7949e-05 | 0.0001055  | 0.00014305 |   0.0 |  0.00
Modify  | 0.36114    | 0.37715    | 0.39316    |   2.6 |  0.70
Other   |            | 0.106      |            |       |  0.20

Nlocal:    9826 ave 9836 max 9816 min
Histogram: 1 0 0 0 0 0 0 0 0 1
Nghost:    14071.5 ave 14074 max 14069 min
Histogram: 1 0 0 0 0 0 0 0 0 1
Neighs:    907936 ave 919447 max 896425 min
Histogram: 1 0 0 0 0 0 0 0 0 1

Total # of neighbors = 1815872
Ave neighs/atom = 92.4014
Neighbor list builds = 495
Dangerous builds not checked
Setting up Verlet run ...
  Unit style    : metal
  Current step  : 210495
  Time step     : 0.001
Per MPI rank memory allocation (min/avg/max) = 12.09 | 12.09 | 12.09 Mbytes
Step Temp Press TotEng PotEng Enthalpy 
  210495    1564.7876   -827.63758   -58885.672   -62860.375   -59025.497 
  220000    1543.1987    129.83478   -58937.515   -62857.381   -58915.603 
Loop time of 1154.44 on 2 procs for 9505 steps with 19652 atoms

Performance: 0.711 ns/day, 33.738 hours/ns, 8.233 timesteps/s
98.1% CPU use with 2 MPI tasks x no OpenMP threads

MPI task timing breakdown:
Section |  min time  |  avg time  |  max time  |%varavg| %total
---------------------------------------------------------------
Pair    | 656.22     | 658.24     | 660.26     |   7.9 | 57.02
Neigh   | 414.24     | 416.59     | 418.93     |  11.5 | 36.09
Comm    | 68.433     | 68.726     | 69.019     |   3.5 |  5.95
Output  | 0.04543    | 0.045447   | 0.045464   |   0.0 |  0.00
Modify  | 8.4796     | 8.5563     | 8.633      |   2.6 |  0.74
Other   |            | 2.28       |            |       |  0.20

Nlocal:    9826 ave 9830 max 9822 min
Histogram: 1 0 0 0 0 0 0 0 0 1
Nghost:    14091 ave 14110 max 14072 min
Histogram: 1 0 0 0 0 0 0 0 0 1
Neighs:    909069 ave 919775 max 898363 min
Histogram: 1 0 0 0 0 0 0 0 0 1

Total # of neighbors = 1818138
Ave neighs/atom = 92.5167
Neighbor list builds = 9505
Dangerous builds not checked
Setting up Verlet run ...
  Unit style    : metal
  Current step  : 220000
  Time step     : 0.001
Per MPI rank memory allocation (min/avg/max) = 12.09 | 12.09 | 12.09 Mbytes
Step Temp Press TotEng PotEng Enthalpy 
  220000    1543.1987    129.83478   -58937.515   -62857.381   -58915.603 
  220495    1518.6024   -197.02038   -59161.186   -63018.575    -59194.31 
Loop time of 49.1828 on 2 procs for 495 steps with 19652 atoms

Performance: 0.870 ns/day, 27.600 hours/ns, 10.064 timesteps/s
99.5% CPU use with 2 MPI tasks x no OpenMP threads

MPI task timing breakdown:
Section |  min time  |  avg time  |  max time  |%varavg| %total
---------------------------------------------------------------
Pair    | 27.653     | 27.895     | 28.136     |   4.6 | 56.72
Neigh   | 18.224     | 18.755     | 19.286     |  12.3 | 38.13
Comm    | 1.7591     | 2.0602     | 2.3614     |  21.0 |  4.19
Output  | 7.0095e-05 | 9.203e-05  | 0.00011396 |   0.0 |  0.00
Modify  | 0.3655     | 0.37434    | 0.38318    |   1.4 |  0.76
Other   |            | 0.0984     |            |       |  0.20

Nlocal:    9826 ave 9832 max 9820 min
Histogram: 1 0 0 0 0 0 0 0 0 1
Nghost:    14164 ave 14168 max 14160 min
Histogram: 1 0 0 0 0 0 0 0 0 1
Neighs:    912702 ave 921629 max 903776 min
Histogram: 1 0 0 0 0 0 0 0 0 1

Total # of neighbors = 1825405
Ave neighs/atom = 92.8865
Neighbor list builds = 495
Dangerous builds not checked
Setting up Verlet run ...
  Unit style    : metal
  Current step  : 220495
  Time step     : 0.001
Per MPI rank memory allocation (min/avg/max) = 12.09 | 12.09 | 12.09 Mbytes
Step Temp Press TotEng PotEng Enthalpy 
  220495    1518.6024   -197.02038   -59161.186   -63018.575    -59194.31 
  230000    1504.5657   -1602.9127   -59265.738   -63087.472   -59535.165 
Loop time of 1092.33 on 2 procs for 9505 steps with 19652 atoms

Performance: 0.752 ns/day, 31.923 hours/ns, 8.702 timesteps/s
97.6% CPU use with 2 MPI tasks x no OpenMP threads

MPI task timing breakdown:
Section |  min time  |  avg time  |  max time  |%varavg| %total
---------------------------------------------------------------
Pair    | 623.09     | 624.75     | 626.41     |   6.6 | 57.19
Neigh   | 386.23     | 394.25     | 402.28     |  40.4 | 36.09
Comm    | 54.893     | 61.354     | 67.815     |  82.5 |  5.62
Output  | 0.16963    | 0.16965    | 0.16968    |   0.0 |  0.02
Modify  | 9.6278     | 9.6627     | 9.6977     |   1.1 |  0.88
Other   |            | 2.136      |            |       |  0.20

Nlocal:    9826 ave 9837 max 9815 min
Histogram: 1 0 0 0 0 0 0 0 0 1
Nghost:    14105 ave 14138 max 14072 min
Histogram: 1 0 0 0 0 0 0 0 0 1
Neighs:    912431 ave 918883 max 905979 min
Histogram: 1 0 0 0 0 0 0 0 0 1

Total # of neighbors = 1824862
Ave neighs/atom = 92.8588
Neighbor list builds = 9505
Dangerous builds not checked
Setting up Verlet run ...
  Unit style    : metal
  Current step  : 230000
  Time step     : 0.001
Per MPI rank memory allocation (min/avg/max) = 12.09 | 12.09 | 12.09 Mbytes
Step Temp Press TotEng PotEng Enthalpy 
  230000    1504.5657   -1602.9127   -59265.738   -63087.472   -59535.165 
  230495    1463.4502   -1193.4722   -59515.593    -63232.89   -59715.422 
Loop time of 58.4721 on 2 procs for 495 steps with 19652 atoms

Performance: 0.731 ns/day, 32.813 hours/ns, 8.466 timesteps/s
97.9% CPU use with 2 MPI tasks x no OpenMP threads

MPI task timing breakdown:
Section |  min time  |  avg time  |  max time  |%varavg| %total
---------------------------------------------------------------
Pair    | 33.236     | 33.283     | 33.33      |   0.8 | 56.92
Neigh   | 20.248     | 20.451     | 20.655     |   4.5 | 34.98
Comm    | 3.8797     | 4.1714     | 4.4631     |  14.3 |  7.13
Output  | 9.4175e-05 | 0.00010753 | 0.00012088 |   0.0 |  0.00
Modify  | 0.40971    | 0.44643    | 0.48315    |   5.5 |  0.76
Other   |            | 0.1202     |            |       |  0.21

Nlocal:    9826 ave 9848 max 9804 min
Histogram: 1 0 0 0 0 0 0 0 0 1
Nghost:    14150 ave 14171 max 14129 min
Histogram: 1 0 0 0 0 0 0 0 0 1
Neighs:    916248 ave 922088 max 910408 min
Histogram: 1 0 0 0 0 0 0 0 0 1

Total # of neighbors = 1832496
Ave neighs/atom = 93.2473
Neighbor list builds = 495
Dangerous builds not checked
Setting up Verlet run ...
  Unit style    : metal
  Current step  : 230495
  Time step     : 0.001
Per MPI rank memory allocation (min/avg/max) = 12.09 | 12.09 | 12.09 Mbytes
Step Temp Press TotEng PotEng Enthalpy 
  230495    1463.4502   -1193.4722   -59515.593    -63232.89   -59715.422 
  240000    1438.1217     970.5553   -59709.099   -63362.059   -59547.489 
Loop time of 1074.1 on 2 procs for 9505 steps with 19652 atoms

Performance: 0.765 ns/day, 31.390 hours/ns, 8.849 timesteps/s
96.4% CPU use with 2 MPI tasks x no OpenMP threads

MPI task timing breakdown:
Section |  min time  |  avg time  |  max time  |%varavg| %total
---------------------------------------------------------------
Pair    | 611.38     | 618.28     | 625.17     |  27.7 | 57.56
Neigh   | 380.67     | 381.94     | 383.21     |   6.5 | 35.56
Comm    | 56.038     | 64.21      | 72.383     | 102.0 |  5.98
Output  | 0.2352     | 0.23521    | 0.23522    |   0.0 |  0.02
Modify  | 7.4048     | 7.427      | 7.4492     |   0.8 |  0.69
Other   |            | 2.013      |            |       |  0.19

Nlocal:    9826 ave 9835 max 9817 min
Histogram: 1 0 0 0 0 0 0 0 0 1
Nghost:    14182 ave 14207 max 14157 min
Histogram: 1 0 0 0 0 0 0 0 0 1
Neighs:    920621 ave 929414 max 911828 min
Histogram: 1 0 0 0 0 0 0 0 0 1

Total # of neighbors = 1841242
Ave neighs/atom = 93.6923
Neighbor list builds = 9505
Dangerous builds not checked
Setting up Verlet run ...
  Unit style    : metal
  Current step  : 240000
  Time step     : 0.001
Per MPI rank memory allocation (min/avg/max) = 12.09 | 12.09 | 12.09 Mbytes
Step Temp Press TotEng PotEng Enthalpy 
  240000    1438.1217     970.5553   -59709.099   -63362.059   -59547.489 
  240495    1416.4592    1902.8028    -59841.89   -63439.826   -59525.763 
Loop time of 54.9008 on 2 procs for 495 steps with 19652 atoms

Performance: 0.779 ns/day, 30.809 hours/ns, 9.016 timesteps/s
99.5% CPU use with 2 MPI tasks x no OpenMP threads

MPI task timing breakdown:
Section |  min time  |  avg time  |  max time  |%varavg| %total
---------------------------------------------------------------
Pair    | 30.978     | 31.48      | 31.982     |   8.9 | 57.34
Neigh   | 19.107     | 20.015     | 20.923     |  20.3 | 36.46
Comm    | 1.4802     | 2.9044     | 4.3287     |  83.6 |  5.29
Output  | 6.9857e-05 | 0.0001049  | 0.00013995 |   0.0 |  0.00
Modify  | 0.38142    | 0.38883    | 0.39625    |   1.2 |  0.71
Other   |            | 0.113      |            |       |  0.21

Nlocal:    9826 ave 9832 max 9820 min
Histogram: 1 0 0 0 0 0 0 0 0 1
Nghost:    14208.5 ave 14246 max 14171 min
Histogram: 1 0 0 0 0 0 0 0 0 1
Neighs:    922886 ave 931898 max 913873 min
Histogram: 1 0 0 0 0 0 0 0 0 1

Total # of neighbors = 1845771
Ave neighs/atom = 93.9228
Neighbor list builds = 495
Dangerous builds not checked
Setting up Verlet run ...
  Unit style    : metal
  Current step  : 240495
  Time step     : 0.001
Per MPI rank memory allocation (min/avg/max) = 12.09 | 12.09 | 12.09 Mbytes
Step Temp Press TotEng PotEng Enthalpy 
  240495    1416.4592    1902.8028    -59841.89   -63439.826   -59525.763 
  250000    1395.9579   -1057.4387   -59962.019    -63507.88   -60137.858 
Loop time of 1262.34 on 2 procs for 9505 steps with 19652 atoms

Performance: 0.651 ns/day, 36.891 hours/ns, 7.530 timesteps/s
90.4% CPU use with 2 MPI tasks x no OpenMP threads

MPI task timing breakdown:
Section |  min time  |  avg time  |  max time  |%varavg| %total
---------------------------------------------------------------
Pair    | 708.85     | 714.24     | 719.62     |  20.1 | 56.58
Neigh   | 434.55     | 435.83     | 437.11     |   6.1 | 34.53
Comm    | 91.599     | 94.638     | 97.677     |  31.2 |  7.50
Output  | 0.1456     | 0.14561    | 0.14563    |   0.0 |  0.01
Modify  | 11.429     | 15.101     | 18.774     |  94.5 |  1.20
Other   |            | 2.386      |            |       |  0.19

Nlocal:    9826 ave 9827 max 9825 min
Histogram: 1 0 0 0 0 0 0 0 0 1
Nghost:    14161 ave 14163 max 14159 min
Histogram: 1 0 0 0 0 0 0 0 0 1
Neighs:    922110 ave 931778 max 912443 min
Histogram: 1 0 0 0 0 0 0 0 0 1

Total # of neighbors = 1844221
Ave neighs/atom = 93.8439
Neighbor list builds = 9505
Dangerous builds not checked
Setting up Verlet run ...
  Unit style    : metal
  Current step  : 250000
  Time step     : 0.001
Per MPI rank memory allocation (min/avg/max) = 12.09 | 12.09 | 12.09 Mbytes
Step Temp Press TotEng PotEng Enthalpy 
  250000    1395.9579   -1057.4387   -59962.019    -63507.88   -60137.858 
  250495    1367.2204    -1982.804   -60130.939   -63603.803   -60460.073 
Loop time of 69.8235 on 2 procs for 495 steps with 19652 atoms

Performance: 0.613 ns/day, 39.183 hours/ns, 7.089 timesteps/s
86.4% CPU use with 2 MPI tasks x no OpenMP threads

MPI task timing breakdown:
Section |  min time  |  avg time  |  max time  |%varavg| %total
---------------------------------------------------------------
Pair    | 38.638     | 38.936     | 39.234     |   4.8 | 55.76
Neigh   | 20.618     | 21.553     | 22.487     |  20.1 | 30.87
Comm    | 7.8553     | 8.5108     | 9.1663     |  22.5 | 12.19
Output  | 7.2956e-05 | 0.015095   | 0.030117   |  12.2 |  0.02
Modify  | 0.6582     | 0.66465    | 0.67111    |   0.8 |  0.95
Other   |            | 0.1439     |            |       |  0.21

Nlocal:    9826 ave 9850 max 9802 min
Histogram: 1 0 0 0 0 0 0 0 0 1
Nghost:    14196 ave 14216 max 14176 min
Histogram: 1 0 0 0 0 0 0 0 0 1
Neighs:    923484 ave 936485 max 910483 min
Histogram: 1 0 0 0 0 0 0 0 0 1

Total # of neighbors = 1846968
Ave neighs/atom = 93.9837
Neighbor list builds = 495
Dangerous builds not checked
Setting up Verlet run ...
  Unit style    : metal
  Current step  : 250495
  Time step     : 0.001
Per MPI rank memory allocation (min/avg/max) = 12.09 | 12.09 | 12.09 Mbytes
Step Temp Press TotEng PotEng Enthalpy 
  250495    1367.2204    -1982.804   -60130.939   -63603.803   -60460.073 
  260000    1358.6266    1929.1878   -60254.866   -63705.901   -59936.576 
Loop time of 1476.89 on 2 procs for 9505 steps with 19652 atoms

Performance: 0.556 ns/day, 43.161 hours/ns, 6.436 timesteps/s
84.5% CPU use with 2 MPI tasks x no OpenMP threads

MPI task timing breakdown:
Section |  min time  |  avg time  |  max time  |%varavg| %total
---------------------------------------------------------------
Pair    | 815.24     | 826.46     | 837.68     |  39.0 | 55.96
Neigh   | 444.19     | 456.25     | 468.31     |  56.5 | 30.89
Comm    | 148.92     | 174.55     | 200.17     | 194.0 | 11.82
Output  | 0.058123   | 0.058156   | 0.058189   |   0.0 |  0.00
Modify  | 14.767     | 17.068     | 19.368     |  55.7 |  1.16
Other   |            | 2.508      |            |       |  0.17

Nlocal:    9826 ave 9840 max 9812 min
Histogram: 1 0 0 0 0 0 0 0 0 1
Nghost:    14220.5 ave 14272 max 14169 min
Histogram: 1 0 0 0 0 0 0 0 0 1
Neighs:    929114 ave 938073 max 920155 min
Histogram: 1 0 0 0 0 0 0 0 0 1

Total # of neighbors = 1858228
Ave neighs/atom = 94.5567
Neighbor list builds = 9505
Dangerous builds not checked
Setting up Verlet run ...
  Unit style    : metal
  Current step  : 260000
  Time step     : 0.001
Per MPI rank memory allocation (min/avg/max) = 12.09 | 12.09 | 12.09 Mbytes
Step Temp Press TotEng PotEng Enthalpy 
  260000    1358.6266    1929.1878   -60254.866   -63705.901   -59936.576 
  260495    1321.8183    1261.7079   -60475.494   -63833.033   -60267.766 
Loop time of 86.3038 on 2 procs for 495 steps with 19652 atoms

Performance: 0.496 ns/day, 48.431 hours/ns, 5.736 timesteps/s
81.1% CPU use with 2 MPI tasks x no OpenMP threads

MPI task timing breakdown:
Section |  min time  |  avg time  |  max time  |%varavg| %total
---------------------------------------------------------------
Pair    | 49.774     | 50.145     | 50.515     |   5.2 | 58.10
Neigh   | 26.615     | 28.497     | 30.379     |  35.3 | 33.02
Comm    | 4.4482     | 6.7366     | 9.025      |  88.2 |  7.81
Output  | 6.9141e-05 | 0.00010717 | 0.0001452  |   0.0 |  0.00
Modify  | 0.74622    | 0.76576    | 0.78529    |   2.2 |  0.89
Other   |            | 0.1596     |            |       |  0.18

Nlocal:    9826 ave 9836 max 9816 min
Histogram: 1 0 0 0 0 0 0 0 0 1
Nghost:    14260.5 ave 14266 max 14255 min
Histogram: 1 0 0 0 0 0 0 0 0 1
Neighs:    930879 ave 938890 max 922868 min
Histogram: 1 0 0 0 0 0 0 0 0 1

Total # of neighbors = 1861758
Ave neighs/atom = 94.7363
Neighbor list builds = 495
Dangerous builds not checked
Setting up Verlet run ...
  Unit style    : metal
  Current step  : 260495
  Time step     : 0.001
Per MPI rank memory allocation (min/avg/max) = 12.09 | 12.09 | 12.09 Mbytes
Step Temp Press TotEng PotEng Enthalpy 
  260495    1321.8183    1261.7079   -60475.494   -63833.033   -60267.766 
  270000    1284.5956    434.25915   -60631.066   -63894.056   -60559.654 
Loop time of 1364.72 on 2 procs for 9505 steps with 19652 atoms

Performance: 0.602 ns/day, 39.883 hours/ns, 6.965 timesteps/s
86.6% CPU use with 2 MPI tasks x no OpenMP threads

MPI task timing breakdown:
Section |  min time  |  avg time  |  max time  |%varavg| %total
---------------------------------------------------------------
Pair    | 761.59     | 766.75     | 771.9      |  18.6 | 56.18
Neigh   | 435.53     | 437.58     | 439.63     |   9.8 | 32.06
Comm    | 139.49     | 143.49     | 147.48     |  33.3 | 10.51
Output  | 0.04744    | 0.047454   | 0.047468   |   0.0 |  0.00
Modify  | 13.551     | 14.476     | 15.401     |  24.3 |  1.06
Other   |            | 2.384      |            |       |  0.17

Nlocal:    9826 ave 9830 max 9822 min
Histogram: 1 0 0 0 0 0 0 0 0 1
Nghost:    14197.5 ave 14243 max 14152 min
Histogram: 1 0 0 0 0 0 0 0 0 1
Neighs:    931954 ave 941775 max 922134 min
Histogram: 1 0 0 0 0 0 0 0 0 1

Total # of neighbors = 1863909
Ave neighs/atom = 94.8458
Neighbor list builds = 9505
Dangerous builds not checked
Setting up Verlet run ...
  Unit style    : metal
  Current step  : 270000
  Time step     : 0.001
Per MPI rank memory allocation (min/avg/max) = 12.09 | 12.09 | 12.09 Mbytes
Step Temp Press TotEng PotEng Enthalpy 
  270000    1284.5956    434.25915   -60631.066   -63894.056   -60559.654 
  270495     1258.501    1130.0053   -60819.464   -64016.172   -60634.241 
Loop time of 50.783 on 2 procs for 495 steps with 19652 atoms

Performance: 0.842 ns/day, 28.498 hours/ns, 9.747 timesteps/s
91.9% CPU use with 2 MPI tasks x no OpenMP threads

MPI task timing breakdown:
Section |  min time  |  avg time  |  max time  |%varavg| %total
---------------------------------------------------------------
Pair    | 28.667     | 28.883     | 29.098     |   4.0 | 56.87
Neigh   | 14.922     | 17.701     | 20.481     |  66.1 | 34.86
Comm    | 0.84173    | 3.4445     | 6.0472     | 140.2 |  6.78
Output  | 8.9884e-05 | 0.00011241 | 0.00013494 |   0.0 |  0.00
Modify  | 0.63727    | 0.66471    | 0.69215    |   3.4 |  1.31
Other   |            | 0.08981    |            |       |  0.18

Nlocal:    9826 ave 9845 max 9807 min
Histogram: 1 0 0 0 0 0 0 0 0 1
Nghost:    14291.5 ave 14292 max 14291 min
Histogram: 1 0 0 0 0 0 0 0 0 1
Neighs:    934699 ave 942462 max 926936 min
Histogram: 1 0 0 0 0 0 0 0 0 1

Total # of neighbors = 1869398
Ave neighs/atom = 95.1251
Neighbor list builds = 495
Dangerous builds not checked
Setting up Verlet run ...
  Unit style    : metal
  Current step  : 270495
  Time step     : 0.001
Per MPI rank memory allocation (min/avg/max) = 12.09 | 12.09 | 12.09 Mbytes
Step Temp Press TotEng PotEng Enthalpy 
  270495     1258.501    1130.0053   -60819.464   -64016.172   -60634.241 
  280000    1243.1422   -947.50225   -60970.426   -64128.121   -61125.631 
Loop time of 1525.81 on 2 procs for 9505 steps with 19652 atoms

Performance: 0.538 ns/day, 44.591 hours/ns, 6.229 timesteps/s
80.4% CPU use with 2 MPI tasks x no OpenMP threads

MPI task timing breakdown:
Section |  min time  |  avg time  |  max time  |%varavg| %total
---------------------------------------------------------------
Pair    | 865.66     | 871.46     | 877.27     |  19.7 | 57.11
Neigh   | 477.86     | 487.73     | 497.6      |  44.7 | 31.97
Comm    | 133.62     | 149.58     | 165.55     | 130.5 |  9.80
Output  | 0.049262   | 0.049291   | 0.04932    |   0.0 |  0.00
Modify  | 13.969     | 14.26      | 14.551     |   7.7 |  0.93
Other   |            | 2.724      |            |       |  0.18

Nlocal:    9826 ave 9838 max 9814 min
Histogram: 1 0 0 0 0 0 0 0 0 1
Nghost:    14243.5 ave 14254 max 14233 min
Histogram: 1 0 0 0 0 0 0 0 0 1
Neighs:    935284 ave 947465 max 923103 min
Histogram: 1 0 0 0 0 0 0 0 0 1

Total # of neighbors = 1870568
Ave neighs/atom = 95.1846
Neighbor list builds = 9505
Dangerous builds not checked
Setting up Verlet run ...
  Unit style    : metal
  Current step  : 280000
  Time step     : 0.001
Per MPI rank memory allocation (min/avg/max) = 12.09 | 12.09 | 12.09 Mbytes
Step Temp Press TotEng PotEng Enthalpy 
  280000    1243.1422   -947.50225   -60970.426   -64128.121   -61125.631 
  280495    1218.3025    304.63504   -61152.247   -64246.847   -61102.553 
Loop time of 90.0543 on 2 procs for 495 steps with 19652 atoms

Performance: 0.475 ns/day, 50.536 hours/ns, 5.497 timesteps/s
75.3% CPU use with 2 MPI tasks x no OpenMP threads

MPI task timing breakdown:
Section |  min time  |  avg time  |  max time  |%varavg| %total
---------------------------------------------------------------
Pair    | 50.475     | 51.087     | 51.698     |   8.6 | 56.73
Neigh   | 27.36      | 29.62      | 31.879     |  41.5 | 32.89
Comm    | 6.4285     | 8.1495     | 9.8704     |  60.3 |  9.05
Output  | 8.3923e-05 | 0.00013649 | 0.00018907 |   0.0 |  0.00
Modify  | 0.97645    | 1.027      | 1.0775     |   5.0 |  1.14
Other   |            | 0.1713     |            |       |  0.19

Nlocal:    9826 ave 9834 max 9818 min
Histogram: 1 0 0 0 0 0 0 0 0 1
Nghost:    14284 ave 14296 max 14272 min
Histogram: 1 0 0 0 0 0 0 0 0 1
Neighs:    938730 ave 946369 max 931090 min
Histogram: 1 0 0 0 0 0 0 0 0 1

Total # of neighbors = 1877459
Ave neighs/atom = 95.5353
Neighbor list builds = 495
Dangerous builds not checked
Setting up Verlet run ...
  Unit style    : metal
  Current step  : 280495
  Time step     : 0.001
Per MPI rank memory allocation (min/avg/max) = 12.09 | 12.09 | 12.09 Mbytes
Step Temp Press TotEng PotEng Enthalpy 
  280495    1218.3025    304.63504   -61152.247   -64246.847   -61102.553 
  290000    1197.3532    153.78641   -61273.934    -64315.32   -61248.885 
Loop time of 1454.71 on 2 procs for 9505 steps with 19652 atoms

Performance: 0.565 ns/day, 42.513 hours/ns, 6.534 timesteps/s
82.1% CPU use with 2 MPI tasks x no OpenMP threads

MPI task timing breakdown:
Section |  min time  |  avg time  |  max time  |%varavg| %total
---------------------------------------------------------------
Pair    | 833.28     | 838.26     | 843.24     |  17.2 | 57.62
Neigh   | 474.04     | 475.68     | 477.33     |   7.5 | 32.70
Comm    | 118.93     | 125.65     | 132.37     |  60.0 |  8.64
Output  | 0.10008    | 0.10061    | 0.10115    |   0.2 |  0.01
Modify  | 12.367     | 12.424     | 12.481     |   1.6 |  0.85
Other   |            | 2.598      |            |       |  0.18

Nlocal:    9826 ave 9829 max 9823 min
Histogram: 1 0 0 0 0 0 0 0 0 1
Nghost:    14274 ave 14285 max 14263 min
Histogram: 1 0 0 0 0 0 0 0 0 1
Neighs:    940298 ave 950401 max 930194 min
Histogram: 1 0 0 0 0 0 0 0 0 1

Total # of neighbors = 1880595
Ave neighs/atom = 95.6948
Neighbor list builds = 9505
Dangerous builds not checked
Setting up Verlet run ...
  Unit style    : metal
  Current step  : 290000
  Time step     : 0.001
Per MPI rank memory allocation (min/avg/max) = 12.09 | 12.09 | 12.09 Mbytes
Step Temp Press TotEng PotEng Enthalpy 
  290000    1197.3532    153.78641   -61273.934    -64315.32   -61248.885 
  290495    1163.5061    1027.2646   -61473.554   -64428.965   -61306.807 
Loop time of 93.7511 on 2 procs for 495 steps with 19652 atoms

Performance: 0.456 ns/day, 52.610 hours/ns, 5.280 timesteps/s
69.9% CPU use with 2 MPI tasks x no OpenMP threads

MPI task timing breakdown:
Section |  min time  |  avg time  |  max time  |%varavg| %total
---------------------------------------------------------------
Pair    | 53.496     | 53.829     | 54.162     |   4.5 | 57.42
Neigh   | 30.122     | 30.779     | 31.437     |  11.8 | 32.83
Comm    | 7.5954     | 7.9748     | 8.3542     |  13.4 |  8.51
Output  | 7.7009e-05 | 0.0001055  | 0.00013399 |   0.0 |  0.00
Modify  | 0.92845    | 0.99814    | 1.0678     |   7.0 |  1.06
Other   |            | 0.1697     |            |       |  0.18

Nlocal:    9826 ave 9843 max 9809 min
Histogram: 1 0 0 0 0 0 0 0 0 1
Nghost:    14327 ave 14334 max 14320 min
Histogram: 1 0 0 0 0 0 0 0 0 1
Neighs:    943228 ave 950150 max 936307 min
Histogram: 1 0 0 0 0 0 0 0 0 1

Total # of neighbors = 1886457
Ave neighs/atom = 95.9931
Neighbor list builds = 495
Dangerous builds not checked
Setting up Verlet run ...
  Unit style    : metal
  Current step  : 290495
  Time step     : 0.001
Per MPI rank memory allocation (min/avg/max) = 12.09 | 12.09 | 12.09 Mbytes
Step Temp Press TotEng PotEng Enthalpy 
  290495    1163.5061    1027.2646   -61473.554   -64428.965   -61306.807 
  300000    1151.4125   -632.77443   -61620.558   -64545.251   -61723.175 
Loop time of 1167.36 on 2 procs for 9505 steps with 19652 atoms

Performance: 0.703 ns/day, 34.115 hours/ns, 8.142 timesteps/s
91.9% CPU use with 2 MPI tasks x no OpenMP threads

MPI task timing breakdown:
Section |  min time  |  avg time  |  max time  |%varavg| %total
---------------------------------------------------------------
Pair    | 665.82     | 670.35     | 674.87     |  17.5 | 57.42
Neigh   | 402.28     | 407.53     | 412.78     |  26.0 | 34.91
Comm    | 76.116     | 77.423     | 78.73      |  14.9 |  6.63
Output  | 0.051428   | 0.051445   | 0.051462   |   0.0 |  0.00
Modify  | 9.2157     | 9.7546     | 10.293     |  17.3 |  0.84
Other   |            | 2.259      |            |       |  0.19

Nlocal:    9826 ave 9833 max 9819 min
Histogram: 1 0 0 0 0 0 0 0 0 1
Nghost:    14315.5 ave 14326 max 14305 min
Histogram: 1 0 0 0 0 0 0 0 0 1
Neighs:    944118 ave 954481 max 933754 min
Histogram: 1 0 0 0 0 0 0 0 0 1

Total # of neighbors = 1888235
Ave neighs/atom = 96.0836
Neighbor list builds = 9505
Dangerous builds not checked
Setting up Verlet run ...
  Unit style    : metal
  Current step  : 300000
  Time step     : 0.001
Per MPI rank memory allocation (min/avg/max) = 12.09 | 12.09 | 12.09 Mbytes
Step Temp Press TotEng PotEng Enthalpy 
[...]
Ave neighs/atom = 102.368
Neighbor list builds = 9505
Dangerous builds not checked
Setting up Verlet run ...
  Unit style    : metal
  Current step  : 440000
  Time step     : 0.001
Per MPI rank memory allocation (min/avg/max) = 12.1 | 12.1 | 12.1 Mbytes
Step Temp Press TotEng PotEng Enthalpy 
  440000    445.40079    -641.6881   -66389.707   -67521.066   -66487.144 
  440495    424.55033    -263.2841   -66531.286   -67609.682   -66571.182 
Loop time of 55.4482 on 2 procs for 495 steps with 19652 atoms

Performance: 0.771 ns/day, 31.116 hours/ns, 8.927 timesteps/s
99.7% CPU use with 2 MPI tasks x no OpenMP threads

MPI task timing breakdown:
Section |  min time  |  avg time  |  max time  |%varavg| %total
---------------------------------------------------------------
Pair    | 30.783     | 31.106     | 31.43      |   5.8 | 56.10
Neigh   | 19.975     | 21.091     | 22.207     |  24.3 | 38.04
Comm    | 1.923      | 2.7371     | 3.5512     |  49.2 |  4.94
Output  | 8.4162e-05 | 0.00011361 | 0.00014305 |   0.0 |  0.00
Modify  | 0.382      | 0.39347    | 0.40494    |   1.8 |  0.71
Other   |            | 0.1201     |            |       |  0.22

Nlocal:    9826 ave 9844 max 9808 min
Histogram: 1 0 0 0 0 0 0 0 0 1
Nghost:    14748 ave 14764 max 14732 min
Histogram: 1 0 0 0 0 0 0 0 0 1
Neighs:    1.00862e+06 ave 1.01178e+06 max 1.00545e+06 min
Histogram: 1 0 0 0 0 0 0 0 0 1

Total # of neighbors = 2017232
Ave neighs/atom = 102.648
Neighbor list builds = 495
Dangerous builds not checked
Setting up Verlet run ...
  Unit style    : metal
  Current step  : 440495
  Time step     : 0.001
Per MPI rank memory allocation (min/avg/max) = 12.1 | 12.1 | 12.1 Mbytes
Step Temp Press TotEng PotEng Enthalpy 
  440495    424.55033    -263.2841   -66531.286   -67609.682   -66571.182 
  450000    400.15105    634.22968   -66651.356   -67667.776   -66555.446 
Loop time of 1023 on 2 procs for 9505 steps with 19652 atoms

Performance: 0.803 ns/day, 29.897 hours/ns, 9.291 timesteps/s
99.2% CPU use with 2 MPI tasks x no OpenMP threads

MPI task timing breakdown:
Section |  min time  |  avg time  |  max time  |%varavg| %total
---------------------------------------------------------------
Pair    | 572.54     | 572.88     | 573.22     |   1.4 | 56.00
Neigh   | 385.29     | 387.3      | 389.3      |  10.2 | 37.86
Comm    | 51.655     | 53.39      | 55.125     |  23.7 |  5.22
Output  | 0.054852   | 0.054873   | 0.054893   |   0.0 |  0.01
Modify  | 7.1318     | 7.1705     | 7.2092     |   1.4 |  0.70
Other   |            | 2.212      |            |       |  0.22

Nlocal:    9826 ave 9829 max 9823 min
Histogram: 1 0 0 0 0 0 0 0 0 1
Nghost:    14716 ave 14730 max 14702 min
Histogram: 1 0 0 0 0 0 0 0 0 1
Neighs:    1.01079e+06 ave 1.01172e+06 max 1.00987e+06 min
Histogram: 1 0 0 0 0 0 0 0 0 1

Total # of neighbors = 2021582
Ave neighs/atom = 102.869
Neighbor list builds = 9505
Dangerous builds not checked
Setting up Verlet run ...
  Unit style    : metal
  Current step  : 450000
  Time step     : 0.001
Per MPI rank memory allocation (min/avg/max) = 12.1 | 12.1 | 12.1 Mbytes
Step Temp Press TotEng PotEng Enthalpy 
  450000    400.15105    634.22968   -66651.356   -67667.776   -66555.446 
  450495    374.12269   -249.03274   -66808.454    -67758.76   -66846.066 
Loop time of 58.6253 on 2 procs for 495 steps with 19652 atoms

Performance: 0.730 ns/day, 32.899 hours/ns, 8.443 timesteps/s
99.0% CPU use with 2 MPI tasks x no OpenMP threads

MPI task timing breakdown:
Section |  min time  |  avg time  |  max time  |%varavg| %total
---------------------------------------------------------------
Pair    | 32.627     | 32.938     | 33.249     |   5.4 | 56.18
Neigh   | 21.797     | 22.245     | 22.692     |   9.5 | 37.94
Comm    | 2.7396     | 2.8849     | 3.0302     |   8.6 |  4.92
Output  | 7.1049e-05 | 0.00010097 | 0.00013089 |   0.0 |  0.00
Modify  | 0.41963    | 0.42337    | 0.42712    |   0.6 |  0.72
Other   |            | 0.1342     |            |       |  0.23

Nlocal:    9826 ave 9827 max 9825 min
Histogram: 1 0 0 0 0 0 0 0 0 1
Nghost:    14743.5 ave 14764 max 14723 min
Histogram: 1 0 0 0 0 0 0 0 0 1
Neighs:    1.01209e+06 ave 1.01272e+06 max 1.01146e+06 min
Histogram: 1 0 0 0 0 0 0 0 0 1

Total # of neighbors = 2024180
Ave neighs/atom = 103.001
Neighbor list builds = 495
Dangerous builds not checked
Setting up Verlet run ...
  Unit style    : metal
  Current step  : 450495
  Time step     : 0.001
Per MPI rank memory allocation (min/avg/max) = 12.1 | 12.1 | 12.1 Mbytes
Step Temp Press TotEng PotEng Enthalpy 
  450495    374.12269   -249.03274   -66808.454    -67758.76   -66846.066 
  460000    352.97589    820.79077   -66941.341   -67837.932   -66817.669 
Loop time of 1047.45 on 2 procs for 9505 steps with 19652 atoms

Performance: 0.784 ns/day, 30.611 hours/ns, 9.074 timesteps/s
99.4% CPU use with 2 MPI tasks x no OpenMP threads

MPI task timing breakdown:
Section |  min time  |  avg time  |  max time  |%varavg| %total
---------------------------------------------------------------
Pair    | 583.55     | 586.2      | 588.86     |  11.0 | 55.96
Neigh   | 380.62     | 397.18     | 413.75     |  83.1 | 37.92
Comm    | 34.497     | 54.065     | 73.634     | 266.1 |  5.16
Output  | 0.074209   | 0.074226   | 0.074243   |   0.0 |  0.01
Modify  | 7.3412     | 7.5388     | 7.7364     |   7.2 |  0.72
Other   |            | 2.383      |            |       |  0.23

Nlocal:    9826 ave 9830 max 9822 min
Histogram: 1 0 0 0 0 0 0 0 0 1
Nghost:    14764.5 ave 14781 max 14748 min
Histogram: 1 0 0 0 0 0 0 0 0 1
Neighs:    1.015e+06 ave 1.0154e+06 max 1.0146e+06 min
Histogram: 1 0 0 0 0 0 0 0 0 1

Total # of neighbors = 2029995
Ave neighs/atom = 103.297
Neighbor list builds = 9505
Dangerous builds not checked
Setting up Verlet run ...
  Unit style    : metal
  Current step  : 460000
  Time step     : 0.001
Per MPI rank memory allocation (min/avg/max) = 12.1 | 12.1 | 12.1 Mbytes
Step Temp Press TotEng PotEng Enthalpy 
  460000    352.97589    820.79077   -66941.341   -67837.932   -66817.669 
  460495    320.18273   -577.05586    -67082.09   -67895.383   -67169.004 
Loop time of 54.8557 on 2 procs for 495 steps with 19652 atoms

Performance: 0.780 ns/day, 30.783 hours/ns, 9.024 timesteps/s
99.5% CPU use with 2 MPI tasks x no OpenMP threads

MPI task timing breakdown:
Section |  min time  |  avg time  |  max time  |%varavg| %total
---------------------------------------------------------------
Pair    | 30.294     | 30.877     | 31.46      |  10.5 | 56.29
Neigh   | 19.492     | 20.353     | 21.213     |  19.1 | 37.10
Comm    | 1.6435     | 3.1098     | 4.5761     |  83.1 |  5.67
Output  | 7.9155e-05 | 0.00013566 | 0.00019217 |   0.0 |  0.00
Modify  | 0.38153    | 0.39275    | 0.40398    |   1.8 |  0.72
Other   |            | 0.1229     |            |       |  0.22

Nlocal:    9826 ave 9835 max 9817 min
Histogram: 1 0 0 0 0 0 0 0 0 1
Nghost:    14759 ave 14762 max 14756 min
Histogram: 1 0 0 0 0 0 0 0 0 1
Neighs:    1.01512e+06 ave 1.01668e+06 max 1.01356e+06 min
Histogram: 1 0 0 0 0 0 0 0 0 1

Total # of neighbors = 2030240
Ave neighs/atom = 103.31
Neighbor list builds = 495
Dangerous builds not checked
Setting up Verlet run ...
  Unit style    : metal
  Current step  : 460495
  Time step     : 0.001
Per MPI rank memory allocation (min/avg/max) = 12.1 | 12.1 | 12.1 Mbytes
Step Temp Press TotEng PotEng Enthalpy 
  460495    320.18273   -577.05586    -67082.09   -67895.383   -67169.004 
  470000    306.23107    802.85267   -67197.726   -67975.581   -67077.127 
Loop time of 1117.75 on 2 procs for 9505 steps with 19652 atoms

Performance: 0.735 ns/day, 32.666 hours/ns, 8.504 timesteps/s
99.4% CPU use with 2 MPI tasks x no OpenMP threads

MPI task timing breakdown:
Section |  min time  |  avg time  |  max time  |%varavg| %total
---------------------------------------------------------------
Pair    | 629.72     | 630.2      | 630.68     |   1.9 | 56.38
Neigh   | 424.69     | 425.94     | 427.19     |   6.1 | 38.11
Comm    | 49.106     | 50.858     | 52.611     |  24.6 |  4.55
Output  | 0.062829   | 0.062851   | 0.062873   |   0.0 |  0.01
Modify  | 8.1086     | 8.1158     | 8.1229     |   0.3 |  0.73
Other   |            | 2.572      |            |       |  0.23

Nlocal:    9826 ave 9838 max 9814 min
Histogram: 1 0 0 0 0 0 0 0 0 1
Nghost:    14786 ave 14794 max 14778 min
Histogram: 1 0 0 0 0 0 0 0 0 1
Neighs:    1.01827e+06 ave 1.02032e+06 max 1.01622e+06 min
Histogram: 1 0 0 0 0 0 0 0 0 1

Total # of neighbors = 2036543
Ave neighs/atom = 103.63
Neighbor list builds = 9505
Dangerous builds not checked
Setting up Verlet run ...
  Unit style    : metal
  Current step  : 470000
  Time step     : 0.001
Per MPI rank memory allocation (min/avg/max) = 12.1 | 12.1 | 12.1 Mbytes
Step Temp Press TotEng PotEng Enthalpy 
  470000    306.23107    802.85267   -67197.726   -67975.581   -67077.127 
  470495    272.49784   -753.76195   -67346.635   -68038.805   -67459.836 
Loop time of 59.6845 on 2 procs for 495 steps with 19652 atoms

Performance: 0.717 ns/day, 33.493 hours/ns, 8.294 timesteps/s
98.5% CPU use with 2 MPI tasks x no OpenMP threads

MPI task timing breakdown:
Section |  min time  |  avg time  |  max time  |%varavg| %total
---------------------------------------------------------------
Pair    | 33.658     | 33.692     | 33.726     |   0.6 | 56.45
Neigh   | 21.082     | 21.808     | 22.534     |  15.5 | 36.54
Comm    | 2.9057     | 3.6059     | 4.3062     |  36.9 |  6.04
Output  | 7.7009e-05 | 0.00010991 | 0.00014281 |   0.0 |  0.00
Modify  | 0.43296    | 0.43597    | 0.43897    |   0.5 |  0.73
Other   |            | 0.1426     |            |       |  0.24

Nlocal:    9826 ave 9829 max 9823 min
Histogram: 1 0 0 0 0 0 0 0 0 1
Nghost:    14799 ave 14819 max 14779 min
Histogram: 1 0 0 0 0 0 0 0 0 1
Neighs:    1.01844e+06 ave 1.02028e+06 max 1.0166e+06 min
Histogram: 1 0 0 0 0 0 0 0 0 1

Total # of neighbors = 2036872
Ave neighs/atom = 103.647
Neighbor list builds = 495
Dangerous builds not checked
Setting up Verlet run ...
  Unit style    : metal
  Current step  : 470495
  Time step     : 0.001
Per MPI rank memory allocation (min/avg/max) = 12.1 | 12.1 | 12.1 Mbytes
Step Temp Press TotEng PotEng Enthalpy 
  470495    272.49784   -753.76195   -67346.635   -68038.805   -67459.836 
  480000    249.98652    452.28859   -67480.626   -68115.615   -67412.871 
Loop time of 1140 on 2 procs for 9505 steps with 19652 atoms

Performance: 0.720 ns/day, 33.316 hours/ns, 8.338 timesteps/s
99.1% CPU use with 2 MPI tasks x no OpenMP threads

MPI task timing breakdown:
Section |  min time  |  avg time  |  max time  |%varavg| %total
---------------------------------------------------------------
Pair    | 633.97     | 637.37     | 640.77     |  13.5 | 55.91
Neigh   | 421.73     | 427.51     | 433.29     |  27.9 | 37.50
Comm    | 54.677     | 64.021     | 73.366     | 116.8 |  5.62
Output  | 0.058018   | 0.05805    | 0.058082   |   0.0 |  0.01
Modify  | 8.2871     | 8.3798     | 8.4726     |   3.2 |  0.74
Other   |            | 2.657      |            |       |  0.23

Nlocal:    9826 ave 9833 max 9819 min
Histogram: 1 0 0 0 0 0 0 0 0 1
Nghost:    14805 ave 14816 max 14794 min
Histogram: 1 0 0 0 0 0 0 0 0 1
Neighs:    1.02176e+06 ave 1.02259e+06 max 1.02094e+06 min
Histogram: 1 0 0 0 0 0 0 0 0 1

Total # of neighbors = 2043527
Ave neighs/atom = 103.986
Neighbor list builds = 9505
Dangerous builds not checked
Setting up Verlet run ...
  Unit style    : metal
  Current step  : 480000
  Time step     : 0.001
Per MPI rank memory allocation (min/avg/max) = 12.1 | 12.1 | 12.1 Mbytes
Step Temp Press TotEng PotEng Enthalpy 
  480000    249.98652    452.28859   -67480.626   -68115.615   -67412.871 
  480495    222.36738    512.59588   -67610.563   -68175.396   -67533.882 
Loop time of 60.5463 on 2 procs for 495 steps with 19652 atoms

Performance: 0.706 ns/day, 33.977 hours/ns, 8.176 timesteps/s
99.1% CPU use with 2 MPI tasks x no OpenMP threads

MPI task timing breakdown:
Section |  min time  |  avg time  |  max time  |%varavg| %total
---------------------------------------------------------------
Pair    | 33.767     | 34.15      | 34.532     |   6.5 | 56.40
Neigh   | 23.813     | 23.975     | 24.136     |   3.3 | 39.60
Comm    | 1.5971     | 1.8171     | 2.037      |  16.3 |  3.00
Output  | 7.7963e-05 | 0.00012755 | 0.00017715 |   0.0 |  0.00
Modify  | 0.45972    | 0.46226    | 0.46479    |   0.4 |  0.76
Other   |            | 0.1422     |            |       |  0.23

Nlocal:    9826 ave 9833 max 9819 min
Histogram: 1 0 0 0 0 0 0 0 0 1
Nghost:    14806 ave 14814 max 14798 min
Histogram: 1 0 0 0 0 0 0 0 0 1
Neighs:    1.02347e+06 ave 1.02432e+06 max 1.02262e+06 min
Histogram: 1 0 0 0 0 0 0 0 0 1

Total # of neighbors = 2046944
Ave neighs/atom = 104.16
Neighbor list builds = 495
Dangerous builds not checked
Setting up Verlet run ...
  Unit style    : metal
  Current step  : 480495
  Time step     : 0.001
Per MPI rank memory allocation (min/avg/max) = 12.1 | 12.1 | 12.1 Mbytes
Step Temp Press TotEng PotEng Enthalpy 
  480495    222.36738    512.59588   -67610.563   -68175.396   -67533.882 
  490000    200.32658    882.58148    -67748.51   -68257.358   -67616.756 
Loop time of 1082.16 on 2 procs for 9505 steps with 19652 atoms

Performance: 0.759 ns/day, 31.625 hours/ns, 8.783 timesteps/s
97.7% CPU use with 2 MPI tasks x no OpenMP threads

MPI task timing breakdown:
Section |  min time  |  avg time  |  max time  |%varavg| %total
---------------------------------------------------------------
Pair    | 609.12     | 609.13     | 609.14     |   0.0 | 56.29
Neigh   | 395.44     | 399.91     | 404.38     |  22.4 | 36.95
Comm    | 52.373     | 59.887     | 67.402     |  97.1 |  5.53
Output  | 0.050178   | 0.050208   | 0.050239   |   0.0 |  0.00
Modify  | 7.8147     | 10.788     | 13.761     |  90.5 |  1.00
Other   |            | 2.392      |            |       |  0.22

Nlocal:    9826 ave 9828 max 9824 min
Histogram: 1 0 0 0 0 0 0 0 0 1
Nghost:    14804 ave 14809 max 14799 min
Histogram: 1 0 0 0 0 0 0 0 0 1
Neighs:    1.02589e+06 ave 1.02696e+06 max 1.02481e+06 min
Histogram: 1 0 0 0 0 0 0 0 0 1

Total # of neighbors = 2051777
Ave neighs/atom = 104.406
Neighbor list builds = 9505
Dangerous builds not checked
Setting up Verlet run ...
  Unit style    : metal
  Current step  : 490000
  Time step     : 0.001
Per MPI rank memory allocation (min/avg/max) = 12.1 | 12.1 | 12.1 Mbytes
Step Temp Press TotEng PotEng Enthalpy 
  490000    200.32658    882.58148    -67748.51   -68257.358   -67616.756 
  490495    175.86145   -230.49697   -67868.936   -68315.641   -67903.331 
Loop time of 53.5999 on 2 procs for 495 steps with 19652 atoms

Performance: 0.798 ns/day, 30.078 hours/ns, 9.235 timesteps/s
100.0% CPU use with 2 MPI tasks x no OpenMP threads

MPI task timing breakdown:
Section |  min time  |  avg time  |  max time  |%varavg| %total
---------------------------------------------------------------
Pair    | 29.886     | 30.03      | 30.173     |   2.6 | 56.03
Neigh   | 20.321     | 20.712     | 21.103     |   8.6 | 38.64
Comm    | 1.7894     | 2.3406     | 2.8918     |  36.0 |  4.37
Output  | 6.1989e-05 | 9.346e-05  | 0.00012493 |   0.0 |  0.00
Modify  | 0.38844    | 0.39484    | 0.40124    |   1.0 |  0.74
Other   |            | 0.1229     |            |       |  0.23

Nlocal:    9826 ave 9841 max 9811 min
Histogram: 1 0 0 0 0 0 0 0 0 1
Nghost:    14813.5 ave 14821 max 14806 min
Histogram: 1 0 0 0 0 0 0 0 0 1
Neighs:    1.02619e+06 ave 1.0285e+06 max 1.02387e+06 min
Histogram: 1 0 0 0 0 0 0 0 0 1

Total # of neighbors = 2052373
Ave neighs/atom = 104.436
Neighbor list builds = 495
Dangerous builds not checked
Setting up Verlet run ...
  Unit style    : metal
  Current step  : 490495
  Time step     : 0.001
Per MPI rank memory allocation (min/avg/max) = 12.1 | 12.1 | 12.1 Mbytes
Step Temp Press TotEng PotEng Enthalpy 
  490495    175.86145   -230.49697   -67868.936   -68315.641   -67903.331 
  500000    150.23781      -533.82   -68002.826   -68384.444   -68082.392 
Loop time of 1062.88 on 2 procs for 9505 steps with 19652 atoms

Performance: 0.773 ns/day, 31.062 hours/ns, 8.943 timesteps/s
97.2% CPU use with 2 MPI tasks x no OpenMP threads

MPI task timing breakdown:
Section |  min time  |  avg time  |  max time  |%varavg| %total
---------------------------------------------------------------
Pair    | 588.31     | 588.8      | 589.29     |   2.0 | 55.40
Neigh   | 388.16     | 391.48     | 394.8      |  16.8 | 36.83
Comm    | 66.97      | 70.902     | 74.835     |  46.7 |  6.67
Output  | 0.22765    | 0.22768    | 0.2277     |   0.0 |  0.02
Modify  | 9.0316     | 9.0522     | 9.0729     |   0.7 |  0.85
Other   |            | 2.407      |            |       |  0.23

Nlocal:    9826 ave 9833 max 9819 min
Histogram: 1 0 0 0 0 0 0 0 0 1
Nghost:    14807.5 ave 14823 max 14792 min
Histogram: 1 0 0 0 0 0 0 0 0 1
Neighs:    1.02767e+06 ave 1.02852e+06 max 1.02682e+06 min
Histogram: 1 0 0 0 0 0 0 0 0 1

Total # of neighbors = 2055349
Ave neighs/atom = 104.587
Neighbor list builds = 9505
Dangerous builds not checked
Setting up Verlet run ...
  Unit style    : metal
  Current step  : 500000
  Time step     : 0.001
Per MPI rank memory allocation (min/avg/max) = 12.1 | 12.1 | 12.1 Mbytes
Step Temp Press TotEng PotEng Enthalpy 
  500000    150.23781      -533.82   -68002.826   -68384.444   -68082.392 
  500495    126.03049   -260.07647   -68121.048   -68441.176   -68159.751 
Loop time of 53.829 on 2 procs for 495 steps with 19652 atoms

Performance: 0.795 ns/day, 30.207 hours/ns, 9.196 timesteps/s
97.9% CPU use with 2 MPI tasks x no OpenMP threads

MPI task timing breakdown:
Section |  min time  |  avg time  |  max time  |%varavg| %total
---------------------------------------------------------------
Pair    | 29.891     | 30.133     | 30.374     |   4.4 | 55.98
Neigh   | 19.679     | 20.174     | 20.67      |  11.0 | 37.48
Comm    | 2.7618     | 3.0231     | 3.2843     |  15.0 |  5.62
Output  | 7.7009e-05 | 0.00012493 | 0.00017285 |   0.0 |  0.00
Modify  | 0.36559    | 0.37086    | 0.37613    |   0.9 |  0.69
Other   |            | 0.1279     |            |       |  0.24

Nlocal:    9826 ave 9838 max 9814 min
Histogram: 1 0 0 0 0 0 0 0 0 1
Nghost:    14848.5 ave 14853 max 14844 min
Histogram: 1 0 0 0 0 0 0 0 0 1
Neighs:    1.02955e+06 ave 1.03134e+06 max 1.02776e+06 min
Histogram: 1 0 0 0 0 0 0 0 0 1

Total # of neighbors = 2059096
Ave neighs/atom = 104.778
Neighbor list builds = 495
Dangerous builds not checked
Setting up Verlet run ...
  Unit style    : metal
  Current step  : 500495
  Time step     : 0.001
Per MPI rank memory allocation (min/avg/max) = 12.1 | 12.1 | 12.1 Mbytes
Step Temp Press TotEng PotEng Enthalpy 
  500495    126.03049   -260.07647   -68121.048   -68441.176   -68159.751 
  510000    99.770683   -149.30125   -68262.871   -68516.298   -68285.052 
Loop time of 1201.15 on 2 procs for 9505 steps with 19652 atoms

Performance: 0.684 ns/day, 35.103 hours/ns, 7.913 timesteps/s
92.0% CPU use with 2 MPI tasks x no OpenMP threads

MPI task timing breakdown:
Section |  min time  |  avg time  |  max time  |%varavg| %total
---------------------------------------------------------------
Pair    | 639.24     | 640.95     | 642.65     |   6.7 | 53.36
Neigh   | 395.73     | 395.78     | 395.84     |   0.3 | 32.95
Comm    | 142.68     | 144.45     | 146.22     |  14.7 | 12.03
Output  | 0.15053    | 0.15053    | 0.15054    |   0.0 |  0.01
Modify  | 17.596     | 17.612     | 17.628     |   0.4 |  1.47
Other   |            | 2.216      |            |       |  0.18

Nlocal:    9826 ave 9848 max 9804 min
Histogram: 1 0 0 0 0 0 0 0 0 1
Nghost:    14862.5 ave 14865 max 14860 min
Histogram: 1 0 0 0 0 0 0 0 0 1
Neighs:    1.03163e+06 ave 1.03491e+06 max 1.02835e+06 min
Histogram: 1 0 0 0 0 0 0 0 0 1

Total # of neighbors = 2063261
Ave neighs/atom = 104.99
Neighbor list builds = 9505
Dangerous builds not checked
Total wall time: 17:15:32
