LAMMPS (12 Dec 2018)
Lattice spacing in x,y,z = 4 4 4
Created orthogonal box = (0 0 0) to (68 68 68)
  1 by 1 by 2 MPI processor grid
Created 19652 atoms
  Time spent = 0.00154209 secs
Setting atom values ...
  0 settings made for type/fraction
Neighbor list info ...
  update every 1 steps, delay 0 steps, check no
  max neighbors/atom: 2000, page size: 100000
  master list distance cutoff = 8.5
  ghost atom cutoff = 8.5
  binsize = 4.25, bins = 16 16 16
  1 neighbor lists, perpetual/occasional/extra = 1 0 0
  (1) pair eam/alloy, perpetual
      attributes: half, newton on
      pair build: half/bin/atomonly/newton
      stencil: half/bin/3d/newton
      bin: standard
Setting up Verlet run ...
  Unit style    : metal
  Current step  : 0
  Time step     : 0.001
Per MPI rank memory allocation (min/avg/max) = 11.15 | 11.15 | 11.15 Mbytes
Step Temp Press TotEng PotEng Enthalpy 
       0          300     9641.232   -65285.163    -66047.19   -63393.042 
    1000    156.34858    18184.844   -65285.016   -65682.155   -61716.185 
Loop time of 89.0547 on 2 procs for 1000 steps with 19652 atoms

Performance: 0.970 ns/day, 24.737 hours/ns, 11.229 timesteps/s
99.7% CPU use with 2 MPI tasks x no OpenMP threads

MPI task timing breakdown:
Section |  min time  |  avg time  |  max time  |%varavg| %total
---------------------------------------------------------------
Pair    | 50.85      | 51.167     | 51.483     |   4.4 | 57.46
Neigh   | 34.414     | 35.235     | 36.055     |  13.8 | 39.57
Comm    | 1.7171     | 2.2231     | 2.7291     |  33.9 |  2.50
Output  | 7.987e-05  | 0.00010741 | 0.00013494 |   0.0 |  0.00
Modify  | 0.21653    | 0.2193     | 0.22206    |   0.6 |  0.25
Other   |            | 0.2108     |            |       |  0.24

Nlocal:    9826 ave 9833 max 9819 min
Histogram: 1 0 0 0 0 0 0 0 0 1
Nghost:    14211 ave 14218 max 14204 min
Histogram: 1 0 0 0 0 0 0 0 0 1
Neighs:    781824 ave 782394 max 781255 min
Histogram: 1 0 0 0 0 0 0 0 0 1

Total # of neighbors = 1563649
Ave neighs/atom = 79.5669
Neighbor list builds = 1000
Dangerous builds not checked
Setting up Verlet run ...
  Unit style    : metal
  Current step  : 1000
  Time step     : 0.001
Per MPI rank memory allocation (min/avg/max) = 11.15 | 11.15 | 11.15 Mbytes
Step Temp Press TotEng PotEng Enthalpy 
    1000    156.34858    18184.844   -65285.016   -65682.155   -61716.185 
    2000     302.5307   -153.91118   -64535.089   -65303.544   -64566.432 
Loop time of 82.5006 on 2 procs for 1000 steps with 19652 atoms

Performance: 1.047 ns/day, 22.917 hours/ns, 12.121 timesteps/s
99.2% CPU use with 2 MPI tasks x no OpenMP threads

MPI task timing breakdown:
Section |  min time  |  avg time  |  max time  |%varavg| %total
---------------------------------------------------------------
Pair    | 46.229     | 46.324     | 46.418     |   1.4 | 56.15
Neigh   | 32.387     | 32.964     | 33.542     |  10.1 | 39.96
Comm    | 1.7478     | 2.2443     | 2.7409     |  33.1 |  2.72
Output  | 7.0095e-05 | 9.6083e-05 | 0.00012207 |   0.0 |  0.00
Modify  | 0.75118    | 0.76168    | 0.77218    |   1.2 |  0.92
Other   |            | 0.2067     |            |       |  0.25

Nlocal:    9826 ave 9830 max 9822 min
Histogram: 1 0 0 0 0 0 0 0 0 1
Nghost:    14016.5 ave 14034 max 13999 min
Histogram: 1 0 0 0 0 0 0 0 0 1
Neighs:    742656 ave 742847 max 742465 min
Histogram: 1 0 0 0 0 0 0 0 0 1

Total # of neighbors = 1485312
Ave neighs/atom = 75.5807
Neighbor list builds = 1000
Dangerous builds not checked
Setting up Verlet run ...
  Unit style    : metal
  Current step  : 2000
  Time step     : 0.001
Per MPI rank memory allocation (min/avg/max) = 11.15 | 11.15 | 11.15 Mbytes
Step Temp Press TotEng PotEng Enthalpy 
    2000     302.5307   -153.91118   -64535.089   -65303.544   -64566.432 
   10000    2467.9312    121.91492   -50521.385   -56790.156   -50487.421 
Loop time of 671.281 on 2 procs for 8000 steps with 19652 atoms

Performance: 1.030 ns/day, 23.308 hours/ns, 11.918 timesteps/s
98.8% CPU use with 2 MPI tasks x no OpenMP threads

MPI task timing breakdown:
Section |  min time  |  avg time  |  max time  |%varavg| %total
---------------------------------------------------------------
Pair    | 360.34     | 361.23     | 362.12     |   4.7 | 53.81
Neigh   | 281.43     | 281.6      | 281.77     |   1.0 | 41.95
Comm    | 19.178     | 20.264     | 21.349     |  24.1 |  3.02
Output  | 6.6042e-05 | 9.203e-05  | 0.00011802 |   0.0 |  0.00
Modify  | 6.43       | 6.4622     | 6.4944     |   1.3 |  0.96
Other   |            | 1.725      |            |       |  0.26

Nlocal:    9826 ave 9828 max 9824 min
Histogram: 1 0 0 0 0 0 0 0 0 1
Nghost:    11382 ave 11385 max 11379 min
Histogram: 1 0 0 0 0 0 0 0 0 1
Neighs:    552762 ave 557265 max 548258 min
Histogram: 1 0 0 0 0 0 0 0 0 1

Total # of neighbors = 1105523
Ave neighs/atom = 56.255
Neighbor list builds = 8000
Dangerous builds not checked
Setting up Verlet run ...
  Unit style    : metal
  Current step  : 10000
  Time step     : 0.001
Per MPI rank memory allocation (min/avg/max) = 11.15 | 11.15 | 11.15 Mbytes
Step Temp Press TotEng PotEng Enthalpy 
   10000    2467.9312    121.91492   -50521.385   -56790.156   -50487.421 
   20000    2474.0566    447.59598   -50389.379   -56673.708   -50264.122 
   40000     2445.731    691.07373    -50490.28   -56702.659   -50297.242 
Loop time of 2348.96 on 2 procs for 30000 steps with 19652 atoms

Performance: 1.103 ns/day, 21.750 hours/ns, 12.772 timesteps/s
99.1% CPU use with 2 MPI tasks x no OpenMP threads

MPI task timing breakdown:
Section |  min time  |  avg time  |  max time  |%varavg| %total
---------------------------------------------------------------
Pair    | 1239.6     | 1242.2     | 1244.7     |   7.2 | 52.88
Neigh   | 983.31     | 989.16     | 995.01     |  18.6 | 42.11
Comm    | 77.144     | 85.524     | 93.904     |  90.6 |  3.64
Output  | 0.097176   | 0.097212   | 0.097249   |   0.0 |  0.00
Modify  | 25.616     | 25.619     | 25.623     |   0.1 |  1.09
Other   |            | 6.401      |            |       |  0.27

Nlocal:    9826 ave 9864 max 9788 min
Histogram: 1 0 0 0 0 0 0 0 0 1
Nghost:    11344 ave 11391 max 11297 min
Histogram: 1 0 0 0 0 0 0 0 0 1
Neighs:    551168 ave 559679 max 542656 min
Histogram: 1 0 0 0 0 0 0 0 0 1

Total # of neighbors = 1102335
Ave neighs/atom = 56.0928
Neighbor list builds = 30000
Dangerous builds not checked
Setting up Verlet run ...
  Unit style    : metal
  Current step  : 40000
  Time step     : 0.001
Per MPI rank memory allocation (min/avg/max) = 11.29 | 11.29 | 11.29 Mbytes
Step Temp Press TotEng PotEng Enthalpy 
   40000     2445.731    691.07373    -50490.28   -56702.659   -50297.242 
   40495    2415.8904   -539.89554   -50650.076   -56786.658   -50800.755 
Loop time of 37.4733 on 2 procs for 495 steps with 19652 atoms

Performance: 1.141 ns/day, 21.029 hours/ns, 13.209 timesteps/s
99.6% CPU use with 2 MPI tasks x no OpenMP threads

MPI task timing breakdown:
Section |  min time  |  avg time  |  max time  |%varavg| %total
---------------------------------------------------------------
Pair    | 19.346     | 19.665     | 19.984     |   7.2 | 52.48
Neigh   | 14.96      | 15.559     | 16.157     |  15.2 | 41.52
Comm    | 0.80727    | 1.7528     | 2.6983     |  71.4 |  4.68
Output  | 7.0095e-05 | 9.8109e-05 | 0.00012612 |   0.0 |  0.00
Modify  | 0.37713    | 0.39251    | 0.40789    |   2.5 |  1.05
Other   |            | 0.104      |            |       |  0.28

Nlocal:    9826 ave 9838 max 9814 min
Histogram: 1 0 0 0 0 0 0 0 0 1
Nghost:    11368.5 ave 11393 max 11344 min
Histogram: 1 0 0 0 0 0 0 0 0 1
Neighs:    551904 ave 557850 max 545958 min
Histogram: 1 0 0 0 0 0 0 0 0 1

Total # of neighbors = 1103808
Ave neighs/atom = 56.1677
Neighbor list builds = 495
Dangerous builds not checked
Setting up Verlet run ...
  Unit style    : metal
  Current step  : 40495
  Time step     : 0.001
Per MPI rank memory allocation (min/avg/max) = 11.29 | 11.29 | 11.29 Mbytes
Step Temp Press TotEng PotEng Enthalpy 
   40495    2415.8904   -539.89554   -50650.076   -56786.658   -50800.755 
   60000    2392.1537   -310.32335    -50752.91   -56829.198   -50839.338 
Loop time of 1592.1 on 2 procs for 19505 steps with 19652 atoms

Performance: 1.058 ns/day, 22.674 hours/ns, 12.251 timesteps/s
99.3% CPU use with 2 MPI tasks x no OpenMP threads

MPI task timing breakdown:
Section |  min time  |  avg time  |  max time  |%varavg| %total
---------------------------------------------------------------
Pair    | 833.46     | 836.7      | 839.94     |  11.2 | 52.55
Neigh   | 677.55     | 682.92     | 688.29     |  20.6 | 42.89
Comm    | 43.501     | 52.24      | 60.98      | 120.9 |  3.28
Output  | 0.056898   | 0.05691    | 0.056922   |   0.0 |  0.00
Modify  | 15.828     | 15.917     | 16.005     |   2.2 |  1.00
Other   |            | 4.267      |            |       |  0.27

Nlocal:    9826 ave 9840 max 9812 min
Histogram: 1 0 0 0 0 0 0 0 0 1
Nghost:    11370 ave 11370 max 11370 min
Histogram: 2 0 0 0 0 0 0 0 0 0
Neighs:    552840 ave 557095 max 548586 min
Histogram: 1 0 0 0 0 0 0 0 0 1

Total # of neighbors = 1105681
Ave neighs/atom = 56.263
Neighbor list builds = 19505
Dangerous builds not checked
Setting up Verlet run ...
  Unit style    : metal
  Current step  : 60000
  Time step     : 0.001
Per MPI rank memory allocation (min/avg/max) = 11.32 | 11.32 | 11.32 Mbytes
Step Temp Press TotEng PotEng Enthalpy 
   60000    2392.1537   -310.32335    -50752.91   -56829.198   -50839.338 
   60495    2357.3017    416.64358   -50941.881   -56929.642   -50826.394 
Loop time of 38.6561 on 2 procs for 495 steps with 19652 atoms

Performance: 1.106 ns/day, 21.693 hours/ns, 12.805 timesteps/s
99.6% CPU use with 2 MPI tasks x no OpenMP threads

MPI task timing breakdown:
Section |  min time  |  avg time  |  max time  |%varavg| %total
---------------------------------------------------------------
Pair    | 19.904     | 20.19      | 20.476     |   6.4 | 52.23
Neigh   | 16.714     | 17.035     | 17.357     |   7.8 | 44.07
Comm    | 0.87492    | 0.91465    | 0.95437    |   4.2 |  2.37
Output  | 7.391e-05  | 9.5963e-05 | 0.00011802 |   0.0 |  0.00
Modify  | 0.39929    | 0.40247    | 0.40565    |   0.5 |  1.04
Other   |            | 0.1136     |            |       |  0.29

Nlocal:    9826 ave 9838 max 9814 min
Histogram: 1 0 0 0 0 0 0 0 0 1
Nghost:    11403 ave 11429 max 11377 min
Histogram: 1 0 0 0 0 0 0 0 0 1
Neighs:    555778 ave 562364 max 549192 min
Histogram: 1 0 0 0 0 0 0 0 0 1

Total # of neighbors = 1111556
Ave neighs/atom = 56.562
Neighbor list builds = 495
Dangerous builds not checked
Setting up Verlet run ...
  Unit style    : metal
  Current step  : 60495
  Time step     : 0.001
Per MPI rank memory allocation (min/avg/max) = 11.32 | 11.32 | 11.32 Mbytes
Step Temp Press TotEng PotEng Enthalpy 
   60495    2357.3017    416.64358   -50941.881   -56929.642   -50826.394 
   80000    2315.4085    -864.3515   -51084.344   -56965.693   -51324.152 
Loop time of 1576.99 on 2 procs for 19505 steps with 19652 atoms

Performance: 1.069 ns/day, 22.458 hours/ns, 12.369 timesteps/s
99.5% CPU use with 2 MPI tasks x no OpenMP threads

MPI task timing breakdown:
Section |  min time  |  avg time  |  max time  |%varavg| %total
---------------------------------------------------------------
Pair    | 822.21     | 825.58     | 828.95     |  11.7 | 52.35
Neigh   | 668.52     | 676.92     | 685.32     |  32.3 | 42.92
Comm    | 42.754     | 54.697     | 66.64      | 161.5 |  3.47
Output  | 0.055137   | 0.055152   | 0.055167   |   0.0 |  0.00
Modify  | 15.33      | 15.465     | 15.6       |   3.4 |  0.98
Other   |            | 4.27       |            |       |  0.27

Nlocal:    9826 ave 9831 max 9821 min
Histogram: 1 0 0 0 0 0 0 0 0 1
Nghost:    11380 ave 11391 max 11369 min
Histogram: 1 0 0 0 0 0 0 0 0 1
Neighs:    555038 ave 559910 max 550166 min
Histogram: 1 0 0 0 0 0 0 0 0 1

Total # of neighbors = 1110076
Ave neighs/atom = 56.4867
Neighbor list builds = 19505
Dangerous builds not checked
Setting up Verlet run ...
  Unit style    : metal
  Current step  : 80000
  Time step     : 0.001
Per MPI rank memory allocation (min/avg/max) = 11.33 | 11.33 | 11.33 Mbytes
Step Temp Press TotEng PotEng Enthalpy 
   80000    2315.4085    -864.3515   -51084.344   -56965.693   -51324.152 
   80495    2309.0236   -155.20509    -51187.19    -57052.32   -51230.085 
Loop time of 38.2887 on 2 procs for 495 steps with 19652 atoms

Performance: 1.117 ns/day, 21.486 hours/ns, 12.928 timesteps/s
99.6% CPU use with 2 MPI tasks x no OpenMP threads

MPI task timing breakdown:
Section |  min time  |  avg time  |  max time  |%varavg| %total
---------------------------------------------------------------
Pair    | 19.838     | 19.856     | 19.874     |   0.4 | 51.86
Neigh   | 16.292     | 16.754     | 17.216     |  11.3 | 43.76
Comm    | 0.68486    | 1.1767     | 1.6685     |  45.3 |  3.07
Output  | 8.4162e-05 | 0.00011718 | 0.0001502  |   0.0 |  0.00
Modify  | 0.38992    | 0.39965    | 0.40938    |   1.5 |  1.04
Other   |            | 0.1023     |            |       |  0.27

Nlocal:    9826 ave 9833 max 9819 min
Histogram: 1 0 0 0 0 0 0 0 0 1
Nghost:    11457 ave 11469 max 11445 min
Histogram: 1 0 0 0 0 0 0 0 0 1
Neighs:    557552 ave 563892 max 551212 min
Histogram: 1 0 0 0 0 0 0 0 0 1

Total # of neighbors = 1115104
Ave neighs/atom = 56.7425
Neighbor list builds = 495
Dangerous builds not checked
Setting up Verlet run ...
  Unit style    : metal
  Current step  : 80495
  Time step     : 0.001
Per MPI rank memory allocation (min/avg/max) = 11.33 | 11.33 | 11.33 Mbytes
Step Temp Press TotEng PotEng Enthalpy 
   80495    2309.0236   -155.20509    -51187.19    -57052.32   -51230.085 
  100000    2323.6075    591.33963   -51169.633   -57071.808   -51006.643 
Loop time of 1572.41 on 2 procs for 19505 steps with 19652 atoms

Performance: 1.072 ns/day, 22.393 hours/ns, 12.405 timesteps/s
98.9% CPU use with 2 MPI tasks x no OpenMP threads

MPI task timing breakdown:
Section |  min time  |  avg time  |  max time  |%varavg| %total
---------------------------------------------------------------
Pair    | 816.26     | 817.31     | 818.37     |   3.7 | 51.98
Neigh   | 672.42     | 678.32     | 684.22     |  22.7 | 43.14
Comm    | 51.969     | 56.927     | 61.886     |  65.7 |  3.62
Output  | 0.082245   | 0.082259   | 0.082273   |   0.0 |  0.01
Modify  | 15.554     | 15.584     | 15.614     |   0.8 |  0.99
Other   |            | 4.176      |            |       |  0.27

Nlocal:    9826 ave 9864 max 9788 min
Histogram: 1 0 0 0 0 0 0 0 0 1
Nghost:    11473 ave 11508 max 11438 min
Histogram: 1 0 0 0 0 0 0 0 0 1
Neighs:    558899 ave 561660 max 556138 min
Histogram: 1 0 0 0 0 0 0 0 0 1

Total # of neighbors = 1117798
Ave neighs/atom = 56.8796
Neighbor list builds = 19505
Dangerous builds not checked
Setting up Verlet run ...
  Unit style    : metal
  Current step  : 100000
  Time step     : 0.001
Per MPI rank memory allocation (min/avg/max) = 11.34 | 11.34 | 11.34 Mbytes
Step Temp Press TotEng PotEng Enthalpy 
  100000    2323.6075    591.33963   -51169.633   -57071.808   -51006.643 
  100495    2258.0009   -252.08631   -51423.209   -57158.737   -51492.543 
Loop time of 43.4173 on 2 procs for 495 steps with 19652 atoms

Performance: 0.985 ns/day, 24.364 hours/ns, 11.401 timesteps/s
94.7% CPU use with 2 MPI tasks x no OpenMP threads

MPI task timing breakdown:
Section |  min time  |  avg time  |  max time  |%varavg| %total
---------------------------------------------------------------
Pair    | 22.596     | 22.919     | 23.242     |   6.7 | 52.79
Neigh   | 17.762     | 17.833     | 17.904     |   1.7 | 41.07
Comm    | 1.8348     | 2.105      | 2.3752     |  18.6 |  4.85
Output  | 8.4162e-05 | 0.00010955 | 0.00013494 |   0.0 |  0.00
Modify  | 0.43639    | 0.43822    | 0.44005    |   0.3 |  1.01
Other   |            | 0.1219     |            |       |  0.28

Nlocal:    9826 ave 9862 max 9790 min
Histogram: 1 0 0 0 0 0 0 0 0 1
Nghost:    11462 ave 11482 max 11442 min
Histogram: 1 0 0 0 0 0 0 0 0 1
Neighs:    560024 ave 569655 max 550394 min
Histogram: 1 0 0 0 0 0 0 0 0 1

Total # of neighbors = 1120049
Ave neighs/atom = 56.9941
Neighbor list builds = 495
Dangerous builds not checked
Setting up Verlet run ...
  Unit style    : metal
  Current step  : 100495
  Time step     : 0.001
Per MPI rank memory allocation (min/avg/max) = 11.34 | 11.34 | 11.34 Mbytes
Step Temp Press TotEng PotEng Enthalpy 
  100495    2258.0009   -252.08631   -51423.209   -57158.737   -51492.543 
  120000    2229.4345   -755.87755   -51592.359   -57255.326   -51799.726 
Loop time of 1562.34 on 2 procs for 19505 steps with 19652 atoms

Performance: 1.079 ns/day, 22.250 hours/ns, 12.484 timesteps/s
99.0% CPU use with 2 MPI tasks x no OpenMP threads

MPI task timing breakdown:
Section |  min time  |  avg time  |  max time  |%varavg| %total
---------------------------------------------------------------
Pair    | 814.02     | 816.88     | 819.74     |  10.0 | 52.29
Neigh   | 677.87     | 678.35     | 678.84     |   1.8 | 43.42
Comm    | 44.869     | 47.221     | 49.573     |  34.2 |  3.02
Output  | 0.054301   | 0.054306   | 0.05431    |   0.0 |  0.00
Modify  | 15.686     | 15.693     | 15.699     |   0.2 |  1.00
Other   |            | 4.141      |            |       |  0.27

Nlocal:    9826 ave 9828 max 9824 min
Histogram: 1 0 0 0 0 0 0 0 0 1
Nghost:    11458.5 ave 11494 max 11423 min
Histogram: 1 0 0 0 0 0 0 0 0 1
Neighs:    561584 ave 567124 max 556044 min
Histogram: 1 0 0 0 0 0 0 0 0 1

Total # of neighbors = 1123168
Ave neighs/atom = 57.1529
Neighbor list builds = 19505
Dangerous builds not checked
Setting up Verlet run ...
  Unit style    : metal
  Current step  : 120000
  Time step     : 0.001
Per MPI rank memory allocation (min/avg/max) = 11.35 | 11.35 | 11.35 Mbytes
Step Temp Press TotEng PotEng Enthalpy 
  120000    2229.4345   -755.87755   -51592.359   -57255.326   -51799.726 
  120495    2213.5621   -1139.4865   -51658.346   -57280.995   -51970.887 
Loop time of 37.0047 on 2 procs for 495 steps with 19652 atoms

Performance: 1.156 ns/day, 20.766 hours/ns, 13.377 timesteps/s
99.9% CPU use with 2 MPI tasks x no OpenMP threads

MPI task timing breakdown:
Section |  min time  |  avg time  |  max time  |%varavg| %total
---------------------------------------------------------------
Pair    | 19.093     | 19.232     | 19.372     |   3.2 | 51.97
Neigh   | 15.504     | 16.106     | 16.707     |  15.0 | 43.52
Comm    | 0.7065     | 1.1814     | 1.6563     |  43.7 |  3.19
Output  | 6.6996e-05 | 8.7976e-05 | 0.00010896 |   0.0 |  0.00
Modify  | 0.37501    | 0.38611    | 0.39721    |   1.8 |  1.04
Other   |            | 0.09896    |            |       |  0.27

Nlocal:    9826 ave 9854 max 9798 min
Histogram: 1 0 0 0 0 0 0 0 0 1
Nghost:    11546 ave 11566 max 11526 min
Histogram: 1 0 0 0 0 0 0 0 0 1
Neighs:    561628 ave 570127 max 553129 min
Histogram: 1 0 0 0 0 0 0 0 0 1

Total # of neighbors = 1123256
Ave neighs/atom = 57.1573
Neighbor list builds = 495
Dangerous builds not checked
Setting up Verlet run ...
  Unit style    : metal
  Current step  : 120495
  Time step     : 0.001
Per MPI rank memory allocation (min/avg/max) = 11.35 | 11.35 | 11.35 Mbytes
Step Temp Press TotEng PotEng Enthalpy 
  120495    2213.5621   -1139.4865   -51658.346   -57280.995   -51970.887 
  140000    2192.3544    404.70833   -51885.485   -57454.265   -51775.437 
Loop time of 1509.12 on 2 procs for 19505 steps with 19652 atoms

Performance: 1.117 ns/day, 21.492 hours/ns, 12.925 timesteps/s
99.2% CPU use with 2 MPI tasks x no OpenMP threads

MPI task timing breakdown:
Section |  min time  |  avg time  |  max time  |%varavg| %total
---------------------------------------------------------------
Pair    | 779.7      | 782.03     | 784.35     |   8.3 | 51.82
Neigh   | 651.52     | 660.71     | 669.9      |  35.8 | 43.78
Comm    | 35.038     | 46.783     | 58.527     | 171.7 |  3.10
Output  | 0.26675    | 0.26677    | 0.26678    |   0.0 |  0.02
Modify  | 15.185     | 15.349     | 15.512     |   4.2 |  1.02
Other   |            | 3.988      |            |       |  0.26

Nlocal:    9826 ave 9854 max 9798 min
Histogram: 1 0 0 0 0 0 0 0 0 1
Nghost:    11504 ave 11512 max 11496 min
Histogram: 1 0 0 0 0 0 0 0 0 1
Neighs:    566612 ave 574568 max 558655 min
Histogram: 1 0 0 0 0 0 0 0 0 1

Total # of neighbors = 1133223
Ave neighs/atom = 57.6645
Neighbor list builds = 19505
Dangerous builds not checked
Setting up Verlet run ...
  Unit style    : metal
  Current step  : 140000
  Time step     : 0.001
Per MPI rank memory allocation (min/avg/max) = 11.35 | 11.35 | 11.35 Mbytes
Step Temp Press TotEng PotEng Enthalpy 
  140000    2192.3544    404.70833   -51885.485   -57454.265   -51775.437 
  140495    2161.7385   -549.30566   -51932.664   -57423.677   -52082.412 
Loop time of 36.3378 on 2 procs for 495 steps with 19652 atoms

Performance: 1.177 ns/day, 20.392 hours/ns, 13.622 timesteps/s
99.7% CPU use with 2 MPI tasks x no OpenMP threads

MPI task timing breakdown:
Section |  min time  |  avg time  |  max time  |%varavg| %total
---------------------------------------------------------------
Pair    | 18.444     | 18.723     | 19.001     |   6.4 | 51.52
Neigh   | 15.65      | 16.086     | 16.522     |  10.9 | 44.27
Comm    | 0.87886    | 1.0432     | 1.2075     |  16.1 |  2.87
Output  | 6.8903e-05 | 9.0957e-05 | 0.00011301 |   0.0 |  0.00
Modify  | 0.38198    | 0.38698    | 0.39198    |   0.8 |  1.06
Other   |            | 0.09931    |            |       |  0.27

Nlocal:    9826 ave 9846 max 9806 min
Histogram: 1 0 0 0 0 0 0 0 0 1
Nghost:    11537 ave 11540 max 11534 min
Histogram: 1 0 0 0 0 0 0 0 0 1
Neighs:    565204 ave 572970 max 557437 min
Histogram: 1 0 0 0 0 0 0 0 0 1

Total # of neighbors = 1130407
Ave neighs/atom = 57.5212
Neighbor list builds = 495
Dangerous builds not checked
Setting up Verlet run ...
  Unit style    : metal
  Current step  : 140495
  Time step     : 0.001
Per MPI rank memory allocation (min/avg/max) = 11.35 | 11.35 | 11.35 Mbytes
Step Temp Press TotEng PotEng Enthalpy 
  140495    2161.7385   -549.30566   -51932.664   -57423.677   -52082.412 
  160000    2144.4461   -327.35034   -52039.049   -57486.137   -52128.008 
Loop time of 1504.46 on 2 procs for 19505 steps with 19652 atoms

Performance: 1.120 ns/day, 21.426 hours/ns, 12.965 timesteps/s
98.6% CPU use with 2 MPI tasks x no OpenMP threads

MPI task timing breakdown:
Section |  min time  |  avg time  |  max time  |%varavg| %total
---------------------------------------------------------------
Pair    | 775.83     | 780.97     | 786.11     |  18.4 | 51.91
Neigh   | 649.75     | 653.25     | 656.76     |  13.7 | 43.42
Comm    | 42.012     | 50.693     | 59.374     | 121.9 |  3.37
Output  | 0.055281   | 0.055293   | 0.055304   |   0.0 |  0.00
Modify  | 15.352     | 15.356     | 15.36      |   0.1 |  1.02
Other   |            | 4.137      |            |       |  0.27

Nlocal:    9826 ave 9841 max 9811 min
Histogram: 1 0 0 0 0 0 0 0 0 1
Nghost:    11539 ave 11557 max 11521 min
Histogram: 1 0 0 0 0 0 0 0 0 1
Neighs:    566836 ave 573713 max 559960 min
Histogram: 1 0 0 0 0 0 0 0 0 1

Total # of neighbors = 1133673
Ave neighs/atom = 57.6874
Neighbor list builds = 19505
Dangerous builds not checked
Setting up Verlet run ...
  Unit style    : metal
  Current step  : 160000
  Time step     : 0.001
Per MPI rank memory allocation (min/avg/max) = 11.35 | 11.35 | 11.35 Mbytes
Step Temp Press TotEng PotEng Enthalpy 
  160000    2144.4461   -327.35034   -52039.049   -57486.137   -52128.008 
  160495    2107.1806    186.51085   -52225.304   -57577.735    -52174.84 
Loop time of 36.4117 on 2 procs for 495 steps with 19652 atoms

Performance: 1.175 ns/day, 20.433 hours/ns, 13.595 timesteps/s
99.0% CPU use with 2 MPI tasks x no OpenMP threads

MPI task timing breakdown:
Section |  min time  |  avg time  |  max time  |%varavg| %total
---------------------------------------------------------------
Pair    | 18.514     | 18.887     | 19.259     |   8.6 | 51.87
Neigh   | 15.472     | 15.86      | 16.248     |   9.7 | 43.56
Comm    | 1.1499     | 1.1718     | 1.1937     |   2.0 |  3.22
Output  | 8.7023e-05 | 0.00011301 | 0.000139   |   0.0 |  0.00
Modify  | 0.37914    | 0.38891    | 0.39869    |   1.6 |  1.07
Other   |            | 0.1043     |            |       |  0.29

Nlocal:    9826 ave 9827 max 9825 min
Histogram: 1 0 0 0 0 0 0 0 0 1
Nghost:    11566.5 ave 11594 max 11539 min
Histogram: 1 0 0 0 0 0 0 0 0 1
Neighs:    569638 ave 574922 max 564353 min
Histogram: 1 0 0 0 0 0 0 0 0 1

Total # of neighbors = 1139275
Ave neighs/atom = 57.9725
Neighbor list builds = 495
Dangerous builds not checked
Setting up Verlet run ...
  Unit style    : metal
  Current step  : 160495
  Time step     : 0.001
Per MPI rank memory allocation (min/avg/max) = 11.35 | 11.35 | 11.35 Mbytes
Step Temp Press TotEng PotEng Enthalpy 
  160495    2107.1806    186.51085   -52225.304   -57577.735    -52174.84 
  180000    2083.2196   -1283.8429    -52298.67   -57590.238    -52646.91 
Loop time of 1499.3 on 2 procs for 19505 steps with 19652 atoms

Performance: 1.124 ns/day, 21.352 hours/ns, 13.009 timesteps/s
98.9% CPU use with 2 MPI tasks x no OpenMP threads

MPI task timing breakdown:
Section |  min time  |  avg time  |  max time  |%varavg| %total
---------------------------------------------------------------
Pair    | 768.58     | 773.39     | 778.2      |  17.3 | 51.58
Neigh   | 652.79     | 655.07     | 657.36     |   8.9 | 43.69
Comm    | 48.054     | 50.537     | 53.019     |  34.9 |  3.37
Output  | 0.18836    | 0.18838    | 0.18839    |   0.0 |  0.01
Modify  | 15.836     | 15.922     | 16.009     |   2.2 |  1.06
Other   |            | 4.188      |            |       |  0.28

Nlocal:    9826 ave 9827 max 9825 min
Histogram: 1 0 0 0 0 0 0 0 0 1
Nghost:    11486.5 ave 11492 max 11481 min
Histogram: 1 0 0 0 0 0 0 0 0 1
Neighs:    568269 ave 573481 max 563057 min
Histogram: 1 0 0 0 0 0 0 0 0 1

Total # of neighbors = 1136538
Ave neighs/atom = 57.8332
Neighbor list builds = 19505
Dangerous builds not checked
Setting up Verlet run ...
  Unit style    : metal
  Current step  : 180000
  Time step     : 0.001
Per MPI rank memory allocation (min/avg/max) = 11.35 | 11.35 | 11.35 Mbytes
Step Temp Press TotEng PotEng Enthalpy 
  180000    2083.2196   -1283.8429    -52298.67   -57590.238    -52646.91 
  180495    2070.4066   -498.38062   -52494.984   -57754.005   -52629.258 
Loop time of 36.227 on 2 procs for 495 steps with 19652 atoms

Performance: 1.181 ns/day, 20.329 hours/ns, 13.664 timesteps/s
99.4% CPU use with 2 MPI tasks x no OpenMP threads

MPI task timing breakdown:
Section |  min time  |  avg time  |  max time  |%varavg| %total
---------------------------------------------------------------
Pair    | 18.738     | 18.817     | 18.897     |   1.8 | 51.94
Neigh   | 15.437     | 15.682     | 15.926     |   6.2 | 43.29
Comm    | 1.0191     | 1.183      | 1.3468     |  15.1 |  3.27
Output  | 0.00010896 | 0.00013196 | 0.00015497 |   0.0 |  0.00
Modify  | 0.43784    | 0.44111    | 0.44439    |   0.5 |  1.22
Other   |            | 0.1037     |            |       |  0.29

Nlocal:    9826 ave 9832 max 9820 min
Histogram: 1 0 0 0 0 0 0 0 0 1
Nghost:    11574.5 ave 11627 max 11522 min
Histogram: 1 0 0 0 0 0 0 0 0 1
Neighs:    572218 ave 576721 max 567714 min
Histogram: 1 0 0 0 0 0 0 0 0 1

Total # of neighbors = 1144435
Ave neighs/atom = 58.235
Neighbor list builds = 495
Dangerous builds not checked
Setting up Verlet run ...
  Unit style    : metal
  Current step  : 180495
  Time step     : 0.001
Per MPI rank memory allocation (min/avg/max) = 11.35 | 11.35 | 11.35 Mbytes
Step Temp Press TotEng PotEng Enthalpy 
  180495    2070.4066   -498.38062   -52494.984   -57754.005   -52629.258 
  200000    2020.9608   -484.31478   -52600.191   -57733.615    -52730.66 
Loop time of 1525.41 on 2 procs for 19505 steps with 19652 atoms

Performance: 1.105 ns/day, 21.724 hours/ns, 12.787 timesteps/s
97.7% CPU use with 2 MPI tasks x no OpenMP threads

MPI task timing breakdown:
Section |  min time  |  avg time  |  max time  |%varavg| %total
---------------------------------------------------------------
Pair    | 786.1      | 792.21     | 798.31     |  21.7 | 51.93
Neigh   | 653.08     | 657.4      | 661.72     |  16.8 | 43.10
Comm    | 43.547     | 54.125     | 64.703     | 143.8 |  3.55
Output  | 0.057976   | 0.057988   | 0.058      |   0.0 |  0.00
Modify  | 17.478     | 17.526     | 17.574     |   1.2 |  1.15
Other   |            | 4.09       |            |       |  0.27

Nlocal:    9826 ave 9827 max 9825 min
Histogram: 1 0 0 0 0 0 0 0 0 1
Nghost:    11631 ave 11637 max 11625 min
Histogram: 1 0 0 0 0 0 0 0 0 1
Neighs:    572148 ave 578412 max 565884 min
Histogram: 1 0 0 0 0 0 0 0 0 1

Total # of neighbors = 1144296
Ave neighs/atom = 58.228
Neighbor list builds = 19505
Dangerous builds not checked
Setting up Verlet run ...
  Unit style    : metal
  Current step  : 200000
  Time step     : 0.001
Per MPI rank memory allocation (min/avg/max) = 11.35 | 11.35 | 11.35 Mbytes
Step Temp Press TotEng PotEng Enthalpy 
  200000    2020.9608   -484.31478   -52600.191   -57733.615    -52730.66 
  200495    2016.5853     641.9678   -52748.817   -57871.127   -52576.997 
Loop time of 36.336 on 2 procs for 495 steps with 19652 atoms

Performance: 1.177 ns/day, 20.391 hours/ns, 13.623 timesteps/s
97.7% CPU use with 2 MPI tasks x no OpenMP threads

MPI task timing breakdown:
Section |  min time  |  avg time  |  max time  |%varavg| %total
---------------------------------------------------------------
Pair    | 18.541     | 18.824     | 19.108     |   6.5 | 51.81
Neigh   | 16.077     | 16.092     | 16.107     |   0.4 | 44.29
Comm    | 0.6558     | 0.93161    | 1.2074     |  28.6 |  2.56
Output  | 7.1049e-05 | 0.00010204 | 0.00013304 |   0.0 |  0.00
Modify  | 0.37785    | 0.37981    | 0.38177    |   0.3 |  1.05
Other   |            | 0.1079     |            |       |  0.30

Nlocal:    9826 ave 9826 max 9826 min
Histogram: 2 0 0 0 0 0 0 0 0 0
Nghost:    11581.5 ave 11600 max 11563 min
Histogram: 1 0 0 0 0 0 0 0 0 1
Neighs:    576106 ave 581444 max 570769 min
Histogram: 1 0 0 0 0 0 0 0 0 1

Total # of neighbors = 1152213
Ave neighs/atom = 58.6308
Neighbor list builds = 495
Dangerous builds not checked
Setting up Verlet run ...
  Unit style    : metal
  Current step  : 200495
  Time step     : 0.001
Per MPI rank memory allocation (min/avg/max) = 11.35 | 11.35 | 11.35 Mbytes
Step Temp Press TotEng PotEng Enthalpy 
  200495    2016.5853     641.9678   -52748.817   -57871.127   -52576.997 
  220000     2018.038   -74.925549   -52811.647   -57937.648   -52831.675 
Loop time of 1477.3 on 2 procs for 19505 steps with 19652 atoms

Performance: 1.141 ns/day, 21.039 hours/ns, 13.203 timesteps/s
99.4% CPU use with 2 MPI tasks x no OpenMP threads

MPI task timing breakdown:
Section |  min time  |  avg time  |  max time  |%varavg| %total
---------------------------------------------------------------
Pair    | 759.22     | 767.6      | 775.99     |  30.3 | 51.96
Neigh   | 640.78     | 642.15     | 643.52     |   5.4 | 43.47
Comm    | 41.15      | 48.233     | 55.315     | 102.0 |  3.26
Output  | 0.058971   | 0.058983   | 0.058995   |   0.0 |  0.00
Modify  | 15.06      | 15.115     | 15.169     |   1.4 |  1.02
Other   |            | 4.136      |            |       |  0.28

Nlocal:    9826 ave 9833 max 9819 min
Histogram: 1 0 0 0 0 0 0 0 0 1
Nghost:    11584.5 ave 11603 max 11566 min
Histogram: 1 0 0 0 0 0 0 0 0 1
Neighs:    576816 ave 582614 max 571018 min
Histogram: 1 0 0 0 0 0 0 0 0 1

Total # of neighbors = 1153632
Ave neighs/atom = 58.703
Neighbor list builds = 19505
Dangerous builds not checked
Setting up Verlet run ...
  Unit style    : metal
  Current step  : 220000
  Time step     : 0.001
Per MPI rank memory allocation (min/avg/max) = 11.35 | 11.35 | 11.35 Mbytes
Step Temp Press TotEng PotEng Enthalpy 
  220000     2018.038   -74.925549   -52811.647   -57937.648   -52831.675 
  220495    1957.1618   -44.186716   -52973.852   -57945.221   -52985.645 
Loop time of 36.8691 on 2 procs for 495 steps with 19652 atoms

Performance: 1.160 ns/day, 20.690 hours/ns, 13.426 timesteps/s
100.0% CPU use with 2 MPI tasks x no OpenMP threads

MPI task timing breakdown:
Section |  min time  |  avg time  |  max time  |%varavg| %total
---------------------------------------------------------------
Pair    | 18.972     | 19.288     | 19.604     |   7.2 | 52.31
Neigh   | 14.319     | 15.588     | 16.856     |  32.1 | 42.28
Comm    | 0.52257    | 1.5098     | 2.4971     |  80.3 |  4.10
Output  | 8.7976e-05 | 0.0001061  | 0.00012422 |   0.0 |  0.00
Modify  | 0.35881    | 0.38102    | 0.40322    |   3.6 |  1.03
Other   |            | 0.1027     |            |       |  0.28

Nlocal:    9826 ave 9860 max 9792 min
Histogram: 1 0 0 0 0 0 0 0 0 1
Nghost:    11575 ave 11585 max 11565 min
Histogram: 1 0 0 0 0 0 0 0 0 1
Neighs:    577572 ave 579404 max 575740 min
Histogram: 1 0 0 0 0 0 0 0 0 1

Total # of neighbors = 1155144
Ave neighs/atom = 58.78
Neighbor list builds = 495
Dangerous builds not checked
Setting up Verlet run ...
  Unit style    : metal
  Current step  : 220495
  Time step     : 0.001
Per MPI rank memory allocation (min/avg/max) = 11.35 | 11.35 | 11.35 Mbytes
Step Temp Press TotEng PotEng Enthalpy 
  220495    1957.1618   -44.186716   -52973.852   -57945.221   -52985.645 
  240000    1950.4656    -191.0204   -53094.645   -58049.006   -53145.475 
Loop time of 1500.01 on 2 procs for 19505 steps with 19652 atoms

Performance: 1.123 ns/day, 21.362 hours/ns, 13.003 timesteps/s
98.7% CPU use with 2 MPI tasks x no OpenMP threads

MPI task timing breakdown:
Section |  min time  |  avg time  |  max time  |%varavg| %total
---------------------------------------------------------------
Pair    | 774.36     | 776.24     | 778.11     |   6.7 | 51.75
Neigh   | 649.55     | 650.35     | 651.15     |   3.1 | 43.36
Comm    | 51.339     | 53.909     | 56.48      |  35.0 |  3.59
Output  | 0.054238   | 0.054248   | 0.054259   |   0.0 |  0.00
Modify  | 15.323     | 15.326     | 15.33      |   0.1 |  1.02
Other   |            | 4.131      |            |       |  0.28

Nlocal:    9826 ave 9853 max 9799 min
Histogram: 1 0 0 0 0 0 0 0 0 1
Nghost:    11536.5 ave 11585 max 11488 min
Histogram: 1 0 0 0 0 0 0 0 0 1
Neighs:    579522 ave 586272 max 572772 min
Histogram: 1 0 0 0 0 0 0 0 0 1

Total # of neighbors = 1159044
Ave neighs/atom = 58.9784
Neighbor list builds = 19505
Dangerous builds not checked
Setting up Verlet run ...
  Unit style    : metal
  Current step  : 240000
  Time step     : 0.001
Per MPI rank memory allocation (min/avg/max) = 11.35 | 11.35 | 11.35 Mbytes
Step Temp Press TotEng PotEng Enthalpy 
  240000    1950.4656    -191.0204   -53094.645   -58049.006   -53145.475 
  240495    1910.8112     207.0455   -53296.456    -58150.09   -53241.582 
Loop time of 36.9373 on 2 procs for 495 steps with 19652 atoms

Performance: 1.158 ns/day, 20.728 hours/ns, 13.401 timesteps/s
99.2% CPU use with 2 MPI tasks x no OpenMP threads

MPI task timing breakdown:
Section |  min time  |  avg time  |  max time  |%varavg| %total
---------------------------------------------------------------
Pair    | 18.802     | 19.197     | 19.591     |   9.0 | 51.97
Neigh   | 15.679     | 16.054     | 16.429     |   9.4 | 43.46
Comm    | 1.1634     | 1.1838     | 1.2043     |   1.9 |  3.21
Output  | 8.297e-05  | 0.00010753 | 0.00013208 |   0.0 |  0.00
Modify  | 0.39185    | 0.39693    | 0.402      |   0.8 |  1.07
Other   |            | 0.1059     |            |       |  0.29

Nlocal:    9826 ave 9853 max 9799 min
Histogram: 1 0 0 0 0 0 0 0 0 1
Nghost:    11628.5 ave 11650 max 11607 min
Histogram: 1 0 0 0 0 0 0 0 0 1
Neighs:    582168 ave 584967 max 579370 min
Histogram: 1 0 0 0 0 0 0 0 0 1

Total # of neighbors = 1164337
Ave neighs/atom = 59.2478
Neighbor list builds = 495
Dangerous builds not checked
Setting up Verlet run ...
  Unit style    : metal
  Current step  : 240495
  Time step     : 0.001
Per MPI rank memory allocation (min/avg/max) = 11.35 | 11.35 | 11.35 Mbytes
Step Temp Press TotEng PotEng Enthalpy 
  240495    1910.8112     207.0455   -53296.456    -58150.09   -53241.582 
  260000    1890.8931   -63.133968   -53396.012   -58199.053   -53412.722 
Loop time of 1525.65 on 2 procs for 19505 steps with 19652 atoms

Performance: 1.105 ns/day, 21.727 hours/ns, 12.785 timesteps/s
98.8% CPU use with 2 MPI tasks x no OpenMP threads

MPI task timing breakdown:
Section |  min time  |  avg time  |  max time  |%varavg| %total
---------------------------------------------------------------
Pair    | 789.54     | 792.88     | 796.22     |  11.9 | 51.97
Neigh   | 654.72     | 659.31     | 663.91     |  17.9 | 43.22
Comm    | 44.661     | 52.648     | 60.636     | 110.1 |  3.45
Output  | 0.079625   | 0.079646   | 0.079666   |   0.0 |  0.01
Modify  | 16.691     | 16.741     | 16.791     |   1.2 |  1.10
Other   |            | 3.989      |            |       |  0.26

Nlocal:    9826 ave 9846 max 9806 min
Histogram: 1 0 0 0 0 0 0 0 0 1
Nghost:    11663.5 ave 11694 max 11633 min
Histogram: 1 0 0 0 0 0 0 0 0 1
Neighs:    582564 ave 586518 max 578610 min
Histogram: 1 0 0 0 0 0 0 0 0 1

Total # of neighbors = 1165128
Ave neighs/atom = 59.288
Neighbor list builds = 19505
Dangerous builds not checked
Setting up Verlet run ...
  Unit style    : metal
  Current step  : 260000
  Time step     : 0.001
Per MPI rank memory allocation (min/avg/max) = 11.35 | 11.35 | 11.35 Mbytes
Step Temp Press TotEng PotEng Enthalpy 
  260000    1890.8931   -63.133968   -53396.012   -58199.053   -53412.722 
  260495    1853.7545    13.026056    -53526.78   -58235.486   -53523.341 
Loop time of 38.3372 on 2 procs for 495 steps with 19652 atoms

Performance: 1.116 ns/day, 21.514 hours/ns, 12.912 timesteps/s
96.6% CPU use with 2 MPI tasks x no OpenMP threads

MPI task timing breakdown:
Section |  min time  |  avg time  |  max time  |%varavg| %total
---------------------------------------------------------------
Pair    | 20.417     | 20.642     | 20.867     |   4.9 | 53.84
Neigh   | 14.478     | 15.33      | 16.181     |  21.7 | 39.99
Comm    | 1.2327     | 1.8698     | 2.507      |  46.6 |  4.88
Output  | 7.1049e-05 | 8.7023e-05 | 0.000103   |   0.0 |  0.00
Modify  | 0.37909    | 0.39094    | 0.4028     |   1.9 |  1.02
Other   |            | 0.1048     |            |       |  0.27

Nlocal:    9826 ave 9834 max 9818 min
Histogram: 1 0 0 0 0 0 0 0 0 1
Nghost:    11664 ave 11673 max 11655 min
Histogram: 1 0 0 0 0 0 0 0 0 1
Neighs:    584174 ave 589876 max 578473 min
Histogram: 1 0 0 0 0 0 0 0 0 1

Total # of neighbors = 1168349
Ave neighs/atom = 59.4519
Neighbor list builds = 495
Dangerous builds not checked
Setting up Verlet run ...
  Unit style    : metal
  Current step  : 260495
  Time step     : 0.001
Per MPI rank memory allocation (min/avg/max) = 11.35 | 11.35 | 11.35 Mbytes
Step Temp Press TotEng PotEng Enthalpy 
  260495    1853.7545    13.026056    -53526.78   -58235.486   -53523.341 
  280000    1849.1354   -113.48921   -53598.614   -58295.587   -53628.535 
Loop time of 1558.72 on 2 procs for 19505 steps with 19652 atoms

Performance: 1.081 ns/day, 22.198 hours/ns, 12.513 timesteps/s
96.3% CPU use with 2 MPI tasks x no OpenMP threads

MPI task timing breakdown:
Section |  min time  |  avg time  |  max time  |%varavg| %total
---------------------------------------------------------------
Pair    | 803.4      | 806.72     | 810.05     |  11.7 | 51.76
Neigh   | 623.14     | 636.7      | 650.26     |  53.7 | 40.85
Comm    | 80.995     | 90.884     | 100.77     | 103.7 |  5.83
Output  | 0.060054   | 0.060062   | 0.06007    |   0.0 |  0.00
Modify  | 20.016     | 20.269     | 20.521     |   5.6 |  1.30
Other   |            | 4.092      |            |       |  0.26

Nlocal:    9826 ave 9827 max 9825 min
Histogram: 1 0 0 0 0 0 0 0 0 1
Nghost:    11674 ave 11708 max 11640 min
Histogram: 1 0 0 0 0 0 0 0 0 1
Neighs:    584864 ave 588921 max 580806 min
Histogram: 1 0 0 0 0 0 0 0 0 1

Total # of neighbors = 1169727
Ave neighs/atom = 59.522
Neighbor list builds = 19505
Dangerous builds not checked
Setting up Verlet run ...
  Unit style    : metal
  Current step  : 280000
  Time step     : 0.001
Per MPI rank memory allocation (min/avg/max) = 11.35 | 11.35 | 11.35 Mbytes
Step Temp Press TotEng PotEng Enthalpy 
  280000    1849.1354   -113.48921   -53598.614   -58295.587   -53628.535 
  280495    1803.6797   -297.93272    -53812.02   -58393.531   -53890.283 
Loop time of 36.7557 on 2 procs for 495 steps with 19652 atoms

Performance: 1.164 ns/day, 20.626 hours/ns, 13.467 timesteps/s
97.1% CPU use with 2 MPI tasks x no OpenMP threads

MPI task timing breakdown:
Section |  min time  |  avg time  |  max time  |%varavg| %total
---------------------------------------------------------------
Pair    | 18.532     | 18.882     | 19.232     |   8.1 | 51.37
Neigh   | 13.645     | 14.687     | 15.728     |  27.2 | 39.96
Comm    | 2.0055     | 2.7251     | 3.4447     |  43.6 |  7.41
Output  | 8.0109e-05 | 9.5129e-05 | 0.00011015 |   0.0 |  0.00
Modify  | 0.34239    | 0.3605     | 0.37861    |   3.0 |  0.98
Other   |            | 0.1013     |            |       |  0.28

Nlocal:    9826 ave 9836 max 9816 min
Histogram: 1 0 0 0 0 0 0 0 0 1
Nghost:    11733 ave 11740 max 11726 min
Histogram: 1 0 0 0 0 0 0 0 0 1
Neighs:    587190 ave 591084 max 583297 min
Histogram: 1 0 0 0 0 0 0 0 0 1

Total # of neighbors = 1174381
Ave neighs/atom = 59.7589
Neighbor list builds = 495
Dangerous builds not checked
Setting up Verlet run ...
  Unit style    : metal
  Current step  : 280495
  Time step     : 0.001
Per MPI rank memory allocation (min/avg/max) = 11.35 | 11.35 | 11.35 Mbytes
Step Temp Press TotEng PotEng Enthalpy 
  280495    1803.6797   -297.93272    -53812.02   -58393.531   -53890.283 
  300000    1820.5609    673.09595   -53828.022   -58452.412   -53651.853 
Loop time of 1467.5 on 2 procs for 19505 steps with 19652 atoms

Performance: 1.148 ns/day, 20.899 hours/ns, 13.291 timesteps/s
99.1% CPU use with 2 MPI tasks x no OpenMP threads

MPI task timing breakdown:
Section |  min time  |  avg time  |  max time  |%varavg| %total
---------------------------------------------------------------
Pair    | 763.53     | 769.23     | 774.92     |  20.5 | 52.42
Neigh   | 601.05     | 620.59     | 640.13     |  78.4 | 42.29
Comm    | 42.927     | 56.989     | 71.051     | 186.3 |  3.88
Output  | 1.4428     | 1.4428     | 1.4428     |   0.0 |  0.10
Modify  | 15.019     | 15.317     | 15.616     |   7.6 |  1.04
Other   |            | 3.933      |            |       |  0.27

Nlocal:    9826 ave 9838 max 9814 min
Histogram: 1 0 0 0 0 0 0 0 0 1
Nghost:    11716 ave 11743 max 11689 min
Histogram: 1 0 0 0 0 0 0 0 0 1
Neighs:    589427 ave 597083 max 581771 min
Histogram: 1 0 0 0 0 0 0 0 0 1

Total # of neighbors = 1178854
Ave neighs/atom = 59.9865
Neighbor list builds = 19505
Dangerous builds not checked
Setting up Verlet run ...
  Unit style    : metal
  Current step  : 300000
  Time step     : 0.001
Per MPI rank memory allocation (min/avg/max) = 11.35 | 11.35 | 11.35 Mbytes
Step Temp Press TotEng PotEng Enthalpy 
  300000    1820.5609    673.09595   -53828.022   -58452.412   -53651.853 
  300495    1760.3567   -174.53311   -54050.004    -58521.47   -54095.621 
Loop time of 33.264 on 2 procs for 495 steps with 19652 atoms

Performance: 1.286 ns/day, 18.667 hours/ns, 14.881 timesteps/s
99.8% CPU use with 2 MPI tasks x no OpenMP threads

MPI task timing breakdown:
Section |  min time  |  avg time  |  max time  |%varavg| %total
---------------------------------------------------------------
Pair    | 17.279     | 17.3       | 17.322     |   0.5 | 52.01
Neigh   | 13.877     | 14.232     | 14.587     |   9.4 | 42.79
Comm    | 0.95903    | 1.2997     | 1.6404     |  29.9 |  3.91
Output  | 8.3923e-05 | 0.00010395 | 0.00012398 |   0.0 |  0.00
Modify  | 0.33891    | 0.34451    | 0.3501     |   1.0 |  1.04
Other   |            | 0.0873     |            |       |  0.26

Nlocal:    9826 ave 9840 max 9812 min
Histogram: 1 0 0 0 0 0 0 0 0 1
Nghost:    11707.5 ave 11731 max 11684 min
Histogram: 1 0 0 0 0 0 0 0 0 1
Neighs:    590320 ave 597223 max 583417 min
Histogram: 1 0 0 0 0 0 0 0 0 1

Total # of neighbors = 1180640
Ave neighs/atom = 60.0773
Neighbor list builds = 495
Dangerous builds not checked
Setting up Verlet run ...
  Unit style    : metal
  Current step  : 300495
  Time step     : 0.001
Per MPI rank memory allocation (min/avg/max) = 11.35 | 11.35 | 11.35 Mbytes
Step Temp Press TotEng PotEng Enthalpy 
  300495    1760.3567   -174.53311   -54050.004    -58521.47   -54095.621 
  320000    1738.8187   -22.969836   -54173.338   -58590.096   -54179.325 
Loop time of 1441.61 on 2 procs for 19505 steps with 19652 atoms

Performance: 1.169 ns/day, 20.530 hours/ns, 13.530 timesteps/s
98.8% CPU use with 2 MPI tasks x no OpenMP threads

MPI task timing breakdown:
Section |  min time  |  avg time  |  max time  |%varavg| %total
---------------------------------------------------------------
Pair    | 748.69     | 750.42     | 752.15     |   6.3 | 52.05
Neigh   | 603.12     | 609.61     | 616.1      |  26.3 | 42.29
Comm    | 47.631     | 56.069     | 64.506     | 112.7 |  3.89
Output  | 0.050508   | 0.050514   | 0.05052    |   0.0 |  0.00
Modify  | 21.451     | 21.65      | 21.849     |   4.3 |  1.50
Other   |            | 3.808      |            |       |  0.26

Nlocal:    9826 ave 9831 max 9821 min
Histogram: 1 0 0 0 0 0 0 0 0 1
Nghost:    11723.5 ave 11761 max 11686 min
Histogram: 1 0 0 0 0 0 0 0 0 1
Neighs:    592198 ave 598353 max 586042 min
Histogram: 1 0 0 0 0 0 0 0 0 1

Total # of neighbors = 1184395
Ave neighs/atom = 60.2684
Neighbor list builds = 19505
Dangerous builds not checked
Setting up Verlet run ...
  Unit style    : metal
  Current step  : 320000
  Time step     : 0.001
Per MPI rank memory allocation (min/avg/max) = 11.35 | 11.35 | 11.35 Mbytes
Step Temp Press TotEng PotEng Enthalpy 
  320000    1738.8187   -22.969836   -54173.338   -58590.096   -54179.325 
  320495    1708.5222    213.19191    -54348.24   -58688.042   -54292.894 
Loop time of 34.6314 on 2 procs for 495 steps with 19652 atoms

Performance: 1.235 ns/day, 19.434 hours/ns, 14.293 timesteps/s
99.7% CPU use with 2 MPI tasks x no OpenMP threads

MPI task timing breakdown:
Section |  min time  |  avg time  |  max time  |%varavg| %total
---------------------------------------------------------------
Pair    | 17.927     | 18.121     | 18.315     |   4.6 | 52.33
Neigh   | 14.51      | 14.675     | 14.84      |   4.3 | 42.37
Comm    | 1.3598     | 1.3841     | 1.4085     |   2.1 |  4.00
Output  | 7.1049e-05 | 0.000108   | 0.00014496 |   0.0 |  0.00
Modify  | 0.35707    | 0.36003    | 0.36299    |   0.5 |  1.04
Other   |            | 0.09103    |            |       |  0.26

Nlocal:    9826 ave 9845 max 9807 min
Histogram: 1 0 0 0 0 0 0 0 0 1
Nghost:    11728 ave 11733 max 11723 min
Histogram: 1 0 0 0 0 0 0 0 0 1
Neighs:    594332 ave 601469 max 587196 min
Histogram: 1 0 0 0 0 0 0 0 0 1

Total # of neighbors = 1188665
Ave neighs/atom = 60.4857
Neighbor list builds = 495
Dangerous builds not checked
Setting up Verlet run ...
  Unit style    : metal
  Current step  : 320495
  Time step     : 0.001
Per MPI rank memory allocation (min/avg/max) = 11.35 | 11.35 | 11.35 Mbytes
Step Temp Press TotEng PotEng Enthalpy 
  320495    1708.5222    213.19191    -54348.24   -58688.042   -54292.894 
  340000    1676.7938   -465.75025    -54466.15   -58725.359   -54587.069 
Loop time of 1485.73 on 2 procs for 19505 steps with 19652 atoms

Performance: 1.134 ns/day, 21.159 hours/ns, 13.128 timesteps/s
98.1% CPU use with 2 MPI tasks x no OpenMP threads

MPI task timing breakdown:
Section |  min time  |  avg time  |  max time  |%varavg| %total
---------------------------------------------------------------
Pair    | 776.16     | 777.97     | 779.77     |   6.5 | 52.36
Neigh   | 615.02     | 617.96     | 620.9      |  11.8 | 41.59
Comm    | 66.276     | 67.594     | 68.912     |  16.0 |  4.55
Output  | 0.08528    | 0.085297   | 0.085314   |   0.0 |  0.01
Modify  | 17.956     | 18.201     | 18.447     |   5.8 |  1.23
Other   |            | 3.923      |            |       |  0.26

Nlocal:    9826 ave 9856 max 9796 min
Histogram: 1 0 0 0 0 0 0 0 0 1
Nghost:    11752.5 ave 11767 max 11738 min
Histogram: 1 0 0 0 0 0 0 0 0 1
Neighs:    594300 ave 597680 max 590921 min
Histogram: 1 0 0 0 0 0 0 0 0 1

Total # of neighbors = 1188601
Ave neighs/atom = 60.4824
Neighbor list builds = 19505
Dangerous builds not checked
Setting up Verlet run ...
  Unit style    : metal
  Current step  : 340000
  Time step     : 0.001
Per MPI rank memory allocation (min/avg/max) = 11.35 | 11.35 | 11.35 Mbytes
Step Temp Press TotEng PotEng Enthalpy 
  340000    1676.7938   -465.75025    -54466.15   -58725.359   -54587.069 
  340495    1670.1251   -724.00096   -54628.318   -58870.588   -54815.396 
Loop time of 39.9042 on 2 procs for 495 steps with 19652 atoms

Performance: 1.072 ns/day, 22.393 hours/ns, 12.405 timesteps/s
93.0% CPU use with 2 MPI tasks x no OpenMP threads

MPI task timing breakdown:
Section |  min time  |  avg time  |  max time  |%varavg| %total
---------------------------------------------------------------
Pair    | 19.427     | 19.787     | 20.147     |   8.1 | 49.59
Neigh   | 14.423     | 15.093     | 15.763     |  17.3 | 37.82
Comm    | 4.0105     | 4.2647     | 4.519      |  12.3 | 10.69
Output  | 7.391e-05  | 0.00010943 | 0.00014496 |   0.0 |  0.00
Modify  | 0.60539    | 0.65986    | 0.71433    |   6.7 |  1.65
Other   |            | 0.0992     |            |       |  0.25

Nlocal:    9826 ave 9832 max 9820 min
Histogram: 1 0 0 0 0 0 0 0 0 1
Nghost:    11734.5 ave 11746 max 11723 min
Histogram: 1 0 0 0 0 0 0 0 0 1
Neighs:    597558 ave 602679 max 592437 min
Histogram: 1 0 0 0 0 0 0 0 0 1

Total # of neighbors = 1195116
Ave neighs/atom = 60.814
Neighbor list builds = 495
Dangerous builds not checked
Setting up Verlet run ...
  Unit style    : metal
  Current step  : 340495
  Time step     : 0.001
Per MPI rank memory allocation (min/avg/max) = 11.35 | 11.35 | 11.35 Mbytes
Step Temp Press TotEng PotEng Enthalpy 
  340495    1670.1251   -724.00096   -54628.318   -58870.588   -54815.396 
  360000     1660.526    610.99694   -54690.116   -58908.003   -54532.799 
Loop time of 1479.1 on 2 procs for 19505 steps with 19652 atoms

Performance: 1.139 ns/day, 21.064 hours/ns, 13.187 timesteps/s
97.8% CPU use with 2 MPI tasks x no OpenMP threads

MPI task timing breakdown:
Section |  min time  |  avg time  |  max time  |%varavg| %total
---------------------------------------------------------------
Pair    | 774.15     | 774.79     | 775.44     |   2.3 | 52.38
Neigh   | 611.47     | 613.4      | 615.32     |   7.8 | 41.47
Comm    | 69.221     | 70.753     | 72.285     |  18.2 |  4.78
Output  | 0.40039    | 0.40041    | 0.40042    |   0.0 |  0.03
Modify  | 15.667     | 15.788     | 15.909     |   3.0 |  1.07
Other   |            | 3.968      |            |       |  0.27

Nlocal:    9826 ave 9836 max 9816 min
Histogram: 1 0 0 0 0 0 0 0 0 1
Nghost:    11708.5 ave 11713 max 11704 min
Histogram: 1 0 0 0 0 0 0 0 0 1
Neighs:    599571 ave 605673 max 593469 min
Histogram: 1 0 0 0 0 0 0 0 0 1

Total # of neighbors = 1199142
Ave neighs/atom = 61.0188
Neighbor list builds = 19505
Dangerous builds not checked
Setting up Verlet run ...
  Unit style    : metal
  Current step  : 360000
  Time step     : 0.001
Per MPI rank memory allocation (min/avg/max) = 11.35 | 11.35 | 11.35 Mbytes
Step Temp Press TotEng PotEng Enthalpy 
  360000     1660.526    610.99694   -54690.116   -58908.003   -54532.799 
  360495    1619.8765    73.083166   -54899.579   -59014.213   -54880.819 
Loop time of 42.9867 on 2 procs for 495 steps with 19652 atoms

Performance: 0.995 ns/day, 24.123 hours/ns, 11.515 timesteps/s
88.7% CPU use with 2 MPI tasks x no OpenMP threads

MPI task timing breakdown:
Section |  min time  |  avg time  |  max time  |%varavg| %total
---------------------------------------------------------------
Pair    | 20.444     | 20.696     | 20.948     |   5.5 | 48.14
Neigh   | 14.533     | 15.161     | 15.789     |  16.1 | 35.27
Comm    | 5.7749     | 5.9152     | 6.0556     |   5.8 | 13.76
Output  | 7.2002e-05 | 9.4533e-05 | 0.00011706 |   0.0 |  0.00
Modify  | 0.88146    | 1.1136     | 1.3458     |  22.0 |  2.59
Other   |            | 0.1011     |            |       |  0.24

Nlocal:    9826 ave 9843 max 9809 min
Histogram: 1 0 0 0 0 0 0 0 0 1
Nghost:    11804.5 ave 11837 max 11772 min
Histogram: 1 0 0 0 0 0 0 0 0 1
Neighs:    601340 ave 605671 max 597010 min
Histogram: 1 0 0 0 0 0 0 0 0 1

Total # of neighbors = 1202681
Ave neighs/atom = 61.1989
Neighbor list builds = 495
Dangerous builds not checked
Setting up Verlet run ...
  Unit style    : metal
  Current step  : 360495
  Time step     : 0.001
Per MPI rank memory allocation (min/avg/max) = 11.35 | 11.35 | 11.35 Mbytes
Step Temp Press TotEng PotEng Enthalpy 
  360495    1619.8765    73.083166   -54899.579   -59014.213   -54880.819 
  380000    1605.8261    834.10459   -54958.945    -59037.89   -54745.295 
Loop time of 1744.45 on 2 procs for 19505 steps with 19652 atoms

Performance: 0.966 ns/day, 24.843 hours/ns, 11.181 timesteps/s
89.0% CPU use with 2 MPI tasks x no OpenMP threads

MPI task timing breakdown:
Section |  min time  |  avg time  |  max time  |%varavg| %total
---------------------------------------------------------------
Pair    | 860.96     | 864.16     | 867.35     |  10.9 | 49.54
Neigh   | 602.7      | 605.51     | 608.31     |  11.4 | 34.71
Comm    | 235.04     | 240.1      | 245.16     |  32.7 | 13.76
Output  | 0.092914   | 0.092923   | 0.092931   |   0.0 |  0.01
Modify  | 29.692     | 30.666     | 31.64      |  17.6 |  1.76
Other   |            | 3.927      |            |       |  0.23

Nlocal:    9826 ave 9835 max 9817 min
Histogram: 1 0 0 0 0 0 0 0 0 1
Nghost:    11753.5 ave 11756 max 11751 min
Histogram: 1 0 0 0 0 0 0 0 0 1
Neighs:    602604 ave 607591 max 597618 min
Histogram: 1 0 0 0 0 0 0 0 0 1

Total # of neighbors = 1205209
Ave neighs/atom = 61.3275
Neighbor list builds = 19505
Dangerous builds not checked
Setting up Verlet run ...
  Unit style    : metal
  Current step  : 380000
  Time step     : 0.001
Per MPI rank memory allocation (min/avg/max) = 11.35 | 11.35 | 11.35 Mbytes
Step Temp Press TotEng PotEng Enthalpy 
  380000    1605.8261    834.10459   -54958.945    -59037.89   -54745.295 
  380495    1562.5725     298.9023    -55167.27   -59136.347   -55090.966 
Loop time of 38.9062 on 2 procs for 495 steps with 19652 atoms

Performance: 1.099 ns/day, 21.833 hours/ns, 12.723 timesteps/s
94.3% CPU use with 2 MPI tasks x no OpenMP threads

MPI task timing breakdown:
Section |  min time  |  avg time  |  max time  |%varavg| %total
---------------------------------------------------------------
Pair    | 19.206     | 19.754     | 20.302     |  12.3 | 50.77
Neigh   | 13.135     | 14.448     | 15.761     |  34.5 | 37.14
Comm    | 3.4277     | 3.9796     | 4.5316     |  27.7 | 10.23
Output  | 9.0122e-05 | 0.00010359 | 0.00011706 |   0.0 |  0.00
Modify  | 0.41388    | 0.62904    | 0.84421    |  27.1 |  1.62
Other   |            | 0.09518    |            |       |  0.24

Nlocal:    9826 ave 9859 max 9793 min
Histogram: 1 0 0 0 0 0 0 0 0 1
Nghost:    11797.5 ave 11845 max 11750 min
Histogram: 1 0 0 0 0 0 0 0 0 1
Neighs:    604622 ave 607946 max 601297 min
Histogram: 1 0 0 0 0 0 0 0 0 1

Total # of neighbors = 1209243
Ave neighs/atom = 61.5328
Neighbor list builds = 495
Dangerous builds not checked
Setting up Verlet run ...
  Unit style    : metal
  Current step  : 380495
  Time step     : 0.001
Per MPI rank memory allocation (min/avg/max) = 11.35 | 11.35 | 11.35 Mbytes
Step Temp Press TotEng PotEng Enthalpy 
  380495    1562.5725     298.9023    -55167.27   -59136.347   -55090.966 
  400000    1553.8686     347.8732   -55246.128   -59193.096   -55157.502 
Loop time of 1702.83 on 2 procs for 19505 steps with 19652 atoms

Performance: 0.990 ns/day, 24.251 hours/ns, 11.454 timesteps/s
91.1% CPU use with 2 MPI tasks x no OpenMP threads

MPI task timing breakdown:
Section |  min time  |  avg time  |  max time  |%varavg| %total
---------------------------------------------------------------
Pair    | 867        | 872.02     | 877.03     |  17.0 | 51.21
Neigh   | 600.34     | 603.77     | 607.2      |  14.0 | 35.46
Comm    | 194.57     | 197        | 199.42     |  17.3 | 11.57
Output  | 0.20425    | 0.20427    | 0.20428    |   0.0 |  0.01
Modify  | 24.962     | 25.892     | 26.823     |  18.3 |  1.52
Other   |            | 3.95       |            |       |  0.23

Nlocal:    9826 ave 9839 max 9813 min
Histogram: 1 0 0 0 0 0 0 0 0 1
Nghost:    11862.5 ave 11875 max 11850 min
Histogram: 1 0 0 0 0 0 0 0 0 1
Neighs:    606066 ave 612552 max 599581 min
Histogram: 1 0 0 0 0 0 0 0 0 1

Total # of neighbors = 1212133
Ave neighs/atom = 61.6799
Neighbor list builds = 19505
Dangerous builds not checked
Setting up Verlet run ...
  Unit style    : metal
  Current step  : 400000
  Time step     : 0.001
Per MPI rank memory allocation (min/avg/max) = 11.35 | 11.35 | 11.35 Mbytes
Step Temp Press TotEng PotEng Enthalpy 
  400000    1553.8686     347.8732   -55246.128   -59193.096   -55157.502 
  400495    1510.5174     610.5019   -55458.832   -59295.684   -55303.981 
Loop time of 36.2222 on 2 procs for 495 steps with 19652 atoms

Performance: 1.181 ns/day, 20.327 hours/ns, 13.666 timesteps/s
98.0% CPU use with 2 MPI tasks x no OpenMP threads

MPI task timing breakdown:
Section |  min time  |  avg time  |  max time  |%varavg| %total
---------------------------------------------------------------
Pair    | 18.924     | 19.002     | 19.08      |   1.8 | 52.46
Neigh   | 14.435     | 14.878     | 15.32      |  11.5 | 41.07
Comm    | 1.5033     | 1.8793     | 2.2553     |  27.4 |  5.19
Output  | 7.2956e-05 | 0.00010002 | 0.00012708 |   0.0 |  0.00
Modify  | 0.3474     | 0.35636    | 0.36531    |   1.5 |  0.98
Other   |            | 0.1066     |            |       |  0.29

Nlocal:    9826 ave 9830 max 9822 min
Histogram: 1 0 0 0 0 0 0 0 0 1
Nghost:    11822.5 ave 11828 max 11817 min
Histogram: 1 0 0 0 0 0 0 0 0 1
Neighs:    608987 ave 614939 max 603035 min
Histogram: 1 0 0 0 0 0 0 0 0 1

Total # of neighbors = 1217974
Ave neighs/atom = 61.9771
Neighbor list builds = 495
Dangerous builds not checked
Setting up Verlet run ...
  Unit style    : metal
  Current step  : 400495
  Time step     : 0.001
Per MPI rank memory allocation (min/avg/max) = 11.35 | 11.35 | 11.35 Mbytes
Step Temp Press TotEng PotEng Enthalpy 
  400495    1510.5174     610.5019   -55458.832   -59295.684   -55303.981 
  420000    1492.0552   -453.36862   -55558.788   -59348.744   -55673.828 
Loop time of 1483.78 on 2 procs for 19505 steps with 19652 atoms

Performance: 1.136 ns/day, 21.131 hours/ns, 13.145 timesteps/s
98.2% CPU use with 2 MPI tasks x no OpenMP threads

MPI task timing breakdown:
Section |  min time  |  avg time  |  max time  |%varavg| %total
---------------------------------------------------------------
Pair    | 783.77     | 787.06     | 790.34     |  11.7 | 53.04
Neigh   | 595.08     | 601.1      | 607.12     |  24.5 | 40.51
Comm    | 73.231     | 75.712     | 78.193     |  28.5 |  5.10
Output  | 0.18591    | 0.18592    | 0.18593    |   0.0 |  0.01
Modify  | 15.391     | 15.599     | 15.807     |   5.3 |  1.05
Other   |            | 4.13       |            |       |  0.28

Nlocal:    9826 ave 9830 max 9822 min
Histogram: 1 0 0 0 0 0 0 0 0 1
Nghost:    11843.5 ave 11867 max 11820 min
Histogram: 1 0 0 0 0 0 0 0 0 1
Neighs:    608482 ave 614004 max 602959 min
Histogram: 1 0 0 0 0 0 0 0 0 1

Total # of neighbors = 1216963
Ave neighs/atom = 61.9257
Neighbor list builds = 19505
Dangerous builds not checked
Setting up Verlet run ...
  Unit style    : metal
  Current step  : 420000
  Time step     : 0.001
Per MPI rank memory allocation (min/avg/max) = 11.35 | 11.35 | 11.35 Mbytes
Step Temp Press TotEng PotEng Enthalpy 
  420000    1492.0552   -453.36862   -55558.788   -59348.744   -55673.828 
  420495    1465.6972    334.83048   -55738.304   -59461.308    -55653.85 
Loop time of 39.4684 on 2 procs for 495 steps with 19652 atoms

Performance: 1.084 ns/day, 22.148 hours/ns, 12.542 timesteps/s
97.0% CPU use with 2 MPI tasks x no OpenMP threads

MPI task timing breakdown:
Section |  min time  |  avg time  |  max time  |%varavg| %total
---------------------------------------------------------------
Pair    | 19.907     | 19.943     | 19.979     |   0.8 | 50.53
Neigh   | 15.628     | 15.689     | 15.75      |   1.5 | 39.75
Comm    | 3.2576     | 3.3535     | 3.4494     |   5.2 |  8.50
Output  | 5.2929e-05 | 7.689e-05  | 0.00010085 |   0.0 |  0.00
Modify  | 0.38131    | 0.38239    | 0.38348    |   0.2 |  0.97
Other   |            | 0.1006     |            |       |  0.25

Nlocal:    9826 ave 9832 max 9820 min
Histogram: 1 0 0 0 0 0 0 0 0 1
Nghost:    11896.5 ave 11900 max 11893 min
Histogram: 1 0 0 0 0 0 0 0 0 1
Neighs:    612160 ave 616895 max 607426 min
Histogram: 1 0 0 0 0 0 0 0 0 1

Total # of neighbors = 1224321
Ave neighs/atom = 62.3001
Neighbor list builds = 495
Dangerous builds not checked
Setting up Verlet run ...
  Unit style    : metal
  Current step  : 420495
  Time step     : 0.001
Per MPI rank memory allocation (min/avg/max) = 11.35 | 11.35 | 11.35 Mbytes
Step Temp Press TotEng PotEng Enthalpy 
  420495    1465.6972    334.83048   -55738.304   -59461.308    -55653.85 
  440000    1441.7846   -996.05742   -55841.736       -59504    -56093.21 
Loop time of 1617.5 on 2 procs for 19505 steps with 19652 atoms

Performance: 1.042 ns/day, 23.035 hours/ns, 12.059 timesteps/s
95.4% CPU use with 2 MPI tasks x no OpenMP threads

MPI task timing breakdown:
Section |  min time  |  avg time  |  max time  |%varavg| %total
---------------------------------------------------------------
Pair    | 854.91     | 855.14     | 855.36     |   0.8 | 52.87
Neigh   | 612.7      | 620.22     | 627.75     |  30.2 | 38.34
Comm    | 111.1      | 118.4      | 125.71     |  67.2 |  7.32
Output  | 0.063075   | 0.063086   | 0.063096   |   0.0 |  0.00
Modify  | 19.129     | 19.449     | 19.769     |   7.3 |  1.20
Other   |            | 4.227      |            |       |  0.26

Nlocal:    9826 ave 9843 max 9809 min
Histogram: 1 0 0 0 0 0 0 0 0 1
Nghost:    11886.5 ave 11893 max 11880 min
Histogram: 1 0 0 0 0 0 0 0 0 1
Neighs:    611986 ave 616894 max 607078 min
Histogram: 1 0 0 0 0 0 0 0 0 1

Total # of neighbors = 1223972
Ave neighs/atom = 62.2823
Neighbor list builds = 19505
Dangerous builds not checked
Setting up Verlet run ...
  Unit style    : metal
  Current step  : 440000
  Time step     : 0.001
Per MPI rank memory allocation (min/avg/max) = 11.35 | 11.35 | 11.35 Mbytes
Step Temp Press TotEng PotEng Enthalpy 
  440000    1441.7846   -996.05742   -55841.736       -59504    -56093.21 
  440495    1410.0016   -207.42908   -56018.866   -59600.399   -56070.971 
Loop time of 39.1445 on 2 procs for 495 steps with 19652 atoms

Performance: 1.093 ns/day, 21.967 hours/ns, 12.645 timesteps/s
99.5% CPU use with 2 MPI tasks x no OpenMP threads

MPI task timing breakdown:
Section |  min time  |  avg time  |  max time  |%varavg| %total
---------------------------------------------------------------
Pair    | 20.612     | 21.091     | 21.57      |  10.4 | 53.88
Neigh   | 14.292     | 15.261     | 16.23      |  24.8 | 38.99
Comm    | 0.83633    | 2.3011     | 3.7658     |  96.6 |  5.88
Output  | 9.203e-05  | 0.00010598 | 0.00011992 |   0.0 |  0.00
Modify  | 0.36611    | 0.38431    | 0.40251    |   2.9 |  0.98
Other   |            | 0.1071     |            |       |  0.27

Nlocal:    9826 ave 9851 max 9801 min
Histogram: 1 0 0 0 0 0 0 0 0 1
Nghost:    11865.5 ave 11875 max 11856 min
Histogram: 1 0 0 0 0 0 0 0 0 1
Neighs:    615084 ave 623008 max 607159 min
Histogram: 1 0 0 0 0 0 0 0 0 1

Total # of neighbors = 1230167
Ave neighs/atom = 62.5975
Neighbor list builds = 495
Dangerous builds not checked
Setting up Verlet run ...
  Unit style    : metal
  Current step  : 440495
  Time step     : 0.001
Per MPI rank memory allocation (min/avg/max) = 11.35 | 11.35 | 11.35 Mbytes
Step Temp Press TotEng PotEng Enthalpy 
  440495    1410.0016   -207.42908   -56018.866   -59600.399   -56070.971 
  460000     1412.729   -69.112616   -56077.477   -59665.937   -56094.798 
Loop time of 1565.37 on 2 procs for 19505 steps with 19652 atoms

Performance: 1.077 ns/day, 22.293 hours/ns, 12.460 timesteps/s
98.2% CPU use with 2 MPI tasks x no OpenMP threads

MPI task timing breakdown:
Section |  min time  |  avg time  |  max time  |%varavg| %total
---------------------------------------------------------------
Pair    | 833.7      | 835.36     | 837.02     |   5.7 | 53.37
Neigh   | 598.92     | 623.9      | 648.89     | 100.0 | 39.86
Comm    | 57.783     | 84.364     | 110.94     | 289.4 |  5.39
Output  | 0.060599   | 0.060619   | 0.060638   |   0.0 |  0.00
Modify  | 17.395     | 17.415     | 17.435     |   0.5 |  1.11
Other   |            | 4.261      |            |       |  0.27

Nlocal:    9826 ave 9830 max 9822 min
Histogram: 1 0 0 0 0 0 0 0 0 1
Nghost:    11905.5 ave 11909 max 11902 min
Histogram: 1 0 0 0 0 0 0 0 0 1
Neighs:    616707 ave 622567 max 610847 min
Histogram: 1 0 0 0 0 0 0 0 0 1

Total # of neighbors = 1233414
Ave neighs/atom = 62.7628
Neighbor list builds = 19505
Dangerous builds not checked
Setting up Verlet run ...
  Unit style    : metal
  Current step  : 460000
  Time step     : 0.001
Per MPI rank memory allocation (min/avg/max) = 11.35 | 11.35 | 11.35 Mbytes
Step Temp Press TotEng PotEng Enthalpy 
  460000     1412.729   -69.112616   -56077.477   -59665.937   -56094.798 
  460495    1359.1272   -144.54514   -56306.856   -59759.163   -56342.953 
Loop time of 38.7605 on 2 procs for 495 steps with 19652 atoms

Performance: 1.103 ns/day, 21.751 hours/ns, 12.771 timesteps/s
99.3% CPU use with 2 MPI tasks x no OpenMP threads

MPI task timing breakdown:
Section |  min time  |  avg time  |  max time  |%varavg| %total
---------------------------------------------------------------
Pair    | 20.534     | 20.868     | 21.201     |   7.3 | 53.84
Neigh   | 15.647     | 15.962     | 16.278     |   7.9 | 41.18
Comm    | 1.4086     | 1.43       | 1.4514     |   1.8 |  3.69
Output  | 7.4863e-05 | 0.00010884 | 0.00014281 |   0.0 |  0.00
Modify  | 0.38667    | 0.3906     | 0.39452    |   0.6 |  1.01
Other   |            | 0.1097     |            |       |  0.28

Nlocal:    9826 ave 9834 max 9818 min
Histogram: 1 0 0 0 0 0 0 0 0 1
Nghost:    11974 ave 11979 max 11969 min
Histogram: 1 0 0 0 0 0 0 0 0 1
Neighs:    618725 ave 622968 max 614482 min
Histogram: 1 0 0 0 0 0 0 0 0 1

Total # of neighbors = 1237450
Ave neighs/atom = 62.9681
Neighbor list builds = 495
Dangerous builds not checked
Setting up Verlet run ...
  Unit style    : metal
  Current step  : 460495
  Time step     : 0.001
Per MPI rank memory allocation (min/avg/max) = 11.35 | 11.35 | 11.35 Mbytes
Step Temp Press TotEng PotEng Enthalpy 
  460495    1359.1272   -144.54514   -56306.856   -59759.163   -56342.953 
  480000    1334.0115   -865.19814   -56411.618   -59800.129   -56627.543 
Loop time of 1586.85 on 2 procs for 19505 steps with 19652 atoms

Performance: 1.062 ns/day, 22.599 hours/ns, 12.292 timesteps/s
99.1% CPU use with 2 MPI tasks x no OpenMP threads

MPI task timing breakdown:
Section |  min time  |  avg time  |  max time  |%varavg| %total
---------------------------------------------------------------
Pair    | 855.04     | 860.11     | 865.19     |  17.3 | 54.20
Neigh   | 635.46     | 640.66     | 645.87     |  20.6 | 40.37
Comm    | 65.711     | 65.917     | 66.124     |   2.5 |  4.15
Output  | 0.057451   | 0.057471   | 0.05749    |   0.0 |  0.00
Modify  | 15.629     | 15.704     | 15.78      |   1.9 |  0.99
Other   |            | 4.392      |            |       |  0.28

Nlocal:    9826 ave 9844 max 9808 min
Histogram: 1 0 0 0 0 0 0 0 0 1
Nghost:    11961 ave 11990 max 11932 min
Histogram: 1 0 0 0 0 0 0 0 0 1
Neighs:    619270 ave 623624 max 614915 min
Histogram: 1 0 0 0 0 0 0 0 0 1

Total # of neighbors = 1238539
Ave neighs/atom = 63.0236
Neighbor list builds = 19505
Dangerous builds not checked
Setting up Verlet run ...
  Unit style    : metal
  Current step  : 480000
  Time step     : 0.001
Per MPI rank memory allocation (min/avg/max) = 11.35 | 11.35 | 11.35 Mbytes
Step Temp Press TotEng PotEng Enthalpy 
  480000    1334.0115   -865.19814   -56411.618   -59800.129   -56627.543 
  480495    1299.0707   -575.41185   -56623.061   -59922.819   -56765.976 
Loop time of 39.2279 on 2 procs for 495 steps with 19652 atoms

Performance: 1.090 ns/day, 22.013 hours/ns, 12.619 timesteps/s
99.7% CPU use with 2 MPI tasks x no OpenMP threads

MPI task timing breakdown:
Section |  min time  |  avg time  |  max time  |%varavg| %total
---------------------------------------------------------------
Pair    | 20.996     | 21.263     | 21.53      |   5.8 | 54.20
Neigh   | 15.714     | 15.804     | 15.894     |   2.3 | 40.29
Comm    | 1.4793     | 1.6541     | 1.829      |  13.6 |  4.22
Output  | 0.000103   | 0.00012004 | 0.00013709 |   0.0 |  0.00
Modify  | 0.38694    | 0.38988    | 0.39283    |   0.5 |  0.99
Other   |            | 0.1167     |            |       |  0.30

Nlocal:    9826 ave 9855 max 9797 min
Histogram: 1 0 0 0 0 0 0 0 0 1
Nghost:    11917.5 ave 11923 max 11912 min
Histogram: 1 0 0 0 0 0 0 0 0 1
Neighs:    622512 ave 626574 max 618451 min
Histogram: 1 0 0 0 0 0 0 0 0 1

Total # of neighbors = 1245025
Ave neighs/atom = 63.3536
Neighbor list builds = 495
Dangerous builds not checked
Setting up Verlet run ...
  Unit style    : metal
  Current step  : 480495
  Time step     : 0.001
Per MPI rank memory allocation (min/avg/max) = 11.35 | 11.35 | 11.35 Mbytes
Step Temp Press TotEng PotEng Enthalpy 
  480495    1299.0707   -575.41185   -56623.061   -59922.819   -56765.976 
  500000    1312.5428   -78.039509   -56630.216   -59964.194   -56649.556 
Loop time of 1575.46 on 2 procs for 19505 steps with 19652 atoms

Performance: 1.070 ns/day, 22.437 hours/ns, 12.381 timesteps/s
99.1% CPU use with 2 MPI tasks x no OpenMP threads

MPI task timing breakdown:
Section |  min time  |  avg time  |  max time  |%varavg| %total
---------------------------------------------------------------
Pair    | 850.22     | 851.07     | 851.92     |   2.9 | 54.02
Neigh   | 641.54     | 645.19     | 648.84     |  14.4 | 40.95
Comm    | 56.199     | 59.018     | 61.837     |  36.7 |  3.75
Output  | 0.052477   | 0.052492   | 0.052507   |   0.0 |  0.00
Modify  | 15.635     | 15.677     | 15.72      |   1.1 |  1.00
Other   |            | 4.452      |            |       |  0.28

Nlocal:    9826 ave 9829 max 9823 min
Histogram: 1 0 0 0 0 0 0 0 0 1
Nghost:    11923.5 ave 11924 max 11923 min
Histogram: 1 0 0 0 0 0 0 0 0 1
Neighs:    623734 ave 629515 max 617953 min
Histogram: 1 0 0 0 0 0 0 0 0 1

Total # of neighbors = 1247468
Ave neighs/atom = 63.4779
Neighbor list builds = 19505
Dangerous builds not checked
Setting up Verlet run ...
  Unit style    : metal
  Current step  : 500000
  Time step     : 0.001
Per MPI rank memory allocation (min/avg/max) = 11.35 | 11.35 | 11.35 Mbytes
Step Temp Press TotEng PotEng Enthalpy 
  500000    1312.5428   -78.039509   -56630.216   -59964.194   -56649.556 
  500495    1262.0969   -1.5734145   -56879.105   -60084.946   -56879.493 
Loop time of 40.4282 on 2 procs for 495 steps with 19652 atoms

Performance: 1.058 ns/day, 22.687 hours/ns, 12.244 timesteps/s
99.8% CPU use with 2 MPI tasks x no OpenMP threads

MPI task timing breakdown:
Section |  min time  |  avg time  |  max time  |%varavg| %total
---------------------------------------------------------------
Pair    | 21.754     | 21.871     | 21.988     |   2.5 | 54.10
Neigh   | 16.55      | 16.673     | 16.796     |   3.0 | 41.24
Comm    | 1.1141     | 1.3573     | 1.6005     |  20.9 |  3.36
Output  | 7.1049e-05 | 0.00011253 | 0.00015402 |   0.0 |  0.00
Modify  | 0.41234    | 0.41408    | 0.41582    |   0.3 |  1.02
Other   |            | 0.1123     |            |       |  0.28

Nlocal:    9826 ave 9831 max 9821 min
Histogram: 1 0 0 0 0 0 0 0 0 1
Nghost:    11978 ave 11985 max 11971 min
Histogram: 1 0 0 0 0 0 0 0 0 1
Neighs:    626540 ave 632975 max 620106 min
Histogram: 1 0 0 0 0 0 0 0 0 1

Total # of neighbors = 1253081
Ave neighs/atom = 63.7635
Neighbor list builds = 495
Dangerous builds not checked
Setting up Verlet run ...
  Unit style    : metal
  Current step  : 500495
  Time step     : 0.001
Per MPI rank memory allocation (min/avg/max) = 11.35 | 11.35 | 11.35 Mbytes
Step Temp Press TotEng PotEng Enthalpy 
  500495    1262.0969   -1.5734145   -56879.105   -60084.946   -56879.493 
  520000    1256.4494   -472.14329   -56942.509   -60134.005   -57058.897 
Loop time of 1675.62 on 2 procs for 19505 steps with 19652 atoms

Performance: 1.006 ns/day, 23.863 hours/ns, 11.640 timesteps/s
98.7% CPU use with 2 MPI tasks x no OpenMP threads

MPI task timing breakdown:
Section |  min time  |  avg time  |  max time  |%varavg| %total
---------------------------------------------------------------
Pair    | 910.58     | 911.97     | 913.36     |   4.6 | 54.43
Neigh   | 671.79     | 671.97     | 672.15     |   0.7 | 40.10
Comm    | 68.687     | 70.275     | 71.864     |  18.9 |  4.19
Output  | 0.056058   | 0.056074   | 0.056089   |   0.0 |  0.00
Modify  | 16.821     | 16.827     | 16.833     |   0.2 |  1.00
Other   |            | 4.518      |            |       |  0.27

Nlocal:    9826 ave 9857 max 9795 min
Histogram: 1 0 0 0 0 0 0 0 0 1
Nghost:    11942.5 ave 11943 max 11942 min
Histogram: 1 0 0 0 0 0 0 0 0 1
Neighs:    627168 ave 629623 max 624713 min
Histogram: 1 0 0 0 0 0 0 0 0 1

Total # of neighbors = 1254336
Ave neighs/atom = 63.8274
Neighbor list builds = 19505
Dangerous builds not checked
Setting up Verlet run ...
  Unit style    : metal
  Current step  : 520000
  Time step     : 0.001
Per MPI rank memory allocation (min/avg/max) = 11.35 | 11.35 | 11.35 Mbytes
Step Temp Press TotEng PotEng Enthalpy 
  520000    1256.4494   -472.14329   -56942.509   -60134.005   -57058.897 
  520495    1212.8861   -171.95985   -57174.936   -60255.777   -57217.096 
Loop time of 39.7785 on 2 procs for 495 steps with 19652 atoms

Performance: 1.075 ns/day, 22.322 hours/ns, 12.444 timesteps/s
98.9% CPU use with 2 MPI tasks x no OpenMP threads

MPI task timing breakdown:
Section |  min time  |  avg time  |  max time  |%varavg| %total
---------------------------------------------------------------
Pair    | 21.426     | 21.58      | 21.735     |   3.3 | 54.25
Neigh   | 15.558     | 16.123     | 16.688     |  14.1 | 40.53
Comm    | 1.1525     | 1.5737     | 1.9949     |  33.6 |  3.96
Output  | 7.3195e-05 | 0.00011158 | 0.00014997 |   0.0 |  0.00
Modify  | 0.38731    | 0.3898     | 0.39229    |   0.4 |  0.98
Other   |            | 0.1118     |            |       |  0.28

Nlocal:    9826 ave 9827 max 9825 min
Histogram: 1 0 0 0 0 0 0 0 0 1
Nghost:    12005.5 ave 12049 max 11962 min
Histogram: 1 0 0 0 0 0 0 0 0 1
Neighs:    631128 ave 637160 max 625096 min
Histogram: 1 0 0 0 0 0 0 0 0 1

Total # of neighbors = 1262256
Ave neighs/atom = 64.2304
Neighbor list builds = 495
Dangerous builds not checked
Setting up Verlet run ...
  Unit style    : metal
  Current step  : 520495
  Time step     : 0.001
Per MPI rank memory allocation (min/avg/max) = 11.35 | 11.35 | 11.35 Mbytes
Step Temp Press TotEng PotEng Enthalpy 
  520495    1212.8861   -171.95985   -57174.936   -60255.777   -57217.096 
  540000    1193.0589   -454.30196   -57301.299   -60331.777   -57412.421 
Loop time of 1702.44 on 2 procs for 19505 steps with 19652 atoms

Performance: 0.990 ns/day, 24.245 hours/ns, 11.457 timesteps/s
99.1% CPU use with 2 MPI tasks x no OpenMP threads

MPI task timing breakdown:
Section |  min time  |  avg time  |  max time  |%varavg| %total
---------------------------------------------------------------
Pair    | 925.83     | 930.67     | 935.5      |  15.9 | 54.67
Neigh   | 667.4      | 682.09     | 696.79     |  56.3 | 40.07
Comm    | 58.196     | 68.14      | 78.084     | 120.5 |  4.00
Output  | 0.087504   | 0.087524   | 0.087544   |   0.0 |  0.01
Modify  | 16.574     | 16.773     | 16.971     |   4.8 |  0.99
Other   |            | 4.685      |            |       |  0.28

Nlocal:    9826 ave 9838 max 9814 min
Histogram: 1 0 0 0 0 0 0 0 0 1
Nghost:    12046 ave 12092 max 12000 min
Histogram: 1 0 0 0 0 0 0 0 0 1
Neighs:    632466 ave 638414 max 626517 min
Histogram: 1 0 0 0 0 0 0 0 0 1

Total # of neighbors = 1264931
Ave neighs/atom = 64.3665
Neighbor list builds = 19505
Dangerous builds not checked
Setting up Verlet run ...
  Unit style    : metal
  Current step  : 540000
  Time step     : 0.001
Per MPI rank memory allocation (min/avg/max) = 11.35 | 11.35 | 11.35 Mbytes
Step Temp Press TotEng PotEng Enthalpy 
  540000    1193.0589   -454.30196   -57301.299   -60331.777   -57412.421 
  540495    1164.7335    110.65394   -57472.262   -60430.791   -57445.321 
Loop time of 43.9195 on 2 procs for 495 steps with 19652 atoms

Performance: 0.974 ns/day, 24.646 hours/ns, 11.271 timesteps/s
97.6% CPU use with 2 MPI tasks x no OpenMP threads

MPI task timing breakdown:
Section |  min time  |  avg time  |  max time  |%varavg| %total
---------------------------------------------------------------
Pair    | 24.076     | 24.143     | 24.209     |   1.4 | 54.97
Neigh   | 16.985     | 17.42      | 17.855     |  10.4 | 39.66
Comm    | 1.423      | 1.7891     | 2.1552     |  27.4 |  4.07
Output  | 8.6069e-05 | 0.00010908 | 0.00013208 |   0.0 |  0.00
Modify  | 0.44405    | 0.4449     | 0.44575    |   0.1 |  1.01
Other   |            | 0.1225     |            |       |  0.28

Nlocal:    9826 ave 9842 max 9810 min
Histogram: 1 0 0 0 0 0 0 0 0 1
Nghost:    12040 ave 12049 max 12031 min
Histogram: 1 0 0 0 0 0 0 0 0 1
Neighs:    635170 ave 643388 max 626951 min
Histogram: 1 0 0 0 0 0 0 0 0 1

Total # of neighbors = 1270339
Ave neighs/atom = 64.6417
Neighbor list builds = 495
Dangerous builds not checked
Setting up Verlet run ...
  Unit style    : metal
  Current step  : 540495
  Time step     : 0.001
Per MPI rank memory allocation (min/avg/max) = 11.35 | 11.35 | 11.35 Mbytes
Step Temp Press TotEng PotEng Enthalpy 
  540495    1164.7335    110.65394   -57472.262   -60430.791   -57445.321 
  560000     1146.464    -428.4726   -57591.051   -60503.174   -57695.175 
Loop time of 1742.03 on 2 procs for 19505 steps with 19652 atoms

Performance: 0.967 ns/day, 24.809 hours/ns, 11.197 timesteps/s
99.4% CPU use with 2 MPI tasks x no OpenMP threads

MPI task timing breakdown:
Section |  min time  |  avg time  |  max time  |%varavg| %total
---------------------------------------------------------------
Pair    | 958.76     | 962.47     | 966.18     |  12.0 | 55.25
Neigh   | 689.65     | 697.51     | 705.37     |  29.8 | 40.04
Comm    | 48.487     | 60.148     | 71.809     | 150.4 |  3.45
Output  | 0.055327   | 0.05534    | 0.055354   |   0.0 |  0.00
Modify  | 17.007     | 17.077     | 17.147     |   1.7 |  0.98
Other   |            | 4.763      |            |       |  0.27

Nlocal:    9826 ave 9838 max 9814 min
Histogram: 1 0 0 0 0 0 0 0 0 1
Nghost:    12059.5 ave 12110 max 12009 min
Histogram: 1 0 0 0 0 0 0 0 0 1
Neighs:    636858 ave 644284 max 629433 min
Histogram: 1 0 0 0 0 0 0 0 0 1

Total # of neighbors = 1273717
Ave neighs/atom = 64.8136
Neighbor list builds = 19505
Dangerous builds not checked
Setting up Verlet run ...
  Unit style    : metal
  Current step  : 560000
  Time step     : 0.001
Per MPI rank memory allocation (min/avg/max) = 11.35 | 11.35 | 11.35 Mbytes
Step Temp Press TotEng PotEng Enthalpy 
[...]
Neighs:    717283 ave 717725 max 716841 min
Histogram: 1 0 0 0 0 0 0 0 0 1

Total # of neighbors = 1434566
Ave neighs/atom = 72.9985
Neighbor list builds = 19505
Dangerous builds not checked
Setting up Verlet run ...
  Unit style    : metal
  Current step  : 840000
  Time step     : 0.001
Per MPI rank memory allocation (min/avg/max) = 11.35 | 11.35 | 11.35 Mbytes
Step Temp Press TotEng PotEng Enthalpy 
  840000    451.87908    541.92368   -62413.686     -63561.5   -62296.409 
  840495    424.52019    -131.4995   -62569.726   -63648.046   -62598.112 
Loop time of 41.2227 on 2 procs for 495 steps with 19652 atoms

Performance: 1.037 ns/day, 23.133 hours/ns, 12.008 timesteps/s
99.9% CPU use with 2 MPI tasks x no OpenMP threads

MPI task timing breakdown:
Section |  min time  |  avg time  |  max time  |%varavg| %total
---------------------------------------------------------------
Pair    | 22.119     | 22.199     | 22.279     |   1.7 | 53.85
Neigh   | 17.15      | 17.462     | 17.775     |   7.5 | 42.36
Comm    | 0.63584    | 1.0326     | 1.4293     |  39.0 |  2.50
Output  | 9.5129e-05 | 0.00012958 | 0.00016403 |   0.0 |  0.00
Modify  | 0.39706    | 0.40318    | 0.4093     |   1.0 |  0.98
Other   |            | 0.1255     |            |       |  0.30

Nlocal:    9826 ave 9848 max 9804 min
Histogram: 1 0 0 0 0 0 0 0 0 1
Nghost:    12659 ave 12696 max 12622 min
Histogram: 1 0 0 0 0 0 0 0 0 1
Neighs:    719006 ave 720895 max 717116 min
Histogram: 1 0 0 0 0 0 0 0 0 1

Total # of neighbors = 1438011
Ave neighs/atom = 73.1738
Neighbor list builds = 495
Dangerous builds not checked
Setting up Verlet run ...
  Unit style    : metal
  Current step  : 840495
  Time step     : 0.001
Per MPI rank memory allocation (min/avg/max) = 11.35 | 11.35 | 11.35 Mbytes
Step Temp Press TotEng PotEng Enthalpy 
  840495    424.52019    -131.4995   -62569.726   -63648.046   -62598.112 
  860000    402.56584    535.18596   -62822.016    -63844.57    -62707.41 
Loop time of 1731.31 on 2 procs for 19505 steps with 19652 atoms

Performance: 0.973 ns/day, 24.656 hours/ns, 11.266 timesteps/s
97.3% CPU use with 2 MPI tasks x no OpenMP threads

MPI task timing breakdown:
Section |  min time  |  avg time  |  max time  |%varavg| %total
---------------------------------------------------------------
Pair    | 930.72     | 935.85     | 940.98     |  16.8 | 54.05
Neigh   | 704.55     | 709.75     | 714.95     |  19.5 | 40.99
Comm    | 63.196     | 63.281     | 63.367     |   1.1 |  3.66
Output  | 0.053199   | 0.053214   | 0.05323    |   0.0 |  0.00
Modify  | 17.255     | 17.297     | 17.339     |   1.0 |  1.00
Other   |            | 5.082      |            |       |  0.29

Nlocal:    9826 ave 9840 max 9812 min
Histogram: 1 0 0 0 0 0 0 0 0 1
Nghost:    12735.5 ave 12738 max 12733 min
Histogram: 1 0 0 0 0 0 0 0 0 1
Neighs:    724358 ave 725074 max 723641 min
Histogram: 1 0 0 0 0 0 0 0 0 1

Total # of neighbors = 1448715
Ave neighs/atom = 73.7185
Neighbor list builds = 19505
Dangerous builds not checked
Setting up Verlet run ...
  Unit style    : metal
  Current step  : 860000
  Time step     : 0.001
Per MPI rank memory allocation (min/avg/max) = 11.35 | 11.35 | 11.35 Mbytes
Step Temp Press TotEng PotEng Enthalpy 
  860000    402.56584    535.18596   -62822.016    -63844.57    -62707.41 
  860495    375.56659    324.85628   -62973.081   -63927.054   -62903.683 
Loop time of 40.8381 on 2 procs for 495 steps with 19652 atoms

Performance: 1.047 ns/day, 22.917 hours/ns, 12.121 timesteps/s
99.9% CPU use with 2 MPI tasks x no OpenMP threads

MPI task timing breakdown:
Section |  min time  |  avg time  |  max time  |%varavg| %total
---------------------------------------------------------------
Pair    | 21.764     | 21.915     | 22.066     |   3.2 | 53.66
Neigh   | 17.15      | 17.225     | 17.3       |   1.8 | 42.18
Comm    | 1.1015     | 1.1774     | 1.2533     |   7.0 |  2.88
Output  | 8.893e-05  | 0.00012195 | 0.00015497 |   0.0 |  0.00
Modify  | 0.40186    | 0.40414    | 0.40641    |   0.4 |  0.99
Other   |            | 0.1162     |            |       |  0.28

Nlocal:    9826 ave 9845 max 9807 min
Histogram: 1 0 0 0 0 0 0 0 0 1
Nghost:    12753.5 ave 12768 max 12739 min
Histogram: 1 0 0 0 0 0 0 0 0 1
Neighs:    725971 ave 727900 max 724042 min
Histogram: 1 0 0 0 0 0 0 0 0 1

Total # of neighbors = 1451942
Ave neighs/atom = 73.8827
Neighbor list builds = 495
Dangerous builds not checked
Setting up Verlet run ...
  Unit style    : metal
  Current step  : 860495
  Time step     : 0.001
Per MPI rank memory allocation (min/avg/max) = 11.35 | 11.35 | 11.35 Mbytes
Step Temp Press TotEng PotEng Enthalpy 
  860495    375.56659    324.85628   -62973.081   -63927.054   -62903.683 
  880000    352.18721    568.28946   -63160.751   -64055.338   -63039.887 
Loop time of 1716.7 on 2 procs for 19505 steps with 19652 atoms

Performance: 0.982 ns/day, 24.448 hours/ns, 11.362 timesteps/s
98.4% CPU use with 2 MPI tasks x no OpenMP threads

MPI task timing breakdown:
Section |  min time  |  avg time  |  max time  |%varavg| %total
---------------------------------------------------------------
Pair    | 924.44     | 926.36     | 928.27     |   6.3 | 53.96
Neigh   | 708.73     | 712        | 715.27     |  12.2 | 41.47
Comm    | 50.531     | 55.903     | 61.274     |  71.8 |  3.26
Output  | 0.053906   | 0.053925   | 0.053944   |   0.0 |  0.00
Modify  | 17.103     | 17.262     | 17.421     |   3.8 |  1.01
Other   |            | 5.127      |            |       |  0.30

Nlocal:    9826 ave 9835 max 9817 min
Histogram: 1 0 0 0 0 0 0 0 0 1
Nghost:    12764 ave 12766 max 12762 min
Histogram: 1 0 0 0 0 0 0 0 0 1
Neighs:    728200 ave 729320 max 727080 min
Histogram: 1 0 0 0 0 0 0 0 0 1

Total # of neighbors = 1456400
Ave neighs/atom = 74.1095
Neighbor list builds = 19505
Dangerous builds not checked
Setting up Verlet run ...
  Unit style    : metal
  Current step  : 880000
  Time step     : 0.001
Per MPI rank memory allocation (min/avg/max) = 11.35 | 11.35 | 11.35 Mbytes
Step Temp Press TotEng PotEng Enthalpy 
  880000    352.18721    568.28946   -63160.751   -64055.338   -63039.887 
  880495    325.75195    292.32809    -63313.86     -64141.3   -63251.856 
Loop time of 48.5586 on 2 procs for 495 steps with 19652 atoms

Performance: 0.881 ns/day, 27.249 hours/ns, 10.194 timesteps/s
92.2% CPU use with 2 MPI tasks x no OpenMP threads

MPI task timing breakdown:
Section |  min time  |  avg time  |  max time  |%varavg| %total
---------------------------------------------------------------
Pair    | 26.435     | 26.655     | 26.875     |   4.3 | 54.89
Neigh   | 17.153     | 18.754     | 20.356     |  37.0 | 38.62
Comm    | 1.1088     | 2.5213     | 3.9339     |  89.0 |  5.19
Output  | 7.5102e-05 | 8.5592e-05 | 9.6083e-05 |   0.0 |  0.00
Modify  | 0.45315    | 0.47622    | 0.49928    |   3.3 |  0.98
Other   |            | 0.152      |            |       |  0.31

Nlocal:    9826 ave 9828 max 9824 min
Histogram: 1 0 0 0 0 0 0 0 0 1
Nghost:    12803.5 ave 12821 max 12786 min
Histogram: 1 0 0 0 0 0 0 0 0 1
Neighs:    730130 ave 730166 max 730093 min
Histogram: 1 0 0 0 0 0 0 0 0 1

Total # of neighbors = 1460259
Ave neighs/atom = 74.3059
Neighbor list builds = 495
Dangerous builds not checked
Setting up Verlet run ...
  Unit style    : metal
  Current step  : 880495
  Time step     : 0.001
Per MPI rank memory allocation (min/avg/max) = 11.35 | 11.35 | 11.35 Mbytes
Step Temp Press TotEng PotEng Enthalpy 
  880495    325.75195    292.32809    -63313.86     -64141.3   -63251.856 
  900000    299.57672    59.900927   -63497.015   -64257.967   -63484.353 
Loop time of 1701.14 on 2 procs for 19505 steps with 19652 atoms

Performance: 0.991 ns/day, 24.227 hours/ns, 11.466 timesteps/s
98.4% CPU use with 2 MPI tasks x no OpenMP threads

MPI task timing breakdown:
Section |  min time  |  avg time  |  max time  |%varavg| %total
---------------------------------------------------------------
Pair    | 919.97     | 921.2      | 922.42     |   4.0 | 54.15
Neigh   | 696.94     | 697.79     | 698.63     |   3.2 | 41.02
Comm    | 58.048     | 60.184     | 62.32      |  27.5 |  3.54
Output  | 0.049407   | 0.049425   | 0.049442   |   0.0 |  0.00
Modify  | 16.956     | 17.006     | 17.056     |   1.2 |  1.00
Other   |            | 4.923      |            |       |  0.29

Nlocal:    9826 ave 9831 max 9821 min
Histogram: 1 0 0 0 0 0 0 0 0 1
Nghost:    12799 ave 12813 max 12785 min
Histogram: 1 0 0 0 0 0 0 0 0 1
Neighs:    732340 ave 733381 max 731299 min
Histogram: 1 0 0 0 0 0 0 0 0 1

Total # of neighbors = 1464680
Ave neighs/atom = 74.5308
Neighbor list builds = 19505
Dangerous builds not checked
Setting up Verlet run ...
  Unit style    : metal
  Current step  : 900000
  Time step     : 0.001
Per MPI rank memory allocation (min/avg/max) = 11.35 | 11.35 | 11.35 Mbytes
Step Temp Press TotEng PotEng Enthalpy 
  900000    299.57672    59.900927   -63497.015   -64257.967   -63484.353 
  900495    274.89428    13.877483   -63637.706   -64335.963    -63634.78 
Loop time of 40.6056 on 2 procs for 495 steps with 19652 atoms

Performance: 1.053 ns/day, 22.787 hours/ns, 12.190 timesteps/s
99.9% CPU use with 2 MPI tasks x no OpenMP threads

MPI task timing breakdown:
Section |  min time  |  avg time  |  max time  |%varavg| %total
---------------------------------------------------------------
Pair    | 21.732     | 21.775     | 21.818     |   0.9 | 53.63
Neigh   | 17.222     | 17.338     | 17.455     |   2.8 | 42.70
Comm    | 0.77777    | 0.94337    | 1.109      |  17.0 |  2.32
Output  | 7.391e-05  | 0.00010896 | 0.000144   |   0.0 |  0.00
Modify  | 0.42308    | 0.42768    | 0.43228    |   0.7 |  1.05
Other   |            | 0.1207     |            |       |  0.30

Nlocal:    9826 ave 9826 max 9826 min
Histogram: 2 0 0 0 0 0 0 0 0 0
Nghost:    12846.5 ave 12879 max 12814 min
Histogram: 1 0 0 0 0 0 0 0 0 1
Neighs:    733770 ave 733927 max 733613 min
Histogram: 1 0 0 0 0 0 0 0 0 1

Total # of neighbors = 1467540
Ave neighs/atom = 74.6764
Neighbor list builds = 495
Dangerous builds not checked
Setting up Verlet run ...
  Unit style    : metal
  Current step  : 900495
  Time step     : 0.001
Per MPI rank memory allocation (min/avg/max) = 11.35 | 11.35 | 11.35 Mbytes
Step Temp Press TotEng PotEng Enthalpy 
  900495    274.89428    13.877483   -63637.706   -64335.963    -63634.78 
  920000    252.65063   -298.47097   -63785.306   -64427.062   -63848.072 
Loop time of 1643.97 on 2 procs for 19505 steps with 19652 atoms

Performance: 1.025 ns/day, 23.412 hours/ns, 11.865 timesteps/s
99.5% CPU use with 2 MPI tasks x no OpenMP threads

MPI task timing breakdown:
Section |  min time  |  avg time  |  max time  |%varavg| %total
---------------------------------------------------------------
Pair    | 880.43     | 885.43     | 890.42     |  16.8 | 53.86
Neigh   | 684.78     | 690.04     | 695.3      |  20.0 | 41.97
Comm    | 46.812     | 47.111     | 47.409     |   4.3 |  2.87
Output  | 0.1463     | 0.14631    | 0.14633    |   0.0 |  0.01
Modify  | 16.464     | 16.546     | 16.628     |   2.0 |  1.01
Other   |            | 4.7        |            |       |  0.29

Nlocal:    9826 ave 9828 max 9824 min
Histogram: 1 0 0 0 0 0 0 0 0 1
Nghost:    12817.5 ave 12824 max 12811 min
Histogram: 1 0 0 0 0 0 0 0 0 1
Neighs:    735440 ave 735749 max 735130 min
Histogram: 1 0 0 0 0 0 0 0 0 1

Total # of neighbors = 1470879
Ave neighs/atom = 74.8463
Neighbor list builds = 19505
Dangerous builds not checked
Setting up Verlet run ...
  Unit style    : metal
  Current step  : 920000
  Time step     : 0.001
Per MPI rank memory allocation (min/avg/max) = 11.35 | 11.35 | 11.35 Mbytes
Step Temp Press TotEng PotEng Enthalpy 
  920000    252.65063   -298.47097   -63785.306   -64427.062   -63848.072 
  920495       223.23    197.44569    -63924.87   -64491.895   -63883.466 
Loop time of 41.5197 on 2 procs for 495 steps with 19652 atoms

Performance: 1.030 ns/day, 23.299 hours/ns, 11.922 timesteps/s
99.8% CPU use with 2 MPI tasks x no OpenMP threads

MPI task timing breakdown:
Section |  min time  |  avg time  |  max time  |%varavg| %total
---------------------------------------------------------------
Pair    | 21.826     | 22.448     | 23.07      |  13.1 | 54.07
Neigh   | 16.988     | 17.532     | 18.077     |  13.0 | 42.23
Comm    | 0.93224    | 1.0013     | 1.0704     |   6.9 |  2.41
Output  | 8.297e-05  | 0.00010192 | 0.00012088 |   0.0 |  0.00
Modify  | 0.40784    | 0.4181     | 0.42836    |   1.6 |  1.01
Other   |            | 0.1199     |            |       |  0.29

Nlocal:    9826 ave 9832 max 9820 min
Histogram: 1 0 0 0 0 0 0 0 0 1
Nghost:    12843.5 ave 12863 max 12824 min
Histogram: 1 0 0 0 0 0 0 0 0 1
Neighs:    737374 ave 737566 max 737181 min
Histogram: 1 0 0 0 0 0 0 0 0 1

Total # of neighbors = 1474747
Ave neighs/atom = 75.0431
Neighbor list builds = 495
Dangerous builds not checked
Setting up Verlet run ...
  Unit style    : metal
  Current step  : 920495
  Time step     : 0.001
Per MPI rank memory allocation (min/avg/max) = 11.35 | 11.35 | 11.35 Mbytes
Step Temp Press TotEng PotEng Enthalpy 
  920495       223.23    197.44569    -63924.87   -64491.895   -63883.466 
  940000    201.52373    444.73876   -64059.797   -64571.685    -63966.82 
Loop time of 1639.12 on 2 procs for 19505 steps with 19652 atoms

Performance: 1.028 ns/day, 23.343 hours/ns, 11.900 timesteps/s
99.2% CPU use with 2 MPI tasks x no OpenMP threads

MPI task timing breakdown:
Section |  min time  |  avg time  |  max time  |%varavg| %total
---------------------------------------------------------------
Pair    | 882.35     | 884.01     | 885.67     |   5.6 | 53.93
Neigh   | 677.94     | 683.77     | 689.59     |  22.3 | 41.72
Comm    | 45.678     | 50.003     | 54.329     |  61.2 |  3.05
Output  | 0.052981   | 0.052994   | 0.053006   |   0.0 |  0.00
Modify  | 16.41      | 16.52      | 16.63      |   2.7 |  1.01
Other   |            | 4.765      |            |       |  0.29

Nlocal:    9826 ave 9830 max 9822 min
Histogram: 1 0 0 0 0 0 0 0 0 1
Nghost:    12860.5 ave 12893 max 12828 min
Histogram: 1 0 0 0 0 0 0 0 0 1
Neighs:    739223 ave 739509 max 738937 min
Histogram: 1 0 0 0 0 0 0 0 0 1

Total # of neighbors = 1478446
Ave neighs/atom = 75.2313
Neighbor list builds = 19505
Dangerous builds not checked
Setting up Verlet run ...
  Unit style    : metal
  Current step  : 940000
  Time step     : 0.001
Per MPI rank memory allocation (min/avg/max) = 11.35 | 11.35 | 11.35 Mbytes
Step Temp Press TotEng PotEng Enthalpy 
  940000    201.52373    444.73876   -64059.797   -64571.685    -63966.82 
  940495    176.77409    240.50841   -64193.396   -64642.419   -64143.211 
Loop time of 42.3601 on 2 procs for 495 steps with 19652 atoms

Performance: 1.010 ns/day, 23.771 hours/ns, 11.686 timesteps/s
98.6% CPU use with 2 MPI tasks x no OpenMP threads

MPI task timing breakdown:
Section |  min time  |  avg time  |  max time  |%varavg| %total
---------------------------------------------------------------
Pair    | 22.867     | 22.98      | 23.093     |   2.4 | 54.25
Neigh   | 16.998     | 17.322     | 17.646     |   7.8 | 40.89
Comm    | 1.0531     | 1.4991     | 1.9451     |  36.4 |  3.54
Output  | 7.5817e-05 | 0.00010538 | 0.00013494 |   0.0 |  0.00
Modify  | 0.42074    | 0.42863    | 0.43653    |   1.2 |  1.01
Other   |            | 0.1297     |            |       |  0.31

Nlocal:    9826 ave 9829 max 9823 min
Histogram: 1 0 0 0 0 0 0 0 0 1
Nghost:    12905 ave 12929 max 12881 min
Histogram: 1 0 0 0 0 0 0 0 0 1
Neighs:    740329 ave 740701 max 739957 min
Histogram: 1 0 0 0 0 0 0 0 0 1

Total # of neighbors = 1480658
Ave neighs/atom = 75.3439
Neighbor list builds = 495
Dangerous builds not checked
Setting up Verlet run ...
  Unit style    : metal
  Current step  : 940495
  Time step     : 0.001
Per MPI rank memory allocation (min/avg/max) = 11.35 | 11.35 | 11.35 Mbytes
Step Temp Press TotEng PotEng Enthalpy 
  940495    176.77409    240.50841   -64193.396   -64642.419   -64143.211 
  960000    150.94763    103.03252   -64337.451   -64720.872   -64316.003 
Loop time of 1672.61 on 2 procs for 19505 steps with 19652 atoms

Performance: 1.008 ns/day, 23.820 hours/ns, 11.661 timesteps/s
98.0% CPU use with 2 MPI tasks x no OpenMP threads

MPI task timing breakdown:
Section |  min time  |  avg time  |  max time  |%varavg| %total
---------------------------------------------------------------
Pair    | 900.38     | 905.17     | 909.95     |  15.9 | 54.12
Neigh   | 690.81     | 692.59     | 694.36     |   6.7 | 41.41
Comm    | 45.855     | 52.398     | 58.941     |  90.4 |  3.13
Output  | 0.46885    | 0.46887    | 0.46889    |   0.0 |  0.03
Modify  | 16.928     | 16.952     | 16.976     |   0.6 |  1.01
Other   |            | 5.042      |            |       |  0.30

Nlocal:    9826 ave 9845 max 9807 min
Histogram: 1 0 0 0 0 0 0 0 0 1
Nghost:    12882 ave 12887 max 12877 min
Histogram: 1 0 0 0 0 0 0 0 0 1
Neighs:    741682 ave 742931 max 740432 min
Histogram: 1 0 0 0 0 0 0 0 0 1

Total # of neighbors = 1483363
Ave neighs/atom = 75.4815
Neighbor list builds = 19505
Dangerous builds not checked
Setting up Verlet run ...
  Unit style    : metal
  Current step  : 960000
  Time step     : 0.001
Per MPI rank memory allocation (min/avg/max) = 11.35 | 11.35 | 11.35 Mbytes
Step Temp Press TotEng PotEng Enthalpy 
  960000    150.94763    103.03252   -64337.451   -64720.872   -64316.003 
  960495    126.31889    77.015334   -64456.817   -64777.678   -64440.811 
Loop time of 41.3261 on 2 procs for 495 steps with 19652 atoms

Performance: 1.035 ns/day, 23.191 hours/ns, 11.978 timesteps/s
99.1% CPU use with 2 MPI tasks x no OpenMP threads

MPI task timing breakdown:
Section |  min time  |  avg time  |  max time  |%varavg| %total
---------------------------------------------------------------
Pair    | 21.932     | 21.963     | 21.994     |   0.7 | 53.14
Neigh   | 17.793     | 17.853     | 17.913     |   1.4 | 43.20
Comm    | 0.94373    | 0.96451    | 0.98528    |   2.1 |  2.33
Output  | 7.4148e-05 | 0.0001086  | 0.00014305 |   0.0 |  0.00
Modify  | 0.42234    | 0.42534    | 0.42835    |   0.5 |  1.03
Other   |            | 0.1207     |            |       |  0.29

Nlocal:    9826 ave 9830 max 9822 min
Histogram: 1 0 0 0 0 0 0 0 0 1
Nghost:    12909 ave 12928 max 12890 min
Histogram: 1 0 0 0 0 0 0 0 0 1
Neighs:    742861 ave 743151 max 742571 min
Histogram: 1 0 0 0 0 0 0 0 0 1

Total # of neighbors = 1485722
Ave neighs/atom = 75.6016
Neighbor list builds = 495
Dangerous builds not checked
Setting up Verlet run ...
  Unit style    : metal
  Current step  : 960495
  Time step     : 0.001
Per MPI rank memory allocation (min/avg/max) = 11.35 | 11.35 | 11.35 Mbytes
Step Temp Press TotEng PotEng Enthalpy 
  960495    126.31889    77.015334   -64456.817   -64777.678   -64440.811 
  980000    100.61453    203.15914   -64600.363   -64855.933   -64558.254 
Loop time of 1647.62 on 2 procs for 19505 steps with 19652 atoms

Performance: 1.023 ns/day, 23.464 hours/ns, 11.838 timesteps/s
98.4% CPU use with 2 MPI tasks x no OpenMP threads

MPI task timing breakdown:
Section |  min time  |  avg time  |  max time  |%varavg| %total
---------------------------------------------------------------
Pair    | 879.92     | 886.66     | 893.39     |  22.6 | 53.81
Neigh   | 682.12     | 684.69     | 687.26     |   9.8 | 41.56
Comm    | 45.354     | 54.791     | 64.227     | 127.5 |  3.33
Output  | 0.056822   | 0.056844   | 0.056865   |   0.0 |  0.00
Modify  | 16.719     | 16.732     | 16.745     |   0.3 |  1.02
Other   |            | 4.689      |            |       |  0.28

Nlocal:    9826 ave 9837 max 9815 min
Histogram: 1 0 0 0 0 0 0 0 0 1
Nghost:    12900.5 ave 12904 max 12897 min
Histogram: 1 0 0 0 0 0 0 0 0 1
Neighs:    744614 ave 745399 max 743829 min
Histogram: 1 0 0 0 0 0 0 0 0 1

Total # of neighbors = 1489228
Ave neighs/atom = 75.78
Neighbor list builds = 19505
Dangerous builds not checked
Total wall time: 22:43:25
