LAMMPS (12 Dec 2018)
Lattice spacing in x,y,z = 4 4 4
Created orthogonal box = (0 0 0) to (68 68 68)
  1 by 1 by 2 MPI processor grid
Created 19652 atoms
  Time spent = 0.00163507 secs
Setting atom values ...
  19281 settings made for type/fraction
Neighbor list info ...
  update every 1 steps, delay 0 steps, check no
  max neighbors/atom: 2000, page size: 100000
  master list distance cutoff = 8.5
  ghost atom cutoff = 8.5
  binsize = 4.25, bins = 16 16 16
  1 neighbor lists, perpetual/occasional/extra = 1 0 0
  (1) pair eam/alloy, perpetual
      attributes: half, newton on
      pair build: half/bin/atomonly/newton
      stencil: half/bin/3d/newton
      bin: standard
Setting up Verlet run ...
  Unit style    : metal
  Current step  : 0
  Time step     : 0.001
Per MPI rank memory allocation (min/avg/max) = 11.15 | 11.15 | 11.15 Mbytes
Step Temp Press TotEng PotEng Enthalpy 
       0          300   -68135.309    -76852.93   -77614.958   -90224.691 
    1000    2058.4414     113181.8   -76854.088   -82082.716   -54641.817 
Loop time of 96.8041 on 2 procs for 1000 steps with 19652 atoms

Performance: 0.893 ns/day, 26.890 hours/ns, 10.330 timesteps/s
99.7% CPU use with 2 MPI tasks x no OpenMP threads

MPI task timing breakdown:
Section |  min time  |  avg time  |  max time  |%varavg| %total
---------------------------------------------------------------
Pair    | 54.854     | 54.972     | 55.091     |   1.6 | 56.79
Neigh   | 36.169     | 37.62      | 39.071     |  23.7 | 38.86
Comm    | 2.4582     | 3.806      | 5.1538     |  69.1 |  3.93
Output  | 6.8903e-05 | 9.2983e-05 | 0.00011706 |   0.0 |  0.00
Modify  | 0.19709    | 0.20636    | 0.21563    |   2.0 |  0.21
Other   |            | 0.1997     |            |       |  0.21

Nlocal:    9826 ave 9826 max 9826 min
Histogram: 2 0 0 0 0 0 0 0 0 0
Nghost:    13220.5 ave 13237 max 13204 min
Histogram: 1 0 0 0 0 0 0 0 0 1
Neighs:    784642 ave 785134 max 784149 min
Histogram: 1 0 0 0 0 0 0 0 0 1

Total # of neighbors = 1569283
Ave neighs/atom = 79.8536
Neighbor list builds = 1000
Dangerous builds not checked
Setting up Verlet run ...
  Unit style    : metal
  Current step  : 1000
  Time step     : 0.001
Per MPI rank memory allocation (min/avg/max) = 11.15 | 11.15 | 11.15 Mbytes
Step Temp Press TotEng PotEng Enthalpy 
    1000    2058.4414     113181.8   -76854.088   -82082.716   -54641.817 
    2000    338.46485   -25.932786   -86810.392   -87670.124   -86816.249 
Loop time of 86.8727 on 2 procs for 1000 steps with 19652 atoms

Performance: 0.995 ns/day, 24.131 hours/ns, 11.511 timesteps/s
98.9% CPU use with 2 MPI tasks x no OpenMP threads

MPI task timing breakdown:
Section |  min time  |  avg time  |  max time  |%varavg| %total
---------------------------------------------------------------
Pair    | 47.019     | 47.05      | 47.082     |   0.5 | 54.16
Neigh   | 34.902     | 35.711     | 36.519     |  13.5 | 41.11
Comm    | 2.2698     | 3.1256     | 3.9814     |  48.4 |  3.60
Output  | 7.4863e-05 | 0.00010943 | 0.000144   |   0.0 |  0.00
Modify  | 0.76448    | 0.77561    | 0.78674    |   1.3 |  0.89
Other   |            | 0.2105     |            |       |  0.24

Nlocal:    9826 ave 9829 max 9823 min
Histogram: 1 0 0 0 0 0 0 0 0 1
Nghost:    12466 ave 12468 max 12464 min
Histogram: 1 0 0 0 0 0 0 0 0 1
Neighs:    682442 ave 682968 max 681915 min
Histogram: 1 0 0 0 0 0 0 0 0 1

Total # of neighbors = 1364883
Ave neighs/atom = 69.4526
Neighbor list builds = 1000
Dangerous builds not checked
Setting up Verlet run ...
  Unit style    : metal
  Current step  : 2000
  Time step     : 0.001
Per MPI rank memory allocation (min/avg/max) = 11.15 | 11.15 | 11.15 Mbytes
Step Temp Press TotEng PotEng Enthalpy 
    2000    338.46485   -25.932786   -86810.392   -87670.124   -86816.249 
   10000    2435.1863   -653.34612   -75504.115    -81689.71   -75663.523 
Loop time of 696.228 on 2 procs for 8000 steps with 19652 atoms

Performance: 0.993 ns/day, 24.175 hours/ns, 11.490 timesteps/s
98.9% CPU use with 2 MPI tasks x no OpenMP threads

MPI task timing breakdown:
Section |  min time  |  avg time  |  max time  |%varavg| %total
---------------------------------------------------------------
Pair    | 378.75     | 378.9      | 379.04     |   0.7 | 54.42
Neigh   | 282.79     | 284.53     | 286.27     |  10.3 | 40.87
Comm    | 22.939     | 24.587     | 26.236     |  33.2 |  3.53
Output  | 7.6056e-05 | 9.8586e-05 | 0.00012112 |   0.0 |  0.00
Modify  | 6.4628     | 6.4763     | 6.4898     |   0.5 |  0.93
Other   |            | 1.738      |            |       |  0.25

Nlocal:    9826 ave 9833 max 9819 min
Histogram: 1 0 0 0 0 0 0 0 0 1
Nghost:    12031 ave 12058 max 12004 min
Histogram: 1 0 0 0 0 0 0 0 0 1
Neighs:    631370 ave 637518 max 625223 min
Histogram: 1 0 0 0 0 0 0 0 0 1

Total # of neighbors = 1262741
Ave neighs/atom = 64.2551
Neighbor list builds = 8000
Dangerous builds not checked
Setting up Verlet run ...
  Unit style    : metal
  Current step  : 10000
  Time step     : 0.001
Per MPI rank memory allocation (min/avg/max) = 11.16 | 11.16 | 11.16 Mbytes
Step Temp Press TotEng PotEng Enthalpy 
   10000    2435.1863   -653.34612   -75504.115    -81689.71   -75663.523 
   20000    2469.4459    424.04774   -75377.187   -81649.804   -75273.749 
   40000    2448.7084    981.40708   -75528.464   -81748.407    -75289.99 
Loop time of 2766.73 on 2 procs for 30000 steps with 19652 atoms

Performance: 0.937 ns/day, 25.618 hours/ns, 10.843 timesteps/s
97.1% CPU use with 2 MPI tasks x no OpenMP threads

MPI task timing breakdown:
Section |  min time  |  avg time  |  max time  |%varavg| %total
---------------------------------------------------------------
Pair    | 1505.4     | 1516.1     | 1526.8     |  27.4 | 54.80
Neigh   | 1071.6     | 1080.2     | 1088.8     |  26.2 | 39.04
Comm    | 114.94     | 134.32     | 153.7      | 167.2 |  4.85
Output  | 1.6773     | 1.6773     | 1.6774     |   0.0 |  0.06
Modify  | 27.806     | 27.856     | 27.906     |   0.9 |  1.01
Other   |            | 6.586      |            |       |  0.24

Nlocal:    9826 ave 9852 max 9800 min
Histogram: 1 0 0 0 0 0 0 0 0 1
Nghost:    12054.5 ave 12058 max 12051 min
Histogram: 1 0 0 0 0 0 0 0 0 1
Neighs:    633941 ave 637051 max 630831 min
Histogram: 1 0 0 0 0 0 0 0 0 1

Total # of neighbors = 1267882
Ave neighs/atom = 64.5167
Neighbor list builds = 30000
Dangerous builds not checked
Setting up Verlet run ...
  Unit style    : metal
  Current step  : 40000
  Time step     : 0.001
Per MPI rank memory allocation (min/avg/max) = 11.3 | 11.3 | 11.3 Mbytes
Step Temp Press TotEng PotEng Enthalpy 
   40000    2448.7084    981.40708   -75528.464   -81748.407    -75289.99 
   40495    2402.8365   -176.75381   -75623.774   -81727.198   -75666.812 
Loop time of 50.2821 on 2 procs for 495 steps with 19652 atoms

Performance: 0.851 ns/day, 28.217 hours/ns, 9.844 timesteps/s
91.2% CPU use with 2 MPI tasks x no OpenMP threads

MPI task timing breakdown:
Section |  min time  |  avg time  |  max time  |%varavg| %total
---------------------------------------------------------------
Pair    | 25.131     | 25.19      | 25.249     |   1.2 | 50.10
Neigh   | 17.085     | 17.393     | 17.701     |   7.4 | 34.59
Comm    | 6.7762     | 7.1527     | 7.5292     |  14.1 | 14.23
Output  | 9.3937e-05 | 0.00010848 | 0.00012302 |   0.0 |  0.00
Modify  | 0.4289     | 0.43455    | 0.4402     |   0.9 |  0.86
Other   |            | 0.1119     |            |       |  0.22

Nlocal:    9826 ave 9836 max 9816 min
Histogram: 1 0 0 0 0 0 0 0 0 1
Nghost:    12073.5 ave 12095 max 12052 min
Histogram: 1 0 0 0 0 0 0 0 0 1
Neighs:    632760 ave 639946 max 625574 min
Histogram: 1 0 0 0 0 0 0 0 0 1

Total # of neighbors = 1265520
Ave neighs/atom = 64.3965
Neighbor list builds = 495
Dangerous builds not checked
Setting up Verlet run ...
  Unit style    : metal
  Current step  : 40495
  Time step     : 0.001
Per MPI rank memory allocation (min/avg/max) = 11.3 | 11.3 | 11.3 Mbytes
Step Temp Press TotEng PotEng Enthalpy 
   40495    2402.8365   -176.75381   -75623.774   -81727.198   -75666.812 
   60000    2393.9789    318.62147   -75647.204   -81728.128   -75569.798 
Loop time of 1821.72 on 2 procs for 19505 steps with 19652 atoms

Performance: 0.925 ns/day, 25.944 hours/ns, 10.707 timesteps/s
96.9% CPU use with 2 MPI tasks x no OpenMP threads

MPI task timing breakdown:
Section |  min time  |  avg time  |  max time  |%varavg| %total
---------------------------------------------------------------
Pair    | 1003.5     | 1008.2     | 1013       |  15.0 | 55.35
Neigh   | 698.24     | 702.09     | 705.93     |  14.5 | 38.54
Comm    | 77.512     | 86.384     | 95.256     |  95.5 |  4.74
Output  | 0.18758    | 0.1876     | 0.18762    |   0.0 |  0.01
Modify  | 19.974     | 20.209     | 20.444     |   5.2 |  1.11
Other   |            | 4.609      |            |       |  0.25

Nlocal:    9826 ave 9840 max 9812 min
Histogram: 1 0 0 0 0 0 0 0 0 1
Nghost:    11997.5 ave 12005 max 11990 min
Histogram: 1 0 0 0 0 0 0 0 0 1
Neighs:    633830 ave 637611 max 630050 min
Histogram: 1 0 0 0 0 0 0 0 0 1

Total # of neighbors = 1267661
Ave neighs/atom = 64.5054
Neighbor list builds = 19505
Dangerous builds not checked
Setting up Verlet run ...
  Unit style    : metal
  Current step  : 60000
  Time step     : 0.001
Per MPI rank memory allocation (min/avg/max) = 11.32 | 11.32 | 11.32 Mbytes
Step Temp Press TotEng PotEng Enthalpy 
   60000    2393.9789    318.62147   -75647.204   -81728.128   -75569.798 
   60495    2347.4955   -190.68799   -75884.363   -81847.216   -75930.619 
Loop time of 42.2228 on 2 procs for 495 steps with 19652 atoms

Performance: 1.013 ns/day, 23.694 hours/ns, 11.724 timesteps/s
99.0% CPU use with 2 MPI tasks x no OpenMP threads

MPI task timing breakdown:
Section |  min time  |  avg time  |  max time  |%varavg| %total
---------------------------------------------------------------
Pair    | 22.731     | 22.96      | 23.19      |   4.8 | 54.38
Neigh   | 17.274     | 17.448     | 17.621     |   4.1 | 41.32
Comm    | 1.218      | 1.2692     | 1.3204     |   4.5 |  3.01
Output  | 7.2002e-05 | 0.00010407 | 0.00013614 |   0.0 |  0.00
Modify  | 0.42668    | 0.42919    | 0.43169    |   0.4 |  1.02
Other   |            | 0.1163     |            |       |  0.28

Nlocal:    9826 ave 9835 max 9817 min
Histogram: 1 0 0 0 0 0 0 0 0 1
Nghost:    12070 ave 12072 max 12068 min
Histogram: 1 0 0 0 0 0 0 0 0 1
Neighs:    635106 ave 641765 max 628447 min
Histogram: 1 0 0 0 0 0 0 0 0 1

Total # of neighbors = 1270212
Ave neighs/atom = 64.6353
Neighbor list builds = 495
Dangerous builds not checked
Setting up Verlet run ...
  Unit style    : metal
  Current step  : 60495
  Time step     : 0.001
Per MPI rank memory allocation (min/avg/max) = 11.32 | 11.32 | 11.32 Mbytes
Step Temp Press TotEng PotEng Enthalpy 
   60495    2347.4955   -190.68799   -75884.363   -81847.216   -75930.619 
   80000    2359.1227   -199.92803   -75847.226   -81839.612   -75895.752 
Loop time of 1781.56 on 2 procs for 19505 steps with 19652 atoms

Performance: 0.946 ns/day, 25.372 hours/ns, 10.948 timesteps/s
95.5% CPU use with 2 MPI tasks x no OpenMP threads

MPI task timing breakdown:
Section |  min time  |  avg time  |  max time  |%varavg| %total
---------------------------------------------------------------
Pair    | 928.02     | 931.65     | 935.28     |  11.9 | 52.29
Neigh   | 678.63     | 683.62     | 688.6      |  19.1 | 38.37
Comm    | 131.49     | 140        | 148.5      |  71.9 |  7.86
Output  | 0.26928    | 0.2693     | 0.26932    |   0.0 |  0.02
Modify  | 21.606     | 21.798     | 21.99      |   4.1 |  1.22
Other   |            | 4.235      |            |       |  0.24

Nlocal:    9826 ave 9869 max 9783 min
Histogram: 1 0 0 0 0 0 0 0 0 1
Nghost:    12068.5 ave 12094 max 12043 min
Histogram: 1 0 0 0 0 0 0 0 0 1
Neighs:    634744 ave 636783 max 632704 min
Histogram: 1 0 0 0 0 0 0 0 0 1

Total # of neighbors = 1269487
Ave neighs/atom = 64.5984
Neighbor list builds = 19505
Dangerous builds not checked
Setting up Verlet run ...
  Unit style    : metal
  Current step  : 80000
  Time step     : 0.001
Per MPI rank memory allocation (min/avg/max) = 11.33 | 11.33 | 11.33 Mbytes
Step Temp Press TotEng PotEng Enthalpy 
   80000    2359.1227   -199.92803   -75847.226   -81839.612   -75895.752 
   80495    2309.6709    790.39306   -76106.257   -81973.032   -75915.335 
Loop time of 39.5764 on 2 procs for 495 steps with 19652 atoms

Performance: 1.081 ns/day, 22.209 hours/ns, 12.507 timesteps/s
98.7% CPU use with 2 MPI tasks x no OpenMP threads

MPI task timing breakdown:
Section |  min time  |  avg time  |  max time  |%varavg| %total
---------------------------------------------------------------
Pair    | 21.018     | 21.19      | 21.362     |   3.7 | 53.54
Neigh   | 15.674     | 15.934     | 16.194     |   6.5 | 40.26
Comm    | 1.887      | 1.9829     | 2.0789     |   6.8 |  5.01
Output  | 7.0095e-05 | 0.00010002 | 0.00012994 |   0.0 |  0.00
Modify  | 0.36597    | 0.37132    | 0.37668    |   0.9 |  0.94
Other   |            | 0.09783    |            |       |  0.25

Nlocal:    9826 ave 9843 max 9809 min
Histogram: 1 0 0 0 0 0 0 0 0 1
Nghost:    12071 ave 12073 max 12069 min
Histogram: 1 0 0 0 0 0 0 0 0 1
Neighs:    637695 ave 644561 max 630829 min
Histogram: 1 0 0 0 0 0 0 0 0 1

Total # of neighbors = 1275390
Ave neighs/atom = 64.8987
Neighbor list builds = 495
Dangerous builds not checked
Setting up Verlet run ...
  Unit style    : metal
  Current step  : 80495
  Time step     : 0.001
Per MPI rank memory allocation (min/avg/max) = 11.33 | 11.33 | 11.33 Mbytes
Step Temp Press TotEng PotEng Enthalpy 
   80495    2309.6709    790.39306   -76106.257   -81973.032   -75915.335 
  100000    2285.1617    2145.4794   -76190.416   -81994.935    -75672.59 
Loop time of 1691.92 on 2 procs for 19505 steps with 19652 atoms

Performance: 0.996 ns/day, 24.095 hours/ns, 11.528 timesteps/s
97.6% CPU use with 2 MPI tasks x no OpenMP threads

MPI task timing breakdown:
Section |  min time  |  avg time  |  max time  |%varavg| %total
---------------------------------------------------------------
Pair    | 912.22     | 914.51     | 916.81     |   7.6 | 54.05
Neigh   | 676.89     | 681.17     | 685.46     |  16.4 | 40.26
Comm    | 66.533     | 72.87      | 79.208     |  74.2 |  4.31
Output  | 0.094531   | 0.094546   | 0.094561   |   0.0 |  0.01
Modify  | 18.926     | 19.131     | 19.335     |   4.7 |  1.13
Other   |            | 4.14       |            |       |  0.24

Nlocal:    9826 ave 9838 max 9814 min
Histogram: 1 0 0 0 0 0 0 0 0 1
Nghost:    12083 ave 12093 max 12073 min
Histogram: 1 0 0 0 0 0 0 0 0 1
Neighs:    638558 ave 645785 max 631331 min
Histogram: 1 0 0 0 0 0 0 0 0 1

Total # of neighbors = 1277116
Ave neighs/atom = 64.9866
Neighbor list builds = 19505
Dangerous builds not checked
Setting up Verlet run ...
  Unit style    : metal
  Current step  : 100000
  Time step     : 0.001
Per MPI rank memory allocation (min/avg/max) = 11.34 | 11.34 | 11.34 Mbytes
Step Temp Press TotEng PotEng Enthalpy 
  100000    2285.1617    2145.4794   -76190.416   -81994.935    -75672.59 
  100495    2259.3876   -1021.5822    -76276.92    -82015.97   -76524.179 
Loop time of 42.9334 on 2 procs for 495 steps with 19652 atoms

Performance: 0.996 ns/day, 24.093 hours/ns, 11.529 timesteps/s
96.8% CPU use with 2 MPI tasks x no OpenMP threads

MPI task timing breakdown:
Section |  min time  |  avg time  |  max time  |%varavg| %total
---------------------------------------------------------------
Pair    | 23.228     | 23.459     | 23.69      |   4.8 | 54.64
Neigh   | 17.074     | 17.668     | 18.262     |  14.1 | 41.15
Comm    | 0.90284    | 1.2705     | 1.6381     |  32.6 |  2.96
Output  | 7.0095e-05 | 0.00010455 | 0.000139   |   0.0 |  0.00
Modify  | 0.4214     | 0.42249    | 0.42357    |   0.2 |  0.98
Other   |            | 0.1135     |            |       |  0.26

Nlocal:    9826 ave 9838 max 9814 min
Histogram: 1 0 0 0 0 0 0 0 0 1
Nghost:    12038.5 ave 12067 max 12010 min
Histogram: 1 0 0 0 0 0 0 0 0 1
Neighs:    636460 ave 642425 max 630495 min
Histogram: 1 0 0 0 0 0 0 0 0 1

Total # of neighbors = 1272920
Ave neighs/atom = 64.7731
Neighbor list builds = 495
Dangerous builds not checked
Setting up Verlet run ...
  Unit style    : metal
  Current step  : 100495
  Time step     : 0.001
Per MPI rank memory allocation (min/avg/max) = 11.34 | 11.34 | 11.34 Mbytes
Step Temp Press TotEng PotEng Enthalpy 
  100495    2259.3876   -1021.5822    -76276.92    -82015.97   -76524.179 
  120000    2251.8271   -544.36563   -76414.315   -82134.161   -76545.535 
Loop time of 1629.86 on 2 procs for 19505 steps with 19652 atoms

Performance: 1.034 ns/day, 23.211 hours/ns, 11.967 timesteps/s
99.3% CPU use with 2 MPI tasks x no OpenMP threads

MPI task timing breakdown:
Section |  min time  |  avg time  |  max time  |%varavg| %total
---------------------------------------------------------------
Pair    | 889.3      | 891.14     | 892.98     |   6.2 | 54.68
Neigh   | 652.68     | 659.06     | 665.44     |  24.9 | 40.44
Comm    | 55.813     | 60.26      | 64.707     |  57.3 |  3.70
Output  | 0.060706   | 0.060713   | 0.06072    |   0.0 |  0.00
Modify  | 14.934     | 15.073     | 15.213     |   3.6 |  0.92
Other   |            | 4.265      |            |       |  0.26

Nlocal:    9826 ave 9845 max 9807 min
Histogram: 1 0 0 0 0 0 0 0 0 1
Nghost:    12092.5 ave 12111 max 12074 min
Histogram: 1 0 0 0 0 0 0 0 0 1
Neighs:    638982 ave 643350 max 634615 min
Histogram: 1 0 0 0 0 0 0 0 0 1

Total # of neighbors = 1277965
Ave neighs/atom = 65.0298
Neighbor list builds = 19505
Dangerous builds not checked
Setting up Verlet run ...
  Unit style    : metal
  Current step  : 120000
  Time step     : 0.001
Per MPI rank memory allocation (min/avg/max) = 11.34 | 11.34 | 11.34 Mbytes
Step Temp Press TotEng PotEng Enthalpy 
  120000    2251.8271   -544.36563   -76414.315   -82134.161   -76545.535 
  120495    2215.6658   -672.86779   -76529.287    -82157.28   -76691.708 
Loop time of 39.83 on 2 procs for 495 steps with 19652 atoms

Performance: 1.074 ns/day, 22.351 hours/ns, 12.428 timesteps/s
99.1% CPU use with 2 MPI tasks x no OpenMP threads

MPI task timing breakdown:
Section |  min time  |  avg time  |  max time  |%varavg| %total
---------------------------------------------------------------
Pair    | 21.742     | 21.779     | 21.816     |   0.8 | 54.68
Neigh   | 15.889     | 16.122     | 16.356     |   5.8 | 40.48
Comm    | 1.1577     | 1.4394     | 1.721      |  23.5 |  3.61
Output  | 7.2002e-05 | 0.00010049 | 0.00012898 |   0.0 |  0.00
Modify  | 0.37742    | 0.38094    | 0.38447    |   0.6 |  0.96
Other   |            | 0.1083     |            |       |  0.27

Nlocal:    9826 ave 9831 max 9821 min
Histogram: 1 0 0 0 0 0 0 0 0 1
Nghost:    12084.5 ave 12089 max 12080 min
Histogram: 1 0 0 0 0 0 0 0 0 1
Neighs:    638372 ave 644056 max 632687 min
Histogram: 1 0 0 0 0 0 0 0 0 1

Total # of neighbors = 1276743
Ave neighs/atom = 64.9676
Neighbor list builds = 495
Dangerous builds not checked
Setting up Verlet run ...
  Unit style    : metal
  Current step  : 120495
  Time step     : 0.001
Per MPI rank memory allocation (min/avg/max) = 11.34 | 11.34 | 11.34 Mbytes
Step Temp Press TotEng PotEng Enthalpy 
  120495    2215.6658   -672.86779   -76529.287    -82157.28   -76691.708 
  140000    2187.2281    501.12194   -76616.518   -82172.276   -76495.911 
Loop time of 1649.51 on 2 procs for 19505 steps with 19652 atoms

Performance: 1.022 ns/day, 23.491 hours/ns, 11.825 timesteps/s
98.9% CPU use with 2 MPI tasks x no OpenMP threads

MPI task timing breakdown:
Section |  min time  |  avg time  |  max time  |%varavg| %total
---------------------------------------------------------------
Pair    | 897.96     | 903.41     | 908.86     |  18.1 | 54.77
Neigh   | 651.15     | 665.02     | 678.89     |  53.8 | 40.32
Comm    | 52.505     | 61.028     | 69.55      | 109.1 |  3.70
Output  | 0.32519    | 0.3252     | 0.3252     |   0.0 |  0.02
Modify  | 15.124     | 15.353     | 15.581     |   5.8 |  0.93
Other   |            | 4.378      |            |       |  0.27

Nlocal:    9826 ave 9832 max 9820 min
Histogram: 1 0 0 0 0 0 0 0 0 1
Nghost:    12103.5 ave 12108 max 12099 min
Histogram: 1 0 0 0 0 0 0 0 0 1
Neighs:    640040 ave 646147 max 633934 min
Histogram: 1 0 0 0 0 0 0 0 0 1

Total # of neighbors = 1280081
Ave neighs/atom = 65.1374
Neighbor list builds = 19505
Dangerous builds not checked
Setting up Verlet run ...
  Unit style    : metal
  Current step  : 140000
  Time step     : 0.001
Per MPI rank memory allocation (min/avg/max) = 11.34 | 11.34 | 11.34 Mbytes
Step Temp Press TotEng PotEng Enthalpy 
  140000    2187.2281    501.12194   -76616.518   -82172.276   -76495.911 
  140495    2154.0122   -732.12296   -76755.853    -82227.24   -76932.079 
Loop time of 41.4145 on 2 procs for 495 steps with 19652 atoms

Performance: 1.033 ns/day, 23.240 hours/ns, 11.952 timesteps/s
97.7% CPU use with 2 MPI tasks x no OpenMP threads

MPI task timing breakdown:
Section |  min time  |  avg time  |  max time  |%varavg| %total
---------------------------------------------------------------
Pair    | 22.311     | 22.645     | 22.979     |   7.0 | 54.68
Neigh   | 16.417     | 16.693     | 16.968     |   6.7 | 40.31
Comm    | 1.5072     | 1.5594     | 1.6116     |   4.2 |  3.77
Output  | 8.297e-05  | 0.000103   | 0.00012302 |   0.0 |  0.00
Modify  | 0.39099    | 0.40337    | 0.41576    |   2.0 |  0.97
Other   |            | 0.1137     |            |       |  0.27

Nlocal:    9826 ave 9838 max 9814 min
Histogram: 1 0 0 0 0 0 0 0 0 1
Nghost:    12112.5 ave 12138 max 12087 min
Histogram: 1 0 0 0 0 0 0 0 0 1
Neighs:    640184 ave 646530 max 633837 min
Histogram: 1 0 0 0 0 0 0 0 0 1

Total # of neighbors = 1280367
Ave neighs/atom = 65.152
Neighbor list builds = 495
Dangerous builds not checked
Setting up Verlet run ...
  Unit style    : metal
  Current step  : 140495
  Time step     : 0.001
Per MPI rank memory allocation (min/avg/max) = 11.34 | 11.34 | 11.34 Mbytes
Step Temp Press TotEng PotEng Enthalpy 
  140495    2154.0122   -732.12296   -76755.853    -82227.24   -76932.079 
  160000    2168.8123    1196.6614   -76812.955   -82321.935   -76525.963 
Loop time of 1685.93 on 2 procs for 19505 steps with 19652 atoms

Performance: 1.000 ns/day, 24.010 hours/ns, 11.569 timesteps/s
99.4% CPU use with 2 MPI tasks x no OpenMP threads

MPI task timing breakdown:
Section |  min time  |  avg time  |  max time  |%varavg| %total
---------------------------------------------------------------
Pair    | 922.94     | 925.76     | 928.58     |   9.3 | 54.91
Neigh   | 682        | 688.79     | 695.57     |  25.8 | 40.86
Comm    | 41.205     | 50.989     | 60.773     | 137.0 |  3.02
Output  | 0.05079    | 0.050812   | 0.050833   |   0.0 |  0.00
Modify  | 15.837     | 15.849     | 15.861     |   0.3 |  0.94
Other   |            | 4.489      |            |       |  0.27

Nlocal:    9826 ave 9840 max 9812 min
Histogram: 1 0 0 0 0 0 0 0 0 1
Nghost:    12094 ave 12117 max 12071 min
Histogram: 1 0 0 0 0 0 0 0 0 1
Neighs:    642356 ave 648679 max 636033 min
Histogram: 1 0 0 0 0 0 0 0 0 1

Total # of neighbors = 1284712
Ave neighs/atom = 65.3731
Neighbor list builds = 19505
Dangerous builds not checked
Setting up Verlet run ...
  Unit style    : metal
  Current step  : 160000
  Time step     : 0.001
Per MPI rank memory allocation (min/avg/max) = 11.35 | 11.35 | 11.35 Mbytes
Step Temp Press TotEng PotEng Enthalpy 
  160000    2168.8123    1196.6614   -76812.955   -82321.935   -76525.963 
  160495    2111.3557    563.71197   -77066.425    -82429.46   -76931.366 
Loop time of 40.185 on 2 procs for 495 steps with 19652 atoms

Performance: 1.064 ns/day, 22.551 hours/ns, 12.318 timesteps/s
100.0% CPU use with 2 MPI tasks x no OpenMP threads

MPI task timing breakdown:
Section |  min time  |  avg time  |  max time  |%varavg| %total
---------------------------------------------------------------
Pair    | 21.917     | 22.01      | 22.104     |   2.0 | 54.77
Neigh   | 15.944     | 16.514     | 17.084     |  14.0 | 41.09
Comm    | 0.66415    | 1.1538     | 1.6435     |  45.6 |  2.87
Output  | 9.203e-05  | 0.00012052 | 0.00014901 |   0.0 |  0.00
Modify  | 0.38617    | 0.39757    | 0.40897    |   1.8 |  0.99
Other   |            | 0.1093     |            |       |  0.27

Nlocal:    9826 ave 9829 max 9823 min
Histogram: 1 0 0 0 0 0 0 0 0 1
Nghost:    12136.5 ave 12144 max 12129 min
Histogram: 1 0 0 0 0 0 0 0 0 1
Neighs:    643056 ave 648273 max 637839 min
Histogram: 1 0 0 0 0 0 0 0 0 1

Total # of neighbors = 1286112
Ave neighs/atom = 65.4443
Neighbor list builds = 495
Dangerous builds not checked
Setting up Verlet run ...
  Unit style    : metal
  Current step  : 160495
  Time step     : 0.001
Per MPI rank memory allocation (min/avg/max) = 11.35 | 11.35 | 11.35 Mbytes
Step Temp Press TotEng PotEng Enthalpy 
  160495    2111.3557    563.71197   -77066.425    -82429.46   -76931.366 
  180000    2075.1637   -752.05151   -77108.886   -82379.991   -77289.282 
Loop time of 1670 on 2 procs for 19505 steps with 19652 atoms

Performance: 1.009 ns/day, 23.783 hours/ns, 11.680 timesteps/s
98.9% CPU use with 2 MPI tasks x no OpenMP threads

MPI task timing breakdown:
Section |  min time  |  avg time  |  max time  |%varavg| %total
---------------------------------------------------------------
Pair    | 904.85     | 914.46     | 924.08     |  31.8 | 54.76
Neigh   | 684.33     | 687.06     | 689.78     |  10.4 | 41.14
Comm    | 35.75      | 48.28      | 60.811     | 180.3 |  2.89
Output  | 0.044857   | 0.044881   | 0.044905   |   0.0 |  0.00
Modify  | 15.768     | 15.841     | 15.914     |   1.8 |  0.95
Other   |            | 4.312      |            |       |  0.26

Nlocal:    9826 ave 9848 max 9804 min
Histogram: 1 0 0 0 0 0 0 0 0 1
Nghost:    12145.5 ave 12155 max 12136 min
Histogram: 1 0 0 0 0 0 0 0 0 1
Neighs:    642428 ave 651968 max 632889 min
Histogram: 1 0 0 0 0 0 0 0 0 1

Total # of neighbors = 1284857
Ave neighs/atom = 65.3805
Neighbor list builds = 19505
Dangerous builds not checked
Setting up Verlet run ...
  Unit style    : metal
  Current step  : 180000
  Time step     : 0.001
Per MPI rank memory allocation (min/avg/max) = 11.35 | 11.35 | 11.35 Mbytes
Step Temp Press TotEng PotEng Enthalpy 
  180000    2075.1637   -752.05151   -77108.886   -82379.991   -77289.282 
  180495    2053.1481    -791.6298   -77194.956   -82410.139   -77384.679 
Loop time of 38.821 on 2 procs for 495 steps with 19652 atoms

Performance: 1.102 ns/day, 21.785 hours/ns, 12.751 timesteps/s
99.7% CPU use with 2 MPI tasks x no OpenMP threads

MPI task timing breakdown:
Section |  min time  |  avg time  |  max time  |%varavg| %total
---------------------------------------------------------------
Pair    | 20.976     | 21.167     | 21.358     |   4.1 | 54.52
Neigh   | 16.044     | 16.111     | 16.179     |   1.7 | 41.50
Comm    | 0.7884     | 1.0584     | 1.3283     |  26.2 |  2.73
Output  | 8.7976e-05 | 0.00011897 | 0.00014997 |   0.0 |  0.00
Modify  | 0.37124    | 0.3754     | 0.37955    |   0.7 |  0.97
Other   |            | 0.1092     |            |       |  0.28

Nlocal:    9826 ave 9834 max 9818 min
Histogram: 1 0 0 0 0 0 0 0 0 1
Nghost:    12146.5 ave 12153 max 12140 min
Histogram: 1 0 0 0 0 0 0 0 0 1
Neighs:    642846 ave 648070 max 637623 min
Histogram: 1 0 0 0 0 0 0 0 0 1

Total # of neighbors = 1285693
Ave neighs/atom = 65.423
Neighbor list builds = 495
Dangerous builds not checked
Setting up Verlet run ...
  Unit style    : metal
  Current step  : 180495
  Time step     : 0.001
Per MPI rank memory allocation (min/avg/max) = 11.35 | 11.35 | 11.35 Mbytes
Step Temp Press TotEng PotEng Enthalpy 
  180495    2053.1481    -791.6298   -77194.956   -82410.139   -77384.679 
  200000    2041.8335   -292.68872   -77272.712   -82459.155   -77342.669 
Loop time of 1689.04 on 2 procs for 19505 steps with 19652 atoms

Performance: 0.998 ns/day, 24.054 hours/ns, 11.548 timesteps/s
98.9% CPU use with 2 MPI tasks x no OpenMP threads

MPI task timing breakdown:
Section |  min time  |  avg time  |  max time  |%varavg| %total
---------------------------------------------------------------
Pair    | 919.79     | 928.59     | 937.39     |  28.9 | 54.98
Neigh   | 686.97     | 688.92     | 690.87     |   7.4 | 40.79
Comm    | 43.976     | 50.91      | 57.845     |  97.2 |  3.01
Output  | 0.061248   | 0.06127    | 0.061292   |   0.0 |  0.00
Modify  | 15.975     | 15.988     | 16.001     |   0.3 |  0.95
Other   |            | 4.565      |            |       |  0.27

Nlocal:    9826 ave 9859 max 9793 min
Histogram: 1 0 0 0 0 0 0 0 0 1
Nghost:    12103 ave 12106 max 12100 min
Histogram: 1 0 0 0 0 0 0 0 0 1
Neighs:    644567 ave 653696 max 635438 min
Histogram: 1 0 0 0 0 0 0 0 0 1

Total # of neighbors = 1289134
Ave neighs/atom = 65.5981
Neighbor list builds = 19505
Dangerous builds not checked
Setting up Verlet run ...
  Unit style    : metal
  Current step  : 200000
  Time step     : 0.001
Per MPI rank memory allocation (min/avg/max) = 11.35 | 11.35 | 11.35 Mbytes
Step Temp Press TotEng PotEng Enthalpy 
  200000    2041.8335   -292.68872   -77272.712   -82459.155   -77342.669 
  200495    1995.4993   -616.10097   -77440.226   -82508.976   -77587.542 
Loop time of 40.2016 on 2 procs for 495 steps with 19652 atoms

Performance: 1.064 ns/day, 22.560 hours/ns, 12.313 timesteps/s
99.9% CPU use with 2 MPI tasks x no OpenMP threads

MPI task timing breakdown:
Section |  min time  |  avg time  |  max time  |%varavg| %total
---------------------------------------------------------------
Pair    | 21.73      | 22.04      | 22.35      |   6.6 | 54.82
Neigh   | 15.937     | 16.468     | 16.999     |  13.1 | 40.96
Comm    | 0.95657    | 1.1859     | 1.4152     |  21.1 |  2.95
Output  | 7.5102e-05 | 0.0001055  | 0.0001359  |   0.0 |  0.00
Modify  | 0.38424    | 0.39527    | 0.4063     |   1.8 |  0.98
Other   |            | 0.1123     |            |       |  0.28

Nlocal:    9826 ave 9866 max 9786 min
Histogram: 1 0 0 0 0 0 0 0 0 1
Nghost:    12133 ave 12176 max 12090 min
Histogram: 1 0 0 0 0 0 0 0 0 1
Neighs:    644452 ave 646915 max 641988 min
Histogram: 1 0 0 0 0 0 0 0 0 1

Total # of neighbors = 1288903
Ave neighs/atom = 65.5864
Neighbor list builds = 495
Dangerous builds not checked
Setting up Verlet run ...
  Unit style    : metal
  Current step  : 200495
  Time step     : 0.001
Per MPI rank memory allocation (min/avg/max) = 11.35 | 11.35 | 11.35 Mbytes
Step Temp Press TotEng PotEng Enthalpy 
  200495    1995.4993   -616.10097   -77440.226   -82508.976   -77587.542 
  220000    1999.8254   -744.22444   -77465.512   -82545.251   -77643.775 
Loop time of 1698.99 on 2 procs for 19505 steps with 19652 atoms

Performance: 0.992 ns/day, 24.196 hours/ns, 11.480 timesteps/s
98.5% CPU use with 2 MPI tasks x no OpenMP threads

MPI task timing breakdown:
Section |  min time  |  avg time  |  max time  |%varavg| %total
---------------------------------------------------------------
Pair    | 932.88     | 933.1      | 933.32     |   0.7 | 54.92
Neigh   | 671.62     | 684.08     | 696.53     |  47.6 | 40.26
Comm    | 48.803     | 60.529     | 72.255     | 150.7 |  3.56
Output  | 0.17295    | 0.17296    | 0.17297    |   0.0 |  0.01
Modify  | 16.195     | 16.624     | 17.054     |  10.5 |  0.98
Other   |            | 4.487      |            |       |  0.26

Nlocal:    9826 ave 9846 max 9806 min
Histogram: 1 0 0 0 0 0 0 0 0 1
Nghost:    12126.5 ave 12150 max 12103 min
Histogram: 1 0 0 0 0 0 0 0 0 1
Neighs:    643566 ave 647541 max 639590 min
Histogram: 1 0 0 0 0 0 0 0 0 1

Total # of neighbors = 1287131
Ave neighs/atom = 65.4962
Neighbor list builds = 19505
Dangerous builds not checked
Setting up Verlet run ...
  Unit style    : metal
  Current step  : 220000
  Time step     : 0.001
Per MPI rank memory allocation (min/avg/max) = 11.35 | 11.35 | 11.35 Mbytes
Step Temp Press TotEng PotEng Enthalpy 
  220000    1999.8254   -744.22444   -77465.512   -82545.251   -77643.775 
  220495    1955.1383    586.43637   -77674.894   -82641.123   -77535.156 
Loop time of 40.8886 on 2 procs for 495 steps with 19652 atoms

Performance: 1.046 ns/day, 22.945 hours/ns, 12.106 timesteps/s
98.1% CPU use with 2 MPI tasks x no OpenMP threads

MPI task timing breakdown:
Section |  min time  |  avg time  |  max time  |%varavg| %total
---------------------------------------------------------------
Pair    | 22.277     | 22.435     | 22.593     |   3.3 | 54.87
Neigh   | 16.534     | 16.722     | 16.911     |   4.6 | 40.90
Comm    | 1.1819     | 1.2149     | 1.2479     |   3.0 |  2.97
Output  | 7.0095e-05 | 9.3102e-05 | 0.00011611 |   0.0 |  0.00
Modify  | 0.39618    | 0.39641    | 0.39665    |   0.0 |  0.97
Other   |            | 0.1202     |            |       |  0.29

Nlocal:    9826 ave 9842 max 9810 min
Histogram: 1 0 0 0 0 0 0 0 0 1
Nghost:    12177 ave 12233 max 12121 min
Histogram: 1 0 0 0 0 0 0 0 0 1
Neighs:    646532 ave 653637 max 639427 min
Histogram: 1 0 0 0 0 0 0 0 0 1

Total # of neighbors = 1293064
Ave neighs/atom = 65.7981
Neighbor list builds = 495
Dangerous builds not checked
Setting up Verlet run ...
  Unit style    : metal
  Current step  : 220495
  Time step     : 0.001
Per MPI rank memory allocation (min/avg/max) = 11.35 | 11.35 | 11.35 Mbytes
Step Temp Press TotEng PotEng Enthalpy 
  220495    1955.1383    586.43637   -77674.894   -82641.123   -77535.156 
  240000    1966.1343    44.590756   -77686.419    -82680.58   -77675.789 
Loop time of 1642.29 on 2 procs for 19505 steps with 19652 atoms

Performance: 1.026 ns/day, 23.388 hours/ns, 11.877 timesteps/s
99.3% CPU use with 2 MPI tasks x no OpenMP threads

MPI task timing breakdown:
Section |  min time  |  avg time  |  max time  |%varavg| %total
---------------------------------------------------------------
Pair    | 895.08     | 899.59     | 904.1      |  15.0 | 54.78
Neigh   | 671.06     | 673.74     | 676.42     |  10.3 | 41.02
Comm    | 41.826     | 49.062     | 56.298     | 103.3 |  2.99
Output  | 0.06741    | 0.067423   | 0.067436   |   0.0 |  0.00
Modify  | 15.526     | 15.549     | 15.571     |   0.6 |  0.95
Other   |            | 4.274      |            |       |  0.26

Nlocal:    9826 ave 9834 max 9818 min
Histogram: 1 0 0 0 0 0 0 0 0 1
Nghost:    12184 ave 12215 max 12153 min
Histogram: 1 0 0 0 0 0 0 0 0 1
Neighs:    646358 ave 653746 max 638971 min
Histogram: 1 0 0 0 0 0 0 0 0 1

Total # of neighbors = 1292717
Ave neighs/atom = 65.7804
Neighbor list builds = 19505
Dangerous builds not checked
Setting up Verlet run ...
  Unit style    : metal
  Current step  : 240000
  Time step     : 0.001
Per MPI rank memory allocation (min/avg/max) = 11.35 | 11.35 | 11.35 Mbytes
Step Temp Press TotEng PotEng Enthalpy 
  240000    1966.1343    44.590756   -77686.419    -82680.58   -77675.789 
  240495    1902.3505    605.97101   -77905.343   -82737.487   -77761.277 
Loop time of 39.2786 on 2 procs for 495 steps with 19652 atoms

Performance: 1.089 ns/day, 22.042 hours/ns, 12.602 timesteps/s
99.9% CPU use with 2 MPI tasks x no OpenMP threads

MPI task timing breakdown:
Section |  min time  |  avg time  |  max time  |%varavg| %total
---------------------------------------------------------------
Pair    | 21.329     | 21.454     | 21.58      |   2.7 | 54.62
Neigh   | 16.065     | 16.12      | 16.175     |   1.4 | 41.04
Comm    | 1.0384     | 1.2157     | 1.3931     |  16.1 |  3.10
Output  | 6.1989e-05 | 8.6427e-05 | 0.00011086 |   0.0 |  0.00
Modify  | 0.38325    | 0.38568    | 0.38811    |   0.4 |  0.98
Other   |            | 0.1031     |            |       |  0.26

Nlocal:    9826 ave 9840 max 9812 min
Histogram: 1 0 0 0 0 0 0 0 0 1
Nghost:    12192 ave 12222 max 12162 min
Histogram: 1 0 0 0 0 0 0 0 0 1
Neighs:    648216 ave 652887 max 643544 min
Histogram: 1 0 0 0 0 0 0 0 0 1

Total # of neighbors = 1296431
Ave neighs/atom = 65.9694
Neighbor list builds = 495
Dangerous builds not checked
Setting up Verlet run ...
  Unit style    : metal
  Current step  : 240495
  Time step     : 0.001
Per MPI rank memory allocation (min/avg/max) = 11.35 | 11.35 | 11.35 Mbytes
Step Temp Press TotEng PotEng Enthalpy 
  240495    1902.3505    605.97101   -77905.343   -82737.487   -77761.277 
  260000    1905.6754   -826.04226   -77906.046   -82746.635   -78102.844 
Loop time of 1648.84 on 2 procs for 19505 steps with 19652 atoms

Performance: 1.022 ns/day, 23.482 hours/ns, 11.830 timesteps/s
98.3% CPU use with 2 MPI tasks x no OpenMP threads

MPI task timing breakdown:
Section |  min time  |  avg time  |  max time  |%varavg| %total
---------------------------------------------------------------
Pair    | 889.13     | 897.22     | 905.3      |  27.0 | 54.42
Neigh   | 651.7      | 655.71     | 659.72     |  15.7 | 39.77
Comm    | 63.874     | 76.046     | 88.218     | 139.6 |  4.61
Output  | 0.054664   | 0.054682   | 0.054699   |   0.0 |  0.00
Modify  | 15.498     | 15.524     | 15.55      |   0.7 |  0.94
Other   |            | 4.286      |            |       |  0.26

Nlocal:    9826 ave 9837 max 9815 min
Histogram: 1 0 0 0 0 0 0 0 0 1
Nghost:    12166.5 ave 12167 max 12166 min
Histogram: 1 0 0 0 0 0 0 0 0 1
Neighs:    646514 ave 653050 max 639978 min
Histogram: 1 0 0 0 0 0 0 0 0 1

Total # of neighbors = 1293028
Ave neighs/atom = 65.7963
Neighbor list builds = 19505
Dangerous builds not checked
Setting up Verlet run ...
  Unit style    : metal
  Current step  : 260000
  Time step     : 0.001
Per MPI rank memory allocation (min/avg/max) = 11.35 | 11.35 | 11.35 Mbytes
Step Temp Press TotEng PotEng Enthalpy 
  260000    1905.6754   -826.04226   -77906.046   -82746.635   -78102.844 
  260495    1845.7498   -657.33063    -78118.48   -82806.852   -78274.754 
Loop time of 40.3105 on 2 procs for 495 steps with 19652 atoms

Performance: 1.061 ns/day, 22.621 hours/ns, 12.280 timesteps/s
99.2% CPU use with 2 MPI tasks x no OpenMP threads

MPI task timing breakdown:
Section |  min time  |  avg time  |  max time  |%varavg| %total
---------------------------------------------------------------
Pair    | 22.004     | 22.127     | 22.249     |   2.6 | 54.89
Neigh   | 16.237     | 16.416     | 16.594     |   4.4 | 40.72
Comm    | 1.1879     | 1.247      | 1.3061     |   5.3 |  3.09
Output  | 7.391e-05  | 9.9897e-05 | 0.00012589 |   0.0 |  0.00
Modify  | 0.40266    | 0.40495    | 0.40724    |   0.4 |  1.00
Other   |            | 0.1163     |            |       |  0.29

Nlocal:    9826 ave 9829 max 9823 min
Histogram: 1 0 0 0 0 0 0 0 0 1
Nghost:    12144 ave 12165 max 12123 min
Histogram: 1 0 0 0 0 0 0 0 0 1
Neighs:    648264 ave 654484 max 642044 min
Histogram: 1 0 0 0 0 0 0 0 0 1

Total # of neighbors = 1296528
Ave neighs/atom = 65.9744
Neighbor list builds = 495
Dangerous builds not checked
Setting up Verlet run ...
  Unit style    : metal
  Current step  : 260495
  Time step     : 0.001
Per MPI rank memory allocation (min/avg/max) = 11.35 | 11.35 | 11.35 Mbytes
Step Temp Press TotEng PotEng Enthalpy 
  260495    1845.7498   -657.33063    -78118.48   -82806.852   -78274.754 
  280000    1865.4191   -678.07565    -78087.52   -82825.855   -78249.054 
Loop time of 1702.02 on 2 procs for 19505 steps with 19652 atoms

Performance: 0.990 ns/day, 24.239 hours/ns, 11.460 timesteps/s
98.8% CPU use with 2 MPI tasks x no OpenMP threads

MPI task timing breakdown:
Section |  min time  |  avg time  |  max time  |%varavg| %total
---------------------------------------------------------------
Pair    | 928.61     | 933.16     | 937.7      |  14.9 | 54.83
Neigh   | 682.39     | 683.14     | 683.89     |   2.9 | 40.14
Comm    | 61.185     | 65.053     | 68.921     |  48.0 |  3.82
Output  | 0.083425   | 0.083446   | 0.083466   |   0.0 |  0.00
Modify  | 15.869     | 15.95      | 16.031     |   2.0 |  0.94
Other   |            | 4.634      |            |       |  0.27

Nlocal:    9826 ave 9847 max 9805 min
Histogram: 1 0 0 0 0 0 0 0 0 1
Nghost:    12153 ave 12180 max 12126 min
Histogram: 1 0 0 0 0 0 0 0 0 1
Neighs:    646846 ave 651082 max 642611 min
Histogram: 1 0 0 0 0 0 0 0 0 1

Total # of neighbors = 1293693
Ave neighs/atom = 65.8301
Neighbor list builds = 19505
Dangerous builds not checked
Setting up Verlet run ...
  Unit style    : metal
  Current step  : 280000
  Time step     : 0.001
Per MPI rank memory allocation (min/avg/max) = 11.35 | 11.35 | 11.35 Mbytes
Step Temp Press TotEng PotEng Enthalpy 
  280000    1865.4191   -678.07565    -78087.52   -82825.855   -78249.054 
  280495    1798.0984   -130.25631   -78357.354   -82924.688   -78388.238 
Loop time of 40.8751 on 2 procs for 495 steps with 19652 atoms

Performance: 1.046 ns/day, 22.938 hours/ns, 12.110 timesteps/s
99.6% CPU use with 2 MPI tasks x no OpenMP threads

MPI task timing breakdown:
Section |  min time  |  avg time  |  max time  |%varavg| %total
---------------------------------------------------------------
Pair    | 22.416     | 22.561     | 22.706     |   3.0 | 55.19
Neigh   | 16.357     | 16.601     | 16.846     |   6.0 | 40.61
Comm    | 1.0896     | 1.1932     | 1.2967     |   9.5 |  2.92
Output  | 8.6069e-05 | 0.00010848 | 0.00013089 |   0.0 |  0.00
Modify  | 0.39539    | 0.40143    | 0.40746    |   1.0 |  0.98
Other   |            | 0.1181     |            |       |  0.29

Nlocal:    9826 ave 9843 max 9809 min
Histogram: 1 0 0 0 0 0 0 0 0 1
Nghost:    12187 ave 12195 max 12179 min
Histogram: 1 0 0 0 0 0 0 0 0 1
Neighs:    649872 ave 654601 max 645142 min
Histogram: 1 0 0 0 0 0 0 0 0 1

Total # of neighbors = 1299743
Ave neighs/atom = 66.138
Neighbor list builds = 495
Dangerous builds not checked
Setting up Verlet run ...
  Unit style    : metal
  Current step  : 280495
  Time step     : 0.001
Per MPI rank memory allocation (min/avg/max) = 11.35 | 11.35 | 11.35 Mbytes
Step Temp Press TotEng PotEng Enthalpy 
  280495    1798.0984   -130.25631   -78357.354   -82924.688   -78388.238 
  300000    1823.4221    967.90672   -78335.116   -82966.774   -78106.291 
Loop time of 1680.75 on 2 procs for 19505 steps with 19652 atoms

Performance: 1.003 ns/day, 23.936 hours/ns, 11.605 timesteps/s
99.4% CPU use with 2 MPI tasks x no OpenMP threads

MPI task timing breakdown:
Section |  min time  |  avg time  |  max time  |%varavg| %total
---------------------------------------------------------------
Pair    | 918.6      | 927.26     | 935.91     |  28.4 | 55.17
Neigh   | 669.48     | 679.77     | 690.06     |  39.5 | 40.44
Comm    | 51.082     | 52.754     | 54.427     |  23.0 |  3.14
Output  | 0.37114    | 0.37114    | 0.37115    |   0.0 |  0.02
Modify  | 15.757     | 15.964     | 16.17      |   5.2 |  0.95
Other   |            | 4.638      |            |       |  0.28

Nlocal:    9826 ave 9842 max 9810 min
Histogram: 1 0 0 0 0 0 0 0 0 1
Nghost:    12178.5 ave 12181 max 12176 min
Histogram: 1 0 0 0 0 0 0 0 0 1
Neighs:    651792 ave 656676 max 646908 min
Histogram: 1 0 0 0 0 0 0 0 0 1

Total # of neighbors = 1303584
Ave neighs/atom = 66.3334
Neighbor list builds = 19505
Dangerous builds not checked
Setting up Verlet run ...
  Unit style    : metal
  Current step  : 300000
  Time step     : 0.001
Per MPI rank memory allocation (min/avg/max) = 11.35 | 11.35 | 11.35 Mbytes
Step Temp Press TotEng PotEng Enthalpy 
  300000    1823.4221    967.90672   -78335.116   -82966.774   -78106.291 
  300495      1765.41    747.71162   -78580.054   -83064.357   -78403.424 
Loop time of 41.4442 on 2 procs for 495 steps with 19652 atoms

Performance: 1.032 ns/day, 23.257 hours/ns, 11.944 timesteps/s
98.1% CPU use with 2 MPI tasks x no OpenMP threads

MPI task timing breakdown:
Section |  min time  |  avg time  |  max time  |%varavg| %total
---------------------------------------------------------------
Pair    | 22.903     | 22.935     | 22.967     |   0.7 | 55.34
Neigh   | 16.281     | 16.39      | 16.499     |   2.7 | 39.55
Comm    | 1.5065     | 1.5895     | 1.6725     |   6.6 |  3.84
Output  | 6.485e-05  | 9.048e-05  | 0.00011611 |   0.0 |  0.00
Modify  | 0.40329    | 0.40683    | 0.41037    |   0.6 |  0.98
Other   |            | 0.1228     |            |       |  0.30

Nlocal:    9826 ave 9834 max 9818 min
Histogram: 1 0 0 0 0 0 0 0 0 1
Nghost:    12190 ave 12213 max 12167 min
Histogram: 1 0 0 0 0 0 0 0 0 1
Neighs:    652324 ave 658370 max 646278 min
Histogram: 1 0 0 0 0 0 0 0 0 1

Total # of neighbors = 1304648
Ave neighs/atom = 66.3875
Neighbor list builds = 495
Dangerous builds not checked
Setting up Verlet run ...
  Unit style    : metal
  Current step  : 300495
  Time step     : 0.001
Per MPI rank memory allocation (min/avg/max) = 11.35 | 11.35 | 11.35 Mbytes
Step Temp Press TotEng PotEng Enthalpy 
  300495      1765.41    747.71162   -78580.054   -83064.357   -78403.424 
  320000    1748.7308   -1486.4417   -78614.747   -83056.683   -78967.302 
Loop time of 1685.35 on 2 procs for 19505 steps with 19652 atoms

Performance: 1.000 ns/day, 24.002 hours/ns, 11.573 timesteps/s
99.3% CPU use with 2 MPI tasks x no OpenMP threads

MPI task timing breakdown:
Section |  min time  |  avg time  |  max time  |%varavg| %total
---------------------------------------------------------------
Pair    | 930.94     | 932.43     | 933.93     |   4.9 | 55.33
Neigh   | 675.13     | 682.92     | 690.71     |  29.8 | 40.52
Comm    | 39.976     | 49.377     | 58.779     | 133.8 |  2.93
Output  | 0.054113   | 0.054123   | 0.054134   |   0.0 |  0.00
Modify  | 15.826     | 15.977     | 16.129     |   3.8 |  0.95
Other   |            | 4.592      |            |       |  0.27

Nlocal:    9826 ave 9833 max 9819 min
Histogram: 1 0 0 0 0 0 0 0 0 1
Nghost:    12168 ave 12182 max 12154 min
Histogram: 1 0 0 0 0 0 0 0 0 1
Neighs:    649776 ave 654991 max 644561 min
Histogram: 1 0 0 0 0 0 0 0 0 1

Total # of neighbors = 1299552
Ave neighs/atom = 66.1282
Neighbor list builds = 19505
Dangerous builds not checked
Setting up Verlet run ...
  Unit style    : metal
  Current step  : 320000
  Time step     : 0.001
Per MPI rank memory allocation (min/avg/max) = 11.35 | 11.35 | 11.35 Mbytes
Step Temp Press TotEng PotEng Enthalpy 
  320000    1748.7308   -1486.4417   -78614.747   -83056.683   -78967.302 
  320495     1706.526   -114.94733   -78845.188    -83179.92   -78872.326 
Loop time of 41.058 on 2 procs for 495 steps with 19652 atoms

Performance: 1.042 ns/day, 23.040 hours/ns, 12.056 timesteps/s
100.0% CPU use with 2 MPI tasks x no OpenMP threads

MPI task timing breakdown:
Section |  min time  |  avg time  |  max time  |%varavg| %total
---------------------------------------------------------------
Pair    | 22.239     | 22.737     | 23.234     |  10.4 | 55.38
Neigh   | 16.32      | 17.055     | 17.791     |  17.8 | 41.54
Comm    | 0.49081    | 0.74752    | 1.0042     |  29.7 |  1.82
Output  | 6.8903e-05 | 9.9421e-05 | 0.00012994 |   0.0 |  0.00
Modify  | 0.38656    | 0.40554    | 0.42451    |   3.0 |  0.99
Other   |            | 0.113      |            |       |  0.28

Nlocal:    9826 ave 9841 max 9811 min
Histogram: 1 0 0 0 0 0 0 0 0 1
Nghost:    12226 ave 12240 max 12212 min
Histogram: 1 0 0 0 0 0 0 0 0 1
Neighs:    652443 ave 656367 max 648519 min
Histogram: 1 0 0 0 0 0 0 0 0 1

Total # of neighbors = 1304886
Ave neighs/atom = 66.3997
Neighbor list builds = 495
Dangerous builds not checked
Setting up Verlet run ...
  Unit style    : metal
  Current step  : 320495
  Time step     : 0.001
Per MPI rank memory allocation (min/avg/max) = 11.35 | 11.35 | 11.35 Mbytes
Step Temp Press TotEng PotEng Enthalpy 
  320495     1706.526   -114.94733   -78845.188    -83179.92   -78872.326 
  340000    1705.8042   -116.73571   -78859.987   -83192.885   -78887.557 
Loop time of 1681.05 on 2 procs for 19505 steps with 19652 atoms

Performance: 1.002 ns/day, 23.940 hours/ns, 11.603 timesteps/s
99.4% CPU use with 2 MPI tasks x no OpenMP threads

MPI task timing breakdown:
Section |  min time  |  avg time  |  max time  |%varavg| %total
---------------------------------------------------------------
Pair    | 923.71     | 927.51     | 931.3      |  12.5 | 55.17
Neigh   | 687.72     | 688.99     | 690.26     |   4.8 | 40.99
Comm    | 39.076     | 44.126     | 49.177     |  76.0 |  2.62
Output  | 0.057835   | 0.05785    | 0.057866   |   0.0 |  0.00
Modify  | 15.923     | 15.933     | 15.943     |   0.3 |  0.95
Other   |            | 4.437      |            |       |  0.26

Nlocal:    9826 ave 9828 max 9824 min
Histogram: 1 0 0 0 0 0 0 0 0 1
Nghost:    12240 ave 12267 max 12213 min
Histogram: 1 0 0 0 0 0 0 0 0 1
Neighs:    652794 ave 659044 max 646543 min
Histogram: 1 0 0 0 0 0 0 0 0 1

Total # of neighbors = 1305587
Ave neighs/atom = 66.4353
Neighbor list builds = 19505
Dangerous builds not checked
Setting up Verlet run ...
  Unit style    : metal
  Current step  : 340000
  Time step     : 0.001
Per MPI rank memory allocation (min/avg/max) = 11.35 | 11.35 | 11.35 Mbytes
Step Temp Press TotEng PotEng Enthalpy 
  340000    1705.8042   -116.73571   -78859.987   -83192.885   -78887.557 
  340495    1665.3412   -607.65191   -79080.029   -83310.148   -79223.327 
Loop time of 39.4236 on 2 procs for 495 steps with 19652 atoms

Performance: 1.085 ns/day, 22.123 hours/ns, 12.556 timesteps/s
100.0% CPU use with 2 MPI tasks x no OpenMP threads

MPI task timing breakdown:
Section |  min time  |  avg time  |  max time  |%varavg| %total
---------------------------------------------------------------
Pair    | 21.457     | 21.472     | 21.487     |   0.3 | 54.47
Neigh   | 16.512     | 16.605     | 16.699     |   2.3 | 42.12
Comm    | 0.75623    | 0.84873    | 0.94124    |  10.0 |  2.15
Output  | 8.6069e-05 | 0.00011551 | 0.00014496 |   0.0 |  0.00
Modify  | 0.37447    | 0.38764    | 0.4008     |   2.1 |  0.98
Other   |            | 0.1096     |            |       |  0.28

Nlocal:    9826 ave 9837 max 9815 min
Histogram: 1 0 0 0 0 0 0 0 0 1
Nghost:    12185 ave 12186 max 12184 min
Histogram: 1 0 0 0 0 0 0 0 0 1
Neighs:    653871 ave 660694 max 647048 min
Histogram: 1 0 0 0 0 0 0 0 0 1

Total # of neighbors = 1307742
Ave neighs/atom = 66.545
Neighbor list builds = 495
Dangerous builds not checked
Setting up Verlet run ...
  Unit style    : metal
  Current step  : 340495
  Time step     : 0.001
Per MPI rank memory allocation (min/avg/max) = 11.35 | 11.35 | 11.35 Mbytes
Step Temp Press TotEng PotEng Enthalpy 
  340495    1665.3412   -607.65191   -79080.029   -83310.148   -79223.327 
  360000    1643.1307    -873.4857   -79127.401   -83301.103    -79333.57 
Loop time of 1666.01 on 2 procs for 19505 steps with 19652 atoms

Performance: 1.012 ns/day, 23.726 hours/ns, 11.708 timesteps/s
99.6% CPU use with 2 MPI tasks x no OpenMP threads

MPI task timing breakdown:
Section |  min time  |  avg time  |  max time  |%varavg| %total
---------------------------------------------------------------
Pair    | 909.31     | 909.41     | 909.51     |   0.3 | 54.59
Neigh   | 683.61     | 689.52     | 695.43     |  22.5 | 41.39
Comm    | 41.229     | 47.115     | 53.001     |  85.8 |  2.83
Output  | 0.054665   | 0.054684   | 0.054703   |   0.0 |  0.00
Modify  | 15.395     | 15.516     | 15.638     |   3.1 |  0.93
Other   |            | 4.395      |            |       |  0.26

Nlocal:    9826 ave 9829 max 9823 min
Histogram: 1 0 0 0 0 0 0 0 0 1
Nghost:    12280.5 ave 12294 max 12267 min
Histogram: 1 0 0 0 0 0 0 0 0 1
Neighs:    653168 ave 659818 max 646517 min
Histogram: 1 0 0 0 0 0 0 0 0 1

Total # of neighbors = 1306335
Ave neighs/atom = 66.4734
Neighbor list builds = 19505
Dangerous builds not checked
Setting up Verlet run ...
  Unit style    : metal
  Current step  : 360000
  Time step     : 0.001
Per MPI rank memory allocation (min/avg/max) = 11.35 | 11.35 | 11.35 Mbytes
Step Temp Press TotEng PotEng Enthalpy 
  360000    1643.1307    -873.4857   -79127.401   -83301.103    -79333.57 
  360495    1606.5577    100.37219   -79286.844   -83367.647   -79263.229 
Loop time of 40.6871 on 2 procs for 495 steps with 19652 atoms

Performance: 1.051 ns/day, 22.832 hours/ns, 12.166 timesteps/s
100.0% CPU use with 2 MPI tasks x no OpenMP threads

MPI task timing breakdown:
Section |  min time  |  avg time  |  max time  |%varavg| %total
---------------------------------------------------------------
Pair    | 21.709     | 21.853     | 21.998     |   3.1 | 53.71
Neigh   | 17.168     | 17.232     | 17.295     |   1.5 | 42.35
Comm    | 1.0167     | 1.1067     | 1.1967     |   8.6 |  2.72
Output  | 7.6056e-05 | 0.00010502 | 0.00013399 |   0.0 |  0.00
Modify  | 0.37573    | 0.38324    | 0.39074    |   1.2 |  0.94
Other   |            | 0.1119     |            |       |  0.27

Nlocal:    9826 ave 9848 max 9804 min
Histogram: 1 0 0 0 0 0 0 0 0 1
Nghost:    12224 ave 12241 max 12207 min
Histogram: 1 0 0 0 0 0 0 0 0 1
Neighs:    655123 ave 657596 max 652650 min
Histogram: 1 0 0 0 0 0 0 0 0 1

Total # of neighbors = 1310246
Ave neighs/atom = 66.6724
Neighbor list builds = 495
Dangerous builds not checked
Setting up Verlet run ...
  Unit style    : metal
  Current step  : 360495
  Time step     : 0.001
Per MPI rank memory allocation (min/avg/max) = 11.35 | 11.35 | 11.35 Mbytes
Step Temp Press TotEng PotEng Enthalpy 
  360495    1606.5577    100.37219   -79286.844   -83367.647   -79263.229 
  380000     1597.722    121.68361   -79359.982   -83418.341   -79331.374 
Loop time of 1778.41 on 2 procs for 19505 steps with 19652 atoms

Performance: 0.948 ns/day, 25.327 hours/ns, 10.968 timesteps/s
99.4% CPU use with 2 MPI tasks x no OpenMP threads

MPI task timing breakdown:
Section |  min time  |  avg time  |  max time  |%varavg| %total
---------------------------------------------------------------
Pair    | 963.48     | 965.57     | 967.67     |   6.7 | 54.29
Neigh   | 726.22     | 733.12     | 740.02     |  25.5 | 41.22
Comm    | 49.119     | 58.23      | 67.341     | 119.4 |  3.27
Output  | 0.050677   | 0.050697   | 0.050717   |   0.0 |  0.00
Modify  | 16.784     | 16.893     | 17.003     |   2.7 |  0.95
Other   |            | 4.542      |            |       |  0.26

Nlocal:    9826 ave 9851 max 9801 min
Histogram: 1 0 0 0 0 0 0 0 0 1
Nghost:    12225 ave 12254 max 12196 min
Histogram: 1 0 0 0 0 0 0 0 0 1
Neighs:    655561 ave 658525 max 652597 min
Histogram: 1 0 0 0 0 0 0 0 0 1

Total # of neighbors = 1311122
Ave neighs/atom = 66.717
Neighbor list builds = 19505
Dangerous builds not checked
Setting up Verlet run ...
  Unit style    : metal
  Current step  : 380000
  Time step     : 0.001
Per MPI rank memory allocation (min/avg/max) = 11.35 | 11.35 | 11.35 Mbytes
Step Temp Press TotEng PotEng Enthalpy 
  380000     1597.722    121.68361   -79359.982   -83418.341   -79331.374 
  380495     1561.482   -519.39526   -79537.124   -83503.431   -79659.185 
Loop time of 41.228 on 2 procs for 495 steps with 19652 atoms

Performance: 1.037 ns/day, 23.136 hours/ns, 12.006 timesteps/s
99.8% CPU use with 2 MPI tasks x no OpenMP threads

MPI task timing breakdown:
Section |  min time  |  avg time  |  max time  |%varavg| %total
---------------------------------------------------------------
Pair    | 22.047     | 22.047     | 22.048     |   0.0 | 53.48
Neigh   | 15.403     | 16.699     | 17.995     |  31.7 | 40.50
Comm    | 0.66386    | 1.9846     | 3.3052     |  93.7 |  4.81
Output  | 6.6996e-05 | 9.4533e-05 | 0.00012207 |   0.0 |  0.00
Modify  | 0.36148    | 0.38428    | 0.40708    |   3.7 |  0.93
Other   |            | 0.1126     |            |       |  0.27

Nlocal:    9826 ave 9842 max 9810 min
Histogram: 1 0 0 0 0 0 0 0 0 1
Nghost:    12251.5 ave 12270 max 12233 min
Histogram: 1 0 0 0 0 0 0 0 0 1
Neighs:    655856 ave 657733 max 653980 min
Histogram: 1 0 0 0 0 0 0 0 0 1

Total # of neighbors = 1311713
Ave neighs/atom = 66.747
Neighbor list builds = 495
Dangerous builds not checked
Setting up Verlet run ...
  Unit style    : metal
  Current step  : 380495
  Time step     : 0.001
Per MPI rank memory allocation (min/avg/max) = 11.35 | 11.35 | 11.35 Mbytes
Step Temp Press TotEng PotEng Enthalpy 
  380495     1561.482   -519.39526   -79537.124   -83503.431   -79659.185 
  400000    1557.1837     1302.253   -79587.456   -83542.844   -79282.305 
Loop time of 1757.65 on 2 procs for 19505 steps with 19652 atoms

Performance: 0.959 ns/day, 25.031 hours/ns, 11.097 timesteps/s
99.4% CPU use with 2 MPI tasks x no OpenMP threads

MPI task timing breakdown:
Section |  min time  |  avg time  |  max time  |%varavg| %total
---------------------------------------------------------------
Pair    | 942.18     | 946.02     | 949.85     |  12.5 | 53.82
Neigh   | 721        | 730.4      | 739.79     |  34.7 | 41.56
Comm    | 55.082     | 60.771     | 66.461     |  73.0 |  3.46
Output  | 0.069916   | 0.069925   | 0.069934   |   0.0 |  0.00
Modify  | 15.785     | 15.938     | 16.092     |   3.9 |  0.91
Other   |            | 4.459      |            |       |  0.25

Nlocal:    9826 ave 9845 max 9807 min
Histogram: 1 0 0 0 0 0 0 0 0 1
Nghost:    12222.5 ave 12235 max 12210 min
Histogram: 1 0 0 0 0 0 0 0 0 1
Neighs:    657853 ave 660154 max 655552 min
Histogram: 1 0 0 0 0 0 0 0 0 1

Total # of neighbors = 1315706
Ave neighs/atom = 66.9502
Neighbor list builds = 19505
Dangerous builds not checked
Setting up Verlet run ...
  Unit style    : metal
  Current step  : 400000
  Time step     : 0.001
Per MPI rank memory allocation (min/avg/max) = 11.35 | 11.35 | 11.35 Mbytes
Step Temp Press TotEng PotEng Enthalpy 
  400000    1557.1837     1302.253   -79587.456   -83542.844   -79282.305 
  400495    1522.8822    1286.8294   -79772.116   -83640.375   -79471.173 
Loop time of 31.9923 on 2 procs for 495 steps with 19652 atoms

Performance: 1.337 ns/day, 17.953 hours/ns, 15.472 timesteps/s
99.6% CPU use with 2 MPI tasks x no OpenMP threads

MPI task timing breakdown:
Section |  min time  |  avg time  |  max time  |%varavg| %total
---------------------------------------------------------------
Pair    | 16.638     | 16.688     | 16.739     |   1.2 | 52.16
Neigh   | 13.8       | 14.007     | 14.213     |   5.5 | 43.78
Comm    | 0.74952    | 0.90933    | 1.0691     |  16.8 |  2.84
Output  | 5.6028e-05 | 8.2493e-05 | 0.00010896 |   0.0 |  0.00
Modify  | 0.29609    | 0.29938    | 0.30266    |   0.6 |  0.94
Other   |            | 0.08823    |            |       |  0.28

Nlocal:    9826 ave 9834 max 9818 min
Histogram: 1 0 0 0 0 0 0 0 0 1
Nghost:    12260.5 ave 12283 max 12238 min
Histogram: 1 0 0 0 0 0 0 0 0 1
Neighs:    658903 ave 659383 max 658423 min
Histogram: 1 0 0 0 0 0 0 0 0 1

Total # of neighbors = 1317806
Ave neighs/atom = 67.0571
Neighbor list builds = 495
Dangerous builds not checked
Setting up Verlet run ...
  Unit style    : metal
  Current step  : 400495
  Time step     : 0.001
Per MPI rank memory allocation (min/avg/max) = 11.35 | 11.35 | 11.35 Mbytes
Step Temp Press TotEng PotEng Enthalpy 
  400495    1522.8822    1286.8294   -79772.116   -83640.375   -79471.173 
  420000    1497.6094   -300.39368    -79835.85   -83639.914   -79906.264 
Loop time of 1782.59 on 2 procs for 19505 steps with 19652 atoms

Performance: 0.945 ns/day, 25.386 hours/ns, 10.942 timesteps/s
95.1% CPU use with 2 MPI tasks x no OpenMP threads

MPI task timing breakdown:
Section |  min time  |  avg time  |  max time  |%varavg| %total
---------------------------------------------------------------
Pair    | 916.89     | 919.2      | 921.5      |   7.6 | 51.57
Neigh   | 686.32     | 686.61     | 686.9      |   1.1 | 38.52
Comm    | 146.34     | 148.78     | 151.22     |  20.0 |  8.35
Output  | 0.17496    | 0.17497    | 0.17499    |   0.0 |  0.01
Modify  | 23.518     | 23.691     | 23.864     |   3.6 |  1.33
Other   |            | 4.131      |            |       |  0.23

Nlocal:    9826 ave 9831 max 9821 min
Histogram: 1 0 0 0 0 0 0 0 0 1
Nghost:    12271.5 ave 12276 max 12267 min
Histogram: 1 0 0 0 0 0 0 0 0 1
Neighs:    657686 ave 657988 max 657385 min
Histogram: 1 0 0 0 0 0 0 0 0 1

Total # of neighbors = 1315373
Ave neighs/atom = 66.9333
Neighbor list builds = 19505
Dangerous builds not checked
Setting up Verlet run ...
  Unit style    : metal
  Current step  : 420000
  Time step     : 0.001
Per MPI rank memory allocation (min/avg/max) = 11.35 | 11.35 | 11.35 Mbytes
Step Temp Press TotEng PotEng Enthalpy 
  420000    1497.6094   -300.39368    -79835.85   -83639.914   -79906.264 
  420495    1457.0729   -914.94901   -80042.173   -83743.271   -80256.772 
Loop time of 43.9748 on 2 procs for 495 steps with 19652 atoms

Performance: 0.973 ns/day, 24.677 hours/ns, 11.256 timesteps/s
94.0% CPU use with 2 MPI tasks x no OpenMP threads

MPI task timing breakdown:
Section |  min time  |  avg time  |  max time  |%varavg| %total
---------------------------------------------------------------
Pair    | 22.407     | 22.438     | 22.469     |   0.7 | 51.02
Neigh   | 14.499     | 15.882     | 17.266     |  34.7 | 36.12
Comm    | 3.6969     | 5.1337     | 6.5704     |  63.4 | 11.67
Output  | 7.0095e-05 | 9.4533e-05 | 0.00011897 |   0.0 |  0.00
Modify  | 0.33609    | 0.4198     | 0.50351    |  12.9 |  0.95
Other   |            | 0.1009     |            |       |  0.23

Nlocal:    9826 ave 9833 max 9819 min
Histogram: 1 0 0 0 0 0 0 0 0 1
Nghost:    12257 ave 12271 max 12243 min
Histogram: 1 0 0 0 0 0 0 0 0 1
Neighs:    657220 ave 657841 max 656600 min
Histogram: 1 0 0 0 0 0 0 0 0 1

Total # of neighbors = 1314441
Ave neighs/atom = 66.8859
Neighbor list builds = 495
Dangerous builds not checked
Setting up Verlet run ...
  Unit style    : metal
  Current step  : 420495
  Time step     : 0.001
Per MPI rank memory allocation (min/avg/max) = 11.35 | 11.35 | 11.35 Mbytes
Step Temp Press TotEng PotEng Enthalpy 
  420495    1457.0729   -914.94901   -80042.173   -83743.271   -80256.772 
  440000     1455.915   -989.43037   -80098.992   -83797.149   -80330.924 
Loop time of 1851.84 on 2 procs for 19505 steps with 19652 atoms

Performance: 0.910 ns/day, 26.373 hours/ns, 10.533 timesteps/s
93.2% CPU use with 2 MPI tasks x no OpenMP threads

MPI task timing breakdown:
Section |  min time  |  avg time  |  max time  |%varavg| %total
---------------------------------------------------------------
Pair    | 954.29     | 957.57     | 960.84     |  10.6 | 51.71
Neigh   | 688.16     | 691.37     | 694.57     |  12.2 | 37.33
Comm    | 169.56     | 171.33     | 173.09     |  13.5 |  9.25
Output  | 0.099302   | 0.099321   | 0.099339   |   0.0 |  0.01
Modify  | 25.637     | 27.408     | 29.179     |  33.8 |  1.48
Other   |            | 4.072      |            |       |  0.22

Nlocal:    9826 ave 9827 max 9825 min
Histogram: 1 0 0 0 0 0 0 0 0 1
Nghost:    12276 ave 12302 max 12250 min
Histogram: 1 0 0 0 0 0 0 0 0 1
Neighs:    657450 ave 658400 max 656499 min
Histogram: 1 0 0 0 0 0 0 0 0 1

Total # of neighbors = 1314899
Ave neighs/atom = 66.9092
Neighbor list builds = 19505
Dangerous builds not checked
Setting up Verlet run ...
  Unit style    : metal
  Current step  : 440000
  Time step     : 0.001
Per MPI rank memory allocation (min/avg/max) = 11.35 | 11.35 | 11.35 Mbytes
Step Temp Press TotEng PotEng Enthalpy 
  440000     1455.915   -989.43037   -80098.992   -83797.149   -80330.924 
  440495    1403.5762   -728.63106   -80314.963   -83880.175   -80485.367 
Loop time of 43.3852 on 2 procs for 495 steps with 19652 atoms

Performance: 0.986 ns/day, 24.346 hours/ns, 11.409 timesteps/s
95.3% CPU use with 2 MPI tasks x no OpenMP threads

MPI task timing breakdown:
Section |  min time  |  avg time  |  max time  |%varavg| %total
---------------------------------------------------------------
Pair    | 21.827     | 21.908     | 21.989     |   1.7 | 50.50
Neigh   | 16.469     | 16.864     | 17.259     |   9.6 | 38.87
Comm    | 3.8035     | 4.1273     | 4.451      |  15.9 |  9.51
Output  | 7.6056e-05 | 0.00011253 | 0.00014901 |   0.0 |  0.00
Modify  | 0.37723    | 0.38483    | 0.39242    |   1.2 |  0.89
Other   |            | 0.1013     |            |       |  0.23

Nlocal:    9826 ave 9834 max 9818 min
Histogram: 1 0 0 0 0 0 0 0 0 1
Nghost:    12268 ave 12272 max 12264 min
Histogram: 1 0 0 0 0 0 0 0 0 1
Neighs:    659277 ave 660360 max 658194 min
Histogram: 1 0 0 0 0 0 0 0 0 1

Total # of neighbors = 1318554
Ave neighs/atom = 67.0952
Neighbor list builds = 495
Dangerous builds not checked
Setting up Verlet run ...
  Unit style    : metal
  Current step  : 440495
  Time step     : 0.001
Per MPI rank memory allocation (min/avg/max) = 11.35 | 11.35 | 11.35 Mbytes
Step Temp Press TotEng PotEng Enthalpy 
  440495    1403.5762   -728.63106   -80314.963   -83880.175   -80485.367 
  460000    1406.6152    320.55305   -80359.693   -83932.624   -80284.903 
Loop time of 1852.6 on 2 procs for 19505 steps with 19652 atoms

Performance: 0.910 ns/day, 26.384 hours/ns, 10.528 timesteps/s
92.9% CPU use with 2 MPI tasks x no OpenMP threads

MPI task timing breakdown:
Section |  min time  |  avg time  |  max time  |%varavg| %total
---------------------------------------------------------------
Pair    | 970.71     | 972.62     | 974.52     |   6.1 | 52.50
Neigh   | 677.52     | 682.12     | 686.73     |  17.6 | 36.82
Comm    | 160.54     | 163.41     | 166.28     |  22.4 |  8.82
Output  | 0.69193    | 0.69195    | 0.69197    |   0.0 |  0.04
Modify  | 29.573     | 29.724     | 29.875     |   2.8 |  1.60
Other   |            | 4.035      |            |       |  0.22

Nlocal:    9826 ave 9830 max 9822 min
Histogram: 1 0 0 0 0 0 0 0 0 1
Nghost:    12241.5 ave 12260 max 12223 min
Histogram: 1 0 0 0 0 0 0 0 0 1
Neighs:    660636 ave 661021 max 660251 min
Histogram: 1 0 0 0 0 0 0 0 0 1

Total # of neighbors = 1321272
Ave neighs/atom = 67.2335
Neighbor list builds = 19505
Dangerous builds not checked
Setting up Verlet run ...
  Unit style    : metal
  Current step  : 460000
  Time step     : 0.001
Per MPI rank memory allocation (min/avg/max) = 11.35 | 11.35 | 11.35 Mbytes
Step Temp Press TotEng PotEng Enthalpy 
  460000    1406.6152    320.55305   -80359.693   -83932.624   -80284.903 
  460495     1363.276   -798.84787   -80571.698   -84034.544   -80758.267 
Loop time of 46.7331 on 2 procs for 495 steps with 19652 atoms

Performance: 0.915 ns/day, 26.225 hours/ns, 10.592 timesteps/s
91.6% CPU use with 2 MPI tasks x no OpenMP threads

MPI task timing breakdown:
Section |  min time  |  avg time  |  max time  |%varavg| %total
---------------------------------------------------------------
Pair    | 23.317     | 23.362     | 23.406     |   0.9 | 49.99
Neigh   | 17.186     | 17.28      | 17.373     |   2.2 | 36.97
Comm    | 5.3731     | 5.4246     | 5.476      |   2.2 | 11.61
Output  | 7.391e-05  | 9.4414e-05 | 0.00011492 |   0.0 |  0.00
Modify  | 0.55236    | 0.55414    | 0.55593    |   0.2 |  1.19
Other   |            | 0.113      |            |       |  0.24

Nlocal:    9826 ave 9837 max 9815 min
Histogram: 1 0 0 0 0 0 0 0 0 1
Nghost:    12290.5 ave 12293 max 12288 min
Histogram: 1 0 0 0 0 0 0 0 0 1
Neighs:    659841 ave 660706 max 658976 min
Histogram: 1 0 0 0 0 0 0 0 0 1

Total # of neighbors = 1319682
Ave neighs/atom = 67.1526
Neighbor list builds = 495
Dangerous builds not checked
Setting up Verlet run ...
  Unit style    : metal
  Current step  : 460495
  Time step     : 0.001
Per MPI rank memory allocation (min/avg/max) = 11.35 | 11.35 | 11.35 Mbytes
Step Temp Press TotEng PotEng Enthalpy 
  460495     1363.276   -798.84787   -80571.698   -84034.544   -80758.267 
  480000    1351.4747    488.02125   -80609.078   -84041.947   -80495.377 
Loop time of 1808.7 on 2 procs for 19505 steps with 19652 atoms

Performance: 0.932 ns/day, 25.758 hours/ns, 10.784 timesteps/s
91.9% CPU use with 2 MPI tasks x no OpenMP threads

MPI task timing breakdown:
Section |  min time  |  avg time  |  max time  |%varavg| %total
---------------------------------------------------------------
Pair    | 923.12     | 925        | 926.87     |   6.2 | 51.14
Neigh   | 644.49     | 652.69     | 660.9      |  32.1 | 36.09
Comm    | 193.44     | 200.54     | 207.64     |  50.1 | 11.09
Output  | 0.043829   | 0.043839   | 0.043848   |   0.0 |  0.00
Modify  | 25.61      | 26.366     | 27.123     |  14.7 |  1.46
Other   |            | 4.059      |            |       |  0.22

Nlocal:    9826 ave 9830 max 9822 min
Histogram: 1 0 0 0 0 0 0 0 0 1
Nghost:    12303 ave 12308 max 12298 min
Histogram: 1 0 0 0 0 0 0 0 0 1
Neighs:    661744 ave 661904 max 661584 min
Histogram: 1 0 0 0 0 0 0 0 0 1

Total # of neighbors = 1323488
Ave neighs/atom = 67.3462
Neighbor list builds = 19505
Dangerous builds not checked
Setting up Verlet run ...
  Unit style    : metal
  Current step  : 480000
  Time step     : 0.001
Per MPI rank memory allocation (min/avg/max) = 11.35 | 11.35 | 11.35 Mbytes
Step Temp Press TotEng PotEng Enthalpy 
  480000    1351.4747    488.02125   -80609.078   -84041.947   -80495.377 
  480495    1316.4046   -148.67819   -80807.397   -84151.184   -80842.012 
Loop time of 35.9027 on 2 procs for 495 steps with 19652 atoms

Performance: 1.191 ns/day, 20.147 hours/ns, 13.787 timesteps/s
99.3% CPU use with 2 MPI tasks x no OpenMP threads

MPI task timing breakdown:
Section |  min time  |  avg time  |  max time  |%varavg| %total
---------------------------------------------------------------
Pair    | 18.891     | 19.041     | 19.191     |   3.4 | 53.04
Neigh   | 14.47      | 15.113     | 15.756     |  16.5 | 42.09
Comm    | 0.80216    | 1.3109     | 1.8197     |  44.4 |  3.65
Output  | 8.297e-05  | 0.00010002 | 0.00011706 |   0.0 |  0.00
Modify  | 0.32448    | 0.33678    | 0.34908    |   2.1 |  0.94
Other   |            | 0.1004     |            |       |  0.28

Nlocal:    9826 ave 9842 max 9810 min
Histogram: 1 0 0 0 0 0 0 0 0 1
Nghost:    12284.5 ave 12288 max 12281 min
Histogram: 1 0 0 0 0 0 0 0 0 1
Neighs:    662336 ave 664066 max 660607 min
Histogram: 1 0 0 0 0 0 0 0 0 1

Total # of neighbors = 1324673
Ave neighs/atom = 67.4065
Neighbor list builds = 495
Dangerous builds not checked
Setting up Verlet run ...
  Unit style    : metal
  Current step  : 480495
  Time step     : 0.001
Per MPI rank memory allocation (min/avg/max) = 11.35 | 11.35 | 11.35 Mbytes
Step Temp Press TotEng PotEng Enthalpy 
  480495    1316.4046   -148.67819   -80807.397   -84151.184   -80842.012 
  500000     1301.161    158.15155   -80927.159   -84232.227   -80890.425 
Loop time of 1669.56 on 2 procs for 19505 steps with 19652 atoms

Performance: 1.009 ns/day, 23.777 hours/ns, 11.683 timesteps/s
94.9% CPU use with 2 MPI tasks x no OpenMP threads

MPI task timing breakdown:
Section |  min time  |  avg time  |  max time  |%varavg| %total
---------------------------------------------------------------
Pair    | 863.64     | 865        | 866.36     |   4.6 | 51.81
Neigh   | 622.33     | 629.2      | 636.06     |  27.4 | 37.69
Comm    | 146.36     | 150.73     | 155.09     |  35.5 |  9.03
Output  | 0.056919   | 0.056942   | 0.056965   |   0.0 |  0.00
Modify  | 19.488     | 20.597     | 21.706     |  24.4 |  1.23
Other   |            | 3.987      |            |       |  0.24

Nlocal:    9826 ave 9847 max 9805 min
Histogram: 1 0 0 0 0 0 0 0 0 1
Nghost:    12258.5 ave 12283 max 12234 min
Histogram: 1 0 0 0 0 0 0 0 0 1
Neighs:    663899 ave 665960 max 661838 min
Histogram: 1 0 0 0 0 0 0 0 0 1

Total # of neighbors = 1327798
Ave neighs/atom = 67.5655
Neighbor list builds = 19505
Dangerous builds not checked
Setting up Verlet run ...
  Unit style    : metal
  Current step  : 500000
  Time step     : 0.001
Per MPI rank memory allocation (min/avg/max) = 11.35 | 11.35 | 11.35 Mbytes
Step Temp Press TotEng PotEng Enthalpy 
  500000     1301.161    158.15155   -80927.159   -84232.227   -80890.425 
  500495    1264.1026    946.06985   -81086.147   -84297.083   -80866.876 
Loop time of 39.6948 on 2 procs for 495 steps with 19652 atoms

Performance: 1.077 ns/day, 22.275 hours/ns, 12.470 timesteps/s
96.8% CPU use with 2 MPI tasks x no OpenMP threads

MPI task timing breakdown:
Section |  min time  |  avg time  |  max time  |%varavg| %total
---------------------------------------------------------------
Pair    | 20.308     | 20.33      | 20.351     |   0.5 | 51.22
Neigh   | 15.561     | 15.585     | 15.608     |   0.6 | 39.26
Comm    | 2.8291     | 2.9436     | 3.0581     |   6.7 |  7.42
Output  | 7.2956e-05 | 0.00010836 | 0.00014377 |   0.0 |  0.00
Modify  | 0.58177    | 0.74245    | 0.90313    |  18.6 |  1.87
Other   |            | 0.09419    |            |       |  0.24

Nlocal:    9826 ave 9829 max 9823 min
Histogram: 1 0 0 0 0 0 0 0 0 1
Nghost:    12332 ave 12338 max 12326 min
Histogram: 1 0 0 0 0 0 0 0 0 1
Neighs:    665273 ave 665410 max 665136 min
Histogram: 1 0 0 0 0 0 0 0 0 1

Total # of neighbors = 1330546
Ave neighs/atom = 67.7054
Neighbor list builds = 495
Dangerous builds not checked
Setting up Verlet run ...
  Unit style    : metal
  Current step  : 500495
  Time step     : 0.001
Per MPI rank memory allocation (min/avg/max) = 11.35 | 11.35 | 11.35 Mbytes
Step Temp Press TotEng PotEng Enthalpy 
  500495    1264.1026    946.06985   -81086.147   -84297.083   -80866.876 
  520000     1246.392    -1045.298   -81179.525   -84345.475   -81422.773 
Loop time of 1749.39 on 2 procs for 19505 steps with 19652 atoms

Performance: 0.963 ns/day, 24.914 hours/ns, 11.150 timesteps/s
94.7% CPU use with 2 MPI tasks x no OpenMP threads

MPI task timing breakdown:
Section |  min time  |  avg time  |  max time  |%varavg| %total
---------------------------------------------------------------
Pair    | 907.69     | 908.57     | 909.44     |   2.9 | 51.94
Neigh   | 648.01     | 652.49     | 656.96     |  17.5 | 37.30
Comm    | 153.75     | 156.67     | 159.58     |  23.3 |  8.96
Output  | 0.11101    | 0.11102    | 0.11103    |   0.0 |  0.01
Modify  | 26.742     | 27.384     | 28.026     |  12.3 |  1.57
Other   |            | 4.175      |            |       |  0.24

Nlocal:    9826 ave 9845 max 9807 min
Histogram: 1 0 0 0 0 0 0 0 0 1
Nghost:    12278 ave 12283 max 12273 min
Histogram: 1 0 0 0 0 0 0 0 0 1
Neighs:    662699 ave 664960 max 660438 min
Histogram: 1 0 0 0 0 0 0 0 0 1

Total # of neighbors = 1325398
Ave neighs/atom = 67.4434
Neighbor list builds = 19505
Dangerous builds not checked
Setting up Verlet run ...
  Unit style    : metal
  Current step  : 520000
  Time step     : 0.001
Per MPI rank memory allocation (min/avg/max) = 11.35 | 11.35 | 11.35 Mbytes
Step Temp Press TotEng PotEng Enthalpy 
  520000     1246.392    -1045.298   -81179.525   -84345.475   -81422.773 
  520495    1204.6585   -228.07326   -81371.161   -84431.104   -81424.138 
Loop time of 36.0517 on 2 procs for 495 steps with 19652 atoms

Performance: 1.186 ns/day, 20.231 hours/ns, 13.730 timesteps/s
98.3% CPU use with 2 MPI tasks x no OpenMP threads

MPI task timing breakdown:
Section |  min time  |  avg time  |  max time  |%varavg| %total
---------------------------------------------------------------
Pair    | 18.697     | 18.89      | 19.083     |   4.4 | 52.40
Neigh   | 14.689     | 15.054     | 15.418     |   9.4 | 41.76
Comm    | 1.4752     | 1.6545     | 1.8338     |  13.9 |  4.59
Output  | 6.0081e-05 | 7.3075e-05 | 8.6069e-05 |   0.0 |  0.00
Modify  | 0.3383     | 0.34471    | 0.35112    |   1.1 |  0.96
Other   |            | 0.1085     |            |       |  0.30

Nlocal:    9826 ave 9845 max 9807 min
Histogram: 1 0 0 0 0 0 0 0 0 1
Nghost:    12237.5 ave 12241 max 12234 min
Histogram: 1 0 0 0 0 0 0 0 0 1
Neighs:    663556 ave 665699 max 661413 min
Histogram: 1 0 0 0 0 0 0 0 0 1

Total # of neighbors = 1327112
Ave neighs/atom = 67.5306
Neighbor list builds = 495
Dangerous builds not checked
Setting up Verlet run ...
  Unit style    : metal
  Current step  : 520495
  Time step     : 0.001
Per MPI rank memory allocation (min/avg/max) = 11.35 | 11.35 | 11.35 Mbytes
Step Temp Press TotEng PotEng Enthalpy 
  520495    1204.6585   -228.07326   -81371.161   -84431.104   -81424.138 
  540000    1202.6405   -377.95315   -81420.507   -84475.324   -81508.262 
Loop time of 1741.88 on 2 procs for 19505 steps with 19652 atoms

Performance: 0.967 ns/day, 24.807 hours/ns, 11.198 timesteps/s
93.7% CPU use with 2 MPI tasks x no OpenMP threads

MPI task timing breakdown:
Section |  min time  |  avg time  |  max time  |%varavg| %total
---------------------------------------------------------------
Pair    | 905.34     | 905.56     | 905.78     |   0.7 | 51.99
Neigh   | 650.9      | 652.53     | 654.16     |   6.4 | 37.46
Comm    | 156.09     | 156.81     | 157.53     |   5.8 |  9.00
Output  | 0.15979    | 0.27407    | 0.38835    |  21.8 |  0.02
Modify  | 21.619     | 22.328     | 23.038     |  15.0 |  1.28
Other   |            | 4.376      |            |       |  0.25

Nlocal:    9826 ave 9837 max 9815 min
Histogram: 1 0 0 0 0 0 0 0 0 1
Nghost:    12310 ave 12333 max 12287 min
Histogram: 1 0 0 0 0 0 0 0 0 1
Neighs:    663905 ave 664793 max 663017 min
Histogram: 1 0 0 0 0 0 0 0 0 1

Total # of neighbors = 1327810
Ave neighs/atom = 67.5662
Neighbor list builds = 19505
Dangerous builds not checked
Setting up Verlet run ...
  Unit style    : metal
  Current step  : 540000
  Time step     : 0.001
Per MPI rank memory allocation (min/avg/max) = 11.35 | 11.35 | 11.35 Mbytes
Step Temp Press TotEng PotEng Enthalpy 
  540000    1202.6405   -377.95315   -81420.507   -84475.324   -81508.262 
  540495    1161.0882   -184.55687   -81641.448   -84590.717   -81684.232 
Loop time of 51.7601 on 2 procs for 495 steps with 19652 atoms

Performance: 0.826 ns/day, 29.046 hours/ns, 9.563 timesteps/s
84.6% CPU use with 2 MPI tasks x no OpenMP threads

MPI task timing breakdown:
Section |  min time  |  avg time  |  max time  |%varavg| %total
---------------------------------------------------------------
Pair    | 22.323     | 22.349     | 22.375     |   0.5 | 43.18
Neigh   | 15.152     | 15.21      | 15.268     |   1.5 | 29.38
Comm    | 11.074     | 11.105     | 11.137     |   0.9 | 21.46
Output  | 7.5102e-05 | 8.7976e-05 | 0.00010085 |   0.0 |  0.00
Modify  | 3.0044     | 3.0051     | 3.0059     |   0.0 |  5.81
Other   |            | 0.09037    |            |       |  0.17

Nlocal:    9826 ave 9833 max 9819 min
Histogram: 1 0 0 0 0 0 0 0 0 1
Nghost:    12300 ave 12303 max 12297 min
Histogram: 1 0 0 0 0 0 0 0 0 1
Neighs:    665053 ave 665567 max 664539 min
Histogram: 1 0 0 0 0 0 0 0 0 1

Total # of neighbors = 1330106
Ave neighs/atom = 67.683
Neighbor list builds = 495
Dangerous builds not checked
Setting up Verlet run ...
  Unit style    : metal
  Current step  : 540495
  Time step     : 0.001
Per MPI rank memory allocation (min/avg/max) = 11.35 | 11.35 | 11.35 Mbytes
Step Temp Press TotEng PotEng Enthalpy 
  540495    1161.0882   -184.55687   -81641.448   -84590.717   -81684.232 
  560000    1153.9204   -778.15478   -81718.449   -84649.512   -81899.094 
Loop time of 1992.33 on 2 procs for 19505 steps with 19652 atoms

Performance: 0.846 ns/day, 28.373 hours/ns, 9.790 timesteps/s
92.8% CPU use with 2 MPI tasks x no OpenMP threads

MPI task timing breakdown:
Section |  min time  |  avg time  |  max time  |%varavg| %total
---------------------------------------------------------------
Pair    | 1051.6     | 1051.7     | 1051.8     |   0.3 | 52.79
Neigh   | 658.95     | 676.34     | 693.73     |  66.9 | 33.95
Comm    | 218.41     | 234.11     | 249.8      | 102.6 | 11.75
Output  | 0.047144   | 0.047173   | 0.047202   |   0.0 |  0.00
Modify  | 23.558     | 25.132     | 26.706     |  31.4 |  1.26
Other   |            | 4.988      |            |       |  0.25

Nlocal:    9826 ave 9831 max 9821 min
Histogram: 1 0 0 0 0 0 0 0 0 1
Nghost:    12293 ave 12297 max 12289 min
Histogram: 1 0 0 0 0 0 0 0 0 1
Neighs:    664316 ave 665079 max 663554 min
Histogram: 1 0 0 0 0 0 0 0 0 1

Total # of neighbors = 1328633
Ave neighs/atom = 67.608
Neighbor list builds = 19505
Dangerous builds not checked
Setting up Verlet run ...
  Unit style    : metal
  Current step  : 560000
  Time step     : 0.001
Per MPI rank memory allocation (min/avg/max) = 11.35 | 11.35 | 11.35 Mbytes
Step Temp Press TotEng PotEng Enthalpy 
[...]
Neighs:    676012 ave 677583 max 674442 min
Histogram: 1 0 0 0 0 0 0 0 0 1

Total # of neighbors = 1352025
Ave neighs/atom = 68.7983
Neighbor list builds = 19505
Dangerous builds not checked
Setting up Verlet run ...
  Unit style    : metal
  Current step  : 840000
  Time step     : 0.001
Per MPI rank memory allocation (min/avg/max) = 11.35 | 11.35 | 11.35 Mbytes
Step Temp Press TotEng PotEng Enthalpy 
  840000    449.61496    345.92257   -86965.691   -88107.754   -86886.744 
  840495     423.2021   -58.143452   -87122.572   -88197.544   -87135.842 
Loop time of 52.8264 on 2 procs for 495 steps with 19652 atoms

Performance: 0.810 ns/day, 29.644 hours/ns, 9.370 timesteps/s
95.3% CPU use with 2 MPI tasks x no OpenMP threads

MPI task timing breakdown:
Section |  min time  |  avg time  |  max time  |%varavg| %total
---------------------------------------------------------------
Pair    | 29.079     | 29.282     | 29.486     |   3.8 | 55.43
Neigh   | 19.596     | 20.079     | 20.561     |  10.8 | 38.01
Comm    | 2.3711     | 2.6761     | 2.981      |  18.6 |  5.07
Output  | 8.893e-05  | 0.00011754 | 0.00014615 |   0.0 |  0.00
Modify  | 0.57866    | 0.60277    | 0.62688    |   3.1 |  1.14
Other   |            | 0.1865     |            |       |  0.35

Nlocal:    9826 ave 9844 max 9808 min
Histogram: 1 0 0 0 0 0 0 0 0 1
Nghost:    12383.5 ave 12387 max 12380 min
Histogram: 1 0 0 0 0 0 0 0 0 1
Neighs:    675868 ave 677579 max 674157 min
Histogram: 1 0 0 0 0 0 0 0 0 1

Total # of neighbors = 1351736
Ave neighs/atom = 68.7836
Neighbor list builds = 495
Dangerous builds not checked
Setting up Verlet run ...
  Unit style    : metal
  Current step  : 840495
  Time step     : 0.001
Per MPI rank memory allocation (min/avg/max) = 11.35 | 11.35 | 11.35 Mbytes
Step Temp Press TotEng PotEng Enthalpy 
  840495     423.2021   -58.143452   -87122.572   -88197.544   -87135.842 
  860000    399.87065   -118.78629   -87347.856   -88363.564   -87374.964 
Loop time of 1952.18 on 2 procs for 19505 steps with 19652 atoms

Performance: 0.863 ns/day, 27.802 hours/ns, 9.991 timesteps/s
97.9% CPU use with 2 MPI tasks x no OpenMP threads

MPI task timing breakdown:
Section |  min time  |  avg time  |  max time  |%varavg| %total
---------------------------------------------------------------
Pair    | 1074.9     | 1078.2     | 1081.6     |  10.2 | 55.23
Neigh   | 748.2      | 750.73     | 753.26     |   9.2 | 38.46
Comm    | 88.168     | 94.149     | 100.13     |  61.6 |  4.82
Output  | 0.058801   | 0.058825   | 0.058849   |   0.0 |  0.00
Modify  | 21.878     | 21.884     | 21.889     |   0.1 |  1.12
Other   |            | 7.113      |            |       |  0.36

Nlocal:    9826 ave 9843 max 9809 min
Histogram: 1 0 0 0 0 0 0 0 0 1
Nghost:    12366.5 ave 12377 max 12356 min
Histogram: 1 0 0 0 0 0 0 0 0 1
Neighs:    676028 ave 677069 max 674987 min
Histogram: 1 0 0 0 0 0 0 0 0 1

Total # of neighbors = 1352056
Ave neighs/atom = 68.7999
Neighbor list builds = 19505
Dangerous builds not checked
Setting up Verlet run ...
  Unit style    : metal
  Current step  : 860000
  Time step     : 0.001
Per MPI rank memory allocation (min/avg/max) = 11.35 | 11.35 | 11.35 Mbytes
Step Temp Press TotEng PotEng Enthalpy 
  860000    399.87065   -118.78629   -87347.856   -88363.564   -87374.964 
  860495    370.83785   -154.01946   -87498.993   -88440.955   -87534.099 
Loop time of 46.831 on 2 procs for 495 steps with 19652 atoms

Performance: 0.913 ns/day, 26.280 hours/ns, 10.570 timesteps/s
98.6% CPU use with 2 MPI tasks x no OpenMP threads

MPI task timing breakdown:
Section |  min time  |  avg time  |  max time  |%varavg| %total
---------------------------------------------------------------
Pair    | 25.673     | 25.783     | 25.894     |   2.2 | 55.06
Neigh   | 18.907     | 19.047     | 19.186     |   3.2 | 40.67
Comm    | 1.2814     | 1.3153     | 1.3492     |   3.0 |  2.81
Output  | 9.203e-05  | 0.0001241  | 0.00015616 |   0.0 |  0.00
Modify  | 0.50018    | 0.50987    | 0.51956    |   1.4 |  1.09
Other   |            | 0.176      |            |       |  0.38

Nlocal:    9826 ave 9846 max 9806 min
Histogram: 1 0 0 0 0 0 0 0 0 1
Nghost:    12364.5 ave 12369 max 12360 min
Histogram: 1 0 0 0 0 0 0 0 0 1
Neighs:    676632 ave 678274 max 674991 min
Histogram: 1 0 0 0 0 0 0 0 0 1

Total # of neighbors = 1353265
Ave neighs/atom = 68.8614
Neighbor list builds = 495
Dangerous builds not checked
Setting up Verlet run ...
  Unit style    : metal
  Current step  : 860495
  Time step     : 0.001
Per MPI rank memory allocation (min/avg/max) = 11.35 | 11.35 | 11.35 Mbytes
Step Temp Press TotEng PotEng Enthalpy 
  860495    370.83785   -154.01946   -87498.993   -88440.955   -87534.099 
  880000    347.92913   -241.45124   -87681.586   -88565.357    -87736.63 
Loop time of 1921.93 on 2 procs for 19505 steps with 19652 atoms

Performance: 0.877 ns/day, 27.371 hours/ns, 10.149 timesteps/s
97.5% CPU use with 2 MPI tasks x no OpenMP threads

MPI task timing breakdown:
Section |  min time  |  avg time  |  max time  |%varavg| %total
---------------------------------------------------------------
Pair    | 1051       | 1055.6     | 1060.2     |  14.1 | 54.93
Neigh   | 736.72     | 746.3      | 755.89     |  35.1 | 38.83
Comm    | 85.974     | 91.01      | 96.047     |  52.8 |  4.74
Output  | 0.062316   | 0.062334   | 0.062351   |   0.0 |  0.00
Modify  | 22.164     | 22.17      | 22.177     |   0.1 |  1.15
Other   |            | 6.755      |            |       |  0.35

Nlocal:    9826 ave 9837 max 9815 min
Histogram: 1 0 0 0 0 0 0 0 0 1
Nghost:    12368.5 ave 12373 max 12364 min
Histogram: 1 0 0 0 0 0 0 0 0 1
Neighs:    676436 ave 676516 max 676357 min
Histogram: 1 0 0 0 0 0 0 0 0 1

Total # of neighbors = 1352873
Ave neighs/atom = 68.8415
Neighbor list builds = 19505
Dangerous builds not checked
Setting up Verlet run ...
  Unit style    : metal
  Current step  : 880000
  Time step     : 0.001
Per MPI rank memory allocation (min/avg/max) = 11.35 | 11.35 | 11.35 Mbytes
Step Temp Press TotEng PotEng Enthalpy 
  880000    347.92913   -241.45124   -87681.586   -88565.357    -87736.63 
  880495    322.44546    88.072094   -87827.402   -88646.442   -87807.358 
Loop time of 46.3752 on 2 procs for 495 steps with 19652 atoms

Performance: 0.922 ns/day, 26.024 hours/ns, 10.674 timesteps/s
97.5% CPU use with 2 MPI tasks x no OpenMP threads

MPI task timing breakdown:
Section |  min time  |  avg time  |  max time  |%varavg| %total
---------------------------------------------------------------
Pair    | 24.904     | 25.229     | 25.553     |   6.5 | 54.40
Neigh   | 17.743     | 18.523     | 19.304     |  18.1 | 39.94
Comm    | 1.4854     | 1.9638     | 2.4423     |  34.1 |  4.23
Output  | 8.2016e-05 | 0.00011897 | 0.00015593 |   0.0 |  0.00
Modify  | 0.49097    | 0.50536    | 0.51975    |   2.0 |  1.09
Other   |            | 0.154      |            |       |  0.33

Nlocal:    9826 ave 9830 max 9822 min
Histogram: 1 0 0 0 0 0 0 0 0 1
Nghost:    12383 ave 12398 max 12368 min
Histogram: 1 0 0 0 0 0 0 0 0 1
Neighs:    677540 ave 677645 max 677436 min
Histogram: 1 0 0 0 0 0 0 0 0 1

Total # of neighbors = 1355081
Ave neighs/atom = 68.9538
Neighbor list builds = 495
Dangerous builds not checked
Setting up Verlet run ...
  Unit style    : metal
  Current step  : 880495
  Time step     : 0.001
Per MPI rank memory allocation (min/avg/max) = 11.35 | 11.35 | 11.35 Mbytes
Step Temp Press TotEng PotEng Enthalpy 
  880495    322.44546    88.072094   -87827.402   -88646.442   -87807.358 
  900000    299.47675    47.200985   -87987.746   -88748.444   -87977.008 
Loop time of 1928.86 on 2 procs for 19505 steps with 19652 atoms

Performance: 0.874 ns/day, 27.470 hours/ns, 10.112 timesteps/s
97.5% CPU use with 2 MPI tasks x no OpenMP threads

MPI task timing breakdown:
Section |  min time  |  avg time  |  max time  |%varavg| %total
---------------------------------------------------------------
Pair    | 1065.1     | 1065.1     | 1065.1     |   0.1 | 55.22
Neigh   | 737.53     | 744.43     | 751.33     |  25.3 | 38.59
Comm    | 83.261     | 90.318     | 97.376     |  74.3 |  4.68
Output  | 0.05871    | 0.058728   | 0.058746   |   0.0 |  0.00
Modify  | 21.988     | 22.125     | 22.261     |   2.9 |  1.15
Other   |            | 6.811      |            |       |  0.35

Nlocal:    9826 ave 9828 max 9824 min
Histogram: 1 0 0 0 0 0 0 0 0 1
Nghost:    12383.5 ave 12387 max 12380 min
Histogram: 1 0 0 0 0 0 0 0 0 1
Neighs:    677941 ave 678221 max 677661 min
Histogram: 1 0 0 0 0 0 0 0 0 1

Total # of neighbors = 1355882
Ave neighs/atom = 68.9946
Neighbor list builds = 19505
Dangerous builds not checked
Setting up Verlet run ...
  Unit style    : metal
  Current step  : 900000
  Time step     : 0.001
Per MPI rank memory allocation (min/avg/max) = 11.35 | 11.35 | 11.35 Mbytes
Step Temp Press TotEng PotEng Enthalpy 
  900000    299.47675    47.200985   -87987.746   -88748.444   -87977.008 
  900495    275.05155     380.8448   -88126.796   -88825.452   -88040.237 
Loop time of 46.2504 on 2 procs for 495 steps with 19652 atoms

Performance: 0.925 ns/day, 25.954 hours/ns, 10.703 timesteps/s
99.7% CPU use with 2 MPI tasks x no OpenMP threads

MPI task timing breakdown:
Section |  min time  |  avg time  |  max time  |%varavg| %total
---------------------------------------------------------------
Pair    | 25.209     | 25.338     | 25.468     |   2.6 | 54.78
Neigh   | 18.126     | 18.302     | 18.477     |   4.1 | 39.57
Comm    | 1.5943     | 1.9005     | 2.2066     |  22.2 |  4.11
Output  | 8.893e-05  | 0.00011241 | 0.0001359  |   0.0 |  0.00
Modify  | 0.53591    | 0.5369     | 0.53789    |   0.1 |  1.16
Other   |            | 0.1731     |            |       |  0.37

Nlocal:    9826 ave 9840 max 9812 min
Histogram: 1 0 0 0 0 0 0 0 0 1
Nghost:    12410.5 ave 12422 max 12399 min
Histogram: 1 0 0 0 0 0 0 0 0 1
Neighs:    678310 ave 679113 max 677507 min
Histogram: 1 0 0 0 0 0 0 0 0 1

Total # of neighbors = 1356620
Ave neighs/atom = 69.0322
Neighbor list builds = 495
Dangerous builds not checked
Setting up Verlet run ...
  Unit style    : metal
  Current step  : 900495
  Time step     : 0.001
Per MPI rank memory allocation (min/avg/max) = 11.35 | 11.35 | 11.35 Mbytes
Step Temp Press TotEng PotEng Enthalpy 
  900495    275.05155     380.8448   -88126.796   -88825.452   -88040.237 
  920000    250.20465    -381.8654   -88269.816   -88905.359   -88356.594 
Loop time of 1877.79 on 2 procs for 19505 steps with 19652 atoms

Performance: 0.897 ns/day, 26.742 hours/ns, 10.387 timesteps/s
97.5% CPU use with 2 MPI tasks x no OpenMP threads

MPI task timing breakdown:
Section |  min time  |  avg time  |  max time  |%varavg| %total
---------------------------------------------------------------
Pair    | 1029.7     | 1030.1     | 1030.4     |   1.0 | 54.86
Neigh   | 726.66     | 734.32     | 741.98     |  28.3 | 39.11
Comm    | 77.985     | 85.479     | 92.973     |  81.1 |  4.55
Output  | 0.067546   | 0.067572   | 0.067597   |   0.0 |  0.00
Modify  | 21.028     | 21.074     | 21.119     |   1.0 |  1.12
Other   |            | 6.782      |            |       |  0.36

Nlocal:    9826 ave 9827 max 9825 min
Histogram: 1 0 0 0 0 0 0 0 0 1
Nghost:    12396.5 ave 12403 max 12390 min
Histogram: 1 0 0 0 0 0 0 0 0 1
Neighs:    678459 ave 678940 max 677978 min
Histogram: 1 0 0 0 0 0 0 0 0 1

Total # of neighbors = 1356918
Ave neighs/atom = 69.0473
Neighbor list builds = 19505
Dangerous builds not checked
Setting up Verlet run ...
  Unit style    : metal
  Current step  : 920000
  Time step     : 0.001
Per MPI rank memory allocation (min/avg/max) = 11.35 | 11.35 | 11.35 Mbytes
Step Temp Press TotEng PotEng Enthalpy 
  920000    250.20465    -381.8654   -88269.816   -88905.359   -88356.594 
  920495    226.28832   -361.19532   -88408.221   -88983.014    -88490.26 
Loop time of 43.7218 on 2 procs for 495 steps with 19652 atoms

Performance: 0.978 ns/day, 24.535 hours/ns, 11.322 timesteps/s
99.8% CPU use with 2 MPI tasks x no OpenMP threads

MPI task timing breakdown:
Section |  min time  |  avg time  |  max time  |%varavg| %total
---------------------------------------------------------------
Pair    | 23.903     | 23.994     | 24.085     |   1.9 | 54.88
Neigh   | 16.706     | 17.115     | 17.524     |   9.9 | 39.15
Comm    | 1.6205     | 1.9475     | 2.2745     |  23.4 |  4.45
Output  | 0.00014281 | 0.00017047 | 0.00019813 |   0.0 |  0.00
Modify  | 0.49055    | 0.49383    | 0.49711    |   0.5 |  1.13
Other   |            | 0.1709     |            |       |  0.39

Nlocal:    9826 ave 9848 max 9804 min
Histogram: 1 0 0 0 0 0 0 0 0 1
Nghost:    12389.5 ave 12410 max 12369 min
Histogram: 1 0 0 0 0 0 0 0 0 1
Neighs:    678802 ave 680145 max 677459 min
Histogram: 1 0 0 0 0 0 0 0 0 1

Total # of neighbors = 1357604
Ave neighs/atom = 69.0822
Neighbor list builds = 495
Dangerous builds not checked
Setting up Verlet run ...
  Unit style    : metal
  Current step  : 920495
  Time step     : 0.001
Per MPI rank memory allocation (min/avg/max) = 11.35 | 11.35 | 11.35 Mbytes
Step Temp Press TotEng PotEng Enthalpy 
  920495    226.28832   -361.19532   -88408.221   -88983.014    -88490.26 
  940000    201.67378    129.19744   -88541.408   -89053.678   -88512.098 
Loop time of 1880.96 on 2 procs for 19505 steps with 19652 atoms

Performance: 0.896 ns/day, 26.787 hours/ns, 10.370 timesteps/s
97.5% CPU use with 2 MPI tasks x no OpenMP threads

MPI task timing breakdown:
Section |  min time  |  avg time  |  max time  |%varavg| %total
---------------------------------------------------------------
Pair    | 1030.6     | 1032.6     | 1034.7     |   6.4 | 54.90
Neigh   | 728.85     | 734.14     | 739.44     |  19.6 | 39.03
Comm    | 83.087     | 86.249     | 89.411     |  34.0 |  4.59
Output  | 0.064508   | 0.064538   | 0.064568   |   0.0 |  0.00
Modify  | 21.191     | 21.207     | 21.224     |   0.4 |  1.13
Other   |            | 6.65       |            |       |  0.35

Nlocal:    9826 ave 9834 max 9818 min
Histogram: 1 0 0 0 0 0 0 0 0 1
Nghost:    12403 ave 12409 max 12397 min
Histogram: 1 0 0 0 0 0 0 0 0 1
Neighs:    679639 ave 680128 max 679150 min
Histogram: 1 0 0 0 0 0 0 0 0 1

Total # of neighbors = 1359278
Ave neighs/atom = 69.1674
Neighbor list builds = 19505
Dangerous builds not checked
Setting up Verlet run ...
  Unit style    : metal
  Current step  : 940000
  Time step     : 0.001
Per MPI rank memory allocation (min/avg/max) = 11.35 | 11.35 | 11.35 Mbytes
Step Temp Press TotEng PotEng Enthalpy 
  940000    201.67378    129.19744   -88541.408   -89053.678   -88512.098 
  940495     175.5023   -144.20583   -88674.241   -89120.033   -88706.941 
Loop time of 56.3825 on 2 procs for 495 steps with 19652 atoms

Performance: 0.759 ns/day, 31.640 hours/ns, 8.779 timesteps/s
89.9% CPU use with 2 MPI tasks x no OpenMP threads

MPI task timing breakdown:
Section |  min time  |  avg time  |  max time  |%varavg| %total
---------------------------------------------------------------
Pair    | 30.348     | 31.319     | 32.291     |  17.4 | 55.55
Neigh   | 18.205     | 20.69      | 23.174     |  54.6 | 36.69
Comm    | 2.031      | 3.561      | 5.0911     |  81.1 |  6.32
Output  | 0.00011301 | 0.00014305 | 0.00017309 |   0.0 |  0.00
Modify  | 0.61373    | 0.62587    | 0.63801    |   1.5 |  1.11
Other   |            | 0.1865     |            |       |  0.33

Nlocal:    9826 ave 9829 max 9823 min
Histogram: 1 0 0 0 0 0 0 0 0 1
Nghost:    12402.5 ave 12408 max 12397 min
Histogram: 1 0 0 0 0 0 0 0 0 1
Neighs:    679767 ave 680094 max 679440 min
Histogram: 1 0 0 0 0 0 0 0 0 1

Total # of neighbors = 1359534
Ave neighs/atom = 69.1804
Neighbor list builds = 495
Dangerous builds not checked
Setting up Verlet run ...
  Unit style    : metal
  Current step  : 940495
  Time step     : 0.001
Per MPI rank memory allocation (min/avg/max) = 11.35 | 11.35 | 11.35 Mbytes
Step Temp Press TotEng PotEng Enthalpy 
  940495     175.5023   -144.20583   -88674.241   -89120.033   -88706.941 
  960000    150.11246    587.39223   -88813.588   -89194.887    -88680.59 
Loop time of 1818.18 on 2 procs for 19505 steps with 19652 atoms

Performance: 0.927 ns/day, 25.893 hours/ns, 10.728 timesteps/s
98.3% CPU use with 2 MPI tasks x no OpenMP threads

MPI task timing breakdown:
Section |  min time  |  avg time  |  max time  |%varavg| %total
---------------------------------------------------------------
Pair    | 987.26     | 995.61     | 1004       |  26.5 | 54.76
Neigh   | 694.19     | 706.26     | 718.34     |  45.4 | 38.84
Comm    | 68.263     | 88.922     | 109.58     | 219.1 |  4.89
Output  | 0.068532   | 0.068552   | 0.068572   |   0.0 |  0.00
Modify  | 20.403     | 20.611     | 20.819     |   4.6 |  1.13
Other   |            | 6.705      |            |       |  0.37

Nlocal:    9826 ave 9840 max 9812 min
Histogram: 1 0 0 0 0 0 0 0 0 1
Nghost:    12424 ave 12432 max 12416 min
Histogram: 1 0 0 0 0 0 0 0 0 1
Neighs:    680900 ave 681584 max 680216 min
Histogram: 1 0 0 0 0 0 0 0 0 1

Total # of neighbors = 1361800
Ave neighs/atom = 69.2957
Neighbor list builds = 19505
Dangerous builds not checked
Setting up Verlet run ...
  Unit style    : metal
  Current step  : 960000
  Time step     : 0.001
Per MPI rank memory allocation (min/avg/max) = 11.35 | 11.35 | 11.35 Mbytes
Step Temp Press TotEng PotEng Enthalpy 
  960000    150.11246    587.39223   -88813.588   -89194.887    -88680.59 
  960495    127.44843    157.17108   -88935.347   -89259.078   -88899.758 
Loop time of 51.5453 on 2 procs for 495 steps with 19652 atoms

Performance: 0.830 ns/day, 28.926 hours/ns, 9.603 timesteps/s
100.0% CPU use with 2 MPI tasks x no OpenMP threads

MPI task timing breakdown:
Section |  min time  |  avg time  |  max time  |%varavg| %total
---------------------------------------------------------------
Pair    | 25.857     | 28.279     | 30.7       |  45.5 | 54.86
Neigh   | 16.522     | 17.722     | 18.922     |  28.5 | 34.38
Comm    | 1.0327     | 4.7224     | 8.4121     | 169.8 |  9.16
Output  | 0.00011587 | 0.000157   | 0.00019813 |   0.0 |  0.00
Modify  | 0.59515    | 0.6424     | 0.68966    |   5.9 |  1.25
Other   |            | 0.1797     |            |       |  0.35

Nlocal:    9826 ave 9834 max 9818 min
Histogram: 1 0 0 0 0 0 0 0 0 1
Nghost:    12420.5 ave 12430 max 12411 min
Histogram: 1 0 0 0 0 0 0 0 0 1
Neighs:    680704 ave 680816 max 680592 min
Histogram: 1 0 0 0 0 0 0 0 0 1

Total # of neighbors = 1361408
Ave neighs/atom = 69.2758
Neighbor list builds = 495
Dangerous builds not checked
Setting up Verlet run ...
  Unit style    : metal
  Current step  : 960495
  Time step     : 0.001
Per MPI rank memory allocation (min/avg/max) = 11.35 | 11.35 | 11.35 Mbytes
Step Temp Press TotEng PotEng Enthalpy 
  960495    127.44843    157.17108   -88935.347   -89259.078   -88899.758 
  980000    100.62021   -138.91208   -89078.324   -89333.908   -89109.759 
Loop time of 1782.67 on 2 procs for 19505 steps with 19652 atoms

Performance: 0.945 ns/day, 25.388 hours/ns, 10.941 timesteps/s
99.1% CPU use with 2 MPI tasks x no OpenMP threads

MPI task timing breakdown:
Section |  min time  |  avg time  |  max time  |%varavg| %total
---------------------------------------------------------------
Pair    | 962.62     | 971.24     | 979.87     |  27.7 | 54.48
Neigh   | 697.44     | 698.35     | 699.26     |   3.4 | 39.17
Comm    | 76.75      | 86.268     | 95.785     | 102.5 |  4.84
Output  | 0.063826   | 0.063845   | 0.063865   |   0.0 |  0.00
Modify  | 20.316     | 20.322     | 20.328     |   0.1 |  1.14
Other   |            | 6.418      |            |       |  0.36

Nlocal:    9826 ave 9842 max 9810 min
Histogram: 1 0 0 0 0 0 0 0 0 1
Nghost:    12405 ave 12426 max 12384 min
Histogram: 1 0 0 0 0 0 0 0 0 1
Neighs:    681064 ave 681991 max 680136 min
Histogram: 1 0 0 0 0 0 0 0 0 1

Total # of neighbors = 1362127
Ave neighs/atom = 69.3124
Neighbor list builds = 19505
Dangerous builds not checked
Total wall time: 25:53:54
