LAMMPS (12 Dec 2018)
Lattice spacing in x,y,z = 4 4 4
Created orthogonal box = (0 0 0) to (68 68 68)
  1 by 1 by 1 MPI processor grid
Created 19652 atoms
  Time spent = 0.00307798 secs
Setting atom values ...
  417 settings made for type/fraction
Neighbor list info ...
  update every 1 steps, delay 0 steps, check no
  max neighbors/atom: 2000, page size: 100000
  master list distance cutoff = 8.5
  ghost atom cutoff = 8.5
  binsize = 4.25, bins = 16 16 16
  1 neighbor lists, perpetual/occasional/extra = 1 0 0
  (1) pair eam/alloy, perpetual
      attributes: half, newton on
      pair build: half/bin/atomonly/newton
      stencil: half/bin/3d/newton
      bin: standard
Setting up Verlet run ...
  Unit style    : metal
  Current step  : 0
  Time step     : 0.001
Per MPI rank memory allocation (min/avg/max) = 18.19 | 18.19 | 18.19 Mbytes
Step Temp Press TotEng PotEng Enthalpy 
       0          300    637039.93   -100774.45   -101536.48    24246.567 
    1000    277.55406    556551.16   -100774.39   -101479.41    8450.4605 
Loop time of 216.057 on 1 procs for 1000 steps with 19652 atoms

Performance: 0.400 ns/day, 60.016 hours/ns, 4.628 timesteps/s
78.0% CPU use with 1 MPI tasks x no OpenMP threads

MPI task timing breakdown:
Section |  min time  |  avg time  |  max time  |%varavg| %total
---------------------------------------------------------------
Pair    | 123.7      | 123.7      | 123.7      |   0.0 | 57.25
Neigh   | 89.46      | 89.46      | 89.46      |   0.0 | 41.41
Comm    | 1.7026     | 1.7026     | 1.7026     |   0.0 |  0.79
Output  | 0.00029802 | 0.00029802 | 0.00029802 |   0.0 |  0.00
Modify  | 0.64149    | 0.64149    | 0.64149    |   0.0 |  0.30
Other   |            | 0.5506     |            |       |  0.25

Nlocal:    19652 ave 19652 max 19652 min
Histogram: 1 0 0 0 0 0 0 0 0 0
Nghost:    19410 ave 19410 max 19410 min
Histogram: 1 0 0 0 0 0 0 0 0 0
Neighs:    1.57875e+06 ave 1.57875e+06 max 1.57875e+06 min
Histogram: 1 0 0 0 0 0 0 0 0 0

Total # of neighbors = 1578750
Ave neighs/atom = 80.3353
Neighbor list builds = 1000
Dangerous builds not checked
Setting up Verlet run ...
  Unit style    : metal
  Current step  : 1000
  Time step     : 0.001
Per MPI rank memory allocation (min/avg/max) = 18.19 | 18.19 | 18.19 Mbytes
Step Temp Press TotEng PotEng Enthalpy 
    1000    277.55406    556551.16   -100774.39   -101479.41    8450.4605 
    2000    295.13044   -16.311996   -121987.31   -122736.97   -121991.99 
Loop time of 189.696 on 1 procs for 1000 steps with 19652 atoms

Performance: 0.455 ns/day, 52.693 hours/ns, 5.272 timesteps/s
78.7% CPU use with 1 MPI tasks x no OpenMP threads

MPI task timing breakdown:
Section |  min time  |  avg time  |  max time  |%varavg| %total
---------------------------------------------------------------
Pair    | 104.55     | 104.55     | 104.55     |   0.0 | 55.11
Neigh   | 80.753     | 80.753     | 80.753     |   0.0 | 42.57
Comm    | 1.5587     | 1.5587     | 1.5587     |   0.0 |  0.82
Output  | 0.12633    | 0.12633    | 0.12633    |   0.0 |  0.07
Modify  | 2.1519     | 2.1519     | 2.1519     |   0.0 |  1.13
Other   |            | 0.5566     |            |       |  0.29

Nlocal:    19652 ave 19652 max 19652 min
Histogram: 1 0 0 0 0 0 0 0 0 0
Nghost:    14825 ave 14825 max 14825 min
Histogram: 1 0 0 0 0 0 0 0 0 0
Neighs:    1.08336e+06 ave 1.08336e+06 max 1.08336e+06 min
Histogram: 1 0 0 0 0 0 0 0 0 0

Total # of neighbors = 1083359
Ave neighs/atom = 55.1272
Neighbor list builds = 1000
Dangerous builds not checked
Setting up Verlet run ...
  Unit style    : metal
  Current step  : 2000
  Time step     : 0.001
Per MPI rank memory allocation (min/avg/max) = 18.19 | 18.19 | 18.19 Mbytes
Step Temp Press TotEng PotEng Enthalpy 
    2000    295.13044   -16.311996   -121987.31   -122736.97   -121991.99 
    4000    792.68939   -380.41669   -119196.83   -121210.33   -119306.68 
    6000    1356.4042    201.40048   -115896.99   -119342.38   -115838.19 
    8000    1912.0579    302.74101      -112276    -117132.8   -112186.33 
   10000    2394.0199   -381.64545   -106943.52   -113024.55   -107059.68 
Loop time of 1320.97 on 1 procs for 8000 steps with 19652 atoms

Performance: 0.523 ns/day, 45.867 hours/ns, 6.056 timesteps/s
80.4% CPU use with 1 MPI tasks x no OpenMP threads

MPI task timing breakdown:
Section |  min time  |  avg time  |  max time  |%varavg| %total
---------------------------------------------------------------
Pair    | 721.91     | 721.91     | 721.91     |   0.0 | 54.65
Neigh   | 565.97     | 565.97     | 565.97     |   0.0 | 42.84
Comm    | 11.699     | 11.699     | 11.699     |   0.0 |  0.89
Output  | 0.45949    | 0.45949    | 0.45949    |   0.0 |  0.03
Modify  | 16.677     | 16.677     | 16.677     |   0.0 |  1.26
Other   |            | 4.253      |            |       |  0.32

Nlocal:    19652 ave 19652 max 19652 min
Histogram: 1 0 0 0 0 0 0 0 0 0
Nghost:    15531 ave 15531 max 15531 min
Histogram: 1 0 0 0 0 0 0 0 0 0
Neighs:    1.0096e+06 ave 1.0096e+06 max 1.0096e+06 min
Histogram: 1 0 0 0 0 0 0 0 0 0

Total # of neighbors = 1009604
Ave neighs/atom = 51.3741
Neighbor list builds = 8000
Dangerous builds not checked
Setting up Verlet run ...
  Unit style    : metal
  Current step  : 10000
  Time step     : 0.001
Per MPI rank memory allocation (min/avg/max) = 18.19 | 18.19 | 18.19 Mbytes
Step Temp Press TotEng PotEng Enthalpy 
   10000    2394.0199   -381.64545   -106943.52   -113024.55   -107059.68 
   12000    2440.5055   -70.027724   -105739.62   -111938.73   -105761.11 
   14000    2461.9704    188.30584   -105695.68   -111949.31   -105637.91 
   16000    2455.3063    128.42473   -105677.43   -111914.13      -105638 
   18000    2438.9768    1196.2973   -105638.22   -111833.44   -105271.61 
   20000    2435.2532    96.321751   -105728.63    -111914.4   -105699.06 
   22000    2464.5671    873.48512   -105711.46   -111971.68   -105443.79 
   24000    2437.6671    -882.4778   -105763.51    -111955.4   -106034.74 
   26000    2423.5863   -1988.3592   -105763.24   -111919.37    -106375.2 
   28000    2451.9104   -565.15282   -105786.71   -112014.78   -105960.19 
   30000    2456.8595   -1145.0266    -105743.8   -111984.45   -106095.82 
   32000    2445.5013    -923.2324   -105790.39   -112002.19   -106073.98 
   34000    2461.4811    511.93052   -105661.45   -111913.84   -105504.41 
   36000    2430.5732     179.4525    -105785.2   -111959.08   -105730.17 
   38000    2461.7611   -1159.4943   -105671.81   -111924.91   -106028.43 
   40000      2465.05    672.77742   -105681.76   -111943.21   -105475.46 
Loop time of 5085.63 on 1 procs for 30000 steps with 19652 atoms

Performance: 0.510 ns/day, 47.089 hours/ns, 5.899 timesteps/s
84.9% CPU use with 1 MPI tasks x no OpenMP threads

MPI task timing breakdown:
Section |  min time  |  avg time  |  max time  |%varavg| %total
---------------------------------------------------------------
Pair    | 2765.6     | 2765.6     | 2765.6     |   0.0 | 54.38
Neigh   | 2199.9     | 2199.9     | 2199.9     |   0.0 | 43.26
Comm    | 43.652     | 43.652     | 43.652     |   0.0 |  0.86
Output  | 1.0117     | 1.0117     | 1.0117     |   0.0 |  0.02
Modify  | 59.792     | 59.792     | 59.792     |   0.0 |  1.18
Other   |            | 15.62      |            |       |  0.31

Nlocal:    19652 ave 19652 max 19652 min
Histogram: 1 0 0 0 0 0 0 0 0 0
Nghost:    15627 ave 15627 max 15627 min
Histogram: 1 0 0 0 0 0 0 0 0 0
Neighs:    1.00317e+06 ave 1.00317e+06 max 1.00317e+06 min
Histogram: 1 0 0 0 0 0 0 0 0 0

Total # of neighbors = 1003170
Ave neighs/atom = 51.0467
Neighbor list builds = 30000
Dangerous builds not checked
Setting up Verlet run ...
  Unit style    : metal
  Current step  : 40000
  Time step     : 0.001
Per MPI rank memory allocation (min/avg/max) = 18.19 | 18.19 | 18.19 Mbytes
Step Temp Press TotEng PotEng Enthalpy 
   40000      2465.05    672.77742   -105681.76   -111943.21   -105475.46 
   40495    2404.3922    657.36445   -105915.63   -112023.01   -105714.31 
Loop time of 82.9139 on 1 procs for 495 steps with 19652 atoms

Performance: 0.516 ns/day, 46.529 hours/ns, 5.970 timesteps/s
84.8% CPU use with 1 MPI tasks x no OpenMP threads

MPI task timing breakdown:
Section |  min time  |  avg time  |  max time  |%varavg| %total
---------------------------------------------------------------
Pair    | 45.189     | 45.189     | 45.189     |   0.0 | 54.50
Neigh   | 35.742     | 35.742     | 35.742     |   0.0 | 43.11
Comm    | 0.69835    | 0.69835    | 0.69835    |   0.0 |  0.84
Output  | 0.00020003 | 0.00020003 | 0.00020003 |   0.0 |  0.00
Modify  | 1.0083     | 1.0083     | 1.0083     |   0.0 |  1.22
Other   |            | 0.2766     |            |       |  0.33

Nlocal:    19652 ave 19652 max 19652 min
Histogram: 1 0 0 0 0 0 0 0 0 0
Nghost:    15659 ave 15659 max 15659 min
Histogram: 1 0 0 0 0 0 0 0 0 0
Neighs:    1.00426e+06 ave 1.00426e+06 max 1.00426e+06 min
Histogram: 1 0 0 0 0 0 0 0 0 0

Total # of neighbors = 1004258
Ave neighs/atom = 51.1021
Neighbor list builds = 495
Dangerous builds not checked
Setting up Verlet run ...
  Unit style    : metal
  Current step  : 40495
  Time step     : 0.001
Per MPI rank memory allocation (min/avg/max) = 18.19 | 18.19 | 18.19 Mbytes
Step Temp Press TotEng PotEng Enthalpy 
   40495    2404.3922    657.36445   -105915.63   -112023.01   -105714.31 
   42000    2416.7901    898.69613   -105965.78   -112104.65   -105690.79 
Loop time of 244.941 on 1 procs for 1505 steps with 19652 atoms

Performance: 0.531 ns/day, 45.209 hours/ns, 6.144 timesteps/s
89.8% CPU use with 1 MPI tasks x no OpenMP threads

MPI task timing breakdown:
Section |  min time  |  avg time  |  max time  |%varavg| %total
---------------------------------------------------------------
Pair    | 133.79     | 133.79     | 133.79     |   0.0 | 54.62
Neigh   | 105.16     | 105.16     | 105.16     |   0.0 | 42.93
Comm    | 2.1811     | 2.1811     | 2.1811     |   0.0 |  0.89
Output  | 0.066378   | 0.066378   | 0.066378   |   0.0 |  0.03
Modify  | 2.9673     | 2.9673     | 2.9673     |   0.0 |  1.21
Other   |            | 0.7814     |            |       |  0.32

Nlocal:    19652 ave 19652 max 19652 min
Histogram: 1 0 0 0 0 0 0 0 0 0
Nghost:    15685 ave 15685 max 15685 min
Histogram: 1 0 0 0 0 0 0 0 0 0
Neighs:    1.00576e+06 ave 1.00576e+06 max 1.00576e+06 min
Histogram: 1 0 0 0 0 0 0 0 0 0

Total # of neighbors = 1005765
Ave neighs/atom = 51.1788
Neighbor list builds = 1505
Dangerous builds not checked
Setting up Verlet run ...
  Unit style    : metal
  Current step  : 42000
  Time step     : 0.001
Per MPI rank memory allocation (min/avg/max) = 18.19 | 18.19 | 18.19 Mbytes
Step Temp Press TotEng PotEng Enthalpy 
   42000    2416.7901    898.69613   -105965.78   -112104.65   -105690.79 
   42495     2360.345    831.26064   -106242.64   -112238.13   -105988.62 
Loop time of 77.5908 on 1 procs for 495 steps with 19652 atoms

Performance: 0.551 ns/day, 43.541 hours/ns, 6.380 timesteps/s
93.6% CPU use with 1 MPI tasks x no OpenMP threads

MPI task timing breakdown:
Section |  min time  |  avg time  |  max time  |%varavg| %total
---------------------------------------------------------------
Pair    | 42.54      | 42.54      | 42.54      |   0.0 | 54.83
Neigh   | 33.13      | 33.13      | 33.13      |   0.0 | 42.70
Comm    | 0.723      | 0.723      | 0.723      |   0.0 |  0.93
Output  | 0.00023794 | 0.00023794 | 0.00023794 |   0.0 |  0.00
Modify  | 0.93563    | 0.93563    | 0.93563    |   0.0 |  1.21
Other   |            | 0.2623     |            |       |  0.34

Nlocal:    19652 ave 19652 max 19652 min
Histogram: 1 0 0 0 0 0 0 0 0 0
Nghost:    15622 ave 15622 max 15622 min
Histogram: 1 0 0 0 0 0 0 0 0 0
Neighs:    1.00669e+06 ave 1.00669e+06 max 1.00669e+06 min
Histogram: 1 0 0 0 0 0 0 0 0 0

Total # of neighbors = 1006694
Ave neighs/atom = 51.226
Neighbor list builds = 495
Dangerous builds not checked
Setting up Verlet run ...
  Unit style    : metal
  Current step  : 42495
  Time step     : 0.001
Per MPI rank memory allocation (min/avg/max) = 18.19 | 18.19 | 18.19 Mbytes
Step Temp Press TotEng PotEng Enthalpy 
   42495     2360.345    831.26064   -106242.64   -112238.13   -105988.62 
   44000     2340.234    411.62142   -106347.23   -112291.64   -106221.54 
Loop time of 250.349 on 1 procs for 1505 steps with 19652 atoms

Performance: 0.519 ns/day, 46.207 hours/ns, 6.012 timesteps/s
89.3% CPU use with 1 MPI tasks x no OpenMP threads

MPI task timing breakdown:
Section |  min time  |  avg time  |  max time  |%varavg| %total
---------------------------------------------------------------
Pair    | 137.67     | 137.67     | 137.67     |   0.0 | 54.99
Neigh   | 106.61     | 106.61     | 106.61     |   0.0 | 42.59
Comm    | 2.1898     | 2.1898     | 2.1898     |   0.0 |  0.87
Output  | 0.067149   | 0.067149   | 0.067149   |   0.0 |  0.03
Modify  | 3.0476     | 3.0476     | 3.0476     |   0.0 |  1.22
Other   |            | 0.76       |            |       |  0.30

Nlocal:    19652 ave 19652 max 19652 min
Histogram: 1 0 0 0 0 0 0 0 0 0
Nghost:    15693 ave 15693 max 15693 min
Histogram: 1 0 0 0 0 0 0 0 0 0
Neighs:    1.00743e+06 ave 1.00743e+06 max 1.00743e+06 min
Histogram: 1 0 0 0 0 0 0 0 0 0

Total # of neighbors = 1007428
Ave neighs/atom = 51.2634
Neighbor list builds = 1505
Dangerous builds not checked
Setting up Verlet run ...
  Unit style    : metal
  Current step  : 44000
  Time step     : 0.001
Per MPI rank memory allocation (min/avg/max) = 18.19 | 18.19 | 18.19 Mbytes
Step Temp Press TotEng PotEng Enthalpy 
   44000     2340.234    411.62142   -106347.23   -112291.64   -106221.54 
   44495    2320.9855    1004.6698   -106585.16   -112480.67   -106278.78 
Loop time of 79.039 on 1 procs for 495 steps with 19652 atoms

Performance: 0.541 ns/day, 44.354 hours/ns, 6.263 timesteps/s
89.3% CPU use with 1 MPI tasks x no OpenMP threads

MPI task timing breakdown:
Section |  min time  |  avg time  |  max time  |%varavg| %total
---------------------------------------------------------------
Pair    | 42.855     | 42.855     | 42.855     |   0.0 | 54.22
Neigh   | 34.333     | 34.333     | 34.333     |   0.0 | 43.44
Comm    | 0.68769    | 0.68769    | 0.68769    |   0.0 |  0.87
Output  | 0.00020909 | 0.00020909 | 0.00020909 |   0.0 |  0.00
Modify  | 0.90536    | 0.90536    | 0.90536    |   0.0 |  1.15
Other   |            | 0.2578     |            |       |  0.33

Nlocal:    19652 ave 19652 max 19652 min
Histogram: 1 0 0 0 0 0 0 0 0 0
Nghost:    15743 ave 15743 max 15743 min
Histogram: 1 0 0 0 0 0 0 0 0 0
Neighs:    1.00953e+06 ave 1.00953e+06 max 1.00953e+06 min
Histogram: 1 0 0 0 0 0 0 0 0 0

Total # of neighbors = 1009527
Ave neighs/atom = 51.3702
Neighbor list builds = 495
Dangerous builds not checked
Setting up Verlet run ...
  Unit style    : metal
  Current step  : 44495
  Time step     : 0.001
Per MPI rank memory allocation (min/avg/max) = 18.19 | 18.19 | 18.19 Mbytes
Step Temp Press TotEng PotEng Enthalpy 
   44495    2320.9855    1004.6698   -106585.16   -112480.67   -106278.78 
   46000    2317.3531    1096.2946   -106646.65   -112532.93   -106312.74 
Loop time of 242.968 on 1 procs for 1505 steps with 19652 atoms

Performance: 0.535 ns/day, 44.845 hours/ns, 6.194 timesteps/s
92.3% CPU use with 1 MPI tasks x no OpenMP threads

MPI task timing breakdown:
Section |  min time  |  avg time  |  max time  |%varavg| %total
---------------------------------------------------------------
Pair    | 133.49     | 133.49     | 133.49     |   0.0 | 54.94
Neigh   | 103.47     | 103.47     | 103.47     |   0.0 | 42.59
Comm    | 2.1961     | 2.1961     | 2.1961     |   0.0 |  0.90
Output  | 0.064349   | 0.064349   | 0.064349   |   0.0 |  0.03
Modify  | 2.9502     | 2.9502     | 2.9502     |   0.0 |  1.21
Other   |            | 0.7979     |            |       |  0.33

Nlocal:    19652 ave 19652 max 19652 min
Histogram: 1 0 0 0 0 0 0 0 0 0
Nghost:    15629 ave 15629 max 15629 min
Histogram: 1 0 0 0 0 0 0 0 0 0
Neighs:    1.01044e+06 ave 1.01044e+06 max 1.01044e+06 min
Histogram: 1 0 0 0 0 0 0 0 0 0

Total # of neighbors = 1010435
Ave neighs/atom = 51.4164
Neighbor list builds = 1505
Dangerous builds not checked
Setting up Verlet run ...
  Unit style    : metal
  Current step  : 46000
  Time step     : 0.001
Per MPI rank memory allocation (min/avg/max) = 18.19 | 18.19 | 18.19 Mbytes
Step Temp Press TotEng PotEng Enthalpy 
   46000    2317.3531    1096.2946   -106646.65   -112532.93   -106312.74 
   46495    2269.0115    761.33399   -106868.54   -112632.03   -106636.83 
Loop time of 79.802 on 1 procs for 495 steps with 19652 atoms

Performance: 0.536 ns/day, 44.782 hours/ns, 6.203 timesteps/s
89.1% CPU use with 1 MPI tasks x no OpenMP threads

MPI task timing breakdown:
Section |  min time  |  avg time  |  max time  |%varavg| %total
---------------------------------------------------------------
Pair    | 43.61      | 43.61      | 43.61      |   0.0 | 54.65
Neigh   | 34.267     | 34.267     | 34.267     |   0.0 | 42.94
Comm    | 0.7134     | 0.7134     | 0.7134     |   0.0 |  0.89
Output  | 0.000211   | 0.000211   | 0.000211   |   0.0 |  0.00
Modify  | 0.95131    | 0.95131    | 0.95131    |   0.0 |  1.19
Other   |            | 0.2601     |            |       |  0.33

Nlocal:    19652 ave 19652 max 19652 min
Histogram: 1 0 0 0 0 0 0 0 0 0
Nghost:    15679 ave 15679 max 15679 min
Histogram: 1 0 0 0 0 0 0 0 0 0
Neighs:    1.0119e+06 ave 1.0119e+06 max 1.0119e+06 min
Histogram: 1 0 0 0 0 0 0 0 0 0

Total # of neighbors = 1011903
Ave neighs/atom = 51.4911
Neighbor list builds = 495
Dangerous builds not checked
Setting up Verlet run ...
  Unit style    : metal
  Current step  : 46495
  Time step     : 0.001
Per MPI rank memory allocation (min/avg/max) = 18.19 | 18.19 | 18.19 Mbytes
Step Temp Press TotEng PotEng Enthalpy 
   46495    2269.0115    761.33399   -106868.54   -112632.03   -106636.83 
   48000     2243.487    1501.8612   -106975.65   -112674.32   -106519.06 
Loop time of 252.643 on 1 procs for 1505 steps with 19652 atoms

Performance: 0.515 ns/day, 46.630 hours/ns, 5.957 timesteps/s
90.8% CPU use with 1 MPI tasks x no OpenMP threads

MPI task timing breakdown:
Section |  min time  |  avg time  |  max time  |%varavg| %total
---------------------------------------------------------------
Pair    | 139.14     | 139.14     | 139.14     |   0.0 | 55.08
Neigh   | 107.16     | 107.16     | 107.16     |   0.0 | 42.42
Comm    | 2.3971     | 2.3971     | 2.3971     |   0.0 |  0.95
Output  | 0.07096    | 0.07096    | 0.07096    |   0.0 |  0.03
Modify  | 3.0374     | 3.0374     | 3.0374     |   0.0 |  1.20
Other   |            | 0.831      |            |       |  0.33

Nlocal:    19652 ave 19652 max 19652 min
Histogram: 1 0 0 0 0 0 0 0 0 0
Nghost:    15667 ave 15667 max 15667 min
Histogram: 1 0 0 0 0 0 0 0 0 0
Neighs:    1.01296e+06 ave 1.01296e+06 max 1.01296e+06 min
Histogram: 1 0 0 0 0 0 0 0 0 0

Total # of neighbors = 1012957
Ave neighs/atom = 51.5447
Neighbor list builds = 1505
Dangerous builds not checked
Setting up Verlet run ...
  Unit style    : metal
  Current step  : 48000
  Time step     : 0.001
Per MPI rank memory allocation (min/avg/max) = 18.19 | 18.19 | 18.19 Mbytes
Step Temp Press TotEng PotEng Enthalpy 
   48000     2243.487    1501.8612   -106975.65   -112674.32   -106519.06 
   48495    2204.4916    1683.2284   -107187.09    -112786.7   -106676.34 
Loop time of 73.2264 on 1 procs for 495 steps with 19652 atoms

Performance: 0.584 ns/day, 41.092 hours/ns, 6.760 timesteps/s
99.9% CPU use with 1 MPI tasks x no OpenMP threads

MPI task timing breakdown:
Section |  min time  |  avg time  |  max time  |%varavg| %total
---------------------------------------------------------------
Pair    | 40.362     | 40.362     | 40.362     |   0.0 | 55.12
Neigh   | 30.963     | 30.963     | 30.963     |   0.0 | 42.28
Comm    | 0.70495    | 0.70495    | 0.70495    |   0.0 |  0.96
Output  | 0.00023198 | 0.00023198 | 0.00023198 |   0.0 |  0.00
Modify  | 0.93786    | 0.93786    | 0.93786    |   0.0 |  1.28
Other   |            | 0.2581     |            |       |  0.35

Nlocal:    19652 ave 19652 max 19652 min
Histogram: 1 0 0 0 0 0 0 0 0 0
Nghost:    15731 ave 15731 max 15731 min
Histogram: 1 0 0 0 0 0 0 0 0 0
Neighs:    1.01488e+06 ave 1.01488e+06 max 1.01488e+06 min
Histogram: 1 0 0 0 0 0 0 0 0 0

Total # of neighbors = 1014882
Ave neighs/atom = 51.6427
Neighbor list builds = 495
Dangerous builds not checked
Setting up Verlet run ...
  Unit style    : metal
  Current step  : 48495
  Time step     : 0.001
Per MPI rank memory allocation (min/avg/max) = 18.19 | 18.19 | 18.19 Mbytes
Step Temp Press TotEng PotEng Enthalpy 
   48495    2204.4916    1683.2284   -107187.09    -112786.7   -106676.34 
   50000    2209.8874    -62.99824   -107259.07   -112872.38   -107278.22 
Loop time of 208.342 on 1 procs for 1505 steps with 19652 atoms

Performance: 0.624 ns/day, 38.454 hours/ns, 7.224 timesteps/s
99.9% CPU use with 1 MPI tasks x no OpenMP threads

MPI task timing breakdown:
Section |  min time  |  avg time  |  max time  |%varavg| %total
---------------------------------------------------------------
Pair    | 114        | 114        | 114        |   0.0 | 54.72
Neigh   | 89.114     | 89.114     | 89.114     |   0.0 | 42.77
Comm    | 1.924      | 1.924      | 1.924      |   0.0 |  0.92
Output  | 0.064387   | 0.064387   | 0.064387   |   0.0 |  0.03
Modify  | 2.5362     | 2.5362     | 2.5362     |   0.0 |  1.22
Other   |            | 0.7016     |            |       |  0.34

Nlocal:    19652 ave 19652 max 19652 min
Histogram: 1 0 0 0 0 0 0 0 0 0
Nghost:    15709 ave 15709 max 15709 min
Histogram: 1 0 0 0 0 0 0 0 0 0
Neighs:    1.01278e+06 ave 1.01278e+06 max 1.01278e+06 min
Histogram: 1 0 0 0 0 0 0 0 0 0

Total # of neighbors = 1012779
Ave neighs/atom = 51.5357
Neighbor list builds = 1505
Dangerous builds not checked
Setting up Verlet run ...
  Unit style    : metal
  Current step  : 50000
  Time step     : 0.001
Per MPI rank memory allocation (min/avg/max) = 18.19 | 18.19 | 18.19 Mbytes
Step Temp Press TotEng PotEng Enthalpy 
   50000    2209.8874    -62.99824   -107259.07   -112872.38   -107278.22 
   50495     2154.852   -305.70969   -107539.74   -113013.26   -107632.61 
Loop time of 69.3878 on 1 procs for 495 steps with 19652 atoms

Performance: 0.616 ns/day, 38.938 hours/ns, 7.134 timesteps/s
99.9% CPU use with 1 MPI tasks x no OpenMP threads

MPI task timing breakdown:
Section |  min time  |  avg time  |  max time  |%varavg| %total
---------------------------------------------------------------
Pair    | 37.935     | 37.935     | 37.935     |   0.0 | 54.67
Neigh   | 29.721     | 29.721     | 29.721     |   0.0 | 42.83
Comm    | 0.6346     | 0.6346     | 0.6346     |   0.0 |  0.91
Output  | 0.00037599 | 0.00037599 | 0.00037599 |   0.0 |  0.00
Modify  | 0.86623    | 0.86623    | 0.86623    |   0.0 |  1.25
Other   |            | 0.231      |            |       |  0.33

Nlocal:    19652 ave 19652 max 19652 min
Histogram: 1 0 0 0 0 0 0 0 0 0
Nghost:    15722 ave 15722 max 15722 min
Histogram: 1 0 0 0 0 0 0 0 0 0
Neighs:    1.01421e+06 ave 1.01421e+06 max 1.01421e+06 min
Histogram: 1 0 0 0 0 0 0 0 0 0

Total # of neighbors = 1014208
Ave neighs/atom = 51.6084
Neighbor list builds = 495
Dangerous builds not checked
Setting up Verlet run ...
  Unit style    : metal
  Current step  : 50495
  Time step     : 0.001
Per MPI rank memory allocation (min/avg/max) = 18.19 | 18.19 | 18.19 Mbytes
Step Temp Press TotEng PotEng Enthalpy 
   50495     2154.852   -305.70969   -107539.74   -113013.26   -107632.61 
   52000     2136.776    329.91542   -107671.95   -113099.56   -107571.87 
Loop time of 216.774 on 1 procs for 1505 steps with 19652 atoms

Performance: 0.600 ns/day, 40.010 hours/ns, 6.943 timesteps/s
99.9% CPU use with 1 MPI tasks x no OpenMP threads

MPI task timing breakdown:
Section |  min time  |  avg time  |  max time  |%varavg| %total
---------------------------------------------------------------
Pair    | 118.65     | 118.65     | 118.65     |   0.0 | 54.74
Neigh   | 92.681     | 92.681     | 92.681     |   0.0 | 42.75
Comm    | 2.0055     | 2.0055     | 2.0055     |   0.0 |  0.93
Output  | 0.069455   | 0.069455   | 0.069455   |   0.0 |  0.03
Modify  | 2.6526     | 2.6526     | 2.6526     |   0.0 |  1.22
Other   |            | 0.7114     |            |       |  0.33

Nlocal:    19652 ave 19652 max 19652 min
Histogram: 1 0 0 0 0 0 0 0 0 0
Nghost:    15660 ave 15660 max 15660 min
Histogram: 1 0 0 0 0 0 0 0 0 0
Neighs:    1.01518e+06 ave 1.01518e+06 max 1.01518e+06 min
Histogram: 1 0 0 0 0 0 0 0 0 0

Total # of neighbors = 1015178
Ave neighs/atom = 51.6577
Neighbor list builds = 1505
Dangerous builds not checked
Setting up Verlet run ...
  Unit style    : metal
  Current step  : 52000
  Time step     : 0.001
Per MPI rank memory allocation (min/avg/max) = 18.19 | 18.19 | 18.19 Mbytes
Step Temp Press TotEng PotEng Enthalpy 
   52000     2136.776    329.91542   -107671.95   -113099.56   -107571.87 
   52495    2094.2373    144.00011    -107847.2   -113166.76   -107803.56 
Loop time of 65.2728 on 1 procs for 495 steps with 19652 atoms

Performance: 0.655 ns/day, 36.629 hours/ns, 7.584 timesteps/s
100.0% CPU use with 1 MPI tasks x no OpenMP threads

MPI task timing breakdown:
Section |  min time  |  avg time  |  max time  |%varavg| %total
---------------------------------------------------------------
Pair    | 35.324     | 35.324     | 35.324     |   0.0 | 54.12
Neigh   | 28.314     | 28.314     | 28.314     |   0.0 | 43.38
Comm    | 0.604      | 0.604      | 0.604      |   0.0 |  0.93
Output  | 0.00026083 | 0.00026083 | 0.00026083 |   0.0 |  0.00
Modify  | 0.80868    | 0.80868    | 0.80868    |   0.0 |  1.24
Other   |            | 0.2225     |            |       |  0.34

Nlocal:    19652 ave 19652 max 19652 min
Histogram: 1 0 0 0 0 0 0 0 0 0
Nghost:    15628 ave 15628 max 15628 min
Histogram: 1 0 0 0 0 0 0 0 0 0
Neighs:    1.01623e+06 ave 1.01623e+06 max 1.01623e+06 min
Histogram: 1 0 0 0 0 0 0 0 0 0

Total # of neighbors = 1016234
Ave neighs/atom = 51.7115
Neighbor list builds = 495
Dangerous builds not checked
Setting up Verlet run ...
  Unit style    : metal
  Current step  : 52495
  Time step     : 0.001
Per MPI rank memory allocation (min/avg/max) = 18.19 | 18.19 | 18.19 Mbytes
Step Temp Press TotEng PotEng Enthalpy 
   52495    2094.2373    144.00011    -107847.2   -113166.76   -107803.56 
   54000    2114.4539    454.69134   -107938.49   -113309.39   -107800.87 
Loop time of 190.724 on 1 procs for 1505 steps with 19652 atoms

Performance: 0.682 ns/day, 35.202 hours/ns, 7.891 timesteps/s
100.0% CPU use with 1 MPI tasks x no OpenMP threads

MPI task timing breakdown:
Section |  min time  |  avg time  |  max time  |%varavg| %total
---------------------------------------------------------------
Pair    | 102.01     | 102.01     | 102.01     |   0.0 | 53.49
Neigh   | 84.002     | 84.002     | 84.002     |   0.0 | 44.04
Comm    | 1.7066     | 1.7066     | 1.7066     |   0.0 |  0.89
Output  | 0.072507   | 0.072507   | 0.072507   |   0.0 |  0.04
Modify  | 2.2985     | 2.2985     | 2.2985     |   0.0 |  1.21
Other   |            | 0.6327     |            |       |  0.33

Nlocal:    19652 ave 19652 max 19652 min
Histogram: 1 0 0 0 0 0 0 0 0 0
Nghost:    15696 ave 15696 max 15696 min
Histogram: 1 0 0 0 0 0 0 0 0 0
Neighs:    1.01802e+06 ave 1.01802e+06 max 1.01802e+06 min
Histogram: 1 0 0 0 0 0 0 0 0 0

Total # of neighbors = 1018023
Ave neighs/atom = 51.8025
Neighbor list builds = 1505
Dangerous builds not checked
Setting up Verlet run ...
  Unit style    : metal
  Current step  : 54000
  Time step     : 0.001
Per MPI rank memory allocation (min/avg/max) = 18.19 | 18.19 | 18.19 Mbytes
Step Temp Press TotEng PotEng Enthalpy 
   54000    2114.4539    454.69134   -107938.49   -113309.39   -107800.87 
   54495    2059.5963    960.68523   -108150.46   -113382.02   -107860.06 
Loop time of 62.8387 on 1 procs for 495 steps with 19652 atoms

Performance: 0.681 ns/day, 35.263 hours/ns, 7.877 timesteps/s
100.0% CPU use with 1 MPI tasks x no OpenMP threads

MPI task timing breakdown:
Section |  min time  |  avg time  |  max time  |%varavg| %total
---------------------------------------------------------------
Pair    | 33.603     | 33.603     | 33.603     |   0.0 | 53.48
Neigh   | 27.679     | 27.679     | 27.679     |   0.0 | 44.05
Comm    | 0.56635    | 0.56635    | 0.56635    |   0.0 |  0.90
Output  | 0.00023913 | 0.00023913 | 0.00023913 |   0.0 |  0.00
Modify  | 0.78016    | 0.78016    | 0.78016    |   0.0 |  1.24
Other   |            | 0.2102     |            |       |  0.33

Nlocal:    19652 ave 19652 max 19652 min
Histogram: 1 0 0 0 0 0 0 0 0 0
Nghost:    15694 ave 15694 max 15694 min
Histogram: 1 0 0 0 0 0 0 0 0 0
Neighs:    1.02001e+06 ave 1.02001e+06 max 1.02001e+06 min
Histogram: 1 0 0 0 0 0 0 0 0 0

Total # of neighbors = 1020007
Ave neighs/atom = 51.9035
Neighbor list builds = 495
Dangerous builds not checked
Setting up Verlet run ...
  Unit style    : metal
  Current step  : 54495
  Time step     : 0.001
Per MPI rank memory allocation (min/avg/max) = 18.19 | 18.19 | 18.19 Mbytes
Step Temp Press TotEng PotEng Enthalpy 
   54495    2059.5963    960.68523   -108150.46   -113382.02   -107860.06 
   56000    2048.8687    1379.4774   -108258.24   -113462.56   -107842.02 
Loop time of 206.805 on 1 procs for 1505 steps with 19652 atoms

Performance: 0.629 ns/day, 38.170 hours/ns, 7.277 timesteps/s
99.9% CPU use with 1 MPI tasks x no OpenMP threads

MPI task timing breakdown:
Section |  min time  |  avg time  |  max time  |%varavg| %total
---------------------------------------------------------------
Pair    | 111.71     | 111.71     | 111.71     |   0.0 | 54.02
Neigh   | 89.936     | 89.936     | 89.936     |   0.0 | 43.49
Comm    | 1.9002     | 1.9002     | 1.9002     |   0.0 |  0.92
Output  | 0.055791   | 0.055791   | 0.055791   |   0.0 |  0.03
Modify  | 2.5233     | 2.5233     | 2.5233     |   0.0 |  1.22
Other   |            | 0.6832     |            |       |  0.33

Nlocal:    19652 ave 19652 max 19652 min
Histogram: 1 0 0 0 0 0 0 0 0 0
Nghost:    15775 ave 15775 max 15775 min
Histogram: 1 0 0 0 0 0 0 0 0 0
Neighs:    1.02142e+06 ave 1.02142e+06 max 1.02142e+06 min
Histogram: 1 0 0 0 0 0 0 0 0 0

Total # of neighbors = 1021425
Ave neighs/atom = 51.9756
Neighbor list builds = 1505
Dangerous builds not checked
Setting up Verlet run ...
  Unit style    : metal
  Current step  : 56000
  Time step     : 0.001
Per MPI rank memory allocation (min/avg/max) = 18.19 | 18.19 | 18.19 Mbytes
Step Temp Press TotEng PotEng Enthalpy 
   56000    2048.8687    1379.4774   -108258.24   -113462.56   -107842.02 
   56495    2007.8338    381.97871    -108575.4   -113675.48   -108460.18 
Loop time of 66.7988 on 1 procs for 495 steps with 19652 atoms

Performance: 0.640 ns/day, 37.485 hours/ns, 7.410 timesteps/s
99.9% CPU use with 1 MPI tasks x no OpenMP threads

MPI task timing breakdown:
Section |  min time  |  avg time  |  max time  |%varavg| %total
---------------------------------------------------------------
Pair    | 35.708     | 35.708     | 35.708     |   0.0 | 53.46
Neigh   | 29.481     | 29.481     | 29.481     |   0.0 | 44.13
Comm    | 0.58353    | 0.58353    | 0.58353    |   0.0 |  0.87
Output  | 0.00023103 | 0.00023103 | 0.00023103 |   0.0 |  0.00
Modify  | 0.80525    | 0.80525    | 0.80525    |   0.0 |  1.21
Other   |            | 0.2206     |            |       |  0.33

Nlocal:    19652 ave 19652 max 19652 min
Histogram: 1 0 0 0 0 0 0 0 0 0
Nghost:    15812 ave 15812 max 15812 min
Histogram: 1 0 0 0 0 0 0 0 0 0
Neighs:    1.02304e+06 ave 1.02304e+06 max 1.02304e+06 min
Histogram: 1 0 0 0 0 0 0 0 0 0

Total # of neighbors = 1023041
Ave neighs/atom = 52.0579
Neighbor list builds = 495
Dangerous builds not checked
Setting up Verlet run ...
  Unit style    : metal
  Current step  : 56495
  Time step     : 0.001
Per MPI rank memory allocation (min/avg/max) = 18.19 | 18.19 | 18.19 Mbytes
Step Temp Press TotEng PotEng Enthalpy 
   56495    2007.8338    381.97871    -108575.4   -113675.48   -108460.18 
   58000    2003.3369    615.61557   -108549.05   -113637.71    -108363.3 
Loop time of 193.747 on 1 procs for 1505 steps with 19652 atoms

Performance: 0.671 ns/day, 35.760 hours/ns, 7.768 timesteps/s
99.8% CPU use with 1 MPI tasks x no OpenMP threads

MPI task timing breakdown:
Section |  min time  |  avg time  |  max time  |%varavg| %total
---------------------------------------------------------------
Pair    | 102.48     | 102.48     | 102.48     |   0.0 | 52.89
Neigh   | 86.508     | 86.508     | 86.508     |   0.0 | 44.65
Comm    | 1.6991     | 1.6991     | 1.6991     |   0.0 |  0.88
Output  | 0.055509   | 0.055509   | 0.055509   |   0.0 |  0.03
Modify  | 2.3639     | 2.3639     | 2.3639     |   0.0 |  1.22
Other   |            | 0.642      |            |       |  0.33

Nlocal:    19652 ave 19652 max 19652 min
Histogram: 1 0 0 0 0 0 0 0 0 0
Nghost:    15672 ave 15672 max 15672 min
Histogram: 1 0 0 0 0 0 0 0 0 0
Neighs:    1.02194e+06 ave 1.02194e+06 max 1.02194e+06 min
Histogram: 1 0 0 0 0 0 0 0 0 0

Total # of neighbors = 1021935
Ave neighs/atom = 52.0016
Neighbor list builds = 1505
Dangerous builds not checked
Setting up Verlet run ...
  Unit style    : metal
  Current step  : 58000
  Time step     : 0.001
Per MPI rank memory allocation (min/avg/max) = 18.19 | 18.19 | 18.19 Mbytes
Step Temp Press TotEng PotEng Enthalpy 
   58000    2003.3369    615.61557   -108549.05   -113637.71    -108363.3 
   58495    1980.8655    296.05656   -108816.01   -113847.59    -108726.8 
Loop time of 64.0327 on 1 procs for 495 steps with 19652 atoms

Performance: 0.668 ns/day, 35.933 hours/ns, 7.730 timesteps/s
99.9% CPU use with 1 MPI tasks x no OpenMP threads

MPI task timing breakdown:
Section |  min time  |  avg time  |  max time  |%varavg| %total
---------------------------------------------------------------
Pair    | 33.918     | 33.918     | 33.918     |   0.0 | 52.97
Neigh   | 28.554     | 28.554     | 28.554     |   0.0 | 44.59
Comm    | 0.56586    | 0.56586    | 0.56586    |   0.0 |  0.88
Output  | 0.00021291 | 0.00021291 | 0.00021291 |   0.0 |  0.00
Modify  | 0.77924    | 0.77924    | 0.77924    |   0.0 |  1.22
Other   |            | 0.2152     |            |       |  0.34

Nlocal:    19652 ave 19652 max 19652 min
Histogram: 1 0 0 0 0 0 0 0 0 0
Nghost:    15739 ave 15739 max 15739 min
Histogram: 1 0 0 0 0 0 0 0 0 0
Neighs:    1.02345e+06 ave 1.02345e+06 max 1.02345e+06 min
Histogram: 1 0 0 0 0 0 0 0 0 0

Total # of neighbors = 1023449
Ave neighs/atom = 52.0786
Neighbor list builds = 495
Dangerous builds not checked
Setting up Verlet run ...
  Unit style    : metal
  Current step  : 58495
  Time step     : 0.001
Per MPI rank memory allocation (min/avg/max) = 18.19 | 18.19 | 18.19 Mbytes
Step Temp Press TotEng PotEng Enthalpy 
   58495    1980.8655    296.05656   -108816.01   -113847.59    -108726.8 
   60000     1954.848   -470.57392   -108902.72   -113868.21   -109044.65 
Loop time of 196.727 on 1 procs for 1505 steps with 19652 atoms

Performance: 0.661 ns/day, 36.310 hours/ns, 7.650 timesteps/s
99.9% CPU use with 1 MPI tasks x no OpenMP threads

MPI task timing breakdown:
Section |  min time  |  avg time  |  max time  |%varavg| %total
---------------------------------------------------------------
Pair    | 104.4      | 104.4      | 104.4      |   0.0 | 53.07
Neigh   | 87.472     | 87.472     | 87.472     |   0.0 | 44.46
Comm    | 1.7465     | 1.7465     | 1.7465     |   0.0 |  0.89
Output  | 0.055123   | 0.055123   | 0.055123   |   0.0 |  0.03
Modify  | 2.3987     | 2.3987     | 2.3987     |   0.0 |  1.22
Other   |            | 0.6559     |            |       |  0.33

Nlocal:    19652 ave 19652 max 19652 min
Histogram: 1 0 0 0 0 0 0 0 0 0
Nghost:    15756 ave 15756 max 15756 min
Histogram: 1 0 0 0 0 0 0 0 0 0
Neighs:    1.02251e+06 ave 1.02251e+06 max 1.02251e+06 min
Histogram: 1 0 0 0 0 0 0 0 0 0

Total # of neighbors = 1022506
Ave neighs/atom = 52.0306
Neighbor list builds = 1505
Dangerous builds not checked
Setting up Verlet run ...
  Unit style    : metal
  Current step  : 60000
  Time step     : 0.001
Per MPI rank memory allocation (min/avg/max) = 18.19 | 18.19 | 18.19 Mbytes
Step Temp Press TotEng PotEng Enthalpy 
   60000     1954.848   -470.57392   -108902.72   -113868.21   -109044.65 
   60495    1899.8562   -262.36931   -109198.34   -114024.15    -109277.3 
Loop time of 58.0169 on 1 procs for 495 steps with 19652 atoms

Performance: 0.737 ns/day, 32.557 hours/ns, 8.532 timesteps/s
100.0% CPU use with 1 MPI tasks x no OpenMP threads

MPI task timing breakdown:
Section |  min time  |  avg time  |  max time  |%varavg| %total
---------------------------------------------------------------
Pair    | 30.222     | 30.222     | 30.222     |   0.0 | 52.09
Neigh   | 26.375     | 26.375     | 26.375     |   0.0 | 45.46
Comm    | 0.50913    | 0.50913    | 0.50913    |   0.0 |  0.88
Output  | 0.0002389  | 0.0002389  | 0.0002389  |   0.0 |  0.00
Modify  | 0.71515    | 0.71515    | 0.71515    |   0.0 |  1.23
Other   |            | 0.1955     |            |       |  0.34

Nlocal:    19652 ave 19652 max 19652 min
Histogram: 1 0 0 0 0 0 0 0 0 0
Nghost:    15730 ave 15730 max 15730 min
Histogram: 1 0 0 0 0 0 0 0 0 0
Neighs:    1.02463e+06 ave 1.02463e+06 max 1.02463e+06 min
Histogram: 1 0 0 0 0 0 0 0 0 0

Total # of neighbors = 1024626
Ave neighs/atom = 52.1385
Neighbor list builds = 495
Dangerous builds not checked
Setting up Verlet run ...
  Unit style    : metal
  Current step  : 60495
  Time step     : 0.001
Per MPI rank memory allocation (min/avg/max) = 18.19 | 18.19 | 18.19 Mbytes
Step Temp Press TotEng PotEng Enthalpy 
   60495    1899.8562   -262.36931   -109198.34   -114024.15    -109277.3 
   62000    1901.3034   -1063.5737   -109291.89   -114121.38   -109612.22 
Loop time of 182.616 on 1 procs for 1505 steps with 19652 atoms

Performance: 0.712 ns/day, 33.705 hours/ns, 8.241 timesteps/s
100.0% CPU use with 1 MPI tasks x no OpenMP threads

MPI task timing breakdown:
Section |  min time  |  avg time  |  max time  |%varavg| %total
---------------------------------------------------------------
Pair    | 95.717     | 95.717     | 95.717     |   0.0 | 52.41
Neigh   | 82.407     | 82.407     | 82.407     |   0.0 | 45.13
Comm    | 1.6166     | 1.6166     | 1.6166     |   0.0 |  0.89
Output  | 0.053477   | 0.053477   | 0.053477   |   0.0 |  0.03
Modify  | 2.2122     | 2.2122     | 2.2122     |   0.0 |  1.21
Other   |            | 0.6089     |            |       |  0.33

Nlocal:    19652 ave 19652 max 19652 min
Histogram: 1 0 0 0 0 0 0 0 0 0
Nghost:    15802 ave 15802 max 15802 min
Histogram: 1 0 0 0 0 0 0 0 0 0
Neighs:    1.02484e+06 ave 1.02484e+06 max 1.02484e+06 min
Histogram: 1 0 0 0 0 0 0 0 0 0

Total # of neighbors = 1024837
Ave neighs/atom = 52.1492
Neighbor list builds = 1505
Dangerous builds not checked
Setting up Verlet run ...
  Unit style    : metal
  Current step  : 62000
  Time step     : 0.001
Per MPI rank memory allocation (min/avg/max) = 18.19 | 18.19 | 18.19 Mbytes
Step Temp Press TotEng PotEng Enthalpy 
   62000    1901.3034   -1063.5737   -109291.89   -114121.38   -109612.22 
   62495    1850.8216   -119.14041   -109522.98   -114224.23   -109558.77 
Loop time of 60.9366 on 1 procs for 495 steps with 19652 atoms

Performance: 0.702 ns/day, 34.196 hours/ns, 8.123 timesteps/s
99.8% CPU use with 1 MPI tasks x no OpenMP threads

MPI task timing breakdown:
Section |  min time  |  avg time  |  max time  |%varavg| %total
---------------------------------------------------------------
Pair    | 32.248     | 32.248     | 32.248     |   0.0 | 52.92
Neigh   | 27.201     | 27.201     | 27.201     |   0.0 | 44.64
Comm    | 0.54066    | 0.54066    | 0.54066    |   0.0 |  0.89
Output  | 0.00028706 | 0.00028706 | 0.00028706 |   0.0 |  0.00
Modify  | 0.74367    | 0.74367    | 0.74367    |   0.0 |  1.22
Other   |            | 0.2027     |            |       |  0.33

Nlocal:    19652 ave 19652 max 19652 min
Histogram: 1 0 0 0 0 0 0 0 0 0
Nghost:    15808 ave 15808 max 15808 min
Histogram: 1 0 0 0 0 0 0 0 0 0
Neighs:    1.02721e+06 ave 1.02721e+06 max 1.02721e+06 min
Histogram: 1 0 0 0 0 0 0 0 0 0

Total # of neighbors = 1027208
Ave neighs/atom = 52.2699
Neighbor list builds = 495
Dangerous builds not checked
Setting up Verlet run ...
  Unit style    : metal
  Current step  : 62495
  Time step     : 0.001
Per MPI rank memory allocation (min/avg/max) = 18.19 | 18.19 | 18.19 Mbytes
Step Temp Press TotEng PotEng Enthalpy 
   62495    1850.8216   -119.14041   -109522.98   -114224.23   -109558.77 
   64000    1843.9839   -987.92947   -109613.99   -114297.87   -109911.08 
Loop time of 175.057 on 1 procs for 1505 steps with 19652 atoms

Performance: 0.743 ns/day, 32.310 hours/ns, 8.597 timesteps/s
99.9% CPU use with 1 MPI tasks x no OpenMP threads

MPI task timing breakdown:
Section |  min time  |  avg time  |  max time  |%varavg| %total
---------------------------------------------------------------
Pair    | 90.958     | 90.958     | 90.958     |   0.0 | 51.96
Neigh   | 79.759     | 79.759     | 79.759     |   0.0 | 45.56
Comm    | 1.5591     | 1.5591     | 1.5591     |   0.0 |  0.89
Output  | 0.050766   | 0.050766   | 0.050766   |   0.0 |  0.03
Modify  | 2.14       | 2.14       | 2.14       |   0.0 |  1.22
Other   |            | 0.5892     |            |       |  0.34

Nlocal:    19652 ave 19652 max 19652 min
Histogram: 1 0 0 0 0 0 0 0 0 0
Nghost:    15716 ave 15716 max 15716 min
Histogram: 1 0 0 0 0 0 0 0 0 0
Neighs:    1.02621e+06 ave 1.02621e+06 max 1.02621e+06 min
Histogram: 1 0 0 0 0 0 0 0 0 0

Total # of neighbors = 1026207
Ave neighs/atom = 52.219
Neighbor list builds = 1505
Dangerous builds not checked
Setting up Verlet run ...
  Unit style    : metal
  Current step  : 64000
  Time step     : 0.001
Per MPI rank memory allocation (min/avg/max) = 18.19 | 18.19 | 18.19 Mbytes
Step Temp Press TotEng PotEng Enthalpy 
   64000    1843.9839   -987.92947   -109613.99   -114297.87   -109911.08 
   64495    1829.2801   -594.26192   -109848.85   -114495.39    -110027.2 
Loop time of 57.6852 on 1 procs for 495 steps with 19652 atoms

Performance: 0.741 ns/day, 32.371 hours/ns, 8.581 timesteps/s
99.9% CPU use with 1 MPI tasks x no OpenMP threads

MPI task timing breakdown:
Section |  min time  |  avg time  |  max time  |%varavg| %total
---------------------------------------------------------------
Pair    | 29.981     | 29.981     | 29.981     |   0.0 | 51.97
Neigh   | 26.307     | 26.307     | 26.307     |   0.0 | 45.60
Comm    | 0.49739    | 0.49739    | 0.49739    |   0.0 |  0.86
Output  | 0.00026393 | 0.00026393 | 0.00026393 |   0.0 |  0.00
Modify  | 0.70515    | 0.70515    | 0.70515    |   0.0 |  1.22
Other   |            | 0.1944     |            |       |  0.34

Nlocal:    19652 ave 19652 max 19652 min
Histogram: 1 0 0 0 0 0 0 0 0 0
Nghost:    15765 ave 15765 max 15765 min
Histogram: 1 0 0 0 0 0 0 0 0 0
Neighs:    1.02865e+06 ave 1.02865e+06 max 1.02865e+06 min
Histogram: 1 0 0 0 0 0 0 0 0 0

Total # of neighbors = 1028650
Ave neighs/atom = 52.3433
Neighbor list builds = 495
Dangerous builds not checked
Setting up Verlet run ...
  Unit style    : metal
  Current step  : 64495
  Time step     : 0.001
Per MPI rank memory allocation (min/avg/max) = 18.19 | 18.19 | 18.19 Mbytes
Step Temp Press TotEng PotEng Enthalpy 
   64495    1829.2801   -594.26192   -109848.85   -114495.39    -110027.2 
   66000    1790.7173   -584.66968   -109980.53   -114529.12    -110155.9 
Loop time of 191.3 on 1 procs for 1505 steps with 19652 atoms

Performance: 0.680 ns/day, 35.308 hours/ns, 7.867 timesteps/s
99.9% CPU use with 1 MPI tasks x no OpenMP threads

MPI task timing breakdown:
Section |  min time  |  avg time  |  max time  |%varavg| %total
---------------------------------------------------------------
Pair    | 100.88     | 100.88     | 100.88     |   0.0 | 52.73
Neigh   | 85.71      | 85.71      | 85.71      |   0.0 | 44.80
Comm    | 1.6859     | 1.6859     | 1.6859     |   0.0 |  0.88
Output  | 0.053678   | 0.053678   | 0.053678   |   0.0 |  0.03
Modify  | 2.3403     | 2.3403     | 2.3403     |   0.0 |  1.22
Other   |            | 0.6329     |            |       |  0.33

Nlocal:    19652 ave 19652 max 19652 min
Histogram: 1 0 0 0 0 0 0 0 0 0
Nghost:    15790 ave 15790 max 15790 min
Histogram: 1 0 0 0 0 0 0 0 0 0
Neighs:    1.02943e+06 ave 1.02943e+06 max 1.02943e+06 min
Histogram: 1 0 0 0 0 0 0 0 0 0

Total # of neighbors = 1029431
Ave neighs/atom = 52.383
Neighbor list builds = 1505
Dangerous builds not checked
Setting up Verlet run ...
  Unit style    : metal
  Current step  : 66000
  Time step     : 0.001
Per MPI rank memory allocation (min/avg/max) = 18.19 | 18.19 | 18.19 Mbytes
Step Temp Press TotEng PotEng Enthalpy 
   66000    1790.7173   -584.66968   -109980.53   -114529.12    -110155.9 
   66495    1759.4862   -492.91338   -110139.47   -114608.72   -110287.14 
Loop time of 58.9122 on 1 procs for 495 steps with 19652 atoms

Performance: 0.726 ns/day, 33.060 hours/ns, 8.402 timesteps/s
99.9% CPU use with 1 MPI tasks x no OpenMP threads

MPI task timing breakdown:
Section |  min time  |  avg time  |  max time  |%varavg| %total
---------------------------------------------------------------
Pair    | 30.829     | 30.829     | 30.829     |   0.0 | 52.33
Neigh   | 26.661     | 26.661     | 26.661     |   0.0 | 45.25
Comm    | 0.50836    | 0.50836    | 0.50836    |   0.0 |  0.86
Output  | 0.00023508 | 0.00023508 | 0.00023508 |   0.0 |  0.00
Modify  | 0.71628    | 0.71628    | 0.71628    |   0.0 |  1.22
Other   |            | 0.1974     |            |       |  0.34

Nlocal:    19652 ave 19652 max 19652 min
Histogram: 1 0 0 0 0 0 0 0 0 0
Nghost:    15759 ave 15759 max 15759 min
Histogram: 1 0 0 0 0 0 0 0 0 0
Neighs:    1.0311e+06 ave 1.0311e+06 max 1.0311e+06 min
Histogram: 1 0 0 0 0 0 0 0 0 0

Total # of neighbors = 1031105
Ave neighs/atom = 52.4682
Neighbor list builds = 495
Dangerous builds not checked
Setting up Verlet run ...
  Unit style    : metal
  Current step  : 66495
  Time step     : 0.001
Per MPI rank memory allocation (min/avg/max) = 18.19 | 18.19 | 18.19 Mbytes
Step Temp Press TotEng PotEng Enthalpy 
   66495    1759.4862   -492.91338   -110139.47   -114608.72   -110287.14 
   68000    1754.3427   -797.86708   -110272.45   -114728.64   -110511.52 
Loop time of 189.755 on 1 procs for 1505 steps with 19652 atoms

Performance: 0.685 ns/day, 35.023 hours/ns, 7.931 timesteps/s
99.9% CPU use with 1 MPI tasks x no OpenMP threads

MPI task timing breakdown:
Section |  min time  |  avg time  |  max time  |%varavg| %total
---------------------------------------------------------------
Pair    | 100.42     | 100.42     | 100.42     |   0.0 | 52.92
Neigh   | 84.701     | 84.701     | 84.701     |   0.0 | 44.64
Comm    | 1.6485     | 1.6485     | 1.6485     |   0.0 |  0.87
Output  | 0.061635   | 0.061635   | 0.061635   |   0.0 |  0.03
Modify  | 2.2971     | 2.2971     | 2.2971     |   0.0 |  1.21
Other   |            | 0.6238     |            |       |  0.33

Nlocal:    19652 ave 19652 max 19652 min
Histogram: 1 0 0 0 0 0 0 0 0 0
Nghost:    15826 ave 15826 max 15826 min
Histogram: 1 0 0 0 0 0 0 0 0 0
Neighs:    1.03129e+06 ave 1.03129e+06 max 1.03129e+06 min
Histogram: 1 0 0 0 0 0 0 0 0 0

Total # of neighbors = 1031288
Ave neighs/atom = 52.4775
Neighbor list builds = 1505
Dangerous builds not checked
Setting up Verlet run ...
  Unit style    : metal
  Current step  : 68000
  Time step     : 0.001
Per MPI rank memory allocation (min/avg/max) = 18.19 | 18.19 | 18.19 Mbytes
Step Temp Press TotEng PotEng Enthalpy 
   68000    1754.3427   -797.86708   -110272.45   -114728.64   -110511.52 
   68495    1713.6887   -388.52045   -110469.76   -114822.68      -110586 
Loop time of 65.9498 on 1 procs for 495 steps with 19652 atoms

Performance: 0.648 ns/day, 37.009 hours/ns, 7.506 timesteps/s
99.9% CPU use with 1 MPI tasks x no OpenMP threads

MPI task timing breakdown:
Section |  min time  |  avg time  |  max time  |%varavg| %total
---------------------------------------------------------------
Pair    | 35.164     | 35.164     | 35.164     |   0.0 | 53.32
Neigh   | 29.158     | 29.158     | 29.158     |   0.0 | 44.21
Comm    | 0.58325    | 0.58325    | 0.58325    |   0.0 |  0.88
Output  | 0.0003221  | 0.0003221  | 0.0003221  |   0.0 |  0.00
Modify  | 0.82373    | 0.82373    | 0.82373    |   0.0 |  1.25
Other   |            | 0.2203     |            |       |  0.33

Nlocal:    19652 ave 19652 max 19652 min
Histogram: 1 0 0 0 0 0 0 0 0 0
Nghost:    15745 ave 15745 max 15745 min
Histogram: 1 0 0 0 0 0 0 0 0 0
Neighs:    1.03298e+06 ave 1.03298e+06 max 1.03298e+06 min
Histogram: 1 0 0 0 0 0 0 0 0 0

Total # of neighbors = 1032983
Ave neighs/atom = 52.5638
Neighbor list builds = 495
Dangerous builds not checked
Setting up Verlet run ...
  Unit style    : metal
  Current step  : 68495
  Time step     : 0.001
Per MPI rank memory allocation (min/avg/max) = 18.19 | 18.19 | 18.19 Mbytes
Step Temp Press TotEng PotEng Enthalpy 
   68495    1713.6887   -388.52045   -110469.76   -114822.68      -110586 
   70000    1695.1965    1045.1745   -110644.03   -114949.98   -110332.34 
Loop time of 192.697 on 1 procs for 1505 steps with 19652 atoms

Performance: 0.675 ns/day, 35.566 hours/ns, 7.810 timesteps/s
99.9% CPU use with 1 MPI tasks x no OpenMP threads

MPI task timing breakdown:
Section |  min time  |  avg time  |  max time  |%varavg| %total
---------------------------------------------------------------
Pair    | 102.19     | 102.19     | 102.19     |   0.0 | 53.03
Neigh   | 85.736     | 85.736     | 85.736     |   0.0 | 44.49
Comm    | 1.7205     | 1.7205     | 1.7205     |   0.0 |  0.89
Output  | 0.05188    | 0.05188    | 0.05188    |   0.0 |  0.03
Modify  | 2.359      | 2.359      | 2.359      |   0.0 |  1.22
Other   |            | 0.6435     |            |       |  0.33

Nlocal:    19652 ave 19652 max 19652 min
Histogram: 1 0 0 0 0 0 0 0 0 0
Nghost:    15820 ave 15820 max 15820 min
Histogram: 1 0 0 0 0 0 0 0 0 0
Neighs:    1.03714e+06 ave 1.03714e+06 max 1.03714e+06 min
Histogram: 1 0 0 0 0 0 0 0 0 0

Total # of neighbors = 1037135
Ave neighs/atom = 52.775
Neighbor list builds = 1505
Dangerous builds not checked
Setting up Verlet run ...
  Unit style    : metal
  Current step  : 70000
  Time step     : 0.001
Per MPI rank memory allocation (min/avg/max) = 18.19 | 18.19 | 18.19 Mbytes
Step Temp Press TotEng PotEng Enthalpy 
   70000    1695.1965    1045.1745   -110644.03   -114949.98   -110332.34 
   70495    1679.8265   -298.93914   -110852.12   -115119.03   -110941.33 
Loop time of 64.8205 on 1 procs for 495 steps with 19652 atoms

Performance: 0.660 ns/day, 36.375 hours/ns, 7.636 timesteps/s
99.9% CPU use with 1 MPI tasks x no OpenMP threads

MPI task timing breakdown:
Section |  min time  |  avg time  |  max time  |%varavg| %total
---------------------------------------------------------------
Pair    | 34.65      | 34.65      | 34.65      |   0.0 | 53.46
Neigh   | 28.581     | 28.581     | 28.581     |   0.0 | 44.09
Comm    | 0.57507    | 0.57507    | 0.57507    |   0.0 |  0.89
Output  | 0.00036502 | 0.00036502 | 0.00036502 |   0.0 |  0.00
Modify  | 0.79868    | 0.79868    | 0.79868    |   0.0 |  1.23
Other   |            | 0.2153     |            |       |  0.33

Nlocal:    19652 ave 19652 max 19652 min
Histogram: 1 0 0 0 0 0 0 0 0 0
Nghost:    15780 ave 15780 max 15780 min
Histogram: 1 0 0 0 0 0 0 0 0 0
Neighs:    1.03635e+06 ave 1.03635e+06 max 1.03635e+06 min
Histogram: 1 0 0 0 0 0 0 0 0 0

Total # of neighbors = 1036348
Ave neighs/atom = 52.735
Neighbor list builds = 495
Dangerous builds not checked
Setting up Verlet run ...
  Unit style    : metal
  Current step  : 70495
  Time step     : 0.001
Per MPI rank memory allocation (min/avg/max) = 18.19 | 18.19 | 18.19 Mbytes
Step Temp Press TotEng PotEng Enthalpy 
   70495    1679.8265   -298.93914   -110852.12   -115119.03   -110941.33 
   72000    1649.4071   -1381.9855   -110999.91   -115189.55   -111412.66 
Loop time of 194.331 on 1 procs for 1505 steps with 19652 atoms

Performance: 0.669 ns/day, 35.868 hours/ns, 7.745 timesteps/s
99.9% CPU use with 1 MPI tasks x no OpenMP threads

MPI task timing breakdown:
Section |  min time  |  avg time  |  max time  |%varavg| %total
---------------------------------------------------------------
Pair    | 103.62     | 103.62     | 103.62     |   0.0 | 53.32
Neigh   | 85.854     | 85.854     | 85.854     |   0.0 | 44.18
Comm    | 1.7582     | 1.7582     | 1.7582     |   0.0 |  0.90
Output  | 0.066772   | 0.066772   | 0.066772   |   0.0 |  0.03
Modify  | 2.3774     | 2.3774     | 2.3774     |   0.0 |  1.22
Other   |            | 0.6513     |            |       |  0.34

Nlocal:    19652 ave 19652 max 19652 min
Histogram: 1 0 0 0 0 0 0 0 0 0
Nghost:    15737 ave 15737 max 15737 min
Histogram: 1 0 0 0 0 0 0 0 0 0
Neighs:    1.03536e+06 ave 1.03536e+06 max 1.03536e+06 min
Histogram: 1 0 0 0 0 0 0 0 0 0

Total # of neighbors = 1035356
Ave neighs/atom = 52.6845
Neighbor list builds = 1505
Dangerous builds not checked
Setting up Verlet run ...
  Unit style    : metal
  Current step  : 72000
  Time step     : 0.001
Per MPI rank memory allocation (min/avg/max) = 18.19 | 18.19 | 18.19 Mbytes
Step Temp Press TotEng PotEng Enthalpy 
   72000    1649.4071   -1381.9855   -110999.91   -115189.55   -111412.66 
   72495    1608.7866   -279.11092   -111188.95   -115275.41   -111272.13 
Loop time of 62.0492 on 1 procs for 495 steps with 19652 atoms

Performance: 0.689 ns/day, 34.820 hours/ns, 7.978 timesteps/s
100.0% CPU use with 1 MPI tasks x no OpenMP threads

MPI task timing breakdown:
Section |  min time  |  avg time  |  max time  |%varavg| %total
---------------------------------------------------------------
Pair    | 32.87      | 32.87      | 32.87      |   0.0 | 52.97
Neigh   | 27.655     | 27.655     | 27.655     |   0.0 | 44.57
Comm    | 0.54835    | 0.54835    | 0.54835    |   0.0 |  0.88
Output  | 0.00028086 | 0.00028086 | 0.00028086 |   0.0 |  0.00
Modify  | 0.76329    | 0.76329    | 0.76329    |   0.0 |  1.23
Other   |            | 0.212      |            |       |  0.34

Nlocal:    19652 ave 19652 max 19652 min
Histogram: 1 0 0 0 0 0 0 0 0 0
Nghost:    15761 ave 15761 max 15761 min
Histogram: 1 0 0 0 0 0 0 0 0 0
Neighs:    1.03761e+06 ave 1.03761e+06 max 1.03761e+06 min
Histogram: 1 0 0 0 0 0 0 0 0 0

Total # of neighbors = 1037608
Ave neighs/atom = 52.7991
Neighbor list builds = 495
Dangerous builds not checked
Setting up Verlet run ...
  Unit style    : metal
  Current step  : 72495
  Time step     : 0.001
Per MPI rank memory allocation (min/avg/max) = 18.19 | 18.19 | 18.19 Mbytes
Step Temp Press TotEng PotEng Enthalpy 
   72495    1608.7866   -279.11092   -111188.95   -115275.41   -111272.13 
   74000    1578.4567    609.36668   -111365.21   -115374.64   -111183.98 
Loop time of 196.997 on 1 procs for 1505 steps with 19652 atoms

Performance: 0.660 ns/day, 36.360 hours/ns, 7.640 timesteps/s
99.9% CPU use with 1 MPI tasks x no OpenMP threads

MPI task timing breakdown:
Section |  min time  |  avg time  |  max time  |%varavg| %total
---------------------------------------------------------------
Pair    | 104.75     | 104.75     | 104.75     |   0.0 | 53.18
Neigh   | 87.338     | 87.338     | 87.338     |   0.0 | 44.33
Comm    | 1.7581     | 1.7581     | 1.7581     |   0.0 |  0.89
Output  | 0.06626    | 0.06626    | 0.06626    |   0.0 |  0.03
Modify  | 2.4257     | 2.4257     | 2.4257     |   0.0 |  1.23
Other   |            | 0.6552     |            |       |  0.33

Nlocal:    19652 ave 19652 max 19652 min
Histogram: 1 0 0 0 0 0 0 0 0 0
Nghost:    15775 ave 15775 max 15775 min
Histogram: 1 0 0 0 0 0 0 0 0 0
Neighs:    1.04048e+06 ave 1.04048e+06 max 1.04048e+06 min
Histogram: 1 0 0 0 0 0 0 0 0 0

Total # of neighbors = 1040480
Ave neighs/atom = 52.9452
Neighbor list builds = 1505
Dangerous builds not checked
Setting up Verlet run ...
  Unit style    : metal
  Current step  : 74000
  Time step     : 0.001
Per MPI rank memory allocation (min/avg/max) = 18.19 | 18.19 | 18.19 Mbytes
Step Temp Press TotEng PotEng Enthalpy 
   74000    1578.4567    609.36668   -111365.21   -115374.64   -111183.98 
   74495    1577.2165    622.34217   -111538.33    -115544.6   -111353.49 
Loop time of 60.8982 on 1 procs for 495 steps with 19652 atoms

Performance: 0.702 ns/day, 34.174 hours/ns, 8.128 timesteps/s
99.9% CPU use with 1 MPI tasks x no OpenMP threads

MPI task timing breakdown:
Section |  min time  |  avg time  |  max time  |%varavg| %total
---------------------------------------------------------------
Pair    | 32.229     | 32.229     | 32.229     |   0.0 | 52.92
Neigh   | 27.169     | 27.169     | 27.169     |   0.0 | 44.61
Comm    | 0.54637    | 0.54637    | 0.54637    |   0.0 |  0.90
Output  | 0.00026512 | 0.00026512 | 0.00026512 |   0.0 |  0.00
Modify  | 0.74554    | 0.74554    | 0.74554    |   0.0 |  1.22
Other   |            | 0.2083     |            |       |  0.34

Nlocal:    19652 ave 19652 max 19652 min
Histogram: 1 0 0 0 0 0 0 0 0 0
Nghost:    15818 ave 15818 max 15818 min
Histogram: 1 0 0 0 0 0 0 0 0 0
Neighs:    1.04253e+06 ave 1.04253e+06 max 1.04253e+06 min
Histogram: 1 0 0 0 0 0 0 0 0 0

Total # of neighbors = 1042526
Ave neighs/atom = 53.0494
Neighbor list builds = 495
Dangerous builds not checked
Setting up Verlet run ...
  Unit style    : metal
  Current step  : 74495
  Time step     : 0.001
Per MPI rank memory allocation (min/avg/max) = 18.19 | 18.19 | 18.19 Mbytes
Step Temp Press TotEng PotEng Enthalpy 
   74495    1577.2165    622.34217   -111538.33    -115544.6   -111353.49 
   76000    1555.0799    1424.0441   -111638.44   -115588.49   -111215.88 
Loop time of 188.968 on 1 procs for 1505 steps with 19652 atoms

Performance: 0.688 ns/day, 34.878 hours/ns, 7.964 timesteps/s
99.8% CPU use with 1 MPI tasks x no OpenMP threads

MPI task timing breakdown:
Section |  min time  |  avg time  |  max time  |%varavg| %total
---------------------------------------------------------------
Pair    | 100.56     | 100.56     | 100.56     |   0.0 | 53.21
Neigh   | 83.731     | 83.731     | 83.731     |   0.0 | 44.31
Comm    | 1.6878     | 1.6878     | 1.6878     |   0.0 |  0.89
Output  | 0.055631   | 0.055631   | 0.055631   |   0.0 |  0.03
Modify  | 2.3033     | 2.3033     | 2.3033     |   0.0 |  1.22
Other   |            | 0.632      |            |       |  0.33

Nlocal:    19652 ave 19652 max 19652 min
Histogram: 1 0 0 0 0 0 0 0 0 0
Nghost:    15839 ave 15839 max 15839 min
Histogram: 1 0 0 0 0 0 0 0 0 0
Neighs:    1.0441e+06 ave 1.0441e+06 max 1.0441e+06 min
Histogram: 1 0 0 0 0 0 0 0 0 0

Total # of neighbors = 1044095
Ave neighs/atom = 53.1292
Neighbor list builds = 1505
Dangerous builds not checked
Setting up Verlet run ...
  Unit style    : metal
  Current step  : 76000
  Time step     : 0.001
Per MPI rank memory allocation (min/avg/max) = 18.19 | 18.19 | 18.19 Mbytes
Step Temp Press TotEng PotEng Enthalpy 
   76000    1555.0799    1424.0441   -111638.44   -115588.49   -111215.88 
   76495    1510.5754    124.41241   -111867.35   -115704.35   -111830.42 
Loop time of 64.0147 on 1 procs for 495 steps with 19652 atoms

Performance: 0.668 ns/day, 35.923 hours/ns, 7.733 timesteps/s
99.9% CPU use with 1 MPI tasks x no OpenMP threads

MPI task timing breakdown:
Section |  min time  |  avg time  |  max time  |%varavg| %total
---------------------------------------------------------------
Pair    | 34.062     | 34.062     | 34.062     |   0.0 | 53.21
Neigh   | 28.385     | 28.385     | 28.385     |   0.0 | 44.34
Comm    | 0.56903    | 0.56903    | 0.56903    |   0.0 |  0.89
Output  | 0.00029993 | 0.00029993 | 0.00029993 |   0.0 |  0.00
Modify  | 0.7828     | 0.7828     | 0.7828     |   0.0 |  1.22
Other   |            | 0.2156     |            |       |  0.34

Nlocal:    19652 ave 19652 max 19652 min
Histogram: 1 0 0 0 0 0 0 0 0 0
Nghost:    15832 ave 15832 max 15832 min
Histogram: 1 0 0 0 0 0 0 0 0 0
Neighs:    1.04336e+06 ave 1.04336e+06 max 1.04336e+06 min
Histogram: 1 0 0 0 0 0 0 0 0 0

Total # of neighbors = 1043361
Ave neighs/atom = 53.0918
Neighbor list builds = 495
Dangerous builds not checked
Setting up Verlet run ...
  Unit style    : metal
  Current step  : 76495
  Time step     : 0.001
Per MPI rank memory allocation (min/avg/max) = 18.19 | 18.19 | 18.19 Mbytes
Step Temp Press TotEng PotEng Enthalpy 
   76495    1510.5754    124.41241   -111867.35   -115704.35   -111830.42 
   78000    1498.2521    395.50364    -111955.2   -115760.89   -111837.91 
Loop time of 194.105 on 1 procs for 1505 steps with 19652 atoms

Performance: 0.670 ns/day, 35.826 hours/ns, 7.754 timesteps/s
99.9% CPU use with 1 MPI tasks x no OpenMP threads

MPI task timing breakdown:
Section |  min time  |  avg time  |  max time  |%varavg| %total
---------------------------------------------------------------
Pair    | 103.3      | 103.3      | 103.3      |   0.0 | 53.22
Neigh   | 86         | 86         | 86         |   0.0 | 44.31
Comm    | 1.7136     | 1.7136     | 1.7136     |   0.0 |  0.88
Output  | 0.059489   | 0.059489   | 0.059489   |   0.0 |  0.03
Modify  | 2.3823     | 2.3823     | 2.3823     |   0.0 |  1.23
Other   |            | 0.6448     |            |       |  0.33

Nlocal:    19652 ave 19652 max 19652 min
Histogram: 1 0 0 0 0 0 0 0 0 0
Nghost:    15796 ave 15796 max 15796 min
Histogram: 1 0 0 0 0 0 0 0 0 0
Neighs:    1.04449e+06 ave 1.04449e+06 max 1.04449e+06 min
Histogram: 1 0 0 0 0 0 0 0 0 0

Total # of neighbors = 1044489
Ave neighs/atom = 53.1492
Neighbor list builds = 1505
Dangerous builds not checked
Setting up Verlet run ...
  Unit style    : metal
  Current step  : 78000
  Time step     : 0.001
Per MPI rank memory allocation (min/avg/max) = 18.19 | 18.19 | 18.19 Mbytes
Step Temp Press TotEng PotEng Enthalpy 
   78000    1498.2521    395.50364    -111955.2   -115760.89   -111837.91 
   78495    1463.2017   -51.231712   -112220.23    -115936.9   -112235.42 
Loop time of 63.0547 on 1 procs for 495 steps with 19652 atoms

Performance: 0.678 ns/day, 35.384 hours/ns, 7.850 timesteps/s
99.9% CPU use with 1 MPI tasks x no OpenMP threads

MPI task timing breakdown:
Section |  min time  |  avg time  |  max time  |%varavg| %total
---------------------------------------------------------------
Pair    | 33.383     | 33.383     | 33.383     |   0.0 | 52.94
Neigh   | 28.108     | 28.108     | 28.108     |   0.0 | 44.58
Comm    | 0.56015    | 0.56015    | 0.56015    |   0.0 |  0.89
Output  | 0.00027299 | 0.00027299 | 0.00027299 |   0.0 |  0.00
Modify  | 0.78779    | 0.78779    | 0.78779    |   0.0 |  1.25
Other   |            | 0.2151     |            |       |  0.34

Nlocal:    19652 ave 19652 max 19652 min
Histogram: 1 0 0 0 0 0 0 0 0 0
Nghost:    15787 ave 15787 max 15787 min
Histogram: 1 0 0 0 0 0 0 0 0 0
Neighs:    1.04533e+06 ave 1.04533e+06 max 1.04533e+06 min
Histogram: 1 0 0 0 0 0 0 0 0 0

Total # of neighbors = 1045333
Ave neighs/atom = 53.1922
Neighbor list builds = 495
Dangerous builds not checked
Setting up Verlet run ...
  Unit style    : metal
  Current step  : 78495
  Time step     : 0.001
Per MPI rank memory allocation (min/avg/max) = 18.19 | 18.19 | 18.19 Mbytes
Step Temp Press TotEng PotEng Enthalpy 
   78495    1463.2017   -51.231712   -112220.23    -115936.9   -112235.42 
   80000     1442.835    1406.9947   -112378.03   -116042.96      -111962 
Loop time of 198.757 on 1 procs for 1505 steps with 19652 atoms

Performance: 0.654 ns/day, 36.685 hours/ns, 7.572 timesteps/s
99.9% CPU use with 1 MPI tasks x no OpenMP threads

MPI task timing breakdown:
Section |  min time  |  avg time  |  max time  |%varavg| %total
---------------------------------------------------------------
Pair    | 106.12     | 106.12     | 106.12     |   0.0 | 53.39
Neigh   | 87.654     | 87.654     | 87.654     |   0.0 | 44.10
Comm    | 1.7979     | 1.7979     | 1.7979     |   0.0 |  0.90
Output  | 0.068699   | 0.068699   | 0.068699   |   0.0 |  0.03
Modify  | 2.4592     | 2.4592     | 2.4592     |   0.0 |  1.24
Other   |            | 0.6612     |            |       |  0.33

Nlocal:    19652 ave 19652 max 19652 min
Histogram: 1 0 0 0 0 0 0 0 0 0
Nghost:    15795 ave 15795 max 15795 min
Histogram: 1 0 0 0 0 0 0 0 0 0
Neighs:    1.0485e+06 ave 1.0485e+06 max 1.0485e+06 min
Histogram: 1 0 0 0 0 0 0 0 0 0

Total # of neighbors = 1048503
Ave neighs/atom = 53.3535
Neighbor list builds = 1505
Dangerous builds not checked
Setting up Verlet run ...
  Unit style    : metal
  Current step  : 80000
  Time step     : 0.001
Per MPI rank memory allocation (min/avg/max) = 18.19 | 18.19 | 18.19 Mbytes
Step Temp Press TotEng PotEng Enthalpy 
   80000     1442.835    1406.9947   -112378.03   -116042.96      -111962 
   80495    1412.4658    158.74754   -112579.08   -116166.87    -112532.1 
Loop time of 63.3375 on 1 procs for 495 steps with 19652 atoms

Performance: 0.675 ns/day, 35.543 hours/ns, 7.815 timesteps/s
99.9% CPU use with 1 MPI tasks x no OpenMP threads

MPI task timing breakdown:
Section |  min time  |  avg time  |  max time  |%varavg| %total
---------------------------------------------------------------
Pair    | 33.778     | 33.778     | 33.778     |   0.0 | 53.33
Neigh   | 28.003     | 28.003     | 28.003     |   0.0 | 44.21
Comm    | 0.55882    | 0.55882    | 0.55882    |   0.0 |  0.88
Output  | 0.00025296 | 0.00025296 | 0.00025296 |   0.0 |  0.00
Modify  | 0.78342    | 0.78342    | 0.78342    |   0.0 |  1.24
Other   |            | 0.2144     |            |       |  0.34

Nlocal:    19652 ave 19652 max 19652 min
Histogram: 1 0 0 0 0 0 0 0 0 0
Nghost:    15840 ave 15840 max 15840 min
Histogram: 1 0 0 0 0 0 0 0 0 0
Neighs:    1.04779e+06 ave 1.04779e+06 max 1.04779e+06 min
Histogram: 1 0 0 0 0 0 0 0 0 0

Total # of neighbors = 1047792
Ave neighs/atom = 53.3173
Neighbor list builds = 495
Dangerous builds not checked
Setting up Verlet run ...
  Unit style    : metal
  Current step  : 80495
  Time step     : 0.001
Per MPI rank memory allocation (min/avg/max) = 18.19 | 18.19 | 18.19 Mbytes
Step Temp Press TotEng PotEng Enthalpy 
   80495    1412.4658    158.74754   -112579.08   -116166.87    -112532.1 
   82000    1400.3344   -923.25781   -112741.89   -116298.87   -113015.29 
Loop time of 202.028 on 1 procs for 1505 steps with 19652 atoms

Performance: 0.644 ns/day, 37.288 hours/ns, 7.449 timesteps/s
99.8% CPU use with 1 MPI tasks x no OpenMP threads

MPI task timing breakdown:
Section |  min time  |  avg time  |  max time  |%varavg| %total
---------------------------------------------------------------
Pair    | 107.99     | 107.99     | 107.99     |   0.0 | 53.45
Neigh   | 88.996     | 88.996     | 88.996     |   0.0 | 44.05
Comm    | 1.8092     | 1.8092     | 1.8092     |   0.0 |  0.90
Output  | 0.065824   | 0.065824   | 0.065824   |   0.0 |  0.03
Modify  | 2.4882     | 2.4882     | 2.4882     |   0.0 |  1.23
Other   |            | 0.6755     |            |       |  0.33

Nlocal:    19652 ave 19652 max 19652 min
Histogram: 1 0 0 0 0 0 0 0 0 0
Nghost:    15851 ave 15851 max 15851 min
Histogram: 1 0 0 0 0 0 0 0 0 0
Neighs:    1.04764e+06 ave 1.04764e+06 max 1.04764e+06 min
Histogram: 1 0 0 0 0 0 0 0 0 0

Total # of neighbors = 1047635
Ave neighs/atom = 53.3093
Neighbor list builds = 1505
Dangerous builds not checked
Setting up Verlet run ...
  Unit style    : metal
  Current step  : 82000
  Time step     : 0.001
Per MPI rank memory allocation (min/avg/max) = 18.19 | 18.19 | 18.19 Mbytes
Step Temp Press TotEng PotEng Enthalpy 
   82000    1400.3344   -923.25781   -112741.89   -116298.87   -113015.29 
   82495    1367.5619    -58.35813   -112925.67    -116399.4   -112942.92 
Loop time of 64.7907 on 1 procs for 495 steps with 19652 atoms

Performance: 0.660 ns/day, 36.358 hours/ns, 7.640 timesteps/s
99.9% CPU use with 1 MPI tasks x no OpenMP threads

MPI task timing breakdown:
Section |  min time  |  avg time  |  max time  |%varavg| %total
---------------------------------------------------------------
Pair    | 34.752     | 34.752     | 34.752     |   0.0 | 53.64
Neigh   | 28.424     | 28.424     | 28.424     |   0.0 | 43.87
Comm    | 0.59211    | 0.59211    | 0.59211    |   0.0 |  0.91
Output  | 0.00025702 | 0.00025702 | 0.00025702 |   0.0 |  0.00
Modify  | 0.80241    | 0.80241    | 0.80241    |   0.0 |  1.24
Other   |            | 0.2201     |            |       |  0.34

Nlocal:    19652 ave 19652 max 19652 min
Histogram: 1 0 0 0 0 0 0 0 0 0
Nghost:    15841 ave 15841 max 15841 min
Histogram: 1 0 0 0 0 0 0 0 0 0
Neighs:    1.05074e+06 ave 1.05074e+06 max 1.05074e+06 min
Histogram: 1 0 0 0 0 0 0 0 0 0

Total # of neighbors = 1050744
Ave neighs/atom = 53.4675
Neighbor list builds = 495
Dangerous builds not checked
Setting up Verlet run ...
  Unit style    : metal
  Current step  : 82495
  Time step     : 0.001
Per MPI rank memory allocation (min/avg/max) = 18.19 | 18.19 | 18.19 Mbytes
Step Temp Press TotEng PotEng Enthalpy 
   82495    1367.5619    -58.35813   -112925.67    -116399.4   -112942.92 
   84000    1356.5106   -796.46307    -113032.2   -116477.86   -113267.58 
Loop time of 196.767 on 1 procs for 1505 steps with 19652 atoms

Performance: 0.661 ns/day, 36.317 hours/ns, 7.649 timesteps/s
99.8% CPU use with 1 MPI tasks x no OpenMP threads

MPI task timing breakdown:
Section |  min time  |  avg time  |  max time  |%varavg| %total
---------------------------------------------------------------
Pair    | 105.08     | 105.08     | 105.08     |   0.0 | 53.40
Neigh   | 86.795     | 86.795     | 86.795     |   0.0 | 44.11
Comm    | 1.747      | 1.747      | 1.747      |   0.0 |  0.89
Output  | 0.06354    | 0.06354    | 0.06354    |   0.0 |  0.03
Modify  | 2.4242     | 2.4242     | 2.4242     |   0.0 |  1.23
Other   |            | 0.6545     |            |       |  0.33

Nlocal:    19652 ave 19652 max 19652 min
Histogram: 1 0 0 0 0 0 0 0 0 0
Nghost:    15826 ave 15826 max 15826 min
Histogram: 1 0 0 0 0 0 0 0 0 0
Neighs:    1.05082e+06 ave 1.05082e+06 max 1.05082e+06 min
Histogram: 1 0 0 0 0 0 0 0 0 0

Total # of neighbors = 1050815
Ave neighs/atom = 53.4711
Neighbor list builds = 1505
Dangerous builds not checked
Setting up Verlet run ...
  Unit style    : metal
  Current step  : 84000
  Time step     : 0.001
Per MPI rank memory allocation (min/avg/max) = 18.19 | 18.19 | 18.19 Mbytes
Step Temp Press TotEng PotEng Enthalpy 
   84000    1356.5106   -796.46307    -113032.2   -116477.86   -113267.58 
   84495     1317.291      851.283   -113277.63   -116623.67   -113026.81 
Loop time of 68.4862 on 1 procs for 495 steps with 19652 atoms

Performance: 0.624 ns/day, 38.432 hours/ns, 7.228 timesteps/s
99.9% CPU use with 1 MPI tasks x no OpenMP threads

MPI task timing breakdown:
Section |  min time  |  avg time  |  max time  |%varavg| %total
---------------------------------------------------------------
Pair    | 36.964     | 36.964     | 36.964     |   0.0 | 53.97
Neigh   | 29.817     | 29.817     | 29.817     |   0.0 | 43.54
Comm    | 0.61694    | 0.61694    | 0.61694    |   0.0 |  0.90
Output  | 0.00027299 | 0.00027299 | 0.00027299 |   0.0 |  0.00
Modify  | 0.8553     | 0.8553     | 0.8553     |   0.0 |  1.25
Other   |            | 0.2326     |            |       |  0.34

Nlocal:    19652 ave 19652 max 19652 min
Histogram: 1 0 0 0 0 0 0 0 0 0
Nghost:    15850 ave 15850 max 15850 min
Histogram: 1 0 0 0 0 0 0 0 0 0
Neighs:    1.05431e+06 ave 1.05431e+06 max 1.05431e+06 min
Histogram: 1 0 0 0 0 0 0 0 0 0

Total # of neighbors = 1054308
Ave neighs/atom = 53.6489
Neighbor list builds = 495
Dangerous builds not checked
Setting up Verlet run ...
  Unit style    : metal
  Current step  : 84495
  Time step     : 0.001
Per MPI rank memory allocation (min/avg/max) = 18.19 | 18.19 | 18.19 Mbytes
Step Temp Press TotEng PotEng Enthalpy 
   84495     1317.291      851.283   -113277.63   -116623.67   -113026.81 
   86000    1304.2314   -317.24637   -113408.63    -116721.5   -113502.18 
Loop time of 198.915 on 1 procs for 1505 steps with 19652 atoms

Performance: 0.654 ns/day, 36.714 hours/ns, 7.566 timesteps/s
99.9% CPU use with 1 MPI tasks x no OpenMP threads

MPI task timing breakdown:
Section |  min time  |  avg time  |  max time  |%varavg| %total
---------------------------------------------------------------
Pair    | 106.32     | 106.32     | 106.32     |   0.0 | 53.45
Neigh   | 87.619     | 87.619     | 87.619     |   0.0 | 44.05
Comm    | 1.781      | 1.781      | 1.781      |   0.0 |  0.90
Output  | 0.068218   | 0.068218   | 0.068218   |   0.0 |  0.03
Modify  | 2.4555     | 2.4555     | 2.4555     |   0.0 |  1.23
Other   |            | 0.6665     |            |       |  0.34

Nlocal:    19652 ave 19652 max 19652 min
Histogram: 1 0 0 0 0 0 0 0 0 0
Nghost:    15850 ave 15850 max 15850 min
Histogram: 1 0 0 0 0 0 0 0 0 0
Neighs:    1.05386e+06 ave 1.05386e+06 max 1.05386e+06 min
Histogram: 1 0 0 0 0 0 0 0 0 0

Total # of neighbors = 1053858
Ave neighs/atom = 53.626
Neighbor list builds = 1505
Dangerous builds not checked
Setting up Verlet run ...
  Unit style    : metal
  Current step  : 86000
  Time step     : 0.001
Per MPI rank memory allocation (min/avg/max) = 18.19 | 18.19 | 18.19 Mbytes
Step Temp Press TotEng PotEng Enthalpy 
   86000    1304.2314   -317.24637   -113408.63    -116721.5   -113502.18 
   86495    1267.9732   -81.128957   -113602.08   -116822.85   -113625.99 
Loop time of 65.9602 on 1 procs for 495 steps with 19652 atoms

Performance: 0.648 ns/day, 37.015 hours/ns, 7.505 timesteps/s
99.9% CPU use with 1 MPI tasks x no OpenMP threads

MPI task timing breakdown:
Section |  min time  |  avg time  |  max time  |%varavg| %total
---------------------------------------------------------------
Pair    | 35.23      | 35.23      | 35.23      |   0.0 | 53.41
Neigh   | 29.09      | 29.09      | 29.09      |   0.0 | 44.10
Comm    | 0.59213    | 0.59213    | 0.59213    |   0.0 |  0.90
Output  | 0.00021791 | 0.00021791 | 0.00021791 |   0.0 |  0.00
Modify  | 0.82518    | 0.82518    | 0.82518    |   0.0 |  1.25
Other   |            | 0.2229     |            |       |  0.34

Nlocal:    19652 ave 19652 max 19652 min
Histogram: 1 0 0 0 0 0 0 0 0 0
Nghost:    15864 ave 15864 max 15864 min
Histogram: 1 0 0 0 0 0 0 0 0 0
Neighs:    1.05512e+06 ave 1.05512e+06 max 1.05512e+06 min
Histogram: 1 0 0 0 0 0 0 0 0 0

Total # of neighbors = 1055124
Ave neighs/atom = 53.6904
Neighbor list builds = 495
Dangerous builds not checked
Setting up Verlet run ...
  Unit style    : metal
  Current step  : 86495
  Time step     : 0.001
Per MPI rank memory allocation (min/avg/max) = 18.19 | 18.19 | 18.19 Mbytes
Step Temp Press TotEng PotEng Enthalpy 
   86495    1267.9732   -81.128957   -113602.08   -116822.85   -113625.99 
   88000    1236.0563    312.13714   -113811.48   -116951.18   -113719.64 
Loop time of 200.205 on 1 procs for 1505 steps with 19652 atoms

Performance: 0.649 ns/day, 36.952 hours/ns, 7.517 timesteps/s
99.9% CPU use with 1 MPI tasks x no OpenMP threads

MPI task timing breakdown:
Section |  min time  |  avg time  |  max time  |%varavg| %total
---------------------------------------------------------------
Pair    | 107.38     | 107.38     | 107.38     |   0.0 | 53.64
Neigh   | 87.773     | 87.773     | 87.773     |   0.0 | 43.84
Comm    | 1.8243     | 1.8243     | 1.8243     |   0.0 |  0.91
Output  | 0.043063   | 0.043063   | 0.043063   |   0.0 |  0.02
Modify  | 2.4972     | 2.4972     | 2.4972     |   0.0 |  1.25
Other   |            | 0.6831     |            |       |  0.34

Nlocal:    19652 ave 19652 max 19652 min
Histogram: 1 0 0 0 0 0 0 0 0 0
Nghost:    15867 ave 15867 max 15867 min
Histogram: 1 0 0 0 0 0 0 0 0 0
Neighs:    1.05778e+06 ave 1.05778e+06 max 1.05778e+06 min
Histogram: 1 0 0 0 0 0 0 0 0 0

Total # of neighbors = 1057782
Ave neighs/atom = 53.8257
Neighbor list builds = 1505
Dangerous builds not checked
Setting up Verlet run ...
  Unit style    : metal
  Current step  : 88000
  Time step     : 0.001
Per MPI rank memory allocation (min/avg/max) = 18.19 | 18.19 | 18.19 Mbytes
Step Temp Press TotEng PotEng Enthalpy 
   88000    1236.0563    312.13714   -113811.48   -116951.18   -113719.64 
   88495    1221.2185   -37.220609   -113954.59    -117056.6   -113965.54 
Loop time of 65.9284 on 1 procs for 495 steps with 19652 atoms

Performance: 0.649 ns/day, 36.997 hours/ns, 7.508 timesteps/s
99.9% CPU use with 1 MPI tasks x no OpenMP threads

MPI task timing breakdown:
Section |  min time  |  avg time  |  max time  |%varavg| %total
---------------------------------------------------------------
Pair    | 35.529     | 35.529     | 35.529     |   0.0 | 53.89
Neigh   | 28.761     | 28.761     | 28.761     |   0.0 | 43.62
Comm    | 0.59748    | 0.59748    | 0.59748    |   0.0 |  0.91
Output  | 0.00027919 | 0.00027919 | 0.00027919 |   0.0 |  0.00
Modify  | 0.81122    | 0.81122    | 0.81122    |   0.0 |  1.23
Other   |            | 0.2292     |            |       |  0.35

Nlocal:    19652 ave 19652 max 19652 min
Histogram: 1 0 0 0 0 0 0 0 0 0
Nghost:    15909 ave 15909 max 15909 min
Histogram: 1 0 0 0 0 0 0 0 0 0
Neighs:    1.05799e+06 ave 1.05799e+06 max 1.05799e+06 min
Histogram: 1 0 0 0 0 0 0 0 0 0

Total # of neighbors = 1057991
Ave neighs/atom = 53.8363
Neighbor list builds = 495
Dangerous builds not checked
Setting up Verlet run ...
  Unit style    : metal
  Current step  : 88495
  Time step     : 0.001
Per MPI rank memory allocation (min/avg/max) = 18.19 | 18.19 | 18.19 Mbytes
Step Temp Press TotEng PotEng Enthalpy 
   88495    1221.2185   -37.220609   -113954.59    -117056.6   -113965.54 
   90000    1188.2464   -977.95984    -114123.2   -117141.45   -114410.99 
Loop time of 193.205 on 1 procs for 1505 steps with 19652 atoms

Performance: 0.673 ns/day, 35.660 hours/ns, 7.790 timesteps/s
99.9% CPU use with 1 MPI tasks x no OpenMP threads

MPI task timing breakdown:
Section |  min time  |  avg time  |  max time  |%varavg| %total
---------------------------------------------------------------
Pair    | 103.41     | 103.41     | 103.41     |   0.0 | 53.52
Neigh   | 85.005     | 85.005     | 85.005     |   0.0 | 44.00
Comm    | 1.718      | 1.718      | 1.718      |   0.0 |  0.89
Output  | 0.043457   | 0.043457   | 0.043457   |   0.0 |  0.02
Modify  | 2.386      | 2.386      | 2.386      |   0.0 |  1.23
Other   |            | 0.6448     |            |       |  0.33

Nlocal:    19652 ave 19652 max 19652 min
Histogram: 1 0 0 0 0 0 0 0 0 0
Nghost:    15830 ave 15830 max 15830 min
Histogram: 1 0 0 0 0 0 0 0 0 0
Neighs:    1.05756e+06 ave 1.05756e+06 max 1.05756e+06 min
Histogram: 1 0 0 0 0 0 0 0 0 0

Total # of neighbors = 1057555
Ave neighs/atom = 53.8141
Neighbor list builds = 1505
Dangerous builds not checked
Setting up Verlet run ...
  Unit style    : metal
  Current step  : 90000
  Time step     : 0.001
Per MPI rank memory allocation (min/avg/max) = 18.19 | 18.19 | 18.19 Mbytes
Step Temp Press TotEng PotEng Enthalpy 
   90000    1188.2464   -977.95984    -114123.2   -117141.45   -114410.99 
   90495    1175.5128    1015.6236    -114297.3   -117283.21   -113999.43 
Loop time of 61.8652 on 1 procs for 495 steps with 19652 atoms

Performance: 0.691 ns/day, 34.717 hours/ns, 8.001 timesteps/s
100.0% CPU use with 1 MPI tasks x no OpenMP threads

MPI task timing breakdown:
Section |  min time  |  avg time  |  max time  |%varavg| %total
---------------------------------------------------------------
Pair    | 33.13      | 33.13      | 33.13      |   0.0 | 53.55
Neigh   | 27.212     | 27.212     | 27.212     |   0.0 | 43.99
Comm    | 0.54819    | 0.54819    | 0.54819    |   0.0 |  0.89
Output  | 0.00033593 | 0.00033593 | 0.00033593 |   0.0 |  0.00
Modify  | 0.76429    | 0.76429    | 0.76429    |   0.0 |  1.24
Other   |            | 0.2107     |            |       |  0.34

[...]
Setting up Verlet run ...
  Unit style    : metal
  Current step  : 120000
  Time step     : 0.001
Per MPI rank memory allocation (min/avg/max) = 18.19 | 18.19 | 18.19 Mbytes
Step Temp Press TotEng PotEng Enthalpy 
  120000    447.54707   -191.43379   -118837.57   -119974.38   -118892.81 
  120495    421.65011   -218.90352   -118999.73   -120070.76   -119062.87 
Loop time of 70.6312 on 1 procs for 495 steps with 19652 atoms

Performance: 0.606 ns/day, 39.636 hours/ns, 7.008 timesteps/s
95.5% CPU use with 1 MPI tasks x no OpenMP threads

MPI task timing breakdown:
Section |  min time  |  avg time  |  max time  |%varavg| %total
---------------------------------------------------------------
Pair    | 38.199     | 38.199     | 38.199     |   0.0 | 54.08
Neigh   | 30.672     | 30.672     | 30.672     |   0.0 | 43.43
Comm    | 0.6422     | 0.6422     | 0.6422     |   0.0 |  0.91
Output  | 0.00046587 | 0.00046587 | 0.00046587 |   0.0 |  0.00
Modify  | 0.88051    | 0.88051    | 0.88051    |   0.0 |  1.25
Other   |            | 0.2366     |            |       |  0.33

Nlocal:    19652 ave 19652 max 19652 min
Histogram: 1 0 0 0 0 0 0 0 0 0
Nghost:    15984 ave 15984 max 15984 min
Histogram: 1 0 0 0 0 0 0 0 0 0
Neighs:    1.09178e+06 ave 1.09178e+06 max 1.09178e+06 min
Histogram: 1 0 0 0 0 0 0 0 0 0

Total # of neighbors = 1091785
Ave neighs/atom = 55.5559
Neighbor list builds = 495
Dangerous builds not checked
Setting up Verlet run ...
  Unit style    : metal
  Current step  : 120495
  Time step     : 0.001
Per MPI rank memory allocation (min/avg/max) = 18.19 | 18.19 | 18.19 Mbytes
Step Temp Press TotEng PotEng Enthalpy 
  120495    421.65011   -218.90352   -118999.73   -120070.76   -119062.87 
  122000    399.52667   -140.13472   -119107.64   -120122.47   -119148.04 
Loop time of 211.89 on 1 procs for 1505 steps with 19652 atoms

Performance: 0.614 ns/day, 39.109 hours/ns, 7.103 timesteps/s
95.9% CPU use with 1 MPI tasks x no OpenMP threads

MPI task timing breakdown:
Section |  min time  |  avg time  |  max time  |%varavg| %total
---------------------------------------------------------------
Pair    | 115.13     | 115.13     | 115.13     |   0.0 | 54.33
Neigh   | 91.432     | 91.432     | 91.432     |   0.0 | 43.15
Comm    | 1.8504     | 1.8504     | 1.8504     |   0.0 |  0.87
Output  | 0.070764   | 0.070764   | 0.070764   |   0.0 |  0.03
Modify  | 2.7068     | 2.7068     | 2.7068     |   0.0 |  1.28
Other   |            | 0.7005     |            |       |  0.33

Nlocal:    19652 ave 19652 max 19652 min
Histogram: 1 0 0 0 0 0 0 0 0 0
Nghost:    15984 ave 15984 max 15984 min
Histogram: 1 0 0 0 0 0 0 0 0 0
Neighs:    1.0922e+06 ave 1.0922e+06 max 1.0922e+06 min
Histogram: 1 0 0 0 0 0 0 0 0 0

Total # of neighbors = 1092195
Ave neighs/atom = 55.5768
Neighbor list builds = 1505
Dangerous builds not checked
Setting up Verlet run ...
  Unit style    : metal
  Current step  : 122000
  Time step     : 0.001
Per MPI rank memory allocation (min/avg/max) = 18.19 | 18.19 | 18.19 Mbytes
Step Temp Press TotEng PotEng Enthalpy 
  122000    399.52667   -140.13472   -119107.64   -120122.47   -119148.04 
  122495    369.60452    173.20486   -119264.88   -120203.71      -119215 
Loop time of 66.7423 on 1 procs for 495 steps with 19652 atoms

Performance: 0.641 ns/day, 37.454 hours/ns, 7.417 timesteps/s
98.2% CPU use with 1 MPI tasks x no OpenMP threads

MPI task timing breakdown:
Section |  min time  |  avg time  |  max time  |%varavg| %total
---------------------------------------------------------------
Pair    | 36.312     | 36.312     | 36.312     |   0.0 | 54.41
Neigh   | 28.785     | 28.785     | 28.785     |   0.0 | 43.13
Comm    | 0.58666    | 0.58666    | 0.58666    |   0.0 |  0.88
Output  | 0.00047398 | 0.00047398 | 0.00047398 |   0.0 |  0.00
Modify  | 0.83229    | 0.83229    | 0.83229    |   0.0 |  1.25
Other   |            | 0.2259     |            |       |  0.34

Nlocal:    19652 ave 19652 max 19652 min
Histogram: 1 0 0 0 0 0 0 0 0 0
Nghost:    16022 ave 16022 max 16022 min
Histogram: 1 0 0 0 0 0 0 0 0 0
Neighs:    1.09345e+06 ave 1.09345e+06 max 1.09345e+06 min
Histogram: 1 0 0 0 0 0 0 0 0 0

Total # of neighbors = 1093447
Ave neighs/atom = 55.6405
Neighbor list builds = 495
Dangerous builds not checked
Setting up Verlet run ...
  Unit style    : metal
  Current step  : 122495
  Time step     : 0.001
Per MPI rank memory allocation (min/avg/max) = 18.19 | 18.19 | 18.19 Mbytes
Step Temp Press TotEng PotEng Enthalpy 
  122495    369.60452    173.20486   -119264.88   -120203.71      -119215 
  124000    349.29362   -85.791445   -119378.29   -120265.53   -119402.99 
Loop time of 212.967 on 1 procs for 1505 steps with 19652 atoms

Performance: 0.611 ns/day, 39.307 hours/ns, 7.067 timesteps/s
97.8% CPU use with 1 MPI tasks x no OpenMP threads

MPI task timing breakdown:
Section |  min time  |  avg time  |  max time  |%varavg| %total
---------------------------------------------------------------
Pair    | 116.11     | 116.11     | 116.11     |   0.0 | 54.52
Neigh   | 91.45      | 91.45      | 91.45      |   0.0 | 42.94
Comm    | 1.9322     | 1.9322     | 1.9322     |   0.0 |  0.91
Output  | 0.065179   | 0.065179   | 0.065179   |   0.0 |  0.03
Modify  | 2.6936     | 2.6936     | 2.6936     |   0.0 |  1.26
Other   |            | 0.7114     |            |       |  0.33

Nlocal:    19652 ave 19652 max 19652 min
Histogram: 1 0 0 0 0 0 0 0 0 0
Nghost:    16056 ave 16056 max 16056 min
Histogram: 1 0 0 0 0 0 0 0 0 0
Neighs:    1.09413e+06 ave 1.09413e+06 max 1.09413e+06 min
Histogram: 1 0 0 0 0 0 0 0 0 0

Total # of neighbors = 1094132
Ave neighs/atom = 55.6754
Neighbor list builds = 1505
Dangerous builds not checked
Setting up Verlet run ...
  Unit style    : metal
  Current step  : 124000
  Time step     : 0.001
Per MPI rank memory allocation (min/avg/max) = 18.19 | 18.19 | 18.19 Mbytes
Step Temp Press TotEng PotEng Enthalpy 
  124000    349.29362   -85.791445   -119378.29   -120265.53   -119402.99 
  124495     325.0573    174.20837   -119526.53    -120352.2    -119476.4 
Loop time of 68.5344 on 1 procs for 495 steps with 19652 atoms

Performance: 0.624 ns/day, 38.459 hours/ns, 7.223 timesteps/s
93.5% CPU use with 1 MPI tasks x no OpenMP threads

MPI task timing breakdown:
Section |  min time  |  avg time  |  max time  |%varavg| %total
---------------------------------------------------------------
Pair    | 36.766     | 36.766     | 36.766     |   0.0 | 53.65
Neigh   | 30.105     | 30.105     | 30.105     |   0.0 | 43.93
Comm    | 0.57486    | 0.57486    | 0.57486    |   0.0 |  0.84
Output  | 0.00049019 | 0.00049019 | 0.00049019 |   0.0 |  0.00
Modify  | 0.86218    | 0.86218    | 0.86218    |   0.0 |  1.26
Other   |            | 0.2264     |            |       |  0.33

Nlocal:    19652 ave 19652 max 19652 min
Histogram: 1 0 0 0 0 0 0 0 0 0
Nghost:    16062 ave 16062 max 16062 min
Histogram: 1 0 0 0 0 0 0 0 0 0
Neighs:    1.0954e+06 ave 1.0954e+06 max 1.0954e+06 min
Histogram: 1 0 0 0 0 0 0 0 0 0

Total # of neighbors = 1095401
Ave neighs/atom = 55.7399
Neighbor list builds = 495
Dangerous builds not checked
Setting up Verlet run ...
  Unit style    : metal
  Current step  : 124495
  Time step     : 0.001
Per MPI rank memory allocation (min/avg/max) = 18.19 | 18.19 | 18.19 Mbytes
Step Temp Press TotEng PotEng Enthalpy 
  124495     325.0573    174.20837   -119526.53    -120352.2    -119476.4 
  126000    302.28208    62.107394   -119650.73   -120418.55   -119632.86 
Loop time of 210.981 on 1 procs for 1505 steps with 19652 atoms

Performance: 0.616 ns/day, 38.941 hours/ns, 7.133 timesteps/s
93.2% CPU use with 1 MPI tasks x no OpenMP threads

MPI task timing breakdown:
Section |  min time  |  avg time  |  max time  |%varavg| %total
---------------------------------------------------------------
Pair    | 113.68     | 113.68     | 113.68     |   0.0 | 53.88
Neigh   | 92.07      | 92.07      | 92.07      |   0.0 | 43.64
Comm    | 1.8384     | 1.8384     | 1.8384     |   0.0 |  0.87
Output  | 0.070825   | 0.070825   | 0.070825   |   0.0 |  0.03
Modify  | 2.6022     | 2.6022     | 2.6022     |   0.0 |  1.23
Other   |            | 0.7228     |            |       |  0.34

Nlocal:    19652 ave 19652 max 19652 min
Histogram: 1 0 0 0 0 0 0 0 0 0
Nghost:    16032 ave 16032 max 16032 min
Histogram: 1 0 0 0 0 0 0 0 0 0
Neighs:    1.09536e+06 ave 1.09536e+06 max 1.09536e+06 min
Histogram: 1 0 0 0 0 0 0 0 0 0

Total # of neighbors = 1095355
Ave neighs/atom = 55.7376
Neighbor list builds = 1505
Dangerous builds not checked
Setting up Verlet run ...
  Unit style    : metal
  Current step  : 126000
  Time step     : 0.001
Per MPI rank memory allocation (min/avg/max) = 18.19 | 18.19 | 18.19 Mbytes
Step Temp Press TotEng PotEng Enthalpy 
  126000    302.28208    62.107394   -119650.73   -120418.55   -119632.86 
  126495    274.08618   -117.74134   -119791.84   -120488.04    -119825.7 
Loop time of 75.4771 on 1 procs for 495 steps with 19652 atoms

Performance: 0.567 ns/day, 42.355 hours/ns, 6.558 timesteps/s
85.3% CPU use with 1 MPI tasks x no OpenMP threads

MPI task timing breakdown:
Section |  min time  |  avg time  |  max time  |%varavg| %total
---------------------------------------------------------------
Pair    | 40.858     | 40.858     | 40.858     |   0.0 | 54.13
Neigh   | 32.818     | 32.818     | 32.818     |   0.0 | 43.48
Comm    | 0.62655    | 0.62655    | 0.62655    |   0.0 |  0.83
Output  | 0.0040371  | 0.0040371  | 0.0040371  |   0.0 |  0.01
Modify  | 0.93614    | 0.93614    | 0.93614    |   0.0 |  1.24
Other   |            | 0.234      |            |       |  0.31

Nlocal:    19652 ave 19652 max 19652 min
Histogram: 1 0 0 0 0 0 0 0 0 0
Nghost:    16024 ave 16024 max 16024 min
Histogram: 1 0 0 0 0 0 0 0 0 0
Neighs:    1.09601e+06 ave 1.09601e+06 max 1.09601e+06 min
Histogram: 1 0 0 0 0 0 0 0 0 0

Total # of neighbors = 1096006
Ave neighs/atom = 55.7707
Neighbor list builds = 495
Dangerous builds not checked
Setting up Verlet run ...
  Unit style    : metal
  Current step  : 126495
  Time step     : 0.001
Per MPI rank memory allocation (min/avg/max) = 18.19 | 18.19 | 18.19 Mbytes
Step Temp Press TotEng PotEng Enthalpy 
  126495    274.08618   -117.74134   -119791.84   -120488.04    -119825.7 
  128000    250.09834   -45.586553   -119924.71   -120559.98   -119937.81 
Loop time of 212.144 on 1 procs for 1505 steps with 19652 atoms

Performance: 0.613 ns/day, 39.155 hours/ns, 7.094 timesteps/s
92.5% CPU use with 1 MPI tasks x no OpenMP threads

MPI task timing breakdown:
Section |  min time  |  avg time  |  max time  |%varavg| %total
---------------------------------------------------------------
Pair    | 114.91     | 114.91     | 114.91     |   0.0 | 54.17
Neigh   | 91.952     | 91.952     | 91.952     |   0.0 | 43.34
Comm    | 1.7783     | 1.7783     | 1.7783     |   0.0 |  0.84
Output  | 0.085741   | 0.085741   | 0.085741   |   0.0 |  0.04
Modify  | 2.7244     | 2.7244     | 2.7244     |   0.0 |  1.28
Other   |            | 0.6938     |            |       |  0.33

Nlocal:    19652 ave 19652 max 19652 min
Histogram: 1 0 0 0 0 0 0 0 0 0
Nghost:    16023 ave 16023 max 16023 min
Histogram: 1 0 0 0 0 0 0 0 0 0
Neighs:    1.09728e+06 ave 1.09728e+06 max 1.09728e+06 min
Histogram: 1 0 0 0 0 0 0 0 0 0

Total # of neighbors = 1097280
Ave neighs/atom = 55.8355
Neighbor list builds = 1505
Dangerous builds not checked
Setting up Verlet run ...
  Unit style    : metal
  Current step  : 128000
  Time step     : 0.001
Per MPI rank memory allocation (min/avg/max) = 18.19 | 18.19 | 18.19 Mbytes
Step Temp Press TotEng PotEng Enthalpy 
  128000    250.09834   -45.586553   -119924.71   -120559.98   -119937.81 
  128495    225.07495    54.576762    -120051.5   -120623.22   -120035.83 
Loop time of 73.6575 on 1 procs for 495 steps with 19652 atoms

Performance: 0.581 ns/day, 41.334 hours/ns, 6.720 timesteps/s
85.7% CPU use with 1 MPI tasks x no OpenMP threads

MPI task timing breakdown:
Section |  min time  |  avg time  |  max time  |%varavg| %total
---------------------------------------------------------------
Pair    | 39.638     | 39.638     | 39.638     |   0.0 | 53.81
Neigh   | 32.222     | 32.222     | 32.222     |   0.0 | 43.75
Comm    | 0.62108    | 0.62108    | 0.62108    |   0.0 |  0.84
Output  | 0.00020385 | 0.00020385 | 0.00020385 |   0.0 |  0.00
Modify  | 0.92557    | 0.92557    | 0.92557    |   0.0 |  1.26
Other   |            | 0.2513     |            |       |  0.34

Nlocal:    19652 ave 19652 max 19652 min
Histogram: 1 0 0 0 0 0 0 0 0 0
Nghost:    16031 ave 16031 max 16031 min
Histogram: 1 0 0 0 0 0 0 0 0 0
Neighs:    1.0977e+06 ave 1.0977e+06 max 1.0977e+06 min
Histogram: 1 0 0 0 0 0 0 0 0 0

Total # of neighbors = 1097698
Ave neighs/atom = 55.8568
Neighbor list builds = 495
Dangerous builds not checked
Setting up Verlet run ...
  Unit style    : metal
  Current step  : 128495
  Time step     : 0.001
Per MPI rank memory allocation (min/avg/max) = 18.19 | 18.19 | 18.19 Mbytes
Step Temp Press TotEng PotEng Enthalpy 
  128495    225.07495    54.576762    -120051.5   -120623.22   -120035.83 
  130000    199.99159    296.90748   -120178.07   -120686.06   -120092.83 
Loop time of 209.816 on 1 procs for 1505 steps with 19652 atoms

Performance: 0.620 ns/day, 38.726 hours/ns, 7.173 timesteps/s
91.9% CPU use with 1 MPI tasks x no OpenMP threads

MPI task timing breakdown:
Section |  min time  |  avg time  |  max time  |%varavg| %total
---------------------------------------------------------------
Pair    | 112.3      | 112.3      | 112.3      |   0.0 | 53.52
Neigh   | 92.245     | 92.245     | 92.245     |   0.0 | 43.96
Comm    | 1.7937     | 1.7937     | 1.7937     |   0.0 |  0.85
Output  | 0.069388   | 0.069388   | 0.069388   |   0.0 |  0.03
Modify  | 2.6908     | 2.6908     | 2.6908     |   0.0 |  1.28
Other   |            | 0.7137     |            |       |  0.34

Nlocal:    19652 ave 19652 max 19652 min
Histogram: 1 0 0 0 0 0 0 0 0 0
Nghost:    16066 ave 16066 max 16066 min
Histogram: 1 0 0 0 0 0 0 0 0 0
Neighs:    1.09908e+06 ave 1.09908e+06 max 1.09908e+06 min
Histogram: 1 0 0 0 0 0 0 0 0 0

Total # of neighbors = 1099076
Ave neighs/atom = 55.9269
Neighbor list builds = 1505
Dangerous builds not checked
Setting up Verlet run ...
  Unit style    : metal
  Current step  : 130000
  Time step     : 0.001
Per MPI rank memory allocation (min/avg/max) = 18.19 | 18.19 | 18.19 Mbytes
Step Temp Press TotEng PotEng Enthalpy 
  130000    199.99159    296.90748   -120178.07   -120686.06   -120092.83 
  130495    173.62928   -76.115136   -120305.21   -120746.25   -120327.07 
Loop time of 66.7146 on 1 procs for 495 steps with 19652 atoms

Performance: 0.641 ns/day, 37.438 hours/ns, 7.420 timesteps/s
97.0% CPU use with 1 MPI tasks x no OpenMP threads

MPI task timing breakdown:
Section |  min time  |  avg time  |  max time  |%varavg| %total
---------------------------------------------------------------
Pair    | 35.834     | 35.834     | 35.834     |   0.0 | 53.71
Neigh   | 29.286     | 29.286     | 29.286     |   0.0 | 43.90
Comm    | 0.54565    | 0.54565    | 0.54565    |   0.0 |  0.82
Output  | 0.00026083 | 0.00026083 | 0.00026083 |   0.0 |  0.00
Modify  | 0.82702    | 0.82702    | 0.82702    |   0.0 |  1.24
Other   |            | 0.2217     |            |       |  0.33

Nlocal:    19652 ave 19652 max 19652 min
Histogram: 1 0 0 0 0 0 0 0 0 0
Nghost:    16052 ave 16052 max 16052 min
Histogram: 1 0 0 0 0 0 0 0 0 0
Neighs:    1.0992e+06 ave 1.0992e+06 max 1.0992e+06 min
Histogram: 1 0 0 0 0 0 0 0 0 0

Total # of neighbors = 1099203
Ave neighs/atom = 55.9334
Neighbor list builds = 495
Dangerous builds not checked
Setting up Verlet run ...
  Unit style    : metal
  Current step  : 130495
  Time step     : 0.001
Per MPI rank memory allocation (min/avg/max) = 18.19 | 18.19 | 18.19 Mbytes
Step Temp Press TotEng PotEng Enthalpy 
  130495    173.62928   -76.115136   -120305.21   -120746.25   -120327.07 
  132000    150.18951   -340.34171   -120439.77   -120821.27   -120537.48 
Loop time of 214.801 on 1 procs for 1505 steps with 19652 atoms

Performance: 0.605 ns/day, 39.646 hours/ns, 7.006 timesteps/s
88.4% CPU use with 1 MPI tasks x no OpenMP threads

MPI task timing breakdown:
Section |  min time  |  avg time  |  max time  |%varavg| %total
---------------------------------------------------------------
Pair    | 114.95     | 114.95     | 114.95     |   0.0 | 53.51
Neigh   | 94.171     | 94.171     | 94.171     |   0.0 | 43.84
Comm    | 1.8355     | 1.8355     | 1.8355     |   0.0 |  0.85
Output  | 0.46395    | 0.46395    | 0.46395    |   0.0 |  0.22
Modify  | 2.6398     | 2.6398     | 2.6398     |   0.0 |  1.23
Other   |            | 0.7448     |            |       |  0.35

Nlocal:    19652 ave 19652 max 19652 min
Histogram: 1 0 0 0 0 0 0 0 0 0
Nghost:    16058 ave 16058 max 16058 min
Histogram: 1 0 0 0 0 0 0 0 0 0
Neighs:    1.09917e+06 ave 1.09917e+06 max 1.09917e+06 min
Histogram: 1 0 0 0 0 0 0 0 0 0

Total # of neighbors = 1099169
Ave neighs/atom = 55.9317
Neighbor list builds = 1505
Dangerous builds not checked
Setting up Verlet run ...
  Unit style    : metal
  Current step  : 132000
  Time step     : 0.001
Per MPI rank memory allocation (min/avg/max) = 18.19 | 18.19 | 18.19 Mbytes
Step Temp Press TotEng PotEng Enthalpy 
  132000    150.18951   -340.34171   -120439.77   -120821.27   -120537.48 
  132495     126.6693    118.84787   -120557.81   -120879.56   -120523.72 
Loop time of 69.5055 on 1 procs for 495 steps with 19652 atoms

Performance: 0.615 ns/day, 39.004 hours/ns, 7.122 timesteps/s
91.8% CPU use with 1 MPI tasks x no OpenMP threads

MPI task timing breakdown:
Section |  min time  |  avg time  |  max time  |%varavg| %total
---------------------------------------------------------------
Pair    | 37.58      | 37.58      | 37.58      |   0.0 | 54.07
Neigh   | 30.306     | 30.306     | 30.306     |   0.0 | 43.60
Comm    | 0.57922    | 0.57922    | 0.57922    |   0.0 |  0.83
Output  | 0.00023484 | 0.00023484 | 0.00023484 |   0.0 |  0.00
Modify  | 0.83023    | 0.83023    | 0.83023    |   0.0 |  1.19
Other   |            | 0.2099     |            |       |  0.30

Nlocal:    19652 ave 19652 max 19652 min
Histogram: 1 0 0 0 0 0 0 0 0 0
Nghost:    16024 ave 16024 max 16024 min
Histogram: 1 0 0 0 0 0 0 0 0 0
Neighs:    1.10081e+06 ave 1.10081e+06 max 1.10081e+06 min
Histogram: 1 0 0 0 0 0 0 0 0 0

Total # of neighbors = 1100809
Ave neighs/atom = 56.0151
Neighbor list builds = 495
Dangerous builds not checked
Setting up Verlet run ...
  Unit style    : metal
  Current step  : 132495
  Time step     : 0.001
Per MPI rank memory allocation (min/avg/max) = 18.19 | 18.19 | 18.19 Mbytes
Step Temp Press TotEng PotEng Enthalpy 
  132495     126.6693    118.84787   -120557.81   -120879.56   -120523.72 
  134000    99.716332     356.4889   -120700.53   -120953.82   -120598.36 
Loop time of 231.202 on 1 procs for 1505 steps with 19652 atoms

Performance: 0.562 ns/day, 42.673 hours/ns, 6.509 timesteps/s
82.0% CPU use with 1 MPI tasks x no OpenMP threads

MPI task timing breakdown:
Section |  min time  |  avg time  |  max time  |%varavg| %total
---------------------------------------------------------------
Pair    | 124.64     | 124.64     | 124.64     |   0.0 | 53.91
Neigh   | 100.94     | 100.94     | 100.94     |   0.0 | 43.66
Comm    | 1.9125     | 1.9125     | 1.9125     |   0.0 |  0.83
Output  | 0.056865   | 0.056865   | 0.056865   |   0.0 |  0.02
Modify  | 2.9011     | 2.9011     | 2.9011     |   0.0 |  1.25
Other   |            | 0.7503     |            |       |  0.32

Nlocal:    19652 ave 19652 max 19652 min
Histogram: 1 0 0 0 0 0 0 0 0 0
Nghost:    16070 ave 16070 max 16070 min
Histogram: 1 0 0 0 0 0 0 0 0 0
Neighs:    1.10172e+06 ave 1.10172e+06 max 1.10172e+06 min
Histogram: 1 0 0 0 0 0 0 0 0 0

Total # of neighbors = 1101719
Ave neighs/atom = 56.0614
Neighbor list builds = 1505
Dangerous builds not checked
Total wall time: 5:27:21
