LAMMPS (12 Dec 2018)
Lattice spacing in x,y,z = 4 4 4
Created orthogonal box = (0 0 0) to (68 68 68)
  1 by 1 by 2 MPI processor grid
Created 19652 atoms
  Time spent = 0.00151491 secs
Setting atom values ...
  19281 settings made for type/fraction
Neighbor list info ...
  update every 1 steps, delay 0 steps, check no
  max neighbors/atom: 2000, page size: 100000
  master list distance cutoff = 8.5
  ghost atom cutoff = 8.5
  binsize = 4.25, bins = 16 16 16
  1 neighbor lists, perpetual/occasional/extra = 1 0 0
  (1) pair eam/alloy, perpetual
      attributes: half, newton on
      pair build: half/bin/atomonly/newton
      stencil: half/bin/3d/newton
      bin: standard
Setting up Verlet run ...
  Unit style    : metal
  Current step  : 0
  Time step     : 0.001
Per MPI rank memory allocation (min/avg/max) = 11.15 | 11.15 | 11.15 Mbytes
Step Temp Press TotEng PotEng Enthalpy 
       0          300   -68135.309    -76852.93   -77614.958   -90224.691 
    1000    2050.9938     112577.4   -76854.088     -82063.8   -54760.432 
Loop time of 94.9315 on 2 procs for 1000 steps with 19652 atoms

Performance: 0.910 ns/day, 26.370 hours/ns, 10.534 timesteps/s
99.9% CPU use with 2 MPI tasks x no OpenMP threads

MPI task timing breakdown:
Section |  min time  |  avg time  |  max time  |%varavg| %total
---------------------------------------------------------------
Pair    | 53.155     | 53.184     | 53.213     |   0.4 | 56.02
Neigh   | 37.905     | 38.46      | 39.014     |   8.9 | 40.51
Comm    | 2.284      | 2.8726     | 3.4613     |  34.7 |  3.03
Output  | 0.00015593 | 0.0001725  | 0.00018907 |   0.0 |  0.00
Modify  | 0.20847    | 0.21007    | 0.21168    |   0.4 |  0.22
Other   |            | 0.2047     |            |       |  0.22

Nlocal:    9826 ave 9831 max 9821 min
Histogram: 1 0 0 0 0 0 0 0 0 1
Nghost:    13229 ave 13238 max 13220 min
Histogram: 1 0 0 0 0 0 0 0 0 1
Neighs:    784718 ave 785335 max 784102 min
Histogram: 1 0 0 0 0 0 0 0 0 1

Total # of neighbors = 1569437
Ave neighs/atom = 79.8614
Neighbor list builds = 1000
Dangerous builds not checked
Setting up Verlet run ...
  Unit style    : metal
  Current step  : 1000
  Time step     : 0.001
Per MPI rank memory allocation (min/avg/max) = 11.15 | 11.15 | 11.15 Mbytes
Step Temp Press TotEng PotEng Enthalpy 
    1000    2050.9938     112577.4   -76854.088     -82063.8   -54760.432 
    2000     338.8133     353.5972   -86823.369   -87683.986   -86743.615 
Loop time of 80.9551 on 2 procs for 1000 steps with 19652 atoms

Performance: 1.067 ns/day, 22.488 hours/ns, 12.353 timesteps/s
99.9% CPU use with 2 MPI tasks x no OpenMP threads

MPI task timing breakdown:
Section |  min time  |  avg time  |  max time  |%varavg| %total
---------------------------------------------------------------
Pair    | 42.9       | 42.93      | 42.961     |   0.5 | 53.03
Neigh   | 34.032     | 34.148     | 34.264     |   2.0 | 42.18
Comm    | 2.7844     | 2.9328     | 3.0812     |   8.7 |  3.62
Output  | 8.0109e-05 | 0.00012362 | 0.00016713 |   0.0 |  0.00
Modify  | 0.74556    | 0.74724    | 0.74892    |   0.2 |  0.92
Other   |            | 0.1965     |            |       |  0.24

Nlocal:    9826 ave 9849 max 9803 min
Histogram: 1 0 0 0 0 0 0 0 0 1
Nghost:    12464 ave 12472 max 12456 min
Histogram: 1 0 0 0 0 0 0 0 0 1
Neighs:    683480 ave 685398 max 681562 min
Histogram: 1 0 0 0 0 0 0 0 0 1

Total # of neighbors = 1366960
Ave neighs/atom = 69.5583
Neighbor list builds = 1000
Dangerous builds not checked
Setting up Verlet run ...
  Unit style    : metal
  Current step  : 2000
  Time step     : 0.001
Per MPI rank memory allocation (min/avg/max) = 11.15 | 11.15 | 11.15 Mbytes
Step Temp Press TotEng PotEng Enthalpy 
    2000     338.8133     353.5972   -86823.369   -87683.986   -86743.615 
   10000    2454.2678    850.73373   -75471.562   -81705.626   -75264.578 
Loop time of 649.208 on 2 procs for 8000 steps with 19652 atoms

Performance: 1.065 ns/day, 22.542 hours/ns, 12.323 timesteps/s
99.3% CPU use with 2 MPI tasks x no OpenMP threads

MPI task timing breakdown:
Section |  min time  |  avg time  |  max time  |%varavg| %total
---------------------------------------------------------------
Pair    | 343        | 343.66     | 344.32     |   3.6 | 52.94
Neigh   | 269.4      | 271.2      | 273        |  11.0 | 41.77
Comm    | 24.744     | 26.195     | 27.645     |  28.3 |  4.03
Output  | 0.032132   | 0.032157   | 0.032182   |   0.0 |  0.00
Modify  | 6.211      | 6.5087     | 6.8064     |  11.7 |  1.00
Other   |            | 1.612      |            |       |  0.25

Nlocal:    9826 ave 9840 max 9812 min
Histogram: 1 0 0 0 0 0 0 0 0 1
Nghost:    12037 ave 12040 max 12034 min
Histogram: 1 0 0 0 0 0 0 0 0 1
Neighs:    633020 ave 637432 max 628607 min
Histogram: 1 0 0 0 0 0 0 0 0 1

Total # of neighbors = 1266039
Ave neighs/atom = 64.4229
Neighbor list builds = 8000
Dangerous builds not checked
Setting up Verlet run ...
  Unit style    : metal
  Current step  : 10000
  Time step     : 0.001
Per MPI rank memory allocation (min/avg/max) = 11.21 | 11.21 | 11.21 Mbytes
Step Temp Press TotEng PotEng Enthalpy 
   10000    2454.2678    850.73373   -75471.562   -81705.626   -75264.578 
   20000    2440.1307   -1601.7489   -75482.256    -81680.41   -75872.975 
   30000    2424.7252    833.92031   -75487.988   -81647.011   -75285.272 
   40000    2453.4992    240.32914   -75476.036   -81708.148   -75417.666 
Loop time of 2801.3 on 2 procs for 30000 steps with 19652 atoms

Performance: 0.925 ns/day, 25.938 hours/ns, 10.709 timesteps/s
98.9% CPU use with 2 MPI tasks x no OpenMP threads

MPI task timing breakdown:
Section |  min time  |  avg time  |  max time  |%varavg| %total
---------------------------------------------------------------
Pair    | 1539.9     | 1547.7     | 1555.6     |  19.9 | 55.25
Neigh   | 1125.9     | 1133.1     | 1140.4     |  21.5 | 40.45
Comm    | 72.158     | 86.751     | 101.34     | 156.7 |  3.10
Output  | 0.10856    | 0.10873    | 0.1089     |   0.1 |  0.00
Modify  | 26.505     | 26.985     | 27.466     |   9.3 |  0.96
Other   |            | 6.588      |            |       |  0.24

Nlocal:    9826 ave 9843 max 9809 min
Histogram: 1 0 0 0 0 0 0 0 0 1
Nghost:    12041.5 ave 12056 max 12027 min
Histogram: 1 0 0 0 0 0 0 0 0 1
Neighs:    634104 ave 638498 max 629711 min
Histogram: 1 0 0 0 0 0 0 0 0 1

Total # of neighbors = 1268209
Ave neighs/atom = 64.5333
Neighbor list builds = 30000
Dangerous builds not checked
Setting up Verlet run ...
  Unit style    : metal
  Current step  : 40000
  Time step     : 0.001
Per MPI rank memory allocation (min/avg/max) = 11.3 | 11.3 | 11.3 Mbytes
Step Temp Press TotEng PotEng Enthalpy 
   40000    2453.4992    240.32914   -75476.036   -81708.148   -75417.666 
   40495    2412.5872   -1173.1203   -75623.099    -81751.29   -75908.473 
Loop time of 46.4452 on 2 procs for 495 steps with 19652 atoms

Performance: 0.921 ns/day, 26.064 hours/ns, 10.658 timesteps/s
96.3% CPU use with 2 MPI tasks x no OpenMP threads

MPI task timing breakdown:
Section |  min time  |  avg time  |  max time  |%varavg| %total
---------------------------------------------------------------
Pair    | 25.532     | 25.6       | 25.669     |   1.4 | 55.12
Neigh   | 17.771     | 17.853     | 17.934     |   1.9 | 38.44
Comm    | 2.1676     | 2.3161     | 2.4646     |   9.8 |  4.99
Output  | 0.00014901 | 0.00018597 | 0.00022292 |   0.0 |  0.00
Modify  | 0.56672    | 0.56816    | 0.56959    |   0.2 |  1.22
Other   |            | 0.108      |            |       |  0.23

Nlocal:    9826 ave 9855 max 9797 min
Histogram: 1 0 0 0 0 0 0 0 0 1
Nghost:    12057.5 ave 12065 max 12050 min
Histogram: 1 0 0 0 0 0 0 0 0 1
Neighs:    633315 ave 642108 max 624522 min
Histogram: 1 0 0 0 0 0 0 0 0 1

Total # of neighbors = 1266630
Ave neighs/atom = 64.453
Neighbor list builds = 495
Dangerous builds not checked
Setting up Verlet run ...
  Unit style    : metal
  Current step  : 40495
  Time step     : 0.001
Per MPI rank memory allocation (min/avg/max) = 11.3 | 11.3 | 11.3 Mbytes
Step Temp Press TotEng PotEng Enthalpy 
   40495    2412.5872   -1173.1203   -75623.099    -81751.29   -75908.473 
   50000    2375.3525   -13.726495   -75751.774   -81785.386   -75755.103 
Loop time of 929.431 on 2 procs for 9505 steps with 19652 atoms

Performance: 0.884 ns/day, 27.162 hours/ns, 10.227 timesteps/s
97.5% CPU use with 2 MPI tasks x no OpenMP threads

MPI task timing breakdown:
Section |  min time  |  avg time  |  max time  |%varavg| %total
---------------------------------------------------------------
Pair    | 511.1      | 514.45     | 517.81     |  14.8 | 55.35
Neigh   | 365.21     | 365.61     | 366.01     |   2.1 | 39.34
Comm    | 34.33      | 37.901     | 41.471     |  58.0 |  4.08
Output  | 0.034791   | 0.034807   | 0.034823   |   0.0 |  0.00
Modify  | 9.087      | 9.2642     | 9.4414     |   5.8 |  1.00
Other   |            | 2.164      |            |       |  0.23

Nlocal:    9826 ave 9845 max 9807 min
Histogram: 1 0 0 0 0 0 0 0 0 1
Nghost:    12059 ave 12060 max 12058 min
Histogram: 1 0 0 0 0 0 0 0 0 1
Neighs:    635294 ave 643610 max 626979 min
Histogram: 1 0 0 0 0 0 0 0 0 1

Total # of neighbors = 1270589
Ave neighs/atom = 64.6544
Neighbor list builds = 9505
Dangerous builds not checked
Setting up Verlet run ...
  Unit style    : metal
  Current step  : 50000
  Time step     : 0.001
Per MPI rank memory allocation (min/avg/max) = 11.31 | 11.31 | 11.31 Mbytes
Step Temp Press TotEng PotEng Enthalpy 
   50000    2375.3525   -13.726495   -75751.774   -81785.386   -75755.103 
   50495    2358.4022   -28.541685   -75850.517   -81841.073   -75857.444 
Loop time of 48.0494 on 2 procs for 495 steps with 19652 atoms

Performance: 0.890 ns/day, 26.964 hours/ns, 10.302 timesteps/s
96.5% CPU use with 2 MPI tasks x no OpenMP threads

MPI task timing breakdown:
Section |  min time  |  avg time  |  max time  |%varavg| %total
---------------------------------------------------------------
Pair    | 26.444     | 26.719     | 26.995     |   5.3 | 55.61
Neigh   | 18.65      | 18.696     | 18.742     |   1.1 | 38.91
Comm    | 1.7466     | 2.0675     | 2.3884     |  22.3 |  4.30
Output  | 8.2016e-05 | 0.00012004 | 0.00015807 |   0.0 |  0.00
Modify  | 0.45011    | 0.45113    | 0.45215    |   0.2 |  0.94
Other   |            | 0.1155     |            |       |  0.24

Nlocal:    9826 ave 9829 max 9823 min
Histogram: 1 0 0 0 0 0 0 0 0 1
Nghost:    11992.5 ave 12002 max 11983 min
Histogram: 1 0 0 0 0 0 0 0 0 1
Neighs:    635036 ave 640453 max 629620 min
Histogram: 1 0 0 0 0 0 0 0 0 1

Total # of neighbors = 1270073
Ave neighs/atom = 64.6282
Neighbor list builds = 495
Dangerous builds not checked
Setting up Verlet run ...
  Unit style    : metal
  Current step  : 50495
  Time step     : 0.001
Per MPI rank memory allocation (min/avg/max) = 11.31 | 11.31 | 11.31 Mbytes
Step Temp Press TotEng PotEng Enthalpy 
   50495    2358.4022   -28.541685   -75850.517   -81841.073   -75857.444 
   60000    2350.7004    502.56488    -75898.64   -81869.633   -75777.025 
Loop time of 969.076 on 2 procs for 9505 steps with 19652 atoms

Performance: 0.847 ns/day, 28.321 hours/ns, 9.808 timesteps/s
96.9% CPU use with 2 MPI tasks x no OpenMP threads

MPI task timing breakdown:
Section |  min time  |  avg time  |  max time  |%varavg| %total
---------------------------------------------------------------
Pair    | 538.43     | 540.69     | 542.94     |   9.7 | 55.79
Neigh   | 375.22     | 379.04     | 382.87     |  19.7 | 39.11
Comm    | 32.239     | 38.448     | 44.657     | 100.1 |  3.97
Output  | 0.038671   | 0.038695   | 0.038718   |   0.0 |  0.00
Modify  | 8.4589     | 8.5681     | 8.6773     |   3.7 |  0.88
Other   |            | 2.292      |            |       |  0.24

Nlocal:    9826 ave 9853 max 9799 min
Histogram: 1 0 0 0 0 0 0 0 0 1
Nghost:    12030 ave 12049 max 12011 min
Histogram: 1 0 0 0 0 0 0 0 0 1
Neighs:    636600 ave 638871 max 634328 min
Histogram: 1 0 0 0 0 0 0 0 0 1

Total # of neighbors = 1273199
Ave neighs/atom = 64.7872
Neighbor list builds = 9505
Dangerous builds not checked
Setting up Verlet run ...
  Unit style    : metal
  Current step  : 60000
  Time step     : 0.001
Per MPI rank memory allocation (min/avg/max) = 11.32 | 11.32 | 11.32 Mbytes
Step Temp Press TotEng PotEng Enthalpy 
   60000    2350.7004    502.56488    -75898.64   -81869.633   -75777.025 
   60495    2307.1887      525.243   -76114.254   -81974.723    -75987.28 
Loop time of 47.3448 on 2 procs for 495 steps with 19652 atoms

Performance: 0.903 ns/day, 26.568 hours/ns, 10.455 timesteps/s
98.5% CPU use with 2 MPI tasks x no OpenMP threads

MPI task timing breakdown:
Section |  min time  |  avg time  |  max time  |%varavg| %total
---------------------------------------------------------------
Pair    | 25.74      | 26.443     | 27.147     |  13.7 | 55.85
Neigh   | 18.461     | 18.631     | 18.802     |   4.0 | 39.35
Comm    | 1.1757     | 1.7097     | 2.2437     |  40.8 |  3.61
Output  | 8.297e-05  | 0.00017703 | 0.00027108 |   0.0 |  0.00
Modify  | 0.43678    | 0.44006    | 0.44335    |   0.5 |  0.93
Other   |            | 0.1201     |            |       |  0.25

Nlocal:    9826 ave 9850 max 9802 min
Histogram: 1 0 0 0 0 0 0 0 0 1
Nghost:    12096 ave 12125 max 12067 min
Histogram: 1 0 0 0 0 0 0 0 0 1
Neighs:    637122 ave 640555 max 633689 min
Histogram: 1 0 0 0 0 0 0 0 0 1

Total # of neighbors = 1274244
Ave neighs/atom = 64.8404
Neighbor list builds = 495
Dangerous builds not checked
Setting up Verlet run ...
  Unit style    : metal
  Current step  : 60495
  Time step     : 0.001
Per MPI rank memory allocation (min/avg/max) = 11.32 | 11.32 | 11.32 Mbytes
Step Temp Press TotEng PotEng Enthalpy 
   60495    2307.1887      525.243   -76114.254   -81974.723    -75987.28 
   70000    2317.4346   -333.88884   -76072.595    -81959.09   -76153.491 
Loop time of 981.997 on 2 procs for 9505 steps with 19652 atoms

Performance: 0.836 ns/day, 28.698 hours/ns, 9.679 timesteps/s
96.0% CPU use with 2 MPI tasks x no OpenMP threads

MPI task timing breakdown:
Section |  min time  |  avg time  |  max time  |%varavg| %total
---------------------------------------------------------------
Pair    | 547.82     | 552.9      | 557.98     |  21.6 | 56.30
Neigh   | 378.96     | 380.12     | 381.27     |   5.9 | 38.71
Comm    | 31.787     | 38.071     | 44.356     | 101.9 |  3.88
Output  | 0.036122   | 0.03619    | 0.036257   |   0.0 |  0.00
Modify  | 8.5441     | 8.6032     | 8.6622     |   2.0 |  0.88
Other   |            | 2.272      |            |       |  0.23

Nlocal:    9826 ave 9837 max 9815 min
Histogram: 1 0 0 0 0 0 0 0 0 1
Nghost:    12098.5 ave 12108 max 12089 min
Histogram: 1 0 0 0 0 0 0 0 0 1
Neighs:    635710 ave 642972 max 628447 min
Histogram: 1 0 0 0 0 0 0 0 0 1

Total # of neighbors = 1271419
Ave neighs/atom = 64.6967
Neighbor list builds = 9505
Dangerous builds not checked
Setting up Verlet run ...
  Unit style    : metal
  Current step  : 70000
  Time step     : 0.001
Per MPI rank memory allocation (min/avg/max) = 11.32 | 11.33 | 11.33 Mbytes
Step Temp Press TotEng PotEng Enthalpy 
   70000    2317.4346   -333.88884   -76072.595    -81959.09   -76153.491 
   70495    2262.7024    1251.4889   -76316.057   -82063.527   -76014.773 
Loop time of 44.9222 on 2 procs for 495 steps with 19652 atoms

Performance: 0.952 ns/day, 25.209 hours/ns, 11.019 timesteps/s
99.1% CPU use with 2 MPI tasks x no OpenMP threads

MPI task timing breakdown:
Section |  min time  |  avg time  |  max time  |%varavg| %total
---------------------------------------------------------------
Pair    | 24.902     | 25.124     | 25.346     |   4.4 | 55.93
Neigh   | 17.803     | 17.808     | 17.812     |   0.1 | 39.64
Comm    | 1.2381     | 1.4548     | 1.6714     |  18.0 |  3.24
Output  | 0.00010109 | 0.00015008 | 0.00019908 |   0.0 |  0.00
Modify  | 0.41832    | 0.41987    | 0.42142    |   0.2 |  0.93
Other   |            | 0.1154     |            |       |  0.26

Nlocal:    9826 ave 9845 max 9807 min
Histogram: 1 0 0 0 0 0 0 0 0 1
Nghost:    12159.5 ave 12173 max 12146 min
Histogram: 1 0 0 0 0 0 0 0 0 1
Neighs:    639739 ave 647865 max 631613 min
Histogram: 1 0 0 0 0 0 0 0 0 1

Total # of neighbors = 1279478
Ave neighs/atom = 65.1068
Neighbor list builds = 495
Dangerous builds not checked
Setting up Verlet run ...
  Unit style    : metal
  Current step  : 70495
  Time step     : 0.001
Per MPI rank memory allocation (min/avg/max) = 11.32 | 11.33 | 11.33 Mbytes
Step Temp Press TotEng PotEng Enthalpy 
   70495    2262.7024    1251.4889   -76316.057   -82063.527   -76014.773 
   80000    2224.4364    -208.5881   -76402.499   -82052.771   -76452.834 
Loop time of 971.72 on 2 procs for 9505 steps with 19652 atoms

Performance: 0.845 ns/day, 28.398 hours/ns, 9.782 timesteps/s
96.4% CPU use with 2 MPI tasks x no OpenMP threads

MPI task timing breakdown:
Section |  min time  |  avg time  |  max time  |%varavg| %total
---------------------------------------------------------------
Pair    | 534.35     | 538.51     | 542.67     |  17.9 | 55.42
Neigh   | 370.64     | 372.17     | 373.71     |   8.0 | 38.30
Comm    | 42.476     | 48.398     | 54.319     |  85.1 |  4.98
Output  | 0.056068   | 0.056092   | 0.056116   |   0.0 |  0.01
Modify  | 10.135     | 10.352     | 10.569     |   6.7 |  1.07
Other   |            | 2.234      |            |       |  0.23

Nlocal:    9826 ave 9838 max 9814 min
Histogram: 1 0 0 0 0 0 0 0 0 1
Nghost:    12108 ave 12131 max 12085 min
Histogram: 1 0 0 0 0 0 0 0 0 1
Neighs:    638334 ave 645522 max 631146 min
Histogram: 1 0 0 0 0 0 0 0 0 1

Total # of neighbors = 1276668
Ave neighs/atom = 64.9638
Neighbor list builds = 9505
Dangerous builds not checked
Setting up Verlet run ...
  Unit style    : metal
  Current step  : 80000
  Time step     : 0.001
Per MPI rank memory allocation (min/avg/max) = 11.33 | 11.33 | 11.33 Mbytes
Step Temp Press TotEng PotEng Enthalpy 
   80000    2224.4364    -208.5881   -76402.499   -82052.771   -76452.834 
   80495    2198.6359    346.21413   -76536.868   -82121.603   -76453.557 
Loop time of 51.2487 on 2 procs for 495 steps with 19652 atoms

Performance: 0.835 ns/day, 28.759 hours/ns, 9.659 timesteps/s
91.2% CPU use with 2 MPI tasks x no OpenMP threads

MPI task timing breakdown:
Section |  min time  |  avg time  |  max time  |%varavg| %total
---------------------------------------------------------------
Pair    | 28.699     | 28.733     | 28.767     |   0.6 | 56.07
Neigh   | 18.335     | 18.347     | 18.36      |   0.3 | 35.80
Comm    | 3.5755     | 3.6227     | 3.67       |   2.5 |  7.07
Output  | 8.5831e-05 | 0.00012136 | 0.00015688 |   0.0 |  0.00
Modify  | 0.42768    | 0.42771    | 0.42774    |   0.0 |  0.83
Other   |            | 0.1179     |            |       |  0.23

Nlocal:    9826 ave 9848 max 9804 min
Histogram: 1 0 0 0 0 0 0 0 0 1
Nghost:    12101 ave 12136 max 12066 min
Histogram: 1 0 0 0 0 0 0 0 0 1
Neighs:    640092 ave 644866 max 635317 min
Histogram: 1 0 0 0 0 0 0 0 0 1

Total # of neighbors = 1280183
Ave neighs/atom = 65.1426
Neighbor list builds = 495
Dangerous builds not checked
Setting up Verlet run ...
  Unit style    : metal
  Current step  : 80495
  Time step     : 0.001
Per MPI rank memory allocation (min/avg/max) = 11.33 | 11.33 | 11.33 Mbytes
Step Temp Press TotEng PotEng Enthalpy 
   80495    2198.6359    346.21413   -76536.868   -82121.603   -76453.557 
   90000    2225.4541    -225.6799   -76517.755   -82170.611   -76572.029 
Loop time of 957.971 on 2 procs for 9505 steps with 19652 atoms

Performance: 0.857 ns/day, 27.996 hours/ns, 9.922 timesteps/s
97.1% CPU use with 2 MPI tasks x no OpenMP threads

MPI task timing breakdown:
Section |  min time  |  avg time  |  max time  |%varavg| %total
---------------------------------------------------------------
Pair    | 530.91     | 532.55     | 534.2      |   7.1 | 55.59
Neigh   | 372.69     | 373.99     | 375.29     |   6.7 | 39.04
Comm    | 37.54      | 40.378     | 43.217     |  44.7 |  4.21
Output  | 0.037347   | 0.037372   | 0.037396   |   0.0 |  0.00
Modify  | 8.6794     | 8.7844     | 8.8893     |   3.5 |  0.92
Other   |            | 2.231      |            |       |  0.23

Nlocal:    9826 ave 9833 max 9819 min
Histogram: 1 0 0 0 0 0 0 0 0 1
Nghost:    12086.5 ave 12100 max 12073 min
Histogram: 1 0 0 0 0 0 0 0 0 1
Neighs:    640658 ave 645210 max 636105 min
Histogram: 1 0 0 0 0 0 0 0 0 1

Total # of neighbors = 1281315
Ave neighs/atom = 65.2002
Neighbor list builds = 9505
Dangerous builds not checked
Setting up Verlet run ...
  Unit style    : metal
  Current step  : 90000
  Time step     : 0.001
Per MPI rank memory allocation (min/avg/max) = 11.33 | 11.33 | 11.33 Mbytes
Step Temp Press TotEng PotEng Enthalpy 
   90000    2225.4541    -225.6799   -76517.755   -82170.611   -76572.029 
   90495     2150.672    694.82917   -76748.058   -82210.961   -76581.072 
Loop time of 47.243 on 2 procs for 495 steps with 19652 atoms

Performance: 0.905 ns/day, 26.511 hours/ns, 10.478 timesteps/s
97.4% CPU use with 2 MPI tasks x no OpenMP threads

MPI task timing breakdown:
Section |  min time  |  avg time  |  max time  |%varavg| %total
---------------------------------------------------------------
Pair    | 26.11      | 26.173     | 26.235     |   1.2 | 55.40
Neigh   | 18.305     | 18.498     | 18.691     |   4.5 | 39.16
Comm    | 1.8774     | 2.019      | 2.1607     |  10.0 |  4.27
Output  | 9.0837e-05 | 0.00012541 | 0.00015998 |   0.0 |  0.00
Modify  | 0.43077    | 0.43707    | 0.44336    |   1.0 |  0.93
Other   |            | 0.1159     |            |       |  0.25

Nlocal:    9826 ave 9848 max 9804 min
Histogram: 1 0 0 0 0 0 0 0 0 1
Nghost:    12108 ave 12116 max 12100 min
Histogram: 1 0 0 0 0 0 0 0 0 1
Neighs:    641177 ave 650030 max 632324 min
Histogram: 1 0 0 0 0 0 0 0 0 1

Total # of neighbors = 1282354
Ave neighs/atom = 65.2531
Neighbor list builds = 495
Dangerous builds not checked
Setting up Verlet run ...
  Unit style    : metal
  Current step  : 90495
  Time step     : 0.001
Per MPI rank memory allocation (min/avg/max) = 11.33 | 11.33 | 11.33 Mbytes
Step Temp Press TotEng PotEng Enthalpy 
   90495     2150.672    694.82917   -76748.058   -82210.961   -76581.072 
  100000    2160.7093    598.05222   -76775.672   -82264.071   -76632.066 
Loop time of 964.344 on 2 procs for 9505 steps with 19652 atoms

Performance: 0.852 ns/day, 28.182 hours/ns, 9.856 timesteps/s
96.9% CPU use with 2 MPI tasks x no OpenMP threads

MPI task timing breakdown:
Section |  min time  |  avg time  |  max time  |%varavg| %total
---------------------------------------------------------------
Pair    | 533.98     | 536.18     | 538.38     |   9.5 | 55.60
Neigh   | 371.3      | 372.61     | 373.93     |   6.8 | 38.64
Comm    | 40.806     | 44.243     | 47.68      |  51.7 |  4.59
Output  | 0.034538   | 0.034572   | 0.034607   |   0.0 |  0.00
Modify  | 8.9781     | 9.0491     | 9.1202     |   2.4 |  0.94
Other   |            | 2.224      |            |       |  0.23

Nlocal:    9826 ave 9838 max 9814 min
Histogram: 1 0 0 0 0 0 0 0 0 1
Nghost:    12117.5 ave 12118 max 12117 min
Histogram: 1 0 0 0 0 0 0 0 0 1
Neighs:    641530 ave 647056 max 636005 min
Histogram: 1 0 0 0 0 0 0 0 0 1

Total # of neighbors = 1283061
Ave neighs/atom = 65.2891
Neighbor list builds = 9505
Dangerous builds not checked
Setting up Verlet run ...
  Unit style    : metal
  Current step  : 100000
  Time step     : 0.001
Per MPI rank memory allocation (min/avg/max) = 11.34 | 11.34 | 11.34 Mbytes
Step Temp Press TotEng PotEng Enthalpy 
  100000    2160.7093    598.05222   -76775.672   -82264.071   -76632.066 
  100495    2119.4681    828.24131   -76965.227   -82348.869   -76766.779 
Loop time of 53.1195 on 2 procs for 495 steps with 19652 atoms

Performance: 0.805 ns/day, 29.809 hours/ns, 9.319 timesteps/s
93.5% CPU use with 2 MPI tasks x no OpenMP threads

MPI task timing breakdown:
Section |  min time  |  avg time  |  max time  |%varavg| %total
---------------------------------------------------------------
Pair    | 29.337     | 29.882     | 30.427     |  10.0 | 56.25
Neigh   | 17.359     | 19.232     | 21.105     |  42.7 | 36.21
Comm    | 0.95026    | 3.4137     | 5.8771     | 133.3 |  6.43
Output  | 9.4891e-05 | 0.00012136 | 0.00014782 |   0.0 |  0.00
Modify  | 0.43683    | 0.46853    | 0.50022    |   4.6 |  0.88
Other   |            | 0.1233     |            |       |  0.23

Nlocal:    9826 ave 9842 max 9810 min
Histogram: 1 0 0 0 0 0 0 0 0 1
Nghost:    12156 ave 12164 max 12148 min
Histogram: 1 0 0 0 0 0 0 0 0 1
Neighs:    642852 ave 650602 max 635103 min
Histogram: 1 0 0 0 0 0 0 0 0 1

Total # of neighbors = 1285705
Ave neighs/atom = 65.4236
Neighbor list builds = 495
Dangerous builds not checked
Setting up Verlet run ...
  Unit style    : metal
  Current step  : 100495
  Time step     : 0.001
Per MPI rank memory allocation (min/avg/max) = 11.34 | 11.34 | 11.34 Mbytes
Step Temp Press TotEng PotEng Enthalpy 
  100495    2119.4681    828.24131   -76965.227   -82348.869   -76766.779 
  110000    2101.4121    163.01181   -77012.751   -82350.529   -76973.621 
Loop time of 945.67 on 2 procs for 9505 steps with 19652 atoms

Performance: 0.868 ns/day, 27.637 hours/ns, 10.051 timesteps/s
97.2% CPU use with 2 MPI tasks x no OpenMP threads

MPI task timing breakdown:
Section |  min time  |  avg time  |  max time  |%varavg| %total
---------------------------------------------------------------
Pair    | 525.54     | 526.75     | 527.96     |   5.3 | 55.70
Neigh   | 358.05     | 359.59     | 361.14     |   8.2 | 38.03
Comm    | 45.504     | 48.302     | 51.1       |  40.3 |  5.11
Output  | 0.036454   | 0.036564   | 0.036673   |   0.1 |  0.00
Modify  | 8.7966     | 8.8122     | 8.8278     |   0.5 |  0.93
Other   |            | 2.175      |            |       |  0.23

Nlocal:    9826 ave 9830 max 9822 min
Histogram: 1 0 0 0 0 0 0 0 0 1
Nghost:    12122.5 ave 12160 max 12085 min
Histogram: 1 0 0 0 0 0 0 0 0 1
Neighs:    641780 ave 647096 max 636463 min
Histogram: 1 0 0 0 0 0 0 0 0 1

Total # of neighbors = 1283559
Ave neighs/atom = 65.3144
Neighbor list builds = 9505
Dangerous builds not checked
Setting up Verlet run ...
  Unit style    : metal
  Current step  : 110000
  Time step     : 0.001
Per MPI rank memory allocation (min/avg/max) = 11.34 | 11.34 | 11.34 Mbytes
Step Temp Press TotEng PotEng Enthalpy 
  110000    2101.4121    163.01181   -77012.751   -82350.529   -76973.621 
  110495    2052.9799    202.82198   -77218.195   -82432.951   -77169.602 
Loop time of 46.2177 on 2 procs for 495 steps with 19652 atoms

Performance: 0.925 ns/day, 25.936 hours/ns, 10.710 timesteps/s
97.8% CPU use with 2 MPI tasks x no OpenMP threads

MPI task timing breakdown:
Section |  min time  |  avg time  |  max time  |%varavg| %total
---------------------------------------------------------------
Pair    | 25.794     | 25.909     | 26.023     |   2.3 | 56.06
Neigh   | 17.497     | 17.761     | 18.025     |   6.3 | 38.43
Comm    | 1.8654     | 2.0172     | 2.169      |  10.7 |  4.36
Output  | 5.8889e-05 | 9.6917e-05 | 0.00013494 |   0.0 |  0.00
Modify  | 0.41917    | 0.42091    | 0.42265    |   0.3 |  0.91
Other   |            | 0.1101     |            |       |  0.24

Nlocal:    9826 ave 9830 max 9822 min
Histogram: 1 0 0 0 0 0 0 0 0 1
Nghost:    12144 ave 12144 max 12144 min
Histogram: 2 0 0 0 0 0 0 0 0 0
Neighs:    643018 ave 650337 max 635700 min
Histogram: 1 0 0 0 0 0 0 0 0 1

Total # of neighbors = 1286037
Ave neighs/atom = 65.4405
Neighbor list builds = 495
Dangerous builds not checked
Setting up Verlet run ...
  Unit style    : metal
  Current step  : 110495
  Time step     : 0.001
Per MPI rank memory allocation (min/avg/max) = 11.34 | 11.34 | 11.34 Mbytes
Step Temp Press TotEng PotEng Enthalpy 
  110495    2052.9799    202.82198   -77218.195   -82432.951   -77169.602 
  120000    2042.5997   -1217.9068    -77230.03    -82418.42   -77522.222 
Loop time of 912.119 on 2 procs for 9505 steps with 19652 atoms

Performance: 0.900 ns/day, 26.656 hours/ns, 10.421 timesteps/s
98.2% CPU use with 2 MPI tasks x no OpenMP threads

MPI task timing breakdown:
Section |  min time  |  avg time  |  max time  |%varavg| %total
---------------------------------------------------------------
Pair    | 505.46     | 506.62     | 507.78     |   5.2 | 55.54
Neigh   | 354.21     | 355.64     | 357.07     |   7.6 | 38.99
Comm    | 38.425     | 38.739     | 39.053     |   5.0 |  4.25
Output  | 0.083201   | 0.083225   | 0.08325    |   0.0 |  0.01
Modify  | 8.866      | 8.895      | 8.924      |   1.0 |  0.98
Other   |            | 2.139      |            |       |  0.23

Nlocal:    9826 ave 9845 max 9807 min
Histogram: 1 0 0 0 0 0 0 0 0 1
Nghost:    12133.5 ave 12154 max 12113 min
Histogram: 1 0 0 0 0 0 0 0 0 1
Neighs:    642172 ave 645797 max 638547 min
Histogram: 1 0 0 0 0 0 0 0 0 1

Total # of neighbors = 1284344
Ave neighs/atom = 65.3544
Neighbor list builds = 9505
Dangerous builds not checked
Setting up Verlet run ...
  Unit style    : metal
  Current step  : 120000
  Time step     : 0.001
Per MPI rank memory allocation (min/avg/max) = 11.34 | 11.34 | 11.34 Mbytes
Step Temp Press TotEng PotEng Enthalpy 
  120000    2042.5997   -1217.9068    -77230.03    -82418.42   -77522.222 
  120495    2005.5836   -944.06466     -77442.6   -82536.965    -77668.38 
Loop time of 45.5311 on 2 procs for 495 steps with 19652 atoms

Performance: 0.939 ns/day, 25.551 hours/ns, 10.872 timesteps/s
98.1% CPU use with 2 MPI tasks x no OpenMP threads

MPI task timing breakdown:
Section |  min time  |  avg time  |  max time  |%varavg| %total
---------------------------------------------------------------
Pair    | 24.943     | 24.973     | 25.002     |   0.6 | 54.85
Neigh   | 17.508     | 17.562     | 17.616     |   1.3 | 38.57
Comm    | 2.3795     | 2.4637     | 2.548      |   5.4 |  5.41
Output  | 0.00012898 | 0.00016689 | 0.0002048  |   0.0 |  0.00
Modify  | 0.42133    | 0.42243    | 0.42352    |   0.2 |  0.93
Other   |            | 0.1096     |            |       |  0.24

Nlocal:    9826 ave 9839 max 9813 min
Histogram: 1 0 0 0 0 0 0 0 0 1
Nghost:    12133.5 ave 12153 max 12114 min
Histogram: 1 0 0 0 0 0 0 0 0 1
Neighs:    644086 ave 649209 max 638963 min
Histogram: 1 0 0 0 0 0 0 0 0 1

Total # of neighbors = 1288172
Ave neighs/atom = 65.5492
Neighbor list builds = 495
Dangerous builds not checked
Setting up Verlet run ...
  Unit style    : metal
  Current step  : 120495
  Time step     : 0.001
Per MPI rank memory allocation (min/avg/max) = 11.34 | 11.34 | 11.34 Mbytes
Step Temp Press TotEng PotEng Enthalpy 
  120495    2005.5836   -944.06466     -77442.6   -82536.965    -77668.38 
  130000    2004.1183   -350.30134    -77473.83   -82564.473   -77557.497 
Loop time of 916.614 on 2 procs for 9505 steps with 19652 atoms

Performance: 0.896 ns/day, 26.787 hours/ns, 10.370 timesteps/s
98.6% CPU use with 2 MPI tasks x no OpenMP threads

MPI task timing breakdown:
Section |  min time  |  avg time  |  max time  |%varavg| %total
---------------------------------------------------------------
Pair    | 510.79     | 512.88     | 514.97     |   9.2 | 55.95
Neigh   | 352.76     | 356.93     | 361.09     |  22.0 | 38.94
Comm    | 29.251     | 35.505     | 41.758     | 104.9 |  3.87
Output  | 0.036306   | 0.036396   | 0.036485   |   0.0 |  0.00
Modify  | 9.0942     | 9.1038     | 9.1134     |   0.3 |  0.99
Other   |            | 2.163      |            |       |  0.24

Nlocal:    9826 ave 9839 max 9813 min
Histogram: 1 0 0 0 0 0 0 0 0 1
Nghost:    12163.5 ave 12199 max 12128 min
Histogram: 1 0 0 0 0 0 0 0 0 1
Neighs:    645191 ave 652603 max 637779 min
Histogram: 1 0 0 0 0 0 0 0 0 1

Total # of neighbors = 1290382
Ave neighs/atom = 65.6616
Neighbor list builds = 9505
Dangerous builds not checked
Setting up Verlet run ...
  Unit style    : metal
  Current step  : 130000
  Time step     : 0.001
Per MPI rank memory allocation (min/avg/max) = 11.34 | 11.34 | 11.34 Mbytes
Step Temp Press TotEng PotEng Enthalpy 
  130000    2004.1183   -350.30134    -77473.83   -82564.473   -77557.497 
  130495    1955.1631    40.803725   -77666.694   -82632.987   -77656.974 
Loop time of 45.6158 on 2 procs for 495 steps with 19652 atoms

Performance: 0.938 ns/day, 25.598 hours/ns, 10.852 timesteps/s
98.7% CPU use with 2 MPI tasks x no OpenMP threads

MPI task timing breakdown:
Section |  min time  |  avg time  |  max time  |%varavg| %total
---------------------------------------------------------------
Pair    | 25.123     | 25.268     | 25.413     |   2.9 | 55.39
Neigh   | 18.01      | 18.117     | 18.225     |   2.5 | 39.72
Comm    | 1.6565     | 1.6928     | 1.7292     |   2.8 |  3.71
Output  | 0.00012207 | 0.00020206 | 0.00028205 |   0.0 |  0.00
Modify  | 0.42537    | 0.42561    | 0.42585    |   0.0 |  0.93
Other   |            | 0.1117     |            |       |  0.24

Nlocal:    9826 ave 9848 max 9804 min
Histogram: 1 0 0 0 0 0 0 0 0 1
Nghost:    12159.5 ave 12202 max 12117 min
Histogram: 1 0 0 0 0 0 0 0 0 1
Neighs:    646962 ave 654985 max 638938 min
Histogram: 1 0 0 0 0 0 0 0 0 1

Total # of neighbors = 1293923
Ave neighs/atom = 65.8418
Neighbor list builds = 495
Dangerous builds not checked
Setting up Verlet run ...
  Unit style    : metal
  Current step  : 130495
  Time step     : 0.001
Per MPI rank memory allocation (min/avg/max) = 11.34 | 11.34 | 11.34 Mbytes
Step Temp Press TotEng PotEng Enthalpy 
  130495    1955.1631    40.803725   -77666.694   -82632.987   -77656.974 
  140000    1939.9693    1606.8879   -77769.875   -82697.574   -77388.296 
Loop time of 934.06 on 2 procs for 9505 steps with 19652 atoms

Performance: 0.879 ns/day, 27.297 hours/ns, 10.176 timesteps/s
98.0% CPU use with 2 MPI tasks x no OpenMP threads

MPI task timing breakdown:
Section |  min time  |  avg time  |  max time  |%varavg| %total
---------------------------------------------------------------
Pair    | 516.75     | 520.19     | 523.64     |  15.1 | 55.69
Neigh   | 355.72     | 358.85     | 361.98     |  16.5 | 38.42
Comm    | 36.739     | 43.366     | 49.993     | 100.6 |  4.64
Output  | 0.036884   | 0.036956   | 0.037028   |   0.0 |  0.00
Modify  | 9.4079     | 9.4477     | 9.4876     |   1.3 |  1.01
Other   |            | 2.166      |            |       |  0.23

Nlocal:    9826 ave 9830 max 9822 min
Histogram: 1 0 0 0 0 0 0 0 0 1
Nghost:    12156.5 ave 12159 max 12154 min
Histogram: 1 0 0 0 0 0 0 0 0 1
Neighs:    648968 ave 654561 max 643375 min
Histogram: 1 0 0 0 0 0 0 0 0 1

Total # of neighbors = 1297936
Ave neighs/atom = 66.046
Neighbor list builds = 9505
Dangerous builds not checked
Setting up Verlet run ...
  Unit style    : metal
  Current step  : 140000
  Time step     : 0.001
Per MPI rank memory allocation (min/avg/max) = 11.34 | 11.34 | 11.34 Mbytes
Step Temp Press TotEng PotEng Enthalpy 
  140000    1939.9693    1606.8879   -77769.875   -82697.574   -77388.296 
  140495     1921.334   -229.53903   -77855.277    -82735.64   -77909.934 
Loop time of 44.7585 on 2 procs for 495 steps with 19652 atoms

Performance: 0.956 ns/day, 25.117 hours/ns, 11.059 timesteps/s
99.9% CPU use with 2 MPI tasks x no OpenMP threads

MPI task timing breakdown:
Section |  min time  |  avg time  |  max time  |%varavg| %total
---------------------------------------------------------------
Pair    | 24.842     | 24.934     | 25.025     |   1.8 | 55.71
Neigh   | 17.829     | 17.839     | 17.848     |   0.2 | 39.86
Comm    | 1.3648     | 1.4458     | 1.5268     |   6.7 |  3.23
Output  | 0.00012302 | 0.00016952 | 0.00021601 |   0.0 |  0.00
Modify  | 0.42712    | 0.42714    | 0.42716    |   0.0 |  0.95
Other   |            | 0.1127     |            |       |  0.25

Nlocal:    9826 ave 9842 max 9810 min
Histogram: 1 0 0 0 0 0 0 0 0 1
Nghost:    12206 ave 12226 max 12186 min
Histogram: 1 0 0 0 0 0 0 0 0 1
Neighs:    647168 ave 654599 max 639738 min
Histogram: 1 0 0 0 0 0 0 0 0 1

Total # of neighbors = 1294337
Ave neighs/atom = 65.8629
Neighbor list builds = 495
Dangerous builds not checked
Setting up Verlet run ...
  Unit style    : metal
  Current step  : 140495
  Time step     : 0.001
Per MPI rank memory allocation (min/avg/max) = 11.34 | 11.34 | 11.34 Mbytes
Step Temp Press TotEng PotEng Enthalpy 
  140495     1921.334   -229.53903   -77855.277    -82735.64   -77909.934 
  150000    1906.5684    638.38369   -77932.959   -82775.817   -77781.375 
Loop time of 907.857 on 2 procs for 9505 steps with 19652 atoms

Performance: 0.905 ns/day, 26.532 hours/ns, 10.470 timesteps/s
98.4% CPU use with 2 MPI tasks x no OpenMP threads

MPI task timing breakdown:
Section |  min time  |  avg time  |  max time  |%varavg| %total
---------------------------------------------------------------
Pair    | 504.38     | 507.51     | 510.64     |  13.9 | 55.90
Neigh   | 345.88     | 348.49     | 351.1      |  14.0 | 38.39
Comm    | 40.686     | 41.135     | 41.584     |   7.0 |  4.53
Output  | 0.037733   | 0.037777   | 0.037822   |   0.0 |  0.00
Modify  | 8.5006     | 8.5541     | 8.6076     |   1.8 |  0.94
Other   |            | 2.131      |            |       |  0.23

Nlocal:    9826 ave 9843 max 9809 min
Histogram: 1 0 0 0 0 0 0 0 0 1
Nghost:    12151.5 ave 12159 max 12144 min
Histogram: 1 0 0 0 0 0 0 0 0 1
Neighs:    648998 ave 657184 max 640813 min
Histogram: 1 0 0 0 0 0 0 0 0 1

Total # of neighbors = 1297997
Ave neighs/atom = 66.0491
Neighbor list builds = 9505
Dangerous builds not checked
Setting up Verlet run ...
  Unit style    : metal
  Current step  : 150000
  Time step     : 0.001
Per MPI rank memory allocation (min/avg/max) = 11.34 | 11.34 | 11.34 Mbytes
Step Temp Press TotEng PotEng Enthalpy 
  150000    1906.5684    638.38369   -77932.959   -82775.817   -77781.375 
  150495    1852.9421    842.04386   -78136.553   -82843.195   -77936.785 
Loop time of 44.5743 on 2 procs for 495 steps with 19652 atoms

Performance: 0.959 ns/day, 25.014 hours/ns, 11.105 timesteps/s
99.3% CPU use with 2 MPI tasks x no OpenMP threads

MPI task timing breakdown:
Section |  min time  |  avg time  |  max time  |%varavg| %total
---------------------------------------------------------------
Pair    | 24.85      | 24.86      | 24.87      |   0.2 | 55.77
Neigh   | 17.447     | 17.488     | 17.53      |   1.0 | 39.23
Comm    | 1.637      | 1.6903     | 1.7437     |   4.1 |  3.79
Output  | 9.7036e-05 | 0.00020504 | 0.00031304 |   0.0 |  0.00
Modify  | 0.42462    | 0.42564    | 0.42666    |   0.2 |  0.95
Other   |            | 0.11       |            |       |  0.25

Nlocal:    9826 ave 9842 max 9810 min
Histogram: 1 0 0 0 0 0 0 0 0 1
Nghost:    12170.5 ave 12193 max 12148 min
Histogram: 1 0 0 0 0 0 0 0 0 1
Neighs:    649807 ave 657054 max 642560 min
Histogram: 1 0 0 0 0 0 0 0 0 1

Total # of neighbors = 1299614
Ave neighs/atom = 66.1314
Neighbor list builds = 495
Dangerous builds not checked
Setting up Verlet run ...
  Unit style    : metal
  Current step  : 150495
  Time step     : 0.001
Per MPI rank memory allocation (min/avg/max) = 11.34 | 11.34 | 11.34 Mbytes
Step Temp Press TotEng PotEng Enthalpy 
  150495    1852.9421    842.04386   -78136.553   -82843.195   -77936.785 
  160000    1820.8824    1205.3896   -78258.103    -82883.31   -77972.499 
Loop time of 898.479 on 2 procs for 9505 steps with 19652 atoms

Performance: 0.914 ns/day, 26.257 hours/ns, 10.579 timesteps/s
98.4% CPU use with 2 MPI tasks x no OpenMP threads

MPI task timing breakdown:
Section |  min time  |  avg time  |  max time  |%varavg| %total
---------------------------------------------------------------
Pair    | 500.18     | 502.01     | 503.83     |   8.1 | 55.87
Neigh   | 346.12     | 347.17     | 348.22     |   5.6 | 38.64
Comm    | 36.108     | 38.964     | 41.821     |  45.8 |  4.34
Output  | 0.035986   | 0.036074   | 0.036161   |   0.0 |  0.00
Modify  | 8.1851     | 8.1984     | 8.2116     |   0.5 |  0.91
Other   |            | 2.106      |            |       |  0.23

Nlocal:    9826 ave 9827 max 9825 min
Histogram: 1 0 0 0 0 0 0 0 0 1
Nghost:    12241.5 ave 12273 max 12210 min
Histogram: 1 0 0 0 0 0 0 0 0 1
Neighs:    650250 ave 656269 max 644232 min
Histogram: 1 0 0 0 0 0 0 0 0 1

Total # of neighbors = 1300501
Ave neighs/atom = 66.1765
Neighbor list builds = 9505
Dangerous builds not checked
Setting up Verlet run ...
  Unit style    : metal
  Current step  : 160000
  Time step     : 0.001
Per MPI rank memory allocation (min/avg/max) = 11.34 | 11.34 | 11.34 Mbytes
Step Temp Press TotEng PotEng Enthalpy 
  160000    1820.8824    1205.3896   -78258.103    -82883.31   -77972.499 
  160495    1808.0368   -220.42408   -78334.196   -82926.775   -78386.469 
Loop time of 46.2749 on 2 procs for 495 steps with 19652 atoms

Performance: 0.924 ns/day, 25.968 hours/ns, 10.697 timesteps/s
99.3% CPU use with 2 MPI tasks x no OpenMP threads

MPI task timing breakdown:
Section |  min time  |  avg time  |  max time  |%varavg| %total
---------------------------------------------------------------
Pair    | 25.877     | 25.986     | 26.095     |   2.1 | 56.16
Neigh   | 17.653     | 18.158     | 18.664     |  11.9 | 39.24
Comm    | 0.9491     | 1.5737     | 2.1983     |  49.8 |  3.40
Output  | 0.00010109 | 0.00022459 | 0.00034809 |   0.0 |  0.00
Modify  | 0.43518    | 0.44223    | 0.44929    |   1.1 |  0.96
Other   |            | 0.1141     |            |       |  0.25

Nlocal:    9826 ave 9876 max 9776 min
Histogram: 1 0 0 0 0 0 0 0 0 1
Nghost:    12161 ave 12208 max 12114 min
Histogram: 1 0 0 0 0 0 0 0 0 1
Neighs:    649784 ave 650692 max 648876 min
Histogram: 1 0 0 0 0 0 0 0 0 1

Total # of neighbors = 1299568
Ave neighs/atom = 66.129
Neighbor list builds = 495
Dangerous builds not checked
Setting up Verlet run ...
  Unit style    : metal
  Current step  : 160495
  Time step     : 0.001
Per MPI rank memory allocation (min/avg/max) = 11.34 | 11.34 | 11.34 Mbytes
Step Temp Press TotEng PotEng Enthalpy 
  160495    1808.0368   -220.42408   -78334.196   -82926.775   -78386.469 
  170000    1810.4986    1480.3626    -78402.46   -83001.291   -78052.603 
Loop time of 869.188 on 2 procs for 9505 steps with 19652 atoms

Performance: 0.945 ns/day, 25.401 hours/ns, 10.935 timesteps/s
98.3% CPU use with 2 MPI tasks x no OpenMP threads

MPI task timing breakdown:
Section |  min time  |  avg time  |  max time  |%varavg| %total
---------------------------------------------------------------
Pair    | 478.02     | 480.12     | 482.22     |   9.6 | 55.24
Neigh   | 342.14     | 342.58     | 343.02     |   2.4 | 39.41
Comm    | 32.332     | 34.882     | 37.431     |  43.2 |  4.01
Output  | 0.052885   | 0.052969   | 0.053052   |   0.0 |  0.01
Modify  | 9.4625     | 9.4837     | 9.505      |   0.7 |  1.09
Other   |            | 2.07       |            |       |  0.24

Nlocal:    9826 ave 9839 max 9813 min
Histogram: 1 0 0 0 0 0 0 0 0 1
Nghost:    12250 ave 12253 max 12247 min
Histogram: 1 0 0 0 0 0 0 0 0 1
Neighs:    652062 ave 659466 max 644658 min
Histogram: 1 0 0 0 0 0 0 0 0 1

Total # of neighbors = 1304124
Ave neighs/atom = 66.3609
Neighbor list builds = 9505
Dangerous builds not checked
Setting up Verlet run ...
  Unit style    : metal
  Current step  : 170000
  Time step     : 0.001
Per MPI rank memory allocation (min/avg/max) = 11.34 | 11.34 | 11.34 Mbytes
Step Temp Press TotEng PotEng Enthalpy 
  170000    1810.4986    1480.3626    -78402.46   -83001.291   -78052.603 
  170495    1774.1899    173.64665   -78546.987    -83053.59   -78505.904 
Loop time of 48.0235 on 2 procs for 495 steps with 19652 atoms

Performance: 0.891 ns/day, 26.949 hours/ns, 10.307 timesteps/s
94.8% CPU use with 2 MPI tasks x no OpenMP threads

MPI task timing breakdown:
Section |  min time  |  avg time  |  max time  |%varavg| %total
---------------------------------------------------------------
Pair    | 25.768     | 25.876     | 25.985     |   2.1 | 53.88
Neigh   | 17.319     | 17.804     | 18.288     |  11.5 | 37.07
Comm    | 2.9751     | 3.5791     | 4.183      |  31.9 |  7.45
Output  | 0.00010085 | 0.00013745 | 0.00017405 |   0.0 |  0.00
Modify  | 0.64602    | 0.65598    | 0.66594    |   1.2 |  1.37
Other   |            | 0.1085     |            |       |  0.23

Nlocal:    9826 ave 9830 max 9822 min
Histogram: 1 0 0 0 0 0 0 0 0 1
Nghost:    12231 ave 12236 max 12226 min
Histogram: 1 0 0 0 0 0 0 0 0 1
Neighs:    651404 ave 657893 max 644914 min
Histogram: 1 0 0 0 0 0 0 0 0 1

Total # of neighbors = 1302807
Ave neighs/atom = 66.2939
Neighbor list builds = 495
Dangerous builds not checked
Setting up Verlet run ...
  Unit style    : metal
  Current step  : 170495
  Time step     : 0.001
Per MPI rank memory allocation (min/avg/max) = 11.34 | 11.34 | 11.34 Mbytes
Step Temp Press TotEng PotEng Enthalpy 
  170495    1774.1899    173.64665   -78546.987    -83053.59   -78505.904 
  180000    1755.7985    642.74873   -78638.018   -83097.906   -78485.898 
Loop time of 872.878 on 2 procs for 9505 steps with 19652 atoms

Performance: 0.941 ns/day, 25.509 hours/ns, 10.889 timesteps/s
98.0% CPU use with 2 MPI tasks x no OpenMP threads

MPI task timing breakdown:
Section |  min time  |  avg time  |  max time  |%varavg| %total
---------------------------------------------------------------
Pair    | 477.51     | 479.11     | 480.72     |   7.3 | 54.89
Neigh   | 340.77     | 343.49     | 346.21     |  14.7 | 39.35
Comm    | 34.551     | 38.889     | 43.227     |  69.6 |  4.46
Output  | 0.035468   | 0.035537   | 0.035606   |   0.0 |  0.00
Modify  | 9.2772     | 9.2829     | 9.2886     |   0.2 |  1.06
Other   |            | 2.07       |            |       |  0.24

Nlocal:    9826 ave 9834 max 9818 min
Histogram: 1 0 0 0 0 0 0 0 0 1
Nghost:    12218 ave 12244 max 12192 min
Histogram: 1 0 0 0 0 0 0 0 0 1
Neighs:    651061 ave 657564 max 644558 min
Histogram: 1 0 0 0 0 0 0 0 0 1

Total # of neighbors = 1302122
Ave neighs/atom = 66.259
Neighbor list builds = 9505
Dangerous builds not checked
Setting up Verlet run ...
  Unit style    : metal
  Current step  : 180000
  Time step     : 0.001
Per MPI rank memory allocation (min/avg/max) = 11.34 | 11.34 | 11.34 Mbytes
Step Temp Press TotEng PotEng Enthalpy 
  180000    1755.7985    642.74873   -78638.018   -83097.906   -78485.898 
  180495      1712.21    314.98598   -78811.354   -83160.523   -78737.072 
Loop time of 43.4008 on 2 procs for 495 steps with 19652 atoms

Performance: 0.985 ns/day, 24.355 hours/ns, 11.405 timesteps/s
98.7% CPU use with 2 MPI tasks x no OpenMP threads

MPI task timing breakdown:
Section |  min time  |  avg time  |  max time  |%varavg| %total
---------------------------------------------------------------
Pair    | 23.852     | 23.98      | 24.108     |   2.6 | 55.25
Neigh   | 17.514     | 17.619     | 17.723     |   2.5 | 40.60
Comm    | 1.2477     | 1.2702     | 1.2926     |   2.0 |  2.93
Output  | 9.6083e-05 | 0.00019956 | 0.00030303 |   0.0 |  0.00
Modify  | 0.42067    | 0.42211    | 0.42355    |   0.2 |  0.97
Other   |            | 0.1099     |            |       |  0.25

Nlocal:    9826 ave 9832 max 9820 min
Histogram: 1 0 0 0 0 0 0 0 0 1
Nghost:    12256 ave 12265 max 12247 min
Histogram: 1 0 0 0 0 0 0 0 0 1
Neighs:    653700 ave 659773 max 647628 min
Histogram: 1 0 0 0 0 0 0 0 0 1

Total # of neighbors = 1307401
Ave neighs/atom = 66.5276
Neighbor list builds = 495
Dangerous builds not checked
Setting up Verlet run ...
  Unit style    : metal
  Current step  : 180495
  Time step     : 0.001
Per MPI rank memory allocation (min/avg/max) = 11.34 | 11.34 | 11.34 Mbytes
Step Temp Press TotEng PotEng Enthalpy 
  180495      1712.21    314.98598   -78811.354   -83160.523   -78737.072 
  190000    1683.8419   -125.60726   -78903.534   -83180.646   -78933.173 
Loop time of 895.504 on 2 procs for 9505 steps with 19652 atoms

Performance: 0.917 ns/day, 26.171 hours/ns, 10.614 timesteps/s
98.0% CPU use with 2 MPI tasks x no OpenMP threads

MPI task timing breakdown:
Section |  min time  |  avg time  |  max time  |%varavg| %total
---------------------------------------------------------------
Pair    | 500.45     | 501.95     | 503.46     |   6.7 | 56.05
Neigh   | 351.28     | 353.01     | 354.75     |   9.2 | 39.42
Comm    | 26.493     | 29.725     | 32.956     |  59.3 |  3.32
Output  | 0.035394   | 0.035468   | 0.035543   |   0.0 |  0.00
Modify  | 8.6275     | 8.6355     | 8.6436     |   0.3 |  0.96
Other   |            | 2.14       |            |       |  0.24

Nlocal:    9826 ave 9835 max 9817 min
Histogram: 1 0 0 0 0 0 0 0 0 1
Nghost:    12211.5 ave 12234 max 12189 min
Histogram: 1 0 0 0 0 0 0 0 0 1
Neighs:    653076 ave 658936 max 647215 min
Histogram: 1 0 0 0 0 0 0 0 0 1

Total # of neighbors = 1306151
Ave neighs/atom = 66.464
Neighbor list builds = 9505
Dangerous builds not checked
Setting up Verlet run ...
  Unit style    : metal
  Current step  : 190000
  Time step     : 0.001
Per MPI rank memory allocation (min/avg/max) = 11.34 | 11.34 | 11.34 Mbytes
Step Temp Press TotEng PotEng Enthalpy 
  190000    1683.8419   -125.60726   -78903.534   -83180.646   -78933.173 
  190495    1650.1346    -549.5896    -79082.52   -83274.012   -79212.117 
Loop time of 41.5426 on 2 procs for 495 steps with 19652 atoms

Performance: 1.029 ns/day, 23.312 hours/ns, 11.915 timesteps/s
99.7% CPU use with 2 MPI tasks x no OpenMP threads

MPI task timing breakdown:
Section |  min time  |  avg time  |  max time  |%varavg| %total
---------------------------------------------------------------
Pair    | 22.809     | 22.855     | 22.9       |   1.0 | 55.02
Neigh   | 16.498     | 16.526     | 16.555     |   0.7 | 39.78
Comm    | 1.5824     | 1.6563     | 1.7301     |   5.7 |  3.99
Output  | 7.2002e-05 | 0.00010347 | 0.00013494 |   0.0 |  0.00
Modify  | 0.40027    | 0.40097    | 0.40166    |   0.1 |  0.97
Other   |            | 0.1041     |            |       |  0.25

Nlocal:    9826 ave 9834 max 9818 min
Histogram: 1 0 0 0 0 0 0 0 0 1
Nghost:    12179 ave 12183 max 12175 min
Histogram: 1 0 0 0 0 0 0 0 0 1
Neighs:    653414 ave 661181 max 645646 min
Histogram: 1 0 0 0 0 0 0 0 0 1

Total # of neighbors = 1306827
Ave neighs/atom = 66.4984
Neighbor list builds = 495
Dangerous builds not checked
Setting up Verlet run ...
  Unit style    : metal
  Current step  : 190495
  Time step     : 0.001
Per MPI rank memory allocation (min/avg/max) = 11.34 | 11.34 | 11.34 Mbytes
Step Temp Press TotEng PotEng Enthalpy 
  190495    1650.1346    -549.5896    -79082.52   -83274.012   -79212.117 
  200000    1661.0377   -1510.1709   -79068.049   -83287.236   -79424.731 
Loop time of 901.703 on 2 procs for 9505 steps with 19652 atoms

Performance: 0.911 ns/day, 26.352 hours/ns, 10.541 timesteps/s
98.5% CPU use with 2 MPI tasks x no OpenMP threads

MPI task timing breakdown:
Section |  min time  |  avg time  |  max time  |%varavg| %total
---------------------------------------------------------------
Pair    | 498.61     | 499.6      | 500.59     |   4.4 | 55.41
Neigh   | 353        | 355.86     | 358.71     |  15.1 | 39.46
Comm    | 31.704     | 35.748     | 39.793     |  67.6 |  3.96
Output  | 0.037224   | 0.037251   | 0.037279   |   0.0 |  0.00
Modify  | 8.1646     | 8.3557     | 8.5467     |   6.6 |  0.93
Other   |            | 2.104      |            |       |  0.23

Nlocal:    9826 ave 9841 max 9811 min
Histogram: 1 0 0 0 0 0 0 0 0 1
Nghost:    12175.5 ave 12204 max 12147 min
Histogram: 1 0 0 0 0 0 0 0 0 1
Neighs:    652544 ave 657736 max 647351 min
Histogram: 1 0 0 0 0 0 0 0 0 1

Total # of neighbors = 1305087
Ave neighs/atom = 66.4099
Neighbor list builds = 9505
Dangerous builds not checked
Setting up Verlet run ...
  Unit style    : metal
  Current step  : 200000
  Time step     : 0.001
Per MPI rank memory allocation (min/avg/max) = 11.35 | 11.35 | 11.35 Mbytes
Step Temp Press TotEng PotEng Enthalpy 
  200000    1661.0377   -1510.1709   -79068.049   -83287.236   -79424.731 
  200495    1596.3759   -1063.9315    -79312.26     -83367.2   -79562.738 
Loop time of 44.6509 on 2 procs for 495 steps with 19652 atoms

Performance: 0.958 ns/day, 25.057 hours/ns, 11.086 timesteps/s
99.0% CPU use with 2 MPI tasks x no OpenMP threads

MPI task timing breakdown:
Section |  min time  |  avg time  |  max time  |%varavg| %total
---------------------------------------------------------------
Pair    | 23.865     | 24.06      | 24.255     |   4.0 | 53.88
Neigh   | 17.793     | 18.018     | 18.242     |   5.3 | 40.35
Comm    | 1.627      | 2.0505     | 2.4739     |  29.6 |  4.59
Output  | 9.1076e-05 | 0.00014198 | 0.00019288 |   0.0 |  0.00
Modify  | 0.41058    | 0.41348    | 0.41639    |   0.5 |  0.93
Other   |            | 0.109      |            |       |  0.24

Nlocal:    9826 ave 9859 max 9793 min
Histogram: 1 0 0 0 0 0 0 0 0 1
Nghost:    12243.5 ave 12245 max 12242 min
Histogram: 1 0 0 0 0 0 0 0 0 1
Neighs:    654570 ave 664172 max 644968 min
Histogram: 1 0 0 0 0 0 0 0 0 1

Total # of neighbors = 1309140
Ave neighs/atom = 66.6161
Neighbor list builds = 495
Dangerous builds not checked
Setting up Verlet run ...
  Unit style    : metal
  Current step  : 200495
  Time step     : 0.001
Per MPI rank memory allocation (min/avg/max) = 11.35 | 11.35 | 11.35 Mbytes
Step Temp Press TotEng PotEng Enthalpy 
  200495    1596.3759   -1063.9315    -79312.26     -83367.2   -79562.738 
  210000    1593.7025   -27.107182    -79329.49    -83377.64   -79335.872 
Loop time of 910.831 on 2 procs for 9505 steps with 19652 atoms

Performance: 0.902 ns/day, 26.618 hours/ns, 10.436 timesteps/s
98.1% CPU use with 2 MPI tasks x no OpenMP threads

MPI task timing breakdown:
Section |  min time  |  avg time  |  max time  |%varavg| %total
---------------------------------------------------------------
Pair    | 490.67     | 491.03     | 491.38     |   1.6 | 53.91
Neigh   | 373.4      | 373.56     | 373.73     |   0.8 | 41.01
Comm    | 35.257     | 35.761     | 36.266     |   8.4 |  3.93
Output  | 0.037077   | 0.037101   | 0.037125   |   0.0 |  0.00
Modify  | 8.3058     | 8.3221     | 8.3384     |   0.6 |  0.91
Other   |            | 2.121      |            |       |  0.23

Nlocal:    9826 ave 9851 max 9801 min
Histogram: 1 0 0 0 0 0 0 0 0 1
Nghost:    12210 ave 12252 max 12168 min
Histogram: 1 0 0 0 0 0 0 0 0 1
Neighs:    654625 ave 659442 max 649808 min
Histogram: 1 0 0 0 0 0 0 0 0 1

Total # of neighbors = 1309250
Ave neighs/atom = 66.6217
Neighbor list builds = 9505
Dangerous builds not checked
Setting up Verlet run ...
  Unit style    : metal
  Current step  : 210000
  Time step     : 0.001
Per MPI rank memory allocation (min/avg/max) = 11.35 | 11.35 | 11.35 Mbytes
Step Temp Press TotEng PotEng Enthalpy 
  210000    1593.7025   -27.107182    -79329.49    -83377.64   -79335.872 
  210495    1555.5854   -21.746528   -79539.785   -83491.114   -79544.893 
Loop time of 49.4641 on 2 procs for 495 steps with 19652 atoms

Performance: 0.865 ns/day, 27.758 hours/ns, 10.007 timesteps/s
94.9% CPU use with 2 MPI tasks x no OpenMP threads

MPI task timing breakdown:
Section |  min time  |  avg time  |  max time  |%varavg| %total
---------------------------------------------------------------
Pair    | 26.098     | 26.183     | 26.268     |   1.7 | 52.93
Neigh   | 19.376     | 19.457     | 19.537     |   1.8 | 39.33
Comm    | 3.274      | 3.2811     | 3.2882     |   0.4 |  6.63
Output  | 9.7036e-05 | 0.00014246 | 0.00018787 |   0.0 |  0.00
Modify  | 0.42812    | 0.43124    | 0.43435    |   0.5 |  0.87
Other   |            | 0.1121     |            |       |  0.23

Nlocal:    9826 ave 9833 max 9819 min
Histogram: 1 0 0 0 0 0 0 0 0 1
Nghost:    12238.5 ave 12254 max 12223 min
Histogram: 1 0 0 0 0 0 0 0 0 1
Neighs:    656278 ave 656983 max 655574 min
Histogram: 1 0 0 0 0 0 0 0 0 1

Total # of neighbors = 1312557
Ave neighs/atom = 66.79
Neighbor list builds = 495
Dangerous builds not checked
Setting up Verlet run ...
  Unit style    : metal
  Current step  : 210495
  Time step     : 0.001
Per MPI rank memory allocation (min/avg/max) = 11.35 | 11.35 | 11.35 Mbytes
Step Temp Press TotEng PotEng Enthalpy 
  210495    1555.5854   -21.746528   -79539.785   -83491.114   -79544.893 
  220000    1556.2237    122.36822    -79606.32    -83559.27    -79577.63 
Loop time of 934.095 on 2 procs for 9505 steps with 19652 atoms

Performance: 0.879 ns/day, 27.298 hours/ns, 10.176 timesteps/s
98.4% CPU use with 2 MPI tasks x no OpenMP threads

MPI task timing breakdown:
Section |  min time  |  avg time  |  max time  |%varavg| %total
---------------------------------------------------------------
Pair    | 503        | 503.56     | 504.11     |   2.5 | 53.91
Neigh   | 384.89     | 385.37     | 385.86     |   2.5 | 41.26
Comm    | 34.148     | 34.214     | 34.279     |   1.1 |  3.66
Output  | 0.035561   | 0.035592   | 0.035623   |   0.0 |  0.00
Modify  | 8.7486     | 8.7491     | 8.7495     |   0.0 |  0.94
Other   |            | 2.166      |            |       |  0.23

Nlocal:    9826 ave 9841 max 9811 min
Histogram: 1 0 0 0 0 0 0 0 0 1
Nghost:    12290.5 ave 12308 max 12273 min
Histogram: 1 0 0 0 0 0 0 0 0 1
Neighs:    657384 ave 659500 max 655267 min
Histogram: 1 0 0 0 0 0 0 0 0 1

Total # of neighbors = 1314767
Ave neighs/atom = 66.9025
Neighbor list builds = 9505
Dangerous builds not checked
Setting up Verlet run ...
  Unit style    : metal
  Current step  : 220000
  Time step     : 0.001
Per MPI rank memory allocation (min/avg/max) = 11.35 | 11.35 | 11.35 Mbytes
Step Temp Press TotEng PotEng Enthalpy 
  220000    1556.2237    122.36822    -79606.32    -83559.27    -79577.63 
  220495    1512.7011    1079.0532   -79795.695   -83638.094   -79543.316 
Loop time of 46.8743 on 2 procs for 495 steps with 19652 atoms

Performance: 0.912 ns/day, 26.304 hours/ns, 10.560 timesteps/s
98.8% CPU use with 2 MPI tasks x no OpenMP threads

MPI task timing breakdown:
Section |  min time  |  avg time  |  max time  |%varavg| %total
---------------------------------------------------------------
Pair    | 24.977     | 25.118     | 25.259     |   2.8 | 53.59
Neigh   | 18.688     | 19.29      | 19.891     |  13.7 | 41.15
Comm    | 1.4453     | 1.9149     | 2.3845     |  33.9 |  4.09
Output  | 9.9182e-05 | 0.00013852 | 0.00017786 |   0.0 |  0.00
Modify  | 0.43395    | 0.44073    | 0.4475     |   1.0 |  0.94
Other   |            | 0.1109     |            |       |  0.24

Nlocal:    9826 ave 9842 max 9810 min
Histogram: 1 0 0 0 0 0 0 0 0 1
Nghost:    12269.5 ave 12279 max 12260 min
Histogram: 1 0 0 0 0 0 0 0 0 1
Neighs:    658935 ave 660214 max 657656 min
Histogram: 1 0 0 0 0 0 0 0 0 1

Total # of neighbors = 1317870
Ave neighs/atom = 67.0604
Neighbor list builds = 495
Dangerous builds not checked
Setting up Verlet run ...
  Unit style    : metal
  Current step  : 220495
  Time step     : 0.001
Per MPI rank memory allocation (min/avg/max) = 11.35 | 11.35 | 11.35 Mbytes
Step Temp Press TotEng PotEng Enthalpy 
  220495    1512.7011    1079.0532   -79795.695   -83638.094   -79543.316 
  230000    1503.9071    350.19157   -79862.435   -83682.496   -79780.439 
Loop time of 1142.5 on 2 procs for 9505 steps with 19652 atoms

Performance: 0.719 ns/day, 33.389 hours/ns, 8.319 timesteps/s
90.0% CPU use with 2 MPI tasks x no OpenMP threads

MPI task timing breakdown:
Section |  min time  |  avg time  |  max time  |%varavg| %total
---------------------------------------------------------------
Pair    | 623.97     | 624.68     | 625.38     |   2.8 | 54.68
Neigh   | 434.43     | 436.71     | 439        |  10.9 | 38.22
Comm    | 63.712     | 66.792     | 69.872     |  37.7 |  5.85
Output  | 0.050168   | 0.050209   | 0.05025    |   0.0 |  0.00
Modify  | 11.662     | 11.757     | 11.852     |   2.8 |  1.03
Other   |            | 2.509      |            |       |  0.22

Nlocal:    9826 ave 9845 max 9807 min
Histogram: 1 0 0 0 0 0 0 0 0 1
Nghost:    12239 ave 12256 max 12222 min
Histogram: 1 0 0 0 0 0 0 0 0 1
Neighs:    658157 ave 660292 max 656022 min
Histogram: 1 0 0 0 0 0 0 0 0 1

Total # of neighbors = 1316314
Ave neighs/atom = 66.9812
Neighbor list builds = 9505
Dangerous builds not checked
Setting up Verlet run ...
  Unit style    : metal
  Current step  : 230000
  Time step     : 0.001
Per MPI rank memory allocation (min/avg/max) = 11.35 | 11.35 | 11.35 Mbytes
Step Temp Press TotEng PotEng Enthalpy 
  230000    1503.9071    350.19157   -79862.435   -83682.496   -79780.439 
  230495    1460.8377    373.26144   -80028.391   -83739.052   -79941.103 
Loop time of 52.659 on 2 procs for 495 steps with 19652 atoms

Performance: 0.812 ns/day, 29.550 hours/ns, 9.400 timesteps/s
94.6% CPU use with 2 MPI tasks x no OpenMP threads

MPI task timing breakdown:
Section |  min time  |  avg time  |  max time  |%varavg| %total
---------------------------------------------------------------
Pair    | 28.747     | 29.096     | 29.444     |   6.5 | 55.25
Neigh   | 20.583     | 20.726     | 20.869     |   3.2 | 39.36
Comm    | 1.7106     | 2.2047     | 2.6988     |  33.3 |  4.19
Output  | 0.000144   | 0.00015998 | 0.00017595 |   0.0 |  0.00
Modify  | 0.49921    | 0.50453    | 0.50985    |   0.7 |  0.96
Other   |            | 0.1279     |            |       |  0.24

Nlocal:    9826 ave 9827 max 9825 min
Histogram: 1 0 0 0 0 0 0 0 0 1
Nghost:    12239.5 ave 12250 max 12229 min
Histogram: 1 0 0 0 0 0 0 0 0 1
Neighs:    658986 ave 659004 max 658967 min
Histogram: 1 0 0 0 0 0 0 0 0 1

Total # of neighbors = 1317971
Ave neighs/atom = 67.0655
Neighbor list builds = 495
Dangerous builds not checked
Setting up Verlet run ...
  Unit style    : metal
  Current step  : 230495
  Time step     : 0.001
Per MPI rank memory allocation (min/avg/max) = 11.35 | 11.35 | 11.35 Mbytes
Step Temp Press TotEng PotEng Enthalpy 
  230495    1460.8377    373.26144   -80028.391   -83739.052   -79941.103 
  240000     1442.616   -795.22808    -80100.87   -83765.246   -80287.248 
Loop time of 1253.54 on 2 procs for 9505 steps with 19652 atoms

Performance: 0.655 ns/day, 36.634 hours/ns, 7.583 timesteps/s
84.5% CPU use with 2 MPI tasks x no OpenMP threads

MPI task timing breakdown:
Section |  min time  |  avg time  |  max time  |%varavg| %total
---------------------------------------------------------------
Pair    | 690.22     | 691.98     | 693.74     |   6.7 | 55.20
Neigh   | 468.67     | 471.67     | 474.67     |  13.8 | 37.63
Comm    | 73.449     | 74.826     | 76.203     |  15.9 |  5.97
Output  | 0.039326   | 0.039362   | 0.039398   |   0.0 |  0.00
Modify  | 12.235     | 12.332     | 12.43      |   2.8 |  0.98
Other   |            | 2.69       |            |       |  0.21

Nlocal:    9826 ave 9863 max 9789 min
Histogram: 1 0 0 0 0 0 0 0 0 1
Nghost:    12208.5 ave 12228 max 12189 min
Histogram: 1 0 0 0 0 0 0 0 0 1
Neighs:    657613 ave 661677 max 653549 min
Histogram: 1 0 0 0 0 0 0 0 0 1

Total # of neighbors = 1315226
Ave neighs/atom = 66.9258
Neighbor list builds = 9505
Dangerous builds not checked
Setting up Verlet run ...
  Unit style    : metal
  Current step  : 240000
  Time step     : 0.001
Per MPI rank memory allocation (min/avg/max) = 11.35 | 11.35 | 11.35 Mbytes
Step Temp Press TotEng PotEng Enthalpy 
  240000     1442.616   -795.22808    -80100.87   -83765.246   -80287.248 
  240495    1407.2496    -677.2847   -80297.292   -83871.835   -80455.631 
Loop time of 73.1066 on 2 procs for 495 steps with 19652 atoms

Performance: 0.585 ns/day, 41.025 hours/ns, 6.771 timesteps/s
77.0% CPU use with 2 MPI tasks x no OpenMP threads

MPI task timing breakdown:
Section |  min time  |  avg time  |  max time  |%varavg| %total
---------------------------------------------------------------
Pair    | 39.921     | 40.06      | 40.198     |   2.2 | 54.80
Neigh   | 26.195     | 26.507     | 26.82      |   6.1 | 36.26
Comm    | 5.3203     | 5.5356     | 5.7509     |   9.2 |  7.57
Output  | 0.00012398 | 0.00015092 | 0.00017786 |   0.0 |  0.00
Modify  | 0.80266    | 0.84266    | 0.88266    |   4.4 |  1.15
Other   |            | 0.1611     |            |       |  0.22

Nlocal:    9826 ave 9856 max 9796 min
Histogram: 1 0 0 0 0 0 0 0 0 1
Nghost:    12233.5 ave 12282 max 12185 min
Histogram: 1 0 0 0 0 0 0 0 0 1
Neighs:    659210 ave 661615 max 656806 min
Histogram: 1 0 0 0 0 0 0 0 0 1

Total # of neighbors = 1318421
Ave neighs/atom = 67.0884
Neighbor list builds = 495
Dangerous builds not checked
Setting up Verlet run ...
  Unit style    : metal
  Current step  : 240495
  Time step     : 0.001
Per MPI rank memory allocation (min/avg/max) = 11.35 | 11.35 | 11.35 Mbytes
Step Temp Press TotEng PotEng Enthalpy 
  240495    1407.2496    -677.2847   -80297.292   -83871.835   -80455.631 
  250000    1392.4331   -742.62744   -80368.961   -83905.868   -80542.591 
Loop time of 1182.79 on 2 procs for 9505 steps with 19652 atoms

Performance: 0.694 ns/day, 34.566 hours/ns, 8.036 timesteps/s
87.9% CPU use with 2 MPI tasks x no OpenMP threads

MPI task timing breakdown:
Section |  min time  |  avg time  |  max time  |%varavg| %total
---------------------------------------------------------------
Pair    | 653.46     | 654.07     | 654.68     |   2.4 | 55.30
Neigh   | 450.02     | 451.27     | 452.51     |   5.8 | 38.15
Comm    | 62.064     | 63.922     | 65.781     |  23.3 |  5.40
Output  | 0.03724    | 0.037266   | 0.037292   |   0.0 |  0.00
Modify  | 10.846     | 10.859     | 10.872     |   0.4 |  0.92
Other   |            | 2.636      |            |       |  0.22

Nlocal:    9826 ave 9836 max 9816 min
Histogram: 1 0 0 0 0 0 0 0 0 1
Nghost:    12221 ave 12238 max 12204 min
Histogram: 1 0 0 0 0 0 0 0 0 1
Neighs:    659494 ave 659569 max 659418 min
Histogram: 1 0 0 0 0 0 0 0 0 1

Total # of neighbors = 1318987
Ave neighs/atom = 67.1172
Neighbor list builds = 9505
Dangerous builds not checked
Setting up Verlet run ...
  Unit style    : metal
  Current step  : 250000
  Time step     : 0.001
Per MPI rank memory allocation (min/avg/max) = 11.35 | 11.35 | 11.35 Mbytes
Step Temp Press TotEng PotEng Enthalpy 
  250000    1392.4331   -742.62744   -80368.961   -83905.868   -80542.591 
  250495    1356.8678   -675.36751    -80553.58   -84000.148   -80711.335 
Loop time of 70.3919 on 2 procs for 495 steps with 19652 atoms

Performance: 0.608 ns/day, 39.502 hours/ns, 7.032 timesteps/s
78.7% CPU use with 2 MPI tasks x no OpenMP threads

MPI task timing breakdown:
Section |  min time  |  avg time  |  max time  |%varavg| %total
---------------------------------------------------------------
Pair    | 38.353     | 38.676     | 38.999     |   5.2 | 54.94
Neigh   | 25.458     | 26.071     | 26.683     |  12.0 | 37.04
Comm    | 4.414      | 4.7206     | 5.0272     |  14.1 |  6.71
Output  | 9.9897e-05 | 0.00015438 | 0.00020885 |   0.0 |  0.00
Modify  | 0.75971    | 0.77475    | 0.7898     |   1.7 |  1.10
Other   |            | 0.1501     |            |       |  0.21

Nlocal:    9826 ave 9862 max 9790 min
Histogram: 1 0 0 0 0 0 0 0 0 1
Nghost:    12210 ave 12273 max 12147 min
Histogram: 1 0 0 0 0 0 0 0 0 1
Neighs:    660186 ave 664211 max 656161 min
Histogram: 1 0 0 0 0 0 0 0 0 1

Total # of neighbors = 1320372
Ave neighs/atom = 67.1877
Neighbor list builds = 495
Dangerous builds not checked
Setting up Verlet run ...
  Unit style    : metal
  Current step  : 250495
  Time step     : 0.001
Per MPI rank memory allocation (min/avg/max) = 11.35 | 11.35 | 11.35 Mbytes
Step Temp Press TotEng PotEng Enthalpy 
  250495    1356.8678   -675.36751    -80553.58   -84000.148   -80711.335 
  260000    1348.7606    694.45422   -80671.496    -84097.47   -80510.048 
Loop time of 1317.85 on 2 procs for 9505 steps with 19652 atoms

Performance: 0.623 ns/day, 38.513 hours/ns, 7.213 timesteps/s
82.6% CPU use with 2 MPI tasks x no OpenMP threads

MPI task timing breakdown:
Section |  min time  |  avg time  |  max time  |%varavg| %total
---------------------------------------------------------------
Pair    | 730.59     | 731.37     | 732.14     |   2.9 | 55.50
Neigh   | 483.43     | 484.42     | 485.42     |   4.5 | 36.76
Comm    | 86.065     | 86.324     | 86.583     |   2.8 |  6.55
Output  | 0.077286   | 0.0773     | 0.077314   |   0.0 |  0.01
Modify  | 12.746     | 12.801     | 12.856     |   1.5 |  0.97
Other   |            | 2.855      |            |       |  0.22

Nlocal:    9826 ave 9847 max 9805 min
Histogram: 1 0 0 0 0 0 0 0 0 1
Nghost:    12353.5 ave 12376 max 12331 min
Histogram: 1 0 0 0 0 0 0 0 0 1
Neighs:    663128 ave 664234 max 662023 min
Histogram: 1 0 0 0 0 0 0 0 0 1

Total # of neighbors = 1326257
Ave neighs/atom = 67.4871
Neighbor list builds = 9505
Dangerous builds not checked
Setting up Verlet run ...
  Unit style    : metal
  Current step  : 260000
  Time step     : 0.001
Per MPI rank memory allocation (min/avg/max) = 11.35 | 11.35 | 11.35 Mbytes
Step Temp Press TotEng PotEng Enthalpy 
  260000    1348.7606    694.45422   -80671.496    -84097.47   -80510.048 
  260495    1308.6653    317.85144   -80834.205   -84158.335   -80760.227 
Loop time of 71.7962 on 2 procs for 495 steps with 19652 atoms

Performance: 0.596 ns/day, 40.290 hours/ns, 6.895 timesteps/s
77.6% CPU use with 2 MPI tasks x no OpenMP threads

MPI task timing breakdown:
Section |  min time  |  avg time  |  max time  |%varavg| %total
---------------------------------------------------------------
Pair    | 40.136     | 40.207     | 40.277     |   1.1 | 56.00
Neigh   | 25.289     | 25.891     | 26.493     |  11.8 | 36.06
Comm    | 4.3218     | 4.8689     | 5.416      |  24.8 |  6.78
Output  | 0.00015593 | 0.00018048 | 0.00020504 |   0.0 |  0.00
Modify  | 0.64991    | 0.6725     | 0.6951     |   2.8 |  0.94
Other   |            | 0.1568     |            |       |  0.22

Nlocal:    9826 ave 9845 max 9807 min
Histogram: 1 0 0 0 0 0 0 0 0 1
Nghost:    12335 ave 12344 max 12326 min
Histogram: 1 0 0 0 0 0 0 0 0 1
Neighs:    662436 ave 665267 max 659604 min
Histogram: 1 0 0 0 0 0 0 0 0 1

Total # of neighbors = 1324871
Ave neighs/atom = 67.4166
Neighbor list builds = 495
Dangerous builds not checked
Setting up Verlet run ...
  Unit style    : metal
  Current step  : 260495
  Time step     : 0.001
Per MPI rank memory allocation (min/avg/max) = 11.35 | 11.35 | 11.35 Mbytes
Step Temp Press TotEng PotEng Enthalpy 
  260495    1308.6653    317.85144   -80834.205   -84158.335   -80760.227 
  270000    1306.8794    -239.8911     -80879.5   -84199.093    -80935.28 
Loop time of 1351.36 on 2 procs for 9505 steps with 19652 atoms

Performance: 0.608 ns/day, 39.493 hours/ns, 7.034 timesteps/s
81.8% CPU use with 2 MPI tasks x no OpenMP threads

MPI task timing breakdown:
Section |  min time  |  avg time  |  max time  |%varavg| %total
---------------------------------------------------------------
Pair    | 747.51     | 748.31     | 749.11     |   2.9 | 55.37
Neigh   | 487.22     | 489.11     | 491        |   8.5 | 36.19
Comm    | 94.029     | 95.58      | 97.132     |  15.9 |  7.07
Output  | 0.037238   | 0.03729    | 0.037342   |   0.0 |  0.00
Modify  | 14.983     | 15.426     | 15.868     |  11.3 |  1.14
Other   |            | 2.897      |            |       |  0.21

Nlocal:    9826 ave 9837 max 9815 min
Histogram: 1 0 0 0 0 0 0 0 0 1
Nghost:    12318.5 ave 12338 max 12299 min
Histogram: 1 0 0 0 0 0 0 0 0 1
Neighs:    663108 ave 664904 max 661312 min
Histogram: 1 0 0 0 0 0 0 0 0 1

Total # of neighbors = 1326216
Ave neighs/atom = 67.485
Neighbor list builds = 9505
Dangerous builds not checked
Setting up Verlet run ...
  Unit style    : metal
  Current step  : 270000
  Time step     : 0.001
Per MPI rank memory allocation (min/avg/max) = 11.35 | 11.35 | 11.35 Mbytes
Step Temp Press TotEng PotEng Enthalpy 
  270000    1306.8794    -239.8911     -80879.5   -84199.093    -80935.28 
  270495    1254.2991    1226.8243   -81089.968   -84276.002   -80805.469 
Loop time of 71.7118 on 2 procs for 495 steps with 19652 atoms

Performance: 0.596 ns/day, 40.242 hours/ns, 6.903 timesteps/s
78.3% CPU use with 2 MPI tasks x no OpenMP threads

MPI task timing breakdown:
Section |  min time  |  avg time  |  max time  |%varavg| %total
---------------------------------------------------------------
Pair    | 39.318     | 39.72      | 40.123     |   6.4 | 55.39
Neigh   | 25.978     | 26.256     | 26.535     |   5.4 | 36.61
Comm    | 4.7883     | 4.9471     | 5.1058     |   7.1 |  6.90
Output  | 0.00010109 | 0.00014448 | 0.00018787 |   0.0 |  0.00
Modify  | 0.59411    | 0.62352    | 0.65292    |   3.7 |  0.87
Other   |            | 0.1644     |            |       |  0.23

Nlocal:    9826 ave 9827 max 9825 min
Histogram: 1 0 0 0 0 0 0 0 0 1
Nghost:    12282 ave 12297 max 12267 min
Histogram: 1 0 0 0 0 0 0 0 0 1
Neighs:    664732 ave 665286 max 664177 min
Histogram: 1 0 0 0 0 0 0 0 0 1

Total # of neighbors = 1329463
Ave neighs/atom = 67.6503
Neighbor list builds = 495
Dangerous builds not checked
Setting up Verlet run ...
  Unit style    : metal
  Current step  : 270495
  Time step     : 0.001
Per MPI rank memory allocation (min/avg/max) = 11.35 | 11.35 | 11.35 Mbytes
Step Temp Press TotEng PotEng Enthalpy 
  270495    1254.2991    1226.8243   -81089.968   -84276.002   -80805.469 
  280000    1239.3805    355.55837   -81227.744   -84375.884   -81145.221 
Loop time of 1271.9 on 2 procs for 9505 steps with 19652 atoms

Performance: 0.646 ns/day, 37.170 hours/ns, 7.473 timesteps/s
83.6% CPU use with 2 MPI tasks x no OpenMP threads

MPI task timing breakdown:
Section |  min time  |  avg time  |  max time  |%varavg| %total
---------------------------------------------------------------
Pair    | 699.5      | 700.44     | 701.38     |   3.6 | 55.07
Neigh   | 466.38     | 467.77     | 469.16     |   6.4 | 36.78
Comm    | 86.941     | 87.069     | 87.198     |   1.4 |  6.85
Output  | 0.077348   | 0.077369   | 0.07739    |   0.0 |  0.01
Modify  | 13.236     | 13.819     | 14.402     |  15.7 |  1.09
Other   |            | 2.719      |            |       |  0.21

Nlocal:    9826 ave 9836 max 9816 min
Histogram: 1 0 0 0 0 0 0 0 0 1
Nghost:    12301 ave 12319 max 12283 min
Histogram: 1 0 0 0 0 0 0 0 0 1
Neighs:    664094 ave 664875 max 663313 min
Histogram: 1 0 0 0 0 0 0 0 0 1

Total # of neighbors = 1328188
Ave neighs/atom = 67.5854
Neighbor list builds = 9505
Dangerous builds not checked
Setting up Verlet run ...
  Unit style    : metal
  Current step  : 280000
  Time step     : 0.001
Per MPI rank memory allocation (min/avg/max) = 11.35 | 11.35 | 11.35 Mbytes
Step Temp Press TotEng PotEng Enthalpy 
  280000    1239.3805    355.55837   -81227.744   -84375.884   -81145.221 
  280495    1219.0476   -214.67343   -81364.172   -84460.664   -81413.932 
Loop time of 59.3826 on 2 procs for 495 steps with 19652 atoms

Performance: 0.720 ns/day, 33.324 hours/ns, 8.336 timesteps/s
86.6% CPU use with 2 MPI tasks x no OpenMP threads

MPI task timing breakdown:
Section |  min time  |  avg time  |  max time  |%varavg| %total
---------------------------------------------------------------
Pair    | 32.098     | 32.234     | 32.37      |   2.4 | 54.28
Neigh   | 22.235     | 22.541     | 22.846     |   6.4 | 37.96
Comm    | 3.6934     | 3.8607     | 4.0279     |   8.5 |  6.50
Output  | 9.0122e-05 | 0.0001111  | 0.00013208 |   0.0 |  0.00
Modify  | 0.60324    | 0.60961    | 0.61599    |   0.8 |  1.03
Other   |            | 0.1378     |            |       |  0.23

Nlocal:    9826 ave 9875 max 9777 min
Histogram: 1 0 0 0 0 0 0 0 0 1
Nghost:    12324.5 ave 12357 max 12292 min
Histogram: 1 0 0 0 0 0 0 0 0 1
Neighs:    664912 ave 669994 max 659830 min
Histogram: 1 0 0 0 0 0 0 0 0 1

Total # of neighbors = 1329824
Ave neighs/atom = 67.6686
Neighbor list builds = 495
Dangerous builds not checked
Setting up Verlet run ...
  Unit style    : metal
  Current step  : 280495
  Time step     : 0.001
Per MPI rank memory allocation (min/avg/max) = 11.35 | 11.35 | 11.35 Mbytes
Step Temp Press TotEng PotEng Enthalpy 
  280495    1219.0476   -214.67343   -81364.172   -84460.664   -81413.932 
  290000    1198.3268   -463.33563   -81452.142   -84496.001   -81559.762 
Loop time of 1297.05 on 2 procs for 9505 steps with 19652 atoms

Performance: 0.633 ns/day, 37.905 hours/ns, 7.328 timesteps/s
80.0% CPU use with 2 MPI tasks x no OpenMP threads

MPI task timing breakdown:
Section |  min time  |  avg time  |  max time  |%varavg| %total
---------------------------------------------------------------
Pair    | 705.76     | 705.91     | 706.07     |   0.6 | 54.42
Neigh   | 477.85     | 479.05     | 480.25     |   5.5 | 36.93
Comm    | 91.633     | 93.486     | 95.338     |  19.2 |  7.21
Output  | 0.064135   | 0.064156   | 0.064176   |   0.0 |  0.00
Modify  | 15.279     | 15.758     | 16.238     |  12.1 |  1.21
Other   |            | 2.777      |            |       |  0.21

Nlocal:    9826 ave 9835 max 9817 min
Histogram: 1 0 0 0 0 0 0 0 0 1
Nghost:    12275.5 ave 12277 max 12274 min
Histogram: 1 0 0 0 0 0 0 0 0 1
Neighs:    664051 ave 664405 max 663697 min
Histogram: 1 0 0 0 0 0 0 0 0 1

Total # of neighbors = 1328102
Ave neighs/atom = 67.581
Neighbor list builds = 9505
Dangerous builds not checked
Setting up Verlet run ...
  Unit style    : metal
  Current step  : 290000
  Time step     : 0.001
Per MPI rank memory allocation (min/avg/max) = 11.35 | 11.35 | 11.35 Mbytes
Step Temp Press TotEng PotEng Enthalpy 
  290000    1198.3268   -463.33563   -81452.142   -84496.001   -81559.762 
  290495      1160.56    586.68921   -81629.973   -84577.901   -81494.169 
Loop time of 70.9749 on 2 procs for 495 steps with 19652 atoms

Performance: 0.603 ns/day, 39.829 hours/ns, 6.974 timesteps/s
75.5% CPU use with 2 MPI tasks x no OpenMP threads

MPI task timing breakdown:
Section |  min time  |  avg time  |  max time  |%varavg| %total
---------------------------------------------------------------
Pair    | 38.801     | 39.187     | 39.573     |   6.2 | 55.21
Neigh   | 25.825     | 26.193     | 26.561     |   7.2 | 36.90
Comm    | 4.6679     | 4.6818     | 4.6957     |   0.6 |  6.60
Output  | 0.000103   | 0.00015247 | 0.00020194 |   0.0 |  0.00
Modify  | 0.75508    | 0.75696    | 0.75885    |   0.2 |  1.07
Other   |            | 0.1557     |            |       |  0.22

Nlocal:    9826 ave 9839 max 9813 min
Histogram: 1 0 0 0 0 0 0 0 0 1
Nghost:    12321 ave 12331 max 12311 min
Histogram: 1 0 0 0 0 0 0 0 0 1
Neighs:    666188 ave 667320 max 665057 min
Histogram: 1 0 0 0 0 0 0 0 0 1

Total # of neighbors = 1332377
Ave neighs/atom = 67.7985
Neighbor list builds = 495
Dangerous builds not checked
Setting up Verlet run ...
  Unit style    : metal
  Current step  : 290495
  Time step     : 0.001
Per MPI rank memory allocation (min/avg/max) = 11.35 | 11.35 | 11.35 Mbytes
Step Temp Press TotEng PotEng Enthalpy 
  290495      1160.56    586.68921   -81629.973   -84577.901   -81494.169 
  300000         1145    1.6822814   -81743.471   -84651.875   -81743.081 
Loop time of 1306.16 on 2 procs for 9505 steps with 19652 atoms

Performance: 0.629 ns/day, 38.172 hours/ns, 7.277 timesteps/s
82.3% CPU use with 2 MPI tasks x no OpenMP threads

MPI task timing breakdown:
Section |  min time  |  avg time  |  max time  |%varavg| %total
---------------------------------------------------------------
Pair    | 728.39     | 728.98     | 729.56     |   2.2 | 55.81
Neigh   | 478.07     | 479.6      | 481.14     |   7.0 | 36.72
Comm    | 79.581     | 81.753     | 83.924     |  24.0 |  6.26
Output  | 0.037021   | 0.037065   | 0.037109   |   0.0 |  0.00
Modify  | 12.72      | 12.799     | 12.878     |   2.2 |  0.98
Other   |            | 2.99       |            |       |  0.23

Nlocal:    9826 ave 9846 max 9806 min
Histogram: 1 0 0 0 0 0 0 0 0 1
Nghost:    12337.5 ave 12369 max 12306 min
Histogram: 1 0 0 0 0 0 0 0 0 1
Neighs:    665035 ave 666755 max 663315 min
Histogram: 1 0 0 0 0 0 0 0 0 1

Total # of neighbors = 1330070
Ave neighs/atom = 67.6812
Neighbor list builds = 9505
Dangerous builds not checked
Setting up Verlet run ...
  Unit style    : metal
  Current step  : 300000
  Time step     : 0.001
Per MPI rank memory allocation (min/avg/max) = 11.35 | 11.35 | 11.35 Mbytes
Step Temp Press TotEng PotEng Enthalpy 
[...]
Histogram: 1 0 0 0 0 0 0 0 0 1
Neighs:    674754 ave 675042 max 674467 min
Histogram: 1 0 0 0 0 0 0 0 0 1

Total # of neighbors = 1349509
Ave neighs/atom = 68.6703
Neighbor list builds = 9505
Dangerous builds not checked
Setting up Verlet run ...
  Unit style    : metal
  Current step  : 440000
  Time step     : 0.001
Per MPI rank memory allocation (min/avg/max) = 11.35 | 11.35 | 11.35 Mbytes
Step Temp Press TotEng PotEng Enthalpy 
  440000    445.67789   -562.95286   -86939.403   -88071.466   -87068.059 
  440495    424.10918   -745.44609   -87083.486   -88160.762   -87253.758 
Loop time of 46.9799 on 2 procs for 495 steps with 19652 atoms

Performance: 0.910 ns/day, 26.364 hours/ns, 10.536 timesteps/s
97.8% CPU use with 2 MPI tasks x no OpenMP threads

MPI task timing breakdown:
Section |  min time  |  avg time  |  max time  |%varavg| %total
---------------------------------------------------------------
Pair    | 25.233     | 25.666     | 26.099     |   8.5 | 54.63
Neigh   | 18.629     | 18.794     | 18.959     |   3.8 | 40.00
Comm    | 1.6534     | 1.9188     | 2.1842     |  19.2 |  4.08
Output  | 0.00010109 | 0.0001545  | 0.0002079  |   0.0 |  0.00
Modify  | 0.46843    | 0.46877    | 0.4691     |   0.0 |  1.00
Other   |            | 0.1326     |            |       |  0.28

Nlocal:    9826 ave 9830 max 9822 min
Histogram: 1 0 0 0 0 0 0 0 0 1
Nghost:    12402 ave 12409 max 12395 min
Histogram: 1 0 0 0 0 0 0 0 0 1
Neighs:    675259 ave 675582 max 674936 min
Histogram: 1 0 0 0 0 0 0 0 0 1

Total # of neighbors = 1350518
Ave neighs/atom = 68.7217
Neighbor list builds = 495
Dangerous builds not checked
Setting up Verlet run ...
  Unit style    : metal
  Current step  : 440495
  Time step     : 0.001
Per MPI rank memory allocation (min/avg/max) = 11.35 | 11.35 | 11.35 Mbytes
Step Temp Press TotEng PotEng Enthalpy 
  440495    424.10918   -745.44609   -87083.486   -88160.762   -87253.758 
  450000    400.42573    168.86403   -87293.322    -88310.44   -87254.802 
Loop time of 882.735 on 2 procs for 9505 steps with 19652 atoms

Performance: 0.930 ns/day, 25.797 hours/ns, 10.768 timesteps/s
99.4% CPU use with 2 MPI tasks x no OpenMP threads

MPI task timing breakdown:
Section |  min time  |  avg time  |  max time  |%varavg| %total
---------------------------------------------------------------
Pair    | 482.2      | 482.33     | 482.45     |   0.6 | 54.64
Neigh   | 352.51     | 353.88     | 355.25     |   7.3 | 40.09
Comm    | 33.819     | 35.091     | 36.362     |  21.5 |  3.98
Output  | 0.039616   | 0.039644   | 0.039673   |   0.0 |  0.00
Modify  | 8.9186     | 8.9341     | 8.9496     |   0.5 |  1.01
Other   |            | 2.461      |            |       |  0.28

Nlocal:    9826 ave 9842 max 9810 min
Histogram: 1 0 0 0 0 0 0 0 0 1
Nghost:    12392.5 ave 12399 max 12386 min
Histogram: 1 0 0 0 0 0 0 0 0 1
Neighs:    675994 ave 677635 max 674352 min
Histogram: 1 0 0 0 0 0 0 0 0 1

Total # of neighbors = 1351987
Ave neighs/atom = 68.7964
Neighbor list builds = 9505
Dangerous builds not checked
Setting up Verlet run ...
  Unit style    : metal
  Current step  : 450000
  Time step     : 0.001
Per MPI rank memory allocation (min/avg/max) = 11.35 | 11.35 | 11.35 Mbytes
Step Temp Press TotEng PotEng Enthalpy 
  450000    400.42573    168.86403   -87293.322    -88310.44   -87254.802 
  450495     373.4979    98.406977   -87453.083   -88401.802   -87430.657 
Loop time of 44.6598 on 2 procs for 495 steps with 19652 atoms

Performance: 0.958 ns/day, 25.062 hours/ns, 11.084 timesteps/s
99.9% CPU use with 2 MPI tasks x no OpenMP threads

MPI task timing breakdown:
Section |  min time  |  avg time  |  max time  |%varavg| %total
---------------------------------------------------------------
Pair    | 24.438     | 24.465     | 24.492     |   0.5 | 54.78
Neigh   | 18.018     | 18.097     | 18.177     |   1.9 | 40.52
Comm    | 1.4126     | 1.519      | 1.6253     |   8.6 |  3.40
Output  | 0.0001061  | 0.000157   | 0.0002079  |   0.0 |  0.00
Modify  | 0.45146    | 0.45215    | 0.45284    |   0.1 |  1.01
Other   |            | 0.1262     |            |       |  0.28

Nlocal:    9826 ave 9843 max 9809 min
Histogram: 1 0 0 0 0 0 0 0 0 1
Nghost:    12398.5 ave 12413 max 12384 min
Histogram: 1 0 0 0 0 0 0 0 0 1
Neighs:    676688 ave 678523 max 674853 min
Histogram: 1 0 0 0 0 0 0 0 0 1

Total # of neighbors = 1353376
Ave neighs/atom = 68.8671
Neighbor list builds = 495
Dangerous builds not checked
Setting up Verlet run ...
  Unit style    : metal
  Current step  : 450495
  Time step     : 0.001
Per MPI rank memory allocation (min/avg/max) = 11.35 | 11.35 | 11.35 Mbytes
Step Temp Press TotEng PotEng Enthalpy 
  450495     373.4979    98.406977   -87453.083   -88401.802   -87430.657 
  460000    347.36067   -105.81811   -87621.967   -88504.294   -87646.077 
Loop time of 887.253 on 2 procs for 9505 steps with 19652 atoms

Performance: 0.926 ns/day, 25.929 hours/ns, 10.713 timesteps/s
98.7% CPU use with 2 MPI tasks x no OpenMP threads

MPI task timing breakdown:
Section |  min time  |  avg time  |  max time  |%varavg| %total
---------------------------------------------------------------
Pair    | 482.46     | 483.34     | 484.21     |   4.0 | 54.48
Neigh   | 351.91     | 352.76     | 353.61     |   4.5 | 39.76
Comm    | 37.837     | 39.402     | 40.968     |  24.9 |  4.44
Output  | 0.038894   | 0.038931   | 0.038968   |   0.0 |  0.00
Modify  | 9.0571     | 9.2173     | 9.3774     |   5.3 |  1.04
Other   |            | 2.502      |            |       |  0.28

Nlocal:    9826 ave 9826 max 9826 min
Histogram: 2 0 0 0 0 0 0 0 0 0
Nghost:    12397 ave 12408 max 12386 min
Histogram: 1 0 0 0 0 0 0 0 0 1
Neighs:    676607 ave 676850 max 676364 min
Histogram: 1 0 0 0 0 0 0 0 0 1

Total # of neighbors = 1353214
Ave neighs/atom = 68.8588
Neighbor list builds = 9505
Dangerous builds not checked
Setting up Verlet run ...
  Unit style    : metal
  Current step  : 460000
  Time step     : 0.001
Per MPI rank memory allocation (min/avg/max) = 11.35 | 11.35 | 11.35 Mbytes
Step Temp Press TotEng PotEng Enthalpy 
  460000    347.36067   -105.81811   -87621.967   -88504.294   -87646.077 
  460495    325.50703    55.527937   -87773.383   -88600.201   -87760.743 
Loop time of 45.0087 on 2 procs for 495 steps with 19652 atoms

Performance: 0.950 ns/day, 25.257 hours/ns, 10.998 timesteps/s
99.8% CPU use with 2 MPI tasks x no OpenMP threads

MPI task timing breakdown:
Section |  min time  |  avg time  |  max time  |%varavg| %total
---------------------------------------------------------------
Pair    | 24.438     | 24.659     | 24.879     |   4.4 | 54.79
Neigh   | 18.246     | 18.257     | 18.267     |   0.2 | 40.56
Comm    | 1.285      | 1.4959     | 1.7068     |  17.2 |  3.32
Output  | 0.00010896 | 0.00025988 | 0.0004108  |   0.0 |  0.00
Modify  | 0.46316    | 0.46565    | 0.46813    |   0.4 |  1.03
Other   |            | 0.1314     |            |       |  0.29

Nlocal:    9826 ave 9826 max 9826 min
Histogram: 2 0 0 0 0 0 0 0 0 0
Nghost:    12404 ave 12422 max 12386 min
Histogram: 1 0 0 0 0 0 0 0 0 1
Neighs:    677142 ave 677486 max 676798 min
Histogram: 1 0 0 0 0 0 0 0 0 1

Total # of neighbors = 1354284
Ave neighs/atom = 68.9133
Neighbor list builds = 495
Dangerous builds not checked
Setting up Verlet run ...
  Unit style    : metal
  Current step  : 460495
  Time step     : 0.001
Per MPI rank memory allocation (min/avg/max) = 11.35 | 11.35 | 11.35 Mbytes
Step Temp Press TotEng PotEng Enthalpy 
  460495    325.50703    55.527937   -87773.383   -88600.201   -87760.743 
  470000     300.6866    169.57095   -87929.271   -88693.042   -87890.707 
Loop time of 873.874 on 2 procs for 9505 steps with 19652 atoms

Performance: 0.940 ns/day, 25.538 hours/ns, 10.877 timesteps/s
98.8% CPU use with 2 MPI tasks x no OpenMP threads

MPI task timing breakdown:
Section |  min time  |  avg time  |  max time  |%varavg| %total
---------------------------------------------------------------
Pair    | 475.06     | 476.34     | 477.63     |   5.9 | 54.51
Neigh   | 347.27     | 347.64     | 348.01     |   2.0 | 39.78
Comm    | 36.778     | 38.464     | 40.149     |  27.2 |  4.40
Output  | 0.039302   | 0.039406   | 0.039511   |   0.1 |  0.00
Modify  | 8.9112     | 8.934      | 8.9568     |   0.8 |  1.02
Other   |            | 2.456      |            |       |  0.28

Nlocal:    9826 ave 9837 max 9815 min
Histogram: 1 0 0 0 0 0 0 0 0 1
Nghost:    12380 ave 12399 max 12361 min
Histogram: 1 0 0 0 0 0 0 0 0 1
Neighs:    677742 ave 678803 max 676680 min
Histogram: 1 0 0 0 0 0 0 0 0 1

Total # of neighbors = 1355483
Ave neighs/atom = 68.9743
Neighbor list builds = 9505
Dangerous builds not checked
Setting up Verlet run ...
  Unit style    : metal
  Current step  : 470000
  Time step     : 0.001
Per MPI rank memory allocation (min/avg/max) = 11.35 | 11.35 | 11.35 Mbytes
Step Temp Press TotEng PotEng Enthalpy 
  470000     300.6866    169.57095   -87929.271   -88693.042   -87890.707 
  470495     273.6839    362.46333   -88072.004   -88767.186   -87989.673 
Loop time of 44.9833 on 2 procs for 495 steps with 19652 atoms

Performance: 0.951 ns/day, 25.243 hours/ns, 11.004 timesteps/s
99.3% CPU use with 2 MPI tasks x no OpenMP threads

MPI task timing breakdown:
Section |  min time  |  avg time  |  max time  |%varavg| %total
---------------------------------------------------------------
Pair    | 24.499     | 24.537     | 24.575     |   0.8 | 54.55
Neigh   | 18.127     | 18.276     | 18.425     |   3.5 | 40.63
Comm    | 1.3872     | 1.5814     | 1.7756     |  15.4 |  3.52
Output  | 9.5129e-05 | 0.00013757 | 0.00018001 |   0.0 |  0.00
Modify  | 0.45505    | 0.45953    | 0.46401    |   0.7 |  1.02
Other   |            | 0.1293     |            |       |  0.29

Nlocal:    9826 ave 9838 max 9814 min
Histogram: 1 0 0 0 0 0 0 0 0 1
Nghost:    12393 ave 12412 max 12374 min
Histogram: 1 0 0 0 0 0 0 0 0 1
Neighs:    678526 ave 679858 max 677195 min
Histogram: 1 0 0 0 0 0 0 0 0 1

Total # of neighbors = 1357053
Ave neighs/atom = 69.0542
Neighbor list builds = 495
Dangerous builds not checked
Setting up Verlet run ...
  Unit style    : metal
  Current step  : 470495
  Time step     : 0.001
Per MPI rank memory allocation (min/avg/max) = 11.35 | 11.35 | 11.35 Mbytes
Step Temp Press TotEng PotEng Enthalpy 
  470495     273.6839    362.46333   -88072.004   -88767.186   -87989.673 
  480000    251.49298    10.486836   -88215.288   -88854.104   -88212.906 
Loop time of 872.487 on 2 procs for 9505 steps with 19652 atoms

Performance: 0.941 ns/day, 25.498 hours/ns, 10.894 timesteps/s
98.9% CPU use with 2 MPI tasks x no OpenMP threads

MPI task timing breakdown:
Section |  min time  |  avg time  |  max time  |%varavg| %total
---------------------------------------------------------------
Pair    | 473.11     | 473.93     | 474.75     |   3.8 | 54.32
Neigh   | 347.66     | 347.74     | 347.82     |   0.4 | 39.86
Comm    | 38.137     | 39.051     | 39.964     |  14.6 |  4.48
Output  | 0.039569   | 0.0396     | 0.039631   |   0.0 |  0.00
Modify  | 9.2484     | 9.2584     | 9.2684     |   0.3 |  1.06
Other   |            | 2.467      |            |       |  0.28

Nlocal:    9826 ave 9839 max 9813 min
Histogram: 1 0 0 0 0 0 0 0 0 1
Nghost:    12398.5 ave 12406 max 12391 min
Histogram: 1 0 0 0 0 0 0 0 0 1
Neighs:    678376 ave 679664 max 677089 min
Histogram: 1 0 0 0 0 0 0 0 0 1

Total # of neighbors = 1356753
Ave neighs/atom = 69.0389
Neighbor list builds = 9505
Dangerous builds not checked
Setting up Verlet run ...
  Unit style    : metal
  Current step  : 480000
  Time step     : 0.001
Per MPI rank memory allocation (min/avg/max) = 11.35 | 11.35 | 11.35 Mbytes
Step Temp Press TotEng PotEng Enthalpy 
  480000    251.49298    10.486836   -88215.288   -88854.104   -88212.906 
  480495    223.90986    251.71552   -88353.526   -88922.277    -88296.38 
Loop time of 45.4137 on 2 procs for 495 steps with 19652 atoms

Performance: 0.942 ns/day, 25.485 hours/ns, 10.900 timesteps/s
97.9% CPU use with 2 MPI tasks x no OpenMP threads

MPI task timing breakdown:
Section |  min time  |  avg time  |  max time  |%varavg| %total
---------------------------------------------------------------
Pair    | 24.408     | 24.643     | 24.877     |   4.7 | 54.26
Neigh   | 17.91      | 17.99      | 18.07      |   1.9 | 39.61
Comm    | 1.9783     | 2.1253     | 2.2723     |  10.1 |  4.68
Output  | 0.0001111  | 0.0001446  | 0.0001781  |   0.0 |  0.00
Modify  | 0.51455    | 0.51746    | 0.52037    |   0.4 |  1.14
Other   |            | 0.1385     |            |       |  0.30

Nlocal:    9826 ave 9830 max 9822 min
Histogram: 1 0 0 0 0 0 0 0 0 1
Nghost:    12392 ave 12402 max 12382 min
Histogram: 1 0 0 0 0 0 0 0 0 1
Neighs:    678774 ave 679547 max 678000 min
Histogram: 1 0 0 0 0 0 0 0 0 1

Total # of neighbors = 1357547
Ave neighs/atom = 69.0793
Neighbor list builds = 495
Dangerous builds not checked
Setting up Verlet run ...
  Unit style    : metal
  Current step  : 480495
  Time step     : 0.001
Per MPI rank memory allocation (min/avg/max) = 11.35 | 11.35 | 11.35 Mbytes
Step Temp Press TotEng PotEng Enthalpy 
  480495    223.90986    251.71552   -88353.526   -88922.277    -88296.38 
  490000    200.40823    472.52864   -88495.392   -89004.448    -88388.26 
Loop time of 865.965 on 2 procs for 9505 steps with 19652 atoms

Performance: 0.948 ns/day, 25.307 hours/ns, 10.976 timesteps/s
99.0% CPU use with 2 MPI tasks x no OpenMP threads

MPI task timing breakdown:
Section |  min time  |  avg time  |  max time  |%varavg| %total
---------------------------------------------------------------
Pair    | 471.32     | 471.55     | 471.77     |   1.0 | 54.45
Neigh   | 346.21     | 346.36     | 346.52     |   0.8 | 40.00
Comm    | 36.156     | 36.573     | 36.991     |   6.9 |  4.22
Output  | 0.038607   | 0.038643   | 0.038678   |   0.0 |  0.00
Modify  | 8.9554     | 8.972      | 8.9885     |   0.6 |  1.04
Other   |            | 2.468      |            |       |  0.29

Nlocal:    9826 ave 9827 max 9825 min
Histogram: 1 0 0 0 0 0 0 0 0 1
Nghost:    12422 ave 12424 max 12420 min
Histogram: 1 0 0 0 0 0 0 0 0 1
Neighs:    679594 ave 679881 max 679307 min
Histogram: 1 0 0 0 0 0 0 0 0 1

Total # of neighbors = 1359188
Ave neighs/atom = 69.1628
Neighbor list builds = 9505
Dangerous builds not checked
Setting up Verlet run ...
  Unit style    : metal
  Current step  : 490000
  Time step     : 0.001
Per MPI rank memory allocation (min/avg/max) = 11.35 | 11.35 | 11.35 Mbytes
Step Temp Press TotEng PotEng Enthalpy 
  490000    200.40823    472.52864   -88495.392   -89004.448    -88388.26 
  490495     175.6094   -316.46725   -88625.012   -89071.076   -88696.774 
Loop time of 44.999 on 2 procs for 495 steps with 19652 atoms

Performance: 0.950 ns/day, 25.252 hours/ns, 11.000 timesteps/s
99.4% CPU use with 2 MPI tasks x no OpenMP threads

MPI task timing breakdown:
Section |  min time  |  avg time  |  max time  |%varavg| %total
---------------------------------------------------------------
Pair    | 24.341     | 24.485     | 24.63      |   2.9 | 54.41
Neigh   | 17.94      | 18.068     | 18.197     |   3.0 | 40.15
Comm    | 1.8197     | 1.839      | 1.8583     |   1.4 |  4.09
Output  | 0.00011921 | 0.00017858 | 0.00023794 |   0.0 |  0.00
Modify  | 0.47382    | 0.47724    | 0.48067    |   0.5 |  1.06
Other   |            | 0.1289     |            |       |  0.29

Nlocal:    9826 ave 9837 max 9815 min
Histogram: 1 0 0 0 0 0 0 0 0 1
Nghost:    12413.5 ave 12423 max 12404 min
Histogram: 1 0 0 0 0 0 0 0 0 1
Neighs:    679538 ave 680972 max 678104 min
Histogram: 1 0 0 0 0 0 0 0 0 1

Total # of neighbors = 1359076
Ave neighs/atom = 69.1571
Neighbor list builds = 495
Dangerous builds not checked
Setting up Verlet run ...
  Unit style    : metal
  Current step  : 490495
  Time step     : 0.001
Per MPI rank memory allocation (min/avg/max) = 11.35 | 11.35 | 11.35 Mbytes
Step Temp Press TotEng PotEng Enthalpy 
  490495     175.6094   -316.46725   -88625.012   -89071.076   -88696.774 
  500000     148.8687    171.10932   -88769.415   -89147.555   -88730.652 
Loop time of 885.959 on 2 procs for 9505 steps with 19652 atoms

Performance: 0.927 ns/day, 25.892 hours/ns, 10.728 timesteps/s
97.8% CPU use with 2 MPI tasks x no OpenMP threads

MPI task timing breakdown:
Section |  min time  |  avg time  |  max time  |%varavg| %total
---------------------------------------------------------------
Pair    | 482.63     | 483.07     | 483.51     |   2.0 | 54.52
Neigh   | 349.25     | 350.64     | 352.04     |   7.4 | 39.58
Comm    | 38.895     | 39.692     | 40.489     |  12.7 |  4.48
Output  | 0.040372   | 0.040402   | 0.040433   |   0.0 |  0.00
Modify  | 9.7712     | 9.9394     | 10.108     |   5.3 |  1.12
Other   |            | 2.575      |            |       |  0.29

Nlocal:    9826 ave 9835 max 9817 min
Histogram: 1 0 0 0 0 0 0 0 0 1
Nghost:    12419 ave 12435 max 12403 min
Histogram: 1 0 0 0 0 0 0 0 0 1
Neighs:    680010 ave 681030 max 678991 min
Histogram: 1 0 0 0 0 0 0 0 0 1

Total # of neighbors = 1360021
Ave neighs/atom = 69.2052
Neighbor list builds = 9505
Dangerous builds not checked
Setting up Verlet run ...
  Unit style    : metal
  Current step  : 500000
  Time step     : 0.001
Per MPI rank memory allocation (min/avg/max) = 11.35 | 11.35 | 11.35 Mbytes
Step Temp Press TotEng PotEng Enthalpy 
  500000     148.8687    171.10932   -88769.415   -89147.555   -88730.652 
  500495    126.73476   -10.062387   -88887.309   -89209.227   -88889.587 
Loop time of 44.1991 on 2 procs for 495 steps with 19652 atoms

Performance: 0.968 ns/day, 24.803 hours/ns, 11.199 timesteps/s
99.7% CPU use with 2 MPI tasks x no OpenMP threads

MPI task timing breakdown:
Section |  min time  |  avg time  |  max time  |%varavg| %total
---------------------------------------------------------------
Pair    | 23.874     | 24.075     | 24.276     |   4.1 | 54.47
Neigh   | 17.707     | 17.738     | 17.769     |   0.7 | 40.13
Comm    | 1.6076     | 1.777      | 1.9464     |  12.7 |  4.02
Output  | 0.00010705 | 0.00024104 | 0.00037503 |   0.0 |  0.00
Modify  | 0.47618    | 0.4767     | 0.47722    |   0.1 |  1.08
Other   |            | 0.1317     |            |       |  0.30

Nlocal:    9826 ave 9840 max 9812 min
Histogram: 1 0 0 0 0 0 0 0 0 1
Nghost:    12409 ave 12416 max 12402 min
Histogram: 1 0 0 0 0 0 0 0 0 1
Neighs:    680310 ave 681927 max 678693 min
Histogram: 1 0 0 0 0 0 0 0 0 1

Total # of neighbors = 1360620
Ave neighs/atom = 69.2357
Neighbor list builds = 495
Dangerous builds not checked
Setting up Verlet run ...
  Unit style    : metal
  Current step  : 500495
  Time step     : 0.001
Per MPI rank memory allocation (min/avg/max) = 11.35 | 11.35 | 11.35 Mbytes
Step Temp Press TotEng PotEng Enthalpy 
  500495    126.73476   -10.062387   -88887.309   -89209.227   -88889.587 
  510000    101.35379   -46.541151   -89026.982    -89284.43   -89037.511 
Loop time of 887.727 on 2 procs for 9505 steps with 19652 atoms

Performance: 0.925 ns/day, 25.943 hours/ns, 10.707 timesteps/s
97.3% CPU use with 2 MPI tasks x no OpenMP threads

MPI task timing breakdown:
Section |  min time  |  avg time  |  max time  |%varavg| %total
---------------------------------------------------------------
Pair    | 481.97     | 483.41     | 484.84     |   6.5 | 54.45
Neigh   | 350.69     | 352.79     | 354.88     |  11.1 | 39.74
Comm    | 38.091     | 38.47      | 38.849     |   6.1 |  4.33
Output  | 0.042034   | 0.042146   | 0.042258   |   0.1 |  0.00
Modify  | 10.075     | 10.367     | 10.659     |   9.1 |  1.17
Other   |            | 2.655      |            |       |  0.30

Nlocal:    9826 ave 9836 max 9816 min
Histogram: 1 0 0 0 0 0 0 0 0 1
Nghost:    12419.5 ave 12432 max 12407 min
Histogram: 1 0 0 0 0 0 0 0 0 1
Neighs:    680896 ave 682445 max 679346 min
Histogram: 1 0 0 0 0 0 0 0 0 1

Total # of neighbors = 1361791
Ave neighs/atom = 69.2953
Neighbor list builds = 9505
Dangerous builds not checked
Total wall time: 15:07:37
