LAMMPS (12 Dec 2018)
Lattice spacing in x,y,z = 4 4 4
Created orthogonal box = (0 0 0) to (68 68 68)
  1 by 1 by 1 MPI processor grid
Created 19652 atoms
  Time spent = 0.00335598 secs
Setting atom values ...
  19480 settings made for type/fraction
Neighbor list info ...
  update every 1 steps, delay 0 steps, check no
  max neighbors/atom: 2000, page size: 100000
  master list distance cutoff = 8.5
  ghost atom cutoff = 8.5
  binsize = 4.25, bins = 16 16 16
  1 neighbor lists, perpetual/occasional/extra = 1 0 0
  (1) pair eam/alloy, perpetual
      attributes: half, newton on
      pair build: half/bin/atomonly/newton
      stencil: half/bin/3d/newton
      bin: standard
Setting up Verlet run ...
  Unit style    : metal
  Current step  : 0
  Time step     : 0.001
Per MPI rank memory allocation (min/avg/max) = 18.19 | 18.19 | 18.19 Mbytes
Step Temp Press TotEng PotEng Enthalpy 
       0          300    15950.205   -65977.094   -66739.122   -62846.818 
    1000    155.04564    22567.526   -65976.912   -66370.742   -61547.967 
Loop time of 161.091 on 1 procs for 1000 steps with 19652 atoms

Performance: 0.536 ns/day, 44.747 hours/ns, 6.208 timesteps/s
99.7% CPU use with 1 MPI tasks x no OpenMP threads

MPI task timing breakdown:
Section |  min time  |  avg time  |  max time  |%varavg| %total
---------------------------------------------------------------
Pair    | 92.835     | 92.835     | 92.835     |   0.0 | 57.63
Neigh   | 66.078     | 66.078     | 66.078     |   0.0 | 41.02
Comm    | 1.302      | 1.302      | 1.302      |   0.0 |  0.81
Output  | 0.0003252  | 0.0003252  | 0.0003252  |   0.0 |  0.00
Modify  | 0.4598     | 0.4598     | 0.4598     |   0.0 |  0.29
Other   |            | 0.4152     |            |       |  0.26

Nlocal:    19652 ave 19652 max 19652 min
Histogram: 1 0 0 0 0 0 0 0 0 0
Nghost:    20102 ave 20102 max 20102 min
Histogram: 1 0 0 0 0 0 0 0 0 0
Neighs:    1.5735e+06 ave 1.5735e+06 max 1.5735e+06 min
Histogram: 1 0 0 0 0 0 0 0 0 0

Total # of neighbors = 1573503
Ave neighs/atom = 80.0683
Neighbor list builds = 1000
Dangerous builds not checked
Setting up Verlet run ...
  Unit style    : metal
  Current step  : 1000
  Time step     : 0.001
Per MPI rank memory allocation (min/avg/max) = 18.2 | 18.2 | 18.2 Mbytes
Step Temp Press TotEng PotEng Enthalpy 
    1000    155.04564    22567.526   -65976.912   -66370.742   -61547.967 
    2000    297.10161   -47.801103   -65220.538   -65975.203   -65230.308 
Loop time of 163.277 on 1 procs for 1000 steps with 19652 atoms

Performance: 0.529 ns/day, 45.355 hours/ns, 6.125 timesteps/s
99.6% CPU use with 1 MPI tasks x no OpenMP threads

MPI task timing breakdown:
Section |  min time  |  avg time  |  max time  |%varavg| %total
---------------------------------------------------------------
Pair    | 93.107     | 93.107     | 93.107     |   0.0 | 57.02
Neigh   | 66.872     | 66.872     | 66.872     |   0.0 | 40.96
Comm    | 1.2529     | 1.2529     | 1.2529     |   0.0 |  0.77
Output  | 0.068441   | 0.068441   | 0.068441   |   0.0 |  0.04
Modify  | 1.5582     | 1.5582     | 1.5582     |   0.0 |  0.95
Other   |            | 0.4182     |            |       |  0.26

Nlocal:    19652 ave 19652 max 19652 min
Histogram: 1 0 0 0 0 0 0 0 0 0
Nghost:    20102 ave 20102 max 20102 min
Histogram: 1 0 0 0 0 0 0 0 0 0
Neighs:    1.45838e+06 ave 1.45838e+06 max 1.45838e+06 min
Histogram: 1 0 0 0 0 0 0 0 0 0

Total # of neighbors = 1458381
Ave neighs/atom = 74.2103
Neighbor list builds = 1000
Dangerous builds not checked
Setting up Verlet run ...
  Unit style    : metal
  Current step  : 2000
  Time step     : 0.001
Per MPI rank memory allocation (min/avg/max) = 18.2 | 18.2 | 18.2 Mbytes
Step Temp Press TotEng PotEng Enthalpy 
    2000    297.10161   -47.801103   -65220.538   -65975.203   -65230.308 
    4000    785.23161    12.086455   -62375.369   -64369.929   -62372.772 
    6000    1346.4683   -45.958688   -57288.475   -60708.627   -57299.726 
    8000    1886.2578    57.405751   -53956.865   -58748.131   -53941.769 
   10000    2437.2461    1426.2921   -51007.716   -57198.543   -50610.229 
Loop time of 1275.49 on 1 procs for 8000 steps with 19652 atoms

Performance: 0.542 ns/day, 44.288 hours/ns, 6.272 timesteps/s
98.3% CPU use with 1 MPI tasks x no OpenMP threads

MPI task timing breakdown:
Section |  min time  |  avg time  |  max time  |%varavg| %total
---------------------------------------------------------------
Pair    | 701.28     | 701.28     | 701.28     |   0.0 | 54.98
Neigh   | 548.38     | 548.38     | 548.38     |   0.0 | 42.99
Comm    | 9.8411     | 9.8411     | 9.8411     |   0.0 |  0.77
Output  | 0.22142    | 0.22142    | 0.22142    |   0.0 |  0.02
Modify  | 12.444     | 12.444     | 12.444     |   0.0 |  0.98
Other   |            | 3.317      |            |       |  0.26

Nlocal:    19652 ave 19652 max 19652 min
Histogram: 1 0 0 0 0 0 0 0 0 0
Nghost:    16181 ave 16181 max 16181 min
Histogram: 1 0 0 0 0 0 0 0 0 0
Neighs:    1.10549e+06 ave 1.10549e+06 max 1.10549e+06 min
Histogram: 1 0 0 0 0 0 0 0 0 0

Total # of neighbors = 1105493
Ave neighs/atom = 56.2535
Neighbor list builds = 8000
Dangerous builds not checked
Setting up Verlet run ...
  Unit style    : metal
  Current step  : 10000
  Time step     : 0.001
Per MPI rank memory allocation (min/avg/max) = 18.21 | 18.21 | 18.21 Mbytes
Step Temp Press TotEng PotEng Enthalpy 
   10000    2437.2461    1426.2921   -51007.716   -57198.543   -50610.229 
   12000    2430.5431    552.29078   -50995.393   -57169.194   -50841.028 
   14000    2434.6117   -806.28178   -51014.302   -57198.438   -51239.854 
   16000    2430.1353     76.07441   -50955.841   -57128.606   -50934.523 
   18000    2473.5406   -958.09528   -50872.087   -57155.105   -51140.985 
   20000    2450.1385    449.72999   -50966.678   -57190.253   -50841.091 
   22000     2450.036   -372.93654   -50980.375   -57203.689   -51084.651 
   24000     2446.619   -560.32153   -50871.358   -57085.993   -51028.701 
   26000    2462.2763     709.0167   -50910.608   -57165.014   -50712.426 
   28000    2444.3265    1601.1301   -50865.188       -57074    -50417.57 
   30000    2447.2868     638.1603   -50874.995   -57091.327   -50696.177 
   32000    2475.4584    908.32916   -50824.229   -57112.119   -50569.834 
   34000     2472.747    1358.4519   -50924.047    -57205.05   -50545.584 
   36000    2429.3545   -987.24946   -50937.862   -57108.644   -51215.172 
   38000    2469.0316    268.41222    -50847.42   -57118.986   -50772.147 
   40000     2440.337   -971.87317   -50843.369   -57042.047   -51116.907 
Loop time of 3904.2 on 1 procs for 30000 steps with 19652 atoms

Performance: 0.664 ns/day, 36.150 hours/ns, 7.684 timesteps/s
99.6% CPU use with 1 MPI tasks x no OpenMP threads

MPI task timing breakdown:
Section |  min time  |  avg time  |  max time  |%varavg| %total
---------------------------------------------------------------
Pair    | 2104.2     | 2104.2     | 2104.2     |   0.0 | 53.90
Neigh   | 1718.3     | 1718.3     | 1718.3     |   0.0 | 44.01
Comm    | 30.788     | 30.788     | 30.788     |   0.0 |  0.79
Output  | 0.93248    | 0.93248    | 0.93248    |   0.0 |  0.02
Modify  | 39.521     | 39.521     | 39.521     |   0.0 |  1.01
Other   |            | 10.44      |            |       |  0.27

Nlocal:    19652 ave 19652 max 19652 min
Histogram: 1 0 0 0 0 0 0 0 0 0
Nghost:    16229 ave 16229 max 16229 min
Histogram: 1 0 0 0 0 0 0 0 0 0
Neighs:    1.09387e+06 ave 1.09387e+06 max 1.09387e+06 min
Histogram: 1 0 0 0 0 0 0 0 0 0

Total # of neighbors = 1093866
Ave neighs/atom = 55.6618
Neighbor list builds = 30000
Dangerous builds not checked
Setting up Verlet run ...
  Unit style    : metal
  Current step  : 40000
  Time step     : 0.001
Per MPI rank memory allocation (min/avg/max) = 18.21 | 18.21 | 18.21 Mbytes
Step Temp Press TotEng PotEng Enthalpy 
   40000     2440.337   -971.87317   -50843.369   -57042.047   -51116.907 
   40495    2418.3208    228.03245   -51149.412   -57292.167   -51085.964 
Loop time of 66.0257 on 1 procs for 495 steps with 19652 atoms

Performance: 0.648 ns/day, 37.051 hours/ns, 7.497 timesteps/s
100.0% CPU use with 1 MPI tasks x no OpenMP threads

MPI task timing breakdown:
Section |  min time  |  avg time  |  max time  |%varavg| %total
---------------------------------------------------------------
Pair    | 35.769     | 35.769     | 35.769     |   0.0 | 54.18
Neigh   | 28.829     | 28.829     | 28.829     |   0.0 | 43.66
Comm    | 0.53563    | 0.53563    | 0.53563    |   0.0 |  0.81
Output  | 0.00015593 | 0.00015593 | 0.00015593 |   0.0 |  0.00
Modify  | 0.70623    | 0.70623    | 0.70623    |   0.0 |  1.07
Other   |            | 0.1851     |            |       |  0.28

Nlocal:    19652 ave 19652 max 19652 min
Histogram: 1 0 0 0 0 0 0 0 0 0
Nghost:    16276 ave 16276 max 16276 min
Histogram: 1 0 0 0 0 0 0 0 0 0
Neighs:    1.10734e+06 ave 1.10734e+06 max 1.10734e+06 min
Histogram: 1 0 0 0 0 0 0 0 0 0

Total # of neighbors = 1107341
Ave neighs/atom = 56.3475
Neighbor list builds = 495
Dangerous builds not checked
Setting up Verlet run ...
  Unit style    : metal
  Current step  : 40495
  Time step     : 0.001
Per MPI rank memory allocation (min/avg/max) = 18.21 | 18.21 | 18.21 Mbytes
Step Temp Press TotEng PotEng Enthalpy 
   40495    2418.3208    228.03245   -51149.412   -57292.167   -51085.964 
   42000    2415.0876    846.07394   -51233.327    -57367.87   -50998.997 
Loop time of 206.183 on 1 procs for 1505 steps with 19652 atoms

Performance: 0.631 ns/day, 38.055 hours/ns, 7.299 timesteps/s
99.9% CPU use with 1 MPI tasks x no OpenMP threads

MPI task timing breakdown:
Section |  min time  |  avg time  |  max time  |%varavg| %total
---------------------------------------------------------------
Pair    | 109.24     | 109.24     | 109.24     |   0.0 | 52.98
Neigh   | 92.694     | 92.694     | 92.694     |   0.0 | 44.96
Comm    | 1.5967     | 1.5967     | 1.5967     |   0.0 |  0.77
Output  | 0.049073   | 0.049073   | 0.049073   |   0.0 |  0.02
Modify  | 2.0656     | 2.0656     | 2.0656     |   0.0 |  1.00
Other   |            | 0.5406     |            |       |  0.26

Nlocal:    19652 ave 19652 max 19652 min
Histogram: 1 0 0 0 0 0 0 0 0 0
Nghost:    16245 ave 16245 max 16245 min
Histogram: 1 0 0 0 0 0 0 0 0 0
Neighs:    1.11189e+06 ave 1.11189e+06 max 1.11189e+06 min
Histogram: 1 0 0 0 0 0 0 0 0 0

Total # of neighbors = 1111892
Ave neighs/atom = 56.5791
Neighbor list builds = 1505
Dangerous builds not checked
Setting up Verlet run ...
  Unit style    : metal
  Current step  : 42000
  Time step     : 0.001
Per MPI rank memory allocation (min/avg/max) = 18.21 | 18.21 | 18.21 Mbytes
Step Temp Press TotEng PotEng Enthalpy 
   42000    2415.0876    846.07394   -51233.327    -57367.87   -50998.997 
   42495    2370.5388   -1049.4771   -51329.095   -57350.479   -51620.994 
Loop time of 59.527 on 1 procs for 495 steps with 19652 atoms

Performance: 0.718 ns/day, 33.405 hours/ns, 8.316 timesteps/s
100.0% CPU use with 1 MPI tasks x no OpenMP threads

MPI task timing breakdown:
Section |  min time  |  avg time  |  max time  |%varavg| %total
---------------------------------------------------------------
Pair    | 30.872     | 30.872     | 30.872     |   0.0 | 51.86
Neigh   | 27.41      | 27.41      | 27.41      |   0.0 | 46.05
Comm    | 0.46963    | 0.46963    | 0.46963    |   0.0 |  0.79
Output  | 0.0001719  | 0.0001719  | 0.0001719  |   0.0 |  0.00
Modify  | 0.61323    | 0.61323    | 0.61323    |   0.0 |  1.03
Other   |            | 0.1618     |            |       |  0.27

Nlocal:    19652 ave 19652 max 19652 min
Histogram: 1 0 0 0 0 0 0 0 0 0
Nghost:    16235 ave 16235 max 16235 min
Histogram: 1 0 0 0 0 0 0 0 0 0
Neighs:    1.1071e+06 ave 1.1071e+06 max 1.1071e+06 min
Histogram: 1 0 0 0 0 0 0 0 0 0

Total # of neighbors = 1107101
Ave neighs/atom = 56.3353
Neighbor list builds = 495
Dangerous builds not checked
Setting up Verlet run ...
  Unit style    : metal
  Current step  : 42495
  Time step     : 0.001
Per MPI rank memory allocation (min/avg/max) = 18.21 | 18.21 | 18.21 Mbytes
Step Temp Press TotEng PotEng Enthalpy 
   42495    2370.5388   -1049.4771   -51329.095   -57350.479   -51620.994 
   44000    2344.7263    529.04703   -51476.284   -57432.103   -51329.993 
Loop time of 211.635 on 1 procs for 1505 steps with 19652 atoms

Performance: 0.614 ns/day, 39.061 hours/ns, 7.111 timesteps/s
99.9% CPU use with 1 MPI tasks x no OpenMP threads

MPI task timing breakdown:
Section |  min time  |  avg time  |  max time  |%varavg| %total
---------------------------------------------------------------
Pair    | 112.44     | 112.44     | 112.44     |   0.0 | 53.13
Neigh   | 94.742     | 94.742     | 94.742     |   0.0 | 44.77
Comm    | 1.6367     | 1.6367     | 1.6367     |   0.0 |  0.77
Output  | 0.14913    | 0.14913    | 0.14913    |   0.0 |  0.07
Modify  | 2.1176     | 2.1176     | 2.1176     |   0.0 |  1.00
Other   |            | 0.5519     |            |       |  0.26

Nlocal:    19652 ave 19652 max 19652 min
Histogram: 1 0 0 0 0 0 0 0 0 0
Nghost:    16261 ave 16261 max 16261 min
Histogram: 1 0 0 0 0 0 0 0 0 0
Neighs:    1.11407e+06 ave 1.11407e+06 max 1.11407e+06 min
Histogram: 1 0 0 0 0 0 0 0 0 0

Total # of neighbors = 1114067
Ave neighs/atom = 56.6898
Neighbor list builds = 1505
Dangerous builds not checked
Setting up Verlet run ...
  Unit style    : metal
  Current step  : 44000
  Time step     : 0.001
Per MPI rank memory allocation (min/avg/max) = 18.21 | 18.21 | 18.21 Mbytes
Step Temp Press TotEng PotEng Enthalpy 
   44000    2344.7263    529.04703   -51476.284   -57432.103   -51329.993 
   44495     2313.994    298.79707   -51669.702   -57547.457   -51587.437 
Loop time of 60.9953 on 1 procs for 495 steps with 19652 atoms

Performance: 0.701 ns/day, 34.229 hours/ns, 8.115 timesteps/s
100.0% CPU use with 1 MPI tasks x no OpenMP threads

MPI task timing breakdown:
Section |  min time  |  avg time  |  max time  |%varavg| %total
---------------------------------------------------------------
Pair    | 31.854     | 31.854     | 31.854     |   0.0 | 52.22
Neigh   | 27.866     | 27.866     | 27.866     |   0.0 | 45.69
Comm    | 0.4786     | 0.4786     | 0.4786     |   0.0 |  0.78
Output  | 0.00016999 | 0.00016999 | 0.00016999 |   0.0 |  0.00
Modify  | 0.63188    | 0.63188    | 0.63188    |   0.0 |  1.04
Other   |            | 0.1648     |            |       |  0.27

Nlocal:    19652 ave 19652 max 19652 min
Histogram: 1 0 0 0 0 0 0 0 0 0
Nghost:    16295 ave 16295 max 16295 min
Histogram: 1 0 0 0 0 0 0 0 0 0
Neighs:    1.11909e+06 ave 1.11909e+06 max 1.11909e+06 min
Histogram: 1 0 0 0 0 0 0 0 0 0

Total # of neighbors = 1119091
Ave neighs/atom = 56.9454
Neighbor list builds = 495
Dangerous builds not checked
Setting up Verlet run ...
  Unit style    : metal
  Current step  : 44495
  Time step     : 0.001
Per MPI rank memory allocation (min/avg/max) = 18.21 | 18.21 | 18.21 Mbytes
Step Temp Press TotEng PotEng Enthalpy 
   44495     2313.994    298.79707   -51669.702   -57547.457   -51587.437 
   46000     2314.629    840.49026   -51692.138   -57571.506   -51461.152 
Loop time of 208.107 on 1 procs for 1505 steps with 19652 atoms

Performance: 0.625 ns/day, 38.410 hours/ns, 7.232 timesteps/s
99.9% CPU use with 1 MPI tasks x no OpenMP threads

MPI task timing breakdown:
Section |  min time  |  avg time  |  max time  |%varavg| %total
---------------------------------------------------------------
Pair    | 110.48     | 110.48     | 110.48     |   0.0 | 53.09
Neigh   | 93.307     | 93.307     | 93.307     |   0.0 | 44.84
Comm    | 1.6258     | 1.6258     | 1.6258     |   0.0 |  0.78
Output  | 0.053288   | 0.053288   | 0.053288   |   0.0 |  0.03
Modify  | 2.0892     | 2.0892     | 2.0892     |   0.0 |  1.00
Other   |            | 0.552      |            |       |  0.27

Nlocal:    19652 ave 19652 max 19652 min
Histogram: 1 0 0 0 0 0 0 0 0 0
Nghost:    16271 ave 16271 max 16271 min
Histogram: 1 0 0 0 0 0 0 0 0 0
Neighs:    1.12105e+06 ave 1.12105e+06 max 1.12105e+06 min
Histogram: 1 0 0 0 0 0 0 0 0 0

Total # of neighbors = 1121047
Ave neighs/atom = 57.0449
Neighbor list builds = 1505
Dangerous builds not checked
Setting up Verlet run ...
  Unit style    : metal
  Current step  : 46000
  Time step     : 0.001
Per MPI rank memory allocation (min/avg/max) = 18.21 | 18.21 | 18.21 Mbytes
Step Temp Press TotEng PotEng Enthalpy 
   46000     2314.629    840.49026   -51692.138   -57571.506   -51461.152 
   46495    2262.0793   -774.92299   -51864.208   -57610.095   -52077.628 
Loop time of 76.1975 on 1 procs for 495 steps with 19652 atoms

Performance: 0.561 ns/day, 42.760 hours/ns, 6.496 timesteps/s
99.6% CPU use with 1 MPI tasks x no OpenMP threads

MPI task timing breakdown:
Section |  min time  |  avg time  |  max time  |%varavg| %total
---------------------------------------------------------------
Pair    | 41.023     | 41.023     | 41.023     |   0.0 | 53.84
Neigh   | 33.574     | 33.574     | 33.574     |   0.0 | 44.06
Comm    | 0.60768    | 0.60768    | 0.60768    |   0.0 |  0.80
Output  | 0.00015497 | 0.00015497 | 0.00015497 |   0.0 |  0.00
Modify  | 0.78923    | 0.78923    | 0.78923    |   0.0 |  1.04
Other   |            | 0.2035     |            |       |  0.27

Nlocal:    19652 ave 19652 max 19652 min
Histogram: 1 0 0 0 0 0 0 0 0 0
Nghost:    16285 ave 16285 max 16285 min
Histogram: 1 0 0 0 0 0 0 0 0 0
Neighs:    1.11864e+06 ave 1.11864e+06 max 1.11864e+06 min
Histogram: 1 0 0 0 0 0 0 0 0 0

Total # of neighbors = 1118644
Ave neighs/atom = 56.9227
Neighbor list builds = 495
Dangerous builds not checked
Setting up Verlet run ...
  Unit style    : metal
  Current step  : 46495
  Time step     : 0.001
Per MPI rank memory allocation (min/avg/max) = 18.21 | 18.21 | 18.21 Mbytes
Step Temp Press TotEng PotEng Enthalpy 
   46495    2262.0793   -774.92299   -51864.208   -57610.095   -52077.628 
   48000    2248.1853   -320.13336    -51947.76   -57658.355   -52035.676 
Loop time of 202.357 on 1 procs for 1505 steps with 19652 atoms

Performance: 0.643 ns/day, 37.349 hours/ns, 7.437 timesteps/s
99.8% CPU use with 1 MPI tasks x no OpenMP threads

MPI task timing breakdown:
Section |  min time  |  avg time  |  max time  |%varavg| %total
---------------------------------------------------------------
Pair    | 107.72     | 107.72     | 107.72     |   0.0 | 53.23
Neigh   | 90.467     | 90.467     | 90.467     |   0.0 | 44.71
Comm    | 1.5684     | 1.5684     | 1.5684     |   0.0 |  0.78
Output  | 0.060396   | 0.060396   | 0.060396   |   0.0 |  0.03
Modify  | 2.0061     | 2.0061     | 2.0061     |   0.0 |  0.99
Other   |            | 0.538      |            |       |  0.27

Nlocal:    19652 ave 19652 max 19652 min
Histogram: 1 0 0 0 0 0 0 0 0 0
Nghost:    16361 ave 16361 max 16361 min
Histogram: 1 0 0 0 0 0 0 0 0 0
Neighs:    1.12261e+06 ave 1.12261e+06 max 1.12261e+06 min
Histogram: 1 0 0 0 0 0 0 0 0 0

Total # of neighbors = 1122614
Ave neighs/atom = 57.1247
Neighbor list builds = 1505
Dangerous builds not checked
Setting up Verlet run ...
  Unit style    : metal
  Current step  : 48000
  Time step     : 0.001
Per MPI rank memory allocation (min/avg/max) = 18.21 | 18.21 | 18.21 Mbytes
Step Temp Press TotEng PotEng Enthalpy 
   48000    2248.1853   -320.13336    -51947.76   -57658.355   -52035.676 
   48495    2220.4073   -358.02311   -52201.684   -57841.721   -52299.284 
Loop time of 78.1439 on 1 procs for 495 steps with 19652 atoms

Performance: 0.547 ns/day, 43.852 hours/ns, 6.334 timesteps/s
97.5% CPU use with 1 MPI tasks x no OpenMP threads

MPI task timing breakdown:
Section |  min time  |  avg time  |  max time  |%varavg| %total
---------------------------------------------------------------
Pair    | 42.377     | 42.377     | 42.377     |   0.0 | 54.23
Neigh   | 34.119     | 34.119     | 34.119     |   0.0 | 43.66
Comm    | 0.6346     | 0.6346     | 0.6346     |   0.0 |  0.81
Output  | 0.00017619 | 0.00017619 | 0.00017619 |   0.0 |  0.00
Modify  | 0.80153    | 0.80153    | 0.80153    |   0.0 |  1.03
Other   |            | 0.2116     |            |       |  0.27

Nlocal:    19652 ave 19652 max 19652 min
Histogram: 1 0 0 0 0 0 0 0 0 0
Nghost:    16395 ave 16395 max 16395 min
Histogram: 1 0 0 0 0 0 0 0 0 0
Neighs:    1.13025e+06 ave 1.13025e+06 max 1.13025e+06 min
Histogram: 1 0 0 0 0 0 0 0 0 0

Total # of neighbors = 1130253
Ave neighs/atom = 57.5134
Neighbor list builds = 495
Dangerous builds not checked
Setting up Verlet run ...
  Unit style    : metal
  Current step  : 48495
  Time step     : 0.001
Per MPI rank memory allocation (min/avg/max) = 18.21 | 18.21 | 18.21 Mbytes
Step Temp Press TotEng PotEng Enthalpy 
   48495    2220.4073   -358.02311   -52201.684   -57841.721   -52299.284 
   50000    2189.6551    46.845006   -52291.813   -57853.736   -52279.063 
Loop time of 223.704 on 1 procs for 1505 steps with 19652 atoms

Performance: 0.581 ns/day, 41.289 hours/ns, 6.728 timesteps/s
99.8% CPU use with 1 MPI tasks x no OpenMP threads

MPI task timing breakdown:
Section |  min time  |  avg time  |  max time  |%varavg| %total
---------------------------------------------------------------
Pair    | 120.86     | 120.86     | 120.86     |   0.0 | 54.03
Neigh   | 98.139     | 98.139     | 98.139     |   0.0 | 43.87
Comm    | 1.7668     | 1.7668     | 1.7668     |   0.0 |  0.79
Output  | 0.069096   | 0.069096   | 0.069096   |   0.0 |  0.03
Modify  | 2.2696     | 2.2696     | 2.2696     |   0.0 |  1.01
Other   |            | 0.597      |            |       |  0.27

Nlocal:    19652 ave 19652 max 19652 min
Histogram: 1 0 0 0 0 0 0 0 0 0
Nghost:    16401 ave 16401 max 16401 min
Histogram: 1 0 0 0 0 0 0 0 0 0
Neighs:    1.13209e+06 ave 1.13209e+06 max 1.13209e+06 min
Histogram: 1 0 0 0 0 0 0 0 0 0

Total # of neighbors = 1132091
Ave neighs/atom = 57.6069
Neighbor list builds = 1505
Dangerous builds not checked
Setting up Verlet run ...
  Unit style    : metal
  Current step  : 50000
  Time step     : 0.001
Per MPI rank memory allocation (min/avg/max) = 18.21 | 18.21 | 18.21 Mbytes
Step Temp Press TotEng PotEng Enthalpy 
   50000    2189.6551    46.845006   -52291.813   -57853.736   -52279.063 
   50495    2154.1701    449.00665   -52489.612     -57961.4   -52367.926 
Loop time of 71.0164 on 1 procs for 495 steps with 19652 atoms

Performance: 0.602 ns/day, 39.852 hours/ns, 6.970 timesteps/s
100.0% CPU use with 1 MPI tasks x no OpenMP threads

MPI task timing breakdown:
Section |  min time  |  avg time  |  max time  |%varavg| %total
---------------------------------------------------------------
Pair    | 37.911     | 37.911     | 37.911     |   0.0 | 53.38
Neigh   | 31.593     | 31.593     | 31.593     |   0.0 | 44.49
Comm    | 0.5724     | 0.5724     | 0.5724     |   0.0 |  0.81
Output  | 0.00016904 | 0.00016904 | 0.00016904 |   0.0 |  0.00
Modify  | 0.74474    | 0.74474    | 0.74474    |   0.0 |  1.05
Other   |            | 0.1951     |            |       |  0.27

Nlocal:    19652 ave 19652 max 19652 min
Histogram: 1 0 0 0 0 0 0 0 0 0
Nghost:    16326 ave 16326 max 16326 min
Histogram: 1 0 0 0 0 0 0 0 0 0
Neighs:    1.13693e+06 ave 1.13693e+06 max 1.13693e+06 min
Histogram: 1 0 0 0 0 0 0 0 0 0

Total # of neighbors = 1136926
Ave neighs/atom = 57.8529
Neighbor list builds = 495
Dangerous builds not checked
Setting up Verlet run ...
  Unit style    : metal
  Current step  : 50495
  Time step     : 0.001
Per MPI rank memory allocation (min/avg/max) = 18.21 | 18.21 | 18.21 Mbytes
Step Temp Press TotEng PotEng Enthalpy 
   50495    2154.1701    449.00665   -52489.612     -57961.4   -52367.926 
   52000    2157.3246    1055.2607   -52552.154   -58031.954   -52267.309 
Loop time of 218.72 on 1 procs for 1505 steps with 19652 atoms

Performance: 0.595 ns/day, 40.369 hours/ns, 6.881 timesteps/s
99.4% CPU use with 1 MPI tasks x no OpenMP threads

MPI task timing breakdown:
Section |  min time  |  avg time  |  max time  |%varavg| %total
---------------------------------------------------------------
Pair    | 116.92     | 116.92     | 116.92     |   0.0 | 53.46
Neigh   | 97.233     | 97.233     | 97.233     |   0.0 | 44.46
Comm    | 1.7134     | 1.7134     | 1.7134     |   0.0 |  0.78
Output  | 0.067301   | 0.067301   | 0.067301   |   0.0 |  0.03
Modify  | 2.2139     | 2.2139     | 2.2139     |   0.0 |  1.01
Other   |            | 0.5753     |            |       |  0.26

Nlocal:    19652 ave 19652 max 19652 min
Histogram: 1 0 0 0 0 0 0 0 0 0
Nghost:    16444 ave 16444 max 16444 min
Histogram: 1 0 0 0 0 0 0 0 0 0
Neighs:    1.14154e+06 ave 1.14154e+06 max 1.14154e+06 min
Histogram: 1 0 0 0 0 0 0 0 0 0

Total # of neighbors = 1141536
Ave neighs/atom = 58.0875
Neighbor list builds = 1505
Dangerous builds not checked
Setting up Verlet run ...
  Unit style    : metal
  Current step  : 52000
  Time step     : 0.001
Per MPI rank memory allocation (min/avg/max) = 18.21 | 18.21 | 18.21 Mbytes
Step Temp Press TotEng PotEng Enthalpy 
   52000    2157.3246    1055.2607   -52552.154   -58031.954   -52267.309 
   52495     2102.464    548.69311   -52753.355   -58093.805   -52605.478 
Loop time of 75.661 on 1 procs for 495 steps with 19652 atoms

Performance: 0.565 ns/day, 42.458 hours/ns, 6.542 timesteps/s
100.0% CPU use with 1 MPI tasks x no OpenMP threads

MPI task timing breakdown:
Section |  min time  |  avg time  |  max time  |%varavg| %total
---------------------------------------------------------------
Pair    | 40.587     | 40.587     | 40.587     |   0.0 | 53.64
Neigh   | 33.483     | 33.483     | 33.483     |   0.0 | 44.25
Comm    | 0.59701    | 0.59701    | 0.59701    |   0.0 |  0.79
Output  | 0.00016713 | 0.00016713 | 0.00016713 |   0.0 |  0.00
Modify  | 0.78959    | 0.78959    | 0.78959    |   0.0 |  1.04
Other   |            | 0.2039     |            |       |  0.27

Nlocal:    19652 ave 19652 max 19652 min
Histogram: 1 0 0 0 0 0 0 0 0 0
Nghost:    16460 ave 16460 max 16460 min
Histogram: 1 0 0 0 0 0 0 0 0 0
Neighs:    1.14316e+06 ave 1.14316e+06 max 1.14316e+06 min
Histogram: 1 0 0 0 0 0 0 0 0 0

Total # of neighbors = 1143159
Ave neighs/atom = 58.1701
Neighbor list builds = 495
Dangerous builds not checked
Setting up Verlet run ...
  Unit style    : metal
  Current step  : 52495
  Time step     : 0.001
Per MPI rank memory allocation (min/avg/max) = 18.21 | 18.21 | 18.21 Mbytes
Step Temp Press TotEng PotEng Enthalpy 
   52495     2102.464    548.69311   -52753.355   -58093.805   -52605.478 
   54000    2108.8068    263.84273   -52799.986   -58156.547   -52729.012 
Loop time of 232.644 on 1 procs for 1505 steps with 19652 atoms

Performance: 0.559 ns/day, 42.939 hours/ns, 6.469 timesteps/s
100.0% CPU use with 1 MPI tasks x no OpenMP threads

MPI task timing breakdown:
Section |  min time  |  avg time  |  max time  |%varavg| %total
---------------------------------------------------------------
Pair    | 126.1      | 126.1      | 126.1      |   0.0 | 54.20
Neigh   | 101.67     | 101.67     | 101.67     |   0.0 | 43.70
Comm    | 1.8327     | 1.8327     | 1.8327     |   0.0 |  0.79
Output  | 0.068332   | 0.068332   | 0.068332   |   0.0 |  0.03
Modify  | 2.3634     | 2.3634     | 2.3634     |   0.0 |  1.02
Other   |            | 0.6116     |            |       |  0.26

Nlocal:    19652 ave 19652 max 19652 min
Histogram: 1 0 0 0 0 0 0 0 0 0
Nghost:    16505 ave 16505 max 16505 min
Histogram: 1 0 0 0 0 0 0 0 0 0
Neighs:    1.14572e+06 ave 1.14572e+06 max 1.14572e+06 min
Histogram: 1 0 0 0 0 0 0 0 0 0

Total # of neighbors = 1145724
Ave neighs/atom = 58.3006
Neighbor list builds = 1505
Dangerous builds not checked
Setting up Verlet run ...
  Unit style    : metal
  Current step  : 54000
  Time step     : 0.001
Per MPI rank memory allocation (min/avg/max) = 18.21 | 18.21 | 18.21 Mbytes
Step Temp Press TotEng PotEng Enthalpy 
   54000    2108.8068    263.84273   -52799.986   -58156.547   -52729.012 
   54495    2064.3063   -138.74513   -53023.247   -58266.774   -53060.461 
Loop time of 79.5718 on 1 procs for 495 steps with 19652 atoms

Performance: 0.537 ns/day, 44.653 hours/ns, 6.221 timesteps/s
100.0% CPU use with 1 MPI tasks x no OpenMP threads

MPI task timing breakdown:
Section |  min time  |  avg time  |  max time  |%varavg| %total
---------------------------------------------------------------
Pair    | 43.273     | 43.273     | 43.273     |   0.0 | 54.38
Neigh   | 34.629     | 34.629     | 34.629     |   0.0 | 43.52
Comm    | 0.62912    | 0.62912    | 0.62912    |   0.0 |  0.79
Output  | 0.00026393 | 0.00026393 | 0.00026393 |   0.0 |  0.00
Modify  | 0.82812    | 0.82812    | 0.82812    |   0.0 |  1.04
Other   |            | 0.2131     |            |       |  0.27

Nlocal:    19652 ave 19652 max 19652 min
Histogram: 1 0 0 0 0 0 0 0 0 0
Nghost:    16462 ave 16462 max 16462 min
Histogram: 1 0 0 0 0 0 0 0 0 0
Neighs:    1.14922e+06 ave 1.14922e+06 max 1.14922e+06 min
Histogram: 1 0 0 0 0 0 0 0 0 0

Total # of neighbors = 1149216
Ave neighs/atom = 58.4783
Neighbor list builds = 495
Dangerous builds not checked
Setting up Verlet run ...
  Unit style    : metal
  Current step  : 54495
  Time step     : 0.001
Per MPI rank memory allocation (min/avg/max) = 18.21 | 18.21 | 18.21 Mbytes
Step Temp Press TotEng PotEng Enthalpy 
   54495    2064.3063   -138.74513   -53023.247   -58266.774   -53060.461 
   56000    2017.4274   -600.99944   -53182.134   -58306.584   -53343.059 
Loop time of 236.592 on 1 procs for 1505 steps with 19652 atoms

Performance: 0.550 ns/day, 43.668 hours/ns, 6.361 timesteps/s
100.0% CPU use with 1 MPI tasks x no OpenMP threads

MPI task timing breakdown:
Section |  min time  |  avg time  |  max time  |%varavg| %total
---------------------------------------------------------------
Pair    | 128.92     | 128.92     | 128.92     |   0.0 | 54.49
Neigh   | 102.72     | 102.72     | 102.72     |   0.0 | 43.42
Comm    | 1.8603     | 1.8603     | 1.8603     |   0.0 |  0.79
Output  | 0.067886   | 0.067886   | 0.067886   |   0.0 |  0.03
Modify  | 2.4104     | 2.4104     | 2.4104     |   0.0 |  1.02
Other   |            | 0.6196     |            |       |  0.26

Nlocal:    19652 ave 19652 max 19652 min
Histogram: 1 0 0 0 0 0 0 0 0 0
Nghost:    16542 ave 16542 max 16542 min
Histogram: 1 0 0 0 0 0 0 0 0 0
Neighs:    1.1511e+06 ave 1.1511e+06 max 1.1511e+06 min
Histogram: 1 0 0 0 0 0 0 0 0 0

Total # of neighbors = 1151105
Ave neighs/atom = 58.5744
Neighbor list builds = 1505
Dangerous builds not checked
Setting up Verlet run ...
  Unit style    : metal
  Current step  : 56000
  Time step     : 0.001
Per MPI rank memory allocation (min/avg/max) = 18.21 | 18.21 | 18.21 Mbytes
Step Temp Press TotEng PotEng Enthalpy 
   56000    2017.4274   -600.99944   -53182.134   -58306.584   -53343.059 
   56495    2010.4059   -193.71828   -53284.292   -58390.906   -53336.003 
Loop time of 72.5003 on 1 procs for 495 steps with 19652 atoms

Performance: 0.590 ns/day, 40.685 hours/ns, 6.828 timesteps/s
100.0% CPU use with 1 MPI tasks x no OpenMP threads

MPI task timing breakdown:
Section |  min time  |  avg time  |  max time  |%varavg| %total
---------------------------------------------------------------
Pair    | 38.961     | 38.961     | 38.961     |   0.0 | 53.74
Neigh   | 32.019     | 32.019     | 32.019     |   0.0 | 44.16
Comm    | 0.57468    | 0.57468    | 0.57468    |   0.0 |  0.79
Output  | 0.00022697 | 0.00022697 | 0.00022697 |   0.0 |  0.00
Modify  | 0.75127    | 0.75127    | 0.75127    |   0.0 |  1.04
Other   |            | 0.1939     |            |       |  0.27

Nlocal:    19652 ave 19652 max 19652 min
Histogram: 1 0 0 0 0 0 0 0 0 0
Nghost:    16472 ave 16472 max 16472 min
Histogram: 1 0 0 0 0 0 0 0 0 0
Neighs:    1.15569e+06 ave 1.15569e+06 max 1.15569e+06 min
Histogram: 1 0 0 0 0 0 0 0 0 0

Total # of neighbors = 1155694
Ave neighs/atom = 58.808
Neighbor list builds = 495
Dangerous builds not checked
Setting up Verlet run ...
  Unit style    : metal
  Current step  : 56495
  Time step     : 0.001
Per MPI rank memory allocation (min/avg/max) = 18.21 | 18.21 | 18.21 Mbytes
Step Temp Press TotEng PotEng Enthalpy 
   56495    2010.4059   -193.71828   -53284.292   -58390.906   -53336.003 
   58000    1985.7332    479.80727   -53447.406   -58491.349   -53320.054 
Loop time of 236.888 on 1 procs for 1505 steps with 19652 atoms

Performance: 0.549 ns/day, 43.722 hours/ns, 6.353 timesteps/s
100.0% CPU use with 1 MPI tasks x no OpenMP threads

MPI task timing breakdown:
Section |  min time  |  avg time  |  max time  |%varavg| %total
---------------------------------------------------------------
Pair    | 129.24     | 129.24     | 129.24     |   0.0 | 54.56
Neigh   | 102.72     | 102.72     | 102.72     |   0.0 | 43.36
Comm    | 1.8646     | 1.8646     | 1.8646     |   0.0 |  0.79
Output  | 0.055117   | 0.055117   | 0.055117   |   0.0 |  0.02
Modify  | 2.3942     | 2.3942     | 2.3942     |   0.0 |  1.01
Other   |            | 0.6168     |            |       |  0.26

Nlocal:    19652 ave 19652 max 19652 min
Histogram: 1 0 0 0 0 0 0 0 0 0
Nghost:    16526 ave 16526 max 16526 min
Histogram: 1 0 0 0 0 0 0 0 0 0
Neighs:    1.1618e+06 ave 1.1618e+06 max 1.1618e+06 min
Histogram: 1 0 0 0 0 0 0 0 0 0

Total # of neighbors = 1161801
Ave neighs/atom = 59.1187
Neighbor list builds = 1505
Dangerous builds not checked
Setting up Verlet run ...
  Unit style    : metal
  Current step  : 58000
  Time step     : 0.001
Per MPI rank memory allocation (min/avg/max) = 18.21 | 18.21 | 18.21 Mbytes
Step Temp Press TotEng PotEng Enthalpy 
   58000    1985.7332    479.80727   -53447.406   -58491.349   -53320.054 
   58495    1958.6773   -305.78257   -53555.287   -58530.506   -53636.494 
Loop time of 78.0917 on 1 procs for 495 steps with 19652 atoms

Performance: 0.548 ns/day, 43.822 hours/ns, 6.339 timesteps/s
100.0% CPU use with 1 MPI tasks x no OpenMP threads

MPI task timing breakdown:
Section |  min time  |  avg time  |  max time  |%varavg| %total
---------------------------------------------------------------
Pair    | 42.52      | 42.52      | 42.52      |   0.0 | 54.45
Neigh   | 33.937     | 33.937     | 33.937     |   0.0 | 43.46
Comm    | 0.62225    | 0.62225    | 0.62225    |   0.0 |  0.80
Output  | 0.00024509 | 0.00024509 | 0.00024509 |   0.0 |  0.00
Modify  | 0.80517    | 0.80517    | 0.80517    |   0.0 |  1.03
Other   |            | 0.2068     |            |       |  0.26

Nlocal:    19652 ave 19652 max 19652 min
Histogram: 1 0 0 0 0 0 0 0 0 0
Nghost:    16528 ave 16528 max 16528 min
Histogram: 1 0 0 0 0 0 0 0 0 0
Neighs:    1.16073e+06 ave 1.16073e+06 max 1.16073e+06 min
Histogram: 1 0 0 0 0 0 0 0 0 0

Total # of neighbors = 1160734
Ave neighs/atom = 59.0644
Neighbor list builds = 495
Dangerous builds not checked
Setting up Verlet run ...
  Unit style    : metal
  Current step  : 58495
  Time step     : 0.001
Per MPI rank memory allocation (min/avg/max) = 18.21 | 18.21 | 18.21 Mbytes
Step Temp Press TotEng PotEng Enthalpy 
   58495    1958.6773   -305.78257   -53555.287   -58530.506   -53636.494 
   60000    1935.9463   -1274.8589   -53685.899   -58603.379   -54023.774 
Loop time of 239.058 on 1 procs for 1505 steps with 19652 atoms

Performance: 0.544 ns/day, 44.123 hours/ns, 6.296 timesteps/s
100.0% CPU use with 1 MPI tasks x no OpenMP threads

MPI task timing breakdown:
Section |  min time  |  avg time  |  max time  |%varavg| %total
---------------------------------------------------------------
Pair    | 130.6      | 130.6      | 130.6      |   0.0 | 54.63
Neigh   | 103.48     | 103.48     | 103.48     |   0.0 | 43.28
Comm    | 1.8859     | 1.8859     | 1.8859     |   0.0 |  0.79
Output  | 0.046243   | 0.046243   | 0.046243   |   0.0 |  0.02
Modify  | 2.431      | 2.431      | 2.431      |   0.0 |  1.02
Other   |            | 0.6218     |            |       |  0.26

Nlocal:    19652 ave 19652 max 19652 min
Histogram: 1 0 0 0 0 0 0 0 0 0
Nghost:    16495 ave 16495 max 16495 min
Histogram: 1 0 0 0 0 0 0 0 0 0
Neighs:    1.16331e+06 ave 1.16331e+06 max 1.16331e+06 min
Histogram: 1 0 0 0 0 0 0 0 0 0

Total # of neighbors = 1163309
Ave neighs/atom = 59.1955
Neighbor list builds = 1505
Dangerous builds not checked
Setting up Verlet run ...
  Unit style    : metal
  Current step  : 60000
  Time step     : 0.001
Per MPI rank memory allocation (min/avg/max) = 18.21 | 18.21 | 18.21 Mbytes
Step Temp Press TotEng PotEng Enthalpy 
   60000    1935.9463   -1274.8589   -53685.899   -58603.379   -54023.774 
   60495    1913.9801    133.65281   -53895.361   -58757.045   -53860.201 
Loop time of 77.1447 on 1 procs for 495 steps with 19652 atoms

Performance: 0.554 ns/day, 43.291 hours/ns, 6.417 timesteps/s
100.0% CPU use with 1 MPI tasks x no OpenMP threads

MPI task timing breakdown:
Section |  min time  |  avg time  |  max time  |%varavg| %total
---------------------------------------------------------------
Pair    | 42.015     | 42.015     | 42.015     |   0.0 | 54.46
Neigh   | 33.522     | 33.522     | 33.522     |   0.0 | 43.45
Comm    | 0.60543    | 0.60543    | 0.60543    |   0.0 |  0.78
Output  | 0.00023007 | 0.00023007 | 0.00023007 |   0.0 |  0.00
Modify  | 0.79563    | 0.79563    | 0.79563    |   0.0 |  1.03
Other   |            | 0.2059     |            |       |  0.27

Nlocal:    19652 ave 19652 max 19652 min
Histogram: 1 0 0 0 0 0 0 0 0 0
Nghost:    16630 ave 16630 max 16630 min
Histogram: 1 0 0 0 0 0 0 0 0 0
Neighs:    1.17285e+06 ave 1.17285e+06 max 1.17285e+06 min
Histogram: 1 0 0 0 0 0 0 0 0 0

Total # of neighbors = 1172847
Ave neighs/atom = 59.6808
Neighbor list builds = 495
Dangerous builds not checked
Setting up Verlet run ...
  Unit style    : metal
  Current step  : 60495
  Time step     : 0.001
Per MPI rank memory allocation (min/avg/max) = 18.21 | 18.21 | 18.21 Mbytes
Step Temp Press TotEng PotEng Enthalpy 
   60495    1913.9801    133.65281   -53895.361   -58757.045   -53860.201 
   62000    1922.2586   -990.79249   -53878.237   -58760.949   -54139.382 
Loop time of 245.543 on 1 procs for 1505 steps with 19652 atoms

Performance: 0.530 ns/day, 45.320 hours/ns, 6.129 timesteps/s
99.9% CPU use with 1 MPI tasks x no OpenMP threads

MPI task timing breakdown:
Section |  min time  |  avg time  |  max time  |%varavg| %total
---------------------------------------------------------------
Pair    | 134.59     | 134.59     | 134.59     |   0.0 | 54.81
Neigh   | 105.87     | 105.87     | 105.87     |   0.0 | 43.12
Comm    | 1.921      | 1.921      | 1.921      |   0.0 |  0.78
Output  | 0.064271   | 0.064271   | 0.064271   |   0.0 |  0.03
Modify  | 2.4704     | 2.4704     | 2.4704     |   0.0 |  1.01
Other   |            | 0.6358     |            |       |  0.26

Nlocal:    19652 ave 19652 max 19652 min
Histogram: 1 0 0 0 0 0 0 0 0 0
Nghost:    16622 ave 16622 max 16622 min
Histogram: 1 0 0 0 0 0 0 0 0 0
Neighs:    1.17041e+06 ave 1.17041e+06 max 1.17041e+06 min
Histogram: 1 0 0 0 0 0 0 0 0 0

Total # of neighbors = 1170413
Ave neighs/atom = 59.5569
Neighbor list builds = 1505
Dangerous builds not checked
Setting up Verlet run ...
  Unit style    : metal
  Current step  : 62000
  Time step     : 0.001
Per MPI rank memory allocation (min/avg/max) = 18.21 | 18.21 | 18.21 Mbytes
Step Temp Press TotEng PotEng Enthalpy 
   62000    1922.2586   -990.79249   -53878.237   -58760.949   -54139.382 
   62495    1863.0897    -50.79381   -54150.723   -58883.141   -54164.023 
Loop time of 79.3137 on 1 procs for 495 steps with 19652 atoms

Performance: 0.539 ns/day, 44.508 hours/ns, 6.241 timesteps/s
99.9% CPU use with 1 MPI tasks x no OpenMP threads

MPI task timing breakdown:
Section |  min time  |  avg time  |  max time  |%varavg| %total
---------------------------------------------------------------
Pair    | 43.352     | 43.352     | 43.352     |   0.0 | 54.66
Neigh   | 34.311     | 34.311     | 34.311     |   0.0 | 43.26
Comm    | 0.62252    | 0.62252    | 0.62252    |   0.0 |  0.78
Output  | 0.00036001 | 0.00036001 | 0.00036001 |   0.0 |  0.00
Modify  | 0.81555    | 0.81555    | 0.81555    |   0.0 |  1.03
Other   |            | 0.2116     |            |       |  0.27

Nlocal:    19652 ave 19652 max 19652 min
Histogram: 1 0 0 0 0 0 0 0 0 0
Nghost:    16609 ave 16609 max 16609 min
Histogram: 1 0 0 0 0 0 0 0 0 0
Neighs:    1.17804e+06 ave 1.17804e+06 max 1.17804e+06 min
Histogram: 1 0 0 0 0 0 0 0 0 0

Total # of neighbors = 1178043
Ave neighs/atom = 59.9452
Neighbor list builds = 495
Dangerous builds not checked
Setting up Verlet run ...
  Unit style    : metal
  Current step  : 62495
  Time step     : 0.001
Per MPI rank memory allocation (min/avg/max) = 18.21 | 18.21 | 18.21 Mbytes
Step Temp Press TotEng PotEng Enthalpy 
   62495    1863.0897    -50.79381   -54150.723   -58883.141   -54164.023 
   64000    1850.3994   -378.21488   -54237.917     -58938.1   -54336.773 
Loop time of 243.548 on 1 procs for 1505 steps with 19652 atoms

Performance: 0.534 ns/day, 44.952 hours/ns, 6.179 timesteps/s
100.0% CPU use with 1 MPI tasks x no OpenMP threads

MPI task timing breakdown:
Section |  min time  |  avg time  |  max time  |%varavg| %total
---------------------------------------------------------------
Pair    | 133.82     | 133.82     | 133.82     |   0.0 | 54.95
Neigh   | 104.7      | 104.7      | 104.7      |   0.0 | 42.99
Comm    | 1.8959     | 1.8959     | 1.8959     |   0.0 |  0.78
Output  | 0.060983   | 0.060983   | 0.060983   |   0.0 |  0.03
Modify  | 2.4422     | 2.4422     | 2.4422     |   0.0 |  1.00
Other   |            | 0.6277     |            |       |  0.26

Nlocal:    19652 ave 19652 max 19652 min
Histogram: 1 0 0 0 0 0 0 0 0 0
Nghost:    16532 ave 16532 max 16532 min
Histogram: 1 0 0 0 0 0 0 0 0 0
Neighs:    1.18039e+06 ave 1.18039e+06 max 1.18039e+06 min
Histogram: 1 0 0 0 0 0 0 0 0 0

Total # of neighbors = 1180394
Ave neighs/atom = 60.0648
Neighbor list builds = 1505
Dangerous builds not checked
Setting up Verlet run ...
  Unit style    : metal
  Current step  : 64000
  Time step     : 0.001
Per MPI rank memory allocation (min/avg/max) = 18.21 | 18.21 | 18.21 Mbytes
Step Temp Press TotEng PotEng Enthalpy 
   64000    1850.3994   -378.21488   -54237.917     -58938.1   -54336.773 
   64495    1813.5797    234.35869   -54421.317   -59027.975   -54360.339 
Loop time of 77.5245 on 1 procs for 495 steps with 19652 atoms

Performance: 0.552 ns/day, 43.504 hours/ns, 6.385 timesteps/s
100.0% CPU use with 1 MPI tasks x no OpenMP threads

MPI task timing breakdown:
Section |  min time  |  avg time  |  max time  |%varavg| %total
---------------------------------------------------------------
Pair    | 42.62      | 42.62      | 42.62      |   0.0 | 54.98
Neigh   | 33.259     | 33.259     | 33.259     |   0.0 | 42.90
Comm    | 0.62655    | 0.62655    | 0.62655    |   0.0 |  0.81
Output  | 0.00019312 | 0.00019312 | 0.00019312 |   0.0 |  0.00
Modify  | 0.81301    | 0.81301    | 0.81301    |   0.0 |  1.05
Other   |            | 0.206      |            |       |  0.27

Nlocal:    19652 ave 19652 max 19652 min
Histogram: 1 0 0 0 0 0 0 0 0 0
Nghost:    16705 ave 16705 max 16705 min
Histogram: 1 0 0 0 0 0 0 0 0 0
Neighs:    1.1858e+06 ave 1.1858e+06 max 1.1858e+06 min
Histogram: 1 0 0 0 0 0 0 0 0 0

Total # of neighbors = 1185804
Ave neighs/atom = 60.3401
Neighbor list builds = 495
Dangerous builds not checked
Setting up Verlet run ...
  Unit style    : metal
  Current step  : 64495
  Time step     : 0.001
Per MPI rank memory allocation (min/avg/max) = 18.21 | 18.21 | 18.21 Mbytes
Step Temp Press TotEng PotEng Enthalpy 
   64495    1813.5797    234.35869   -54421.317   -59027.975   -54360.339 
   66000    1812.1814    500.12813   -54490.789   -59093.895   -54361.034 
Loop time of 243.317 on 1 procs for 1505 steps with 19652 atoms

Performance: 0.534 ns/day, 44.909 hours/ns, 6.185 timesteps/s
100.0% CPU use with 1 MPI tasks x no OpenMP threads

MPI task timing breakdown:
Section |  min time  |  avg time  |  max time  |%varavg| %total
---------------------------------------------------------------
Pair    | 133.97     | 133.97     | 133.97     |   0.0 | 55.06
Neigh   | 104.31     | 104.31     | 104.31     |   0.0 | 42.87
Comm    | 1.8957     | 1.8957     | 1.8957     |   0.0 |  0.78
Output  | 0.06833    | 0.06833    | 0.06833    |   0.0 |  0.03
Modify  | 2.4344     | 2.4344     | 2.4344     |   0.0 |  1.00
Other   |            | 0.6289     |            |       |  0.26

Nlocal:    19652 ave 19652 max 19652 min
Histogram: 1 0 0 0 0 0 0 0 0 0
Nghost:    16570 ave 16570 max 16570 min
Histogram: 1 0 0 0 0 0 0 0 0 0
Neighs:    1.18955e+06 ave 1.18955e+06 max 1.18955e+06 min
Histogram: 1 0 0 0 0 0 0 0 0 0

Total # of neighbors = 1189549
Ave neighs/atom = 60.5307
Neighbor list builds = 1505
Dangerous builds not checked
Setting up Verlet run ...
  Unit style    : metal
  Current step  : 66000
  Time step     : 0.001
Per MPI rank memory allocation (min/avg/max) = 18.21 | 18.21 | 18.21 Mbytes
Step Temp Press TotEng PotEng Enthalpy 
   66000    1812.1814    500.12813   -54490.789   -59093.895   -54361.034 
   66495      1760.38   -21.925819   -54667.567   -59139.093    -54673.25 
Loop time of 73.9606 on 1 procs for 495 steps with 19652 atoms

Performance: 0.578 ns/day, 41.504 hours/ns, 6.693 timesteps/s
100.0% CPU use with 1 MPI tasks x no OpenMP threads

MPI task timing breakdown:
Section |  min time  |  avg time  |  max time  |%varavg| %total
---------------------------------------------------------------
Pair    | 40.283     | 40.283     | 40.283     |   0.0 | 54.47
Neigh   | 32.148     | 32.148     | 32.148     |   0.0 | 43.47
Comm    | 0.57961    | 0.57961    | 0.57961    |   0.0 |  0.78
Output  | 0.00036478 | 0.00036478 | 0.00036478 |   0.0 |  0.00
Modify  | 0.75292    | 0.75292    | 0.75292    |   0.0 |  1.02
Other   |            | 0.197      |            |       |  0.27

Nlocal:    19652 ave 19652 max 19652 min
Histogram: 1 0 0 0 0 0 0 0 0 0
Nghost:    16732 ave 16732 max 16732 min
Histogram: 1 0 0 0 0 0 0 0 0 0
Neighs:    1.19038e+06 ave 1.19038e+06 max 1.19038e+06 min
Histogram: 1 0 0 0 0 0 0 0 0 0

Total # of neighbors = 1190378
Ave neighs/atom = 60.5729
Neighbor list builds = 495
Dangerous builds not checked
Setting up Verlet run ...
  Unit style    : metal
  Current step  : 66495
  Time step     : 0.001
Per MPI rank memory allocation (min/avg/max) = 18.21 | 18.21 | 18.21 Mbytes
Step Temp Press TotEng PotEng Enthalpy 
   66495      1760.38   -21.925819   -54667.567   -59139.093    -54673.25 
   68000    1753.9046     5.087064   -54776.829   -59231.906   -54775.515 
Loop time of 237.025 on 1 procs for 1505 steps with 19652 atoms

Performance: 0.549 ns/day, 43.748 hours/ns, 6.350 timesteps/s
100.0% CPU use with 1 MPI tasks x no OpenMP threads

MPI task timing breakdown:
Section |  min time  |  avg time  |  max time  |%varavg| %total
---------------------------------------------------------------
Pair    | 130.41     | 130.41     | 130.41     |   0.0 | 55.02
Neigh   | 101.7      | 101.7      | 101.7      |   0.0 | 42.91
Comm    | 1.8555     | 1.8555     | 1.8555     |   0.0 |  0.78
Output  | 0.069776   | 0.069776   | 0.069776   |   0.0 |  0.03
Modify  | 2.3782     | 2.3782     | 2.3782     |   0.0 |  1.00
Other   |            | 0.6142     |            |       |  0.26

Nlocal:    19652 ave 19652 max 19652 min
Histogram: 1 0 0 0 0 0 0 0 0 0
Nghost:    16726 ave 16726 max 16726 min
Histogram: 1 0 0 0 0 0 0 0 0 0
Neighs:    1.19521e+06 ave 1.19521e+06 max 1.19521e+06 min
Histogram: 1 0 0 0 0 0 0 0 0 0

Total # of neighbors = 1195212
Ave neighs/atom = 60.8188
Neighbor list builds = 1505
Dangerous builds not checked
Setting up Verlet run ...
  Unit style    : metal
  Current step  : 68000
  Time step     : 0.001
Per MPI rank memory allocation (min/avg/max) = 18.21 | 18.21 | 18.21 Mbytes
Step Temp Press TotEng PotEng Enthalpy 
   68000    1753.9046     5.087064   -54776.829   -59231.906   -54775.515 
   68495    1720.9502     100.6132   -54987.566   -59358.936   -54961.688 
Loop time of 73.8575 on 1 procs for 495 steps with 19652 atoms

Performance: 0.579 ns/day, 41.446 hours/ns, 6.702 timesteps/s
100.0% CPU use with 1 MPI tasks x no OpenMP threads

MPI task timing breakdown:
Section |  min time  |  avg time  |  max time  |%varavg| %total
---------------------------------------------------------------
Pair    | 40.177     | 40.177     | 40.177     |   0.0 | 54.40
Neigh   | 32.147     | 32.147     | 32.147     |   0.0 | 43.53
Comm    | 0.5806     | 0.5806     | 0.5806     |   0.0 |  0.79
Output  | 0.00024796 | 0.00024796 | 0.00024796 |   0.0 |  0.00
Modify  | 0.75477    | 0.75477    | 0.75477    |   0.0 |  1.02
Other   |            | 0.198      |            |       |  0.27

Nlocal:    19652 ave 19652 max 19652 min
Histogram: 1 0 0 0 0 0 0 0 0 0
Nghost:    16834 ave 16834 max 16834 min
Histogram: 1 0 0 0 0 0 0 0 0 0
Neighs:    1.19982e+06 ave 1.19982e+06 max 1.19982e+06 min
Histogram: 1 0 0 0 0 0 0 0 0 0

Total # of neighbors = 1199825
Ave neighs/atom = 61.0536
Neighbor list builds = 495
Dangerous builds not checked
Setting up Verlet run ...
  Unit style    : metal
  Current step  : 68495
  Time step     : 0.001
Per MPI rank memory allocation (min/avg/max) = 18.21 | 18.21 | 18.21 Mbytes
Step Temp Press TotEng PotEng Enthalpy 
   68495    1720.9502     100.6132   -54987.566   -59358.936   -54961.688 
   70000    1686.0608   -197.07373   -55106.451   -59389.199   -55157.086 
Loop time of 232.894 on 1 procs for 1505 steps with 19652 atoms

Performance: 0.558 ns/day, 42.985 hours/ns, 6.462 timesteps/s
99.9% CPU use with 1 MPI tasks x no OpenMP threads

MPI task timing breakdown:
Section |  min time  |  avg time  |  max time  |%varavg| %total
---------------------------------------------------------------
Pair    | 127.83     | 127.83     | 127.83     |   0.0 | 54.89
Neigh   | 100.27     | 100.27     | 100.27     |   0.0 | 43.05
Comm    | 1.8109     | 1.8109     | 1.8109     |   0.0 |  0.78
Output  | 0.061929   | 0.061929   | 0.061929   |   0.0 |  0.03
Modify  | 2.3162     | 2.3162     | 2.3162     |   0.0 |  0.99
Other   |            | 0.6031     |            |       |  0.26

Nlocal:    19652 ave 19652 max 19652 min
Histogram: 1 0 0 0 0 0 0 0 0 0
Nghost:    16780 ave 16780 max 16780 min
Histogram: 1 0 0 0 0 0 0 0 0 0
Neighs:    1.20131e+06 ave 1.20131e+06 max 1.20131e+06 min
Histogram: 1 0 0 0 0 0 0 0 0 0

Total # of neighbors = 1201307
Ave neighs/atom = 61.129
Neighbor list builds = 1505
Dangerous builds not checked
Setting up Verlet run ...
  Unit style    : metal
  Current step  : 70000
  Time step     : 0.001
Per MPI rank memory allocation (min/avg/max) = 18.21 | 18.21 | 18.21 Mbytes
Step Temp Press TotEng PotEng Enthalpy 
   70000    1686.0608   -197.07373   -55106.451   -59389.199   -55157.086 
   70495    1660.4518   -297.99499   -55276.389   -59494.088    -55352.66 
Loop time of 77.4249 on 1 procs for 495 steps with 19652 atoms

Performance: 0.552 ns/day, 43.448 hours/ns, 6.393 timesteps/s
100.0% CPU use with 1 MPI tasks x no OpenMP threads

MPI task timing breakdown:
Section |  min time  |  avg time  |  max time  |%varavg| %total
---------------------------------------------------------------
Pair    | 42.437     | 42.437     | 42.437     |   0.0 | 54.81
Neigh   | 33.392     | 33.392     | 33.392     |   0.0 | 43.13
Comm    | 0.6046     | 0.6046     | 0.6046     |   0.0 |  0.78
Output  | 0.00025415 | 0.00025415 | 0.00025415 |   0.0 |  0.00
Modify  | 0.78896    | 0.78896    | 0.78896    |   0.0 |  1.02
Other   |            | 0.2026     |            |       |  0.26

Nlocal:    19652 ave 19652 max 19652 min
Histogram: 1 0 0 0 0 0 0 0 0 0
Nghost:    16845 ave 16845 max 16845 min
Histogram: 1 0 0 0 0 0 0 0 0 0
Neighs:    1.20689e+06 ave 1.20689e+06 max 1.20689e+06 min
Histogram: 1 0 0 0 0 0 0 0 0 0

Total # of neighbors = 1206894
Ave neighs/atom = 61.4133
Neighbor list builds = 495
Dangerous builds not checked
Setting up Verlet run ...
  Unit style    : metal
  Current step  : 70495
  Time step     : 0.001
Per MPI rank memory allocation (min/avg/max) = 18.21 | 18.21 | 18.21 Mbytes
Step Temp Press TotEng PotEng Enthalpy 
   70495    1660.4518   -297.99499   -55276.389   -59494.088    -55352.66 
   72000     1645.607   -621.21539   -55350.593   -59530.585   -55509.498 
Loop time of 238.569 on 1 procs for 1505 steps with 19652 atoms

Performance: 0.545 ns/day, 44.033 hours/ns, 6.308 timesteps/s
99.9% CPU use with 1 MPI tasks x no OpenMP threads

MPI task timing breakdown:
Section |  min time  |  avg time  |  max time  |%varavg| %total
---------------------------------------------------------------
Pair    | 131.17     | 131.17     | 131.17     |   0.0 | 54.98
Neigh   | 102.49     | 102.49     | 102.49     |   0.0 | 42.96
Comm    | 1.8479     | 1.8479     | 1.8479     |   0.0 |  0.77
Output  | 0.06885    | 0.06885    | 0.06885    |   0.0 |  0.03
Modify  | 2.3811     | 2.3811     | 2.3811     |   0.0 |  1.00
Other   |            | 0.6153     |            |       |  0.26

Nlocal:    19652 ave 19652 max 19652 min
Histogram: 1 0 0 0 0 0 0 0 0 0
Nghost:    16800 ave 16800 max 16800 min
Histogram: 1 0 0 0 0 0 0 0 0 0
Neighs:    1.20667e+06 ave 1.20667e+06 max 1.20667e+06 min
Histogram: 1 0 0 0 0 0 0 0 0 0

Total # of neighbors = 1206671
Ave neighs/atom = 61.4019
Neighbor list builds = 1505
Dangerous builds not checked
Setting up Verlet run ...
  Unit style    : metal
  Current step  : 72000
  Time step     : 0.001
Per MPI rank memory allocation (min/avg/max) = 18.21 | 18.21 | 18.21 Mbytes
Step Temp Press TotEng PotEng Enthalpy 
   72000     1645.607   -621.21539   -55350.593   -59530.585   -55509.498 
   72495    1604.8125    318.38803   -55582.518   -59658.888   -55501.606 
Loop time of 71.0667 on 1 procs for 495 steps with 19652 atoms

Performance: 0.602 ns/day, 39.880 hours/ns, 6.965 timesteps/s
100.0% CPU use with 1 MPI tasks x no OpenMP threads

MPI task timing breakdown:
Section |  min time  |  avg time  |  max time  |%varavg| %total
---------------------------------------------------------------
Pair    | 38.632     | 38.632     | 38.632     |   0.0 | 54.36
Neigh   | 30.966     | 30.966     | 30.966     |   0.0 | 43.57
Comm    | 0.5581     | 0.5581     | 0.5581     |   0.0 |  0.79
Output  | 0.00019097 | 0.00019097 | 0.00019097 |   0.0 |  0.00
Modify  | 0.72175    | 0.72175    | 0.72175    |   0.0 |  1.02
Other   |            | 0.1892     |            |       |  0.27

Nlocal:    19652 ave 19652 max 19652 min
Histogram: 1 0 0 0 0 0 0 0 0 0
Nghost:    16891 ave 16891 max 16891 min
Histogram: 1 0 0 0 0 0 0 0 0 0
Neighs:    1.21518e+06 ave 1.21518e+06 max 1.21518e+06 min
Histogram: 1 0 0 0 0 0 0 0 0 0

Total # of neighbors = 1215185
Ave neighs/atom = 61.8352
Neighbor list builds = 495
Dangerous builds not checked
Setting up Verlet run ...
  Unit style    : metal
  Current step  : 72495
  Time step     : 0.001
Per MPI rank memory allocation (min/avg/max) = 18.21 | 18.21 | 18.21 Mbytes
Step Temp Press TotEng PotEng Enthalpy 
   72495    1604.8125    318.38803   -55582.518   -59658.888   -55501.606 
   74000    1599.2006   -180.23083    -55658.63   -59720.745    -55704.37 
Loop time of 229.799 on 1 procs for 1505 steps with 19652 atoms

Performance: 0.566 ns/day, 42.414 hours/ns, 6.549 timesteps/s
100.0% CPU use with 1 MPI tasks x no OpenMP threads

MPI task timing breakdown:
Section |  min time  |  avg time  |  max time  |%varavg| %total
---------------------------------------------------------------
Pair    | 126.28     | 126.28     | 126.28     |   0.0 | 54.95
Neigh   | 98.769     | 98.769     | 98.769     |   0.0 | 42.98
Comm    | 1.7936     | 1.7936     | 1.7936     |   0.0 |  0.78
Output  | 0.061038   | 0.061038   | 0.061038   |   0.0 |  0.03
Modify  | 2.2954     | 2.2954     | 2.2954     |   0.0 |  1.00
Other   |            | 0.5953     |            |       |  0.26

Nlocal:    19652 ave 19652 max 19652 min
Histogram: 1 0 0 0 0 0 0 0 0 0
Nghost:    16841 ave 16841 max 16841 min
Histogram: 1 0 0 0 0 0 0 0 0 0
Neighs:    1.21678e+06 ave 1.21678e+06 max 1.21678e+06 min
Histogram: 1 0 0 0 0 0 0 0 0 0

Total # of neighbors = 1216781
Ave neighs/atom = 61.9164
Neighbor list builds = 1505
Dangerous builds not checked
Setting up Verlet run ...
  Unit style    : metal
  Current step  : 74000
  Time step     : 0.001
Per MPI rank memory allocation (min/avg/max) = 18.21 | 18.21 | 18.21 Mbytes
Step Temp Press TotEng PotEng Enthalpy 
   74000    1599.2006   -180.23083    -55658.63   -59720.745    -55704.37 
   74495    1570.4191    13.091828   -55837.746   -59826.754   -55834.438 
Loop time of 78.5323 on 1 procs for 495 steps with 19652 atoms

Performance: 0.545 ns/day, 44.070 hours/ns, 6.303 timesteps/s
100.0% CPU use with 1 MPI tasks x no OpenMP threads

MPI task timing breakdown:
Section |  min time  |  avg time  |  max time  |%varavg| %total
---------------------------------------------------------------
Pair    | 43.307     | 43.307     | 43.307     |   0.0 | 55.15
Neigh   | 33.586     | 33.586     | 33.586     |   0.0 | 42.77
Comm    | 0.6216     | 0.6216     | 0.6216     |   0.0 |  0.79
Output  | 0.00022221 | 0.00022221 | 0.00022221 |   0.0 |  0.00
Modify  | 0.81075    | 0.81075    | 0.81075    |   0.0 |  1.03
Other   |            | 0.207      |            |       |  0.26

Nlocal:    19652 ave 19652 max 19652 min
Histogram: 1 0 0 0 0 0 0 0 0 0
Nghost:    16888 ave 16888 max 16888 min
Histogram: 1 0 0 0 0 0 0 0 0 0
Neighs:    1.22232e+06 ave 1.22232e+06 max 1.22232e+06 min
Histogram: 1 0 0 0 0 0 0 0 0 0

Total # of neighbors = 1222325
Ave neighs/atom = 62.1985
Neighbor list builds = 495
Dangerous builds not checked
Setting up Verlet run ...
  Unit style    : metal
  Current step  : 74495
  Time step     : 0.001
Per MPI rank memory allocation (min/avg/max) = 18.21 | 18.21 | 18.21 Mbytes
Step Temp Press TotEng PotEng Enthalpy 
   74495    1570.4191    13.091828   -55837.746   -59826.754   -55834.438 
   76000    1535.8028   -625.35734   -55983.613   -59884.692   -56141.464 
Loop time of 229.87 on 1 procs for 1505 steps with 19652 atoms

Performance: 0.566 ns/day, 42.427 hours/ns, 6.547 timesteps/s
100.0% CPU use with 1 MPI tasks x no OpenMP threads

MPI task timing breakdown:
Section |  min time  |  avg time  |  max time  |%varavg| %total
---------------------------------------------------------------
Pair    | 126.64     | 126.64     | 126.64     |   0.0 | 55.09
Neigh   | 98.466     | 98.466     | 98.466     |   0.0 | 42.84
Comm    | 1.8078     | 1.8078     | 1.8078     |   0.0 |  0.79
Output  | 0.052613   | 0.052613   | 0.052613   |   0.0 |  0.02
Modify  | 2.3045     | 2.3045     | 2.3045     |   0.0 |  1.00
Other   |            | 0.6007     |            |       |  0.26

Nlocal:    19652 ave 19652 max 19652 min
Histogram: 1 0 0 0 0 0 0 0 0 0
Nghost:    16864 ave 16864 max 16864 min
Histogram: 1 0 0 0 0 0 0 0 0 0
Neighs:    1.22404e+06 ave 1.22404e+06 max 1.22404e+06 min
Histogram: 1 0 0 0 0 0 0 0 0 0

Total # of neighbors = 1224039
Ave neighs/atom = 62.2857
Neighbor list builds = 1505
Dangerous builds not checked
Setting up Verlet run ...
  Unit style    : metal
  Current step  : 76000
  Time step     : 0.001
Per MPI rank memory allocation (min/avg/max) = 18.21 | 18.21 | 18.21 Mbytes
Step Temp Press TotEng PotEng Enthalpy 
   76000    1535.8028   -625.35734   -55983.613   -59884.692   -56141.464 
   76495    1503.3052   -1001.9222   -56141.117    -59959.65   -56393.303 
Loop time of 74.7861 on 1 procs for 495 steps with 19652 atoms

Performance: 0.572 ns/day, 41.968 hours/ns, 6.619 timesteps/s
100.0% CPU use with 1 MPI tasks x no OpenMP threads

MPI task timing breakdown:
Section |  min time  |  avg time  |  max time  |%varavg| %total
---------------------------------------------------------------
Pair    | 41.198     | 41.198     | 41.198     |   0.0 | 55.09
Neigh   | 32.035     | 32.035     | 32.035     |   0.0 | 42.84
Comm    | 0.59186    | 0.59186    | 0.59186    |   0.0 |  0.79
Output  | 0.00023007 | 0.00023007 | 0.00023007 |   0.0 |  0.00
Modify  | 0.76373    | 0.76373    | 0.76373    |   0.0 |  1.02
Other   |            | 0.1977     |            |       |  0.26

Nlocal:    19652 ave 19652 max 19652 min
Histogram: 1 0 0 0 0 0 0 0 0 0
Nghost:    17006 ave 17006 max 17006 min
Histogram: 1 0 0 0 0 0 0 0 0 0
Neighs:    1.22724e+06 ave 1.22724e+06 max 1.22724e+06 min
Histogram: 1 0 0 0 0 0 0 0 0 0

Total # of neighbors = 1227243
Ave neighs/atom = 62.4488
Neighbor list builds = 495
Dangerous builds not checked
Setting up Verlet run ...
  Unit style    : metal
  Current step  : 76495
  Time step     : 0.001
Per MPI rank memory allocation (min/avg/max) = 18.21 | 18.21 | 18.21 Mbytes
Step Temp Press TotEng PotEng Enthalpy 
   76495    1503.3052   -1001.9222   -56141.117    -59959.65   -56393.303 
   78000    1496.0863   -263.44596   -56183.062   -59983.258   -56249.282 
Loop time of 238.925 on 1 procs for 1505 steps with 19652 atoms

Performance: 0.544 ns/day, 44.098 hours/ns, 6.299 timesteps/s
100.0% CPU use with 1 MPI tasks x no OpenMP threads

MPI task timing breakdown:
Section |  min time  |  avg time  |  max time  |%varavg| %total
---------------------------------------------------------------
Pair    | 132.04     | 132.04     | 132.04     |   0.0 | 55.27
Neigh   | 101.97     | 101.97     | 101.97     |   0.0 | 42.68
Comm    | 1.8448     | 1.8448     | 1.8448     |   0.0 |  0.77
Output  | 0.068049   | 0.068049   | 0.068049   |   0.0 |  0.03
Modify  | 2.3839     | 2.3839     | 2.3839     |   0.0 |  1.00
Other   |            | 0.6169     |            |       |  0.26

Nlocal:    19652 ave 19652 max 19652 min
Histogram: 1 0 0 0 0 0 0 0 0 0
Nghost:    16959 ave 16959 max 16959 min
Histogram: 1 0 0 0 0 0 0 0 0 0
Neighs:    1.22934e+06 ave 1.22934e+06 max 1.22934e+06 min
Histogram: 1 0 0 0 0 0 0 0 0 0

Total # of neighbors = 1229339
Ave neighs/atom = 62.5554
Neighbor list builds = 1505
Dangerous builds not checked
Setting up Verlet run ...
  Unit style    : metal
  Current step  : 78000
  Time step     : 0.001
Per MPI rank memory allocation (min/avg/max) = 18.21 | 18.21 | 18.21 Mbytes
Step Temp Press TotEng PotEng Enthalpy 
   78000    1496.0863   -263.44596   -56183.062   -59983.258   -56249.282 
   78495    1463.4257   -106.49267   -56418.782   -60136.016   -56445.385 
Loop time of 79.494 on 1 procs for 495 steps with 19652 atoms

Performance: 0.538 ns/day, 44.609 hours/ns, 6.227 timesteps/s
99.9% CPU use with 1 MPI tasks x no OpenMP threads

MPI task timing breakdown:
Section |  min time  |  avg time  |  max time  |%varavg| %total
---------------------------------------------------------------
Pair    | 43.899     | 43.899     | 43.899     |   0.0 | 55.22
Neigh   | 33.938     | 33.938     | 33.938     |   0.0 | 42.69
Comm    | 0.62786    | 0.62786    | 0.62786    |   0.0 |  0.79
Output  | 0.00019312 | 0.00019312 | 0.00019312 |   0.0 |  0.00
Modify  | 0.81589    | 0.81589    | 0.81589    |   0.0 |  1.03
Other   |            | 0.2131     |            |       |  0.27

Nlocal:    19652 ave 19652 max 19652 min
Histogram: 1 0 0 0 0 0 0 0 0 0
Nghost:    16963 ave 16963 max 16963 min
Histogram: 1 0 0 0 0 0 0 0 0 0
Neighs:    1.23713e+06 ave 1.23713e+06 max 1.23713e+06 min
Histogram: 1 0 0 0 0 0 0 0 0 0

Total # of neighbors = 1237129
Ave neighs/atom = 62.9518
Neighbor list builds = 495
Dangerous builds not checked
Setting up Verlet run ...
  Unit style    : metal
  Current step  : 78495
  Time step     : 0.001
Per MPI rank memory allocation (min/avg/max) = 18.21 | 18.21 | 18.21 Mbytes
Step Temp Press TotEng PotEng Enthalpy 
   78495    1463.4257   -106.49267   -56418.782   -60136.016   -56445.385 
   80000    1460.3096    768.91295   -56534.422   -60243.742   -56343.194 
Loop time of 236.419 on 1 procs for 1505 steps with 19652 atoms

Performance: 0.550 ns/day, 43.636 hours/ns, 6.366 timesteps/s
100.0% CPU use with 1 MPI tasks x no OpenMP threads

MPI task timing breakdown:
Section |  min time  |  avg time  |  max time  |%varavg| %total
---------------------------------------------------------------
Pair    | 131.3      | 131.3      | 131.3      |   0.0 | 55.54
Neigh   | 100.19     | 100.19     | 100.19     |   0.0 | 42.38
Comm    | 1.8762     | 1.8762     | 1.8762     |   0.0 |  0.79
Output  | 0.062094   | 0.062094   | 0.062094   |   0.0 |  0.03
Modify  | 2.3763     | 2.3763     | 2.3763     |   0.0 |  1.01
Other   |            | 0.617      |            |       |  0.26

Nlocal:    19652 ave 19652 max 19652 min
Histogram: 1 0 0 0 0 0 0 0 0 0
Nghost:    17076 ave 17076 max 17076 min
Histogram: 1 0 0 0 0 0 0 0 0 0
Neighs:    1.24273e+06 ave 1.24273e+06 max 1.24273e+06 min
Histogram: 1 0 0 0 0 0 0 0 0 0

Total # of neighbors = 1242729
Ave neighs/atom = 63.2368
Neighbor list builds = 1505
Dangerous builds not checked
Setting up Verlet run ...
  Unit style    : metal
  Current step  : 80000
  Time step     : 0.001
Per MPI rank memory allocation (min/avg/max) = 18.21 | 18.21 | 18.21 Mbytes
Step Temp Press TotEng PotEng Enthalpy 
   80000    1460.3096    768.91295   -56534.422   -60243.742   -56343.194 
   80495    1427.4284    -331.1003   -56702.386   -60328.184   -56784.589 
Loop time of 73.3048 on 1 procs for 495 steps with 19652 atoms

Performance: 0.583 ns/day, 41.136 hours/ns, 6.753 timesteps/s
100.0% CPU use with 1 MPI tasks x no OpenMP threads

MPI task timing breakdown:
Section |  min time  |  avg time  |  max time  |%varavg| %total
---------------------------------------------------------------
Pair    | 40.328     | 40.328     | 40.328     |   0.0 | 55.01
Neigh   | 31.446     | 31.446     | 31.446     |   0.0 | 42.90
Comm    | 0.57832    | 0.57832    | 0.57832    |   0.0 |  0.79
Output  | 0.0001781  | 0.0001781  | 0.0001781  |   0.0 |  0.00
Modify  | 0.75448    | 0.75448    | 0.75448    |   0.0 |  1.03
Other   |            | 0.1976     |            |       |  0.27

Nlocal:    19652 ave 19652 max 19652 min
Histogram: 1 0 0 0 0 0 0 0 0 0
Nghost:    17028 ave 17028 max 17028 min
Histogram: 1 0 0 0 0 0 0 0 0 0
Neighs:    1.24497e+06 ave 1.24497e+06 max 1.24497e+06 min
Histogram: 1 0 0 0 0 0 0 0 0 0

Total # of neighbors = 1244973
Ave neighs/atom = 63.351
Neighbor list builds = 495
Dangerous builds not checked
Setting up Verlet run ...
  Unit style    : metal
  Current step  : 80495
  Time step     : 0.001
Per MPI rank memory allocation (min/avg/max) = 18.21 | 18.21 | 18.21 Mbytes
Step Temp Press TotEng PotEng Enthalpy 
   80495    1427.4284    -331.1003   -56702.386   -60328.184   -56784.589 
   82000    1406.2904   -846.01519    -56807.01   -60379.116   -57016.846 
Loop time of 234.911 on 1 procs for 1505 steps with 19652 atoms

Performance: 0.554 ns/day, 43.358 hours/ns, 6.407 timesteps/s
99.9% CPU use with 1 MPI tasks x no OpenMP threads

MPI task timing breakdown:
Section |  min time  |  avg time  |  max time  |%varavg| %total
---------------------------------------------------------------
Pair    | 129.71     | 129.71     | 129.71     |   0.0 | 55.22
Neigh   | 100.35     | 100.35     | 100.35     |   0.0 | 42.72
Comm    | 1.8237     | 1.8237     | 1.8237     |   0.0 |  0.78
Output  | 0.061256   | 0.061256   | 0.061256   |   0.0 |  0.03
Modify  | 2.3478     | 2.3478     | 2.3478     |   0.0 |  1.00
Other   |            | 0.6158     |            |       |  0.26

Nlocal:    19652 ave 19652 max 19652 min
Histogram: 1 0 0 0 0 0 0 0 0 0
Nghost:    17049 ave 17049 max 17049 min
Histogram: 1 0 0 0 0 0 0 0 0 0
Neighs:    1.24659e+06 ave 1.24659e+06 max 1.24659e+06 min
Histogram: 1 0 0 0 0 0 0 0 0 0

Total # of neighbors = 1246594
Ave neighs/atom = 63.4334
Neighbor list builds = 1505
Dangerous builds not checked
Setting up Verlet run ...
  Unit style    : metal
  Current step  : 82000
  Time step     : 0.001
Per MPI rank memory allocation (min/avg/max) = 18.21 | 18.21 | 18.21 Mbytes
Step Temp Press TotEng PotEng Enthalpy 
   82000    1406.2904   -846.01519    -56807.01   -60379.116   -57016.846 
   82495    1358.8322   -68.864906   -57038.291   -60489.848   -57055.272 
Loop time of 73.6572 on 1 procs for 495 steps with 19652 atoms

Performance: 0.581 ns/day, 41.334 hours/ns, 6.720 timesteps/s
100.0% CPU use with 1 MPI tasks x no OpenMP threads

MPI task timing breakdown:
Section |  min time  |  avg time  |  max time  |%varavg| %total
---------------------------------------------------------------
Pair    | 40.466     | 40.466     | 40.466     |   0.0 | 54.94
Neigh   | 31.673     | 31.673     | 31.673     |   0.0 | 43.00
Comm    | 0.57997    | 0.57997    | 0.57997    |   0.0 |  0.79
Output  | 0.00016689 | 0.00016689 | 0.00016689 |   0.0 |  0.00
Modify  | 0.74386    | 0.74386    | 0.74386    |   0.0 |  1.01
Other   |            | 0.194      |            |       |  0.26

Nlocal:    19652 ave 19652 max 19652 min
Histogram: 1 0 0 0 0 0 0 0 0 0
Nghost:    17095 ave 17095 max 17095 min
Histogram: 1 0 0 0 0 0 0 0 0 0
Neighs:    1.25402e+06 ave 1.25402e+06 max 1.25402e+06 min
Histogram: 1 0 0 0 0 0 0 0 0 0

Total # of neighbors = 1254019
Ave neighs/atom = 63.8113
Neighbor list builds = 495
Dangerous builds not checked
Setting up Verlet run ...
  Unit style    : metal
  Current step  : 82495
  Time step     : 0.001
Per MPI rank memory allocation (min/avg/max) = 18.21 | 18.21 | 18.21 Mbytes
Step Temp Press TotEng PotEng Enthalpy 
   82495    1358.8322   -68.864906   -57038.291   -60489.848   -57055.272 
   84000    1352.7616   -296.73966   -57128.247   -60564.384   -57201.274 
Loop time of 230.523 on 1 procs for 1505 steps with 19652 atoms

Performance: 0.564 ns/day, 42.548 hours/ns, 6.529 timesteps/s
100.0% CPU use with 1 MPI tasks x no OpenMP threads

MPI task timing breakdown:
Section |  min time  |  avg time  |  max time  |%varavg| %total
---------------------------------------------------------------
Pair    | 127.81     | 127.81     | 127.81     |   0.0 | 55.44
Neigh   | 97.954     | 97.954     | 97.954     |   0.0 | 42.49
Comm    | 1.8004     | 1.8004     | 1.8004     |   0.0 |  0.78
Output  | 0.057217   | 0.057217   | 0.057217   |   0.0 |  0.02
Modify  | 2.2977     | 2.2977     | 2.2977     |   0.0 |  1.00
Other   |            | 0.6015     |            |       |  0.26

Nlocal:    19652 ave 19652 max 19652 min
Histogram: 1 0 0 0 0 0 0 0 0 0
Nghost:    17083 ave 17083 max 17083 min
Histogram: 1 0 0 0 0 0 0 0 0 0
Neighs:    1.25641e+06 ave 1.25641e+06 max 1.25641e+06 min
Histogram: 1 0 0 0 0 0 0 0 0 0

Total # of neighbors = 1256413
Ave neighs/atom = 63.9331
Neighbor list builds = 1505
Dangerous builds not checked
Setting up Verlet run ...
  Unit style    : metal
  Current step  : 84000
  Time step     : 0.001
Per MPI rank memory allocation (min/avg/max) = 18.21 | 18.21 | 18.21 Mbytes
Step Temp Press TotEng PotEng Enthalpy 
   84000    1352.7616   -296.73966   -57128.247   -60564.384   -57201.274 
   84495    1315.7902    580.73199   -57320.351   -60662.578   -57178.163 
Loop time of 77.7277 on 1 procs for 495 steps with 19652 atoms

Performance: 0.550 ns/day, 43.618 hours/ns, 6.368 timesteps/s
100.0% CPU use with 1 MPI tasks x no OpenMP threads

MPI task timing breakdown:
Section |  min time  |  avg time  |  max time  |%varavg| %total
---------------------------------------------------------------
Pair    | 43.203     | 43.203     | 43.203     |   0.0 | 55.58
Neigh   | 32.904     | 32.904     | 32.904     |   0.0 | 42.33
Comm    | 0.61756    | 0.61756    | 0.61756    |   0.0 |  0.79
Output  | 0.00025392 | 0.00025392 | 0.00025392 |   0.0 |  0.00
Modify  | 0.79989    | 0.79989    | 0.79989    |   0.0 |  1.03
Other   |            | 0.203      |            |       |  0.26

Nlocal:    19652 ave 19652 max 19652 min
Histogram: 1 0 0 0 0 0 0 0 0 0
Nghost:    17083 ave 17083 max 17083 min
Histogram: 1 0 0 0 0 0 0 0 0 0
Neighs:    1.26285e+06 ave 1.26285e+06 max 1.26285e+06 min
Histogram: 1 0 0 0 0 0 0 0 0 0

Total # of neighbors = 1262846
Ave neighs/atom = 64.2604
Neighbor list builds = 495
Dangerous builds not checked
Setting up Verlet run ...
  Unit style    : metal
  Current step  : 84495
  Time step     : 0.001
Per MPI rank memory allocation (min/avg/max) = 18.21 | 18.21 | 18.21 Mbytes
Step Temp Press TotEng PotEng Enthalpy 
   84495    1315.7902    580.73199   -57320.351   -60662.578   -57178.163 
   86000    1290.2922    123.55814   -57444.715   -60722.175   -57414.494 
Loop time of 232.284 on 1 procs for 1505 steps with 19652 atoms

Performance: 0.560 ns/day, 42.873 hours/ns, 6.479 timesteps/s
100.0% CPU use with 1 MPI tasks x no OpenMP threads

MPI task timing breakdown:
Section |  min time  |  avg time  |  max time  |%varavg| %total
---------------------------------------------------------------
Pair    | 129.01     | 129.01     | 129.01     |   0.0 | 55.54
Neigh   | 98.468     | 98.468     | 98.468     |   0.0 | 42.39
Comm    | 1.8211     | 1.8211     | 1.8211     |   0.0 |  0.78
Output  | 0.064579   | 0.064579   | 0.064579   |   0.0 |  0.03
Modify  | 2.3155     | 2.3155     | 2.3155     |   0.0 |  1.00
Other   |            | 0.604      |            |       |  0.26

Nlocal:    19652 ave 19652 max 19652 min
Histogram: 1 0 0 0 0 0 0 0 0 0
Nghost:    17093 ave 17093 max 17093 min
Histogram: 1 0 0 0 0 0 0 0 0 0
Neighs:    1.2643e+06 ave 1.2643e+06 max 1.2643e+06 min
Histogram: 1 0 0 0 0 0 0 0 0 0

Total # of neighbors = 1264303
Ave neighs/atom = 64.3346
Neighbor list builds = 1505
Dangerous builds not checked
Setting up Verlet run ...
  Unit style    : metal
  Current step  : 86000
  Time step     : 0.001
Per MPI rank memory allocation (min/avg/max) = 18.21 | 18.21 | 18.21 Mbytes
Step Temp Press TotEng PotEng Enthalpy 
   86000    1290.2922    123.55814   -57444.715   -60722.175   -57414.494 
   86495    1269.3077    -93.79604   -57613.764   -60837.922   -57636.619 
Loop time of 75.0063 on 1 procs for 495 steps with 19652 atoms

Performance: 0.570 ns/day, 42.091 hours/ns, 6.599 timesteps/s
100.0% CPU use with 1 MPI tasks x no OpenMP threads

MPI task timing breakdown:
Section |  min time  |  avg time  |  max time  |%varavg| %total
---------------------------------------------------------------
Pair    | 41.111     | 41.111     | 41.111     |   0.0 | 54.81
Neigh   | 32.367     | 32.367     | 32.367     |   0.0 | 43.15
Comm    | 0.56877    | 0.56877    | 0.56877    |   0.0 |  0.76
Output  | 0.00019908 | 0.00019908 | 0.00019908 |   0.0 |  0.00
Modify  | 0.76173    | 0.76173    | 0.76173    |   0.0 |  1.02
Other   |            | 0.1975     |            |       |  0.26

Nlocal:    19652 ave 19652 max 19652 min
Histogram: 1 0 0 0 0 0 0 0 0 0
Nghost:    17078 ave 17078 max 17078 min
Histogram: 1 0 0 0 0 0 0 0 0 0
Neighs:    1.26964e+06 ave 1.26964e+06 max 1.26964e+06 min
Histogram: 1 0 0 0 0 0 0 0 0 0

Total # of neighbors = 1269641
Ave neighs/atom = 64.6062
Neighbor list builds = 495
Dangerous builds not checked
Setting up Verlet run ...
  Unit style    : metal
  Current step  : 86495
  Time step     : 0.001
Per MPI rank memory allocation (min/avg/max) = 18.21 | 18.21 | 18.21 Mbytes
Step Temp Press TotEng PotEng Enthalpy 
   86495    1269.3077    -93.79604   -57613.764   -60837.922   -57636.619 
   88000    1251.3721   -153.73979   -57702.166   -60880.766   -57739.559 
Loop time of 231.895 on 1 procs for 1505 steps with 19652 atoms

Performance: 0.561 ns/day, 42.801 hours/ns, 6.490 timesteps/s
99.9% CPU use with 1 MPI tasks x no OpenMP threads

MPI task timing breakdown:
Section |  min time  |  avg time  |  max time  |%varavg| %total
---------------------------------------------------------------
Pair    | 127.88     | 127.88     | 127.88     |   0.0 | 55.14
Neigh   | 99.292     | 99.292     | 99.292     |   0.0 | 42.82
Comm    | 1.7687     | 1.7687     | 1.7687     |   0.0 |  0.76
Output  | 0.043269   | 0.043269   | 0.043269   |   0.0 |  0.02
Modify  | 2.3131     | 2.3131     | 2.3131     |   0.0 |  1.00
Other   |            | 0.6013     |            |       |  0.26

Nlocal:    19652 ave 19652 max 19652 min
Histogram: 1 0 0 0 0 0 0 0 0 0
Nghost:    17141 ave 17141 max 17141 min
Histogram: 1 0 0 0 0 0 0 0 0 0
Neighs:    1.27286e+06 ave 1.27286e+06 max 1.27286e+06 min
Histogram: 1 0 0 0 0 0 0 0 0 0

Total # of neighbors = 1272861
Ave neighs/atom = 64.77
Neighbor list builds = 1505
Dangerous builds not checked
Setting up Verlet run ...
  Unit style    : metal
  Current step  : 88000
  Time step     : 0.001
Per MPI rank memory allocation (min/avg/max) = 18.21 | 18.21 | 18.21 Mbytes
Step Temp Press TotEng PotEng Enthalpy 
   88000    1251.3721   -153.73979   -57702.166   -60880.766   -57739.559 
   88495    1216.1502    9.6526748   -57936.648    -61025.78   -57934.313 
Loop time of 73.4278 on 1 procs for 495 steps with 19652 atoms

Performance: 0.582 ns/day, 41.205 hours/ns, 6.741 timesteps/s
100.0% CPU use with 1 MPI tasks x no OpenMP threads

MPI task timing breakdown:
Section |  min time  |  avg time  |  max time  |%varavg| %total
---------------------------------------------------------------
Pair    | 40.534     | 40.534     | 40.534     |   0.0 | 55.20
Neigh   | 31.402     | 31.402     | 31.402     |   0.0 | 42.77
Comm    | 0.565      | 0.565      | 0.565      |   0.0 |  0.77
Output  | 0.00021696 | 0.00021696 | 0.00021696 |   0.0 |  0.00
Modify  | 0.73469    | 0.73469    | 0.73469    |   0.0 |  1.00
Other   |            | 0.1918     |            |       |  0.26

Nlocal:    19652 ave 19652 max 19652 min
Histogram: 1 0 0 0 0 0 0 0 0 0
Nghost:    17115 ave 17115 max 17115 min
Histogram: 1 0 0 0 0 0 0 0 0 0
Neighs:    1.27981e+06 ave 1.27981e+06 max 1.27981e+06 min
Histogram: 1 0 0 0 0 0 0 0 0 0

Total # of neighbors = 1279812
Ave neighs/atom = 65.1238
Neighbor list builds = 495
Dangerous builds not checked
Setting up Verlet run ...
  Unit style    : metal
  Current step  : 88495
  Time step     : 0.001
Per MPI rank memory allocation (min/avg/max) = 18.21 | 18.21 | 18.21 Mbytes
Step Temp Press TotEng PotEng Enthalpy 
   88495    1216.1502    9.6526748   -57936.648    -61025.78   -57934.313 
   90000    1194.6695    -315.7453   -58054.315   -61088.884   -58130.583 
Loop time of 229.108 on 1 procs for 1505 steps with 19652 atoms

Performance: 0.568 ns/day, 42.286 hours/ns, 6.569 timesteps/s
100.0% CPU use with 1 MPI tasks x no OpenMP threads

MPI task timing breakdown:
Section |  min time  |  avg time  |  max time  |%varavg| %total
---------------------------------------------------------------
Pair    | 126.73     | 126.73     | 126.73     |   0.0 | 55.31
Neigh   | 97.708     | 97.708     | 97.708     |   0.0 | 42.65
Comm    | 1.7541     | 1.7541     | 1.7541     |   0.0 |  0.77
Output  | 0.052205   | 0.052205   | 0.052205   |   0.0 |  0.02
Modify  | 2.2767     | 2.2767     | 2.2767     |   0.0 |  0.99
Other   |            | 0.5887     |            |       |  0.26

Nlocal:    19652 ave 19652 max 19652 min
Histogram: 1 0 0 0 0 0 0 0 0 0
Nghost:    17120 ave 17120 max 17120 min
Histogram: 1 0 0 0 0 0 0 0 0 0
Neighs:    1.28138e+06 ave 1.28138e+06 max 1.28138e+06 min
Histogram: 1 0 0 0 0 0 0 0 0 0

Total # of neighbors = 1281384
Ave neighs/atom = 65.2037
Neighbor list builds = 1505
Dangerous builds not checked
Setting up Verlet run ...
  Unit style    : metal
  Current step  : 90000
  Time step     : 0.001
Per MPI rank memory allocation (min/avg/max) = 18.21 | 18.21 | 18.21 Mbytes
Step Temp Press TotEng PotEng Enthalpy 
   90000    1194.6695    -315.7453   -58054.315   -61088.884   -58130.583 
   90495    1166.9014   -213.48238   -58221.283   -61185.319   -58272.659 
Loop time of 76.9235 on 1 procs for 495 steps with 19652 atoms

Performance: 0.556 ns/day, 43.167 hours/ns, 6.435 timesteps/s
100.0% CPU use with 1 MPI tasks x no OpenMP threads

MPI task timing breakdown:
Section |  min time  |  avg time  |  max time  |%varavg| %total
---------------------------------------------------------------
Pair    | 42.408     | 42.408     | 42.408     |   0.0 | 55.13
Neigh   | 32.928     | 32.928     | 32.928     |   0.0 | 42.81
Comm    | 0.59804    | 0.59804    | 0.59804    |   0.0 |  0.78
Output  | 0.00016904 | 0.00016904 | 0.00016904 |   0.0 |  0.00
Modify  | 0.78686    | 0.78686    | 0.78686    |   0.0 |  1.02
Other   |            | 0.2028     |            |       |  0.26

[...]
Setting up Verlet run ...
  Unit style    : metal
  Current step  : 120000
  Time step     : 0.001
Per MPI rank memory allocation (min/avg/max) = 18.21 | 18.21 | 18.21 Mbytes
Step Temp Press TotEng PotEng Enthalpy 
  120000    450.85791   -298.53419    -63039.06    -64184.28   -63103.676 
  120495    424.48756   -169.76803   -63202.764   -64281.001   -63239.397 
Loop time of 70.8889 on 1 procs for 495 steps with 19652 atoms

Performance: 0.603 ns/day, 39.781 hours/ns, 6.983 timesteps/s
98.4% CPU use with 1 MPI tasks x no OpenMP threads

MPI task timing breakdown:
Section |  min time  |  avg time  |  max time  |%varavg| %total
---------------------------------------------------------------
Pair    | 37.884     | 37.884     | 37.884     |   0.0 | 53.44
Neigh   | 31.656     | 31.656     | 31.656     |   0.0 | 44.66
Comm    | 0.49512    | 0.49512    | 0.49512    |   0.0 |  0.70
Output  | 0.000211   | 0.000211   | 0.000211   |   0.0 |  0.00
Modify  | 0.67488    | 0.67488    | 0.67488    |   0.0 |  0.95
Other   |            | 0.1792     |            |       |  0.25

Nlocal:    19652 ave 19652 max 19652 min
Histogram: 1 0 0 0 0 0 0 0 0 0
Nghost:    17946 ave 17946 max 17946 min
Histogram: 1 0 0 0 0 0 0 0 0 0
Neighs:    1.43992e+06 ave 1.43992e+06 max 1.43992e+06 min
Histogram: 1 0 0 0 0 0 0 0 0 0

Total # of neighbors = 1439921
Ave neighs/atom = 73.271
Neighbor list builds = 495
Dangerous builds not checked
Setting up Verlet run ...
  Unit style    : metal
  Current step  : 120495
  Time step     : 0.001
Per MPI rank memory allocation (min/avg/max) = 18.21 | 18.21 | 18.21 Mbytes
Step Temp Press TotEng PotEng Enthalpy 
  120495    424.48756   -169.76803   -63202.764   -64281.001   -63239.397 
  122000    397.36071   -882.19816   -63378.675   -64388.008   -63568.486 
Loop time of 226.025 on 1 procs for 1505 steps with 19652 atoms

Performance: 0.575 ns/day, 41.717 hours/ns, 6.659 timesteps/s
97.1% CPU use with 1 MPI tasks x no OpenMP threads

MPI task timing breakdown:
Section |  min time  |  avg time  |  max time  |%varavg| %total
---------------------------------------------------------------
Pair    | 121.19     | 121.19     | 121.19     |   0.0 | 53.62
Neigh   | 100.46     | 100.46     | 100.46     |   0.0 | 44.45
Comm    | 1.5963     | 1.5963     | 1.5963     |   0.0 |  0.71
Output  | 0.050861   | 0.050861   | 0.050861   |   0.0 |  0.02
Modify  | 2.1617     | 2.1617     | 2.1617     |   0.0 |  0.96
Other   |            | 0.5727     |            |       |  0.25

Nlocal:    19652 ave 19652 max 19652 min
Histogram: 1 0 0 0 0 0 0 0 0 0
Nghost:    18039 ave 18039 max 18039 min
Histogram: 1 0 0 0 0 0 0 0 0 0
Neighs:    1.44442e+06 ave 1.44442e+06 max 1.44442e+06 min
Histogram: 1 0 0 0 0 0 0 0 0 0

Total # of neighbors = 1444420
Ave neighs/atom = 73.4999
Neighbor list builds = 1505
Dangerous builds not checked
Setting up Verlet run ...
  Unit style    : metal
  Current step  : 122000
  Time step     : 0.001
Per MPI rank memory allocation (min/avg/max) = 18.21 | 18.21 | 18.21 Mbytes
Step Temp Press TotEng PotEng Enthalpy 
  122000    397.36071   -882.19816   -63378.675   -64388.008   -63568.486 
  122495    375.60935   -832.02256   -63536.654   -64490.736    -63715.07 
Loop time of 73.0599 on 1 procs for 495 steps with 19652 atoms

Performance: 0.585 ns/day, 40.999 hours/ns, 6.775 timesteps/s
99.5% CPU use with 1 MPI tasks x no OpenMP threads

MPI task timing breakdown:
Section |  min time  |  avg time  |  max time  |%varavg| %total
---------------------------------------------------------------
Pair    | 39.059     | 39.059     | 39.059     |   0.0 | 53.46
Neigh   | 32.599     | 32.599     | 32.599     |   0.0 | 44.62
Comm    | 0.5099     | 0.5099     | 0.5099     |   0.0 |  0.70
Output  | 0.00025487 | 0.00025487 | 0.00025487 |   0.0 |  0.00
Modify  | 0.70639    | 0.70639    | 0.70639    |   0.0 |  0.97
Other   |            | 0.1851     |            |       |  0.25

Nlocal:    19652 ave 19652 max 19652 min
Histogram: 1 0 0 0 0 0 0 0 0 0
Nghost:    18093 ave 18093 max 18093 min
Histogram: 1 0 0 0 0 0 0 0 0 0
Neighs:    1.44908e+06 ave 1.44908e+06 max 1.44908e+06 min
Histogram: 1 0 0 0 0 0 0 0 0 0

Total # of neighbors = 1449085
Ave neighs/atom = 73.7373
Neighbor list builds = 495
Dangerous builds not checked
Setting up Verlet run ...
  Unit style    : metal
  Current step  : 122495
  Time step     : 0.001
Per MPI rank memory allocation (min/avg/max) = 18.21 | 18.21 | 18.21 Mbytes
Step Temp Press TotEng PotEng Enthalpy 
  122495    375.60935   -832.02256   -63536.654   -64490.736    -63715.07 
  124000    351.01547     468.1801   -63697.975   -64589.586   -63598.075 
Loop time of 219.741 on 1 procs for 1505 steps with 19652 atoms

Performance: 0.592 ns/day, 40.558 hours/ns, 6.849 timesteps/s
98.3% CPU use with 1 MPI tasks x no OpenMP threads

MPI task timing breakdown:
Section |  min time  |  avg time  |  max time  |%varavg| %total
---------------------------------------------------------------
Pair    | 118.44     | 118.44     | 118.44     |   0.0 | 53.90
Neigh   | 97.059     | 97.059     | 97.059     |   0.0 | 44.17
Comm    | 1.5433     | 1.5433     | 1.5433     |   0.0 |  0.70
Output  | 0.065918   | 0.065918   | 0.065918   |   0.0 |  0.03
Modify  | 2.0821     | 2.0821     | 2.0821     |   0.0 |  0.95
Other   |            | 0.547      |            |       |  0.25

Nlocal:    19652 ave 19652 max 19652 min
Histogram: 1 0 0 0 0 0 0 0 0 0
Nghost:    18050 ave 18050 max 18050 min
Histogram: 1 0 0 0 0 0 0 0 0 0
Neighs:    1.45576e+06 ave 1.45576e+06 max 1.45576e+06 min
Histogram: 1 0 0 0 0 0 0 0 0 0

Total # of neighbors = 1455764
Ave neighs/atom = 74.0771
Neighbor list builds = 1505
Dangerous builds not checked
Setting up Verlet run ...
  Unit style    : metal
  Current step  : 124000
  Time step     : 0.001
Per MPI rank memory allocation (min/avg/max) = 18.21 | 18.21 | 18.21 Mbytes
Step Temp Press TotEng PotEng Enthalpy 
  124000    351.01547     468.1801   -63697.975   -64589.586   -63598.075 
  124495    325.38887    62.107816   -63845.235   -64671.753   -63832.012 
Loop time of 75.4354 on 1 procs for 495 steps with 19652 atoms

Performance: 0.567 ns/day, 42.332 hours/ns, 6.562 timesteps/s
99.9% CPU use with 1 MPI tasks x no OpenMP threads

MPI task timing breakdown:
Section |  min time  |  avg time  |  max time  |%varavg| %total
---------------------------------------------------------------
Pair    | 40.605     | 40.605     | 40.605     |   0.0 | 53.83
Neigh   | 33.373     | 33.373     | 33.373     |   0.0 | 44.24
Comm    | 0.53283    | 0.53283    | 0.53283    |   0.0 |  0.71
Output  | 0.0001719  | 0.0001719  | 0.0001719  |   0.0 |  0.00
Modify  | 0.73253    | 0.73253    | 0.73253    |   0.0 |  0.97
Other   |            | 0.1918     |            |       |  0.25

Nlocal:    19652 ave 19652 max 19652 min
Histogram: 1 0 0 0 0 0 0 0 0 0
Nghost:    18090 ave 18090 max 18090 min
Histogram: 1 0 0 0 0 0 0 0 0 0
Neighs:    1.45884e+06 ave 1.45884e+06 max 1.45884e+06 min
Histogram: 1 0 0 0 0 0 0 0 0 0

Total # of neighbors = 1458843
Ave neighs/atom = 74.2338
Neighbor list builds = 495
Dangerous builds not checked
Setting up Verlet run ...
  Unit style    : metal
  Current step  : 124495
  Time step     : 0.001
Per MPI rank memory allocation (min/avg/max) = 18.21 | 18.21 | 18.21 Mbytes
Step Temp Press TotEng PotEng Enthalpy 
  124495    325.38887    62.107816   -63845.235   -64671.753   -63832.012 
  126000    300.11386    85.731018   -64002.185   -64764.501   -63983.991 
Loop time of 224.411 on 1 procs for 1505 steps with 19652 atoms

Performance: 0.579 ns/day, 41.419 hours/ns, 6.706 timesteps/s
97.2% CPU use with 1 MPI tasks x no OpenMP threads

MPI task timing breakdown:
Section |  min time  |  avg time  |  max time  |%varavg| %total
---------------------------------------------------------------
Pair    | 120.06     | 120.06     | 120.06     |   0.0 | 53.50
Neigh   | 99.724     | 99.724     | 99.724     |   0.0 | 44.44
Comm    | 1.5604     | 1.5604     | 1.5604     |   0.0 |  0.70
Output  | 0.31008    | 0.31008    | 0.31008    |   0.0 |  0.14
Modify  | 2.1889     | 2.1889     | 2.1889     |   0.0 |  0.98
Other   |            | 0.572      |            |       |  0.25

Nlocal:    19652 ave 19652 max 19652 min
Histogram: 1 0 0 0 0 0 0 0 0 0
Nghost:    18158 ave 18158 max 18158 min
Histogram: 1 0 0 0 0 0 0 0 0 0
Neighs:    1.46306e+06 ave 1.46306e+06 max 1.46306e+06 min
Histogram: 1 0 0 0 0 0 0 0 0 0

Total # of neighbors = 1463058
Ave neighs/atom = 74.4483
Neighbor list builds = 1505
Dangerous builds not checked
Setting up Verlet run ...
  Unit style    : metal
  Current step  : 126000
  Time step     : 0.001
Per MPI rank memory allocation (min/avg/max) = 18.21 | 18.21 | 18.21 Mbytes
Step Temp Press TotEng PotEng Enthalpy 
  126000    300.11386    85.731018   -64002.185   -64764.501   -63983.991 
  126495    273.82795   -54.995433   -64144.331   -64839.879   -64155.974 
Loop time of 69.9051 on 1 procs for 495 steps with 19652 atoms

Performance: 0.612 ns/day, 39.228 hours/ns, 7.081 timesteps/s
98.4% CPU use with 1 MPI tasks x no OpenMP threads

MPI task timing breakdown:
Section |  min time  |  avg time  |  max time  |%varavg| %total
---------------------------------------------------------------
Pair    | 37.173     | 37.173     | 37.173     |   0.0 | 53.18
Neigh   | 31.398     | 31.398     | 31.398     |   0.0 | 44.92
Comm    | 0.48095    | 0.48095    | 0.48095    |   0.0 |  0.69
Output  | 0.00018215 | 0.00018215 | 0.00018215 |   0.0 |  0.00
Modify  | 0.66854    | 0.66854    | 0.66854    |   0.0 |  0.96
Other   |            | 0.1845     |            |       |  0.26

Nlocal:    19652 ave 19652 max 19652 min
Histogram: 1 0 0 0 0 0 0 0 0 0
Nghost:    18165 ave 18165 max 18165 min
Histogram: 1 0 0 0 0 0 0 0 0 0
Neighs:    1.46612e+06 ave 1.46612e+06 max 1.46612e+06 min
Histogram: 1 0 0 0 0 0 0 0 0 0

Total # of neighbors = 1466119
Ave neighs/atom = 74.6041
Neighbor list builds = 495
Dangerous builds not checked
Setting up Verlet run ...
  Unit style    : metal
  Current step  : 126495
  Time step     : 0.001
Per MPI rank memory allocation (min/avg/max) = 18.21 | 18.21 | 18.21 Mbytes
Step Temp Press TotEng PotEng Enthalpy 
  126495    273.82795   -54.995433   -64144.331   -64839.879   -64155.974 
  128000    251.26693    182.23412   -64290.581   -64928.822   -64252.106 
Loop time of 221.178 on 1 procs for 1505 steps with 19652 atoms

Performance: 0.588 ns/day, 40.823 hours/ns, 6.804 timesteps/s
97.9% CPU use with 1 MPI tasks x no OpenMP threads

MPI task timing breakdown:
Section |  min time  |  avg time  |  max time  |%varavg| %total
---------------------------------------------------------------
Pair    | 118.19     | 118.19     | 118.19     |   0.0 | 53.43
Neigh   | 98.391     | 98.391     | 98.391     |   0.0 | 44.48
Comm    | 1.5371     | 1.5371     | 1.5371     |   0.0 |  0.69
Output  | 0.072118   | 0.072118   | 0.072118   |   0.0 |  0.03
Modify  | 2.4183     | 2.4183     | 2.4183     |   0.0 |  1.09
Other   |            | 0.5745     |            |       |  0.26

Nlocal:    19652 ave 19652 max 19652 min
Histogram: 1 0 0 0 0 0 0 0 0 0
Nghost:    18188 ave 18188 max 18188 min
Histogram: 1 0 0 0 0 0 0 0 0 0
Neighs:    1.47001e+06 ave 1.47001e+06 max 1.47001e+06 min
Histogram: 1 0 0 0 0 0 0 0 0 0

Total # of neighbors = 1470014
Ave neighs/atom = 74.8023
Neighbor list builds = 1505
Dangerous builds not checked
Setting up Verlet run ...
  Unit style    : metal
  Current step  : 128000
  Time step     : 0.001
Per MPI rank memory allocation (min/avg/max) = 18.21 | 18.21 | 18.21 Mbytes
Step Temp Press TotEng PotEng Enthalpy 
  128000    251.26693    182.23412   -64290.581   -64928.822   -64252.106 
  128495    225.44438   -52.458976   -64428.178   -65000.828   -64439.231 
Loop time of 74.4349 on 1 procs for 495 steps with 19652 atoms

Performance: 0.575 ns/day, 41.770 hours/ns, 6.650 timesteps/s
99.2% CPU use with 1 MPI tasks x no OpenMP threads

MPI task timing breakdown:
Section |  min time  |  avg time  |  max time  |%varavg| %total
---------------------------------------------------------------
Pair    | 39.805     | 39.805     | 39.805     |   0.0 | 53.48
Neigh   | 33.17      | 33.17      | 33.17      |   0.0 | 44.56
Comm    | 0.52214    | 0.52214    | 0.52214    |   0.0 |  0.70
Output  | 0.000175   | 0.000175   | 0.000175   |   0.0 |  0.00
Modify  | 0.74317    | 0.74317    | 0.74317    |   0.0 |  1.00
Other   |            | 0.1943     |            |       |  0.26

Nlocal:    19652 ave 19652 max 19652 min
Histogram: 1 0 0 0 0 0 0 0 0 0
Nghost:    18230 ave 18230 max 18230 min
Histogram: 1 0 0 0 0 0 0 0 0 0
Neighs:    1.47292e+06 ave 1.47292e+06 max 1.47292e+06 min
Histogram: 1 0 0 0 0 0 0 0 0 0

Total # of neighbors = 1472915
Ave neighs/atom = 74.9499
Neighbor list builds = 495
Dangerous builds not checked
Setting up Verlet run ...
  Unit style    : metal
  Current step  : 128495
  Time step     : 0.001
Per MPI rank memory allocation (min/avg/max) = 18.21 | 18.21 | 18.21 Mbytes
Step Temp Press TotEng PotEng Enthalpy 
  128495    225.44438   -52.458976   -64428.178   -65000.828   -64439.231 
  130000    199.32902    29.829088   -64580.084   -65086.398   -64573.818 
Loop time of 230.548 on 1 procs for 1505 steps with 19652 atoms

Performance: 0.564 ns/day, 42.552 hours/ns, 6.528 timesteps/s
99.2% CPU use with 1 MPI tasks x no OpenMP threads

MPI task timing breakdown:
Section |  min time  |  avg time  |  max time  |%varavg| %total
---------------------------------------------------------------
Pair    | 124.38     | 124.38     | 124.38     |   0.0 | 53.95
Neigh   | 101.66     | 101.66     | 101.66     |   0.0 | 44.09
Comm    | 1.5921     | 1.5921     | 1.5921     |   0.0 |  0.69
Output  | 0.074608   | 0.074608   | 0.074608   |   0.0 |  0.03
Modify  | 2.2507     | 2.2507     | 2.2507     |   0.0 |  0.98
Other   |            | 0.589      |            |       |  0.26

Nlocal:    19652 ave 19652 max 19652 min
Histogram: 1 0 0 0 0 0 0 0 0 0
Nghost:    18180 ave 18180 max 18180 min
Histogram: 1 0 0 0 0 0 0 0 0 0
Neighs:    1.47698e+06 ave 1.47698e+06 max 1.47698e+06 min
Histogram: 1 0 0 0 0 0 0 0 0 0

Total # of neighbors = 1476983
Ave neighs/atom = 75.1569
Neighbor list builds = 1505
Dangerous builds not checked
Setting up Verlet run ...
  Unit style    : metal
  Current step  : 130000
  Time step     : 0.001
Per MPI rank memory allocation (min/avg/max) = 18.21 | 18.21 | 18.21 Mbytes
Step Temp Press TotEng PotEng Enthalpy 
  130000    199.32902    29.829088   -64580.084   -65086.398   -64573.818 
  130495    175.76437    302.55178   -64706.149   -65152.607   -64642.741 
Loop time of 75.1009 on 1 procs for 495 steps with 19652 atoms

Performance: 0.569 ns/day, 42.144 hours/ns, 6.591 timesteps/s
98.6% CPU use with 1 MPI tasks x no OpenMP threads

MPI task timing breakdown:
Section |  min time  |  avg time  |  max time  |%varavg| %total
---------------------------------------------------------------
Pair    | 40.18      | 40.18      | 40.18      |   0.0 | 53.50
Neigh   | 33.457     | 33.457     | 33.457     |   0.0 | 44.55
Comm    | 0.52676    | 0.52676    | 0.52676    |   0.0 |  0.70
Output  | 0.00022888 | 0.00022888 | 0.00022888 |   0.0 |  0.00
Modify  | 0.7344     | 0.7344     | 0.7344     |   0.0 |  0.98
Other   |            | 0.2028     |            |       |  0.27

Nlocal:    19652 ave 19652 max 19652 min
Histogram: 1 0 0 0 0 0 0 0 0 0
Nghost:    18214 ave 18214 max 18214 min
Histogram: 1 0 0 0 0 0 0 0 0 0
Neighs:    1.47961e+06 ave 1.47961e+06 max 1.47961e+06 min
Histogram: 1 0 0 0 0 0 0 0 0 0

Total # of neighbors = 1479609
Ave neighs/atom = 75.2905
Neighbor list builds = 495
Dangerous builds not checked
Setting up Verlet run ...
  Unit style    : metal
  Current step  : 130495
  Time step     : 0.001
Per MPI rank memory allocation (min/avg/max) = 18.21 | 18.21 | 18.21 Mbytes
Step Temp Press TotEng PotEng Enthalpy 
  130495    175.76437    302.55178   -64706.149   -65152.607   -64642.741 
  132000    147.82009   -44.133282   -64856.004   -65231.481   -64865.236 
Loop time of 232.643 on 1 procs for 1505 steps with 19652 atoms

Performance: 0.559 ns/day, 42.939 hours/ns, 6.469 timesteps/s
98.9% CPU use with 1 MPI tasks x no OpenMP threads

MPI task timing breakdown:
Section |  min time  |  avg time  |  max time  |%varavg| %total
---------------------------------------------------------------
Pair    | 125.58     | 125.58     | 125.58     |   0.0 | 53.98
Neigh   | 102.45     | 102.45     | 102.45     |   0.0 | 44.04
Comm    | 1.6203     | 1.6203     | 1.6203     |   0.0 |  0.70
Output  | 0.071931   | 0.071931   | 0.071931   |   0.0 |  0.03
Modify  | 2.3086     | 2.3086     | 2.3086     |   0.0 |  0.99
Other   |            | 0.6182     |            |       |  0.27

Nlocal:    19652 ave 19652 max 19652 min
Histogram: 1 0 0 0 0 0 0 0 0 0
Nghost:    18222 ave 18222 max 18222 min
Histogram: 1 0 0 0 0 0 0 0 0 0
Neighs:    1.48198e+06 ave 1.48198e+06 max 1.48198e+06 min
Histogram: 1 0 0 0 0 0 0 0 0 0

Total # of neighbors = 1481978
Ave neighs/atom = 75.4111
Neighbor list builds = 1505
Dangerous builds not checked
Setting up Verlet run ...
  Unit style    : metal
  Current step  : 132000
  Time step     : 0.001
Per MPI rank memory allocation (min/avg/max) = 18.21 | 18.21 | 18.21 Mbytes
Step Temp Press TotEng PotEng Enthalpy 
  132000    147.82009   -44.133282   -64856.004   -65231.481   -64865.236 
  132495    126.56594   -233.20597   -64973.408   -65294.897   -65022.103 
Loop time of 74.7984 on 1 procs for 495 steps with 19652 atoms

Performance: 0.572 ns/day, 41.974 hours/ns, 6.618 timesteps/s
99.0% CPU use with 1 MPI tasks x no OpenMP threads

MPI task timing breakdown:
Section |  min time  |  avg time  |  max time  |%varavg| %total
---------------------------------------------------------------
Pair    | 40.261     | 40.261     | 40.261     |   0.0 | 53.83
Neigh   | 33.089     | 33.089     | 33.089     |   0.0 | 44.24
Comm    | 0.52015    | 0.52015    | 0.52015    |   0.0 |  0.70
Output  | 0.0001812  | 0.0001812  | 0.0001812  |   0.0 |  0.00
Modify  | 0.73292    | 0.73292    | 0.73292    |   0.0 |  0.98
Other   |            | 0.1957     |            |       |  0.26

Nlocal:    19652 ave 19652 max 19652 min
Histogram: 1 0 0 0 0 0 0 0 0 0
Nghost:    18243 ave 18243 max 18243 min
Histogram: 1 0 0 0 0 0 0 0 0 0
Neighs:    1.48464e+06 ave 1.48464e+06 max 1.48464e+06 min
Histogram: 1 0 0 0 0 0 0 0 0 0

Total # of neighbors = 1484637
Ave neighs/atom = 75.5464
Neighbor list builds = 495
Dangerous builds not checked
Setting up Verlet run ...
  Unit style    : metal
  Current step  : 132495
  Time step     : 0.001
Per MPI rank memory allocation (min/avg/max) = 18.21 | 18.21 | 18.21 Mbytes
Step Temp Press TotEng PotEng Enthalpy 
  132495    126.56594   -233.20597   -64973.408   -65294.897   -65022.103 
  134000    98.461003   -233.19716   -65125.761   -65375.861   -65174.334 
Loop time of 223.842 on 1 procs for 1505 steps with 19652 atoms

Performance: 0.581 ns/day, 41.315 hours/ns, 6.723 timesteps/s
99.5% CPU use with 1 MPI tasks x no OpenMP threads

MPI task timing breakdown:
Section |  min time  |  avg time  |  max time  |%varavg| %total
---------------------------------------------------------------
Pair    | 119.98     | 119.98     | 119.98     |   0.0 | 53.60
Neigh   | 99.423     | 99.423     | 99.423     |   0.0 | 44.42
Comm    | 1.5566     | 1.5566     | 1.5566     |   0.0 |  0.70
Output  | 0.070762   | 0.070762   | 0.070762   |   0.0 |  0.03
Modify  | 2.2166     | 2.2166     | 2.2166     |   0.0 |  0.99
Other   |            | 0.5922     |            |       |  0.26

Nlocal:    19652 ave 19652 max 19652 min
Histogram: 1 0 0 0 0 0 0 0 0 0
Nghost:    18275 ave 18275 max 18275 min
Histogram: 1 0 0 0 0 0 0 0 0 0
Neighs:    1.4876e+06 ave 1.4876e+06 max 1.4876e+06 min
Histogram: 1 0 0 0 0 0 0 0 0 0

Total # of neighbors = 1487597
Ave neighs/atom = 75.697
Neighbor list builds = 1505
Dangerous builds not checked
Total wall time: 5:32:46
