LAMMPS (12 Dec 2018)
Lattice spacing in x,y,z = 4 4 4
Created orthogonal box = (0 0 0) to (68 68 68)
  1 by 1 by 2 MPI processor grid
Created 19652 atoms
  Time spent = 0.00174308 secs
Setting atom values ...
  0 settings made for type/fraction
Neighbor list info ...
  update every 1 steps, delay 0 steps, check no
  max neighbors/atom: 2000, page size: 100000
  master list distance cutoff = 8.5
  ghost atom cutoff = 8.5
  binsize = 4.25, bins = 16 16 16
  1 neighbor lists, perpetual/occasional/extra = 1 0 0
  (1) pair eam/alloy, perpetual
      attributes: half, newton on
      pair build: half/bin/atomonly/newton
      stencil: half/bin/3d/newton
      bin: standard
Setting up Verlet run ...
  Unit style    : metal
  Current step  : 0
  Time step     : 0.001
Per MPI rank memory allocation (min/avg/max) = 11.15 | 11.15 | 11.15 Mbytes
Step Temp Press TotEng PotEng Enthalpy 
       0          300    653029.23   -102545.04   -103307.07    25613.929 
    1000    158.40325     608431.7   -102544.96   -102947.32    16861.609 
Loop time of 86.9342 on 2 procs for 1000 steps with 19652 atoms

Performance: 0.994 ns/day, 24.148 hours/ns, 11.503 timesteps/s
99.4% CPU use with 2 MPI tasks x no OpenMP threads

MPI task timing breakdown:
Section |  min time  |  avg time  |  max time  |%varavg| %total
---------------------------------------------------------------
Pair    | 49         | 49.105     | 49.209     |   1.5 | 56.49
Neigh   | 32.391     | 33.175     | 33.958     |  13.6 | 38.16
Comm    | 3.5215     | 4.2124     | 4.9034     |  33.7 |  4.85
Output  | 0.00018287 | 0.00019348 | 0.00020409 |   0.0 |  0.00
Modify  | 0.21616    | 0.22204    | 0.22793    |   1.2 |  0.26
Other   |            | 0.2201     |            |       |  0.25

Nlocal:    9826 ave 9888 max 9764 min
Histogram: 1 0 0 0 0 0 0 0 0 1
Nghost:    14174.5 ave 14233 max 14116 min
Histogram: 1 0 0 0 0 0 0 0 0 1
Neighs:    779516 ave 785707 max 773326 min
Histogram: 1 0 0 0 0 0 0 0 0 1

Total # of neighbors = 1559033
Ave neighs/atom = 79.332
Neighbor list builds = 1000
Dangerous builds not checked
Setting up Verlet run ...
  Unit style    : metal
  Current step  : 1000
  Time step     : 0.001
Per MPI rank memory allocation (min/avg/max) = 11.15 | 11.15 | 11.15 Mbytes
Step Temp Press TotEng PotEng Enthalpy 
    1000    158.40325     608431.7   -102544.96   -102947.32    16861.609 
    2000    299.87466   -2.0058056   -122519.11   -123280.82   -122519.68 
Loop time of 72.2178 on 2 procs for 1000 steps with 19652 atoms

Performance: 1.196 ns/day, 20.060 hours/ns, 13.847 timesteps/s
98.8% CPU use with 2 MPI tasks x no OpenMP threads

MPI task timing breakdown:
Section |  min time  |  avg time  |  max time  |%varavg| %total
---------------------------------------------------------------
Pair    | 38.786     | 38.86      | 38.935     |   1.2 | 53.81
Neigh   | 28.781     | 28.868     | 28.954     |   1.6 | 39.97
Comm    | 3.326      | 3.4887     | 3.6515     |   8.7 |  4.83
Output  | 8.7023e-05 | 0.00012445 | 0.00016189 |   0.0 |  0.00
Modify  | 0.79054    | 0.79147    | 0.7924     |   0.1 |  1.10
Other   |            | 0.2097     |            |       |  0.29

Nlocal:    9826 ave 9873 max 9779 min
Histogram: 1 0 0 0 0 0 0 0 0 1
Nghost:    10346 ave 10393 max 10299 min
Histogram: 1 0 0 0 0 0 0 0 0 1
Neighs:    541600 ave 545810 max 537390 min
Histogram: 1 0 0 0 0 0 0 0 0 1

Total # of neighbors = 1083200
Ave neighs/atom = 55.1191
Neighbor list builds = 1000
Dangerous builds not checked
Setting up Verlet run ...
  Unit style    : metal
  Current step  : 2000
  Time step     : 0.001
Per MPI rank memory allocation (min/avg/max) = 11.15 | 11.15 | 11.15 Mbytes
Step Temp Press TotEng PotEng Enthalpy 
    2000    299.87466   -2.0058056   -122519.11   -123280.82   -122519.68 
   10000    2454.5151    1145.7178   -106978.47   -113213.16   -106628.61 
Loop time of 550.898 on 2 procs for 8000 steps with 19652 atoms

Performance: 1.255 ns/day, 19.128 hours/ns, 14.522 timesteps/s
97.7% CPU use with 2 MPI tasks x no OpenMP threads

MPI task timing breakdown:
Section |  min time  |  avg time  |  max time  |%varavg| %total
---------------------------------------------------------------
Pair    | 292.41     | 292.79     | 293.17     |   2.2 | 53.15
Neigh   | 215.85     | 217.42     | 218.99     |  10.6 | 39.47
Comm    | 28.731     | 30.792     | 32.853     |  37.1 |  5.59
Output  | 0.33281    | 0.33284    | 0.33287    |   0.0 |  0.06
Modify  | 7.7745     | 7.8788     | 7.9831     |   3.7 |  1.43
Other   |            | 1.684      |            |       |  0.31

Nlocal:    9826 ave 9857 max 9795 min
Histogram: 1 0 0 0 0 0 0 0 0 1
Nghost:    10976 ave 11007 max 10945 min
Histogram: 1 0 0 0 0 0 0 0 0 1
Neighs:    502152 ave 505454 max 498850 min
Histogram: 1 0 0 0 0 0 0 0 0 1

Total # of neighbors = 1004304
Ave neighs/atom = 51.1044
Neighbor list builds = 8000
Dangerous builds not checked
Setting up Verlet run ...
  Unit style    : metal
  Current step  : 10000
  Time step     : 0.001
Per MPI rank memory allocation (min/avg/max) = 11.17 | 11.17 | 11.17 Mbytes
Step Temp Press TotEng PotEng Enthalpy 
   10000    2454.5151    1145.7178   -106978.47   -113213.16   -106628.61 
   20000    2445.5563   -52.657895   -106822.97    -113034.9   -106839.09 
   30000    2435.4773   -17.022409   -106905.58   -113091.92   -106910.79 
   40000    2465.3521   -939.12039   -106805.18    -113067.4   -107093.01 
Loop time of 2151.66 on 2 procs for 30000 steps with 19652 atoms

Performance: 1.205 ns/day, 19.923 hours/ns, 13.943 timesteps/s
98.3% CPU use with 2 MPI tasks x no OpenMP threads

MPI task timing breakdown:
Section |  min time  |  avg time  |  max time  |%varavg| %total
---------------------------------------------------------------
Pair    | 1130.6     | 1132.3     | 1134.1     |   5.2 | 52.63
Neigh   | 878.07     | 881.35     | 884.62     |  11.0 | 40.96
Comm    | 104.49     | 106.06     | 107.62     |  15.2 |  4.93
Output  | 0.11516    | 0.11536    | 0.11556    |   0.1 |  0.01
Modify  | 25.405     | 25.425     | 25.444     |   0.4 |  1.18
Other   |            | 6.381      |            |       |  0.30

Nlocal:    9826 ave 9832 max 9820 min
Histogram: 1 0 0 0 0 0 0 0 0 1
Nghost:    10959.5 ave 10964 max 10955 min
Histogram: 1 0 0 0 0 0 0 0 0 1
Neighs:    500016 ave 500744 max 499288 min
Histogram: 1 0 0 0 0 0 0 0 0 1

Total # of neighbors = 1000032
Ave neighs/atom = 50.887
Neighbor list builds = 30000
Dangerous builds not checked
Setting up Verlet run ...
  Unit style    : metal
  Current step  : 40000
  Time step     : 0.001
Per MPI rank memory allocation (min/avg/max) = 11.22 | 11.22 | 11.22 Mbytes
Step Temp Press TotEng PotEng Enthalpy 
   40000    2465.3521   -939.12039   -106805.18    -113067.4   -107093.01 
   40495    2391.5897   -904.32413   -107103.18   -113178.03   -107379.92 
Loop time of 35.2901 on 2 procs for 495 steps with 19652 atoms

Performance: 1.212 ns/day, 19.804 hours/ns, 14.027 timesteps/s
98.8% CPU use with 2 MPI tasks x no OpenMP threads

MPI task timing breakdown:
Section |  min time  |  avg time  |  max time  |%varavg| %total
---------------------------------------------------------------
Pair    | 18.198     | 18.302     | 18.406     |   2.4 | 51.86
Neigh   | 14.284     | 14.603     | 14.921     |   8.3 | 41.38
Comm    | 1.1975     | 1.4211     | 1.6447     |  18.8 |  4.03
Output  | 0.00011992 | 0.00014842 | 0.00017691 |   0.0 |  0.00
Modify  | 0.8477     | 0.85455    | 0.8614     |   0.7 |  2.42
Other   |            | 0.1097     |            |       |  0.31

Nlocal:    9826 ave 9843 max 9809 min
Histogram: 1 0 0 0 0 0 0 0 0 1
Nghost:    10954.5 ave 10982 max 10927 min
Histogram: 1 0 0 0 0 0 0 0 0 1
Neighs:    500870 ave 501682 max 500057 min
Histogram: 1 0 0 0 0 0 0 0 0 1

Total # of neighbors = 1001739
Ave neighs/atom = 50.9739
Neighbor list builds = 495
Dangerous builds not checked
Setting up Verlet run ...
  Unit style    : metal
  Current step  : 40495
  Time step     : 0.001
Per MPI rank memory allocation (min/avg/max) = 11.22 | 11.22 | 11.22 Mbytes
Step Temp Press TotEng PotEng Enthalpy 
   40495    2391.5897   -904.32413   -107103.18   -113178.03   -107379.92 
   50000    2421.0651    215.81658   -107083.86   -113233.59   -107017.93 
Loop time of 697.183 on 2 procs for 9505 steps with 19652 atoms

Performance: 1.178 ns/day, 20.375 hours/ns, 13.633 timesteps/s
98.4% CPU use with 2 MPI tasks x no OpenMP threads

MPI task timing breakdown:
Section |  min time  |  avg time  |  max time  |%varavg| %total
---------------------------------------------------------------
Pair    | 364.62     | 365.15     | 365.68     |   2.8 | 52.37
Neigh   | 282.27     | 283.18     | 284.09     |   5.4 | 40.62
Comm    | 34.471     | 34.867     | 35.263     |   6.7 |  5.00
Output  | 0.037737   | 0.03776    | 0.037782   |   0.0 |  0.01
Modify  | 11.86      | 11.874     | 11.889     |   0.4 |  1.70
Other   |            | 2.076      |            |       |  0.30

Nlocal:    9826 ave 9840 max 9812 min
Histogram: 1 0 0 0 0 0 0 0 0 1
Nghost:    10961 ave 10968 max 10954 min
Histogram: 1 0 0 0 0 0 0 0 0 1
Neighs:    501646 ave 502570 max 500723 min
Histogram: 1 0 0 0 0 0 0 0 0 1

Total # of neighbors = 1003293
Ave neighs/atom = 51.053
Neighbor list builds = 9505
Dangerous builds not checked
Setting up Verlet run ...
  Unit style    : metal
  Current step  : 50000
  Time step     : 0.001
Per MPI rank memory allocation (min/avg/max) = 11.23 | 11.23 | 11.23 Mbytes
Step Temp Press TotEng PotEng Enthalpy 
   50000    2421.0651    215.81658   -107083.86   -113233.59   -107017.93 
   50495    2363.1454    593.19667    -107372.4      -113375   -107191.53 
Loop time of 34.4559 on 2 procs for 495 steps with 19652 atoms

Performance: 1.241 ns/day, 19.336 hours/ns, 14.366 timesteps/s
99.7% CPU use with 2 MPI tasks x no OpenMP threads

MPI task timing breakdown:
Section |  min time  |  avg time  |  max time  |%varavg| %total
---------------------------------------------------------------
Pair    | 18.188     | 18.246     | 18.304     |   1.4 | 52.95
Neigh   | 14.146     | 14.394     | 14.642     |   6.5 | 41.78
Comm    | 1.1124     | 1.3087     | 1.505      |  17.2 |  3.80
Output  | 8.297e-05  | 0.00019395 | 0.00030494 |   0.0 |  0.00
Modify  | 0.3957     | 0.40085    | 0.406      |   0.8 |  1.16
Other   |            | 0.1062     |            |       |  0.31

Nlocal:    9826 ave 9849 max 9803 min
Histogram: 1 0 0 0 0 0 0 0 0 1
Nghost:    10980.5 ave 11018 max 10943 min
Histogram: 1 0 0 0 0 0 0 0 0 1
Neighs:    503012 ave 504907 max 501116 min
Histogram: 1 0 0 0 0 0 0 0 0 1

Total # of neighbors = 1006023
Ave neighs/atom = 51.1919
Neighbor list builds = 495
Dangerous builds not checked
Setting up Verlet run ...
  Unit style    : metal
  Current step  : 50495
  Time step     : 0.001
Per MPI rank memory allocation (min/avg/max) = 11.23 | 11.23 | 11.23 Mbytes
Step Temp Press TotEng PotEng Enthalpy 
   50495    2363.1454    593.19667    -107372.4      -113375   -107191.53 
   60000    2349.7284    690.62993   -107437.46   -113405.98   -107227.05 
Loop time of 685.673 on 2 procs for 9505 steps with 19652 atoms

Performance: 1.198 ns/day, 20.038 hours/ns, 13.862 timesteps/s
99.3% CPU use with 2 MPI tasks x no OpenMP threads

MPI task timing breakdown:
Section |  min time  |  avg time  |  max time  |%varavg| %total
---------------------------------------------------------------
Pair    | 363.9      | 364.19     | 364.48     |   1.5 | 53.11
Neigh   | 280.16     | 282.25     | 284.35     |  12.5 | 41.16
Comm    | 27.55      | 29.417     | 31.284     |  34.4 |  4.29
Output  | 0.0359     | 0.035929   | 0.035957   |   0.0 |  0.01
Modify  | 7.6603     | 7.7078     | 7.7554     |   1.7 |  1.12
Other   |            | 2.066      |            |       |  0.30

Nlocal:    9826 ave 9847 max 9805 min
Histogram: 1 0 0 0 0 0 0 0 0 1
Nghost:    10990.5 ave 10994 max 10987 min
Histogram: 1 0 0 0 0 0 0 0 0 1
Neighs:    503167 ave 504633 max 501701 min
Histogram: 1 0 0 0 0 0 0 0 0 1

Total # of neighbors = 1006334
Ave neighs/atom = 51.2077
Neighbor list builds = 9505
Dangerous builds not checked
Setting up Verlet run ...
  Unit style    : metal
  Current step  : 60000
  Time step     : 0.001
Per MPI rank memory allocation (min/avg/max) = 11.24 | 11.24 | 11.24 Mbytes
Step Temp Press TotEng PotEng Enthalpy 
   60000    2349.7284    690.62993   -107437.46   -113405.98   -107227.05 
   60495    2319.2259    827.97894   -107674.71   -113565.75   -107423.09 
Loop time of 33.913 on 2 procs for 495 steps with 19652 atoms

Performance: 1.261 ns/day, 19.031 hours/ns, 14.596 timesteps/s
99.9% CPU use with 2 MPI tasks x no OpenMP threads

MPI task timing breakdown:
Section |  min time  |  avg time  |  max time  |%varavg| %total
---------------------------------------------------------------
Pair    | 17.882     | 17.919     | 17.957     |   0.9 | 52.84
Neigh   | 13.949     | 14.088     | 14.226     |   3.7 | 41.54
Comm    | 1.2983     | 1.4051     | 1.5118     |   9.0 |  4.14
Output  | 8.6069e-05 | 0.00010657 | 0.00012708 |   0.0 |  0.00
Modify  | 0.39185    | 0.39551    | 0.39918    |   0.6 |  1.17
Other   |            | 0.1052     |            |       |  0.31

Nlocal:    9826 ave 9846 max 9806 min
Histogram: 1 0 0 0 0 0 0 0 0 1
Nghost:    10973.5 ave 10974 max 10973 min
Histogram: 1 0 0 0 0 0 0 0 0 1
Neighs:    504457 ave 506221 max 502693 min
Histogram: 1 0 0 0 0 0 0 0 0 1

Total # of neighbors = 1008914
Ave neighs/atom = 51.339
Neighbor list builds = 495
Dangerous builds not checked
Setting up Verlet run ...
  Unit style    : metal
  Current step  : 60495
  Time step     : 0.001
Per MPI rank memory allocation (min/avg/max) = 11.24 | 11.24 | 11.24 Mbytes
Step Temp Press TotEng PotEng Enthalpy 
   60495    2319.2259    827.97894   -107674.71   -113565.75   -107423.09 
   70000    2298.7577    -1213.764   -107849.57   -113688.62   -108219.29 
Loop time of 686.63 on 2 procs for 9505 steps with 19652 atoms

Performance: 1.196 ns/day, 20.066 hours/ns, 13.843 timesteps/s
98.5% CPU use with 2 MPI tasks x no OpenMP threads

MPI task timing breakdown:
Section |  min time  |  avg time  |  max time  |%varavg| %total
---------------------------------------------------------------
Pair    | 362.62     | 363.2      | 363.79     |   3.1 | 52.90
Neigh   | 277.82     | 278.15     | 278.47     |   2.0 | 40.51
Comm    | 35.142     | 35.394     | 35.647     |   4.2 |  5.15
Output  | 0.037259   | 0.037277   | 0.037295   |   0.0 |  0.01
Modify  | 7.8361     | 7.8377     | 7.8393     |   0.1 |  1.14
Other   |            | 2.013      |            |       |  0.29

Nlocal:    9826 ave 9837 max 9815 min
Histogram: 1 0 0 0 0 0 0 0 0 1
Nghost:    10956.5 ave 10966 max 10947 min
Histogram: 1 0 0 0 0 0 0 0 0 1
Neighs:    503446 ave 504014 max 502878 min
Histogram: 1 0 0 0 0 0 0 0 0 1

Total # of neighbors = 1006892
Ave neighs/atom = 51.2361
Neighbor list builds = 9505
Dangerous builds not checked
Setting up Verlet run ...
  Unit style    : metal
  Current step  : 70000
  Time step     : 0.001
Per MPI rank memory allocation (min/avg/max) = 11.24 | 11.24 | 11.24 Mbytes
Step Temp Press TotEng PotEng Enthalpy 
   70000    2298.7577    -1213.764   -107849.57   -113688.62   -108219.29 
   70495    2245.0012   -543.88935   -108031.92   -113734.43   -108197.35 
Loop time of 35.4719 on 2 procs for 495 steps with 19652 atoms

Performance: 1.206 ns/day, 19.906 hours/ns, 13.955 timesteps/s
98.8% CPU use with 2 MPI tasks x no OpenMP threads

MPI task timing breakdown:
Section |  min time  |  avg time  |  max time  |%varavg| %total
---------------------------------------------------------------
Pair    | 18.781     | 18.839     | 18.897     |   1.3 | 53.11
Neigh   | 14.646     | 14.852     | 15.059     |   5.4 | 41.87
Comm    | 1.0963     | 1.2509     | 1.4056     |  13.8 |  3.53
Output  | 0.00013709 | 0.00020361 | 0.00027013 |   0.0 |  0.00
Modify  | 0.41176    | 0.41578    | 0.41979    |   0.6 |  1.17
Other   |            | 0.1138     |            |       |  0.32

Nlocal:    9826 ave 9850 max 9802 min
Histogram: 1 0 0 0 0 0 0 0 0 1
Nghost:    10974.5 ave 10990 max 10959 min
Histogram: 1 0 0 0 0 0 0 0 0 1
Neighs:    504343 ave 506047 max 502639 min
Histogram: 1 0 0 0 0 0 0 0 0 1

Total # of neighbors = 1008686
Ave neighs/atom = 51.3274
Neighbor list builds = 495
Dangerous builds not checked
Setting up Verlet run ...
  Unit style    : metal
  Current step  : 70495
  Time step     : 0.001
Per MPI rank memory allocation (min/avg/max) = 11.24 | 11.24 | 11.24 Mbytes
Step Temp Press TotEng PotEng Enthalpy 
   70495    2245.0012   -543.88935   -108031.92   -113734.43   -108197.35 
   80000    2239.5581     785.2863   -108140.56   -113829.24   -107902.43 
Loop time of 674.209 on 2 procs for 9505 steps with 19652 atoms

Performance: 1.218 ns/day, 19.703 hours/ns, 14.098 timesteps/s
98.0% CPU use with 2 MPI tasks x no OpenMP threads

MPI task timing breakdown:
Section |  min time  |  avg time  |  max time  |%varavg| %total
---------------------------------------------------------------
Pair    | 352.94     | 353.05     | 353.16     |   0.6 | 52.37
Neigh   | 274.11     | 274.43     | 274.75     |   1.9 | 40.70
Comm    | 35.005     | 35.451     | 35.896     |   7.5 |  5.26
Output  | 0.892      | 0.912      | 0.93199    |   2.1 |  0.14
Modify  | 8.3761     | 8.3823     | 8.3884     |   0.2 |  1.24
Other   |            | 1.988      |            |       |  0.29

Nlocal:    9826 ave 9826 max 9826 min
Histogram: 2 0 0 0 0 0 0 0 0 0
Nghost:    11025.5 ave 11056 max 10995 min
Histogram: 1 0 0 0 0 0 0 0 0 1
Neighs:    505878 ave 506496 max 505261 min
Histogram: 1 0 0 0 0 0 0 0 0 1

Total # of neighbors = 1011757
Ave neighs/atom = 51.4837
Neighbor list builds = 9505
Dangerous builds not checked
Setting up Verlet run ...
  Unit style    : metal
  Current step  : 80000
  Time step     : 0.001
Per MPI rank memory allocation (min/avg/max) = 11.25 | 11.25 | 11.25 Mbytes
Step Temp Press TotEng PotEng Enthalpy 
   80000    2239.5581     785.2863   -108140.56   -113829.24   -107902.43 
   80495    2221.8734    1238.0003   -108335.15   -113978.91   -107960.38 
Loop time of 35.0035 on 2 procs for 495 steps with 19652 atoms

Performance: 1.222 ns/day, 19.643 hours/ns, 14.141 timesteps/s
97.0% CPU use with 2 MPI tasks x no OpenMP threads

MPI task timing breakdown:
Section |  min time  |  avg time  |  max time  |%varavg| %total
---------------------------------------------------------------
Pair    | 18.284     | 18.374     | 18.463     |   2.1 | 52.49
Neigh   | 13.932     | 13.934     | 13.937     |   0.1 | 39.81
Comm    | 2.1131     | 2.2021     | 2.2911     |   6.0 |  6.29
Output  | 8.297e-05  | 0.00011647 | 0.00014997 |   0.0 |  0.00
Modify  | 0.3896     | 0.39014    | 0.39068    |   0.1 |  1.11
Other   |            | 0.1031     |            |       |  0.29

Nlocal:    9826 ave 9827 max 9825 min
Histogram: 1 0 0 0 0 0 0 0 0 1
Nghost:    10992.5 ave 11007 max 10978 min
Histogram: 1 0 0 0 0 0 0 0 0 1
Neighs:    506610 ave 506635 max 506585 min
Histogram: 1 0 0 0 0 0 0 0 0 1

Total # of neighbors = 1013220
Ave neighs/atom = 51.5581
Neighbor list builds = 495
Dangerous builds not checked
Setting up Verlet run ...
  Unit style    : metal
  Current step  : 80495
  Time step     : 0.001
Per MPI rank memory allocation (min/avg/max) = 11.25 | 11.25 | 11.25 Mbytes
Step Temp Press TotEng PotEng Enthalpy 
   80495    2221.8734    1238.0003   -108335.15   -113978.91   -107960.38 
   90000    2210.5386    1261.5267    -108295.4   -113910.37   -107913.59 
Loop time of 667.275 on 2 procs for 9505 steps with 19652 atoms

Performance: 1.231 ns/day, 19.501 hours/ns, 14.245 timesteps/s
99.1% CPU use with 2 MPI tasks x no OpenMP threads

MPI task timing breakdown:
Section |  min time  |  avg time  |  max time  |%varavg| %total
---------------------------------------------------------------
Pair    | 351.79     | 352.24     | 352.7      |   2.4 | 52.79
Neigh   | 277.37     | 277.37     | 277.37     |   0.0 | 41.57
Comm    | 27.375     | 27.791     | 28.207     |   7.9 |  4.16
Output  | 0.036341   | 0.036362   | 0.036383   |   0.0 |  0.01
Modify  | 7.7992     | 7.8342     | 7.8692     |   1.2 |  1.17
Other   |            | 1.995      |            |       |  0.30

Nlocal:    9826 ave 9830 max 9822 min
Histogram: 1 0 0 0 0 0 0 0 0 1
Nghost:    11013.5 ave 11035 max 10992 min
Histogram: 1 0 0 0 0 0 0 0 0 1
Neighs:    506861 ave 507441 max 506281 min
Histogram: 1 0 0 0 0 0 0 0 0 1

Total # of neighbors = 1013722
Ave neighs/atom = 51.5837
Neighbor list builds = 9505
Dangerous builds not checked
Setting up Verlet run ...
  Unit style    : metal
  Current step  : 90000
  Time step     : 0.001
Per MPI rank memory allocation (min/avg/max) = 11.26 | 11.26 | 11.26 Mbytes
Step Temp Press TotEng PotEng Enthalpy 
   90000    2210.5386    1261.5267    -108295.4   -113910.37   -107913.59 
   90495    2171.7895    2011.3383   -108625.49   -114142.03   -108018.28 
Loop time of 32.0259 on 2 procs for 495 steps with 19652 atoms

Performance: 1.335 ns/day, 17.972 hours/ns, 15.456 timesteps/s
99.9% CPU use with 2 MPI tasks x no OpenMP threads

MPI task timing breakdown:
Section |  min time  |  avg time  |  max time  |%varavg| %total
---------------------------------------------------------------
Pair    | 16.714     | 16.732     | 16.751     |   0.5 | 52.25
Neigh   | 13.365     | 13.44      | 13.515     |   2.0 | 41.97
Comm    | 1.2905     | 1.3869     | 1.4832     |   8.2 |  4.33
Output  | 9.7036e-05 | 0.00015199 | 0.00020695 |   0.0 |  0.00
Modify  | 0.36768    | 0.3695     | 0.37132    |   0.3 |  1.15
Other   |            | 0.09721    |            |       |  0.30

Nlocal:    9826 ave 9831 max 9821 min
Histogram: 1 0 0 0 0 0 0 0 0 1
Nghost:    11033 ave 11043 max 11023 min
Histogram: 1 0 0 0 0 0 0 0 0 1
Neighs:    508106 ave 508681 max 507531 min
Histogram: 1 0 0 0 0 0 0 0 0 1

Total # of neighbors = 1016212
Ave neighs/atom = 51.7104
Neighbor list builds = 495
Dangerous builds not checked
Setting up Verlet run ...
  Unit style    : metal
  Current step  : 90495
  Time step     : 0.001
Per MPI rank memory allocation (min/avg/max) = 11.26 | 11.26 | 11.26 Mbytes
Step Temp Press TotEng PotEng Enthalpy 
   90495    2171.7895    2011.3383   -108625.49   -114142.03   -108018.28 
  100000     2162.307     765.4871   -108686.24   -114178.69    -108454.9 
Loop time of 677.464 on 2 procs for 9505 steps with 19652 atoms

Performance: 1.212 ns/day, 19.798 hours/ns, 14.030 timesteps/s
98.7% CPU use with 2 MPI tasks x no OpenMP threads

MPI task timing breakdown:
Section |  min time  |  avg time  |  max time  |%varavg| %total
---------------------------------------------------------------
Pair    | 354.91     | 355.45     | 356        |   2.9 | 52.47
Neigh   | 274.51     | 278.58     | 282.66     |  24.4 | 41.12
Comm    | 28.181     | 32.907     | 37.633     |  82.4 |  4.86
Output  | 0.036959   | 0.036986   | 0.037014   |   0.0 |  0.01
Modify  | 8.4055     | 8.48       | 8.5546     |   2.6 |  1.25
Other   |            | 2.001      |            |       |  0.30

Nlocal:    9826 ave 9843 max 9809 min
Histogram: 1 0 0 0 0 0 0 0 0 1
Nghost:    10996.5 ave 11020 max 10973 min
Histogram: 1 0 0 0 0 0 0 0 0 1
Neighs:    507524 ave 509424 max 505623 min
Histogram: 1 0 0 0 0 0 0 0 0 1

Total # of neighbors = 1015047
Ave neighs/atom = 51.6511
Neighbor list builds = 9505
Dangerous builds not checked
Setting up Verlet run ...
  Unit style    : metal
  Current step  : 100000
  Time step     : 0.001
Per MPI rank memory allocation (min/avg/max) = 11.26 | 11.26 | 11.26 Mbytes
Step Temp Press TotEng PotEng Enthalpy 
  100000     2162.307     765.4871   -108686.24   -114178.69    -108454.9 
  100495     2114.981    976.47537   -108916.21   -114288.45    -108621.4 
Loop time of 33.1962 on 2 procs for 495 steps with 19652 atoms

Performance: 1.288 ns/day, 18.629 hours/ns, 14.911 timesteps/s
98.9% CPU use with 2 MPI tasks x no OpenMP threads

MPI task timing breakdown:
Section |  min time  |  avg time  |  max time  |%varavg| %total
---------------------------------------------------------------
Pair    | 17.336     | 17.436     | 17.535     |   2.4 | 52.52
Neigh   | 13.284     | 13.564     | 13.845     |   7.6 | 40.86
Comm    | 1.3255     | 1.7097     | 2.0938     |  29.4 |  5.15
Output  | 0.00012708 | 0.00013351 | 0.00013995 |   0.0 |  0.00
Modify  | 0.38763    | 0.38864    | 0.38965    |   0.2 |  1.17
Other   |            | 0.09797    |            |       |  0.30

Nlocal:    9826 ave 9835 max 9817 min
Histogram: 1 0 0 0 0 0 0 0 0 1
Nghost:    11054 ave 11067 max 11041 min
Histogram: 1 0 0 0 0 0 0 0 0 1
Neighs:    508539 ave 509434 max 507644 min
Histogram: 1 0 0 0 0 0 0 0 0 1

Total # of neighbors = 1017078
Ave neighs/atom = 51.7544
Neighbor list builds = 495
Dangerous builds not checked
Setting up Verlet run ...
  Unit style    : metal
  Current step  : 100495
  Time step     : 0.001
Per MPI rank memory allocation (min/avg/max) = 11.26 | 11.26 | 11.26 Mbytes
Step Temp Press TotEng PotEng Enthalpy 
  100495     2114.981    976.47537   -108916.21   -114288.45    -108621.4 
  110000    2097.4382   -358.45001   -109006.04   -114333.73    -109114.4 
Loop time of 632.908 on 2 procs for 9505 steps with 19652 atoms

Performance: 1.298 ns/day, 18.496 hours/ns, 15.018 timesteps/s
97.6% CPU use with 2 MPI tasks x no OpenMP threads

MPI task timing breakdown:
Section |  min time  |  avg time  |  max time  |%varavg| %total
---------------------------------------------------------------
Pair    | 328.29     | 330.29     | 332.3      |  11.0 | 52.19
Neigh   | 254.09     | 257.73     | 261.37     |  22.7 | 40.72
Comm    | 33.358     | 35.074     | 36.789     |  29.0 |  5.54
Output  | 0.023921   | 0.023937   | 0.023954   |   0.0 |  0.00
Modify  | 7.9178     | 7.975      | 8.0322     |   2.0 |  1.26
Other   |            | 1.81       |            |       |  0.29

Nlocal:    9826 ave 9830 max 9822 min
Histogram: 1 0 0 0 0 0 0 0 0 1
Nghost:    11003.5 ave 11005 max 11002 min
Histogram: 1 0 0 0 0 0 0 0 0 1
Neighs:    507301 ave 507397 max 507205 min
Histogram: 1 0 0 0 0 0 0 0 0 1

Total # of neighbors = 1014602
Ave neighs/atom = 51.6284
Neighbor list builds = 9505
Dangerous builds not checked
Setting up Verlet run ...
  Unit style    : metal
  Current step  : 110000
  Time step     : 0.001
Per MPI rank memory allocation (min/avg/max) = 11.26 | 11.26 | 11.26 Mbytes
Step Temp Press TotEng PotEng Enthalpy 
  110000    2097.4382   -358.45001   -109006.04   -114333.73    -109114.4 
  110495    2075.1733   -313.77375   -109189.53   -114460.66   -109284.27 
Loop time of 29.2252 on 2 procs for 495 steps with 19652 atoms

Performance: 1.463 ns/day, 16.400 hours/ns, 16.937 timesteps/s
99.4% CPU use with 2 MPI tasks x no OpenMP threads

MPI task timing breakdown:
Section |  min time  |  avg time  |  max time  |%varavg| %total
---------------------------------------------------------------
Pair    | 15.019     | 15.164     | 15.309     |   3.7 | 51.89
Neigh   | 11.506     | 12.242     | 12.979     |  21.1 | 41.89
Comm    | 0.78143    | 1.394      | 2.0067     |  51.9 |  4.77
Output  | 8.1062e-05 | 0.00010705 | 0.00013304 |   0.0 |  0.00
Modify  | 0.32404    | 0.33898    | 0.35392    |   2.6 |  1.16
Other   |            | 0.08573    |            |       |  0.29

Nlocal:    9826 ave 9862 max 9790 min
Histogram: 1 0 0 0 0 0 0 0 0 1
Nghost:    11012.5 ave 11014 max 11011 min
Histogram: 1 0 0 0 0 0 0 0 0 1
Neighs:    508004 ave 510855 max 505152 min
Histogram: 1 0 0 0 0 0 0 0 0 1

Total # of neighbors = 1016007
Ave neighs/atom = 51.6999
Neighbor list builds = 495
Dangerous builds not checked
Setting up Verlet run ...
  Unit style    : metal
  Current step  : 110495
  Time step     : 0.001
Per MPI rank memory allocation (min/avg/max) = 11.26 | 11.26 | 11.26 Mbytes
Step Temp Press TotEng PotEng Enthalpy 
  110495    2075.1733   -313.77375   -109189.53   -114460.66   -109284.27 
  120000    2061.4219    444.29928   -109318.91   -114555.11      -109185 
Loop time of 605.843 on 2 procs for 9505 steps with 19652 atoms

Performance: 1.356 ns/day, 17.705 hours/ns, 15.689 timesteps/s
98.7% CPU use with 2 MPI tasks x no OpenMP threads

MPI task timing breakdown:
Section |  min time  |  avg time  |  max time  |%varavg| %total
---------------------------------------------------------------
Pair    | 315.52     | 315.66     | 315.79     |   0.8 | 52.10
Neigh   | 249.19     | 250.17     | 251.14     |   6.2 | 41.29
Comm    | 30.216     | 31.376     | 32.536     |  20.7 |  5.18
Output  | 0.023121   | 0.023132   | 0.023143   |   0.0 |  0.00
Modify  | 6.8123     | 6.8575     | 6.9027     |   1.7 |  1.13
Other   |            | 1.762      |            |       |  0.29

Nlocal:    9826 ave 9827 max 9825 min
Histogram: 1 0 0 0 0 0 0 0 0 1
Nghost:    10991.5 ave 11011 max 10972 min
Histogram: 1 0 0 0 0 0 0 0 0 1
Neighs:    509232 ave 509324 max 509141 min
Histogram: 1 0 0 0 0 0 0 0 0 1

Total # of neighbors = 1018465
Ave neighs/atom = 51.825
Neighbor list builds = 9505
Dangerous builds not checked
Setting up Verlet run ...
  Unit style    : metal
  Current step  : 120000
  Time step     : 0.001
Per MPI rank memory allocation (min/avg/max) = 11.27 | 11.27 | 11.27 Mbytes
Step Temp Press TotEng PotEng Enthalpy 
  120000    2061.4219    444.29928   -109318.91   -114555.11      -109185 
  120495    1999.4966    94.309692   -109567.33   -114646.23   -109538.93 
Loop time of 26.4935 on 2 procs for 495 steps with 19652 atoms

Performance: 1.614 ns/day, 14.867 hours/ns, 18.684 timesteps/s
100.0% CPU use with 2 MPI tasks x no OpenMP threads

MPI task timing breakdown:
Section |  min time  |  avg time  |  max time  |%varavg| %total
---------------------------------------------------------------
Pair    | 13.426     | 13.447     | 13.469     |   0.6 | 50.76
Neigh   | 11.516     | 11.61      | 11.703     |   2.7 | 43.82
Comm    | 0.92675    | 1.0448     | 1.1628     |  11.5 |  3.94
Output  | 8.6069e-05 | 0.00011659 | 0.0001471  |   0.0 |  0.00
Modify  | 0.30823    | 0.31035    | 0.31247    |   0.4 |  1.17
Other   |            | 0.08142    |            |       |  0.31

Nlocal:    9826 ave 9837 max 9815 min
Histogram: 1 0 0 0 0 0 0 0 0 1
Nghost:    11032.5 ave 11044 max 11021 min
Histogram: 1 0 0 0 0 0 0 0 0 1
Neighs:    509670 ave 510179 max 509162 min
Histogram: 1 0 0 0 0 0 0 0 0 1

Total # of neighbors = 1019341
Ave neighs/atom = 51.8696
Neighbor list builds = 495
Dangerous builds not checked
Setting up Verlet run ...
  Unit style    : metal
  Current step  : 120495
  Time step     : 0.001
Per MPI rank memory allocation (min/avg/max) = 11.27 | 11.27 | 11.27 Mbytes
Step Temp Press TotEng PotEng Enthalpy 
  120495    1999.4966    94.309692   -109567.33   -114646.23   -109538.93 
  130000    1998.5346    1050.1026   -109677.96   -114754.42   -109362.44 
Loop time of 633.696 on 2 procs for 9505 steps with 19652 atoms

Performance: 1.296 ns/day, 18.519 hours/ns, 14.999 timesteps/s
97.4% CPU use with 2 MPI tasks x no OpenMP threads

MPI task timing breakdown:
Section |  min time  |  avg time  |  max time  |%varavg| %total
---------------------------------------------------------------
Pair    | 330.14     | 330.69     | 331.24     |   3.0 | 52.18
Neigh   | 251.74     | 254.87     | 258        |  19.6 | 40.22
Comm    | 35.408     | 38.062     | 40.717     |  43.0 |  6.01
Output  | 0.032354   | 0.032366   | 0.032377   |   0.0 |  0.01
Modify  | 8.1968     | 8.2347     | 8.2727     |   1.3 |  1.30
Other   |            | 1.808      |            |       |  0.29

Nlocal:    9826 ave 9827 max 9825 min
Histogram: 1 0 0 0 0 0 0 0 0 1
Nghost:    11044.5 ave 11061 max 11028 min
Histogram: 1 0 0 0 0 0 0 0 0 1
Neighs:    511180 ave 511394 max 510967 min
Histogram: 1 0 0 0 0 0 0 0 0 1

Total # of neighbors = 1022361
Ave neighs/atom = 52.0233
Neighbor list builds = 9505
Dangerous builds not checked
Setting up Verlet run ...
  Unit style    : metal
  Current step  : 130000
  Time step     : 0.001
Per MPI rank memory allocation (min/avg/max) = 11.27 | 11.27 | 11.27 Mbytes
Step Temp Press TotEng PotEng Enthalpy 
  130000    1998.5346    1050.1026   -109677.96   -114754.42   -109362.44 
  130495    1985.8848    1318.3679    -109917.2   -114961.53   -109521.76 
Loop time of 30.8191 on 2 procs for 495 steps with 19652 atoms

Performance: 1.388 ns/day, 17.295 hours/ns, 16.061 timesteps/s
99.1% CPU use with 2 MPI tasks x no OpenMP threads

MPI task timing breakdown:
Section |  min time  |  avg time  |  max time  |%varavg| %total
---------------------------------------------------------------
Pair    | 15.876     | 15.896     | 15.915     |   0.5 | 51.58
Neigh   | 12.46      | 12.773     | 13.087     |   8.8 | 41.45
Comm    | 1.3943     | 1.6969     | 1.9995     |  23.2 |  5.51
Output  | 7.0095e-05 | 0.00010455 | 0.000139   |   0.0 |  0.00
Modify  | 0.35658    | 0.36243    | 0.36828    |   1.0 |  1.18
Other   |            | 0.09066    |            |       |  0.29

Nlocal:    9826 ave 9833 max 9819 min
Histogram: 1 0 0 0 0 0 0 0 0 1
Nghost:    11012.5 ave 11024 max 11001 min
Histogram: 1 0 0 0 0 0 0 0 0 1
Neighs:    512020 ave 512765 max 511276 min
Histogram: 1 0 0 0 0 0 0 0 0 1

Total # of neighbors = 1024041
Ave neighs/atom = 52.1087
Neighbor list builds = 495
Dangerous builds not checked
Setting up Verlet run ...
  Unit style    : metal
  Current step  : 130495
  Time step     : 0.001
Per MPI rank memory allocation (min/avg/max) = 11.27 | 11.27 | 11.27 Mbytes
Step Temp Press TotEng PotEng Enthalpy 
  130495    1985.8848    1318.3679    -109917.2   -114961.53   -109521.76 
  140000    1938.7918    1184.8465   -110015.14   -114939.85   -109659.68 
Loop time of 609.723 on 2 procs for 9505 steps with 19652 atoms

Performance: 1.347 ns/day, 17.819 hours/ns, 15.589 timesteps/s
97.9% CPU use with 2 MPI tasks x no OpenMP threads

MPI task timing breakdown:
Section |  min time  |  avg time  |  max time  |%varavg| %total
---------------------------------------------------------------
Pair    | 316.89     | 317.45     | 318.01     |   3.1 | 52.06
Neigh   | 250.09     | 250.4      | 250.72     |   2.0 | 41.07
Comm    | 32.789     | 33.116     | 33.442     |   5.7 |  5.43
Output  | 0.026039   | 0.026048   | 0.026056   |   0.0 |  0.00
Modify  | 6.8765     | 6.9723     | 7.0681     |   3.6 |  1.14
Other   |            | 1.756      |            |       |  0.29

Nlocal:    9826 ave 9837 max 9815 min
Histogram: 1 0 0 0 0 0 0 0 0 1
Nghost:    11075 ave 11096 max 11054 min
Histogram: 1 0 0 0 0 0 0 0 0 1
Neighs:    512101 ave 512638 max 511564 min
Histogram: 1 0 0 0 0 0 0 0 0 1

Total # of neighbors = 1024202
Ave neighs/atom = 52.1169
Neighbor list builds = 9505
Dangerous builds not checked
Setting up Verlet run ...
  Unit style    : metal
  Current step  : 140000
  Time step     : 0.001
Per MPI rank memory allocation (min/avg/max) = 11.27 | 11.27 | 11.28 Mbytes
Step Temp Press TotEng PotEng Enthalpy 
  140000    1938.7918    1184.8465   -110015.14   -114939.85   -109659.68 
  140495    1921.6214    290.65327   -110217.35   -115098.45   -110130.19 
Loop time of 31.244 on 2 procs for 495 steps with 19652 atoms

Performance: 1.369 ns/day, 17.533 hours/ns, 15.843 timesteps/s
98.7% CPU use with 2 MPI tasks x no OpenMP threads

MPI task timing breakdown:
Section |  min time  |  avg time  |  max time  |%varavg| %total
---------------------------------------------------------------
Pair    | 16.228     | 16.312     | 16.395     |   2.1 | 52.21
Neigh   | 12.003     | 12.835     | 13.667     |  23.2 | 41.08
Comm    | 0.87351    | 1.6439     | 2.4143     |  60.1 |  5.26
Output  | 6.6042e-05 | 0.00010097 | 0.0001359  |   0.0 |  0.00
Modify  | 0.34627    | 0.35941    | 0.37255    |   2.2 |  1.15
Other   |            | 0.09352    |            |       |  0.30

Nlocal:    9826 ave 9840 max 9812 min
Histogram: 1 0 0 0 0 0 0 0 0 1
Nghost:    11033 ave 11052 max 11014 min
Histogram: 1 0 0 0 0 0 0 0 0 1
Neighs:    512314 ave 513555 max 511073 min
Histogram: 1 0 0 0 0 0 0 0 0 1

Total # of neighbors = 1024628
Ave neighs/atom = 52.1386
Neighbor list builds = 495
Dangerous builds not checked
Setting up Verlet run ...
  Unit style    : metal
  Current step  : 140495
  Time step     : 0.001
Per MPI rank memory allocation (min/avg/max) = 11.27 | 11.27 | 11.28 Mbytes
Step Temp Press TotEng PotEng Enthalpy 
  140495    1921.6214    290.65327   -110217.35   -115098.45   -110130.19 
  150000    1893.6922   -1684.3477    -110345.4   -115155.55   -110851.87 
Loop time of 572.354 on 2 procs for 9505 steps with 19652 atoms

Performance: 1.435 ns/day, 16.727 hours/ns, 16.607 timesteps/s
98.6% CPU use with 2 MPI tasks x no OpenMP threads

MPI task timing breakdown:
Section |  min time  |  avg time  |  max time  |%varavg| %total
---------------------------------------------------------------
Pair    | 294.4      | 295.6      | 296.8      |   7.0 | 51.65
Neigh   | 236.82     | 239.32     | 241.82     |  16.2 | 41.81
Comm    | 26.701     | 28.069     | 29.437     |  25.8 |  4.90
Output  | 0.028059   | 0.028075   | 0.02809    |   0.0 |  0.00
Modify  | 7.6409     | 7.6911     | 7.7414     |   1.8 |  1.34
Other   |            | 1.65       |            |       |  0.29

Nlocal:    9826 ave 9851 max 9801 min
Histogram: 1 0 0 0 0 0 0 0 0 1
Nghost:    11032.5 ave 11071 max 10994 min
Histogram: 1 0 0 0 0 0 0 0 0 1
Neighs:    510824 ave 512661 max 508986 min
Histogram: 1 0 0 0 0 0 0 0 0 1

Total # of neighbors = 1021647
Ave neighs/atom = 51.9869
Neighbor list builds = 9505
Dangerous builds not checked
Setting up Verlet run ...
  Unit style    : metal
  Current step  : 150000
  Time step     : 0.001
Per MPI rank memory allocation (min/avg/max) = 11.28 | 11.28 | 11.28 Mbytes
Step Temp Press TotEng PotEng Enthalpy 
  150000    1893.6922   -1684.3477    -110345.4   -115155.55   -110851.87 
  150495    1844.2798   -962.34529   -110554.72   -115239.36   -110843.51 
Loop time of 27.0017 on 2 procs for 495 steps with 19652 atoms

Performance: 1.584 ns/day, 15.152 hours/ns, 18.332 timesteps/s
99.3% CPU use with 2 MPI tasks x no OpenMP threads

MPI task timing breakdown:
Section |  min time  |  avg time  |  max time  |%varavg| %total
---------------------------------------------------------------
Pair    | 13.642     | 13.678     | 13.713     |   1.0 | 50.65
Neigh   | 11.318     | 11.541     | 11.764     |   6.6 | 42.74
Comm    | 0.89485    | 1.0887     | 1.2825     |  18.6 |  4.03
Output  | 0.000103   | 0.15268    | 0.30525    |  39.0 |  0.57
Modify  | 0.30453    | 0.30921    | 0.31389    |   0.8 |  1.15
Other   |            | 0.2327     |            |       |  0.86

Nlocal:    9826 ave 9838 max 9814 min
Histogram: 1 0 0 0 0 0 0 0 0 1
Nghost:    11027.5 ave 11042 max 11013 min
Histogram: 1 0 0 0 0 0 0 0 0 1
Neighs:    511984 ave 513066 max 510903 min
Histogram: 1 0 0 0 0 0 0 0 0 1

Total # of neighbors = 1023969
Ave neighs/atom = 52.1051
Neighbor list builds = 495
Dangerous builds not checked
Setting up Verlet run ...
  Unit style    : metal
  Current step  : 150495
  Time step     : 0.001
Per MPI rank memory allocation (min/avg/max) = 11.28 | 11.28 | 11.28 Mbytes
Step Temp Press TotEng PotEng Enthalpy 
  150495    1844.2798   -962.34529   -110554.72   -115239.36   -110843.51 
  160000     1838.966   -690.99929    -110615.7   -115286.84   -110822.83 
Loop time of 569.114 on 2 procs for 9505 steps with 19652 atoms

Performance: 1.443 ns/day, 16.632 hours/ns, 16.701 timesteps/s
97.6% CPU use with 2 MPI tasks x no OpenMP threads

MPI task timing breakdown:
Section |  min time  |  avg time  |  max time  |%varavg| %total
---------------------------------------------------------------
Pair    | 289.12     | 289.26     | 289.4      |   0.8 | 50.83
Neigh   | 234.36     | 234.47     | 234.59     |   0.8 | 41.20
Comm    | 37.381     | 37.421     | 37.462     |   0.7 |  6.58
Output  | 0.024237   | 0.024249   | 0.024261   |   0.0 |  0.00
Modify  | 6.3169     | 6.3346     | 6.3523     |   0.7 |  1.11
Other   |            | 1.6        |            |       |  0.28

Nlocal:    9826 ave 9868 max 9784 min
Histogram: 1 0 0 0 0 0 0 0 0 1
Nghost:    11041.5 ave 11052 max 11031 min
Histogram: 1 0 0 0 0 0 0 0 0 1
Neighs:    512238 ave 515499 max 508976 min
Histogram: 1 0 0 0 0 0 0 0 0 1

Total # of neighbors = 1024475
Ave neighs/atom = 52.1308
Neighbor list builds = 9505
Dangerous builds not checked
Setting up Verlet run ...
  Unit style    : metal
  Current step  : 160000
  Time step     : 0.001
Per MPI rank memory allocation (min/avg/max) = 11.28 | 11.28 | 11.28 Mbytes
Step Temp Press TotEng PotEng Enthalpy 
  160000     1838.966   -690.99929    -110615.7   -115286.84   -110822.83 
  160495    1810.0631    18.826715   -110844.47    -115442.2   -110838.84 
Loop time of 24.9355 on 2 procs for 495 steps with 19652 atoms

Performance: 1.715 ns/day, 13.993 hours/ns, 19.851 timesteps/s
99.9% CPU use with 2 MPI tasks x no OpenMP threads

MPI task timing breakdown:
Section |  min time  |  avg time  |  max time  |%varavg| %total
---------------------------------------------------------------
Pair    | 12.557     | 12.581     | 12.606     |   0.7 | 50.46
Neigh   | 11.147     | 11.15      | 11.154     |   0.1 | 44.72
Comm    | 0.81922    | 0.84009    | 0.86096    |   2.3 |  3.37
Output  | 6.4135e-05 | 9.0122e-05 | 0.00011611 |   0.0 |  0.00
Modify  | 0.28836    | 0.28862    | 0.28889    |   0.0 |  1.16
Other   |            | 0.0749     |            |       |  0.30

Nlocal:    9826 ave 9830 max 9822 min
Histogram: 1 0 0 0 0 0 0 0 0 1
Nghost:    11050 ave 11065 max 11035 min
Histogram: 1 0 0 0 0 0 0 0 0 1
Neighs:    513760 ave 514628 max 512893 min
Histogram: 1 0 0 0 0 0 0 0 0 1

Total # of neighbors = 1027521
Ave neighs/atom = 52.2858
Neighbor list builds = 495
Dangerous builds not checked
Setting up Verlet run ...
  Unit style    : metal
  Current step  : 160495
  Time step     : 0.001
Per MPI rank memory allocation (min/avg/max) = 11.28 | 11.28 | 11.28 Mbytes
Step Temp Press TotEng PotEng Enthalpy 
  160495    1810.0631    18.826715   -110844.47    -115442.2   -110838.84 
  170000    1801.2214    1141.7141   -110974.15   -115549.42   -110633.48 
Loop time of 567.514 on 2 procs for 9505 steps with 19652 atoms

Performance: 1.447 ns/day, 16.585 hours/ns, 16.748 timesteps/s
98.2% CPU use with 2 MPI tasks x no OpenMP threads

MPI task timing breakdown:
Section |  min time  |  avg time  |  max time  |%varavg| %total
---------------------------------------------------------------
Pair    | 291        | 291.66     | 292.32     |   3.9 | 51.39
Neigh   | 235.22     | 235.6      | 235.97     |   2.4 | 41.51
Comm    | 31.391     | 31.662     | 31.933     |   4.8 |  5.58
Output  | 0.022534   | 0.022544   | 0.022554   |   0.0 |  0.00
Modify  | 6.9458     | 6.9599     | 6.9739     |   0.5 |  1.23
Other   |            | 1.611      |            |       |  0.28

Nlocal:    9826 ave 9839 max 9813 min
Histogram: 1 0 0 0 0 0 0 0 0 1
Nghost:    11091 ave 11142 max 11040 min
Histogram: 1 0 0 0 0 0 0 0 0 1
Neighs:    515070 ave 515647 max 514493 min
Histogram: 1 0 0 0 0 0 0 0 0 1

Total # of neighbors = 1030140
Ave neighs/atom = 52.4191
Neighbor list builds = 9505
Dangerous builds not checked
Setting up Verlet run ...
  Unit style    : metal
  Current step  : 170000
  Time step     : 0.001
Per MPI rank memory allocation (min/avg/max) = 11.28 | 11.28 | 11.28 Mbytes
Step Temp Press TotEng PotEng Enthalpy 
  170000    1801.2214    1141.7141   -110974.15   -115549.42   -110633.48 
  170495    1760.4716    891.80487   -111185.63   -115657.39   -110919.66 
Loop time of 27.5512 on 2 procs for 495 steps with 19652 atoms

Performance: 1.552 ns/day, 15.461 hours/ns, 17.967 timesteps/s
99.5% CPU use with 2 MPI tasks x no OpenMP threads

MPI task timing breakdown:
Section |  min time  |  avg time  |  max time  |%varavg| %total
---------------------------------------------------------------
Pair    | 14.14      | 14.148     | 14.156     |   0.2 | 51.35
Neigh   | 11.673     | 11.849     | 12.025     |   5.1 | 43.01
Comm    | 0.96716    | 1.154      | 1.3409     |  17.4 |  4.19
Output  | 6.9857e-05 | 0.00010645 | 0.00014305 |   0.0 |  0.00
Modify  | 0.31681    | 0.31904    | 0.32127    |   0.4 |  1.16
Other   |            | 0.0805     |            |       |  0.29

Nlocal:    9826 ave 9831 max 9821 min
Histogram: 1 0 0 0 0 0 0 0 0 1
Nghost:    11078 ave 11104 max 11052 min
Histogram: 1 0 0 0 0 0 0 0 0 1
Neighs:    515591 ave 516194 max 514988 min
Histogram: 1 0 0 0 0 0 0 0 0 1

Total # of neighbors = 1031182
Ave neighs/atom = 52.4721
Neighbor list builds = 495
Dangerous builds not checked
Setting up Verlet run ...
  Unit style    : metal
  Current step  : 170495
  Time step     : 0.001
Per MPI rank memory allocation (min/avg/max) = 11.28 | 11.28 | 11.28 Mbytes
Step Temp Press TotEng PotEng Enthalpy 
  170495    1760.4716    891.80487   -111185.63   -115657.39   -110919.66 
  180000    1757.3139     1356.884   -111335.05   -115798.79   -110930.97 
Loop time of 568.394 on 2 procs for 9505 steps with 19652 atoms

Performance: 1.445 ns/day, 16.611 hours/ns, 16.723 timesteps/s
98.2% CPU use with 2 MPI tasks x no OpenMP threads

MPI task timing breakdown:
Section |  min time  |  avg time  |  max time  |%varavg| %total
---------------------------------------------------------------
Pair    | 291.38     | 291.53     | 291.67     |   0.9 | 51.29
Neigh   | 234.96     | 235.77     | 236.58     |   5.3 | 41.48
Comm    | 31.841     | 32.81      | 33.779     |  16.9 |  5.77
Output  | 0.034255   | 0.034261   | 0.034268   |   0.0 |  0.01
Modify  | 6.6285     | 6.6291     | 6.6296     |   0.0 |  1.17
Other   |            | 1.623      |            |       |  0.29

Nlocal:    9826 ave 9843 max 9809 min
Histogram: 1 0 0 0 0 0 0 0 0 1
Nghost:    11087 ave 11087 max 11087 min
Histogram: 2 0 0 0 0 0 0 0 0 0
Neighs:    516551 ave 517592 max 515510 min
Histogram: 1 0 0 0 0 0 0 0 0 1

Total # of neighbors = 1033102
Ave neighs/atom = 52.5698
Neighbor list builds = 9505
Dangerous builds not checked
Setting up Verlet run ...
  Unit style    : metal
  Current step  : 180000
  Time step     : 0.001
Per MPI rank memory allocation (min/avg/max) = 11.29 | 11.29 | 11.29 Mbytes
Step Temp Press TotEng PotEng Enthalpy 
  180000    1757.3139     1356.884   -111335.05   -115798.79   -110930.97 
  180495    1715.2384    581.17626   -111524.53   -115881.39   -111351.49 
Loop time of 29.6703 on 2 procs for 495 steps with 19652 atoms

Performance: 1.441 ns/day, 16.650 hours/ns, 16.683 timesteps/s
98.8% CPU use with 2 MPI tasks x no OpenMP threads

MPI task timing breakdown:
Section |  min time  |  avg time  |  max time  |%varavg| %total
---------------------------------------------------------------
Pair    | 15.371     | 15.38      | 15.389     |   0.2 | 51.84
Neigh   | 12.154     | 12.329     | 12.504     |   5.0 | 41.55
Comm    | 1.361      | 1.5313     | 1.7017     |  13.8 |  5.16
Output  | 9.4175e-05 | 0.00012803 | 0.00016189 |   0.0 |  0.00
Modify  | 0.34129    | 0.34438    | 0.34747    |   0.5 |  1.16
Other   |            | 0.08494    |            |       |  0.29

Nlocal:    9826 ave 9836 max 9816 min
Histogram: 1 0 0 0 0 0 0 0 0 1
Nghost:    11062.5 ave 11064 max 11061 min
Histogram: 1 0 0 0 0 0 0 0 0 1
Neighs:    516790 ave 517237 max 516343 min
Histogram: 1 0 0 0 0 0 0 0 0 1

Total # of neighbors = 1033580
Ave neighs/atom = 52.5941
Neighbor list builds = 495
Dangerous builds not checked
Setting up Verlet run ...
  Unit style    : metal
  Current step  : 180495
  Time step     : 0.001
Per MPI rank memory allocation (min/avg/max) = 11.29 | 11.29 | 11.29 Mbytes
Step Temp Press TotEng PotEng Enthalpy 
  180495    1715.2384    581.17626   -111524.53   -115881.39   -111351.49 
  190000    1695.5433   -622.36398   -111613.03   -115919.86    -111798.6 
Loop time of 561.125 on 2 procs for 9505 steps with 19652 atoms

Performance: 1.464 ns/day, 16.399 hours/ns, 16.939 timesteps/s
98.3% CPU use with 2 MPI tasks x no OpenMP threads

MPI task timing breakdown:
Section |  min time  |  avg time  |  max time  |%varavg| %total
---------------------------------------------------------------
Pair    | 287.15     | 287.54     | 287.93     |   2.3 | 51.24
Neigh   | 231.88     | 233.87     | 235.86     |  13.0 | 41.68
Comm    | 29.02      | 30.677     | 32.334     |  29.9 |  5.47
Output  | 0.02489    | 0.024907   | 0.024923   |   0.0 |  0.00
Modify  | 7.379      | 7.4179     | 7.4568     |   1.4 |  1.32
Other   |            | 1.593      |            |       |  0.28

Nlocal:    9826 ave 9829 max 9823 min
Histogram: 1 0 0 0 0 0 0 0 0 1
Nghost:    11037.5 ave 11042 max 11033 min
Histogram: 1 0 0 0 0 0 0 0 0 1
Neighs:    515723 ave 516276 max 515170 min
Histogram: 1 0 0 0 0 0 0 0 0 1

Total # of neighbors = 1031446
Ave neighs/atom = 52.4855
Neighbor list builds = 9505
Dangerous builds not checked
Setting up Verlet run ...
  Unit style    : metal
  Current step  : 190000
  Time step     : 0.001
Per MPI rank memory allocation (min/avg/max) = 11.29 | 11.29 | 11.29 Mbytes
Step Temp Press TotEng PotEng Enthalpy 
  190000    1695.5433   -622.36398   -111613.03   -115919.86    -111798.6 
  190495    1659.6672    5.3162719   -111874.79    -116090.5   -111873.21 
Loop time of 27.5935 on 2 procs for 495 steps with 19652 atoms

Performance: 1.550 ns/day, 15.485 hours/ns, 17.939 timesteps/s
98.4% CPU use with 2 MPI tasks x no OpenMP threads

MPI task timing breakdown:
Section |  min time  |  avg time  |  max time  |%varavg| %total
---------------------------------------------------------------
Pair    | 13.704     | 13.731     | 13.758     |   0.7 | 49.76
Neigh   | 11.606     | 11.611     | 11.617     |   0.2 | 42.08
Comm    | 1.728      | 1.8084     | 1.8889     |   6.0 |  6.55
Output  | 9.0837e-05 | 0.00012696 | 0.00016308 |   0.0 |  0.00
Modify  | 0.31441    | 0.36289    | 0.41138    |   8.0 |  1.32
Other   |            | 0.07983    |            |       |  0.29

Nlocal:    9826 ave 9845 max 9807 min
Histogram: 1 0 0 0 0 0 0 0 0 1
Nghost:    11097.5 ave 11103 max 11092 min
Histogram: 1 0 0 0 0 0 0 0 0 1
Neighs:    517056 ave 518386 max 515727 min
Histogram: 1 0 0 0 0 0 0 0 0 1

Total # of neighbors = 1034113
Ave neighs/atom = 52.6213
Neighbor list builds = 495
Dangerous builds not checked
Setting up Verlet run ...
  Unit style    : metal
  Current step  : 190495
  Time step     : 0.001
Per MPI rank memory allocation (min/avg/max) = 11.29 | 11.29 | 11.29 Mbytes
Step Temp Press TotEng PotEng Enthalpy 
  190495    1659.6672    5.3162719   -111874.79    -116090.5   -111873.21 
  200000    1666.8503    806.53047   -111929.92   -116163.87   -111690.36 
Loop time of 565.209 on 2 procs for 9505 steps with 19652 atoms

Performance: 1.453 ns/day, 16.518 hours/ns, 16.817 timesteps/s
98.3% CPU use with 2 MPI tasks x no OpenMP threads

MPI task timing breakdown:
Section |  min time  |  avg time  |  max time  |%varavg| %total
---------------------------------------------------------------
Pair    | 290.47     | 290.53     | 290.6      |   0.4 | 51.40
Neigh   | 231.97     | 233.78     | 235.6      |  11.9 | 41.36
Comm    | 30.924     | 32.588     | 34.251     |  29.1 |  5.77
Output  | 0.022685   | 0.022698   | 0.022711   |   0.0 |  0.00
Modify  | 6.5851     | 6.6847     | 6.7842     |   3.9 |  1.18
Other   |            | 1.598      |            |       |  0.28

Nlocal:    9826 ave 9842 max 9810 min
Histogram: 1 0 0 0 0 0 0 0 0 1
Nghost:    11082 ave 11099 max 11065 min
Histogram: 1 0 0 0 0 0 0 0 0 1
Neighs:    518090 ave 518626 max 517553 min
Histogram: 1 0 0 0 0 0 0 0 0 1

Total # of neighbors = 1036179
Ave neighs/atom = 52.7264
Neighbor list builds = 9505
Dangerous builds not checked
Setting up Verlet run ...
  Unit style    : metal
  Current step  : 200000
  Time step     : 0.001
Per MPI rank memory allocation (min/avg/max) = 11.29 | 11.29 | 11.29 Mbytes
Step Temp Press TotEng PotEng Enthalpy 
  200000    1666.8503    806.53047   -111929.92   -116163.87   -111690.36 
  200495    1608.1123    657.89645   -112163.06   -116247.81   -111967.76 
Loop time of 25.5258 on 2 procs for 495 steps with 19652 atoms

Performance: 1.675 ns/day, 14.324 hours/ns, 19.392 timesteps/s
99.0% CPU use with 2 MPI tasks x no OpenMP threads

MPI task timing breakdown:
Section |  min time  |  avg time  |  max time  |%varavg| %total
---------------------------------------------------------------
Pair    | 12.61      | 12.671     | 12.733     |   1.7 | 49.64
Neigh   | 10.972     | 11.135     | 11.298     |   4.9 | 43.62
Comm    | 0.73867    | 0.84582    | 0.95297    |  11.7 |  3.31
Output  | 6.7949e-05 | 0.00010598 | 0.000144   |   0.0 |  0.00
Modify  | 0.79418    | 0.79814    | 0.80211    |   0.4 |  3.13
Other   |            | 0.07547    |            |       |  0.30

Nlocal:    9826 ave 9827 max 9825 min
Histogram: 1 0 0 0 0 0 0 0 0 1
Nghost:    11092 ave 11108 max 11076 min
Histogram: 1 0 0 0 0 0 0 0 0 1
Neighs:    518650 ave 519545 max 517755 min
Histogram: 1 0 0 0 0 0 0 0 0 1

Total # of neighbors = 1037300
Ave neighs/atom = 52.7834
Neighbor list builds = 495
Dangerous builds not checked
Setting up Verlet run ...
  Unit style    : metal
  Current step  : 200495
  Time step     : 0.001
Per MPI rank memory allocation (min/avg/max) = 11.29 | 11.29 | 11.29 Mbytes
Step Temp Press TotEng PotEng Enthalpy 
  200495    1608.1123    657.89645   -112163.06   -116247.81   -111967.76 
  210000    1600.7856    312.08038    -112247.9   -116314.04   -112155.27 
Loop time of 560 on 2 procs for 9505 steps with 19652 atoms

Performance: 1.466 ns/day, 16.366 hours/ns, 16.973 timesteps/s
98.9% CPU use with 2 MPI tasks x no OpenMP threads

MPI task timing breakdown:
Section |  min time  |  avg time  |  max time  |%varavg| %total
---------------------------------------------------------------
Pair    | 289.31     | 289.96     | 290.6      |   3.8 | 51.78
Neigh   | 233.08     | 234.37     | 235.66     |   8.4 | 41.85
Comm    | 26.737     | 27.419     | 28.101     |  13.0 |  4.90
Output  | 0.045661   | 0.045678   | 0.045696   |   0.0 |  0.01
Modify  | 6.5818     | 6.6031     | 6.6245     |   0.8 |  1.18
Other   |            | 1.604      |            |       |  0.29

Nlocal:    9826 ave 9837 max 9815 min
Histogram: 1 0 0 0 0 0 0 0 0 1
Nghost:    11120 ave 11124 max 11116 min
Histogram: 1 0 0 0 0 0 0 0 0 1
Neighs:    518730 ave 519997 max 517464 min
Histogram: 1 0 0 0 0 0 0 0 0 1

Total # of neighbors = 1037461
Ave neighs/atom = 52.7916
Neighbor list builds = 9505
Dangerous builds not checked
Setting up Verlet run ...
  Unit style    : metal
  Current step  : 210000
  Time step     : 0.001
Per MPI rank memory allocation (min/avg/max) = 11.29 | 11.29 | 11.29 Mbytes
Step Temp Press TotEng PotEng Enthalpy 
  210000    1600.7856    312.08038    -112247.9   -116314.04   -112155.27 
  210495    1555.4955   -284.35643   -112517.97   -116469.07   -112602.31 
Loop time of 29.1489 on 2 procs for 495 steps with 19652 atoms

Performance: 1.467 ns/day, 16.357 hours/ns, 16.982 timesteps/s
97.3% CPU use with 2 MPI tasks x no OpenMP threads

MPI task timing breakdown:
Section |  min time  |  avg time  |  max time  |%varavg| %total
---------------------------------------------------------------
Pair    | 14.851     | 14.934     | 15.016     |   2.1 | 51.23
Neigh   | 11.531     | 11.899     | 12.267     |  10.7 | 40.82
Comm    | 1.3074     | 1.6022     | 1.897      |  23.3 |  5.50
Output  | 8.4877e-05 | 0.00010288 | 0.00012088 |   0.0 |  0.00
Modify  | 0.62334    | 0.63031    | 0.63728    |   0.9 |  2.16
Other   |            | 0.08325    |            |       |  0.29

Nlocal:    9826 ave 9850 max 9802 min
Histogram: 1 0 0 0 0 0 0 0 0 1
Nghost:    11091.5 ave 11127 max 11056 min
Histogram: 1 0 0 0 0 0 0 0 0 1
Neighs:    519134 ave 519924 max 518343 min
Histogram: 1 0 0 0 0 0 0 0 0 1

Total # of neighbors = 1038267
Ave neighs/atom = 52.8326
Neighbor list builds = 495
Dangerous builds not checked
Setting up Verlet run ...
  Unit style    : metal
  Current step  : 210495
  Time step     : 0.001
Per MPI rank memory allocation (min/avg/max) = 11.29 | 11.29 | 11.29 Mbytes
Step Temp Press TotEng PotEng Enthalpy 
  210495    1555.4955   -284.35643   -112517.97   -116469.07   -112602.31 
  220000    1569.1448    431.56962   -112561.26   -116547.03   -112433.37 
Loop time of 554.904 on 2 procs for 9505 steps with 19652 atoms

Performance: 1.480 ns/day, 16.217 hours/ns, 17.129 timesteps/s
98.5% CPU use with 2 MPI tasks x no OpenMP threads

MPI task timing breakdown:
Section |  min time  |  avg time  |  max time  |%varavg| %total
---------------------------------------------------------------
Pair    | 286.06     | 286.34     | 286.61     |   1.6 | 51.60
Neigh   | 231.78     | 232.17     | 232.55     |   2.5 | 41.84
Comm    | 26.294     | 26.978     | 27.662     |  13.2 |  4.86
Output  | 0.034431   | 0.034451   | 0.03447    |   0.0 |  0.01
Modify  | 7.7839     | 7.8011     | 7.8182     |   0.6 |  1.41
Other   |            | 1.589      |            |       |  0.29

Nlocal:    9826 ave 9827 max 9825 min
Histogram: 1 0 0 0 0 0 0 0 0 1
Nghost:    11098 ave 11111 max 11085 min
Histogram: 1 0 0 0 0 0 0 0 0 1
Neighs:    519708 ave 519923 max 519493 min
Histogram: 1 0 0 0 0 0 0 0 0 1

Total # of neighbors = 1039416
Ave neighs/atom = 52.8911
Neighbor list builds = 9505
Dangerous builds not checked
Setting up Verlet run ...
  Unit style    : metal
  Current step  : 220000
  Time step     : 0.001
Per MPI rank memory allocation (min/avg/max) = 11.29 | 11.29 | 11.29 Mbytes
Step Temp Press TotEng PotEng Enthalpy 
  220000    1569.1448    431.56962   -112561.26   -116547.03   -112433.37 
  220495    1517.7713    61.882329   -112820.33    -116675.6      -112802 
Loop time of 29.649 on 2 procs for 495 steps with 19652 atoms

Performance: 1.442 ns/day, 16.638 hours/ns, 16.695 timesteps/s
97.1% CPU use with 2 MPI tasks x no OpenMP threads

MPI task timing breakdown:
Section |  min time  |  avg time  |  max time  |%varavg| %total
---------------------------------------------------------------
Pair    | 15.25      | 15.251     | 15.253     |   0.0 | 51.44
Neigh   | 11.902     | 12.067     | 12.233     |   4.8 | 40.70
Comm    | 1.7419     | 1.9128     | 2.0836     |  12.4 |  6.45
Output  | 7.4148e-05 | 0.00010717 | 0.00014019 |   0.0 |  0.00
Modify  | 0.33132    | 0.33412    | 0.33691    |   0.5 |  1.13
Other   |            | 0.0836     |            |       |  0.28

Nlocal:    9826 ave 9842 max 9810 min
Histogram: 1 0 0 0 0 0 0 0 0 1
Nghost:    11115 ave 11130 max 11100 min
Histogram: 1 0 0 0 0 0 0 0 0 1
Neighs:    520342 ave 521114 max 519571 min
Histogram: 1 0 0 0 0 0 0 0 0 1

Total # of neighbors = 1040685
Ave neighs/atom = 52.9557
Neighbor list builds = 495
Dangerous builds not checked
Setting up Verlet run ...
  Unit style    : metal
  Current step  : 220495
  Time step     : 0.001
Per MPI rank memory allocation (min/avg/max) = 11.29 | 11.29 | 11.29 Mbytes
Step Temp Press TotEng PotEng Enthalpy 
  220495    1517.7713    61.882329   -112820.33    -116675.6      -112802 
  230000    1510.7972    1000.5953    -112904.8   -116742.36   -112609.11 
Loop time of 593.695 on 2 procs for 9505 steps with 19652 atoms

Performance: 1.383 ns/day, 17.350 hours/ns, 16.010 timesteps/s
98.5% CPU use with 2 MPI tasks x no OpenMP threads

MPI task timing breakdown:
Section |  min time  |  avg time  |  max time  |%varavg| %total
---------------------------------------------------------------
Pair    | 306.23     | 306.55     | 306.87     |   1.8 | 51.63
Neigh   | 244.29     | 244.44     | 244.58     |   0.9 | 41.17
Comm    | 31.919     | 32.684     | 33.45      |  13.4 |  5.51
Output  | 0.034076   | 0.03409    | 0.034104   |   0.0 |  0.01
Modify  | 7.6885     | 8.2844     | 8.8804     |  20.7 |  1.40
Other   |            | 1.706      |            |       |  0.29

Nlocal:    9826 ave 9845 max 9807 min
Histogram: 1 0 0 0 0 0 0 0 0 1
Nghost:    11113 ave 11137 max 11089 min
Histogram: 1 0 0 0 0 0 0 0 0 1
Neighs:    521359 ave 522937 max 519781 min
Histogram: 1 0 0 0 0 0 0 0 0 1

Total # of neighbors = 1042718
Ave neighs/atom = 53.0591
Neighbor list builds = 9505
Dangerous builds not checked
Setting up Verlet run ...
  Unit style    : metal
  Current step  : 230000
  Time step     : 0.001
Per MPI rank memory allocation (min/avg/max) = 11.29 | 11.29 | 11.29 Mbytes
Step Temp Press TotEng PotEng Enthalpy 
  230000    1510.7972    1000.5953    -112904.8   -116742.36   -112609.11 
  230495    1461.7088    184.71763   -113149.77   -116862.65   -113095.18 
Loop time of 31.3788 on 2 procs for 495 steps with 19652 atoms

Performance: 1.363 ns/day, 17.609 hours/ns, 15.775 timesteps/s
98.3% CPU use with 2 MPI tasks x no OpenMP threads

MPI task timing breakdown:
Section |  min time  |  avg time  |  max time  |%varavg| %total
---------------------------------------------------------------
Pair    | 16.386     | 16.39      | 16.395     |   0.1 | 52.23
Neigh   | 12.999     | 13.047     | 13.095     |   1.3 | 41.58
Comm    | 1.4342     | 1.4818     | 1.5294     |   3.9 |  4.72
Output  | 7.391e-05  | 0.00011194 | 0.00014997 |   0.0 |  0.00
Modify  | 0.36626    | 0.368      | 0.36975    |   0.3 |  1.17
Other   |            | 0.09118    |            |       |  0.29

Nlocal:    9826 ave 9840 max 9812 min
Histogram: 1 0 0 0 0 0 0 0 0 1
Nghost:    11127.5 ave 11138 max 11117 min
Histogram: 1 0 0 0 0 0 0 0 0 1
Neighs:    521386 ave 522466 max 520306 min
Histogram: 1 0 0 0 0 0 0 0 0 1

Total # of neighbors = 1042772
Ave neighs/atom = 53.0619
Neighbor list builds = 495
Dangerous builds not checked
Setting up Verlet run ...
  Unit style    : metal
  Current step  : 230495
  Time step     : 0.001
Per MPI rank memory allocation (min/avg/max) = 11.29 | 11.29 | 11.29 Mbytes
Step Temp Press TotEng PotEng Enthalpy 
  230495    1461.7088    184.71763   -113149.77   -116862.65   -113095.18 
  240000    1461.4968    1149.7128   -113303.59   -117015.93   -112964.47 
Loop time of 635.297 on 2 procs for 9505 steps with 19652 atoms

Performance: 1.293 ns/day, 18.566 hours/ns, 14.961 timesteps/s
97.6% CPU use with 2 MPI tasks x no OpenMP threads

MPI task timing breakdown:
Section |  min time  |  avg time  |  max time  |%varavg| %total
---------------------------------------------------------------
Pair    | 331.77     | 332.39     | 333.01     |   3.4 | 52.32
Neigh   | 252.15     | 255.83     | 259.51     |  23.0 | 40.27
Comm    | 33.652     | 36.955     | 40.258     |  54.3 |  5.82
Output  | 0.035864   | 0.035932   | 0.036001   |   0.0 |  0.01
Modify  | 8.0501     | 8.2609     | 8.4716     |   7.3 |  1.30
Other   |            | 1.824      |            |       |  0.29

Nlocal:    9826 ave 9854 max 9798 min
Histogram: 1 0 0 0 0 0 0 0 0 1
Nghost:    11116 ave 11137 max 11095 min
Histogram: 1 0 0 0 0 0 0 0 0 1
Neighs:    523082 ave 525935 max 520230 min
Histogram: 1 0 0 0 0 0 0 0 0 1

Total # of neighbors = 1046165
Ave neighs/atom = 53.2345
Neighbor list builds = 9505
Dangerous builds not checked
Setting up Verlet run ...
  Unit style    : metal
  Current step  : 240000
  Time step     : 0.001
Per MPI rank memory allocation (min/avg/max) = 11.29 | 11.29 | 11.29 Mbytes
Step Temp Press TotEng PotEng Enthalpy 
  240000    1461.4968    1149.7128   -113303.59   -117015.93   -112964.47 
  240495    1419.4595   -387.44724   -113506.95    -117112.5    -113621.4 
Loop time of 31.6012 on 2 procs for 495 steps with 19652 atoms

Performance: 1.353 ns/day, 17.734 hours/ns, 15.664 timesteps/s
99.4% CPU use with 2 MPI tasks x no OpenMP threads

MPI task timing breakdown:
Section |  min time  |  avg time  |  max time  |%varavg| %total
---------------------------------------------------------------
Pair    | 16.552     | 16.593     | 16.635     |   1.0 | 52.51
Neigh   | 12.349     | 12.861     | 13.373     |  14.3 | 40.70
Comm    | 1.1131     | 1.6846     | 2.2561     |  44.0 |  5.33
Output  | 8.5831e-05 | 0.00012434 | 0.00016284 |   0.0 |  0.00
Modify  | 0.35646    | 0.36912    | 0.38179    |   2.1 |  1.17
Other   |            | 0.09314    |            |       |  0.29

Nlocal:    9826 ave 9834 max 9818 min
Histogram: 1 0 0 0 0 0 0 0 0 1
Nghost:    11102 ave 11132 max 11072 min
Histogram: 1 0 0 0 0 0 0 0 0 1
Neighs:    522219 ave 523149 max 521289 min
Histogram: 1 0 0 0 0 0 0 0 0 1

Total # of neighbors = 1044438
Ave neighs/atom = 53.1467
Neighbor list builds = 495
Dangerous builds not checked
Setting up Verlet run ...
  Unit style    : metal
  Current step  : 240495
  Time step     : 0.001
Per MPI rank memory allocation (min/avg/max) = 11.29 | 11.29 | 11.29 Mbytes
Step Temp Press TotEng PotEng Enthalpy 
  240495    1419.4595   -387.44724   -113506.95    -117112.5    -113621.4 
  250000    1401.1173   -975.88887   -113633.41   -117192.38   -113921.74 
Loop time of 639.087 on 2 procs for 9505 steps with 19652 atoms

Performance: 1.285 ns/day, 18.677 hours/ns, 14.873 timesteps/s
97.8% CPU use with 2 MPI tasks x no OpenMP threads

MPI task timing breakdown:
Section |  min time  |  avg time  |  max time  |%varavg| %total
---------------------------------------------------------------
Pair    | 333.52     | 333.82     | 334.12     |   1.6 | 52.23
Neigh   | 254.25     | 257.02     | 259.79     |  17.3 | 40.22
Comm    | 34.718     | 37.877     | 41.035     |  51.3 |  5.93
Output  | 0.024974   | 0.024981   | 0.024988   |   0.0 |  0.00
Modify  | 8.4373     | 8.4963     | 8.5553     |   2.0 |  1.33
Other   |            | 1.85       |            |       |  0.29

Nlocal:    9826 ave 9832 max 9820 min
Histogram: 1 0 0 0 0 0 0 0 0 1
Nghost:    11085.5 ave 11108 max 11063 min
Histogram: 1 0 0 0 0 0 0 0 0 1
Neighs:    522383 ave 522474 max 522292 min
Histogram: 1 0 0 0 0 0 0 0 0 1

Total # of neighbors = 1044766
Ave neighs/atom = 53.1633
Neighbor list builds = 9505
Dangerous builds not checked
Setting up Verlet run ...
  Unit style    : metal
  Current step  : 250000
  Time step     : 0.001
Per MPI rank memory allocation (min/avg/max) = 11.3 | 11.3 | 11.3 Mbytes
Step Temp Press TotEng PotEng Enthalpy 
  250000    1401.1173   -975.88887   -113633.41   -117192.38   -113921.74 
  250495    1363.4419    32.589221   -113861.52   -117324.78   -113851.92 
Loop time of 29.0427 on 2 procs for 495 steps with 19652 atoms

Performance: 1.473 ns/day, 16.298 hours/ns, 17.044 timesteps/s
99.9% CPU use with 2 MPI tasks x no OpenMP threads

MPI task timing breakdown:
Section |  min time  |  avg time  |  max time  |%varavg| %total
---------------------------------------------------------------
Pair    | 14.976     | 14.986     | 14.995     |   0.2 | 51.60
Neigh   | 12.119     | 12.26      | 12.402     |   4.0 | 42.21
Comm    | 1.2093     | 1.3667     | 1.5241     |  13.5 |  4.71
Output  | 9.799e-05  | 0.00013804 | 0.0001781  |   0.0 |  0.00
Modify  | 0.33782    | 0.34243    | 0.34705    |   0.8 |  1.18
Other   |            | 0.08768    |            |       |  0.30

Nlocal:    9826 ave 9831 max 9821 min
Histogram: 1 0 0 0 0 0 0 0 0 1
Nghost:    11104 ave 11117 max 11091 min
Histogram: 1 0 0 0 0 0 0 0 0 1
Neighs:    523896 ave 524137 max 523655 min
Histogram: 1 0 0 0 0 0 0 0 0 1

Total # of neighbors = 1047792
Ave neighs/atom = 53.3173
Neighbor list builds = 495
Dangerous builds not checked
Setting up Verlet run ...
  Unit style    : metal
  Current step  : 250495
  Time step     : 0.001
Per MPI rank memory allocation (min/avg/max) = 11.3 | 11.3 | 11.3 Mbytes
Step Temp Press TotEng PotEng Enthalpy 
  250495    1363.4419    32.589221   -113861.52   -117324.78   -113851.92 
  260000     1353.409   -47.582835   -113943.78   -117381.56    -113957.8 
Loop time of 687.852 on 2 procs for 9505 steps with 19652 atoms

Performance: 1.194 ns/day, 20.102 hours/ns, 13.818 timesteps/s
98.4% CPU use with 2 MPI tasks x no OpenMP threads

MPI task timing breakdown:
Section |  min time  |  avg time  |  max time  |%varavg| %total
---------------------------------------------------------------
Pair    | 363.99     | 364.78     | 365.56     |   4.1 | 53.03
Neigh   | 274.6      | 275.66     | 276.71     |   6.3 | 40.08
Comm    | 35.107     | 35.391     | 35.675     |   4.8 |  5.15
Output  | 0.036336   | 0.036367   | 0.036398   |   0.0 |  0.01
Modify  | 9.9089     | 9.9142     | 9.9196     |   0.2 |  1.44
Other   |            | 2.075      |            |       |  0.30

Nlocal:    9826 ave 9837 max 9815 min
Histogram: 1 0 0 0 0 0 0 0 0 1
Nghost:    11129 ave 11141 max 11117 min
Histogram: 1 0 0 0 0 0 0 0 0 1
Neighs:    523996 ave 524562 max 523430 min
Histogram: 1 0 0 0 0 0 0 0 0 1

Total # of neighbors = 1047992
Ave neighs/atom = 53.3275
Neighbor list builds = 9505
Dangerous builds not checked
Setting up Verlet run ...
  Unit style    : metal
  Current step  : 260000
  Time step     : 0.001
Per MPI rank memory allocation (min/avg/max) = 11.3 | 11.3 | 11.3 Mbytes
Step Temp Press TotEng PotEng Enthalpy 
  260000     1353.409   -47.582835   -113943.78   -117381.56    -113957.8 
  260495    1318.3776     8.873364   -114186.25   -117535.05   -114183.64 
Loop time of 35.7514 on 2 procs for 495 steps with 19652 atoms

Performance: 1.196 ns/day, 20.062 hours/ns, 13.846 timesteps/s
99.9% CPU use with 2 MPI tasks x no OpenMP threads

MPI task timing breakdown:
Section |  min time  |  avg time  |  max time  |%varavg| %total
---------------------------------------------------------------
Pair    | 18.926     | 19.06      | 19.194     |   3.1 | 53.31
Neigh   | 14.661     | 14.698     | 14.734     |   1.0 | 41.11
Comm    | 1.2701     | 1.4424     | 1.6146     |  14.3 |  4.03
Output  | 0.00011015 | 0.00016558 | 0.00022101 |   0.0 |  0.00
Modify  | 0.4333     | 0.43474    | 0.43617    |   0.2 |  1.22
Other   |            | 0.1164     |            |       |  0.33

Nlocal:    9826 ave 9827 max 9825 min
Histogram: 1 0 0 0 0 0 0 0 0 1
Nghost:    11117 ave 11122 max 11112 min
Histogram: 1 0 0 0 0 0 0 0 0 1
Neighs:    524767 ave 525166 max 524368 min
Histogram: 1 0 0 0 0 0 0 0 0 1

Total # of neighbors = 1049534
Ave neighs/atom = 53.406
Neighbor list builds = 495
Dangerous builds not checked
Setting up Verlet run ...
  Unit style    : metal
  Current step  : 260495
  Time step     : 0.001
Per MPI rank memory allocation (min/avg/max) = 11.3 | 11.3 | 11.3 Mbytes
Step Temp Press TotEng PotEng Enthalpy 
  260495    1318.3776     8.873364   -114186.25   -117535.05   -114183.64 
  270000    1300.6953   -148.79727   -114345.04   -117648.92   -114388.79 
Loop time of 701.291 on 2 procs for 9505 steps with 19652 atoms

Performance: 1.171 ns/day, 20.495 hours/ns, 13.554 timesteps/s
99.6% CPU use with 2 MPI tasks x no OpenMP threads

MPI task timing breakdown:
Section |  min time  |  avg time  |  max time  |%varavg| %total
---------------------------------------------------------------
Pair    | 374.43     | 375.44     | 376.45     |   5.2 | 53.54
Neigh   | 284.95     | 286.11     | 287.26     |   6.8 | 40.80
Comm    | 26.974     | 29.116     | 31.258     |  39.7 |  4.15
Output  | 0.039343   | 0.039362   | 0.03938    |   0.0 |  0.01
Modify  | 8.3118     | 8.3448     | 8.3779     |   1.1 |  1.19
Other   |            | 2.246      |            |       |  0.32

Nlocal:    9826 ave 9847 max 9805 min
Histogram: 1 0 0 0 0 0 0 0 0 1
Nghost:    11099 ave 11117 max 11081 min
Histogram: 1 0 0 0 0 0 0 0 0 1
Neighs:    525526 ave 526600 max 524453 min
Histogram: 1 0 0 0 0 0 0 0 0 1

Total # of neighbors = 1051053
Ave neighs/atom = 53.4833
Neighbor list builds = 9505
Dangerous builds not checked
Setting up Verlet run ...
  Unit style    : metal
  Current step  : 270000
  Time step     : 0.001
Per MPI rank memory allocation (min/avg/max) = 11.3 | 11.3 | 11.3 Mbytes
Step Temp Press TotEng PotEng Enthalpy 
  270000    1300.6953   -148.79727   -114345.04   -117648.92   -114388.79 
  270495    1274.1314   -255.90036   -114512.69    -117749.1   -114587.87 
Loop time of 35.9535 on 2 procs for 495 steps with 19652 atoms

Performance: 1.190 ns/day, 20.176 hours/ns, 13.768 timesteps/s
99.6% CPU use with 2 MPI tasks x no OpenMP threads

MPI task timing breakdown:
Section |  min time  |  avg time  |  max time  |%varavg| %total
---------------------------------------------------------------
Pair    | 19.235     | 19.273     | 19.312     |   0.9 | 53.61
Neigh   | 14.757     | 14.773     | 14.79      |   0.4 | 41.09
Comm    | 1.3329     | 1.3549     | 1.3769     |   1.9 |  3.77
Output  | 0.00010395 | 0.00021648 | 0.00032902 |   0.0 |  0.00
Modify  | 0.4342     | 0.43437    | 0.43453    |   0.0 |  1.21
Other   |            | 0.1174     |            |       |  0.33

Nlocal:    9826 ave 9852 max 9800 min
Histogram: 1 0 0 0 0 0 0 0 0 1
Nghost:    11150 ave 11160 max 11140 min
Histogram: 1 0 0 0 0 0 0 0 0 1
Neighs:    525936 ave 528915 max 522957 min
Histogram: 1 0 0 0 0 0 0 0 0 1

Total # of neighbors = 1051872
Ave neighs/atom = 53.5249
Neighbor list builds = 495
Dangerous builds not checked
Setting up Verlet run ...
  Unit style    : metal
  Current step  : 270495
  Time step     : 0.001
Per MPI rank memory allocation (min/avg/max) = 11.3 | 11.3 | 11.3 Mbytes
Step Temp Press TotEng PotEng Enthalpy 
  270495    1274.1314   -255.90036   -114512.69    -117749.1   -114587.87 
  280000    1240.1948    225.74538   -114687.27   -117837.48   -114621.01 
Loop time of 702.006 on 2 procs for 9505 steps with 19652 atoms

Performance: 1.170 ns/day, 20.516 hours/ns, 13.540 timesteps/s
99.2% CPU use with 2 MPI tasks x no OpenMP threads

MPI task timing breakdown:
Section |  min time  |  avg time  |  max time  |%varavg| %total
---------------------------------------------------------------
Pair    | 375.63     | 376.33     | 377.04     |   3.6 | 53.61
Neigh   | 285.3      | 285.3      | 285.3      |   0.0 | 40.64
Comm    | 28.49      | 29.194     | 29.898     |  13.0 |  4.16
Output  | 0.033659   | 0.03369    | 0.033722   |   0.0 |  0.00
Modify  | 8.8947     | 8.8971     | 8.8995     |   0.1 |  1.27
Other   |            | 2.245      |            |       |  0.32

Nlocal:    9826 ave 9834 max 9818 min
Histogram: 1 0 0 0 0 0 0 0 0 1
Nghost:    11160 ave 11186 max 11134 min
Histogram: 1 0 0 0 0 0 0 0 0 1
Neighs:    526903 ave 527177 max 526629 min
Histogram: 1 0 0 0 0 0 0 0 0 1

Total # of neighbors = 1053806
Ave neighs/atom = 53.6233
Neighbor list builds = 9505
Dangerous builds not checked
Setting up Verlet run ...
  Unit style    : metal
  Current step  : 280000
  Time step     : 0.001
Per MPI rank memory allocation (min/avg/max) = 11.3 | 11.3 | 11.3 Mbytes
Step Temp Press TotEng PotEng Enthalpy 
  280000    1240.1948    225.74538   -114687.27   -117837.48   -114621.01 
  280495    1220.4356    305.73282   -114893.97   -117993.99   -114804.34 
Loop time of 35.2429 on 2 procs for 495 steps with 19652 atoms

Performance: 1.214 ns/day, 19.777 hours/ns, 14.045 timesteps/s
99.9% CPU use with 2 MPI tasks x no OpenMP threads

MPI task timing breakdown:
Section |  min time  |  avg time  |  max time  |%varavg| %total
---------------------------------------------------------------
Pair    | 18.628     | 18.753     | 18.878     |   2.9 | 53.21
Neigh   | 14.171     | 14.35      | 14.529     |   4.7 | 40.72
Comm    | 1.5388     | 1.5972     | 1.6556     |   4.6 |  4.53
Output  | 9.8944e-05 | 0.00012589 | 0.00015283 |   0.0 |  0.00
Modify  | 0.42477    | 0.42752    | 0.43027    |   0.4 |  1.21
Other   |            | 0.1148     |            |       |  0.33

Nlocal:    9826 ave 9827 max 9825 min
Histogram: 1 0 0 0 0 0 0 0 0 1
Nghost:    11206 ave 11236 max 11176 min
Histogram: 1 0 0 0 0 0 0 0 0 1
Neighs:    527828 ave 528436 max 527220 min
Histogram: 1 0 0 0 0 0 0 0 0 1

Total # of neighbors = 1055656
Ave neighs/atom = 53.7175
Neighbor list builds = 495
Dangerous builds not checked
Setting up Verlet run ...
  Unit style    : metal
  Current step  : 280495
  Time step     : 0.001
Per MPI rank memory allocation (min/avg/max) = 11.3 | 11.3 | 11.3 Mbytes
Step Temp Press TotEng PotEng Enthalpy 
  280495    1220.4356    305.73282   -114893.97   -117993.99   -114804.34 
  290000      1214.39    288.43804   -115002.32   -118086.98    -114917.8 
Loop time of 697.63 on 2 procs for 9505 steps with 19652 atoms

Performance: 1.177 ns/day, 20.388 hours/ns, 13.625 timesteps/s
99.6% CPU use with 2 MPI tasks x no OpenMP threads

MPI task timing breakdown:
Section |  min time  |  avg time  |  max time  |%varavg| %total
---------------------------------------------------------------
Pair    | 373.27     | 373.5      | 373.73     |   1.2 | 53.54
Neigh   | 283.53     | 283.71     | 283.89     |   1.1 | 40.67
Comm    | 29.818     | 29.878     | 29.937     |   1.1 |  4.28
Output  | 0.037981   | 0.038007   | 0.038034   |   0.0 |  0.01
Modify  | 8.2663     | 8.2714     | 8.2764     |   0.2 |  1.19
Other   |            | 2.232      |            |       |  0.32

Nlocal:    9826 ave 9833 max 9819 min
Histogram: 1 0 0 0 0 0 0 0 0 1
Nghost:    11147 ave 11153 max 11141 min
Histogram: 1 0 0 0 0 0 0 0 0 1
Neighs:    528400 ave 528437 max 528362 min
Histogram: 1 0 0 0 0 0 0 0 0 1

Total # of neighbors = 1056799
Ave neighs/atom = 53.7756
Neighbor list builds = 9505
Dangerous builds not checked
Setting up Verlet run ...
  Unit style    : metal
  Current step  : 290000
  Time step     : 0.001
Per MPI rank memory allocation (min/avg/max) = 11.3 | 11.3 | 11.3 Mbytes
Step Temp Press TotEng PotEng Enthalpy 
  290000      1214.39    288.43804   -115002.32   -118086.98    -114917.8 
  290495    1160.5307   -354.44847   -115232.48   -118180.33   -115336.31 
Loop time of 34.6438 on 2 procs for 495 steps with 19652 atoms

Performance: 1.235 ns/day, 19.441 hours/ns, 14.288 timesteps/s
100.0% CPU use with 2 MPI tasks x no OpenMP threads

MPI task timing breakdown:
Section |  min time  |  avg time  |  max time  |%varavg| %total
---------------------------------------------------------------
Pair    | 18.352     | 18.416     | 18.479     |   1.5 | 53.16
Neigh   | 14.066     | 14.087     | 14.107     |   0.6 | 40.66
Comm    | 1.5676     | 1.613      | 1.6585     |   3.6 |  4.66
Output  | 8.297e-05  | 0.00012445 | 0.00016594 |   0.0 |  0.00
Modify  | 0.41405    | 0.41595    | 0.41784    |   0.3 |  1.20
Other   |            | 0.1124     |            |       |  0.32

Nlocal:    9826 ave 9833 max 9819 min
Histogram: 1 0 0 0 0 0 0 0 0 1
Nghost:    11124 ave 11131 max 11117 min
Histogram: 1 0 0 0 0 0 0 0 0 1
Neighs:    528427 ave 529306 max 527548 min
Histogram: 1 0 0 0 0 0 0 0 0 1

Total # of neighbors = 1056854
Ave neighs/atom = 53.7784
Neighbor list builds = 495
Dangerous builds not checked
Setting up Verlet run ...
  Unit style    : metal
  Current step  : 290495
  Time step     : 0.001
Per MPI rank memory allocation (min/avg/max) = 11.3 | 11.3 | 11.3 Mbytes
Step Temp Press TotEng PotEng Enthalpy 
  290495    1160.5307   -354.44847   -115232.48   -118180.33   -115336.31 
  300000    1159.7724    913.61746   -115381.76   -118327.69    -115114.8 
Loop time of 700.47 on 2 procs for 9505 steps with 19652 atoms

Performance: 1.172 ns/day, 20.471 hours/ns, 13.569 timesteps/s
99.0% CPU use with 2 MPI tasks x no OpenMP threads

MPI task timing breakdown:
Section |  min time  |  avg time  |  max time  |%varavg| %total
---------------------------------------------------------------
Pair    | 372.73     | 372.97     | 373.21     |   1.2 | 53.25
Neigh   | 284.03     | 284.09     | 284.15     |   0.4 | 40.56
Comm    | 31.257     | 31.573     | 31.888     |   5.6 |  4.51
Output  | 0.037948   | 0.038      | 0.038053   |   0.0 |  0.01
Modify  | 9.5451     | 9.5564     | 9.5677     |   0.4 |  1.36
Other   |            | 2.245      |            |       |  0.32

Nlocal:    9826 ave 9829 max 9823 min
Histogram: 1 0 0 0 0 0 0 0 0 1
Nghost:    11191.5 ave 11206 max 11177 min
Histogram: 1 0 0 0 0 0 0 0 0 1
Neighs:    530143 ave 530412 max 529874 min
Histogram: 1 0 0 0 0 0 0 0 0 1

Total # of neighbors = 1060286
Ave neighs/atom = 53.9531
Neighbor list builds = 9505
Dangerous builds not checked
Setting up Verlet run ...
  Unit style    : metal
  Current step  : 300000
  Time step     : 0.001
Per MPI rank memory allocation (min/avg/max) = 11.3 | 11.3 | 11.3 Mbytes
Step Temp Press TotEng PotEng Enthalpy 
[...]
Nghost:    11260.5 ave 11279 max 11242 min
Histogram: 1 0 0 0 0 0 0 0 0 1
Neighs:    553427 ave 554662 max 552192 min
Histogram: 1 0 0 0 0 0 0 0 0 1

Total # of neighbors = 1106854
Ave neighs/atom = 56.3227
Neighbor list builds = 9505
Dangerous builds not checked
Setting up Verlet run ...
  Unit style    : metal
  Current step  : 440000
  Time step     : 0.001
Per MPI rank memory allocation (min/avg/max) = 11.3 | 11.3 | 11.3 Mbytes
Step Temp Press TotEng PotEng Enthalpy 
  440000    450.38213   -1164.4149    -121256.7   -122400.71   -121589.94 
  440495    418.06349    955.41946   -121422.29   -122484.21   -121149.67 
Loop time of 36.2759 on 2 procs for 495 steps with 19652 atoms

Performance: 1.179 ns/day, 20.357 hours/ns, 13.645 timesteps/s
91.9% CPU use with 2 MPI tasks x no OpenMP threads

MPI task timing breakdown:
Section |  min time  |  avg time  |  max time  |%varavg| %total
---------------------------------------------------------------
Pair    | 19.541     | 19.722     | 19.903     |   4.1 | 54.37
Neigh   | 12.515     | 13.749     | 14.983     |  33.3 | 37.90
Comm    | 1.2398     | 2.3175     | 3.3951     |  70.8 |  6.39
Output  | 9.2983e-05 | 0.00013304 | 0.00017309 |   0.0 |  0.00
Modify  | 0.37426    | 0.39323    | 0.41219    |   3.0 |  1.08
Other   |            | 0.0945     |            |       |  0.26

Nlocal:    9826 ave 9841 max 9811 min
Histogram: 1 0 0 0 0 0 0 0 0 1
Nghost:    11273.5 ave 11279 max 11268 min
Histogram: 1 0 0 0 0 0 0 0 0 1
Neighs:    555565 ave 557633 max 553497 min
Histogram: 1 0 0 0 0 0 0 0 0 1

Total # of neighbors = 1111130
Ave neighs/atom = 56.5403
Neighbor list builds = 495
Dangerous builds not checked
Setting up Verlet run ...
  Unit style    : metal
  Current step  : 440495
  Time step     : 0.001
Per MPI rank memory allocation (min/avg/max) = 11.3 | 11.3 | 11.3 Mbytes
Step Temp Press TotEng PotEng Enthalpy 
  440495    418.06349    955.41946   -121422.29   -122484.21   -121149.67 
  450000    398.41654   -337.40552   -121568.83   -122580.84   -121665.21 
Loop time of 631.878 on 2 procs for 9505 steps with 19652 atoms

Performance: 1.300 ns/day, 18.466 hours/ns, 15.042 timesteps/s
95.9% CPU use with 2 MPI tasks x no OpenMP threads

MPI task timing breakdown:
Section |  min time  |  avg time  |  max time  |%varavg| %total
---------------------------------------------------------------
Pair    | 338.48     | 339.16     | 339.85     |   3.7 | 53.68
Neigh   | 245.88     | 246.43     | 246.97     |   3.5 | 39.00
Comm    | 36.557     | 36.732     | 36.908     |   2.9 |  5.81
Output  | 0.025396   | 0.025403   | 0.02541    |   0.0 |  0.00
Modify  | 7.3086     | 7.6738     | 8.0391     |  13.2 |  1.21
Other   |            | 1.855      |            |       |  0.29

Nlocal:    9826 ave 9845 max 9807 min
Histogram: 1 0 0 0 0 0 0 0 0 1
Nghost:    11254.5 ave 11259 max 11250 min
Histogram: 1 0 0 0 0 0 0 0 0 1
Neighs:    554905 ave 557390 max 552420 min
Histogram: 1 0 0 0 0 0 0 0 0 1

Total # of neighbors = 1109810
Ave neighs/atom = 56.4731
Neighbor list builds = 9505
Dangerous builds not checked
Setting up Verlet run ...
  Unit style    : metal
  Current step  : 450000
  Time step     : 0.001
Per MPI rank memory allocation (min/avg/max) = 11.3 | 11.3 | 11.3 Mbytes
Step Temp Press TotEng PotEng Enthalpy 
  450000    398.41654   -337.40552   -121568.83   -122580.84   -121665.21 
  450495    371.29489    246.90559   -121718.14   -122661.27    -121647.7 
Loop time of 28.4046 on 2 procs for 495 steps with 19652 atoms

Performance: 1.506 ns/day, 15.940 hours/ns, 17.427 timesteps/s
99.8% CPU use with 2 MPI tasks x no OpenMP threads

MPI task timing breakdown:
Section |  min time  |  avg time  |  max time  |%varavg| %total
---------------------------------------------------------------
Pair    | 14.874     | 14.89      | 14.906     |   0.4 | 52.42
Neigh   | 11.927     | 11.944     | 11.961     |   0.5 | 42.05
Comm    | 1.1465     | 1.1472     | 1.1479     |   0.1 |  4.04
Output  | 7.2956e-05 | 0.00011253 | 0.00015211 |   0.0 |  0.00
Modify  | 0.33745    | 0.33791    | 0.33838    |   0.1 |  1.19
Other   |            | 0.08537    |            |       |  0.30

Nlocal:    9826 ave 9845 max 9807 min
Histogram: 1 0 0 0 0 0 0 0 0 1
Nghost:    11254 ave 11261 max 11247 min
Histogram: 1 0 0 0 0 0 0 0 0 1
Neighs:    555768 ave 558685 max 552852 min
Histogram: 1 0 0 0 0 0 0 0 0 1

Total # of neighbors = 1111537
Ave neighs/atom = 56.561
Neighbor list builds = 495
Dangerous builds not checked
Setting up Verlet run ...
  Unit style    : metal
  Current step  : 450495
  Time step     : 0.001
Per MPI rank memory allocation (min/avg/max) = 11.3 | 11.3 | 11.3 Mbytes
Step Temp Press TotEng PotEng Enthalpy 
  450495    371.29489    246.90559   -121718.14   -122661.27    -121647.7 
  460000     349.0489   -255.02517   -121883.48   -122770.09   -121956.26 
Loop time of 585.036 on 2 procs for 9505 steps with 19652 atoms

Performance: 1.404 ns/day, 17.097 hours/ns, 16.247 timesteps/s
97.6% CPU use with 2 MPI tasks x no OpenMP threads

MPI task timing breakdown:
Section |  min time  |  avg time  |  max time  |%varavg| %total
---------------------------------------------------------------
Pair    | 310.65     | 311.89     | 313.12     |   7.0 | 53.31
Neigh   | 225.87     | 235.1      | 244.32     |  60.2 | 40.19
Comm    | 21.277     | 29.541     | 37.804     | 152.0 |  5.05
Output  | 0.027917   | 0.027937   | 0.027958   |   0.0 |  0.00
Modify  | 6.6052     | 6.7777     | 6.9502     |   6.6 |  1.16
Other   |            | 1.703      |            |       |  0.29

Nlocal:    9826 ave 9848 max 9804 min
Histogram: 1 0 0 0 0 0 0 0 0 1
Nghost:    11300.5 ave 11308 max 11293 min
Histogram: 1 0 0 0 0 0 0 0 0 1
Neighs:    555866 ave 558611 max 553122 min
Histogram: 1 0 0 0 0 0 0 0 0 1

Total # of neighbors = 1111733
Ave neighs/atom = 56.571
Neighbor list builds = 9505
Dangerous builds not checked
Setting up Verlet run ...
  Unit style    : metal
  Current step  : 460000
  Time step     : 0.001
Per MPI rank memory allocation (min/avg/max) = 11.3 | 11.3 | 11.3 Mbytes
Step Temp Press TotEng PotEng Enthalpy 
  460000     349.0489   -255.02517   -121883.48   -122770.09   -121956.26 
  460495    322.48622   -338.95858   -122019.91   -122839.06   -122116.61 
Loop time of 28.7115 on 2 procs for 495 steps with 19652 atoms

Performance: 1.490 ns/day, 16.112 hours/ns, 17.240 timesteps/s
99.1% CPU use with 2 MPI tasks x no OpenMP threads

MPI task timing breakdown:
Section |  min time  |  avg time  |  max time  |%varavg| %total
---------------------------------------------------------------
Pair    | 14.956     | 15.04      | 15.124     |   2.2 | 52.38
Neigh   | 11.307     | 11.843     | 12.379     |  15.6 | 41.25
Comm    | 0.93932    | 1.4119     | 1.8846     |  39.8 |  4.92
Output  | 7.7963e-05 | 0.00011194 | 0.00014591 |   0.0 |  0.00
Modify  | 0.31752    | 0.33273    | 0.34795    |   2.6 |  1.16
Other   |            | 0.08364    |            |       |  0.29

Nlocal:    9826 ave 9841 max 9811 min
Histogram: 1 0 0 0 0 0 0 0 0 1
Nghost:    11282 ave 11287 max 11277 min
Histogram: 1 0 0 0 0 0 0 0 0 1
Neighs:    556112 ave 558497 max 553728 min
Histogram: 1 0 0 0 0 0 0 0 0 1

Total # of neighbors = 1112225
Ave neighs/atom = 56.596
Neighbor list builds = 495
Dangerous builds not checked
Setting up Verlet run ...
  Unit style    : metal
  Current step  : 460495
  Time step     : 0.001
Per MPI rank memory allocation (min/avg/max) = 11.3 | 11.3 | 11.3 Mbytes
Step Temp Press TotEng PotEng Enthalpy 
  460495    322.48622   -338.95858   -122019.91   -122839.06   -122116.61 
  470000     300.9472   -564.38189   -122175.27   -122939.71   -122336.28 
Loop time of 527.483 on 2 procs for 9505 steps with 19652 atoms

Performance: 1.557 ns/day, 15.415 hours/ns, 18.020 timesteps/s
99.5% CPU use with 2 MPI tasks x no OpenMP threads

MPI task timing breakdown:
Section |  min time  |  avg time  |  max time  |%varavg| %total
---------------------------------------------------------------
Pair    | 277.6      | 277.91     | 278.22     |   1.9 | 52.69
Neigh   | 219.37     | 221.32     | 223.27     |  13.1 | 41.96
Comm    | 18.274     | 20.599     | 22.925     |  51.2 |  3.91
Output  | 0.022187   | 0.022197   | 0.022208   |   0.0 |  0.00
Modify  | 6.0148     | 6.0704     | 6.126      |   2.3 |  1.15
Other   |            | 1.56       |            |       |  0.30

Nlocal:    9826 ave 9852 max 9800 min
Histogram: 1 0 0 0 0 0 0 0 0 1
Nghost:    11279.5 ave 11288 max 11271 min
Histogram: 1 0 0 0 0 0 0 0 0 1
Neighs:    556535 ave 560051 max 553019 min
Histogram: 1 0 0 0 0 0 0 0 0 1

Total # of neighbors = 1113070
Ave neighs/atom = 56.639
Neighbor list builds = 9505
Dangerous builds not checked
Setting up Verlet run ...
  Unit style    : metal
  Current step  : 470000
  Time step     : 0.001
Per MPI rank memory allocation (min/avg/max) = 11.3 | 11.3 | 11.3 Mbytes
Step Temp Press TotEng PotEng Enthalpy 
  470000     300.9472   -564.38189   -122175.27   -122939.71   -122336.28 
  470495    272.92215   -396.54455   -122315.09   -123008.34   -122428.14 
Loop time of 27.0294 on 2 procs for 495 steps with 19652 atoms

Performance: 1.582 ns/day, 15.168 hours/ns, 18.313 timesteps/s
98.4% CPU use with 2 MPI tasks x no OpenMP threads

MPI task timing breakdown:
Section |  min time  |  avg time  |  max time  |%varavg| %total
---------------------------------------------------------------
Pair    | 13.896     | 13.973     | 14.05      |   2.1 | 51.70
Neigh   | 11.021     | 11.262     | 11.504     |   7.2 | 41.67
Comm    | 1.2378     | 1.4122     | 1.5865     |  14.7 |  5.22
Output  | 9.5844e-05 | 0.00012302 | 0.0001502  |   0.0 |  0.00
Modify  | 0.29663    | 0.30388    | 0.31112    |   1.3 |  1.12
Other   |            | 0.07829    |            |       |  0.29

Nlocal:    9826 ave 9855 max 9797 min
Histogram: 1 0 0 0 0 0 0 0 0 1
Nghost:    11262.5 ave 11274 max 11251 min
Histogram: 1 0 0 0 0 0 0 0 0 1
Neighs:    557028 ave 560392 max 553664 min
Histogram: 1 0 0 0 0 0 0 0 0 1

Total # of neighbors = 1114056
Ave neighs/atom = 56.6892
Neighbor list builds = 495
Dangerous builds not checked
Setting up Verlet run ...
  Unit style    : metal
  Current step  : 470495
  Time step     : 0.001
Per MPI rank memory allocation (min/avg/max) = 11.3 | 11.3 | 11.3 Mbytes
Step Temp Press TotEng PotEng Enthalpy 
  470495    272.92215   -396.54455   -122315.09   -123008.34   -122428.14 
  480000     254.3225   -541.41386   -122462.69    -123108.7   -122617.05 
Loop time of 493.686 on 2 procs for 9505 steps with 19652 atoms

Performance: 1.663 ns/day, 14.428 hours/ns, 19.253 timesteps/s
99.8% CPU use with 2 MPI tasks x no OpenMP threads

MPI task timing breakdown:
Section |  min time  |  avg time  |  max time  |%varavg| %total
---------------------------------------------------------------
Pair    | 257.51     | 258.33     | 259.14     |   5.1 | 52.33
Neigh   | 211.01     | 211.53     | 212.05     |   3.6 | 42.85
Comm    | 15.381     | 16.732     | 18.083     |  33.0 |  3.39
Output  | 0.02235    | 0.02235    | 0.02235    |   0.0 |  0.00
Modify  | 5.5875     | 5.6045     | 5.6216     |   0.7 |  1.14
Other   |            | 1.468      |            |       |  0.30

Nlocal:    9826 ave 9844 max 9808 min
Histogram: 1 0 0 0 0 0 0 0 0 1
Nghost:    11271.5 ave 11280 max 11263 min
Histogram: 1 0 0 0 0 0 0 0 0 1
Neighs:    557854 ave 560013 max 555695 min
Histogram: 1 0 0 0 0 0 0 0 0 1

Total # of neighbors = 1115708
Ave neighs/atom = 56.7733
Neighbor list builds = 9505
Dangerous builds not checked
Setting up Verlet run ...
  Unit style    : metal
  Current step  : 480000
  Time step     : 0.001
Per MPI rank memory allocation (min/avg/max) = 11.3 | 11.3 | 11.3 Mbytes
Step Temp Press TotEng PotEng Enthalpy 
  480000     254.3225   -541.41386   -122462.69    -123108.7   -122617.05 
  480495    223.94602    449.56406   -122604.37   -123173.22   -122476.41 
Loop time of 24.4415 on 2 procs for 495 steps with 19652 atoms

Performance: 1.750 ns/day, 13.716 hours/ns, 20.252 timesteps/s
98.5% CPU use with 2 MPI tasks x no OpenMP threads

MPI task timing breakdown:
Section |  min time  |  avg time  |  max time  |%varavg| %total
---------------------------------------------------------------
Pair    | 12.382     | 12.454     | 12.526     |   2.0 | 50.95
Neigh   | 10.531     | 10.624     | 10.717     |   2.9 | 43.47
Comm    | 0.9936     | 1.0179     | 1.0422     |   2.4 |  4.16
Output  | 5.4121e-05 | 8.4162e-05 | 0.0001142  |   0.0 |  0.00
Modify  | 0.27081    | 0.27282    | 0.27483    |   0.4 |  1.12
Other   |            | 0.07266    |            |       |  0.30

Nlocal:    9826 ave 9841 max 9811 min
Histogram: 1 0 0 0 0 0 0 0 0 1
Nghost:    11274.5 ave 11276 max 11273 min
Histogram: 1 0 0 0 0 0 0 0 0 1
Neighs:    558558 ave 560661 max 556454 min
Histogram: 1 0 0 0 0 0 0 0 0 1

Total # of neighbors = 1117115
Ave neighs/atom = 56.8449
Neighbor list builds = 495
Dangerous builds not checked
Setting up Verlet run ...
  Unit style    : metal
  Current step  : 480495
  Time step     : 0.001
Per MPI rank memory allocation (min/avg/max) = 11.3 | 11.3 | 11.3 Mbytes
Step Temp Press TotEng PotEng Enthalpy 
  480495    223.94602    449.56406   -122604.37   -123173.22   -122476.41 
  490000    199.45572    482.73583    -122736.3   -123242.93   -122598.94 
Loop time of 492.049 on 2 procs for 9505 steps with 19652 atoms

Performance: 1.669 ns/day, 14.380 hours/ns, 19.317 timesteps/s
99.6% CPU use with 2 MPI tasks x no OpenMP threads

MPI task timing breakdown:
Section |  min time  |  avg time  |  max time  |%varavg| %total
---------------------------------------------------------------
Pair    | 255.72     | 256.54     | 257.36     |   5.1 | 52.14
Neigh   | 209.94     | 210.9      | 211.87     |   6.6 | 42.86
Comm    | 15.762     | 17.56      | 19.358     |  42.9 |  3.57
Output  | 0.024256   | 0.024279   | 0.024301   |   0.0 |  0.00
Modify  | 5.5487     | 5.563      | 5.5774     |   0.6 |  1.13
Other   |            | 1.456      |            |       |  0.30

Nlocal:    9826 ave 9844 max 9808 min
Histogram: 1 0 0 0 0 0 0 0 0 1
Nghost:    11301 ave 11310 max 11292 min
Histogram: 1 0 0 0 0 0 0 0 0 1
Neighs:    558793 ave 562016 max 555570 min
Histogram: 1 0 0 0 0 0 0 0 0 1

Total # of neighbors = 1117586
Ave neighs/atom = 56.8688
Neighbor list builds = 9505
Dangerous builds not checked
Setting up Verlet run ...
  Unit style    : metal
  Current step  : 490000
  Time step     : 0.001
Per MPI rank memory allocation (min/avg/max) = 11.3 | 11.3 | 11.3 Mbytes
Step Temp Press TotEng PotEng Enthalpy 
  490000    199.45572    482.73583    -122736.3   -123242.93   -122598.94 
  490495    174.36312    87.349878   -122862.54   -123305.44   -122837.69 
Loop time of 26.7466 on 2 procs for 495 steps with 19652 atoms

Performance: 1.599 ns/day, 15.009 hours/ns, 18.507 timesteps/s
99.3% CPU use with 2 MPI tasks x no OpenMP threads

MPI task timing breakdown:
Section |  min time  |  avg time  |  max time  |%varavg| %total
---------------------------------------------------------------
Pair    | 13.757     | 13.88      | 14.002     |   3.3 | 51.89
Neigh   | 10.67      | 11.176     | 11.682     |  15.1 | 41.78
Comm    | 0.91098    | 1.3135     | 1.7161     |  35.1 |  4.91
Output  | 7.8201e-05 | 9.6679e-05 | 0.00011516 |   0.0 |  0.00
Modify  | 0.28597    | 0.29941    | 0.31285    |   2.5 |  1.12
Other   |            | 0.07806    |            |       |  0.29

Nlocal:    9826 ave 9848 max 9804 min
Histogram: 1 0 0 0 0 0 0 0 0 1
Nghost:    11306.5 ave 11312 max 11301 min
Histogram: 1 0 0 0 0 0 0 0 0 1
Neighs:    559144 ave 562279 max 556009 min
Histogram: 1 0 0 0 0 0 0 0 0 1

Total # of neighbors = 1118288
Ave neighs/atom = 56.9045
Neighbor list builds = 495
Dangerous builds not checked
Setting up Verlet run ...
  Unit style    : metal
  Current step  : 490495
  Time step     : 0.001
Per MPI rank memory allocation (min/avg/max) = 11.3 | 11.3 | 11.3 Mbytes
Step Temp Press TotEng PotEng Enthalpy 
  490495    174.36312    87.349878   -122862.54   -123305.44   -122837.69 
  500000    149.35841     -608.518    -122992.9   -123372.29   -123166.12 
Loop time of 496.833 on 2 procs for 9505 steps with 19652 atoms

Performance: 1.653 ns/day, 14.520 hours/ns, 19.131 timesteps/s
99.5% CPU use with 2 MPI tasks x no OpenMP threads

MPI task timing breakdown:
Section |  min time  |  avg time  |  max time  |%varavg| %total
---------------------------------------------------------------
Pair    | 258.93     | 260.26     | 261.58     |   8.2 | 52.38
Neigh   | 211.84     | 212.36     | 212.87     |   3.5 | 42.74
Comm    | 15.759     | 16.561     | 17.362     |  19.7 |  3.33
Output  | 0.022751   | 0.022764   | 0.022777   |   0.0 |  0.00
Modify  | 6.152      | 6.1591     | 6.1661     |   0.3 |  1.24
Other   |            | 1.479      |            |       |  0.30

Nlocal:    9826 ave 9836 max 9816 min
Histogram: 1 0 0 0 0 0 0 0 0 1
Nghost:    11298 ave 11307 max 11289 min
Histogram: 1 0 0 0 0 0 0 0 0 1
Neighs:    558696 ave 561481 max 555911 min
Histogram: 1 0 0 0 0 0 0 0 0 1

Total # of neighbors = 1117392
Ave neighs/atom = 56.8589
Neighbor list builds = 9505
Dangerous builds not checked
Setting up Verlet run ...
  Unit style    : metal
  Current step  : 500000
  Time step     : 0.001
Per MPI rank memory allocation (min/avg/max) = 11.3 | 11.3 | 11.3 Mbytes
Step Temp Press TotEng PotEng Enthalpy 
  500000    149.35841     -608.518    -122992.9   -123372.29   -123166.12 
  500495    127.20324    441.86358   -123112.37   -123435.48   -122986.77 
Loop time of 25.8035 on 2 procs for 495 steps with 19652 atoms

Performance: 1.657 ns/day, 14.480 hours/ns, 19.183 timesteps/s
98.3% CPU use with 2 MPI tasks x no OpenMP threads

MPI task timing breakdown:
Section |  min time  |  avg time  |  max time  |%varavg| %total
---------------------------------------------------------------
Pair    | 13.551     | 13.623     | 13.695     |   1.9 | 52.80
Neigh   | 10.829     | 10.979     | 11.129     |   4.5 | 42.55
Comm    | 0.74978    | 0.83412    | 0.91846    |   9.2 |  3.23
Output  | 5.5075e-05 | 8.8573e-05 | 0.00012207 |   0.0 |  0.00
Modify  | 0.28698    | 0.29132    | 0.29566    |   0.8 |  1.13
Other   |            | 0.07613    |            |       |  0.30

Nlocal:    9826 ave 9847 max 9805 min
Histogram: 1 0 0 0 0 0 0 0 0 1
Nghost:    11313.5 ave 11328 max 11299 min
Histogram: 1 0 0 0 0 0 0 0 0 1
Neighs:    559876 ave 563301 max 556450 min
Histogram: 1 0 0 0 0 0 0 0 0 1

Total # of neighbors = 1119751
Ave neighs/atom = 56.979
Neighbor list builds = 495
Dangerous builds not checked
Setting up Verlet run ...
  Unit style    : metal
  Current step  : 500495
  Time step     : 0.001
Per MPI rank memory allocation (min/avg/max) = 11.3 | 11.3 | 11.3 Mbytes
Step Temp Press TotEng PotEng Enthalpy 
  500495    127.20324    441.86358   -123112.37   -123435.48   -122986.77 
  510000    98.733753    215.60299   -123254.03   -123504.82   -123192.76 
Loop time of 491.505 on 2 procs for 9505 steps with 19652 atoms

Performance: 1.671 ns/day, 14.364 hours/ns, 19.339 timesteps/s
99.9% CPU use with 2 MPI tasks x no OpenMP threads

MPI task timing breakdown:
Section |  min time  |  avg time  |  max time  |%varavg| %total
---------------------------------------------------------------
Pair    | 255.43     | 256.6      | 257.76     |   7.3 | 52.21
Neigh   | 209.86     | 210.92     | 211.97     |   7.3 | 42.91
Comm    | 16.837     | 16.899     | 16.961     |   1.5 |  3.44
Output  | 0.025375   | 0.025379   | 0.025383   |   0.0 |  0.01
Modify  | 5.5697     | 5.6026     | 5.6356     |   1.4 |  1.14
Other   |            | 1.467      |            |       |  0.30

Nlocal:    9826 ave 9855 max 9797 min
Histogram: 1 0 0 0 0 0 0 0 0 1
Nghost:    11319.5 ave 11322 max 11317 min
Histogram: 1 0 0 0 0 0 0 0 0 1
Neighs:    559768 ave 563892 max 555645 min
Histogram: 1 0 0 0 0 0 0 0 0 1

Total # of neighbors = 1119537
Ave neighs/atom = 56.9681
Neighbor list builds = 9505
Dangerous builds not checked
Total wall time: 9:30:46
