LAMMPS (12 Dec 2018)
Lattice spacing in x,y,z = 4 4 4
Created orthogonal box = (0 0 0) to (68 68 68)
  1 by 1 by 1 MPI processor grid
Created 19652 atoms
  Time spent = 0.00372386 secs
Setting atom values ...
  19281 settings made for type/fraction
Neighbor list info ...
  update every 1 steps, delay 0 steps, check no
  max neighbors/atom: 2000, page size: 100000
  master list distance cutoff = 8.5
  ghost atom cutoff = 8.5
  binsize = 4.25, bins = 16 16 16
  1 neighbor lists, perpetual/occasional/extra = 1 0 0
  (1) pair eam/alloy, perpetual
      attributes: half, newton on
      pair build: half/bin/atomonly/newton
      stencil: half/bin/3d/newton
      bin: standard
Setting up Verlet run ...
  Unit style    : metal
  Current step  : 0
  Time step     : 0.001
Per MPI rank memory allocation (min/avg/max) = 18.19 | 18.19 | 18.19 Mbytes
Step Temp Press TotEng PotEng Enthalpy Volume 
       0          300   -68135.309    -76852.93   -77614.958   -90224.691       314432 
     667    2042.7205    112859.89   -76854.048   -82042.744   -54704.953       314432 
    1000    2047.9068    113191.09    -76854.06    -82055.93   -54639.966       314432 
Loop time of 152.942 on 1 procs for 1000 steps with 19652 atoms

Performance: 0.565 ns/day, 42.484 hours/ns, 6.538 timesteps/s
99.6% CPU use with 1 MPI tasks x no OpenMP threads

MPI task timing breakdown:
Section |  min time  |  avg time  |  max time  |%varavg| %total
---------------------------------------------------------------
Pair    | 82.916     | 82.916     | 82.916     |   0.0 | 54.21
Neigh   | 67.223     | 67.223     | 67.223     |   0.0 | 43.95
Comm    | 1.4819     | 1.4819     | 1.4819     |   0.0 |  0.97
Output  | 0.041018   | 0.041018   | 0.041018   |   0.0 |  0.03
Modify  | 0.63523    | 0.63523    | 0.63523    |   0.0 |  0.42
Other   |            | 0.6451     |            |       |  0.42

Nlocal:    19652 ave 19652 max 19652 min
Histogram: 1 0 0 0 0 0 0 0 0 0
Nghost:    18794 ave 18794 max 18794 min
Histogram: 1 0 0 0 0 0 0 0 0 0
Neighs:    1.56922e+06 ave 1.56922e+06 max 1.56922e+06 min
Histogram: 1 0 0 0 0 0 0 0 0 0

Total # of neighbors = 1569223
Ave neighs/atom = 79.8505
Neighbor list builds = 1000
Dangerous builds not checked
Setting up Verlet run ...
  Unit style    : metal
  Current step  : 1000
  Time step     : 0.001
Per MPI rank memory allocation (min/avg/max) = 18.19 | 18.19 | 18.19 Mbytes
Step Temp Press TotEng PotEng Enthalpy Volume 
    1000    2047.9068    113191.09    -76854.06    -82055.93   -54639.966       314432 
    1334     762.6957    612.07302    -83543.88   -85481.196   -83405.062    363370.91 
    2000     340.3284   -77.944831   -86810.792   -87675.257   -86828.384    361608.86 
Loop time of 141.426 on 1 procs for 1000 steps with 19652 atoms

Performance: 0.611 ns/day, 39.285 hours/ns, 7.071 timesteps/s
99.6% CPU use with 1 MPI tasks x no OpenMP threads

MPI task timing breakdown:
Section |  min time  |  avg time  |  max time  |%varavg| %total
---------------------------------------------------------------
Pair    | 73.988     | 73.988     | 73.988     |   0.0 | 52.32
Neigh   | 63.935     | 63.935     | 63.935     |   0.0 | 45.21
Comm    | 1.185      | 1.185      | 1.185      |   0.0 |  0.84
Output  | 0.042788   | 0.042788   | 0.042788   |   0.0 |  0.03
Modify  | 1.6195     | 1.6195     | 1.6195     |   0.0 |  1.15
Other   |            | 0.6556     |            |       |  0.46

Nlocal:    19652 ave 19652 max 19652 min
Histogram: 1 0 0 0 0 0 0 0 0 0
Nghost:    17732 ave 17732 max 17732 min
Histogram: 1 0 0 0 0 0 0 0 0 0
Neighs:    1.36578e+06 ave 1.36578e+06 max 1.36578e+06 min
Histogram: 1 0 0 0 0 0 0 0 0 0

Total # of neighbors = 1365785
Ave neighs/atom = 69.4985
Neighbor list builds = 1000
Dangerous builds not checked
Setting up Verlet run ...
  Unit style    : metal
  Current step  : 2000
  Time step     : 0.001
Per MPI rank memory allocation (min/avg/max) = 18.19 | 18.19 | 18.19 Mbytes
Step Temp Press TotEng PotEng Enthalpy Volume 
    2000     340.3284   -77.944831   -86810.792   -87675.257   -86828.384    361608.86 
    2001    340.80801   -77.191112   -86810.804   -87676.487   -86828.226    361608.84 
    2668    419.72928   -624.53346   -86618.109   -87684.259   -86759.864    363657.36 
    3335    579.57952   -240.98338    -85766.29   -87238.475   -85821.284    365626.66 
    4002    756.98293   -334.16193   -84526.395   -86449.201   -84603.249    368484.38 
    4669    959.56119   -713.27427   -83049.654   -85487.027   -83214.222    369657.82 
    5336    1177.8025    221.05136   -81653.096   -84644.822   -81601.827    371594.14 
    6003     1354.697   -1630.4176       -80592   -84033.054   -80973.618    375007.89 
    6670    1547.0221   -512.21078    -79658.83   -83588.407   -79779.118    376254.77 
    7337    1739.4757   -162.39483   -78748.668   -83167.095    -78787.07    378869.78 
    8004    1917.5771     -584.452   -77888.865   -82759.685   -78028.053    381560.14 
    8671    2096.9318   -1145.7042    -77082.19   -82408.588   -77357.176    384545.58 
    9338    2271.3377   -150.21479    -76258.62   -82028.024   -76294.914    387107.49 
   10000    2449.1924   -1080.6316   -75482.565   -81703.736   -75746.195    390865.62 
Loop time of 1084.81 on 1 procs for 8000 steps with 19652 atoms

Performance: 0.637 ns/day, 37.667 hours/ns, 7.375 timesteps/s
98.6% CPU use with 1 MPI tasks x no OpenMP threads

MPI task timing breakdown:
Section |  min time  |  avg time  |  max time  |%varavg| %total
---------------------------------------------------------------
Pair    | 571        | 571        | 571        |   0.0 | 52.64
Neigh   | 485.44     | 485.44     | 485.44     |   0.0 | 44.75
Comm    | 9.4444     | 9.4444     | 9.4444     |   0.0 |  0.87
Output  | 0.50377    | 0.50377    | 0.50377    |   0.0 |  0.05
Modify  | 13.125     | 13.125     | 13.125     |   0.0 |  1.21
Other   |            | 5.29       |            |       |  0.49

Nlocal:    19652 ave 19652 max 19652 min
Histogram: 1 0 0 0 0 0 0 0 0 0
Nghost:    17095 ave 17095 max 17095 min
Histogram: 1 0 0 0 0 0 0 0 0 0
Neighs:    1.2631e+06 ave 1.2631e+06 max 1.2631e+06 min
Histogram: 1 0 0 0 0 0 0 0 0 0

Total # of neighbors = 1263104
Ave neighs/atom = 64.2736
Neighbor list builds = 8000
Dangerous builds not checked
Setting up Verlet run ...
  Unit style    : metal
  Current step  : 10000
  Time step     : 0.001
Per MPI rank memory allocation (min/avg/max) = 18.19 | 18.19 | 18.19 Mbytes
Step Temp Press TotEng PotEng Enthalpy Volume 
   10000    2449.1924   -1080.6316   -75482.565   -81703.736   -75746.195    390865.62 
   10005    2445.2525   -918.12716   -75482.559   -81693.723   -75706.544    390864.73 
   10672     2422.134   -900.49059   -75475.338   -81627.779   -75694.863    390585.02 
   11339    2461.7351   -613.11329   -75361.911   -81614.943   -75511.769    391605.72 
   12006    2470.8334   -913.48242    -75372.29   -81648.432   -75595.343    391217.78 
   12673    2433.6904   -909.83692   -75482.632   -81664.427   -75704.592    390860.54 
   13340    2448.1858     1171.638   -75553.176    -81771.79   -75269.244    388266.67 
   14007    2460.4621     1629.593   -75493.608   -81743.406    -75098.77    388195.46 
   14674    2453.7417    973.06265    -75460.14   -81692.868   -75223.906    388966.18 
   15341    2442.4204    703.15327     -75490.3    -81694.27   -75319.347    389526.88 
   16008    2444.2704   -531.26333   -75536.778   -81745.447   -75666.185    390263.59 
   16675    2471.5303   -292.61293   -75353.218    -81631.13   -75424.611    390909.45 
   17342     2449.509    433.25979   -75439.618   -81661.594   -75334.057    390361.71 
   18009    2427.7151   -1368.1348   -75512.606   -81679.224    -75846.24    390706.93 
   18676    2466.2702   -917.45583   -75448.983   -81713.534   -75672.633    390566.69 
   19343     2446.727   -1635.4747   -75431.217   -81646.127   -75830.396    391052.13 
   20010    2440.8716   -703.56929   -75493.084   -81693.121   -75664.743    390902.62 
   20677     2469.741    86.262737   -75451.015   -81724.382   -75430.018    389989.62 
   21344    2469.7259    217.14959   -75442.989   -81716.318   -75390.252    389107.15 
   22011    2449.3261    1079.2437   -75462.429   -81683.941   -75200.372     389033.2 
   22678    2451.6276    516.80761   -75456.345   -81683.703   -75330.726    389436.03 
   23345    2449.1102   -1339.5049   -75394.564   -81615.527   -75721.737    391330.44 
   24012    2461.6205   -1609.5878   -75357.729    -81610.47   -75751.056    391515.63 
   24679    2423.1811   -661.58945   -75498.233   -81653.334   -75659.467    390461.63 
   25346    2456.4527     707.2221   -75449.521   -81689.134   -75277.506    389691.14 
   26013    2458.8464    1300.6084   -75513.223   -81758.917   -75198.198    388068.85 
   26680    2456.3359    2051.4961   -75493.627   -81732.944   -74995.703    388869.14 
   27347    2464.0082    487.01772   -75417.944    -81676.75    -75299.56    389458.15 
   28014     2442.599   -757.76364   -75495.427   -81699.851   -75679.917    390077.84 
   28681     2438.413    265.01256    -75492.92   -81686.711     -75428.4    390067.62 
   29348    2439.0713   -48.909878   -75542.549   -81738.012    -75554.43    389214.08 
   30015    2440.8975     1297.368   -75515.697   -81715.799   -75200.277     389526.6 
   30682    2460.2739   -89.439042   -75493.197   -81742.516   -75514.947    389622.54 
   31349    2436.1317    458.45372   -75541.552   -81729.549   -75430.202    389141.99 
   32016     2465.496    828.21105   -75462.517   -81725.102   -75261.562    388748.35 
   32683    2460.6616   -483.32928   -75466.162   -81716.467    -75583.83    390054.41 
   33350      2455.56    988.89709   -75429.714    -81667.06   -75189.144    389761.92 
   34017    2463.2466   -1306.3723   -75455.193   -81712.064   -75773.629    390539.64 
   34684    2439.8427   -994.64197   -75478.887    -81676.31   -75721.448    390719.27 
   35351    2447.3121   -586.04484    -75457.05   -81673.446   -75599.986    390770.22 
   36018    2454.0311   -205.56646   -75471.498   -81704.961   -75521.555    390138.84 
   36685    2441.4642    879.72018   -75482.307   -81683.849    -75268.19    389957.49 
   37352    2428.6852    324.71281   -75549.315   -81718.396   -75470.454    389110.52 
   38019    2472.9735    1310.0273   -75394.992    -81676.57    -75076.92    389004.66 
   38686    2437.5998   -536.75994   -75523.905   -81715.631   -75654.531    389906.09 
   39353    2486.9803   -894.79036   -75328.759   -81645.916   -75546.727    390285.04 
   40000    2460.7495    288.13296   -75436.548   -81687.076   -75366.391    390108.63 
Loop time of 3912.59 on 1 procs for 30000 steps with 19652 atoms

Performance: 0.662 ns/day, 36.228 hours/ns, 7.668 timesteps/s
99.0% CPU use with 1 MPI tasks x no OpenMP threads

MPI task timing breakdown:
Section |  min time  |  avg time  |  max time  |%varavg| %total
---------------------------------------------------------------
Pair    | 2071.9     | 2071.9     | 2071.9     |   0.0 | 52.95
Neigh   | 1736.7     | 1736.7     | 1736.7     |   0.0 | 44.39
Comm    | 34.68      | 34.68      | 34.68      |   0.0 |  0.89
Output  | 2.2166     | 2.2166     | 2.2166     |   0.0 |  0.06
Modify  | 47.995     | 47.995     | 47.995     |   0.0 |  1.23
Other   |            | 19.11      |            |       |  0.49

Nlocal:    19652 ave 19652 max 19652 min
Histogram: 1 0 0 0 0 0 0 0 0 0
Nghost:    17144 ave 17144 max 17144 min
Histogram: 1 0 0 0 0 0 0 0 0 0
Neighs:    1.26482e+06 ave 1.26482e+06 max 1.26482e+06 min
Histogram: 1 0 0 0 0 0 0 0 0 0

Total # of neighbors = 1264815
Ave neighs/atom = 64.3606
Neighbor list builds = 30000
Dangerous builds not checked
Setting up Verlet run ...
  Unit style    : metal
  Current step  : 40000
  Time step     : 0.001
Per MPI rank memory allocation (min/avg/max) = 18.19 | 18.19 | 18.19 Mbytes
Step Temp Press TotEng PotEng Enthalpy Volume 
   40000    2460.7495    288.13296   -75436.548   -81687.076   -75366.391    390108.63 
   40020    2450.0371    558.11699     -75437.1   -81660.418   -75301.204    390115.49 
   40495    2402.9473   -24.263333   -75635.008   -81738.713   -75640.901    389160.89 
Loop time of 68.1033 on 1 procs for 495 steps with 19652 atoms

Performance: 0.628 ns/day, 38.217 hours/ns, 7.268 timesteps/s
90.8% CPU use with 1 MPI tasks x no OpenMP threads

MPI task timing breakdown:
Section |  min time  |  avg time  |  max time  |%varavg| %total
---------------------------------------------------------------
Pair    | 36.25      | 36.25      | 36.25      |   0.0 | 53.23
Neigh   | 29.992     | 29.992     | 29.992     |   0.0 | 44.04
Comm    | 0.61126    | 0.61126    | 0.61126    |   0.0 |  0.90
Output  | 0.041296   | 0.041296   | 0.041296   |   0.0 |  0.06
Modify  | 0.85505    | 0.85505    | 0.85505    |   0.0 |  1.26
Other   |            | 0.3531     |            |       |  0.52

Nlocal:    19652 ave 19652 max 19652 min
Histogram: 1 0 0 0 0 0 0 0 0 0
Nghost:    17081 ave 17081 max 17081 min
Histogram: 1 0 0 0 0 0 0 0 0 0
Neighs:    1.268e+06 ave 1.268e+06 max 1.268e+06 min
Histogram: 1 0 0 0 0 0 0 0 0 0

Total # of neighbors = 1267995
Ave neighs/atom = 64.5224
Neighbor list builds = 495
Dangerous builds not checked
Setting up Verlet run ...
  Unit style    : metal
  Current step  : 40495
  Time step     : 0.001
Per MPI rank memory allocation (min/avg/max) = 18.19 | 18.19 | 18.19 Mbytes
Step Temp Press TotEng PotEng Enthalpy Volume 
   40495    2402.9473   -24.263333   -75635.008   -81738.713   -75640.901    389160.89 
   40667    2399.1176   -248.87078   -75700.267   -81794.244   -75760.725    389218.77 
Loop time of 23.9653 on 1 procs for 172 steps with 19652 atoms

Performance: 0.620 ns/day, 38.704 hours/ns, 7.177 timesteps/s
86.6% CPU use with 1 MPI tasks x no OpenMP threads

MPI task timing breakdown:
Section |  min time  |  avg time  |  max time  |%varavg| %total
---------------------------------------------------------------
Pair    | 12.896     | 12.896     | 12.896     |   0.0 | 53.81
Neigh   | 10.437     | 10.437     | 10.437     |   0.0 | 43.55
Comm    | 0.2112     | 0.2112     | 0.2112     |   0.0 |  0.88
Output  | 0.00016212 | 0.00016212 | 0.00016212 |   0.0 |  0.00
Modify  | 0.30955    | 0.30955    | 0.30955    |   0.0 |  1.29
Other   |            | 0.1114     |            |       |  0.47

Nlocal:    19652 ave 19652 max 19652 min
Histogram: 1 0 0 0 0 0 0 0 0 0
Nghost:    17097 ave 17097 max 17097 min
Histogram: 1 0 0 0 0 0 0 0 0 0
Neighs:    1.26848e+06 ave 1.26848e+06 max 1.26848e+06 min
Histogram: 1 0 0 0 0 0 0 0 0 0

Total # of neighbors = 1268477
Ave neighs/atom = 64.547
Neighbor list builds = 172
Dangerous builds not checked
Setting up Verlet run ...
  Unit style    : metal
  Current step  : 40667
  Time step     : 0.001
Per MPI rank memory allocation (min/avg/max) = 18.19 | 18.19 | 18.19 Mbytes
Step Temp Press TotEng PotEng Enthalpy Volume 
   40667    2399.1176   -248.87078   -75700.267   -81794.244   -75760.725    389218.77 
   40687    2388.8404    114.63366    -75700.11   -81767.982   -75672.262    389217.46 
   41162    2355.5548    264.10289   -75893.543   -81876.867   -75829.618    387802.76 
Loop time of 69.4646 on 1 procs for 495 steps with 19652 atoms

Performance: 0.616 ns/day, 38.981 hours/ns, 7.126 timesteps/s
86.0% CPU use with 1 MPI tasks x no OpenMP threads

MPI task timing breakdown:
Section |  min time  |  avg time  |  max time  |%varavg| %total
---------------------------------------------------------------
Pair    | 37.187     | 37.187     | 37.187     |   0.0 | 53.53
Neigh   | 30.382     | 30.382     | 30.382     |   0.0 | 43.74
Comm    | 0.61533    | 0.61533    | 0.61533    |   0.0 |  0.89
Output  | 0.041459   | 0.041459   | 0.041459   |   0.0 |  0.06
Modify  | 0.86451    | 0.86451    | 0.86451    |   0.0 |  1.24
Other   |            | 0.3741     |            |       |  0.54

Nlocal:    19652 ave 19652 max 19652 min
Histogram: 1 0 0 0 0 0 0 0 0 0
Nghost:    17198 ave 17198 max 17198 min
Histogram: 1 0 0 0 0 0 0 0 0 0
Neighs:    1.27297e+06 ave 1.27297e+06 max 1.27297e+06 min
Histogram: 1 0 0 0 0 0 0 0 0 0

Total # of neighbors = 1272971
Ave neighs/atom = 64.7756
Neighbor list builds = 495
Dangerous builds not checked
Setting up Verlet run ...
  Unit style    : metal
  Current step  : 41162
  Time step     : 0.001
Per MPI rank memory allocation (min/avg/max) = 18.19 | 18.19 | 18.19 Mbytes
Step Temp Press TotEng PotEng Enthalpy Volume 
   41162    2355.5548    264.10289   -75893.543   -81876.867   -75829.618    387802.76 
   41334    2337.8764    266.44421   -75953.787   -81892.207   -75889.238    388149.27 
Loop time of 21.1734 on 1 procs for 172 steps with 19652 atoms

Performance: 0.702 ns/day, 34.195 hours/ns, 8.123 timesteps/s
98.8% CPU use with 1 MPI tasks x no OpenMP threads

MPI task timing breakdown:
Section |  min time  |  avg time  |  max time  |%varavg| %total
---------------------------------------------------------------
Pair    | 11.441     | 11.441     | 11.441     |   0.0 | 54.03
Neigh   | 9.1327     | 9.1327     | 9.1327     |   0.0 | 43.13
Comm    | 0.1991     | 0.1991     | 0.1991     |   0.0 |  0.94
Output  | 0.00016403 | 0.00016403 | 0.00016403 |   0.0 |  0.00
Modify  | 0.28801    | 0.28801    | 0.28801    |   0.0 |  1.36
Other   |            | 0.1126     |            |       |  0.53

Nlocal:    19652 ave 19652 max 19652 min
Histogram: 1 0 0 0 0 0 0 0 0 0
Nghost:    17127 ave 17127 max 17127 min
Histogram: 1 0 0 0 0 0 0 0 0 0
Neighs:    1.27192e+06 ave 1.27192e+06 max 1.27192e+06 min
Histogram: 1 0 0 0 0 0 0 0 0 0

Total # of neighbors = 1271919
Ave neighs/atom = 64.7221
Neighbor list builds = 172
Dangerous builds not checked
Setting up Verlet run ...
  Unit style    : metal
  Current step  : 41334
  Time step     : 0.001
Per MPI rank memory allocation (min/avg/max) = 18.19 | 18.19 | 18.19 Mbytes
Step Temp Press TotEng PotEng Enthalpy Volume 
   41334    2337.8764    266.44421   -75953.787   -81892.207   -75889.238    388149.27 
   41354    2337.3804    758.46499   -75952.733   -81889.892   -75768.981    388155.77 
   41829    2317.2987    150.58457   -76053.465   -81939.615   -76016.975    388242.13 
Loop time of 60.6855 on 1 procs for 495 steps with 19652 atoms

Performance: 0.705 ns/day, 34.055 hours/ns, 8.157 timesteps/s
99.7% CPU use with 1 MPI tasks x no OpenMP threads

MPI task timing breakdown:
Section |  min time  |  avg time  |  max time  |%varavg| %total
---------------------------------------------------------------
Pair    | 32.28      | 32.28      | 32.28      |   0.0 | 53.19
Neigh   | 26.77      | 26.77      | 26.77      |   0.0 | 44.11
Comm    | 0.53973    | 0.53973    | 0.53973    |   0.0 |  0.89
Output  | 0.041843   | 0.041843   | 0.041843   |   0.0 |  0.07
Modify  | 0.75274    | 0.75274    | 0.75274    |   0.0 |  1.24
Other   |            | 0.3016     |            |       |  0.50

Nlocal:    19652 ave 19652 max 19652 min
Histogram: 1 0 0 0 0 0 0 0 0 0
Nghost:    17251 ave 17251 max 17251 min
Histogram: 1 0 0 0 0 0 0 0 0 0
Neighs:    1.27081e+06 ave 1.27081e+06 max 1.27081e+06 min
Histogram: 1 0 0 0 0 0 0 0 0 0

Total # of neighbors = 1270807
Ave neighs/atom = 64.6655
Neighbor list builds = 495
Dangerous builds not checked
Setting up Verlet run ...
  Unit style    : metal
  Current step  : 41829
  Time step     : 0.001
Per MPI rank memory allocation (min/avg/max) = 18.19 | 18.19 | 18.19 Mbytes
Step Temp Press TotEng PotEng Enthalpy Volume 
   41829    2317.2987    150.58457   -76053.465   -81939.615   -76016.975    388242.13 
   42001    2279.1386   -649.42082   -76151.031   -81940.251   -76308.224    387807.65 
Loop time of 20.3623 on 1 procs for 172 steps with 19652 atoms

Performance: 0.730 ns/day, 32.885 hours/ns, 8.447 timesteps/s
99.9% CPU use with 1 MPI tasks x no OpenMP threads

MPI task timing breakdown:
Section |  min time  |  avg time  |  max time  |%varavg| %total
---------------------------------------------------------------
Pair    | 10.928     | 10.928     | 10.928     |   0.0 | 53.67
Neigh   | 8.8901     | 8.8901     | 8.8901     |   0.0 | 43.66
Comm    | 0.18097    | 0.18097    | 0.18097    |   0.0 |  0.89
Output  | 0.00016499 | 0.00016499 | 0.00016499 |   0.0 |  0.00
Modify  | 0.26003    | 0.26003    | 0.26003    |   0.0 |  1.28
Other   |            | 0.1034     |            |       |  0.51

Nlocal:    19652 ave 19652 max 19652 min
Histogram: 1 0 0 0 0 0 0 0 0 0
Nghost:    17195 ave 17195 max 17195 min
Histogram: 1 0 0 0 0 0 0 0 0 0
Neighs:    1.27297e+06 ave 1.27297e+06 max 1.27297e+06 min
Histogram: 1 0 0 0 0 0 0 0 0 0

Total # of neighbors = 1272972
Ave neighs/atom = 64.7757
Neighbor list builds = 172
Dangerous builds not checked
Setting up Verlet run ...
  Unit style    : metal
  Current step  : 42001
  Time step     : 0.001
Per MPI rank memory allocation (min/avg/max) = 18.19 | 18.19 | 18.19 Mbytes
Step Temp Press TotEng PotEng Enthalpy Volume 
   42001    2279.1386   -649.42082   -76151.031   -81940.251   -76308.224    387807.65 
   42021    2288.5216   -684.43976   -76149.046     -81962.1   -76314.712    387798.74 
   42496    2263.6787    309.33105   -76301.088   -82051.038   -76226.443    386624.45 
Loop time of 69.5711 on 1 procs for 495 steps with 19652 atoms

Performance: 0.615 ns/day, 39.041 hours/ns, 7.115 timesteps/s
89.9% CPU use with 1 MPI tasks x no OpenMP threads

MPI task timing breakdown:
Section |  min time  |  avg time  |  max time  |%varavg| %total
---------------------------------------------------------------
Pair    | 37.303     | 37.303     | 37.303     |   0.0 | 53.62
Neigh   | 30.312     | 30.312     | 30.312     |   0.0 | 43.57
Comm    | 0.63361    | 0.63361    | 0.63361    |   0.0 |  0.91
Output  | 0.041577   | 0.041577   | 0.041577   |   0.0 |  0.06
Modify  | 0.91465    | 0.91465    | 0.91465    |   0.0 |  1.31
Other   |            | 0.3672     |            |       |  0.53

Nlocal:    19652 ave 19652 max 19652 min
Histogram: 1 0 0 0 0 0 0 0 0 0
Nghost:    17076 ave 17076 max 17076 min
Histogram: 1 0 0 0 0 0 0 0 0 0
Neighs:    1.27729e+06 ave 1.27729e+06 max 1.27729e+06 min
Histogram: 1 0 0 0 0 0 0 0 0 0

Total # of neighbors = 1277294
Ave neighs/atom = 64.9956
Neighbor list builds = 495
Dangerous builds not checked
Setting up Verlet run ...
  Unit style    : metal
  Current step  : 42496
  Time step     : 0.001
Per MPI rank memory allocation (min/avg/max) = 18.19 | 18.19 | 18.19 Mbytes
Step Temp Press TotEng PotEng Enthalpy Volume 
   42496    2263.6787    309.33105   -76301.088   -82051.038   -76226.443    386624.45 
   42668    2238.4221    67.201741   -76390.135   -82075.931   -76373.905    386950.82 
Loop time of 23.5734 on 1 procs for 172 steps with 19652 atoms

Performance: 0.630 ns/day, 38.071 hours/ns, 7.296 timesteps/s
88.5% CPU use with 1 MPI tasks x no OpenMP threads

MPI task timing breakdown:
Section |  min time  |  avg time  |  max time  |%varavg| %total
---------------------------------------------------------------
Pair    | 12.79      | 12.79      | 12.79      |   0.0 | 54.26
Neigh   | 10.097     | 10.097     | 10.097     |   0.0 | 42.83
Comm    | 0.21844    | 0.21844    | 0.21844    |   0.0 |  0.93
Output  | 0.00016999 | 0.00016999 | 0.00016999 |   0.0 |  0.00
Modify  | 0.33058    | 0.33058    | 0.33058    |   0.0 |  1.40
Other   |            | 0.1373     |            |       |  0.58

Nlocal:    19652 ave 19652 max 19652 min
Histogram: 1 0 0 0 0 0 0 0 0 0
Nghost:    17113 ave 17113 max 17113 min
Histogram: 1 0 0 0 0 0 0 0 0 0
Neighs:    1.27624e+06 ave 1.27624e+06 max 1.27624e+06 min
Histogram: 1 0 0 0 0 0 0 0 0 0

Total # of neighbors = 1276244
Ave neighs/atom = 64.9422
Neighbor list builds = 172
Dangerous builds not checked
Setting up Verlet run ...
  Unit style    : metal
  Current step  : 42668
  Time step     : 0.001
Per MPI rank memory allocation (min/avg/max) = 18.19 | 18.19 | 18.19 Mbytes
Step Temp Press TotEng PotEng Enthalpy Volume 
   42668    2238.4221    67.201741   -76390.135   -82075.931   -76373.905    386950.82 
   42688    2248.1083    -867.6014   -76389.445   -82099.844   -76598.982    386947.16 
   43163    2205.9736   -403.62408   -76525.768   -82129.142   -76623.137    386503.41 
Loop time of 68.815 on 1 procs for 495 steps with 19652 atoms

Performance: 0.621 ns/day, 38.617 hours/ns, 7.193 timesteps/s
88.5% CPU use with 1 MPI tasks x no OpenMP threads

MPI task timing breakdown:
Section |  min time  |  avg time  |  max time  |%varavg| %total
---------------------------------------------------------------
Pair    | 37.185     | 37.185     | 37.185     |   0.0 | 54.04
Neigh   | 29.659     | 29.659     | 29.659     |   0.0 | 43.10
Comm    | 0.64114    | 0.64114    | 0.64114    |   0.0 |  0.93
Output  | 0.041831   | 0.041831   | 0.041831   |   0.0 |  0.06
Modify  | 0.91101    | 0.91101    | 0.91101    |   0.0 |  1.32
Other   |            | 0.3774     |            |       |  0.55

Nlocal:    19652 ave 19652 max 19652 min
Histogram: 1 0 0 0 0 0 0 0 0 0
Nghost:    17248 ave 17248 max 17248 min
Histogram: 1 0 0 0 0 0 0 0 0 0
Neighs:    1.2773e+06 ave 1.2773e+06 max 1.2773e+06 min
Histogram: 1 0 0 0 0 0 0 0 0 0

Total # of neighbors = 1277301
Ave neighs/atom = 64.996
Neighbor list builds = 495
Dangerous builds not checked
Setting up Verlet run ...
  Unit style    : metal
  Current step  : 43163
  Time step     : 0.001
Per MPI rank memory allocation (min/avg/max) = 18.19 | 18.19 | 18.19 Mbytes
Step Temp Press TotEng PotEng Enthalpy Volume 
   43163    2205.9736   -403.62408   -76525.768   -82129.142   -76623.137    386503.41 
   43335    2210.6328    102.80062   -76581.074   -82196.282   -76556.303    386055.73 
Loop time of 25.0256 on 1 procs for 172 steps with 19652 atoms

Performance: 0.594 ns/day, 40.416 hours/ns, 6.873 timesteps/s
83.6% CPU use with 1 MPI tasks x no OpenMP threads

MPI task timing breakdown:
Section |  min time  |  avg time  |  max time  |%varavg| %total
---------------------------------------------------------------
Pair    | 13.511     | 13.511     | 13.511     |   0.0 | 53.99
Neigh   | 10.839     | 10.839     | 10.839     |   0.0 | 43.31
Comm    | 0.23209    | 0.23209    | 0.23209    |   0.0 |  0.93
Output  | 0.00019598 | 0.00019598 | 0.00019598 |   0.0 |  0.00
Modify  | 0.31995    | 0.31995    | 0.31995    |   0.0 |  1.28
Other   |            | 0.1226     |            |       |  0.49

Nlocal:    19652 ave 19652 max 19652 min
Histogram: 1 0 0 0 0 0 0 0 0 0
Nghost:    17288 ave 17288 max 17288 min
Histogram: 1 0 0 0 0 0 0 0 0 0
Neighs:    1.27891e+06 ave 1.27891e+06 max 1.27891e+06 min
Histogram: 1 0 0 0 0 0 0 0 0 0

Total # of neighbors = 1278906
Ave neighs/atom = 65.0777
Neighbor list builds = 172
Dangerous builds not checked
Setting up Verlet run ...
  Unit style    : metal
  Current step  : 43335
  Time step     : 0.001
Per MPI rank memory allocation (min/avg/max) = 18.19 | 18.19 | 18.19 Mbytes
Step Temp Press TotEng PotEng Enthalpy Volume 
   43335    2210.6328    102.80062   -76581.074   -82196.282   -76556.303    386055.73 
   43355    2205.5777    218.06017   -76582.254   -82184.623   -76529.711    386056.91 
   43830    2156.5799    854.25918   -76735.244   -82213.153   -76529.812    385291.42 
Loop time of 60.8849 on 1 procs for 495 steps with 19652 atoms

Performance: 0.702 ns/day, 34.167 hours/ns, 8.130 timesteps/s
99.3% CPU use with 1 MPI tasks x no OpenMP threads

MPI task timing breakdown:
Section |  min time  |  avg time  |  max time  |%varavg| %total
---------------------------------------------------------------
Pair    | 32.443     | 32.443     | 32.443     |   0.0 | 53.28
Neigh   | 26.807     | 26.807     | 26.807     |   0.0 | 44.03
Comm    | 0.53519    | 0.53519    | 0.53519    |   0.0 |  0.88
Output  | 0.041488   | 0.041488   | 0.041488   |   0.0 |  0.07
Modify  | 0.75782    | 0.75782    | 0.75782    |   0.0 |  1.24
Other   |            | 0.3009     |            |       |  0.49

Nlocal:    19652 ave 19652 max 19652 min
Histogram: 1 0 0 0 0 0 0 0 0 0
Nghost:    17238 ave 17238 max 17238 min
Histogram: 1 0 0 0 0 0 0 0 0 0
Neighs:    1.28164e+06 ave 1.28164e+06 max 1.28164e+06 min
Histogram: 1 0 0 0 0 0 0 0 0 0

Total # of neighbors = 1281638
Ave neighs/atom = 65.2167
Neighbor list builds = 495
Dangerous builds not checked
Setting up Verlet run ...
  Unit style    : metal
  Current step  : 43830
  Time step     : 0.001
Per MPI rank memory allocation (min/avg/max) = 18.19 | 18.19 | 18.19 Mbytes
Step Temp Press TotEng PotEng Enthalpy Volume 
   43830    2156.5799    854.25918   -76735.244   -82213.153   -76529.812    385291.42 
   44002    2143.6905    -130.0852   -76797.416   -82242.585   -76828.689    385165.43 
Loop time of 23.6256 on 1 procs for 172 steps with 19652 atoms

Performance: 0.629 ns/day, 38.155 hours/ns, 7.280 timesteps/s
86.1% CPU use with 1 MPI tasks x no OpenMP threads

MPI task timing breakdown:
Section |  min time  |  avg time  |  max time  |%varavg| %total
---------------------------------------------------------------
Pair    | 12.719     | 12.719     | 12.719     |   0.0 | 53.83
Neigh   | 10.301     | 10.301     | 10.301     |   0.0 | 43.60
Comm    | 0.22021    | 0.22021    | 0.22021    |   0.0 |  0.93
Output  | 0.00016284 | 0.00016284 | 0.00016284 |   0.0 |  0.00
Modify  | 0.27461    | 0.27461    | 0.27461    |   0.0 |  1.16
Other   |            | 0.1111     |            |       |  0.47

Nlocal:    19652 ave 19652 max 19652 min
Histogram: 1 0 0 0 0 0 0 0 0 0
Nghost:    17125 ave 17125 max 17125 min
Histogram: 1 0 0 0 0 0 0 0 0 0
Neighs:    1.28196e+06 ave 1.28196e+06 max 1.28196e+06 min
Histogram: 1 0 0 0 0 0 0 0 0 0

Total # of neighbors = 1281963
Ave neighs/atom = 65.2332
Neighbor list builds = 172
Dangerous builds not checked
Setting up Verlet run ...
  Unit style    : metal
  Current step  : 44002
  Time step     : 0.001
Per MPI rank memory allocation (min/avg/max) = 18.19 | 18.19 | 18.19 Mbytes
Step Temp Press TotEng PotEng Enthalpy Volume 
   44002    2143.6905    -130.0852   -76797.416   -82242.585   -76828.689    385165.43 
   44022    2156.7688   -286.05789   -76797.485   -82275.875   -76866.254    385162.86 
   44497    2100.0204   -130.51082   -76969.239   -82303.482   -77000.615    385177.09 
Loop time of 78.6846 on 1 procs for 495 steps with 19652 atoms

Performance: 0.544 ns/day, 44.155 hours/ns, 6.291 timesteps/s
79.1% CPU use with 1 MPI tasks x no OpenMP threads

MPI task timing breakdown:
Section |  min time  |  avg time  |  max time  |%varavg| %total
---------------------------------------------------------------
Pair    | 42.486     | 42.486     | 42.486     |   0.0 | 54.00
Neigh   | 33.967     | 33.967     | 33.967     |   0.0 | 43.17
Comm    | 0.72642    | 0.72642    | 0.72642    |   0.0 |  0.92
Output  | 0.041508   | 0.041508   | 0.041508   |   0.0 |  0.05
Modify  | 1.039      | 1.039      | 1.039      |   0.0 |  1.32
Other   |            | 0.4253     |            |       |  0.54

Nlocal:    19652 ave 19652 max 19652 min
Histogram: 1 0 0 0 0 0 0 0 0 0
Nghost:    17195 ave 17195 max 17195 min
Histogram: 1 0 0 0 0 0 0 0 0 0
Neighs:    1.28141e+06 ave 1.28141e+06 max 1.28141e+06 min
Histogram: 1 0 0 0 0 0 0 0 0 0

Total # of neighbors = 1281407
Ave neighs/atom = 65.2049
Neighbor list builds = 495
Dangerous builds not checked
Setting up Verlet run ...
  Unit style    : metal
  Current step  : 44497
  Time step     : 0.001
Per MPI rank memory allocation (min/avg/max) = 18.19 | 18.19 | 18.19 Mbytes
Step Temp Press TotEng PotEng Enthalpy Volume 
   44497    2100.0204   -130.51082   -76969.239   -82303.482   -77000.615    385177.09 
   44669    2092.1898   -431.63194   -77016.261   -82330.613   -77119.855    384533.78 
Loop time of 20.6554 on 1 procs for 172 steps with 19652 atoms

Performance: 0.719 ns/day, 33.358 hours/ns, 8.327 timesteps/s
99.7% CPU use with 1 MPI tasks x no OpenMP threads

MPI task timing breakdown:
Section |  min time  |  avg time  |  max time  |%varavg| %total
---------------------------------------------------------------
Pair    | 11.177     | 11.177     | 11.177     |   0.0 | 54.11
Neigh   | 8.9153     | 8.9153     | 8.9153     |   0.0 | 43.16
Comm    | 0.1866     | 0.1866     | 0.1866     |   0.0 |  0.90
Output  | 0.00017309 | 0.00017309 | 0.00017309 |   0.0 |  0.00
Modify  | 0.26836    | 0.26836    | 0.26836    |   0.0 |  1.30
Other   |            | 0.1083     |            |       |  0.52

Nlocal:    19652 ave 19652 max 19652 min
Histogram: 1 0 0 0 0 0 0 0 0 0
Nghost:    17239 ave 17239 max 17239 min
Histogram: 1 0 0 0 0 0 0 0 0 0
Neighs:    1.28395e+06 ave 1.28395e+06 max 1.28395e+06 min
Histogram: 1 0 0 0 0 0 0 0 0 0

Total # of neighbors = 1283949
Ave neighs/atom = 65.3343
Neighbor list builds = 172
Dangerous builds not checked
Setting up Verlet run ...
  Unit style    : metal
  Current step  : 44669
  Time step     : 0.001
Per MPI rank memory allocation (min/avg/max) = 18.19 | 18.19 | 18.19 Mbytes
Step Temp Press TotEng PotEng Enthalpy Volume 
   44669    2092.1898   -431.63194   -77016.261   -82330.613   -77119.855    384533.78 
   44689     2104.968   -523.44999   -77015.866   -82362.677   -77141.495    384525.64 
   45164    2061.7986    960.27225   -77198.493    -82435.65   -76968.871    383115.39 
Loop time of 70.07 on 1 procs for 495 steps with 19652 atoms

Performance: 0.610 ns/day, 39.321 hours/ns, 7.064 timesteps/s
86.5% CPU use with 1 MPI tasks x no OpenMP threads

MPI task timing breakdown:
Section |  min time  |  avg time  |  max time  |%varavg| %total
---------------------------------------------------------------
Pair    | 37.794     | 37.794     | 37.794     |   0.0 | 53.94
Neigh   | 30.276     | 30.276     | 30.276     |   0.0 | 43.21
Comm    | 0.63714    | 0.63714    | 0.63714    |   0.0 |  0.91
Output  | 0.041816   | 0.041816   | 0.041816   |   0.0 |  0.06
Modify  | 0.95895    | 0.95895    | 0.95895    |   0.0 |  1.37
Other   |            | 0.362      |            |       |  0.52

Nlocal:    19652 ave 19652 max 19652 min
Histogram: 1 0 0 0 0 0 0 0 0 0
Nghost:    17267 ave 17267 max 17267 min
Histogram: 1 0 0 0 0 0 0 0 0 0
Neighs:    1.28833e+06 ave 1.28833e+06 max 1.28833e+06 min
Histogram: 1 0 0 0 0 0 0 0 0 0

Total # of neighbors = 1288329
Ave neighs/atom = 65.5571
Neighbor list builds = 495
Dangerous builds not checked
Setting up Verlet run ...
  Unit style    : metal
  Current step  : 45164
  Time step     : 0.001
Per MPI rank memory allocation (min/avg/max) = 18.19 | 18.19 | 18.19 Mbytes
Step Temp Press TotEng PotEng Enthalpy Volume 
   45164    2061.7986    960.27225   -77198.493    -82435.65   -76968.871    383115.39 
   45336     2037.918   -324.80655   -77275.205   -82451.702   -77352.955    383518.28 
Loop time of 22.6351 on 1 procs for 172 steps with 19652 atoms

Performance: 0.657 ns/day, 36.555 hours/ns, 7.599 timesteps/s
90.7% CPU use with 1 MPI tasks x no OpenMP threads

MPI task timing breakdown:
Section |  min time  |  avg time  |  max time  |%varavg| %total
---------------------------------------------------------------
Pair    | 12.286     | 12.286     | 12.286     |   0.0 | 54.28
Neigh   | 9.7525     | 9.7525     | 9.7525     |   0.0 | 43.09
Comm    | 0.20128    | 0.20128    | 0.20128    |   0.0 |  0.89
Output  | 0.00016689 | 0.00016689 | 0.00016689 |   0.0 |  0.00
Modify  | 0.28462    | 0.28462    | 0.28462    |   0.0 |  1.26
Other   |            | 0.1101     |            |       |  0.49

Nlocal:    19652 ave 19652 max 19652 min
Histogram: 1 0 0 0 0 0 0 0 0 0
Nghost:    17292 ave 17292 max 17292 min
Histogram: 1 0 0 0 0 0 0 0 0 0
Neighs:    1.2874e+06 ave 1.2874e+06 max 1.2874e+06 min
Histogram: 1 0 0 0 0 0 0 0 0 0

Total # of neighbors = 1287396
Ave neighs/atom = 65.5097
Neighbor list builds = 172
Dangerous builds not checked
Setting up Verlet run ...
  Unit style    : metal
  Current step  : 45336
  Time step     : 0.001
Per MPI rank memory allocation (min/avg/max) = 18.19 | 18.19 | 18.19 Mbytes
Step Temp Press TotEng PotEng Enthalpy Volume 
   45336     2037.918   -324.80655   -77275.205   -82451.702   -77352.955    383518.28 
   45356    2051.4067   -715.80491   -77274.869   -82485.629   -77446.209    383509.09 
   45831    2013.7135    360.17105   -77403.695   -82518.711   -77317.514    383364.45 
Loop time of 66.5251 on 1 procs for 495 steps with 19652 atoms

Performance: 0.643 ns/day, 37.332 hours/ns, 7.441 timesteps/s
94.6% CPU use with 1 MPI tasks x no OpenMP threads

MPI task timing breakdown:
Section |  min time  |  avg time  |  max time  |%varavg| %total
---------------------------------------------------------------
Pair    | 35.792     | 35.792     | 35.792     |   0.0 | 53.80
Neigh   | 28.867     | 28.867     | 28.867     |   0.0 | 43.39
Comm    | 0.61249    | 0.61249    | 0.61249    |   0.0 |  0.92
Output  | 0.042133   | 0.042133   | 0.042133   |   0.0 |  0.06
Modify  | 0.86355    | 0.86355    | 0.86355    |   0.0 |  1.30
Other   |            | 0.3476     |            |       |  0.52

Nlocal:    19652 ave 19652 max 19652 min
Histogram: 1 0 0 0 0 0 0 0 0 0
Nghost:    17204 ave 17204 max 17204 min
Histogram: 1 0 0 0 0 0 0 0 0 0
Neighs:    1.28826e+06 ave 1.28826e+06 max 1.28826e+06 min
Histogram: 1 0 0 0 0 0 0 0 0 0

Total # of neighbors = 1288259
Ave neighs/atom = 65.5536
Neighbor list builds = 495
Dangerous builds not checked
Setting up Verlet run ...
  Unit style    : metal
  Current step  : 45831
  Time step     : 0.001
Per MPI rank memory allocation (min/avg/max) = 18.19 | 18.19 | 18.19 Mbytes
Step Temp Press TotEng PotEng Enthalpy Volume 
   45831    2013.7135    360.17105   -77403.695   -82518.711   -77317.514    383364.45 
   46003    1989.6366   -338.89826   -77480.074   -82533.933   -77561.076    382943.84 
Loop time of 21.4199 on 1 procs for 172 steps with 19652 atoms

Performance: 0.694 ns/day, 34.593 hours/ns, 8.030 timesteps/s
99.9% CPU use with 1 MPI tasks x no OpenMP threads

MPI task timing breakdown:
Section |  min time  |  avg time  |  max time  |%varavg| %total
---------------------------------------------------------------
Pair    | 11.696     | 11.696     | 11.696     |   0.0 | 54.60
Neigh   | 9.1054     | 9.1054     | 9.1054     |   0.0 | 42.51
Comm    | 0.21138    | 0.21138    | 0.21138    |   0.0 |  0.99
Output  | 0.00017405 | 0.00017405 | 0.00017405 |   0.0 |  0.00
Modify  | 0.28976    | 0.28976    | 0.28976    |   0.0 |  1.35
Other   |            | 0.1172     |            |       |  0.55

Nlocal:    19652 ave 19652 max 19652 min
Histogram: 1 0 0 0 0 0 0 0 0 0
Nghost:    17267 ave 17267 max 17267 min
Histogram: 1 0 0 0 0 0 0 0 0 0
Neighs:    1.2889e+06 ave 1.2889e+06 max 1.2889e+06 min
Histogram: 1 0 0 0 0 0 0 0 0 0

Total # of neighbors = 1288898
Ave neighs/atom = 65.5861
Neighbor list builds = 172
Dangerous builds not checked
Setting up Verlet run ...
  Unit style    : metal
  Current step  : 46003
  Time step     : 0.001
Per MPI rank memory allocation (min/avg/max) = 18.19 | 18.19 | 18.19 Mbytes
Step Temp Press TotEng PotEng Enthalpy Volume 
   46003    1989.6366   -338.89826   -77480.074   -82533.933   -77561.076    382943.84 
   46023    1995.2937   -154.92469   -77479.643    -82547.87   -77516.671    382937.57 
   46498    1955.8963    195.86839   -77655.197   -82623.352   -77608.526    381760.86 
Loop time of 62.9066 on 1 procs for 495 steps with 19652 atoms

Performance: 0.680 ns/day, 35.301 hours/ns, 7.869 timesteps/s
99.9% CPU use with 1 MPI tasks x no OpenMP threads

MPI task timing breakdown:
Section |  min time  |  avg time  |  max time  |%varavg| %total
---------------------------------------------------------------
Pair    | 33.901     | 33.901     | 33.901     |   0.0 | 53.89
Neigh   | 27.237     | 27.237     | 27.237     |   0.0 | 43.30
Comm    | 0.58174    | 0.58174    | 0.58174    |   0.0 |  0.92
Output  | 0.04412    | 0.04412    | 0.04412    |   0.0 |  0.07
Modify  | 0.80939    | 0.80939    | 0.80939    |   0.0 |  1.29
Other   |            | 0.3332     |            |       |  0.53

Nlocal:    19652 ave 19652 max 19652 min
Histogram: 1 0 0 0 0 0 0 0 0 0
Nghost:    17293 ave 17293 max 17293 min
Histogram: 1 0 0 0 0 0 0 0 0 0
Neighs:    1.29333e+06 ave 1.29333e+06 max 1.29333e+06 min
Histogram: 1 0 0 0 0 0 0 0 0 0

Total # of neighbors = 1293326
Ave neighs/atom = 65.8114
Neighbor list builds = 495
Dangerous builds not checked
Setting up Verlet run ...
  Unit style    : metal
  Current step  : 46498
  Time step     : 0.001
Per MPI rank memory allocation (min/avg/max) = 18.19 | 18.19 | 18.19 Mbytes
Step Temp Press TotEng PotEng Enthalpy Volume 
   46498    1955.8963    195.86839   -77655.197   -82623.352   -77608.526    381760.86 
   46670    1938.3835    350.24129   -77723.946   -82647.616   -77640.497    381735.18 
Loop time of 21.1013 on 1 procs for 172 steps with 19652 atoms

Performance: 0.704 ns/day, 34.078 hours/ns, 8.151 timesteps/s
99.9% CPU use with 1 MPI tasks x no OpenMP threads

MPI task timing breakdown:
Section |  min time  |  avg time  |  max time  |%varavg| %total
---------------------------------------------------------------
Pair    | 11.515     | 11.515     | 11.515     |   0.0 | 54.57
Neigh   | 8.9931     | 8.9931     | 8.9931     |   0.0 | 42.62
Comm    | 0.19819    | 0.19819    | 0.19819    |   0.0 |  0.94
Output  | 0.00016904 | 0.00016904 | 0.00016904 |   0.0 |  0.00
Modify  | 0.27815    | 0.27815    | 0.27815    |   0.0 |  1.32
Other   |            | 0.1166     |            |       |  0.55

Nlocal:    19652 ave 19652 max 19652 min
Histogram: 1 0 0 0 0 0 0 0 0 0
Nghost:    17335 ave 17335 max 17335 min
Histogram: 1 0 0 0 0 0 0 0 0 0
Neighs:    1.29325e+06 ave 1.29325e+06 max 1.29325e+06 min
Histogram: 1 0 0 0 0 0 0 0 0 0

Total # of neighbors = 1293253
Ave neighs/atom = 65.8077
Neighbor list builds = 172
Dangerous builds not checked
Setting up Verlet run ...
  Unit style    : metal
  Current step  : 46670
  Time step     : 0.001
Per MPI rank memory allocation (min/avg/max) = 18.19 | 18.19 | 18.19 Mbytes
Step Temp Press TotEng PotEng Enthalpy Volume 
   46670    1938.3835    350.24129   -77723.946   -82647.616   -77640.497    381735.18 
   46690    1925.2329    144.85385   -77722.249   -82612.516   -77687.736    381739.66 
   47165     1915.535   -26.621259   -77905.026    -82770.66   -77911.362    381309.25 
Loop time of 61.9394 on 1 procs for 495 steps with 19652 atoms

Performance: 0.690 ns/day, 34.758 hours/ns, 7.992 timesteps/s
99.9% CPU use with 1 MPI tasks x no OpenMP threads

MPI task timing breakdown:
Section |  min time  |  avg time  |  max time  |%varavg| %total
---------------------------------------------------------------
Pair    | 33.561     | 33.561     | 33.561     |   0.0 | 54.18
Neigh   | 26.603     | 26.603     | 26.603     |   0.0 | 42.95
Comm    | 0.59191    | 0.59191    | 0.59191    |   0.0 |  0.96
Output  | 0.041843   | 0.041843   | 0.041843   |   0.0 |  0.07
Modify  | 0.81153    | 0.81153    | 0.81153    |   0.0 |  1.31
Other   |            | 0.3299     |            |       |  0.53

Nlocal:    19652 ave 19652 max 19652 min
Histogram: 1 0 0 0 0 0 0 0 0 0
Nghost:    17275 ave 17275 max 17275 min
Histogram: 1 0 0 0 0 0 0 0 0 0
Neighs:    1.29475e+06 ave 1.29475e+06 max 1.29475e+06 min
Histogram: 1 0 0 0 0 0 0 0 0 0

Total # of neighbors = 1294749
Ave neighs/atom = 65.8838
Neighbor list builds = 495
Dangerous builds not checked
Setting up Verlet run ...
  Unit style    : metal
  Current step  : 47165
  Time step     : 0.001
Per MPI rank memory allocation (min/avg/max) = 18.19 | 18.19 | 18.19 Mbytes
Step Temp Press TotEng PotEng Enthalpy Volume 
   47165     1915.535   -26.621259   -77905.026    -82770.66   -77911.362    381309.25 
   47337     1883.825   -1230.7599   -77979.055   -82764.142   -78272.096    381474.38 
Loop time of 21.411 on 1 procs for 172 steps with 19652 atoms

Performance: 0.694 ns/day, 34.579 hours/ns, 8.033 timesteps/s
99.9% CPU use with 1 MPI tasks x no OpenMP threads

MPI task timing breakdown:
Section |  min time  |  avg time  |  max time  |%varavg| %total
---------------------------------------------------------------
Pair    | 11.727     | 11.727     | 11.727     |   0.0 | 54.77
Neigh   | 9.0399     | 9.0399     | 9.0399     |   0.0 | 42.22
Comm    | 0.2156     | 0.2156     | 0.2156     |   0.0 |  1.01
Output  | 0.00016499 | 0.00016499 | 0.00016499 |   0.0 |  0.00
Modify  | 0.30753    | 0.30753    | 0.30753    |   0.0 |  1.44
Other   |            | 0.1204     |            |       |  0.56

Nlocal:    19652 ave 19652 max 19652 min
Histogram: 1 0 0 0 0 0 0 0 0 0
Nghost:    17318 ave 17318 max 17318 min
Histogram: 1 0 0 0 0 0 0 0 0 0
Neighs:    1.29419e+06 ave 1.29419e+06 max 1.29419e+06 min
Histogram: 1 0 0 0 0 0 0 0 0 0

Total # of neighbors = 1294187
Ave neighs/atom = 65.8552
Neighbor list builds = 172
Dangerous builds not checked
Setting up Verlet run ...
  Unit style    : metal
  Current step  : 47337
  Time step     : 0.001
Per MPI rank memory allocation (min/avg/max) = 18.19 | 18.19 | 18.19 Mbytes
Step Temp Press TotEng PotEng Enthalpy Volume 
   47337     1883.825   -1230.7599   -77979.055   -82764.142   -78272.096    381474.38 
   47357    1896.1451   -1319.1433   -77978.301   -82794.682   -78292.366    381450.36 
   47832    1861.6952    453.16567   -78110.037   -82838.912   -78002.472    380297.02 
Loop time of 64.7845 on 1 procs for 495 steps with 19652 atoms

Performance: 0.660 ns/day, 36.355 hours/ns, 7.641 timesteps/s
99.9% CPU use with 1 MPI tasks x no OpenMP threads

MPI task timing breakdown:
Section |  min time  |  avg time  |  max time  |%varavg| %total
---------------------------------------------------------------
Pair    | 35.324     | 35.324     | 35.324     |   0.0 | 54.52
Neigh   | 27.568     | 27.568     | 27.568     |   0.0 | 42.55
Comm    | 0.62236    | 0.62236    | 0.62236    |   0.0 |  0.96
Output  | 0.042539   | 0.042539   | 0.042539   |   0.0 |  0.07
Modify  | 0.88155    | 0.88155    | 0.88155    |   0.0 |  1.36
Other   |            | 0.3464     |            |       |  0.53

Nlocal:    19652 ave 19652 max 19652 min
Histogram: 1 0 0 0 0 0 0 0 0 0
Nghost:    17294 ave 17294 max 17294 min
Histogram: 1 0 0 0 0 0 0 0 0 0
Neighs:    1.29827e+06 ave 1.29827e+06 max 1.29827e+06 min
Histogram: 1 0 0 0 0 0 0 0 0 0

Total # of neighbors = 1298273
Ave neighs/atom = 66.0631
Neighbor list builds = 495
Dangerous builds not checked
Setting up Verlet run ...
  Unit style    : metal
  Current step  : 47832
  Time step     : 0.001
Per MPI rank memory allocation (min/avg/max) = 18.19 | 18.19 | 18.19 Mbytes
Step Temp Press TotEng PotEng Enthalpy Volume 
   47832    1861.6952    453.16567   -78110.037   -82838.912   -78002.472    380297.02 
   48004    1845.9703   -489.70765   -78181.147    -82870.08   -78297.577    380924.49 
Loop time of 20.454 on 1 procs for 172 steps with 19652 atoms

Performance: 0.727 ns/day, 33.033 hours/ns, 8.409 timesteps/s
99.9% CPU use with 1 MPI tasks x no OpenMP threads

MPI task timing breakdown:
Section |  min time  |  avg time  |  max time  |%varavg| %total
---------------------------------------------------------------
Pair    | 11.061     | 11.061     | 11.061     |   0.0 | 54.08
Neigh   | 8.8372     | 8.8372     | 8.8372     |   0.0 | 43.21
Comm    | 0.18857    | 0.18857    | 0.18857    |   0.0 |  0.92
Output  | 0.00016999 | 0.00016999 | 0.00016999 |   0.0 |  0.00
Modify  | 0.26232    | 0.26232    | 0.26232    |   0.0 |  1.28
Other   |            | 0.1044     |            |       |  0.51

Nlocal:    19652 ave 19652 max 19652 min
Histogram: 1 0 0 0 0 0 0 0 0 0
Nghost:    17277 ave 17277 max 17277 min
Histogram: 1 0 0 0 0 0 0 0 0 0
Neighs:    1.29612e+06 ave 1.29612e+06 max 1.29612e+06 min
Histogram: 1 0 0 0 0 0 0 0 0 0

Total # of neighbors = 1296122
Ave neighs/atom = 65.9537
Neighbor list builds = 172
Dangerous builds not checked
Setting up Verlet run ...
  Unit style    : metal
  Current step  : 48004
  Time step     : 0.001
Per MPI rank memory allocation (min/avg/max) = 18.19 | 18.19 | 18.19 Mbytes
Step Temp Press TotEng PotEng Enthalpy Volume 
   48004    1845.9703   -489.70765   -78181.147    -82870.08   -78297.577    380924.49 
   48024    1846.9753   -853.57063   -78180.851   -82872.336   -78383.786    380914.22 
   48499    1816.2783    897.62767   -78346.356   -82959.868   -78133.644    379668.76 
Loop time of 60.6534 on 1 procs for 495 steps with 19652 atoms

Performance: 0.705 ns/day, 34.037 hours/ns, 8.161 timesteps/s
99.9% CPU use with 1 MPI tasks x no OpenMP threads

MPI task timing breakdown:
Section |  min time  |  avg time  |  max time  |%varavg| %total
---------------------------------------------------------------
Pair    | 32.49      | 32.49      | 32.49      |   0.0 | 53.57
Neigh   | 26.51      | 26.51      | 26.51      |   0.0 | 43.71
Comm    | 0.55376    | 0.55376    | 0.55376    |   0.0 |  0.91
Output  | 0.040882   | 0.040882   | 0.040882   |   0.0 |  0.07
Modify  | 0.75745    | 0.75745    | 0.75745    |   0.0 |  1.25
Other   |            | 0.3013     |            |       |  0.50

Nlocal:    19652 ave 19652 max 19652 min
Histogram: 1 0 0 0 0 0 0 0 0 0
Nghost:    17398 ave 17398 max 17398 min
Histogram: 1 0 0 0 0 0 0 0 0 0
Neighs:    1.30081e+06 ave 1.30081e+06 max 1.30081e+06 min
Histogram: 1 0 0 0 0 0 0 0 0 0

Total # of neighbors = 1300809
Ave neighs/atom = 66.1922
Neighbor list builds = 495
Dangerous builds not checked
Setting up Verlet run ...
  Unit style    : metal
  Current step  : 48499
  Time step     : 0.001
Per MPI rank memory allocation (min/avg/max) = 18.19 | 18.19 | 18.19 Mbytes
Step Temp Press TotEng PotEng Enthalpy Volume 
   48499    1816.2783    897.62767   -78346.356   -82959.868   -78133.644    379668.76 
   48671    1813.6604    143.50767   -78415.698   -83022.561   -78381.691     379672.3 
Loop time of 20.5519 on 1 procs for 172 steps with 19652 atoms

Performance: 0.723 ns/day, 33.191 hours/ns, 8.369 timesteps/s
99.9% CPU use with 1 MPI tasks x no OpenMP threads

MPI task timing breakdown:
Section |  min time  |  avg time  |  max time  |%varavg| %total
---------------------------------------------------------------
Pair    | 11.132     | 11.132     | 11.132     |   0.0 | 54.17
Neigh   | 8.8609     | 8.8609     | 8.8609     |   0.0 | 43.11
Comm    | 0.18972    | 0.18972    | 0.18972    |   0.0 |  0.92
Output  | 0.00016904 | 0.00016904 | 0.00016904 |   0.0 |  0.00
Modify  | 0.2639     | 0.2639     | 0.2639     |   0.0 |  1.28
Other   |            | 0.105      |            |       |  0.51

Nlocal:    19652 ave 19652 max 19652 min
Histogram: 1 0 0 0 0 0 0 0 0 0
Nghost:    17308 ave 17308 max 17308 min
Histogram: 1 0 0 0 0 0 0 0 0 0
Neighs:    1.30091e+06 ave 1.30091e+06 max 1.30091e+06 min
Histogram: 1 0 0 0 0 0 0 0 0 0

Total # of neighbors = 1300910
Ave neighs/atom = 66.1973
Neighbor list builds = 172
Dangerous builds not checked
Setting up Verlet run ...
  Unit style    : metal
  Current step  : 48671
  Time step     : 0.001
Per MPI rank memory allocation (min/avg/max) = 18.19 | 18.19 | 18.19 Mbytes
Step Temp Press TotEng PotEng Enthalpy Volume 
   48671    1813.6604    143.50767   -78415.698   -83022.561   -78381.691     379672.3 
   48691    1787.6773    745.78723   -78416.243   -82957.106   -78239.508    379679.26 
   49166    1763.7806    258.41036   -78600.131   -83080.294   -78539.116    378296.79 
Loop time of 61.9679 on 1 procs for 495 steps with 19652 atoms

Performance: 0.690 ns/day, 34.774 hours/ns, 7.988 timesteps/s
96.3% CPU use with 1 MPI tasks x no OpenMP threads

MPI task timing breakdown:
Section |  min time  |  avg time  |  max time  |%varavg| %total
---------------------------------------------------------------
Pair    | 33.515     | 33.515     | 33.515     |   0.0 | 54.09
Neigh   | 26.714     | 26.714     | 26.714     |   0.0 | 43.11
Comm    | 0.59046    | 0.59046    | 0.59046    |   0.0 |  0.95
Output  | 0.04198    | 0.04198    | 0.04198    |   0.0 |  0.07
Modify  | 0.79848    | 0.79848    | 0.79848    |   0.0 |  1.29
Other   |            | 0.3079     |            |       |  0.50

Nlocal:    19652 ave 19652 max 19652 min
Histogram: 1 0 0 0 0 0 0 0 0 0
Nghost:    17370 ave 17370 max 17370 min
Histogram: 1 0 0 0 0 0 0 0 0 0
Neighs:    1.30469e+06 ave 1.30469e+06 max 1.30469e+06 min
Histogram: 1 0 0 0 0 0 0 0 0 0

Total # of neighbors = 1304691
Ave neighs/atom = 66.3897
Neighbor list builds = 495
Dangerous builds not checked
Setting up Verlet run ...
  Unit style    : metal
  Current step  : 49166
  Time step     : 0.001
Per MPI rank memory allocation (min/avg/max) = 18.19 | 18.19 | 18.19 Mbytes
Step Temp Press TotEng PotEng Enthalpy Volume 
   49166    1763.7806    258.41036   -78600.131   -83080.294   -78539.116    378296.79 
   49338     1748.387   -41.312101   -78675.259   -83116.322   -78685.039    379271.79 
Loop time of 20.5619 on 1 procs for 172 steps with 19652 atoms

Performance: 0.723 ns/day, 33.207 hours/ns, 8.365 timesteps/s
99.0% CPU use with 1 MPI tasks x no OpenMP threads

MPI task timing breakdown:
Section |  min time  |  avg time  |  max time  |%varavg| %total
---------------------------------------------------------------
Pair    | 11.154     | 11.154     | 11.154     |   0.0 | 54.25
Neigh   | 8.8685     | 8.8685     | 8.8685     |   0.0 | 43.13
Comm    | 0.17776    | 0.17776    | 0.17776    |   0.0 |  0.86
Output  | 0.00016999 | 0.00016999 | 0.00016999 |   0.0 |  0.00
Modify  | 0.25788    | 0.25788    | 0.25788    |   0.0 |  1.25
Other   |            | 0.1035     |            |       |  0.50

Nlocal:    19652 ave 19652 max 19652 min
Histogram: 1 0 0 0 0 0 0 0 0 0
Nghost:    17363 ave 17363 max 17363 min
Histogram: 1 0 0 0 0 0 0 0 0 0
Neighs:    1.30235e+06 ave 1.30235e+06 max 1.30235e+06 min
Histogram: 1 0 0 0 0 0 0 0 0 0

Total # of neighbors = 1302351
Ave neighs/atom = 66.2707
Neighbor list builds = 172
Dangerous builds not checked
Setting up Verlet run ...
  Unit style    : metal
  Current step  : 49338
  Time step     : 0.001
Per MPI rank memory allocation (min/avg/max) = 18.19 | 18.19 | 18.19 Mbytes
Step Temp Press TotEng PotEng Enthalpy Volume 
   49338     1748.387   -41.312101   -78675.259   -83116.322   -78685.039    379271.79 
   49358    1737.7843    206.55482   -78674.803   -83088.933   -78625.906    379272.22 
   49833    1704.8382       696.11   -78816.168   -83146.612   -78652.026    377790.46 
Loop time of 62.3244 on 1 procs for 495 steps with 19652 atoms

Performance: 0.686 ns/day, 34.974 hours/ns, 7.942 timesteps/s
96.2% CPU use with 1 MPI tasks x no OpenMP threads

MPI task timing breakdown:
Section |  min time  |  avg time  |  max time  |%varavg| %total
---------------------------------------------------------------
Pair    | 33.585     | 33.585     | 33.585     |   0.0 | 53.89
Neigh   | 27.078     | 27.078     | 27.078     |   0.0 | 43.45
Comm    | 0.5601     | 0.5601     | 0.5601     |   0.0 |  0.90
Output  | 0.041743   | 0.041743   | 0.041743   |   0.0 |  0.07
Modify  | 0.76705    | 0.76705    | 0.76705    |   0.0 |  1.23
Other   |            | 0.2926     |            |       |  0.47

Nlocal:    19652 ave 19652 max 19652 min
Histogram: 1 0 0 0 0 0 0 0 0 0
Nghost:    17390 ave 17390 max 17390 min
Histogram: 1 0 0 0 0 0 0 0 0 0
Neighs:    1.30691e+06 ave 1.30691e+06 max 1.30691e+06 min
Histogram: 1 0 0 0 0 0 0 0 0 0

Total # of neighbors = 1306910
Ave neighs/atom = 66.5026
Neighbor list builds = 495
Dangerous builds not checked
Setting up Verlet run ...
  Unit style    : metal
  Current step  : 49833
  Time step     : 0.001
Per MPI rank memory allocation (min/avg/max) = 18.19 | 18.19 | 18.19 Mbytes
Step Temp Press TotEng PotEng Enthalpy Volume 
   49833    1704.8382       696.11   -78816.168   -83146.612   -78652.026    377790.46 
   50005     1699.513   -897.59632   -78867.884   -83184.802   -79079.901    378442.89 
Loop time of 20.2412 on 1 procs for 172 steps with 19652 atoms

Performance: 0.734 ns/day, 32.689 hours/ns, 8.498 timesteps/s
99.9% CPU use with 1 MPI tasks x no OpenMP threads

MPI task timing breakdown:
Section |  min time  |  avg time  |  max time  |%varavg| %total
---------------------------------------------------------------
Pair    | 10.944     | 10.944     | 10.944     |   0.0 | 54.07
Neigh   | 8.7595     | 8.7595     | 8.7595     |   0.0 | 43.28
Comm    | 0.18092    | 0.18092    | 0.18092    |   0.0 |  0.89
Output  | 0.001003   | 0.001003   | 0.001003   |   0.0 |  0.00
Modify  | 0.25487    | 0.25487    | 0.25487    |   0.0 |  1.26
Other   |            | 0.1005     |            |       |  0.50

Nlocal:    19652 ave 19652 max 19652 min
Histogram: 1 0 0 0 0 0 0 0 0 0
Nghost:    17348 ave 17348 max 17348 min
Histogram: 1 0 0 0 0 0 0 0 0 0
Neighs:    1.30524e+06 ave 1.30524e+06 max 1.30524e+06 min
Histogram: 1 0 0 0 0 0 0 0 0 0

Total # of neighbors = 1305240
Ave neighs/atom = 66.4177
Neighbor list builds = 172
Dangerous builds not checked
Setting up Verlet run ...
  Unit style    : metal
  Current step  : 50005
  Time step     : 0.001
Per MPI rank memory allocation (min/avg/max) = 18.19 | 18.19 | 18.19 Mbytes
Step Temp Press TotEng PotEng Enthalpy Volume 
   50005     1699.513   -897.59632   -78867.884   -83184.802   -79079.901    378442.89 
   50025    1697.4137      -477.22   -78867.696   -83179.281   -78980.414    378428.73 
   50500      1657.66    775.99554   -79047.766   -83258.373   -78864.855     377650.8 
Loop time of 60.0889 on 1 procs for 495 steps with 19652 atoms

Performance: 0.712 ns/day, 33.720 hours/ns, 8.238 timesteps/s
99.3% CPU use with 1 MPI tasks x no OpenMP threads

MPI task timing breakdown:
Section |  min time  |  avg time  |  max time  |%varavg| %total
---------------------------------------------------------------
Pair    | 32.226     | 32.226     | 32.226     |   0.0 | 53.63
Neigh   | 26.283     | 26.283     | 26.283     |   0.0 | 43.74
Comm    | 0.51824    | 0.51824    | 0.51824    |   0.0 |  0.86
Output  | 0.04269    | 0.04269    | 0.04269    |   0.0 |  0.07
Modify  | 0.73445    | 0.73445    | 0.73445    |   0.0 |  1.22
Other   |            | 0.2838     |            |       |  0.47

Nlocal:    19652 ave 19652 max 19652 min
Histogram: 1 0 0 0 0 0 0 0 0 0
Nghost:    17389 ave 17389 max 17389 min
Histogram: 1 0 0 0 0 0 0 0 0 0
Neighs:    1.30786e+06 ave 1.30786e+06 max 1.30786e+06 min
Histogram: 1 0 0 0 0 0 0 0 0 0

Total # of neighbors = 1307861
Ave neighs/atom = 66.551
Neighbor list builds = 495
Dangerous builds not checked
Setting up Verlet run ...
  Unit style    : metal
  Current step  : 50500
  Time step     : 0.001
Per MPI rank memory allocation (min/avg/max) = 18.19 | 18.19 | 18.19 Mbytes
Step Temp Press TotEng PotEng Enthalpy Volume 
   50500      1657.66    775.99554   -79047.766   -83258.373   -78864.855     377650.8 
   50672     1643.818   -1019.4616   -79098.154   -83273.601   -79338.769     378148.4 
Loop time of 20.2282 on 1 procs for 172 steps with 19652 atoms

Performance: 0.735 ns/day, 32.668 hours/ns, 8.503 timesteps/s
99.8% CPU use with 1 MPI tasks x no OpenMP threads

MPI task timing breakdown:
Section |  min time  |  avg time  |  max time  |%varavg| %total
---------------------------------------------------------------
Pair    | 10.957     | 10.957     | 10.957     |   0.0 | 54.17
Neigh   | 8.7517     | 8.7517     | 8.7517     |   0.0 | 43.26
Comm    | 0.17282    | 0.17282    | 0.17282    |   0.0 |  0.85
Output  | 0.00017095 | 0.00017095 | 0.00017095 |   0.0 |  0.00
Modify  | 0.25162    | 0.25162    | 0.25162    |   0.0 |  1.24
Other   |            | 0.09524    |            |       |  0.47

Nlocal:    19652 ave 19652 max 19652 min
Histogram: 1 0 0 0 0 0 0 0 0 0
Nghost:    17395 ave 17395 max 17395 min
Histogram: 1 0 0 0 0 0 0 0 0 0
Neighs:    1.30568e+06 ave 1.30568e+06 max 1.30568e+06 min
Histogram: 1 0 0 0 0 0 0 0 0 0

Total # of neighbors = 1305684
Ave neighs/atom = 66.4403
Neighbor list builds = 172
Dangerous builds not checked
Setting up Verlet run ...
  Unit style    : metal
  Current step  : 50672
  Time step     : 0.001
Per MPI rank memory allocation (min/avg/max) = 18.19 | 18.19 | 18.19 Mbytes
Step Temp Press TotEng PotEng Enthalpy Volume 
   50672     1643.818   -1019.4616   -79098.154   -83273.601   -79338.769     378148.4 
   50692     1646.935   -935.48965   -79097.885    -83281.25   -79318.669    378127.75 
   51167    1609.9168    178.24094   -79306.495   -83395.831    -79264.53    377216.78 
Loop time of 60.2828 on 1 procs for 495 steps with 19652 atoms

Performance: 0.709 ns/day, 33.829 hours/ns, 8.211 timesteps/s
99.4% CPU use with 1 MPI tasks x no OpenMP threads

MPI task timing breakdown:
Section |  min time  |  avg time  |  max time  |%varavg| %total
---------------------------------------------------------------
Pair    | 32.012     | 32.012     | 32.012     |   0.0 | 53.10
Neigh   | 26.667     | 26.667     | 26.667     |   0.0 | 44.24
Comm    | 0.53182    | 0.53182    | 0.53182    |   0.0 |  0.88
Output  | 0.042042   | 0.042042   | 0.042042   |   0.0 |  0.07
Modify  | 0.73986    | 0.73986    | 0.73986    |   0.0 |  1.23
Other   |            | 0.2904     |            |       |  0.48

Nlocal:    19652 ave 19652 max 19652 min
Histogram: 1 0 0 0 0 0 0 0 0 0
Nghost:    17366 ave 17366 max 17366 min
Histogram: 1 0 0 0 0 0 0 0 0 0
Neighs:    1.30903e+06 ave 1.30903e+06 max 1.30903e+06 min
Histogram: 1 0 0 0 0 0 0 0 0 0

Total # of neighbors = 1309026
Ave neighs/atom = 66.6103
Neighbor list builds = 495
Dangerous builds not checked
Setting up Verlet run ...
  Unit style    : metal
  Current step  : 51167
  Time step     : 0.001
Per MPI rank memory allocation (min/avg/max) = 18.2 | 18.2 | 18.2 Mbytes
Step Temp Press TotEng PotEng Enthalpy Volume 
   51167    1609.9168    178.24094   -79306.495   -83395.831    -79264.53    377216.78 
   51339    1586.9877   -665.63867   -79362.382   -83393.476   -79519.104    377225.33 
Loop time of 20.2985 on 1 procs for 172 steps with 19652 atoms

Performance: 0.732 ns/day, 32.782 hours/ns, 8.474 timesteps/s
99.8% CPU use with 1 MPI tasks x no OpenMP threads

MPI task timing breakdown:
Section |  min time  |  avg time  |  max time  |%varavg| %total
---------------------------------------------------------------
Pair    | 10.988     | 10.988     | 10.988     |   0.0 | 54.13
Neigh   | 8.7774     | 8.7774     | 8.7774     |   0.0 | 43.24
Comm    | 0.17828    | 0.17828    | 0.17828    |   0.0 |  0.88
Output  | 0.00017118 | 0.00017118 | 0.00017118 |   0.0 |  0.00
Modify  | 0.2551     | 0.2551     | 0.2551     |   0.0 |  1.26
Other   |            | 0.09927    |            |       |  0.49

Nlocal:    19652 ave 19652 max 19652 min
Histogram: 1 0 0 0 0 0 0 0 0 0
Nghost:    17420 ave 17420 max 17420 min
Histogram: 1 0 0 0 0 0 0 0 0 0
Neighs:    1.30898e+06 ave 1.30898e+06 max 1.30898e+06 min
Histogram: 1 0 0 0 0 0 0 0 0 0

Total # of neighbors = 1308980
Ave neighs/atom = 66.608
Neighbor list builds = 172
Dangerous builds not checked
Setting up Verlet run ...
  Unit style    : metal
  Current step  : 51339
  Time step     : 0.001
Per MPI rank memory allocation (min/avg/max) = 18.2 | 18.2 | 18.2 Mbytes
Step Temp Press TotEng PotEng Enthalpy Volume 
   51339    1586.9877   -665.63867   -79362.382   -83393.476   -79519.104    377225.33 
   51359    1590.4668   -918.00574   -79361.399    -83401.33    -79577.53    377208.37 
   51834    1561.7152    1286.0542    -79540.73   -83507.629   -79238.905    376016.24 
Loop time of 65.877 on 1 procs for 495 steps with 19652 atoms

Performance: 0.649 ns/day, 36.968 hours/ns, 7.514 timesteps/s
99.3% CPU use with 1 MPI tasks x no OpenMP threads

MPI task timing breakdown:
Section |  min time  |  avg time  |  max time  |%varavg| %total
---------------------------------------------------------------
Pair    | 33.58      | 33.58      | 33.58      |   0.0 | 50.97
Neigh   | 30.606     | 30.606     | 30.606     |   0.0 | 46.46
Comm    | 0.55214    | 0.55214    | 0.55214    |   0.0 |  0.84
Output  | 0.042313   | 0.042313   | 0.042313   |   0.0 |  0.06
Modify  | 0.78451    | 0.78451    | 0.78451    |   0.0 |  1.19
Other   |            | 0.3122     |            |       |  0.47

Nlocal:    19652 ave 19652 max 19652 min
Histogram: 1 0 0 0 0 0 0 0 0 0
Nghost:    17384 ave 17384 max 17384 min
Histogram: 1 0 0 0 0 0 0 0 0 0
Neighs:    1.31294e+06 ave 1.31294e+06 max 1.31294e+06 min
Histogram: 1 0 0 0 0 0 0 0 0 0

Total # of neighbors = 1312940
Ave neighs/atom = 66.8095
Neighbor list builds = 495
Dangerous builds not checked
Setting up Verlet run ...
  Unit style    : metal
  Current step  : 51834
  Time step     : 0.001
Per MPI rank memory allocation (min/avg/max) = 18.2 | 18.2 | 18.2 Mbytes
Step Temp Press TotEng PotEng Enthalpy Volume 
   51834    1561.7152    1286.0542    -79540.73   -83507.629   -79238.905    376016.24 
   52006    1560.1261   -849.08993   -79604.163   -83567.025   -79803.741    376591.39 
Loop time of 21.5409 on 1 procs for 172 steps with 19652 atoms

Performance: 0.690 ns/day, 34.788 hours/ns, 7.985 timesteps/s
99.5% CPU use with 1 MPI tasks x no OpenMP threads

MPI task timing breakdown:
Section |  min time  |  avg time  |  max time  |%varavg| %total
---------------------------------------------------------------
Pair    | 11.122     | 11.122     | 11.122     |   0.0 | 51.63
Neigh   | 9.879      | 9.879      | 9.879      |   0.0 | 45.86
Comm    | 0.17836    | 0.17836    | 0.17836    |   0.0 |  0.83
Output  | 0.00017309 | 0.00017309 | 0.00017309 |   0.0 |  0.00
Modify  | 0.25763    | 0.25763    | 0.25763    |   0.0 |  1.20
Other   |            | 0.1033     |            |       |  0.48

Nlocal:    19652 ave 19652 max 19652 min
Histogram: 1 0 0 0 0 0 0 0 0 0
Nghost:    17415 ave 17415 max 17415 min
Histogram: 1 0 0 0 0 0 0 0 0 0
Neighs:    1.31111e+06 ave 1.31111e+06 max 1.31111e+06 min
Histogram: 1 0 0 0 0 0 0 0 0 0

Total # of neighbors = 1311113
Ave neighs/atom = 66.7165
Neighbor list builds = 172
Dangerous builds not checked
Setting up Verlet run ...
  Unit style    : metal
  Current step  : 52006
  Time step     : 0.001
Per MPI rank memory allocation (min/avg/max) = 18.2 | 18.2 | 18.2 Mbytes
Step Temp Press TotEng PotEng Enthalpy Volume 
   52006    1560.1261   -849.08993   -79604.163   -83567.025   -79803.741    376591.39 
   52026    1551.4882   -450.09745   -79604.719    -83545.64    -79710.51    376577.56 
   52501    1500.3806   -308.83794   -79785.938   -83597.042   -79858.294    375365.71 
Loop time of 63.8088 on 1 procs for 495 steps with 19652 atoms

Performance: 0.670 ns/day, 35.807 hours/ns, 7.758 timesteps/s
99.4% CPU use with 1 MPI tasks x no OpenMP threads

MPI task timing breakdown:
Section |  min time  |  avg time  |  max time  |%varavg| %total
---------------------------------------------------------------
Pair    | 32.516     | 32.516     | 32.516     |   0.0 | 50.96
Neigh   | 29.679     | 29.679     | 29.679     |   0.0 | 46.51
Comm    | 0.53181    | 0.53181    | 0.53181    |   0.0 |  0.83
Output  | 0.041667   | 0.041667   | 0.041667   |   0.0 |  0.07
Modify  | 0.74261    | 0.74261    | 0.74261    |   0.0 |  1.16
Other   |            | 0.2975     |            |       |  0.47

Nlocal:    19652 ave 19652 max 19652 min
Histogram: 1 0 0 0 0 0 0 0 0 0
Nghost:    17441 ave 17441 max 17441 min
Histogram: 1 0 0 0 0 0 0 0 0 0
Neighs:    1.31592e+06 ave 1.31592e+06 max 1.31592e+06 min
Histogram: 1 0 0 0 0 0 0 0 0 0

Total # of neighbors = 1315915
Ave neighs/atom = 66.9609
Neighbor list builds = 495
Dangerous builds not checked
Setting up Verlet run ...
  Unit style    : metal
  Current step  : 52501
  Time step     : 0.001
Per MPI rank memory allocation (min/avg/max) = 18.2 | 18.2 | 18.2 Mbytes
Step Temp Press TotEng PotEng Enthalpy Volume 
   52501    1500.3806   -308.83794   -79785.938   -83597.042   -79858.294    375365.71 
   52673     1483.179    691.57091   -79843.277   -83610.687    -79681.32    375208.43 
Loop time of 21.5532 on 1 procs for 172 steps with 19652 atoms

Performance: 0.689 ns/day, 34.808 hours/ns, 7.980 timesteps/s
99.7% CPU use with 1 MPI tasks x no OpenMP threads

MPI task timing breakdown:
Section |  min time  |  avg time  |  max time  |%varavg| %total
---------------------------------------------------------------
Pair    | 11.107     | 11.107     | 11.107     |   0.0 | 51.53
Neigh   | 9.8934     | 9.8934     | 9.8934     |   0.0 | 45.90
Comm    | 0.18815    | 0.18815    | 0.18815    |   0.0 |  0.87
Output  | 0.00016904 | 0.00016904 | 0.00016904 |   0.0 |  0.00
Modify  | 0.26148    | 0.26148    | 0.26148    |   0.0 |  1.21
Other   |            | 0.1029     |            |       |  0.48

Nlocal:    19652 ave 19652 max 19652 min
Histogram: 1 0 0 0 0 0 0 0 0 0
Nghost:    17428 ave 17428 max 17428 min
Histogram: 1 0 0 0 0 0 0 0 0 0
Neighs:    1.31602e+06 ave 1.31602e+06 max 1.31602e+06 min
Histogram: 1 0 0 0 0 0 0 0 0 0

Total # of neighbors = 1316020
Ave neighs/atom = 66.9662
Neighbor list builds = 172
Dangerous builds not checked
Setting up Verlet run ...
  Unit style    : metal
  Current step  : 52673
  Time step     : 0.001
Per MPI rank memory allocation (min/avg/max) = 18.2 | 18.2 | 18.2 Mbytes
Step Temp Press TotEng PotEng Enthalpy Volume 
   52673     1483.179    691.57091   -79843.277   -83610.687    -79681.32    375208.43 
   52693    1501.9751    505.91511   -79842.298   -83657.452   -79723.815    375221.79 
   53168     1458.607   -80.563966   -80036.351   -83741.345   -80055.208    375025.27 
Loop time of 64.7686 on 1 procs for 495 steps with 19652 atoms

Performance: 0.660 ns/day, 36.346 hours/ns, 7.643 timesteps/s
99.8% CPU use with 1 MPI tasks x no OpenMP threads

MPI task timing breakdown:
Section |  min time  |  avg time  |  max time  |%varavg| %total
---------------------------------------------------------------
Pair    | 33.582     | 33.582     | 33.582     |   0.0 | 51.85
Neigh   | 29.405     | 29.405     | 29.405     |   0.0 | 45.40
Comm    | 0.58578    | 0.58578    | 0.58578    |   0.0 |  0.90
Output  | 0.044217   | 0.044217   | 0.044217   |   0.0 |  0.07
Modify  | 0.82608    | 0.82608    | 0.82608    |   0.0 |  1.28
Other   |            | 0.3264     |            |       |  0.50

Nlocal:    19652 ave 19652 max 19652 min
Histogram: 1 0 0 0 0 0 0 0 0 0
Nghost:    17452 ave 17452 max 17452 min
Histogram: 1 0 0 0 0 0 0 0 0 0
Neighs:    1.31718e+06 ave 1.31718e+06 max 1.31718e+06 min
Histogram: 1 0 0 0 0 0 0 0 0 0

Total # of neighbors = 1317179
Ave neighs/atom = 67.0252
Neighbor list builds = 495
Dangerous builds not checked
Setting up Verlet run ...
  Unit style    : metal
  Current step  : 53168
  Time step     : 0.001
Per MPI rank memory allocation (min/avg/max) = 18.2 | 18.2 | 18.2 Mbytes
Step Temp Press TotEng PotEng Enthalpy Volume 
   53168     1458.607   -80.563966   -80036.351   -83741.345   -80055.208    375025.27 
   53340    1460.5908   -32.628442   -80104.102   -83814.136   -80111.742    375115.94 
Loop time of 23.1158 on 1 procs for 172 steps with 19652 atoms

Performance: 0.643 ns/day, 37.332 hours/ns, 7.441 timesteps/s
99.8% CPU use with 1 MPI tasks x no OpenMP threads

MPI task timing breakdown:
Section |  min time  |  avg time  |  max time  |%varavg| %total
---------------------------------------------------------------
Pair    | 12.21      | 12.21      | 12.21      |   0.0 | 52.82
Neigh   | 10.226     | 10.226     | 10.226     |   0.0 | 44.24
Comm    | 0.22533    | 0.22533    | 0.22533    |   0.0 |  0.97
Output  | 0.00016594 | 0.00016594 | 0.00016594 |   0.0 |  0.00
Modify  | 0.32112    | 0.32112    | 0.32112    |   0.0 |  1.39
Other   |            | 0.1323     |            |       |  0.57

Nlocal:    19652 ave 19652 max 19652 min
Histogram: 1 0 0 0 0 0 0 0 0 0
Nghost:    17385 ave 17385 max 17385 min
Histogram: 1 0 0 0 0 0 0 0 0 0
Neighs:    1.31707e+06 ave 1.31707e+06 max 1.31707e+06 min
Histogram: 1 0 0 0 0 0 0 0 0 0

Total # of neighbors = 1317072
Ave neighs/atom = 67.0197
Neighbor list builds = 172
Dangerous builds not checked
Setting up Verlet run ...
  Unit style    : metal
  Current step  : 53340
  Time step     : 0.001
Per MPI rank memory allocation (min/avg/max) = 18.2 | 18.2 | 18.2 Mbytes
Step Temp Press TotEng PotEng Enthalpy Volume 
   53340    1460.5908   -32.628442   -80104.102   -83814.136   -80111.742    375115.94 
   53360    1453.0492   -5.4568643   -80105.107   -83795.984   -80106.384    375114.36 
   53835    1413.0501    626.95806   -80304.771   -83894.047   -80158.444    373933.18 
Loop time of 68.9903 on 1 procs for 495 steps with 19652 atoms

Performance: 0.620 ns/day, 38.715 hours/ns, 7.175 timesteps/s
99.0% CPU use with 1 MPI tasks x no OpenMP threads

MPI task timing breakdown:
Section |  min time  |  avg time  |  max time  |%varavg| %total
---------------------------------------------------------------
Pair    | 35.985     | 35.985     | 35.985     |   0.0 | 52.16
Neigh   | 31.038     | 31.038     | 31.038     |   0.0 | 44.99
Comm    | 0.64946    | 0.64946    | 0.64946    |   0.0 |  0.94
Output  | 0.041847   | 0.041847   | 0.041847   |   0.0 |  0.06
Modify  | 0.91002    | 0.91002    | 0.91002    |   0.0 |  1.32
Other   |            | 0.3668     |            |       |  0.53

Nlocal:    19652 ave 19652 max 19652 min
Histogram: 1 0 0 0 0 0 0 0 0 0
Nghost:    17545 ave 17545 max 17545 min
Histogram: 1 0 0 0 0 0 0 0 0 0
Neighs:    1.32124e+06 ave 1.32124e+06 max 1.32124e+06 min
Histogram: 1 0 0 0 0 0 0 0 0 0

Total # of neighbors = 1321239
Ave neighs/atom = 67.2318
Neighbor list builds = 495
Dangerous builds not checked
Setting up Verlet run ...
  Unit style    : metal
  Current step  : 53835
  Time step     : 0.001
Per MPI rank memory allocation (min/avg/max) = 18.2 | 18.2 | 18.2 Mbytes
Step Temp Press TotEng PotEng Enthalpy Volume 
   53835    1413.0501    626.95806   -80304.771   -83894.047   -80158.444    373933.18 
   54007    1393.7917   -1184.0777   -80365.556   -83905.914   -80642.519    374758.67 
Loop time of 21.7393 on 1 procs for 172 steps with 19652 atoms

Performance: 0.684 ns/day, 35.109 hours/ns, 7.912 timesteps/s
99.1% CPU use with 1 MPI tasks x no OpenMP threads

MPI task timing breakdown:
Section |  min time  |  avg time  |  max time  |%varavg| %total
---------------------------------------------------------------
Pair    | 11.265     | 11.265     | 11.265     |   0.0 | 51.82
Neigh   | 9.9174     | 9.9174     | 9.9174     |   0.0 | 45.62
Comm    | 0.18658    | 0.18658    | 0.18658    |   0.0 |  0.86
Output  | 0.00016499 | 0.00016499 | 0.00016499 |   0.0 |  0.00
Modify  | 0.26812    | 0.26812    | 0.26812    |   0.0 |  1.23
Other   |            | 0.1019     |            |       |  0.47

Nlocal:    19652 ave 19652 max 19652 min
Histogram: 1 0 0 0 0 0 0 0 0 0
Nghost:    17434 ave 17434 max 17434 min
Histogram: 1 0 0 0 0 0 0 0 0 0
Neighs:    1.31778e+06 ave 1.31778e+06 max 1.31778e+06 min
Histogram: 1 0 0 0 0 0 0 0 0 0

Total # of neighbors = 1317778
Ave neighs/atom = 67.0557
Neighbor list builds = 172
Dangerous builds not checked
Setting up Verlet run ...
  Unit style    : metal
  Current step  : 54007
  Time step     : 0.001
Per MPI rank memory allocation (min/avg/max) = 18.2 | 18.2 | 18.2 Mbytes
Step Temp Press TotEng PotEng Enthalpy Volume 
   54007    1393.7917   -1184.0777   -80365.556   -83905.914   -80642.519    374758.67 
   54027    1391.6077   -967.57266    -80364.76   -83899.571   -80591.066    374733.97 
   54502    1359.6734   -579.30003   -80562.484   -84016.178   -80697.548    373550.04 
Loop time of 66.4848 on 1 procs for 495 steps with 19652 atoms

Performance: 0.643 ns/day, 37.309 hours/ns, 7.445 timesteps/s
98.7% CPU use with 1 MPI tasks x no OpenMP threads

MPI task timing breakdown:
Section |  min time  |  avg time  |  max time  |%varavg| %total
---------------------------------------------------------------
Pair    | 34.192     | 34.192     | 34.192     |   0.0 | 51.43
Neigh   | 30.482     | 30.482     | 30.482     |   0.0 | 45.85
Comm    | 0.6062     | 0.6062     | 0.6062     |   0.0 |  0.91
Output  | 0.041708   | 0.041708   | 0.041708   |   0.0 |  0.06
Modify  | 0.84161    | 0.84161    | 0.84161    |   0.0 |  1.27
Other   |            | 0.3213     |            |       |  0.48

Nlocal:    19652 ave 19652 max 19652 min
Histogram: 1 0 0 0 0 0 0 0 0 0
Nghost:    17475 ave 17475 max 17475 min
Histogram: 1 0 0 0 0 0 0 0 0 0
Neighs:    1.3222e+06 ave 1.3222e+06 max 1.3222e+06 min
Histogram: 1 0 0 0 0 0 0 0 0 0

Total # of neighbors = 1322197
Ave neighs/atom = 67.2805
Neighbor list builds = 495
Dangerous builds not checked
Setting up Verlet run ...
  Unit style    : metal
  Current step  : 54502
  Time step     : 0.001
Per MPI rank memory allocation (min/avg/max) = 18.2 | 18.2 | 18.2 Mbytes
Step Temp Press TotEng PotEng Enthalpy Volume 
   54502    1359.6734   -579.30003   -80562.484   -84016.178   -80697.548    373550.04 
   54674    1345.5145    537.12619   -80622.842   -84040.571   -80497.681     373337.6 
Loop time of 21.4742 on 1 procs for 172 steps with 19652 atoms

Performance: 0.692 ns/day, 34.681 hours/ns, 8.010 timesteps/s
99.9% CPU use with 1 MPI tasks x no OpenMP threads

MPI task timing breakdown:
Section |  min time  |  avg time  |  max time  |%varavg| %total
---------------------------------------------------------------
Pair    | 11.093     | 11.093     | 11.093     |   0.0 | 51.66
Neigh   | 9.8436     | 9.8436     | 9.8436     |   0.0 | 45.84
Comm    | 0.18048    | 0.18048    | 0.18048    |   0.0 |  0.84
Output  | 0.0001688  | 0.0001688  | 0.0001688  |   0.0 |  0.00
Modify  | 0.25861    | 0.25861    | 0.25861    |   0.0 |  1.20
Other   |            | 0.09812    |            |       |  0.46

Nlocal:    19652 ave 19652 max 19652 min
Histogram: 1 0 0 0 0 0 0 0 0 0
Nghost:    17485 ave 17485 max 17485 min
Histogram: 1 0 0 0 0 0 0 0 0 0
Neighs:    1.32322e+06 ave 1.32322e+06 max 1.32322e+06 min
Histogram: 1 0 0 0 0 0 0 0 0 0

Total # of neighbors = 1323220
Ave neighs/atom = 67.3326
Neighbor list builds = 172
Dangerous builds not checked
Setting up Verlet run ...
  Unit style    : metal
  Current step  : 54674
  Time step     : 0.001
Per MPI rank memory allocation (min/avg/max) = 18.2 | 18.2 | 18.2 Mbytes
Step Temp Press TotEng PotEng Enthalpy Volume 
   54674    1345.5145    537.12619   -80622.842   -84040.571   -80497.681     373337.6 
   54694    1356.1433   -264.06875   -80622.682    -84067.41   -80684.216    373343.32 
   55169    1320.9445   -339.49833   -80822.069   -84177.388   -80901.112    373024.83 
Loop time of 62.5859 on 1 procs for 495 steps with 19652 atoms

Performance: 0.683 ns/day, 35.121 hours/ns, 7.909 timesteps/s
99.8% CPU use with 1 MPI tasks x no OpenMP threads

MPI task timing breakdown:
Section |  min time  |  avg time  |  max time  |%varavg| %total
---------------------------------------------------------------
Pair    | 32.186     | 32.186     | 32.186     |   0.0 | 51.43
Neigh   | 28.793     | 28.793     | 28.793     |   0.0 | 46.01
Comm    | 0.52866    | 0.52866    | 0.52866    |   0.0 |  0.84
Output  | 0.042287   | 0.042287   | 0.042287   |   0.0 |  0.07
Modify  | 0.74565    | 0.74565    | 0.74565    |   0.0 |  1.19
Other   |            | 0.2909     |            |       |  0.46

Nlocal:    19652 ave 19652 max 19652 min
Histogram: 1 0 0 0 0 0 0 0 0 0
Nghost:    17492 ave 17492 max 17492 min
Histogram: 1 0 0 0 0 0 0 0 0 0
Neighs:    1.32426e+06 ave 1.32426e+06 max 1.32426e+06 min
Histogram: 1 0 0 0 0 0 0 0 0 0

Total # of neighbors = 1324256
Ave neighs/atom = 67.3853
Neighbor list builds = 495
Dangerous builds not checked
Setting up Verlet run ...
  Unit style    : metal
  Current step  : 55169
  Time step     : 0.001
Per MPI rank memory allocation (min/avg/max) = 18.2 | 18.2 | 18.2 Mbytes
Step Temp Press TotEng PotEng Enthalpy Volume 
   55169    1320.9445   -339.49833   -80822.069   -84177.388   -80901.112    373024.83 
   55341    1296.4904    -156.6614   -80885.537   -84178.741   -80922.032    373236.44 
Loop time of 22.2592 on 1 procs for 172 steps with 19652 atoms

Performance: 0.668 ns/day, 35.948 hours/ns, 7.727 timesteps/s
99.8% CPU use with 1 MPI tasks x no OpenMP threads

MPI task timing breakdown:
Section |  min time  |  avg time  |  max time  |%varavg| %total
---------------------------------------------------------------
[...]
Output  | 0.044706   | 0.044706   | 0.044706   |   0.0 |  0.07
Modify  | 0.92305    | 0.92305    | 0.92305    |   0.0 |  1.41
Other   |            | 0.3608     |            |       |  0.55

Nlocal:    19652 ave 19652 max 19652 min
Histogram: 1 0 0 0 0 0 0 0 0 0
Nghost:    17608 ave 17608 max 17608 min
Histogram: 1 0 0 0 0 0 0 0 0 0
Neighs:    1.35573e+06 ave 1.35573e+06 max 1.35573e+06 min
Histogram: 1 0 0 0 0 0 0 0 0 0

Total # of neighbors = 1355730
Ave neighs/atom = 68.9869
Neighbor list builds = 495
Dangerous builds not checked
Setting up Verlet run ...
  Unit style    : metal
  Current step  : 67175
  Time step     : 0.001
Per MPI rank memory allocation (min/avg/max) = 18.2 | 18.2 | 18.2 Mbytes
Step Temp Press TotEng PotEng Enthalpy Volume 
   67175    431.31146   -385.76358   -86727.163   -87822.733   -86814.926    364500.95 
   67347    425.55804    218.94274   -86799.207   -87880.163   -86749.434    364221.79 
Loop time of 22.8039 on 1 procs for 172 steps with 19652 atoms

Performance: 0.652 ns/day, 36.828 hours/ns, 7.543 timesteps/s
99.8% CPU use with 1 MPI tasks x no OpenMP threads

MPI task timing breakdown:
Section |  min time  |  avg time  |  max time  |%varavg| %total
---------------------------------------------------------------
Pair    | 12.18      | 12.18      | 12.18      |   0.0 | 53.41
Neigh   | 9.9293     | 9.9293     | 9.9293     |   0.0 | 43.54
Comm    | 0.23333    | 0.23333    | 0.23333    |   0.0 |  1.02
Output  | 0.00076604 | 0.00076604 | 0.00076604 |   0.0 |  0.00
Modify  | 0.3277     | 0.3277     | 0.3277     |   0.0 |  1.44
Other   |            | 0.1332     |            |       |  0.58

Nlocal:    19652 ave 19652 max 19652 min
Histogram: 1 0 0 0 0 0 0 0 0 0
Nghost:    17602 ave 17602 max 17602 min
Histogram: 1 0 0 0 0 0 0 0 0 0
Neighs:    1.3568e+06 ave 1.3568e+06 max 1.3568e+06 min
Histogram: 1 0 0 0 0 0 0 0 0 0

Total # of neighbors = 1356795
Ave neighs/atom = 69.0411
Neighbor list builds = 172
Dangerous builds not checked
Setting up Verlet run ...
  Unit style    : metal
  Current step  : 67347
  Time step     : 0.001
Per MPI rank memory allocation (min/avg/max) = 18.2 | 18.2 | 18.2 Mbytes
Step Temp Press TotEng PotEng Enthalpy Volume 
   67347    425.55804    218.94274   -86799.207   -87880.163   -86749.434    364221.79 
   67367    423.66232    347.96725   -86802.024   -87878.165   -86722.917    364240.45 
   67842    379.73546    513.00614   -87082.161   -88046.723   -86965.703     363710.9 
Loop time of 64.253 on 1 procs for 495 steps with 19652 atoms

Performance: 0.666 ns/day, 36.057 hours/ns, 7.704 timesteps/s
98.5% CPU use with 1 MPI tasks x no OpenMP threads

MPI task timing breakdown:
Section |  min time  |  avg time  |  max time  |%varavg| %total
---------------------------------------------------------------
Pair    | 33.757     | 33.757     | 33.757     |   0.0 | 52.54
Neigh   | 28.699     | 28.699     | 28.699     |   0.0 | 44.67
Comm    | 0.57463    | 0.57463    | 0.57463    |   0.0 |  0.89
Output  | 0.046691   | 0.046691   | 0.046691   |   0.0 |  0.07
Modify  | 0.83631    | 0.83631    | 0.83631    |   0.0 |  1.30
Other   |            | 0.3394     |            |       |  0.53

Nlocal:    19652 ave 19652 max 19652 min
Histogram: 1 0 0 0 0 0 0 0 0 0
Nghost:    17656 ave 17656 max 17656 min
Histogram: 1 0 0 0 0 0 0 0 0 0
Neighs:    1.35903e+06 ave 1.35903e+06 max 1.35903e+06 min
Histogram: 1 0 0 0 0 0 0 0 0 0

Total # of neighbors = 1359032
Ave neighs/atom = 69.1549
Neighbor list builds = 495
Dangerous builds not checked
Setting up Verlet run ...
  Unit style    : metal
  Current step  : 67842
  Time step     : 0.001
Per MPI rank memory allocation (min/avg/max) = 18.2 | 18.2 | 18.2 Mbytes
Step Temp Press TotEng PotEng Enthalpy Volume 
   67842    379.73546    513.00614   -87082.161   -88046.723   -86965.703     363710.9 
   68014    371.18043    333.12522   -87151.738    -88094.57   -87076.128    363649.43 
Loop time of 21.7851 on 1 procs for 172 steps with 19652 atoms

Performance: 0.682 ns/day, 35.183 hours/ns, 7.895 timesteps/s
98.3% CPU use with 1 MPI tasks x no OpenMP threads

MPI task timing breakdown:
Section |  min time  |  avg time  |  max time  |%varavg| %total
---------------------------------------------------------------
Pair    | 11.446     | 11.446     | 11.446     |   0.0 | 52.54
Neigh   | 9.7624     | 9.7624     | 9.7624     |   0.0 | 44.81
Comm    | 0.19574    | 0.19574    | 0.19574    |   0.0 |  0.90
Output  | 0.00026798 | 0.00026798 | 0.00026798 |   0.0 |  0.00
Modify  | 0.27468    | 0.27468    | 0.27468    |   0.0 |  1.26
Other   |            | 0.1058     |            |       |  0.49

Nlocal:    19652 ave 19652 max 19652 min
Histogram: 1 0 0 0 0 0 0 0 0 0
Nghost:    17687 ave 17687 max 17687 min
Histogram: 1 0 0 0 0 0 0 0 0 0
Neighs:    1.35872e+06 ave 1.35872e+06 max 1.35872e+06 min
Histogram: 1 0 0 0 0 0 0 0 0 0

Total # of neighbors = 1358724
Ave neighs/atom = 69.1392
Neighbor list builds = 172
Dangerous builds not checked
Setting up Verlet run ...
  Unit style    : metal
  Current step  : 68014
  Time step     : 0.001
Per MPI rank memory allocation (min/avg/max) = 18.2 | 18.2 | 18.2 Mbytes
Step Temp Press TotEng PotEng Enthalpy Volume 
   68014    371.18043    333.12522   -87151.738    -88094.57   -87076.128    363649.43 
   68034     370.1853    211.20714   -87154.094   -88094.399   -87106.153    363674.12 
   68509    332.15155   -624.39498   -87415.674    -88259.37   -87557.376    363602.73 
Loop time of 62.8712 on 1 procs for 495 steps with 19652 atoms

Performance: 0.680 ns/day, 35.281 hours/ns, 7.873 timesteps/s
99.2% CPU use with 1 MPI tasks x no OpenMP threads

MPI task timing breakdown:
Section |  min time  |  avg time  |  max time  |%varavg| %total
---------------------------------------------------------------
Pair    | 32.943     | 32.943     | 32.943     |   0.0 | 52.40
Neigh   | 28.224     | 28.224     | 28.224     |   0.0 | 44.89
Comm    | 0.55279    | 0.55279    | 0.55279    |   0.0 |  0.88
Output  | 0.041476   | 0.041476   | 0.041476   |   0.0 |  0.07
Modify  | 0.79545    | 0.79545    | 0.79545    |   0.0 |  1.27
Other   |            | 0.3142     |            |       |  0.50

Nlocal:    19652 ave 19652 max 19652 min
Histogram: 1 0 0 0 0 0 0 0 0 0
Nghost:    17631 ave 17631 max 17631 min
Histogram: 1 0 0 0 0 0 0 0 0 0
Neighs:    1.35911e+06 ave 1.35911e+06 max 1.35911e+06 min
Histogram: 1 0 0 0 0 0 0 0 0 0

Total # of neighbors = 1359106
Ave neighs/atom = 69.1587
Neighbor list builds = 495
Dangerous builds not checked
Setting up Verlet run ...
  Unit style    : metal
  Current step  : 68509
  Time step     : 0.001
Per MPI rank memory allocation (min/avg/max) = 18.2 | 18.2 | 18.2 Mbytes
Step Temp Press TotEng PotEng Enthalpy Volume 
   68509    332.15155   -624.39498   -87415.674    -88259.37   -87557.376    363602.73 
   68681     325.1068   -93.971291   -87482.762   -88308.563   -87504.086    363562.44 
Loop time of 21.4179 on 1 procs for 172 steps with 19652 atoms

Performance: 0.694 ns/day, 34.590 hours/ns, 8.031 timesteps/s
99.9% CPU use with 1 MPI tasks x no OpenMP threads

MPI task timing breakdown:
Section |  min time  |  avg time  |  max time  |%varavg| %total
---------------------------------------------------------------
Pair    | 11.219     | 11.219     | 11.219     |   0.0 | 52.38
Neigh   | 9.6396     | 9.6396     | 9.6396     |   0.0 | 45.01
Comm    | 0.18693    | 0.18693    | 0.18693    |   0.0 |  0.87
Output  | 0.0002389  | 0.0002389  | 0.0002389  |   0.0 |  0.00
Modify  | 0.26779    | 0.26779    | 0.26779    |   0.0 |  1.25
Other   |            | 0.1044     |            |       |  0.49

Nlocal:    19652 ave 19652 max 19652 min
Histogram: 1 0 0 0 0 0 0 0 0 0
Nghost:    17605 ave 17605 max 17605 min
Histogram: 1 0 0 0 0 0 0 0 0 0
Neighs:    1.35941e+06 ave 1.35941e+06 max 1.35941e+06 min
Histogram: 1 0 0 0 0 0 0 0 0 0

Total # of neighbors = 1359414
Ave neighs/atom = 69.1743
Neighbor list builds = 172
Dangerous builds not checked
Setting up Verlet run ...
  Unit style    : metal
  Current step  : 68681
  Time step     : 0.001
Per MPI rank memory allocation (min/avg/max) = 18.2 | 18.2 | 18.2 Mbytes
Step Temp Press TotEng PotEng Enthalpy Volume 
   68681     325.1068   -93.971291   -87482.762   -88308.563   -87504.086    363562.44 
   68701    323.40605    35.972174    -87485.55   -88307.031   -87477.387    363559.32 
   69176    283.04548    356.50563   -87738.253   -88457.214   -87657.456    363108.31 
Loop time of 63.4067 on 1 procs for 495 steps with 19652 atoms

Performance: 0.675 ns/day, 35.582 hours/ns, 7.807 timesteps/s
98.6% CPU use with 1 MPI tasks x no OpenMP threads

MPI task timing breakdown:
Section |  min time  |  avg time  |  max time  |%varavg| %total
---------------------------------------------------------------
Pair    | 33.404     | 33.404     | 33.404     |   0.0 | 52.68
Neigh   | 28.265     | 28.265     | 28.265     |   0.0 | 44.58
Comm    | 0.56464    | 0.56464    | 0.56464    |   0.0 |  0.89
Output  | 0.040182   | 0.040182   | 0.040182   |   0.0 |  0.06
Modify  | 0.80883    | 0.80883    | 0.80883    |   0.0 |  1.28
Other   |            | 0.3242     |            |       |  0.51

Nlocal:    19652 ave 19652 max 19652 min
Histogram: 1 0 0 0 0 0 0 0 0 0
Nghost:    17650 ave 17650 max 17650 min
Histogram: 1 0 0 0 0 0 0 0 0 0
Neighs:    1.36043e+06 ave 1.36043e+06 max 1.36043e+06 min
Histogram: 1 0 0 0 0 0 0 0 0 0

Total # of neighbors = 1360431
Ave neighs/atom = 69.2261
Neighbor list builds = 495
Dangerous builds not checked
Setting up Verlet run ...
  Unit style    : metal
  Current step  : 69176
  Time step     : 0.001
Per MPI rank memory allocation (min/avg/max) = 18.2 | 18.2 | 18.2 Mbytes
Step Temp Press TotEng PotEng Enthalpy Volume 
   69176    283.04548    356.50563   -87738.253   -88457.214   -87657.456    363108.31 
   69348    270.96519    551.08716   -87802.465   -88490.741   -87677.701    362726.84 
Loop time of 22.0884 on 1 procs for 172 steps with 19652 atoms

Performance: 0.673 ns/day, 35.673 hours/ns, 7.787 timesteps/s
97.3% CPU use with 1 MPI tasks x no OpenMP threads

MPI task timing breakdown:
Section |  min time  |  avg time  |  max time  |%varavg| %total
---------------------------------------------------------------
Pair    | 11.645     | 11.645     | 11.645     |   0.0 | 52.72
Neigh   | 9.8686     | 9.8686     | 9.8686     |   0.0 | 44.68
Comm    | 0.19273    | 0.19273    | 0.19273    |   0.0 |  0.87
Output  | 0.00016594 | 0.00016594 | 0.00016594 |   0.0 |  0.00
Modify  | 0.27373    | 0.27373    | 0.27373    |   0.0 |  1.24
Other   |            | 0.108      |            |       |  0.49

Nlocal:    19652 ave 19652 max 19652 min
Histogram: 1 0 0 0 0 0 0 0 0 0
Nghost:    17631 ave 17631 max 17631 min
Histogram: 1 0 0 0 0 0 0 0 0 0
Neighs:    1.362e+06 ave 1.362e+06 max 1.362e+06 min
Histogram: 1 0 0 0 0 0 0 0 0 0

Total # of neighbors = 1362002
Ave neighs/atom = 69.306
Neighbor list builds = 172
Dangerous builds not checked
Setting up Verlet run ...
  Unit style    : metal
  Current step  : 69348
  Time step     : 0.001
Per MPI rank memory allocation (min/avg/max) = 18.2 | 18.2 | 18.2 Mbytes
Step Temp Press TotEng PotEng Enthalpy Volume 
   69348    270.96519    551.08716   -87802.465   -88490.741   -87677.701    362726.84 
   69368    272.81592      404.387   -87804.958   -88497.935    -87713.39    362790.83 
   69843    231.06054    262.75905   -88043.546   -88630.461   -87984.087    362555.99 
Loop time of 62.3467 on 1 procs for 495 steps with 19652 atoms

Performance: 0.686 ns/day, 34.987 hours/ns, 7.939 timesteps/s
99.8% CPU use with 1 MPI tasks x no OpenMP threads

MPI task timing breakdown:
Section |  min time  |  avg time  |  max time  |%varavg| %total
---------------------------------------------------------------
Pair    | 32.801     | 32.801     | 32.801     |   0.0 | 52.61
Neigh   | 27.857     | 27.857     | 27.857     |   0.0 | 44.68
Comm    | 0.5438     | 0.5438     | 0.5438     |   0.0 |  0.87
Output  | 0.043946   | 0.043946   | 0.043946   |   0.0 |  0.07
Modify  | 0.78534    | 0.78534    | 0.78534    |   0.0 |  1.26
Other   |            | 0.316      |            |       |  0.51

Nlocal:    19652 ave 19652 max 19652 min
Histogram: 1 0 0 0 0 0 0 0 0 0
Nghost:    17614 ave 17614 max 17614 min
Histogram: 1 0 0 0 0 0 0 0 0 0
Neighs:    1.36236e+06 ave 1.36236e+06 max 1.36236e+06 min
Histogram: 1 0 0 0 0 0 0 0 0 0

Total # of neighbors = 1362360
Ave neighs/atom = 69.3242
Neighbor list builds = 495
Dangerous builds not checked
Setting up Verlet run ...
  Unit style    : metal
  Current step  : 69843
  Time step     : 0.001
Per MPI rank memory allocation (min/avg/max) = 18.2 | 18.2 | 18.2 Mbytes
Step Temp Press TotEng PotEng Enthalpy Volume 
   69843    231.06054    262.75905   -88043.546   -88630.461   -87984.087    362555.99 
   70015    220.56493     1.490078   -88104.128   -88664.383    -88103.79    362598.97 
Loop time of 22.2845 on 1 procs for 172 steps with 19652 atoms

Performance: 0.667 ns/day, 35.989 hours/ns, 7.718 timesteps/s
96.5% CPU use with 1 MPI tasks x no OpenMP threads

MPI task timing breakdown:
Section |  min time  |  avg time  |  max time  |%varavg| %total
---------------------------------------------------------------
Pair    | 11.707     | 11.707     | 11.707     |   0.0 | 52.54
Neigh   | 9.9712     | 9.9712     | 9.9712     |   0.0 | 44.75
Comm    | 0.20414    | 0.20414    | 0.20414    |   0.0 |  0.92
Output  | 0.00016403 | 0.00016403 | 0.00016403 |   0.0 |  0.00
Modify  | 0.28768    | 0.28768    | 0.28768    |   0.0 |  1.29
Other   |            | 0.1138     |            |       |  0.51

Nlocal:    19652 ave 19652 max 19652 min
Histogram: 1 0 0 0 0 0 0 0 0 0
Nghost:    17652 ave 17652 max 17652 min
Histogram: 1 0 0 0 0 0 0 0 0 0
Neighs:    1.36194e+06 ave 1.36194e+06 max 1.36194e+06 min
Histogram: 1 0 0 0 0 0 0 0 0 0

Total # of neighbors = 1361940
Ave neighs/atom = 69.3029
Neighbor list builds = 172
Dangerous builds not checked
Setting up Verlet run ...
  Unit style    : metal
  Current step  : 70015
  Time step     : 0.001
Per MPI rank memory allocation (min/avg/max) = 18.2 | 18.2 | 18.2 Mbytes
Step Temp Press TotEng PotEng Enthalpy Volume 
   70015    220.56493     1.490078   -88104.128   -88664.383    -88103.79    362598.97 
   70035    221.15331    4.3501745   -88106.491   -88668.241   -88105.507    362600.17 
   70510    182.66193    159.70518   -88326.665   -88790.643   -88290.584    361975.26 
Loop time of 63.5555 on 1 procs for 495 steps with 19652 atoms

Performance: 0.673 ns/day, 35.665 hours/ns, 7.788 timesteps/s
98.3% CPU use with 1 MPI tasks x no OpenMP threads

MPI task timing breakdown:
Section |  min time  |  avg time  |  max time  |%varavg| %total
---------------------------------------------------------------
Pair    | 33.494     | 33.494     | 33.494     |   0.0 | 52.70
Neigh   | 28.273     | 28.273     | 28.273     |   0.0 | 44.48
Comm    | 0.58167    | 0.58167    | 0.58167    |   0.0 |  0.92
Output  | 0.04498    | 0.04498    | 0.04498    |   0.0 |  0.07
Modify  | 0.83943    | 0.83943    | 0.83943    |   0.0 |  1.32
Other   |            | 0.3225     |            |       |  0.51

Nlocal:    19652 ave 19652 max 19652 min
Histogram: 1 0 0 0 0 0 0 0 0 0
Nghost:    17642 ave 17642 max 17642 min
Histogram: 1 0 0 0 0 0 0 0 0 0
Neighs:    1.36435e+06 ave 1.36435e+06 max 1.36435e+06 min
Histogram: 1 0 0 0 0 0 0 0 0 0

Total # of neighbors = 1364354
Ave neighs/atom = 69.4257
Neighbor list builds = 495
Dangerous builds not checked
Setting up Verlet run ...
  Unit style    : metal
  Current step  : 70510
  Time step     : 0.001
Per MPI rank memory allocation (min/avg/max) = 18.2 | 18.2 | 18.2 Mbytes
Step Temp Press TotEng PotEng Enthalpy Volume 
   70510    182.66193    159.70518   -88326.665   -88790.643   -88290.584    361975.26 
   70682     172.6764   -317.10465   -88385.058   -88823.672   -88456.737    362157.78 
Loop time of 21.7049 on 1 procs for 172 steps with 19652 atoms

Performance: 0.685 ns/day, 35.053 hours/ns, 7.924 timesteps/s
99.3% CPU use with 1 MPI tasks x no OpenMP threads

MPI task timing breakdown:
Section |  min time  |  avg time  |  max time  |%varavg| %total
---------------------------------------------------------------
Pair    | 11.475     | 11.475     | 11.475     |   0.0 | 52.87
Neigh   | 9.6518     | 9.6518     | 9.6518     |   0.0 | 44.47
Comm    | 0.18921    | 0.18921    | 0.18921    |   0.0 |  0.87
Output  | 0.00024199 | 0.00024199 | 0.00024199 |   0.0 |  0.00
Modify  | 0.27789    | 0.27789    | 0.27789    |   0.0 |  1.28
Other   |            | 0.1106     |            |       |  0.51

Nlocal:    19652 ave 19652 max 19652 min
Histogram: 1 0 0 0 0 0 0 0 0 0
Nghost:    17651 ave 17651 max 17651 min
Histogram: 1 0 0 0 0 0 0 0 0 0
Neighs:    1.36336e+06 ave 1.36336e+06 max 1.36336e+06 min
Histogram: 1 0 0 0 0 0 0 0 0 0

Total # of neighbors = 1363362
Ave neighs/atom = 69.3752
Neighbor list builds = 172
Dangerous builds not checked
Setting up Verlet run ...
  Unit style    : metal
  Current step  : 70682
  Time step     : 0.001
Per MPI rank memory allocation (min/avg/max) = 18.2 | 18.2 | 18.2 Mbytes
Step Temp Press TotEng PotEng Enthalpy Volume 
   70682     172.6764   -317.10465   -88385.058   -88823.672   -88456.737    362157.78 
   70702    172.16625   -87.322977   -88387.726   -88825.044   -88407.462    362105.83 
   71177    133.72407   -566.06701   -88599.205   -88938.877   -88727.083    361939.29 
Loop time of 63.4538 on 1 procs for 495 steps with 19652 atoms

Performance: 0.674 ns/day, 35.608 hours/ns, 7.801 timesteps/s
98.4% CPU use with 1 MPI tasks x no OpenMP threads

MPI task timing breakdown:
Section |  min time  |  avg time  |  max time  |%varavg| %total
---------------------------------------------------------------
Pair    | 33.492     | 33.492     | 33.492     |   0.0 | 52.78
Neigh   | 28.202     | 28.202     | 28.202     |   0.0 | 44.44
Comm    | 0.57216    | 0.57216    | 0.57216    |   0.0 |  0.90
Output  | 0.042612   | 0.042612   | 0.042612   |   0.0 |  0.07
Modify  | 0.81974    | 0.81974    | 0.81974    |   0.0 |  1.29
Other   |            | 0.3253     |            |       |  0.51

Nlocal:    19652 ave 19652 max 19652 min
Histogram: 1 0 0 0 0 0 0 0 0 0
Nghost:    17676 ave 17676 max 17676 min
Histogram: 1 0 0 0 0 0 0 0 0 0
Neighs:    1.3644e+06 ave 1.3644e+06 max 1.3644e+06 min
Histogram: 1 0 0 0 0 0 0 0 0 0

Total # of neighbors = 1364405
Ave neighs/atom = 69.4283
Neighbor list builds = 495
Dangerous builds not checked
Setting up Verlet run ...
  Unit style    : metal
  Current step  : 71177
  Time step     : 0.001
Per MPI rank memory allocation (min/avg/max) = 18.2 | 18.2 | 18.2 Mbytes
Step Temp Press TotEng PotEng Enthalpy Volume 
   71177    133.72407   -566.06701   -88599.205   -88938.877   -88727.083    361939.29 
   71349    123.47699    249.97064   -88655.446   -88969.088   -88599.026    361620.04 
Loop time of 21.462 on 1 procs for 172 steps with 19652 atoms

Performance: 0.692 ns/day, 34.661 hours/ns, 8.014 timesteps/s
99.6% CPU use with 1 MPI tasks x no OpenMP threads

MPI task timing breakdown:
Section |  min time  |  avg time  |  max time  |%varavg| %total
---------------------------------------------------------------
Pair    | 11.344     | 11.344     | 11.344     |   0.0 | 52.85
Neigh   | 9.5605     | 9.5605     | 9.5605     |   0.0 | 44.55
Comm    | 0.18413    | 0.18413    | 0.18413    |   0.0 |  0.86
Output  | 0.00017309 | 0.00017309 | 0.00017309 |   0.0 |  0.00
Modify  | 0.26454    | 0.26454    | 0.26454    |   0.0 |  1.23
Other   |            | 0.109      |            |       |  0.51

Nlocal:    19652 ave 19652 max 19652 min
Histogram: 1 0 0 0 0 0 0 0 0 0
Nghost:    17671 ave 17671 max 17671 min
Histogram: 1 0 0 0 0 0 0 0 0 0
Neighs:    1.36577e+06 ave 1.36577e+06 max 1.36577e+06 min
Histogram: 1 0 0 0 0 0 0 0 0 0

Total # of neighbors = 1365774
Ave neighs/atom = 69.498
Neighbor list builds = 172
Dangerous builds not checked
Total wall time: 2:36:22
