LAMMPS (12 Dec 2018)
Lattice spacing in x,y,z = 4 4 4
Created orthogonal box = (0 0 0) to (68 68 68)
  1 by 1 by 2 MPI processor grid
Created 19652 atoms
  Time spent = 0.00168705 secs
Setting atom values ...
  417 settings made for type/fraction
Neighbor list info ...
  update every 1 steps, delay 0 steps, check no
  max neighbors/atom: 2000, page size: 100000
  master list distance cutoff = 8.5
  ghost atom cutoff = 8.5
  binsize = 4.25, bins = 16 16 16
  1 neighbor lists, perpetual/occasional/extra = 1 0 0
  (1) pair eam/alloy, perpetual
      attributes: half, newton on
      pair build: half/bin/atomonly/newton
      stencil: half/bin/3d/newton
      bin: standard
Setting up Verlet run ...
  Unit style    : metal
  Current step  : 0
  Time step     : 0.001
Per MPI rank memory allocation (min/avg/max) = 11.15 | 11.15 | 11.15 Mbytes
Step Temp Press TotEng PotEng Enthalpy 
       0          300      1200412   -19364.497   -20126.524       216220 
    1000    163.71022    1203542.6   -19364.374   -19780.213    216834.52 
Loop time of 95.5111 on 2 procs for 1000 steps with 19652 atoms

Performance: 0.905 ns/day, 26.531 hours/ns, 10.470 timesteps/s
96.9% CPU use with 2 MPI tasks x no OpenMP threads

MPI task timing breakdown:
Section |  min time  |  avg time  |  max time  |%varavg| %total
---------------------------------------------------------------
Pair    | 54.809     | 55.197     | 55.584     |   5.2 | 57.79
Neigh   | 35.996     | 36.342     | 36.689     |   5.7 | 38.05
Comm    | 2.7574     | 3.502      | 4.2466     |  39.8 |  3.67
Output  | 7.5102e-05 | 9.799e-05  | 0.00012088 |   0.0 |  0.00
Modify  | 0.2327     | 0.23998    | 0.24726    |   1.5 |  0.25
Other   |            | 0.2301     |            |       |  0.24

Nlocal:    9826 ave 9864 max 9788 min
Histogram: 1 0 0 0 0 0 0 0 0 1
Nghost:    14211 ave 14249 max 14173 min
Histogram: 1 0 0 0 0 0 0 0 0 1
Neighs:    795345 ave 798530 max 792160 min
Histogram: 1 0 0 0 0 0 0 0 0 1

Total # of neighbors = 1590690
Ave neighs/atom = 80.9429
Neighbor list builds = 1000
Dangerous builds not checked
Setting up Verlet run ...
  Unit style    : metal
  Current step  : 1000
  Time step     : 0.001
Per MPI rank memory allocation (min/avg/max) = 11.15 | 11.15 | 11.15 Mbytes
Step Temp Press TotEng PotEng Enthalpy 
    1000    163.71022    1203542.6   -19364.374   -19780.213    216834.52 
    2000    179.54864    1546.4488   -86292.348   -86748.418   -85589.348 
Loop time of 61.6841 on 2 procs for 1000 steps with 19652 atoms

Performance: 1.401 ns/day, 17.134 hours/ns, 16.212 timesteps/s
97.7% CPU use with 2 MPI tasks x no OpenMP threads

MPI task timing breakdown:
Section |  min time  |  avg time  |  max time  |%varavg| %total
---------------------------------------------------------------
Pair    | 32.525     | 32.571     | 32.618     |   0.8 | 52.80
Neigh   | 25.613     | 25.629     | 25.644     |   0.3 | 41.55
Comm    | 2.3955     | 2.4242     | 2.4528     |   1.8 |  3.93
Output  | 6.6042e-05 | 8.5473e-05 | 0.0001049  |   0.0 |  0.00
Modify  | 0.84003    | 0.84177    | 0.84351    |   0.2 |  1.36
Other   |            | 0.2182     |            |       |  0.35

Nlocal:    9826 ave 9861 max 9791 min
Histogram: 1 0 0 0 0 0 0 0 0 1
Nghost:    10346 ave 10381 max 10311 min
Histogram: 1 0 0 0 0 0 0 0 0 1
Neighs:    354998 ave 357847 max 352150 min
Histogram: 1 0 0 0 0 0 0 0 0 1

Total # of neighbors = 709997
Ave neighs/atom = 36.1285
Neighbor list builds = 1000
Dangerous builds not checked
Setting up Verlet run ...
  Unit style    : metal
  Current step  : 2000
  Time step     : 0.001
Per MPI rank memory allocation (min/avg/max) = 11.17 | 11.17 | 11.17 Mbytes
Step Temp Press TotEng PotEng Enthalpy 
    2000    179.54864    1546.4488   -86292.348   -86748.418   -85589.348 
   10000    2462.8189   -519.86545   -73839.749   -80095.534   -74110.066 
Loop time of 408.53 on 2 procs for 8000 steps with 19652 atoms

Performance: 1.692 ns/day, 14.185 hours/ns, 19.582 timesteps/s
98.8% CPU use with 2 MPI tasks x no OpenMP threads

MPI task timing breakdown:
Section |  min time  |  avg time  |  max time  |%varavg| %total
---------------------------------------------------------------
Pair    | 201.99     | 205.09     | 208.2      |  21.7 | 50.20
Neigh   | 172.05     | 174.83     | 177.6      |  21.0 | 42.79
Comm    | 19.788     | 20.165     | 20.542     |   8.4 |  4.94
Output  | 7.391e-05  | 0.00010991 | 0.00014591 |   0.0 |  0.00
Modify  | 6.6506     | 6.6819     | 6.7133     |   1.2 |  1.64
Other   |            | 1.762      |            |       |  0.43

Nlocal:    9826 ave 9832 max 9820 min
Histogram: 1 0 0 0 0 0 0 0 0 1
Nghost:    8854 ave 8862 max 8846 min
Histogram: 1 0 0 0 0 0 0 0 0 1
Neighs:    293970 ave 294541 max 293400 min
Histogram: 1 0 0 0 0 0 0 0 0 1

Total # of neighbors = 587941
Ave neighs/atom = 29.9176
Neighbor list builds = 8000
Dangerous builds not checked
Setting up Verlet run ...
  Unit style    : metal
  Current step  : 10000
  Time step     : 0.001
Per MPI rank memory allocation (min/avg/max) = 11.18 | 11.18 | 11.18 Mbytes
Step Temp Press TotEng PotEng Enthalpy 
   10000    2462.8189   -519.86545   -73839.749   -80095.534   -74110.066 
   20000    2473.8884    37.567223    -73715.28   -79999.182   -73695.752 
   40000    2466.9217   -985.57749   -73742.561   -80008.767   -74256.638 
Loop time of 1465.04 on 2 procs for 30000 steps with 19652 atoms

Performance: 1.769 ns/day, 13.565 hours/ns, 20.477 timesteps/s
98.4% CPU use with 2 MPI tasks x no OpenMP threads

MPI task timing breakdown:
Section |  min time  |  avg time  |  max time  |%varavg| %total
---------------------------------------------------------------
Pair    | 727.14     | 728.6      | 730.05     |   5.4 | 49.73
Neigh   | 619.34     | 621.48     | 623.62     |   8.6 | 42.42
Comm    | 79.58      | 83.391     | 87.202     |  41.7 |  5.69
Output  | 0.31306    | 0.3131     | 0.31314    |   0.0 |  0.02
Modify  | 24.795     | 24.964     | 25.133     |   3.4 |  1.70
Other   |            | 6.293      |            |       |  0.43

Nlocal:    9826 ave 9850 max 9802 min
Histogram: 1 0 0 0 0 0 0 0 0 1
Nghost:    8825 ave 8859 max 8791 min
Histogram: 1 0 0 0 0 0 0 0 0 1
Neighs:    293205 ave 293863 max 292547 min
Histogram: 1 0 0 0 0 0 0 0 0 1

Total # of neighbors = 586410
Ave neighs/atom = 29.8397
Neighbor list builds = 30000
Dangerous builds not checked
Setting up Verlet run ...
  Unit style    : metal
  Current step  : 40000
  Time step     : 0.001
Per MPI rank memory allocation (min/avg/max) = 11.26 | 11.26 | 11.26 Mbytes
Step Temp Press TotEng PotEng Enthalpy 
   40000    2466.9217   -985.57749   -73742.561   -80008.767   -74256.638 
   40495    2397.9894    57.360614   -74057.734   -80148.845   -74028.018 
Loop time of 23.687 on 2 procs for 495 steps with 19652 atoms

Performance: 1.806 ns/day, 13.292 hours/ns, 20.898 timesteps/s
96.0% CPU use with 2 MPI tasks x no OpenMP threads

MPI task timing breakdown:
Section |  min time  |  avg time  |  max time  |%varavg| %total
---------------------------------------------------------------
Pair    | 11.176     | 11.733     | 12.291     |  16.3 | 49.53
Neigh   | 9.8139     | 10.198     | 10.582     |  12.0 | 43.05
Comm    | 1.0576     | 1.2251     | 1.3926     |  15.1 |  5.17
Output  | 0.00012612 | 0.00015259 | 0.00017905 |   0.0 |  0.00
Modify  | 0.41559    | 0.42141    | 0.42723    |   0.9 |  1.78
Other   |            | 0.1091     |            |       |  0.46

Nlocal:    9826 ave 9833 max 9819 min
Histogram: 1 0 0 0 0 0 0 0 0 1
Nghost:    8833.5 ave 8858 max 8809 min
Histogram: 1 0 0 0 0 0 0 0 0 1
Neighs:    295358 ave 295703 max 295014 min
Histogram: 1 0 0 0 0 0 0 0 0 1

Total # of neighbors = 590717
Ave neighs/atom = 30.0589
Neighbor list builds = 495
Dangerous builds not checked
Setting up Verlet run ...
  Unit style    : metal
  Current step  : 40495
  Time step     : 0.001
Per MPI rank memory allocation (min/avg/max) = 11.26 | 11.26 | 11.26 Mbytes
Step Temp Press TotEng PotEng Enthalpy 
   40495    2397.9894    57.360614   -74057.734   -80148.845   -74028.018 
   60000    2388.5608    124.72984   -74064.267   -80131.429   -73999.637 
Loop time of 979.874 on 2 procs for 19505 steps with 19652 atoms

Performance: 1.720 ns/day, 13.955 hours/ns, 19.906 timesteps/s
98.9% CPU use with 2 MPI tasks x no OpenMP threads

MPI task timing breakdown:
Section |  min time  |  avg time  |  max time  |%varavg| %total
---------------------------------------------------------------
Pair    | 485.23     | 490.22     | 495.22     |  22.6 | 50.03
Neigh   | 403.25     | 412.93     | 422.61     |  47.6 | 42.14
Comm    | 41.047     | 55.882     | 70.716     | 198.4 |  5.70
Output  | 0.14641    | 0.14643    | 0.14645    |   0.0 |  0.01
Modify  | 16.376     | 16.47      | 16.564     |   2.3 |  1.68
Other   |            | 4.222      |            |       |  0.43

Nlocal:    9826 ave 9837 max 9815 min
Histogram: 1 0 0 0 0 0 0 0 0 1
Nghost:    8804.5 ave 8807 max 8802 min
Histogram: 1 0 0 0 0 0 0 0 0 1
Neighs:    294840 ave 295072 max 294607 min
Histogram: 1 0 0 0 0 0 0 0 0 1

Total # of neighbors = 589679
Ave neighs/atom = 30.0061
Neighbor list builds = 19505
Dangerous builds not checked
Setting up Verlet run ...
  Unit style    : metal
  Current step  : 60000
  Time step     : 0.001
Per MPI rank memory allocation (min/avg/max) = 11.28 | 11.28 | 11.28 Mbytes
Step Temp Press TotEng PotEng Enthalpy 
   60000    2388.5608    124.72984   -74064.267   -80131.429   -73999.637 
   60495    2365.5622     272.1579   -74220.977   -80229.721   -74080.376 
Loop time of 23.6728 on 2 procs for 495 steps with 19652 atoms

Performance: 1.807 ns/day, 13.284 hours/ns, 20.910 timesteps/s
99.9% CPU use with 2 MPI tasks x no OpenMP threads

MPI task timing breakdown:
Section |  min time  |  avg time  |  max time  |%varavg| %total
---------------------------------------------------------------
Pair    | 12.182     | 12.193     | 12.203     |   0.3 | 51.51
Neigh   | 10.391     | 10.391     | 10.391     |   0.0 | 43.90
Comm    | 0.49412    | 0.50613    | 0.51813    |   1.7 |  2.14
Output  | 7.1049e-05 | 0.00010061 | 0.00013018 |   0.0 |  0.00
Modify  | 0.45615    | 0.45779    | 0.45942    |   0.2 |  1.93
Other   |            | 0.1249     |            |       |  0.53

Nlocal:    9826 ave 9836 max 9816 min
Histogram: 1 0 0 0 0 0 0 0 0 1
Nghost:    8848.5 ave 8853 max 8844 min
Histogram: 1 0 0 0 0 0 0 0 0 1
Neighs:    296074 ave 297082 max 295065 min
Histogram: 1 0 0 0 0 0 0 0 0 1

Total # of neighbors = 592147
Ave neighs/atom = 30.1316
Neighbor list builds = 495
Dangerous builds not checked
Setting up Verlet run ...
  Unit style    : metal
  Current step  : 60495
  Time step     : 0.001
Per MPI rank memory allocation (min/avg/max) = 11.28 | 11.28 | 11.28 Mbytes
Step Temp Press TotEng PotEng Enthalpy 
   60495    2365.5622     272.1579   -74220.977   -80229.721   -74080.376 
   80000     2357.182    367.25755   -74245.978   -80233.435   -74056.298 
Loop time of 919.026 on 2 procs for 19505 steps with 19652 atoms

Performance: 1.834 ns/day, 13.088 hours/ns, 21.224 timesteps/s
99.0% CPU use with 2 MPI tasks x no OpenMP threads

MPI task timing breakdown:
Section |  min time  |  avg time  |  max time  |%varavg| %total
---------------------------------------------------------------
Pair    | 445.15     | 453.41     | 461.67     |  38.8 | 49.34
Neigh   | 390.28     | 399.64     | 409.01     |  46.9 | 43.49
Comm    | 27.27      | 45.427     | 63.584     | 269.4 |  4.94
Output  | 0.052908   | 0.052924   | 0.052941   |   0.0 |  0.01
Modify  | 16.093     | 16.415     | 16.738     |   8.0 |  1.79
Other   |            | 4.078      |            |       |  0.44

Nlocal:    9826 ave 9848 max 9804 min
Histogram: 1 0 0 0 0 0 0 0 0 1
Nghost:    8822.5 ave 8826 max 8819 min
Histogram: 1 0 0 0 0 0 0 0 0 1
Neighs:    296059 ave 297088 max 295030 min
Histogram: 1 0 0 0 0 0 0 0 0 1

Total # of neighbors = 592118
Ave neighs/atom = 30.1302
Neighbor list builds = 19505
Dangerous builds not checked
Setting up Verlet run ...
  Unit style    : metal
  Current step  : 80000
  Time step     : 0.001
Per MPI rank memory allocation (min/avg/max) = 11.29 | 11.3 | 11.3 Mbytes
Step Temp Press TotEng PotEng Enthalpy 
   80000     2357.182    367.25755   -74245.978   -80233.435   -74056.298 
   80495    2308.7756    78.630074    -74469.23   -80333.731   -74428.638 
Loop time of 25.072 on 2 procs for 495 steps with 19652 atoms

Performance: 1.706 ns/day, 14.070 hours/ns, 19.743 timesteps/s
100.0% CPU use with 2 MPI tasks x no OpenMP threads

MPI task timing breakdown:
Section |  min time  |  avg time  |  max time  |%varavg| %total
---------------------------------------------------------------
Pair    | 11.869     | 12.613     | 13.357     |  20.9 | 50.31
Neigh   | 8.543      | 9.5583     | 10.574     |  32.8 | 38.12
Comm    | 0.54233    | 2.3569     | 4.1715     | 118.2 |  9.40
Output  | 8.3923e-05 | 0.00011539 | 0.00014687 |   0.0 |  0.00
Modify  | 0.40305    | 0.44255    | 0.48205    |   5.9 |  1.77
Other   |            | 0.1013     |            |       |  0.40

Nlocal:    9826 ave 9836 max 9816 min
Histogram: 1 0 0 0 0 0 0 0 0 1
Nghost:    8842 ave 8896 max 8788 min
Histogram: 1 0 0 0 0 0 0 0 0 1
Neighs:    296222 ave 296698 max 295747 min
Histogram: 1 0 0 0 0 0 0 0 0 1

Total # of neighbors = 592445
Ave neighs/atom = 30.1468
Neighbor list builds = 495
Dangerous builds not checked
Setting up Verlet run ...
  Unit style    : metal
  Current step  : 80495
  Time step     : 0.001
Per MPI rank memory allocation (min/avg/max) = 11.29 | 11.3 | 11.3 Mbytes
Step Temp Press TotEng PotEng Enthalpy 
   80495    2308.7756    78.630074    -74469.23   -80333.731   -74428.638 
  100000     2320.668   -488.75486   -74495.703   -80390.411   -74748.172 
Loop time of 989.153 on 2 procs for 19505 steps with 19652 atoms

Performance: 1.704 ns/day, 14.087 hours/ns, 19.719 timesteps/s
98.9% CPU use with 2 MPI tasks x no OpenMP threads

MPI task timing breakdown:
Section |  min time  |  avg time  |  max time  |%varavg| %total
---------------------------------------------------------------
Pair    | 501.09     | 502.44     | 503.78     |   6.0 | 50.79
Neigh   | 417.79     | 421.42     | 425.06     |  17.7 | 42.60
Comm    | 38.705     | 43.8       | 48.894     |  77.0 |  4.43
Output  | 0.2202     | 0.22021    | 0.22023    |   0.0 |  0.02
Modify  | 16.839     | 16.913     | 16.987     |   1.8 |  1.71
Other   |            | 4.361      |            |       |  0.44

Nlocal:    9826 ave 9856 max 9796 min
Histogram: 1 0 0 0 0 0 0 0 0 1
Nghost:    8882.5 ave 8913 max 8852 min
Histogram: 1 0 0 0 0 0 0 0 0 1
Neighs:    296335 ave 298269 max 294401 min
Histogram: 1 0 0 0 0 0 0 0 0 1

Total # of neighbors = 592670
Ave neighs/atom = 30.1583
Neighbor list builds = 19505
Dangerous builds not checked
Setting up Verlet run ...
  Unit style    : metal
  Current step  : 100000
  Time step     : 0.001
Per MPI rank memory allocation (min/avg/max) = 11.31 | 11.31 | 11.31 Mbytes
Step Temp Press TotEng PotEng Enthalpy 
  100000     2320.668   -488.75486   -74495.703   -80390.411   -74748.172 
  100495    2254.1562    222.75868   -74725.655   -80451.417   -74611.072 
Loop time of 22.074 on 2 procs for 495 steps with 19652 atoms

Performance: 1.937 ns/day, 12.387 hours/ns, 22.425 timesteps/s
100.0% CPU use with 2 MPI tasks x no OpenMP threads

MPI task timing breakdown:
Section |  min time  |  avg time  |  max time  |%varavg| %total
---------------------------------------------------------------
Pair    | 10.902     | 10.957     | 11.013     |   1.7 | 49.64
Neigh   | 9.5204     | 9.5405     | 9.5607     |   0.7 | 43.22
Comm    | 0.98838    | 1.0699     | 1.1514     |   7.9 |  4.85
Output  | 7.391e-05  | 9.2983e-05 | 0.00011206 |   0.0 |  0.00
Modify  | 0.39556    | 0.40064    | 0.40571    |   0.8 |  1.81
Other   |            | 0.1055     |            |       |  0.48

Nlocal:    9826 ave 9851 max 9801 min
Histogram: 1 0 0 0 0 0 0 0 0 1
Nghost:    8870 ave 8883 max 8857 min
Histogram: 1 0 0 0 0 0 0 0 0 1
Neighs:    297469 ave 298674 max 296264 min
Histogram: 1 0 0 0 0 0 0 0 0 1

Total # of neighbors = 594938
Ave neighs/atom = 30.2737
Neighbor list builds = 495
Dangerous builds not checked
Setting up Verlet run ...
  Unit style    : metal
  Current step  : 100495
  Time step     : 0.001
Per MPI rank memory allocation (min/avg/max) = 11.31 | 11.31 | 11.31 Mbytes
Step Temp Press TotEng PotEng Enthalpy 
  100495    2254.1562    222.75868   -74725.655   -80451.417   -74611.072 
  120000    2239.5675   -275.26148   -74818.149   -80506.855   -74959.902 
Loop time of 931.066 on 2 procs for 19505 steps with 19652 atoms

Performance: 1.810 ns/day, 13.260 hours/ns, 20.949 timesteps/s
97.5% CPU use with 2 MPI tasks x no OpenMP threads

MPI task timing breakdown:
Section |  min time  |  avg time  |  max time  |%varavg| %total
---------------------------------------------------------------
Pair    | 472.7      | 473.73     | 474.76     |   4.7 | 50.88
Neigh   | 392.81     | 397.59     | 402.37     |  24.0 | 42.70
Comm    | 33.638     | 39.695     | 45.752     |  96.1 |  4.26
Output  | 0.07707    | 0.077091   | 0.077112   |   0.0 |  0.01
Modify  | 15.737     | 15.931     | 16.124     |   4.8 |  1.71
Other   |            | 4.04       |            |       |  0.43

Nlocal:    9826 ave 9861 max 9791 min
Histogram: 1 0 0 0 0 0 0 0 0 1
Nghost:    8885 ave 8922 max 8848 min
Histogram: 1 0 0 0 0 0 0 0 0 1
Neighs:    296723 ave 297832 max 295614 min
Histogram: 1 0 0 0 0 0 0 0 0 1

Total # of neighbors = 593446
Ave neighs/atom = 30.1977
Neighbor list builds = 19505
Dangerous builds not checked
Setting up Verlet run ...
  Unit style    : metal
  Current step  : 120000
  Time step     : 0.001
Per MPI rank memory allocation (min/avg/max) = 11.31 | 11.31 | 11.31 Mbytes
Step Temp Press TotEng PotEng Enthalpy 
  120000    2239.5675   -275.26148   -74818.149   -80506.855   -74959.902 
  120495    2208.6773   -258.16333   -74970.407   -80580.649   -75103.101 
Loop time of 20.5702 on 2 procs for 495 steps with 19652 atoms

Performance: 2.079 ns/day, 11.543 hours/ns, 24.064 timesteps/s
99.7% CPU use with 2 MPI tasks x no OpenMP threads

MPI task timing breakdown:
Section |  min time  |  avg time  |  max time  |%varavg| %total
---------------------------------------------------------------
Pair    | 9.9923     | 10.099     | 10.206     |   3.4 | 49.10
Neigh   | 8.9519     | 8.965      | 8.978      |   0.4 | 43.58
Comm    | 0.94782    | 1.0686     | 1.1893     |  11.7 |  5.19
Output  | 7.7009e-05 | 0.000103   | 0.00012898 |   0.0 |  0.00
Modify  | 0.34425    | 0.34564    | 0.34704    |   0.2 |  1.68
Other   |            | 0.09173    |            |       |  0.45

Nlocal:    9826 ave 9827 max 9825 min
Histogram: 1 0 0 0 0 0 0 0 0 1
Nghost:    8864 ave 8888 max 8840 min
Histogram: 1 0 0 0 0 0 0 0 0 1
Neighs:    297607 ave 297712 max 297502 min
Histogram: 1 0 0 0 0 0 0 0 0 1

Total # of neighbors = 595214
Ave neighs/atom = 30.2877
Neighbor list builds = 495
Dangerous builds not checked
Setting up Verlet run ...
  Unit style    : metal
  Current step  : 120495
  Time step     : 0.001
Per MPI rank memory allocation (min/avg/max) = 11.31 | 11.31 | 11.31 Mbytes
Step Temp Press TotEng PotEng Enthalpy 
  120495    2208.6773   -258.16333   -74970.407   -80580.649   -75103.101 
  140000    2185.9036    853.33244   -75057.009   -80609.403   -74620.048 
Loop time of 975.103 on 2 procs for 19505 steps with 19652 atoms

Performance: 1.728 ns/day, 13.887 hours/ns, 20.003 timesteps/s
99.0% CPU use with 2 MPI tasks x no OpenMP threads

MPI task timing breakdown:
Section |  min time  |  avg time  |  max time  |%varavg| %total
---------------------------------------------------------------
Pair    | 495.31     | 496.73     | 498.14     |   6.3 | 50.94
Neigh   | 413.3      | 416.21     | 419.11     |  14.2 | 42.68
Comm    | 36.531     | 40.922     | 45.314     |  68.7 |  4.20
Output  | 0.051479   | 0.051502   | 0.051525   |   0.0 |  0.01
Modify  | 16.775     | 16.825     | 16.875     |   1.2 |  1.73
Other   |            | 4.369      |            |       |  0.45

Nlocal:    9826 ave 9853 max 9799 min
Histogram: 1 0 0 0 0 0 0 0 0 1
Nghost:    8828 ave 8839 max 8817 min
Histogram: 1 0 0 0 0 0 0 0 0 1
Neighs:    298457 ave 300372 max 296542 min
Histogram: 1 0 0 0 0 0 0 0 0 1

Total # of neighbors = 596914
Ave neighs/atom = 30.3742
Neighbor list builds = 19505
Dangerous builds not checked
Setting up Verlet run ...
  Unit style    : metal
  Current step  : 140000
  Time step     : 0.001
Per MPI rank memory allocation (min/avg/max) = 11.32 | 11.32 | 11.32 Mbytes
Step Temp Press TotEng PotEng Enthalpy 
  140000    2185.9036    853.33244   -75057.009   -80609.403   -74620.048 
  140495    2158.7591    545.52517   -75183.868   -80667.313   -74904.787 
Loop time of 23.385 on 2 procs for 495 steps with 19652 atoms

Performance: 1.829 ns/day, 13.123 hours/ns, 21.167 timesteps/s
99.8% CPU use with 2 MPI tasks x no OpenMP threads

MPI task timing breakdown:
Section |  min time  |  avg time  |  max time  |%varavg| %total
---------------------------------------------------------------
Pair    | 11.955     | 11.966     | 11.976     |   0.3 | 51.17
Neigh   | 10.317     | 10.34      | 10.363     |   0.7 | 44.22
Comm    | 0.48852    | 0.5014     | 0.51429    |   1.8 |  2.14
Output  | 7.081e-05  | 9.8348e-05 | 0.00012589 |   0.0 |  0.00
Modify  | 0.45364    | 0.45406    | 0.45448    |   0.1 |  1.94
Other   |            | 0.1239     |            |       |  0.53

Nlocal:    9826 ave 9836 max 9816 min
Histogram: 1 0 0 0 0 0 0 0 0 1
Nghost:    8900 ave 8901 max 8899 min
Histogram: 1 0 0 0 0 0 0 0 0 1
Neighs:    299066 ave 299844 max 298288 min
Histogram: 1 0 0 0 0 0 0 0 0 1

Total # of neighbors = 598132
Ave neighs/atom = 30.4362
Neighbor list builds = 495
Dangerous builds not checked
Setting up Verlet run ...
  Unit style    : metal
  Current step  : 140495
  Time step     : 0.001
Per MPI rank memory allocation (min/avg/max) = 11.32 | 11.32 | 11.32 Mbytes
Step Temp Press TotEng PotEng Enthalpy 
  140495    2158.7591    545.52517   -75183.868   -80667.313   -74904.787 
  160000    2137.2109    -325.9479   -75299.994   -80728.704   -75467.044 
Loop time of 936.212 on 2 procs for 19505 steps with 19652 atoms

Performance: 1.800 ns/day, 13.333 hours/ns, 20.834 timesteps/s
99.4% CPU use with 2 MPI tasks x no OpenMP threads

MPI task timing breakdown:
Section |  min time  |  avg time  |  max time  |%varavg| %total
---------------------------------------------------------------
Pair    | 457.6      | 465.49     | 473.39     |  36.6 | 49.72
Neigh   | 374.22     | 396.48     | 418.74     | 111.8 | 42.35
Comm    | 23.155     | 54.099     | 85.042     | 420.7 |  5.78
Output  | 0.11083    | 0.11085    | 0.11087    |   0.0 |  0.01
Modify  | 15.434     | 15.933     | 16.433     |  12.5 |  1.70
Other   |            | 4.096      |            |       |  0.44

Nlocal:    9826 ave 9840 max 9812 min
Histogram: 1 0 0 0 0 0 0 0 0 1
Nghost:    8866.5 ave 8875 max 8858 min
Histogram: 1 0 0 0 0 0 0 0 0 1
Neighs:    298404 ave 299259 max 297550 min
Histogram: 1 0 0 0 0 0 0 0 0 1

Total # of neighbors = 596809
Ave neighs/atom = 30.3689
Neighbor list builds = 19505
Dangerous builds not checked
Setting up Verlet run ...
  Unit style    : metal
  Current step  : 160000
  Time step     : 0.001
Per MPI rank memory allocation (min/avg/max) = 11.33 | 11.33 | 11.33 Mbytes
Step Temp Press TotEng PotEng Enthalpy 
  160000    2137.2109    -325.9479   -75299.994   -80728.704   -75467.044 
  160495    2117.4944   -64.660562   -75451.738   -80830.367   -75484.792 
Loop time of 21.9481 on 2 procs for 495 steps with 19652 atoms

Performance: 1.949 ns/day, 12.317 hours/ns, 22.553 timesteps/s
100.0% CPU use with 2 MPI tasks x no OpenMP threads

MPI task timing breakdown:
Section |  min time  |  avg time  |  max time  |%varavg| %total
---------------------------------------------------------------
Pair    | 10.744     | 10.817     | 10.89      |   2.2 | 49.28
Neigh   | 8.735      | 9.401      | 10.067     |  21.7 | 42.83
Comm    | 0.4722     | 1.2422     | 2.0122     |  69.1 |  5.66
Output  | 8.1062e-05 | 0.00011051 | 0.00013995 |   0.0 |  0.00
Modify  | 0.36866    | 0.38871    | 0.40876    |   3.2 |  1.77
Other   |            | 0.09914    |            |       |  0.45

Nlocal:    9826 ave 9827 max 9825 min
Histogram: 1 0 0 0 0 0 0 0 0 1
Nghost:    8885.5 ave 8887 max 8884 min
Histogram: 1 0 0 0 0 0 0 0 0 1
Neighs:    298835 ave 298875 max 298795 min
Histogram: 1 0 0 0 0 0 0 0 0 1

Total # of neighbors = 597670
Ave neighs/atom = 30.4127
Neighbor list builds = 495
Dangerous builds not checked
Setting up Verlet run ...
  Unit style    : metal
  Current step  : 160495
  Time step     : 0.001
Per MPI rank memory allocation (min/avg/max) = 11.33 | 11.33 | 11.33 Mbytes
Step Temp Press TotEng PotEng Enthalpy 
  160495    2117.4944   -64.660562   -75451.738   -80830.367   -75484.792 
  180000     2114.952    102.32722   -75406.715   -80778.885   -75354.375 
Loop time of 887.054 on 2 procs for 19505 steps with 19652 atoms

Performance: 1.900 ns/day, 12.633 hours/ns, 21.989 timesteps/s
99.0% CPU use with 2 MPI tasks x no OpenMP threads

MPI task timing breakdown:
Section |  min time  |  avg time  |  max time  |%varavg| %total
---------------------------------------------------------------
Pair    | 436        | 438.29     | 440.58     |  10.9 | 49.41
Neigh   | 388.4      | 391.05     | 393.71     |  13.4 | 44.08
Comm    | 37.791     | 38.23      | 38.668     |   7.1 |  4.31
Output  | 0.16378    | 0.1638     | 0.16381    |   0.0 |  0.02
Modify  | 15.328     | 15.382     | 15.436     |   1.4 |  1.73
Other   |            | 3.934      |            |       |  0.44

Nlocal:    9826 ave 9827 max 9825 min
Histogram: 1 0 0 0 0 0 0 0 0 1
Nghost:    8890.5 ave 8910 max 8871 min
Histogram: 1 0 0 0 0 0 0 0 0 1
Neighs:    298878 ave 299015 max 298742 min
Histogram: 1 0 0 0 0 0 0 0 0 1

Total # of neighbors = 597757
Ave neighs/atom = 30.4171
Neighbor list builds = 19505
Dangerous builds not checked
Setting up Verlet run ...
  Unit style    : metal
  Current step  : 180000
  Time step     : 0.001
Per MPI rank memory allocation (min/avg/max) = 11.33 | 11.34 | 11.34 Mbytes
Step Temp Press TotEng PotEng Enthalpy 
  180000     2114.952    102.32722   -75406.715   -80778.885   -75354.375 
  180495    2055.0868      233.797   -75663.502    -80883.61   -75544.294 
Loop time of 25.6693 on 2 procs for 495 steps with 19652 atoms

Performance: 1.666 ns/day, 14.405 hours/ns, 19.284 timesteps/s
95.5% CPU use with 2 MPI tasks x no OpenMP threads

MPI task timing breakdown:
Section |  min time  |  avg time  |  max time  |%varavg| %total
---------------------------------------------------------------
Pair    | 12.606     | 12.862     | 13.117     |   7.1 | 50.11
Neigh   | 9.6585     | 10.042     | 10.426     |  12.1 | 39.12
Comm    | 1.7213     | 1.9221     | 2.1229     |  14.5 |  7.49
Output  | 7.2002e-05 | 9.8586e-05 | 0.00012517 |   0.0 |  0.00
Modify  | 0.40839    | 0.73838    | 1.0684     |  38.4 |  2.88
Other   |            | 0.105      |            |       |  0.41

Nlocal:    9826 ave 9838 max 9814 min
Histogram: 1 0 0 0 0 0 0 0 0 1
Nghost:    8895.5 ave 8902 max 8889 min
Histogram: 1 0 0 0 0 0 0 0 0 1
Neighs:    300122 ave 302113 max 298131 min
Histogram: 1 0 0 0 0 0 0 0 0 1

Total # of neighbors = 600244
Ave neighs/atom = 30.5437
Neighbor list builds = 495
Dangerous builds not checked
Setting up Verlet run ...
  Unit style    : metal
  Current step  : 180495
  Time step     : 0.001
Per MPI rank memory allocation (min/avg/max) = 11.33 | 11.34 | 11.34 Mbytes
Step Temp Press TotEng PotEng Enthalpy 
  180495    2055.0868      233.797   -75663.502    -80883.61   -75544.294 
  200000    2045.6876   -377.22459   -75737.635   -80933.867   -75930.264 
Loop time of 1051.72 on 2 procs for 19505 steps with 19652 atoms

Performance: 1.602 ns/day, 14.978 hours/ns, 18.546 timesteps/s
96.7% CPU use with 2 MPI tasks x no OpenMP threads

MPI task timing breakdown:
Section |  min time  |  avg time  |  max time  |%varavg| %total
---------------------------------------------------------------
Pair    | 518.47     | 530.11     | 541.75     |  50.6 | 50.40
Neigh   | 432.63     | 435.32     | 438.01     |  12.9 | 41.39
Comm    | 50.498     | 65.012     | 79.527     | 180.0 |  6.18
Output  | 0.049757   | 0.049775   | 0.049792   |   0.0 |  0.00
Modify  | 16.72      | 16.862     | 17.005     |   3.5 |  1.60
Other   |            | 4.367      |            |       |  0.42

Nlocal:    9826 ave 9831 max 9821 min
Histogram: 1 0 0 0 0 0 0 0 0 1
Nghost:    8891.5 ave 8907 max 8876 min
Histogram: 1 0 0 0 0 0 0 0 0 1
Neighs:    299472 ave 299648 max 299295 min
Histogram: 1 0 0 0 0 0 0 0 0 1

Total # of neighbors = 598943
Ave neighs/atom = 30.4775
Neighbor list builds = 19505
Dangerous builds not checked
Setting up Verlet run ...
  Unit style    : metal
  Current step  : 200000
  Time step     : 0.001
Per MPI rank memory allocation (min/avg/max) = 11.34 | 11.34 | 11.34 Mbytes
Step Temp Press TotEng PotEng Enthalpy 
  200000    2045.6876   -377.22459   -75737.635   -80933.867   -75930.264 
  200495    2007.8701   -267.17816   -75911.659   -81011.832   -76047.868 
Loop time of 23.924 on 2 procs for 495 steps with 19652 atoms

Performance: 1.788 ns/day, 13.425 hours/ns, 20.691 timesteps/s
99.8% CPU use with 2 MPI tasks x no OpenMP threads

MPI task timing breakdown:
Section |  min time  |  avg time  |  max time  |%varavg| %total
---------------------------------------------------------------
Pair    | 11.588     | 11.84      | 12.092     |   7.3 | 49.49
Neigh   | 10.461     | 10.728     | 10.995     |   8.1 | 44.84
Comm    | 0.80245    | 0.81293    | 0.82341    |   1.2 |  3.40
Output  | 7.7963e-05 | 0.00012052 | 0.00016308 |   0.0 |  0.00
Modify  | 0.42973    | 0.43131    | 0.4329     |   0.2 |  1.80
Other   |            | 0.1119     |            |       |  0.47

Nlocal:    9826 ave 9831 max 9821 min
Histogram: 1 0 0 0 0 0 0 0 0 1
Nghost:    8918.5 ave 8923 max 8914 min
Histogram: 1 0 0 0 0 0 0 0 0 1
Neighs:    299844 ave 302270 max 297417 min
Histogram: 1 0 0 0 0 0 0 0 0 1

Total # of neighbors = 599687
Ave neighs/atom = 30.5153
Neighbor list builds = 495
Dangerous builds not checked
Setting up Verlet run ...
  Unit style    : metal
  Current step  : 200495
  Time step     : 0.001
Per MPI rank memory allocation (min/avg/max) = 11.34 | 11.34 | 11.34 Mbytes
Step Temp Press TotEng PotEng Enthalpy 
  200495    2007.8701   -267.17816   -75911.659   -81011.832   -76047.868 
  220000    2023.6094   -403.96924   -75889.924   -81030.076   -76095.892 
Loop time of 961.163 on 2 procs for 19505 steps with 19652 atoms

Performance: 1.753 ns/day, 13.688 hours/ns, 20.293 timesteps/s
99.2% CPU use with 2 MPI tasks x no OpenMP threads

MPI task timing breakdown:
Section |  min time  |  avg time  |  max time  |%varavg| %total
---------------------------------------------------------------
Pair    | 469.57     | 471.89     | 474.21     |  10.7 | 49.10
Neigh   | 434.67     | 434.72     | 434.76     |   0.2 | 45.23
Comm    | 31.148     | 33.466     | 35.784     |  40.1 |  3.48
Output  | 0.056973   | 0.05699    | 0.057007   |   0.0 |  0.01
Modify  | 16.653     | 16.655     | 16.657     |   0.1 |  1.73
Other   |            | 4.378      |            |       |  0.46

Nlocal:    9826 ave 9827 max 9825 min
Histogram: 1 0 0 0 0 0 0 0 0 1
Nghost:    8899.5 ave 8908 max 8891 min
Histogram: 1 0 0 0 0 0 0 0 0 1
Neighs:    300054 ave 302555 max 297554 min
Histogram: 1 0 0 0 0 0 0 0 0 1

Total # of neighbors = 600109
Ave neighs/atom = 30.5368
Neighbor list builds = 19505
Dangerous builds not checked
Setting up Verlet run ...
  Unit style    : metal
  Current step  : 220000
  Time step     : 0.001
Per MPI rank memory allocation (min/avg/max) = 11.34 | 11.34 | 11.34 Mbytes
Step Temp Press TotEng PotEng Enthalpy 
  220000    2023.6094   -403.96924   -75889.924   -81030.076   -76095.892 
  220495    1947.5021   -159.59096   -76167.946   -81114.779   -76249.103 
Loop time of 24.7984 on 2 procs for 495 steps with 19652 atoms

Performance: 1.725 ns/day, 13.916 hours/ns, 19.961 timesteps/s
99.4% CPU use with 2 MPI tasks x no OpenMP threads

MPI task timing breakdown:
Section |  min time  |  avg time  |  max time  |%varavg| %total
---------------------------------------------------------------
Pair    | 12.099     | 12.145     | 12.191     |   1.3 | 48.97
Neigh   | 10.593     | 10.993     | 11.393     |  12.1 | 44.33
Comm    | 0.77524    | 1.1295     | 1.4838     |  33.3 |  4.55
Output  | 7.987e-05  | 9.6917e-05 | 0.00011396 |   0.0 |  0.00
Modify  | 0.42548    | 0.42553    | 0.42559    |   0.0 |  1.72
Other   |            | 0.1055     |            |       |  0.43

Nlocal:    9826 ave 9848 max 9804 min
Histogram: 1 0 0 0 0 0 0 0 0 1
Nghost:    8919.5 ave 8971 max 8868 min
Histogram: 1 0 0 0 0 0 0 0 0 1
Neighs:    300998 ave 302671 max 299325 min
Histogram: 1 0 0 0 0 0 0 0 0 1

Total # of neighbors = 601996
Ave neighs/atom = 30.6328
Neighbor list builds = 495
Dangerous builds not checked
Setting up Verlet run ...
  Unit style    : metal
  Current step  : 220495
  Time step     : 0.001
Per MPI rank memory allocation (min/avg/max) = 11.34 | 11.34 | 11.34 Mbytes
Step Temp Press TotEng PotEng Enthalpy 
  220495    1947.5021   -159.59096   -76167.946   -81114.779   -76249.103 
  240000    1945.5886   -565.73968   -76199.105   -81141.077   -76486.949 
Loop time of 959.502 on 2 procs for 19505 steps with 19652 atoms

Performance: 1.756 ns/day, 13.665 hours/ns, 20.328 timesteps/s
99.1% CPU use with 2 MPI tasks x no OpenMP threads

MPI task timing breakdown:
Section |  min time  |  avg time  |  max time  |%varavg| %total
---------------------------------------------------------------
Pair    | 458.56     | 468.34     | 478.12     |  45.2 | 48.81
Neigh   | 409.83     | 422.11     | 434.39     |  59.8 | 43.99
Comm    | 26.418     | 48.914     | 71.411     | 321.7 |  5.10
Output  | 0.05647    | 0.056483   | 0.056497   |   0.0 |  0.01
Modify  | 15.67      | 15.934     | 16.198     |   6.6 |  1.66
Other   |            | 4.143      |            |       |  0.43

Nlocal:    9826 ave 9839 max 9813 min
Histogram: 1 0 0 0 0 0 0 0 0 1
Nghost:    8933 ave 8945 max 8921 min
Histogram: 1 0 0 0 0 0 0 0 0 1
Neighs:    300350 ave 303491 max 297210 min
Histogram: 1 0 0 0 0 0 0 0 0 1

Total # of neighbors = 600701
Ave neighs/atom = 30.5669
Neighbor list builds = 19505
Dangerous builds not checked
Setting up Verlet run ...
  Unit style    : metal
  Current step  : 240000
  Time step     : 0.001
Per MPI rank memory allocation (min/avg/max) = 11.35 | 11.35 | 11.35 Mbytes
Step Temp Press TotEng PotEng Enthalpy 
  240000    1945.5886   -565.73968   -76199.105   -81141.077   -76486.949 
  240495    1902.8277   -434.32981   -76398.741   -81232.096    -76619.12 
Loop time of 21.8907 on 2 procs for 495 steps with 19652 atoms

Performance: 1.954 ns/day, 12.284 hours/ns, 22.612 timesteps/s
99.6% CPU use with 2 MPI tasks x no OpenMP threads

MPI task timing breakdown:
Section |  min time  |  avg time  |  max time  |%varavg| %total
---------------------------------------------------------------
Pair    | 10.116     | 10.471     | 10.826     |  11.0 | 47.83
Neigh   | 9.7538     | 9.9951     | 10.236     |   7.6 | 45.66
Comm    | 0.82236    | 0.93104    | 1.0397     |  11.3 |  4.25
Output  | 8.0109e-05 | 0.00010157 | 0.00012302 |   0.0 |  0.00
Modify  | 0.38173    | 0.38813    | 0.39453    |   1.0 |  1.77
Other   |            | 0.1051     |            |       |  0.48

Nlocal:    9826 ave 9834 max 9818 min
Histogram: 1 0 0 0 0 0 0 0 0 1
Nghost:    8926 ave 8928 max 8924 min
Histogram: 1 0 0 0 0 0 0 0 0 1
Neighs:    301284 ave 304074 max 298495 min
Histogram: 1 0 0 0 0 0 0 0 0 1

Total # of neighbors = 602569
Ave neighs/atom = 30.662
Neighbor list builds = 495
Dangerous builds not checked
Setting up Verlet run ...
  Unit style    : metal
  Current step  : 240495
  Time step     : 0.001
Per MPI rank memory allocation (min/avg/max) = 11.35 | 11.35 | 11.35 Mbytes
Step Temp Press TotEng PotEng Enthalpy 
  240495    1902.8277   -434.32981   -76398.741   -81232.096    -76619.12 
  260000    1906.5164    408.92323   -76511.501   -81354.227   -76305.014 
Loop time of 1029.97 on 2 procs for 19505 steps with 19652 atoms

Performance: 1.636 ns/day, 14.668 hours/ns, 18.938 timesteps/s
97.9% CPU use with 2 MPI tasks x no OpenMP threads

MPI task timing breakdown:
Section |  min time  |  avg time  |  max time  |%varavg| %total
---------------------------------------------------------------
Pair    | 507.91     | 514.77     | 521.63     |  30.2 | 49.98
Neigh   | 428.81     | 435.25     | 441.68     |  30.8 | 42.26
Comm    | 45.059     | 58.555     | 72.05      | 176.4 |  5.69
Output  | 0.052253   | 0.052273   | 0.052293   |   0.0 |  0.01
Modify  | 16.868     | 17.006     | 17.144     |   3.4 |  1.65
Other   |            | 4.335      |            |       |  0.42

Nlocal:    9826 ave 9842 max 9810 min
Histogram: 1 0 0 0 0 0 0 0 0 1
Nghost:    8925.5 ave 8946 max 8905 min
Histogram: 1 0 0 0 0 0 0 0 0 1
Neighs:    302806 ave 304352 max 301260 min
Histogram: 1 0 0 0 0 0 0 0 0 1

Total # of neighbors = 605612
Ave neighs/atom = 30.8168
Neighbor list builds = 19505
Dangerous builds not checked
Setting up Verlet run ...
  Unit style    : metal
  Current step  : 260000
  Time step     : 0.001
Per MPI rank memory allocation (min/avg/max) = 11.35 | 11.35 | 11.35 Mbytes
Step Temp Press TotEng PotEng Enthalpy 
  260000    1906.5164    408.92323   -76511.501   -81354.227   -76305.014 
  260495    1854.8995   -75.436995   -76660.642   -81372.255   -76698.783 
Loop time of 27.6698 on 2 procs for 495 steps with 19652 atoms

Performance: 1.546 ns/day, 15.527 hours/ns, 17.890 timesteps/s
95.8% CPU use with 2 MPI tasks x no OpenMP threads

MPI task timing breakdown:
Section |  min time  |  avg time  |  max time  |%varavg| %total
---------------------------------------------------------------
Pair    | 13.837     | 13.994     | 14.152     |   4.2 | 50.58
Neigh   | 10.819     | 11.341     | 11.863     |  15.5 | 40.99
Comm    | 0.9689     | 1.6862     | 2.4034     |  55.2 |  6.09
Output  | 8.297e-05  | 0.00011301 | 0.00014305 |   0.0 |  0.00
Modify  | 0.50065    | 0.53565    | 0.57065    |   4.8 |  1.94
Other   |            | 0.1128     |            |       |  0.41

Nlocal:    9826 ave 9851 max 9801 min
Histogram: 1 0 0 0 0 0 0 0 0 1
Nghost:    8911.5 ave 8923 max 8900 min
Histogram: 1 0 0 0 0 0 0 0 0 1
Neighs:    302596 ave 303757 max 301435 min
Histogram: 1 0 0 0 0 0 0 0 0 1

Total # of neighbors = 605192
Ave neighs/atom = 30.7954
Neighbor list builds = 495
Dangerous builds not checked
Setting up Verlet run ...
  Unit style    : metal
  Current step  : 260495
  Time step     : 0.001
Per MPI rank memory allocation (min/avg/max) = 11.35 | 11.35 | 11.35 Mbytes
Step Temp Press TotEng PotEng Enthalpy 
  260495    1854.8995   -75.436995   -76660.642   -81372.255   -76698.783 
  280000    1865.5286    23.508586   -76683.158   -81421.771    -76671.28 
Loop time of 950.17 on 2 procs for 19505 steps with 19652 atoms

Performance: 1.774 ns/day, 13.532 hours/ns, 20.528 timesteps/s
99.4% CPU use with 2 MPI tasks x no OpenMP threads

MPI task timing breakdown:
Section |  min time  |  avg time  |  max time  |%varavg| %total
---------------------------------------------------------------
Pair    | 460.24     | 462.06     | 463.88     |   8.5 | 48.63
Neigh   | 433.84     | 433.99     | 434.15     |   0.7 | 45.68
Comm    | 31.315     | 33.264     | 35.214     |  33.8 |  3.50
Output  | 0.05696    | 0.056991   | 0.057023   |   0.0 |  0.01
Modify  | 16.418     | 16.427     | 16.435     |   0.2 |  1.73
Other   |            | 4.366      |            |       |  0.46

Nlocal:    9826 ave 9837 max 9815 min
Histogram: 1 0 0 0 0 0 0 0 0 1
Nghost:    8905 ave 8909 max 8901 min
Histogram: 1 0 0 0 0 0 0 0 0 1
Neighs:    302616 ave 305820 max 299411 min
Histogram: 1 0 0 0 0 0 0 0 0 1

Total # of neighbors = 605231
Ave neighs/atom = 30.7974
Neighbor list builds = 19505
Dangerous builds not checked
Setting up Verlet run ...
  Unit style    : metal
  Current step  : 280000
  Time step     : 0.001
Per MPI rank memory allocation (min/avg/max) = 11.35 | 11.35 | 11.35 Mbytes
Step Temp Press TotEng PotEng Enthalpy 
  280000    1865.5286    23.508586   -76683.158   -81421.771    -76671.28 
  280495    1814.3926    169.71819   -76882.643   -81491.366   -76797.099 
Loop time of 22.9349 on 2 procs for 495 steps with 19652 atoms

Performance: 1.865 ns/day, 12.870 hours/ns, 21.583 timesteps/s
99.4% CPU use with 2 MPI tasks x no OpenMP threads

MPI task timing breakdown:
Section |  min time  |  avg time  |  max time  |%varavg| %total
---------------------------------------------------------------
Pair    | 11.191     | 11.237     | 11.283     |   1.4 | 48.99
Neigh   | 9.8486     | 10.043     | 10.238     |   6.1 | 43.79
Comm    | 0.89894    | 1.1542     | 1.4095     |  23.8 |  5.03
Output  | 7.8201e-05 | 0.00011015 | 0.0001421  |   0.0 |  0.00
Modify  | 0.38638    | 0.39752    | 0.40867    |   1.8 |  1.73
Other   |            | 0.1032     |            |       |  0.45

Nlocal:    9826 ave 9833 max 9819 min
Histogram: 1 0 0 0 0 0 0 0 0 1
Nghost:    8946.5 ave 8956 max 8937 min
Histogram: 1 0 0 0 0 0 0 0 0 1
Neighs:    303370 ave 305141 max 301599 min
Histogram: 1 0 0 0 0 0 0 0 0 1

Total # of neighbors = 606740
Ave neighs/atom = 30.8742
Neighbor list builds = 495
Dangerous builds not checked
Setting up Verlet run ...
  Unit style    : metal
  Current step  : 280495
  Time step     : 0.001
Per MPI rank memory allocation (min/avg/max) = 11.35 | 11.35 | 11.35 Mbytes
Step Temp Press TotEng PotEng Enthalpy 
  280495    1814.3926    169.71819   -76882.643   -81491.366   -76797.099 
  300000    1794.7155   -223.22016   -76910.049    -81468.79   -77022.735 
Loop time of 944.951 on 2 procs for 19505 steps with 19652 atoms

Performance: 1.783 ns/day, 13.457 hours/ns, 20.641 timesteps/s
99.4% CPU use with 2 MPI tasks x no OpenMP threads

MPI task timing breakdown:
Section |  min time  |  avg time  |  max time  |%varavg| %total
---------------------------------------------------------------
Pair    | 461.8      | 462.19     | 462.57     |   1.8 | 48.91
Neigh   | 419.75     | 423.18     | 426.61     |  16.7 | 44.78
Comm    | 34.713     | 38.612     | 42.512     |  62.8 |  4.09
Output  | 0.057466   | 0.057482   | 0.057499   |   0.0 |  0.01
Modify  | 16.371     | 16.496     | 16.622     |   3.1 |  1.75
Other   |            | 4.42       |            |       |  0.47

Nlocal:    9826 ave 9866 max 9786 min
Histogram: 1 0 0 0 0 0 0 0 0 1
Nghost:    8935 ave 8947 max 8923 min
Histogram: 1 0 0 0 0 0 0 0 0 1
Neighs:    303068 ave 303408 max 302729 min
Histogram: 1 0 0 0 0 0 0 0 0 1

Total # of neighbors = 606137
Ave neighs/atom = 30.8435
Neighbor list builds = 19505
Dangerous builds not checked
Setting up Verlet run ...
  Unit style    : metal
  Current step  : 300000
  Time step     : 0.001
Per MPI rank memory allocation (min/avg/max) = 11.36 | 11.36 | 11.36 Mbytes
Step Temp Press TotEng PotEng Enthalpy 
  300000    1794.7155   -223.22016   -76910.049    -81468.79   -77022.735 
  300495    1754.4134    -255.8235   -77152.305   -81608.674   -77281.164 
Loop time of 23.695 on 2 procs for 495 steps with 19652 atoms

Performance: 1.805 ns/day, 13.297 hours/ns, 20.891 timesteps/s
99.9% CPU use with 2 MPI tasks x no OpenMP threads

MPI task timing breakdown:
Section |  min time  |  avg time  |  max time  |%varavg| %total
---------------------------------------------------------------
Pair    | 11.487     | 11.55      | 11.613     |   1.9 | 48.74
Neigh   | 10.73      | 10.794     | 10.857     |   1.9 | 45.55
Comm    | 0.81652    | 0.82054    | 0.82456    |   0.4 |  3.46
Output  | 8.5115e-05 | 0.00011301 | 0.00014091 |   0.0 |  0.00
Modify  | 0.41689    | 0.42038    | 0.42387    |   0.5 |  1.77
Other   |            | 0.1104     |            |       |  0.47

Nlocal:    9826 ave 9829 max 9823 min
Histogram: 1 0 0 0 0 0 0 0 0 1
Nghost:    8946 ave 8975 max 8917 min
Histogram: 1 0 0 0 0 0 0 0 0 1
Neighs:    303771 ave 305566 max 301976 min
Histogram: 1 0 0 0 0 0 0 0 0 1

Total # of neighbors = 607542
Ave neighs/atom = 30.915
Neighbor list builds = 495
Dangerous builds not checked
Setting up Verlet run ...
  Unit style    : metal
  Current step  : 300495
  Time step     : 0.001
Per MPI rank memory allocation (min/avg/max) = 11.36 | 11.36 | 11.36 Mbytes
Step Temp Press TotEng PotEng Enthalpy 
  300495    1754.4134    -255.8235   -77152.305   -81608.674   -77281.164 
  320000    1743.8881   -49.589037   -77191.664   -81621.299   -77216.614 
Loop time of 949.152 on 2 procs for 19505 steps with 19652 atoms

Performance: 1.776 ns/day, 13.517 hours/ns, 20.550 timesteps/s
98.5% CPU use with 2 MPI tasks x no OpenMP threads

MPI task timing breakdown:
Section |  min time  |  avg time  |  max time  |%varavg| %total
---------------------------------------------------------------
Pair    | 454.16     | 458.12     | 462.07     |  18.5 | 48.27
Neigh   | 416.76     | 419.21     | 421.66     |  12.0 | 44.17
Comm    | 44.718     | 51.256     | 57.793     |  91.3 |  5.40
Output  | 0.055171   | 0.055184   | 0.055196   |   0.0 |  0.01
Modify  | 15.965     | 16.167     | 16.368     |   5.0 |  1.70
Other   |            | 4.346      |            |       |  0.46

Nlocal:    9826 ave 9837 max 9815 min
Histogram: 1 0 0 0 0 0 0 0 0 1
Nghost:    8897 ave 8911 max 8883 min
Histogram: 1 0 0 0 0 0 0 0 0 1
Neighs:    304025 ave 306383 max 301667 min
Histogram: 1 0 0 0 0 0 0 0 0 1

Total # of neighbors = 608050
Ave neighs/atom = 30.9409
Neighbor list builds = 19505
Dangerous builds not checked
Setting up Verlet run ...
  Unit style    : metal
  Current step  : 320000
  Time step     : 0.001
Per MPI rank memory allocation (min/avg/max) = 11.36 | 11.36 | 11.36 Mbytes
Step Temp Press TotEng PotEng Enthalpy 
  320000    1743.8881   -49.589037   -77191.664   -81621.299   -77216.614 
  320495    1709.4363     255.1205    -77405.13   -81747.254   -77277.199 
Loop time of 23.4008 on 2 procs for 495 steps with 19652 atoms

Performance: 1.828 ns/day, 13.132 hours/ns, 21.153 timesteps/s
99.1% CPU use with 2 MPI tasks x no OpenMP threads

MPI task timing breakdown:
Section |  min time  |  avg time  |  max time  |%varavg| %total
---------------------------------------------------------------
Pair    | 11.067     | 11.37      | 11.674     |   9.0 | 48.59
Neigh   | 10.486     | 10.498     | 10.509     |   0.3 | 44.86
Comm    | 0.67275    | 0.98904    | 1.3053     |  31.8 |  4.23
Output  | 7.2002e-05 | 8.9049e-05 | 0.0001061  |   0.0 |  0.00
Modify  | 0.42212    | 0.42795    | 0.43378    |   0.9 |  1.83
Other   |            | 0.1158     |            |       |  0.49

Nlocal:    9826 ave 9835 max 9817 min
Histogram: 1 0 0 0 0 0 0 0 0 1
Nghost:    8942.5 ave 8952 max 8933 min
Histogram: 1 0 0 0 0 0 0 0 0 1
Neighs:    304893 ave 306984 max 302802 min
Histogram: 1 0 0 0 0 0 0 0 0 1

Total # of neighbors = 609786
Ave neighs/atom = 31.0292
Neighbor list builds = 495
Dangerous builds not checked
Setting up Verlet run ...
  Unit style    : metal
  Current step  : 320495
  Time step     : 0.001
Per MPI rank memory allocation (min/avg/max) = 11.36 | 11.36 | 11.36 Mbytes
Step Temp Press TotEng PotEng Enthalpy 
  320495    1709.4363     255.1205    -77405.13   -81747.254   -77277.199 
  340000    1690.6424    272.21812   -77483.472   -81777.857   -77347.045 
Loop time of 955.407 on 2 procs for 19505 steps with 19652 atoms

Performance: 1.764 ns/day, 13.606 hours/ns, 20.415 timesteps/s
98.6% CPU use with 2 MPI tasks x no OpenMP threads

MPI task timing breakdown:
Section |  min time  |  avg time  |  max time  |%varavg| %total
---------------------------------------------------------------
Pair    | 463.63     | 463.95     | 464.27     |   1.5 | 48.56
Neigh   | 421.26     | 422.12     | 422.98     |   4.2 | 44.18
Comm    | 42.487     | 43.732     | 44.978     |  18.8 |  4.58
Output  | 0.17242    | 0.17243    | 0.17244    |   0.0 |  0.02
Modify  | 20.919     | 20.991     | 21.064     |   1.6 |  2.20
Other   |            | 4.443      |            |       |  0.47

Nlocal:    9826 ave 9827 max 9825 min
Histogram: 1 0 0 0 0 0 0 0 0 1
Nghost:    8942.5 ave 8973 max 8912 min
Histogram: 1 0 0 0 0 0 0 0 0 1
Neighs:    305142 ave 307882 max 302403 min
Histogram: 1 0 0 0 0 0 0 0 0 1

Total # of neighbors = 610285
Ave neighs/atom = 31.0546
Neighbor list builds = 19505
Dangerous builds not checked
Setting up Verlet run ...
  Unit style    : metal
  Current step  : 340000
  Time step     : 0.001
Per MPI rank memory allocation (min/avg/max) = 11.36 | 11.36 | 11.36 Mbytes
Step Temp Press TotEng PotEng Enthalpy 
  340000    1690.6424    272.21812   -77483.472   -81777.857   -77347.045 
  340495    1666.3787   -19.750806   -77622.208   -81854.962   -77632.099 
Loop time of 22.9411 on 2 procs for 495 steps with 19652 atoms

Performance: 1.864 ns/day, 12.874 hours/ns, 21.577 timesteps/s
100.0% CPU use with 2 MPI tasks x no OpenMP threads

MPI task timing breakdown:
Section |  min time  |  avg time  |  max time  |%varavg| %total
---------------------------------------------------------------
Pair    | 11.023     | 11.144     | 11.265     |   3.6 | 48.58
Neigh   | 10.359     | 10.388     | 10.417     |   0.9 | 45.28
Comm    | 0.7154     | 0.86839    | 1.0214     |  16.4 |  3.79
Output  | 7.9155e-05 | 0.00011909 | 0.00015903 |   0.0 |  0.00
Modify  | 0.42487    | 0.42758    | 0.4303     |   0.4 |  1.86
Other   |            | 0.1131     |            |       |  0.49

Nlocal:    9826 ave 9837 max 9815 min
Histogram: 1 0 0 0 0 0 0 0 0 1
Nghost:    8986 ave 8987 max 8985 min
Histogram: 1 0 0 0 0 0 0 0 0 1
Neighs:    305244 ave 308176 max 302313 min
Histogram: 1 0 0 0 0 0 0 0 0 1

Total # of neighbors = 610489
Ave neighs/atom = 31.065
Neighbor list builds = 495
Dangerous builds not checked
Setting up Verlet run ...
  Unit style    : metal
  Current step  : 340495
  Time step     : 0.001
Per MPI rank memory allocation (min/avg/max) = 11.36 | 11.36 | 11.36 Mbytes
Step Temp Press TotEng PotEng Enthalpy 
  340495    1666.3787   -19.750806   -77622.208   -81854.962   -77632.099 
  360000    1660.6085    350.19506   -77670.289   -81888.386   -77495.085 
Loop time of 949.125 on 2 procs for 19505 steps with 19652 atoms

Performance: 1.776 ns/day, 13.517 hours/ns, 20.550 timesteps/s
98.7% CPU use with 2 MPI tasks x no OpenMP threads

MPI task timing breakdown:
Section |  min time  |  avg time  |  max time  |%varavg| %total
---------------------------------------------------------------
Pair    | 465.25     | 466.43     | 467.6      |   5.4 | 49.14
Neigh   | 416.82     | 419.75     | 422.68     |  14.3 | 44.23
Comm    | 37.871     | 42.16      | 46.449     |  66.1 |  4.44
Output  | 0.058444   | 0.058455   | 0.058465   |   0.0 |  0.01
Modify  | 16.109     | 16.303     | 16.496     |   4.8 |  1.72
Other   |            | 4.423      |            |       |  0.47

Nlocal:    9826 ave 9840 max 9812 min
Histogram: 1 0 0 0 0 0 0 0 0 1
Nghost:    8943.5 ave 8951 max 8936 min
Histogram: 1 0 0 0 0 0 0 0 0 1
Neighs:    305472 ave 308710 max 302233 min
Histogram: 1 0 0 0 0 0 0 0 0 1

Total # of neighbors = 610943
Ave neighs/atom = 31.0881
Neighbor list builds = 19505
Dangerous builds not checked
Setting up Verlet run ...
  Unit style    : metal
  Current step  : 360000
  Time step     : 0.001
Per MPI rank memory allocation (min/avg/max) = 11.36 | 11.36 | 11.36 Mbytes
Step Temp Press TotEng PotEng Enthalpy 
  360000    1660.6085    350.19506   -77670.289   -81888.386   -77495.085 
  360495     1608.889     452.6739     -77884.3   -81971.025   -77658.475 
Loop time of 21.9315 on 2 procs for 495 steps with 19652 atoms

Performance: 1.950 ns/day, 12.307 hours/ns, 22.570 timesteps/s
99.1% CPU use with 2 MPI tasks x no OpenMP threads

MPI task timing breakdown:
Section |  min time  |  avg time  |  max time  |%varavg| %total
---------------------------------------------------------------
Pair    | 10.534     | 10.559     | 10.584     |   0.8 | 48.15
Neigh   | 9.9848     | 10.068     | 10.152     |   2.6 | 45.91
Comm    | 0.69953    | 0.8145     | 0.92946    |  12.7 |  3.71
Output  | 7.2956e-05 | 0.00010288 | 0.0001328  |   0.0 |  0.00
Modify  | 0.37747    | 0.38253    | 0.38759    |   0.8 |  1.74
Other   |            | 0.1071     |            |       |  0.49

Nlocal:    9826 ave 9837 max 9815 min
Histogram: 1 0 0 0 0 0 0 0 0 1
Nghost:    8969.5 ave 8971 max 8968 min
Histogram: 1 0 0 0 0 0 0 0 0 1
Neighs:    306383 ave 309151 max 303615 min
Histogram: 1 0 0 0 0 0 0 0 0 1

Total # of neighbors = 612766
Ave neighs/atom = 31.1808
Neighbor list builds = 495
Dangerous builds not checked
Setting up Verlet run ...
  Unit style    : metal
  Current step  : 360495
  Time step     : 0.001
Per MPI rank memory allocation (min/avg/max) = 11.36 | 11.36 | 11.36 Mbytes
Step Temp Press TotEng PotEng Enthalpy 
  360495     1608.889     452.6739     -77884.3   -81971.025   -77658.475 
  380000    1588.2601   -565.02275   -77957.753   -81992.078    -78240.68 
Loop time of 884.774 on 2 procs for 19505 steps with 19652 atoms

Performance: 1.905 ns/day, 12.600 hours/ns, 22.045 timesteps/s
98.5% CPU use with 2 MPI tasks x no OpenMP threads

MPI task timing breakdown:
Section |  min time  |  avg time  |  max time  |%varavg| %total
---------------------------------------------------------------
Pair    | 423.89     | 426        | 428.11     |  10.2 | 48.15
Neigh   | 393.48     | 395.68     | 397.88     |  11.1 | 44.72
Comm    | 43.602     | 43.738     | 43.875     |   2.1 |  4.94
Output  | 0.19586    | 0.19587    | 0.19588    |   0.0 |  0.02
Modify  | 14.948     | 14.977     | 15.007     |   0.8 |  1.69
Other   |            | 4.182      |            |       |  0.47

Nlocal:    9826 ave 9827 max 9825 min
Histogram: 1 0 0 0 0 0 0 0 0 1
Nghost:    8959 ave 8959 max 8959 min
Histogram: 2 0 0 0 0 0 0 0 0 0
Neighs:    305346 ave 307765 max 302927 min
Histogram: 1 0 0 0 0 0 0 0 0 1

Total # of neighbors = 610692
Ave neighs/atom = 31.0753
Neighbor list builds = 19505
Dangerous builds not checked
Setting up Verlet run ...
  Unit style    : metal
  Current step  : 380000
  Time step     : 0.001
Per MPI rank memory allocation (min/avg/max) = 11.36 | 11.36 | 11.36 Mbytes
Step Temp Press TotEng PotEng Enthalpy 
  380000    1588.2601   -565.02275   -77957.753   -81992.078    -78240.68 
  380495    1556.3787   -127.10024   -78134.157     -82087.5    -78197.59 
Loop time of 22.6181 on 2 procs for 495 steps with 19652 atoms

Performance: 1.891 ns/day, 12.693 hours/ns, 21.885 timesteps/s
96.0% CPU use with 2 MPI tasks x no OpenMP threads

MPI task timing breakdown:
Section |  min time  |  avg time  |  max time  |%varavg| %total
---------------------------------------------------------------
Pair    | 10.946     | 11.142     | 11.338     |   5.9 | 49.26
Neigh   | 9.1384     | 9.6615     | 10.185     |  16.8 | 42.72
Comm    | 1.0008     | 1.3446     | 1.6884     |  29.6 |  5.94
Output  | 6.3896e-05 | 8.0943e-05 | 9.799e-05  |   0.0 |  0.00
Modify  | 0.35573    | 0.36902    | 0.38231    |   2.2 |  1.63
Other   |            | 0.1008     |            |       |  0.45

Nlocal:    9826 ave 9837 max 9815 min
Histogram: 1 0 0 0 0 0 0 0 0 1
Nghost:    8954.5 ave 8956 max 8953 min
Histogram: 1 0 0 0 0 0 0 0 0 1
Neighs:    306438 ave 308683 max 304193 min
Histogram: 1 0 0 0 0 0 0 0 0 1

Total # of neighbors = 612876
Ave neighs/atom = 31.1864
Neighbor list builds = 495
Dangerous builds not checked
Setting up Verlet run ...
  Unit style    : metal
  Current step  : 380495
  Time step     : 0.001
Per MPI rank memory allocation (min/avg/max) = 11.36 | 11.36 | 11.36 Mbytes
Step Temp Press TotEng PotEng Enthalpy 
  380495    1556.3787   -127.10024   -78134.157     -82087.5    -78197.59 
  400000    1551.2832    12.376428   -78179.395   -82119.796   -78173.225 
Loop time of 953.764 on 2 procs for 19505 steps with 19652 atoms

Performance: 1.767 ns/day, 13.583 hours/ns, 20.451 timesteps/s
95.6% CPU use with 2 MPI tasks x no OpenMP threads

MPI task timing breakdown:
Section |  min time  |  avg time  |  max time  |%varavg| %total
---------------------------------------------------------------
Pair    | 443.33     | 447.24     | 451.14     |  18.5 | 46.89
Neigh   | 402.83     | 406.21     | 409.6      |  16.8 | 42.59
Comm    | 77.088     | 77.877     | 78.666     |   8.9 |  8.17
Output  | 0.29437    | 0.29438    | 0.2944     |   0.0 |  0.03
Modify  | 16.624     | 17.948     | 19.273     |  31.3 |  1.88
Other   |            | 4.191      |            |       |  0.44

Nlocal:    9826 ave 9847 max 9805 min
Histogram: 1 0 0 0 0 0 0 0 0 1
Nghost:    8952.5 ave 8954 max 8951 min
Histogram: 1 0 0 0 0 0 0 0 0 1
Neighs:    306409 ave 307293 max 305525 min
Histogram: 1 0 0 0 0 0 0 0 0 1

Total # of neighbors = 612818
Ave neighs/atom = 31.1835
Neighbor list builds = 19505
Dangerous builds not checked
Setting up Verlet run ...
  Unit style    : metal
  Current step  : 400000
  Time step     : 0.001
Per MPI rank memory allocation (min/avg/max) = 11.36 | 11.36 | 11.36 Mbytes
Step Temp Press TotEng PotEng Enthalpy 
  400000    1551.2832    12.376428   -78179.395   -82119.796   -78173.225 
  400495     1505.639    322.61822   -78370.022   -82194.482   -78209.665 
Loop time of 21.2718 on 2 procs for 495 steps with 19652 atoms

Performance: 2.011 ns/day, 11.937 hours/ns, 23.270 timesteps/s
99.1% CPU use with 2 MPI tasks x no OpenMP threads

MPI task timing breakdown:
Section |  min time  |  avg time  |  max time  |%varavg| %total
---------------------------------------------------------------
Pair    | 10.173     | 10.199     | 10.225     |   0.8 | 47.95
Neigh   | 9.6706     | 9.679      | 9.6873     |   0.3 | 45.50
Comm    | 0.90955    | 0.91813    | 0.9267     |   0.9 |  4.32
Output  | 6.1035e-05 | 9.0122e-05 | 0.00011921 |   0.0 |  0.00
Modify  | 0.36549    | 0.36981    | 0.37414    |   0.7 |  1.74
Other   |            | 0.1059     |            |       |  0.50

Nlocal:    9826 ave 9855 max 9797 min
Histogram: 1 0 0 0 0 0 0 0 0 1
Nghost:    8953 ave 8964 max 8942 min
Histogram: 1 0 0 0 0 0 0 0 0 1
Neighs:    307544 ave 308563 max 306524 min
Histogram: 1 0 0 0 0 0 0 0 0 1

Total # of neighbors = 615087
Ave neighs/atom = 31.299
Neighbor list builds = 495
Dangerous builds not checked
Setting up Verlet run ...
  Unit style    : metal
  Current step  : 400495
  Time step     : 0.001
Per MPI rank memory allocation (min/avg/max) = 11.36 | 11.36 | 11.36 Mbytes
Step Temp Press TotEng PotEng Enthalpy 
  400495     1505.639    322.61822   -78370.022   -82194.482   -78209.665 
  420000    1500.1359    582.39425   -78435.894   -82246.375   -78147.004 
Loop time of 908.142 on 2 procs for 19505 steps with 19652 atoms

Performance: 1.856 ns/day, 12.933 hours/ns, 21.478 timesteps/s
99.0% CPU use with 2 MPI tasks x no OpenMP threads

MPI task timing breakdown:
Section |  min time  |  avg time  |  max time  |%varavg| %total
---------------------------------------------------------------
Pair    | 434.01     | 438.82     | 443.63     |  23.0 | 48.32
Neigh   | 414.42     | 416.03     | 417.64     |   7.9 | 45.81
Comm    | 29.678     | 32.925     | 36.173     |  56.6 |  3.63
Output  | 0.052588   | 0.052604   | 0.052621   |   0.0 |  0.01
Modify  | 16.093     | 16.094     | 16.096     |   0.0 |  1.77
Other   |            | 4.219      |            |       |  0.46

Nlocal:    9826 ave 9844 max 9808 min
Histogram: 1 0 0 0 0 0 0 0 0 1
Nghost:    9024 ave 9028 max 9020 min
Histogram: 1 0 0 0 0 0 0 0 0 1
Neighs:    307926 ave 309289 max 306562 min
Histogram: 1 0 0 0 0 0 0 0 0 1

Total # of neighbors = 615851
Ave neighs/atom = 31.3378
Neighbor list builds = 19505
Dangerous builds not checked
Setting up Verlet run ...
  Unit style    : metal
  Current step  : 420000
  Time step     : 0.001
Per MPI rank memory allocation (min/avg/max) = 11.36 | 11.36 | 11.36 Mbytes
Step Temp Press TotEng PotEng Enthalpy 
  420000    1500.1359    582.39425   -78435.894   -82246.375   -78147.004 
  420495     1472.219    588.69609   -78601.252   -82340.822   -78309.719 
Loop time of 23.0934 on 2 procs for 495 steps with 19652 atoms

Performance: 1.852 ns/day, 12.959 hours/ns, 21.435 timesteps/s
98.6% CPU use with 2 MPI tasks x no OpenMP threads

MPI task timing breakdown:
Section |  min time  |  avg time  |  max time  |%varavg| %total
---------------------------------------------------------------
Pair    | 10.866     | 11.002     | 11.138     |   4.1 | 47.64
Neigh   | 10.807     | 10.854     | 10.901     |   1.4 | 47.00
Comm    | 0.62458    | 0.71347    | 0.80236    |  10.5 |  3.09
Output  | 7.5102e-05 | 0.00010359 | 0.00013208 |   0.0 |  0.00
Modify  | 0.4192     | 0.41977    | 0.42034    |   0.1 |  1.82
Other   |            | 0.1047     |            |       |  0.45

Nlocal:    9826 ave 9855 max 9797 min
Histogram: 1 0 0 0 0 0 0 0 0 1
Nghost:    8981.5 ave 8983 max 8980 min
Histogram: 1 0 0 0 0 0 0 0 0 1
Neighs:    308362 ave 309573 max 307151 min
Histogram: 1 0 0 0 0 0 0 0 0 1

Total # of neighbors = 616724
Ave neighs/atom = 31.3823
Neighbor list builds = 495
Dangerous builds not checked
Setting up Verlet run ...
  Unit style    : metal
  Current step  : 420495
  Time step     : 0.001
Per MPI rank memory allocation (min/avg/max) = 11.36 | 11.36 | 11.36 Mbytes
Step Temp Press TotEng PotEng Enthalpy 
  420495     1472.219    588.69609   -78601.252   -82340.822   -78309.719 
  440000     1439.153   -131.10565   -78709.711   -82365.291   -78774.761 
Loop time of 902.783 on 2 procs for 19505 steps with 19652 atoms

Performance: 1.867 ns/day, 12.857 hours/ns, 21.605 timesteps/s
98.9% CPU use with 2 MPI tasks x no OpenMP threads

MPI task timing breakdown:
Section |  min time  |  avg time  |  max time  |%varavg| %total
---------------------------------------------------------------
Pair    | 432.62     | 435.05     | 437.47     |  11.6 | 48.19
Neigh   | 410.03     | 414        | 417.97     |  19.5 | 45.86
Comm    | 31.927     | 33.604     | 35.281     |  28.9 |  3.72
Output  | 0.052076   | 0.052091   | 0.052107   |   0.0 |  0.01
Modify  | 15.776     | 15.948     | 16.119     |   4.3 |  1.77
Other   |            | 4.13       |            |       |  0.46

Nlocal:    9826 ave 9842 max 9810 min
Histogram: 1 0 0 0 0 0 0 0 0 1
Nghost:    8965.5 ave 8980 max 8951 min
Histogram: 1 0 0 0 0 0 0 0 0 1
Neighs:    308162 ave 309198 max 307126 min
Histogram: 1 0 0 0 0 0 0 0 0 1

Total # of neighbors = 616324
Ave neighs/atom = 31.3619
Neighbor list builds = 19505
Dangerous builds not checked
Setting up Verlet run ...
  Unit style    : metal
  Current step  : 440000
  Time step     : 0.001
Per MPI rank memory allocation (min/avg/max) = 11.36 | 11.36 | 11.36 Mbytes
Step Temp Press TotEng PotEng Enthalpy 
  440000     1439.153   -131.10565   -78709.711   -82365.291   -78774.761 
  440495    1406.6602   -167.49704   -78861.263   -82434.308   -78944.259 
Loop time of 21.1389 on 2 procs for 495 steps with 19652 atoms

Performance: 2.023 ns/day, 11.862 hours/ns, 23.417 timesteps/s
99.6% CPU use with 2 MPI tasks x no OpenMP threads

MPI task timing breakdown:
Section |  min time  |  avg time  |  max time  |%varavg| %total
---------------------------------------------------------------
Pair    | 9.6144     | 9.8364     | 10.058     |   7.1 | 46.53
Neigh   | 10.044     | 10.125     | 10.206     |   2.5 | 47.90
Comm    | 0.54746    | 0.67639    | 0.80531    |  15.7 |  3.20
Output  | 8.893e-05  | 0.00011051 | 0.00013208 |   0.0 |  0.00
Modify  | 0.38642    | 0.39758    | 0.40873    |   1.8 |  1.88
Other   |            | 0.1035     |            |       |  0.49

Nlocal:    9826 ave 9840 max 9812 min
Histogram: 1 0 0 0 0 0 0 0 0 1
Nghost:    8990.5 ave 9005 max 8976 min
Histogram: 1 0 0 0 0 0 0 0 0 1
Neighs:    308266 ave 309501 max 307030 min
Histogram: 1 0 0 0 0 0 0 0 0 1

Total # of neighbors = 616531
Ave neighs/atom = 31.3724
Neighbor list builds = 495
Dangerous builds not checked
Setting up Verlet run ...
  Unit style    : metal
  Current step  : 440495
  Time step     : 0.001
Per MPI rank memory allocation (min/avg/max) = 11.36 | 11.36 | 11.36 Mbytes
Step Temp Press TotEng PotEng Enthalpy 
  440495    1406.6602   -167.49704   -78861.263   -82434.308   -78944.259 
  460000      1398.26    449.58887   -78927.657   -82479.365   -78705.454 
Loop time of 905.997 on 2 procs for 19505 steps with 19652 atoms

Performance: 1.860 ns/day, 12.903 hours/ns, 21.529 timesteps/s
97.9% CPU use with 2 MPI tasks x no OpenMP threads

MPI task timing breakdown:
Section |  min time  |  avg time  |  max time  |%varavg| %total
---------------------------------------------------------------
Pair    | 436.35     | 437.68     | 439.01     |   6.4 | 48.31
Neigh   | 404.34     | 408.41     | 412.49     |  20.2 | 45.08
Comm    | 37.092     | 39.933     | 42.775     |  45.0 |  4.41
Output  | 0.055684   | 0.055704   | 0.055723   |   0.0 |  0.01
Modify  | 15.565     | 15.746     | 15.927     |   4.6 |  1.74
Other   |            | 4.171      |            |       |  0.46

Nlocal:    9826 ave 9847 max 9805 min
Histogram: 1 0 0 0 0 0 0 0 0 1
Nghost:    9015 ave 9046 max 8984 min
Histogram: 1 0 0 0 0 0 0 0 0 1
Neighs:    309062 ave 310443 max 307680 min
Histogram: 1 0 0 0 0 0 0 0 0 1

Total # of neighbors = 618123
Ave neighs/atom = 31.4534
Neighbor list builds = 19505
Dangerous builds not checked
Setting up Verlet run ...
  Unit style    : metal
  Current step  : 460000
  Time step     : 0.001
Per MPI rank memory allocation (min/avg/max) = 11.36 | 11.36 | 11.36 Mbytes
Step Temp Press TotEng PotEng Enthalpy 
  460000      1398.26    449.58887   -78927.657   -82479.365   -78705.454 
  460495    1358.5032    198.77729   -79115.867   -82566.589   -79017.711 
Loop time of 22.1082 on 2 procs for 495 steps with 19652 atoms

Performance: 1.934 ns/day, 12.406 hours/ns, 22.390 timesteps/s
98.6% CPU use with 2 MPI tasks x no OpenMP threads

MPI task timing breakdown:
Section |  min time  |  avg time  |  max time  |%varavg| %total
---------------------------------------------------------------
Pair    | 10.433     | 10.548     | 10.662     |   3.5 | 47.71
Neigh   | 10.148     | 10.182     | 10.215     |   1.1 | 46.05
Comm    | 0.78983    | 0.878      | 0.96617    |   9.4 |  3.97
Output  | 8.5831e-05 | 0.00010991 | 0.00013399 |   0.0 |  0.00
Modify  | 0.39485    | 0.39608    | 0.3973     |   0.2 |  1.79
Other   |            | 0.1049     |            |       |  0.47

Nlocal:    9826 ave 9833 max 9819 min
Histogram: 1 0 0 0 0 0 0 0 0 1
Nghost:    9024.5 ave 9034 max 9015 min
Histogram: 1 0 0 0 0 0 0 0 0 1
Neighs:    309385 ave 311460 max 307310 min
Histogram: 1 0 0 0 0 0 0 0 0 1

Total # of neighbors = 618770
Ave neighs/atom = 31.4864
Neighbor list builds = 495
Dangerous builds not checked
Setting up Verlet run ...
  Unit style    : metal
  Current step  : 460495
  Time step     : 0.001
Per MPI rank memory allocation (min/avg/max) = 11.36 | 11.36 | 11.36 Mbytes
Step Temp Press TotEng PotEng Enthalpy 
  460495    1358.5032    198.77729   -79115.867   -82566.589   -79017.711 
  480000    1360.6889    354.80588     -79209.8   -82666.074   -79034.934 
Loop time of 934.853 on 2 procs for 19505 steps with 19652 atoms

Performance: 1.803 ns/day, 13.314 hours/ns, 20.864 timesteps/s
96.6% CPU use with 2 MPI tasks x no OpenMP threads

MPI task timing breakdown:
Section |  min time  |  avg time  |  max time  |%varavg| %total
---------------------------------------------------------------
Pair    | 447.71     | 451.28     | 454.85     |  16.8 | 48.27
Neigh   | 411.68     | 419.46     | 427.24     |  38.0 | 44.87
Comm    | 39.144     | 43.495     | 47.847     |  66.0 |  4.65
Output  | 0.14068    | 0.1407     | 0.14071    |   0.0 |  0.02
Modify  | 16.063     | 16.278     | 16.494     |   5.3 |  1.74
Other   |            | 4.192      |            |       |  0.45

Nlocal:    9826 ave 9839 max 9813 min
Histogram: 1 0 0 0 0 0 0 0 0 1
Nghost:    9001 ave 9010 max 8992 min
Histogram: 1 0 0 0 0 0 0 0 0 1
Neighs:    309894 ave 311834 max 307953 min
Histogram: 1 0 0 0 0 0 0 0 0 1

Total # of neighbors = 619787
Ave neighs/atom = 31.5381
Neighbor list builds = 19505
Dangerous builds not checked
Setting up Verlet run ...
  Unit style    : metal
  Current step  : 480000
  Time step     : 0.001
Per MPI rank memory allocation (min/avg/max) = 11.36 | 11.36 | 11.36 Mbytes
Step Temp Press TotEng PotEng Enthalpy 
  480000    1360.6889    354.80588     -79209.8   -82666.074   -79034.934 
  480495    1313.0152    415.20801   -79380.846   -82716.024   -79176.387 
Loop time of 22.6179 on 2 procs for 495 steps with 19652 atoms

Performance: 1.891 ns/day, 12.692 hours/ns, 21.885 timesteps/s
100.0% CPU use with 2 MPI tasks x no OpenMP threads

MPI task timing breakdown:
Section |  min time  |  avg time  |  max time  |%varavg| %total
---------------------------------------------------------------
Pair    | 10.558     | 10.601     | 10.643     |   1.3 | 46.87
Neigh   | 10.86      | 10.928     | 10.996     |   2.1 | 48.31
Comm    | 0.45589    | 0.56831    | 0.68073    |  14.9 |  2.51
Output  | 7.7009e-05 | 0.00011051 | 0.000144   |   0.0 |  0.00
Modify  | 0.41639    | 0.41831    | 0.42023    |   0.3 |  1.85
Other   |            | 0.1029     |            |       |  0.45

Nlocal:    9826 ave 9831 max 9821 min
Histogram: 1 0 0 0 0 0 0 0 0 1
Nghost:    9014 ave 9043 max 8985 min
Histogram: 1 0 0 0 0 0 0 0 0 1
Neighs:    310095 ave 312222 max 307968 min
Histogram: 1 0 0 0 0 0 0 0 0 1

Total # of neighbors = 620190
Ave neighs/atom = 31.5586
Neighbor list builds = 495
Dangerous builds not checked
Setting up Verlet run ...
  Unit style    : metal
  Current step  : 480495
  Time step     : 0.001
Per MPI rank memory allocation (min/avg/max) = 11.36 | 11.36 | 11.36 Mbytes
Step Temp Press TotEng PotEng Enthalpy 
  480495    1313.0152    415.20801   -79380.846   -82716.024   -79176.387 
  500000    1302.4686   -367.38197   -79430.093   -82738.482   -79611.402 
Loop time of 910.606 on 2 procs for 19505 steps with 19652 atoms

Performance: 1.851 ns/day, 12.968 hours/ns, 21.420 timesteps/s
97.8% CPU use with 2 MPI tasks x no OpenMP threads

MPI task timing breakdown:
Section |  min time  |  avg time  |  max time  |%varavg| %total
---------------------------------------------------------------
Pair    | 438.48     | 438.97     | 439.46     |   2.3 | 48.21
Neigh   | 407.84     | 412.78     | 417.72     |  24.3 | 45.33
Comm    | 33.923     | 38.515     | 43.108     |  74.0 |  4.23
Output  | 0.20527    | 0.20528    | 0.2053     |   0.0 |  0.02
Modify  | 15.824     | 15.954     | 16.084     |   3.3 |  1.75
Other   |            | 4.181      |            |       |  0.46

Nlocal:    9826 ave 9830 max 9822 min
Histogram: 1 0 0 0 0 0 0 0 0 1
Nghost:    8999.5 ave 9005 max 8994 min
Histogram: 1 0 0 0 0 0 0 0 0 1
Neighs:    309379 ave 312249 max 306509 min
Histogram: 1 0 0 0 0 0 0 0 0 1

Total # of neighbors = 618758
Ave neighs/atom = 31.4858
Neighbor list builds = 19505
Dangerous builds not checked
Setting up Verlet run ...
  Unit style    : metal
  Current step  : 500000
  Time step     : 0.001
Per MPI rank memory allocation (min/avg/max) = 11.37 | 11.37 | 11.37 Mbytes
Step Temp Press TotEng PotEng Enthalpy 
  500000    1302.4686   -367.38197   -79430.093   -82738.482   -79611.402 
  500495    1265.8711    -284.9121   -79622.591   -82838.019   -79762.918 
Loop time of 23.1841 on 2 procs for 495 steps with 19652 atoms

Performance: 1.845 ns/day, 13.010 hours/ns, 21.351 timesteps/s
96.6% CPU use with 2 MPI tasks x no OpenMP threads

MPI task timing breakdown:
Section |  min time  |  avg time  |  max time  |%varavg| %total
---------------------------------------------------------------
Pair    | 11.065     | 11.108     | 11.152     |   1.3 | 47.91
Neigh   | 10.045     | 10.252     | 10.46      |   6.5 | 44.22
Comm    | 1.0211     | 1.2804     | 1.5398     |  22.9 |  5.52
Output  | 8.0109e-05 | 9.8109e-05 | 0.00011611 |   0.0 |  0.00
Modify  | 0.42711    | 0.43637    | 0.44564    |   1.4 |  1.88
Other   |            | 0.1068     |            |       |  0.46

Nlocal:    9826 ave 9837 max 9815 min
Histogram: 1 0 0 0 0 0 0 0 0 1
Nghost:    8979 ave 9002 max 8956 min
Histogram: 1 0 0 0 0 0 0 0 0 1
Neighs:    309988 ave 312379 max 307597 min
Histogram: 1 0 0 0 0 0 0 0 0 1

Total # of neighbors = 619976
Ave neighs/atom = 31.5477
Neighbor list builds = 495
Dangerous builds not checked
Setting up Verlet run ...
  Unit style    : metal
  Current step  : 500495
  Time step     : 0.001
Per MPI rank memory allocation (min/avg/max) = 11.37 | 11.37 | 11.37 Mbytes
Step Temp Press TotEng PotEng Enthalpy 
  500495    1265.8711    -284.9121   -79622.591   -82838.019   -79762.918 
  520000    1244.0745    550.65097   -79704.059   -82864.121   -79433.898 
Loop time of 915.988 on 2 procs for 19505 steps with 19652 atoms

Performance: 1.840 ns/day, 13.045 hours/ns, 21.294 timesteps/s
94.4% CPU use with 2 MPI tasks x no OpenMP threads

MPI task timing breakdown:
Section |  min time  |  avg time  |  max time  |%varavg| %total
---------------------------------------------------------------
Pair    | 430.42     | 431.25     | 432.07     |   4.0 | 47.08
Neigh   | 383.83     | 384.18     | 384.53     |   1.8 | 41.94
Comm    | 80.915     | 82.15      | 83.385     |  13.6 |  8.97
Output  | 0.054301   | 0.05431    | 0.05432    |   0.0 |  0.01
Modify  | 14.316     | 14.385     | 14.455     |   1.8 |  1.57
Other   |            | 3.972      |            |       |  0.43

Nlocal:    9826 ave 9834 max 9818 min
Histogram: 1 0 0 0 0 0 0 0 0 1
Nghost:    9024 ave 9035 max 9013 min
Histogram: 1 0 0 0 0 0 0 0 0 1
Neighs:    311385 ave 313163 max 309607 min
Histogram: 1 0 0 0 0 0 0 0 0 1

Total # of neighbors = 622770
Ave neighs/atom = 31.6899
Neighbor list builds = 19505
Dangerous builds not checked
Setting up Verlet run ...
  Unit style    : metal
  Current step  : 520000
  Time step     : 0.001
Per MPI rank memory allocation (min/avg/max) = 11.37 | 11.37 | 11.37 Mbytes
Step Temp Press TotEng PotEng Enthalpy 
  520000    1244.0745    550.65097   -79704.059   -82864.121   -79433.898 
  520495    1213.0736    71.233717    -79870.98   -82952.297   -79836.032 
Loop time of 20.9966 on 2 procs for 495 steps with 19652 atoms

Performance: 2.037 ns/day, 11.783 hours/ns, 23.575 timesteps/s
99.7% CPU use with 2 MPI tasks x no OpenMP threads

MPI task timing breakdown:
Section |  min time  |  avg time  |  max time  |%varavg| %total
---------------------------------------------------------------
Pair    | 9.9306     | 10.108     | 10.286     |   5.6 | 48.14
Neigh   | 9.1346     | 9.5563     | 9.978      |  13.6 | 45.51
Comm    | 0.60835    | 0.86717    | 1.126      |  27.8 |  4.13
Output  | 7.4148e-05 | 0.00010002 | 0.00012589 |   0.0 |  0.00
Modify  | 0.35231    | 0.3631     | 0.37389    |   1.8 |  1.73
Other   |            | 0.1015     |            |       |  0.48

Nlocal:    9826 ave 9847 max 9805 min
Histogram: 1 0 0 0 0 0 0 0 0 1
Nghost:    9009.5 ave 9035 max 8984 min
Histogram: 1 0 0 0 0 0 0 0 0 1
Neighs:    311083 ave 312437 max 309729 min
Histogram: 1 0 0 0 0 0 0 0 0 1

Total # of neighbors = 622166
Ave neighs/atom = 31.6592
Neighbor list builds = 495
Dangerous builds not checked
Setting up Verlet run ...
  Unit style    : metal
  Current step  : 520495
  Time step     : 0.001
Per MPI rank memory allocation (min/avg/max) = 11.37 | 11.37 | 11.37 Mbytes
Step Temp Press TotEng PotEng Enthalpy 
  520495    1213.0736    71.233717    -79870.98   -82952.297   -79836.032 
  540000    1196.8469    151.88592   -79980.368   -83020.468   -79905.948 
Loop time of 893.956 on 2 procs for 19505 steps with 19652 atoms

Performance: 1.885 ns/day, 12.731 hours/ns, 21.819 timesteps/s
98.7% CPU use with 2 MPI tasks x no OpenMP threads

MPI task timing breakdown:
Section |  min time  |  avg time  |  max time  |%varavg| %total
---------------------------------------------------------------
Pair    | 427.58     | 428.64     | 429.7      |   5.1 | 47.95
Neigh   | 403.13     | 406.07     | 409.01     |  14.6 | 45.42
Comm    | 35.472     | 39.619     | 43.766     |  65.9 |  4.43
Output  | 0.27022    | 0.27024    | 0.27026    |   0.0 |  0.03
Modify  | 15.265     | 15.398     | 15.531     |   3.4 |  1.72
Other   |            | 3.956      |            |       |  0.44

Nlocal:    9826 ave 9829 max 9823 min
Histogram: 1 0 0 0 0 0 0 0 0 1
Nghost:    9028.5 ave 9048 max 9009 min
Histogram: 1 0 0 0 0 0 0 0 0 1
Neighs:    311549 ave 313529 max 309569 min
Histogram: 1 0 0 0 0 0 0 0 0 1

Total # of neighbors = 623098
Ave neighs/atom = 31.7066
Neighbor list builds = 19505
Dangerous builds not checked
Setting up Verlet run ...
  Unit style    : metal
  Current step  : 540000
  Time step     : 0.001
Per MPI rank memory allocation (min/avg/max) = 11.37 | 11.37 | 11.37 Mbytes
Step Temp Press TotEng PotEng Enthalpy 
  540000    1196.8469    151.88592   -79980.368   -83020.468   -79905.948 
  540495    1153.5367    138.01858   -80144.264   -83074.352   -80076.755 
Loop time of 24.8746 on 2 procs for 495 steps with 19652 atoms

Performance: 1.719 ns/day, 13.959 hours/ns, 19.900 timesteps/s
93.2% CPU use with 2 MPI tasks x no OpenMP threads

MPI task timing breakdown:
Section |  min time  |  avg time  |  max time  |%varavg| %total
---------------------------------------------------------------
Pair    | 12.245     | 12.386     | 12.527     |   4.0 | 49.79
Neigh   | 10.507     | 10.543     | 10.578     |   1.1 | 42.38
Comm    | 1.2194     | 1.3318     | 1.4442     |   9.7 |  5.35
Output  | 6.9141e-05 | 0.000103   | 0.00013685 |   0.0 |  0.00
Modify  | 0.50481    | 0.51293    | 0.52105    |   1.1 |  2.06
Other   |            | 0.1011     |            |       |  0.41

Nlocal:    9826 ave 9847 max 9805 min
Histogram: 1 0 0 0 0 0 0 0 0 1
Nghost:    9059 ave 9073 max 9045 min
Histogram: 1 0 0 0 0 0 0 0 0 1
Neighs:    312128 ave 313306 max 310949 min
Histogram: 1 0 0 0 0 0 0 0 0 1

Total # of neighbors = 624255
Ave neighs/atom = 31.7655
Neighbor list builds = 495
Dangerous builds not checked
Setting up Verlet run ...
  Unit style    : metal
  Current step  : 540495
  Time step     : 0.001
Per MPI rank memory allocation (min/avg/max) = 11.37 | 11.37 | 11.37 Mbytes
Step Temp Press TotEng PotEng Enthalpy 
  540495    1153.5367    138.01858   -80144.264   -83074.352   -80076.755 
  560000     1144.183     272.5172   -80248.098   -83154.427       -80115 
Loop time of 936.713 on 2 procs for 19505 steps with 19652 atoms

Performance: 1.799 ns/day, 13.340 hours/ns, 20.823 timesteps/s
94.9% CPU use with 2 MPI tasks x no OpenMP threads

MPI task timing breakdown:
Section |  min time  |  avg time  |  max time  |%varavg| %total
---------------------------------------------------------------
Pair    | 436.93     | 438.62     | 440.3      |   8.0 | 46.83
Neigh   | 394.94     | 397.11     | 399.28     |  10.9 | 42.39
Comm    | 80.892     | 81.421     | 81.95      |   5.9 |  8.69
Output  | 0.2246     | 0.22461    | 0.22463    |   0.0 |  0.02
Modify  | 15.235     | 15.284     | 15.332     |   1.2 |  1.63
Other   |            | 4.057      |            |       |  0.43

Nlocal:    9826 ave 9828 max 9824 min
Histogram: 1 0 0 0 0 0 0 0 0 1
Nghost:    9070 ave 9086 max 9054 min
Histogram: 1 0 0 0 0 0 0 0 0 1
Neighs:    312477 ave 315107 max 309847 min
Histogram: 1 0 0 0 0 0 0 0 0 1

Total # of neighbors = 624954
Ave neighs/atom = 31.801
Neighbor list builds = 19505
Dangerous builds not checked
Setting up Verlet run ...
  Unit style    : metal
  Current step  : 560000
  Time step     : 0.001
Per MPI rank memory allocation (min/avg/max) = 11.37 | 11.37 | 11.37 Mbytes
Step Temp Press TotEng PotEng Enthalpy 
  560000     1144.183     272.5172   -80248.098   -83154.427       -80115 
  560495     1116.664    135.26311   -80377.055   -83213.483   -80311.013 
Loop time of 26.4009 on 2 procs for 495 steps with 19652 atoms

[...]
Nghost:    9171.5 ave 9174 max 9169 min
Histogram: 1 0 0 0 0 0 0 0 0 1
Neighs:    320918 ave 323079 max 318757 min
Histogram: 1 0 0 0 0 0 0 0 0 1

Total # of neighbors = 641836
Ave neighs/atom = 32.6601
Neighbor list builds = 19505
Dangerous builds not checked
Setting up Verlet run ...
  Unit style    : metal
  Current step  : 840000
  Time step     : 0.001
Per MPI rank memory allocation (min/avg/max) = 11.37 | 11.37 | 11.37 Mbytes
Step Temp Press TotEng PotEng Enthalpy 
  840000    451.89689    -16.71505   -84146.472   -85294.331   -84154.363 
  840495    420.30111   -3.1852554   -84290.533   -85358.137   -84292.035 
Loop time of 26.416 on 2 procs for 495 steps with 19652 atoms

Performance: 1.619 ns/day, 14.824 hours/ns, 18.739 timesteps/s
88.8% CPU use with 2 MPI tasks x no OpenMP threads

MPI task timing breakdown:
Section |  min time  |  avg time  |  max time  |%varavg| %total
---------------------------------------------------------------
Pair    | 11.962     | 12.061     | 12.161     |   2.9 | 45.66
Neigh   | 9.4524     | 9.5419     | 9.6315     |   2.9 | 36.12
Comm    | 4.3418     | 4.3477     | 4.3536     |   0.3 | 16.46
Output  | 7.391e-05  | 0.00010443 | 0.00013494 |   0.0 |  0.00
Modify  | 0.36849    | 0.36865    | 0.36881    |   0.0 |  1.40
Other   |            | 0.09625    |            |       |  0.36

Nlocal:    9826 ave 9827 max 9825 min
Histogram: 1 0 0 0 0 0 0 0 0 1
Nghost:    9175 ave 9183 max 9167 min
Histogram: 1 0 0 0 0 0 0 0 0 1
Neighs:    321305 ave 323494 max 319116 min
Histogram: 1 0 0 0 0 0 0 0 0 1

Total # of neighbors = 642610
Ave neighs/atom = 32.6995
Neighbor list builds = 495
Dangerous builds not checked
Setting up Verlet run ...
  Unit style    : metal
  Current step  : 840495
  Time step     : 0.001
Per MPI rank memory allocation (min/avg/max) = 11.37 | 11.37 | 11.37 Mbytes
Step Temp Press TotEng PotEng Enthalpy 
  840495    420.30111   -3.1852554   -84290.533   -85358.137   -84292.035 
  860000    406.47441   -93.180633   -84453.064   -85485.546    -84496.95 
Loop time of 949.638 on 2 procs for 19505 steps with 19652 atoms

Performance: 1.775 ns/day, 13.524 hours/ns, 20.539 timesteps/s
92.6% CPU use with 2 MPI tasks x no OpenMP threads

MPI task timing breakdown:
Section |  min time  |  avg time  |  max time  |%varavg| %total
---------------------------------------------------------------
Pair    | 445.71     | 451.1      | 456.49     |  25.4 | 47.50
Neigh   | 370.21     | 372.95     | 375.69     |  14.2 | 39.27
Comm    | 79.689     | 82.221     | 84.753     |  27.9 |  8.66
Output  | 0.051396   | 0.051409   | 0.051423   |   0.0 |  0.01
Modify  | 39.417     | 39.53      | 39.642     |   1.8 |  4.16
Other   |            | 3.786      |            |       |  0.40

Nlocal:    9826 ave 9828 max 9824 min
Histogram: 1 0 0 0 0 0 0 0 0 1
Nghost:    9182.5 ave 9191 max 9174 min
Histogram: 1 0 0 0 0 0 0 0 0 1
Neighs:    321596 ave 323979 max 319214 min
Histogram: 1 0 0 0 0 0 0 0 0 1

Total # of neighbors = 643193
Ave neighs/atom = 32.7291
Neighbor list builds = 19505
Dangerous builds not checked
Setting up Verlet run ...
  Unit style    : metal
  Current step  : 860000
  Time step     : 0.001
Per MPI rank memory allocation (min/avg/max) = 11.37 | 11.37 | 11.37 Mbytes
Step Temp Press TotEng PotEng Enthalpy 
  860000    406.47441   -93.180633   -84453.064   -85485.546    -84496.95 
  860495    372.29908   -81.997607    -84612.49   -85558.164   -84651.051 
Loop time of 20.24 on 2 procs for 495 steps with 19652 atoms

Performance: 2.113 ns/day, 11.358 hours/ns, 24.457 timesteps/s
99.7% CPU use with 2 MPI tasks x no OpenMP threads

MPI task timing breakdown:
Section |  min time  |  avg time  |  max time  |%varavg| %total
---------------------------------------------------------------
Pair    | 9.4024     | 9.6576     | 9.9128     |   8.2 | 47.72
Neigh   | 9.1029     | 9.1457     | 9.1885     |   1.4 | 45.19
Comm    | 0.77753    | 0.99665    | 1.2158     |  21.9 |  4.92
Output  | 8.7976e-05 | 0.00011504 | 0.0001421  |   0.0 |  0.00
Modify  | 0.34664    | 0.34732    | 0.348      |   0.1 |  1.72
Other   |            | 0.09254    |            |       |  0.46

Nlocal:    9826 ave 9837 max 9815 min
Histogram: 1 0 0 0 0 0 0 0 0 1
Nghost:    9167 ave 9168 max 9166 min
Histogram: 1 0 0 0 0 0 0 0 0 1
Neighs:    321740 ave 323667 max 319813 min
Histogram: 1 0 0 0 0 0 0 0 0 1

Total # of neighbors = 643480
Ave neighs/atom = 32.7437
Neighbor list builds = 495
Dangerous builds not checked
Setting up Verlet run ...
  Unit style    : metal
  Current step  : 860495
  Time step     : 0.001
Per MPI rank memory allocation (min/avg/max) = 11.37 | 11.37 | 11.37 Mbytes
Step Temp Press TotEng PotEng Enthalpy 
  860495    372.29908   -81.997607    -84612.49   -85558.164   -84651.051 
  880000    349.30111    33.725409   -84800.222   -85687.479   -84784.398 
Loop time of 856.891 on 2 procs for 19505 steps with 19652 atoms

Performance: 1.967 ns/day, 12.203 hours/ns, 22.763 timesteps/s
99.2% CPU use with 2 MPI tasks x no OpenMP threads

MPI task timing breakdown:
Section |  min time  |  avg time  |  max time  |%varavg| %total
---------------------------------------------------------------
Pair    | 405.44     | 410.64     | 415.84     |  25.7 | 47.92
Neigh   | 382.76     | 386.05     | 389.34     |  16.7 | 45.05
Comm    | 38.371     | 40.199     | 42.027     |  28.8 |  4.69
Output  | 0.25825    | 0.25828    | 0.25831    |   0.0 |  0.03
Modify  | 15.802     | 15.901     | 15.999     |   2.5 |  1.86
Other   |            | 3.846      |            |       |  0.45

Nlocal:    9826 ave 9827 max 9825 min
Histogram: 1 0 0 0 0 0 0 0 0 1
Nghost:    9178 ave 9187 max 9169 min
Histogram: 1 0 0 0 0 0 0 0 0 1
Neighs:    322270 ave 324617 max 319922 min
Histogram: 1 0 0 0 0 0 0 0 0 1

Total # of neighbors = 644539
Ave neighs/atom = 32.7976
Neighbor list builds = 19505
Dangerous builds not checked
Setting up Verlet run ...
  Unit style    : metal
  Current step  : 880000
  Time step     : 0.001
Per MPI rank memory allocation (min/avg/max) = 11.37 | 11.37 | 11.37 Mbytes
Step Temp Press TotEng PotEng Enthalpy 
  880000    349.30111    33.725409   -84800.222   -85687.479   -84784.398 
  880495     322.4613    34.274661   -84937.559    -85756.64     -84921.5 
Loop time of 21.0309 on 2 procs for 495 steps with 19652 atoms

Performance: 2.034 ns/day, 11.802 hours/ns, 23.537 timesteps/s
99.6% CPU use with 2 MPI tasks x no OpenMP threads

MPI task timing breakdown:
Section |  min time  |  avg time  |  max time  |%varavg| %total
---------------------------------------------------------------
Pair    | 9.9025     | 10.091     | 10.279     |   5.9 | 47.98
Neigh   | 9.1328     | 9.4955     | 9.8582     |  11.8 | 45.15
Comm    | 0.80962    | 0.99934    | 1.1891     |  19.0 |  4.75
Output  | 7.5102e-05 | 0.00010407 | 0.00013304 |   0.0 |  0.00
Modify  | 0.34509    | 0.35605    | 0.367      |   1.8 |  1.69
Other   |            | 0.08921    |            |       |  0.42

Nlocal:    9826 ave 9831 max 9821 min
Histogram: 1 0 0 0 0 0 0 0 0 1
Nghost:    9167 ave 9180 max 9154 min
Histogram: 1 0 0 0 0 0 0 0 0 1
Neighs:    322602 ave 324902 max 320303 min
Histogram: 1 0 0 0 0 0 0 0 0 1

Total # of neighbors = 645205
Ave neighs/atom = 32.8315
Neighbor list builds = 495
Dangerous builds not checked
Setting up Verlet run ...
  Unit style    : metal
  Current step  : 880495
  Time step     : 0.001
Per MPI rank memory allocation (min/avg/max) = 11.37 | 11.37 | 11.37 Mbytes
Step Temp Press TotEng PotEng Enthalpy 
  880495     322.4613    34.274661   -84937.559    -85756.64     -84921.5 
  900000     299.6497    190.24018   -85131.269   -85892.407   -85042.343 
Loop time of 906.24 on 2 procs for 19505 steps with 19652 atoms

Performance: 1.860 ns/day, 12.906 hours/ns, 21.523 timesteps/s
99.1% CPU use with 2 MPI tasks x no OpenMP threads

MPI task timing breakdown:
Section |  min time  |  avg time  |  max time  |%varavg| %total
---------------------------------------------------------------
Pair    | 437.33     | 439.37     | 441.42     |   9.7 | 48.48
Neigh   | 395.92     | 399.41     | 402.9      |  17.5 | 44.07
Comm    | 41.682     | 47.267     | 52.852     |  81.2 |  5.22
Output  | 0.050984   | 0.051008   | 0.051032   |   0.0 |  0.01
Modify  | 16.35      | 16.359     | 16.368     |   0.2 |  1.81
Other   |            | 3.78       |            |       |  0.42

Nlocal:    9826 ave 9841 max 9811 min
Histogram: 1 0 0 0 0 0 0 0 0 1
Nghost:    9180 ave 9203 max 9157 min
Histogram: 1 0 0 0 0 0 0 0 0 1
Neighs:    323176 ave 324920 max 321431 min
Histogram: 1 0 0 0 0 0 0 0 0 1

Total # of neighbors = 646351
Ave neighs/atom = 32.8898
Neighbor list builds = 19505
Dangerous builds not checked
Setting up Verlet run ...
  Unit style    : metal
  Current step  : 900000
  Time step     : 0.001
Per MPI rank memory allocation (min/avg/max) = 11.37 | 11.37 | 11.37 Mbytes
Step Temp Press TotEng PotEng Enthalpy 
  900000     299.6497    190.24018   -85131.269   -85892.407   -85042.343 
  900495    271.52418   -52.956578   -85262.457   -85952.153   -85287.201 
Loop time of 20.6862 on 2 procs for 495 steps with 19652 atoms

Performance: 2.067 ns/day, 11.608 hours/ns, 23.929 timesteps/s
99.6% CPU use with 2 MPI tasks x no OpenMP threads

MPI task timing breakdown:
Section |  min time  |  avg time  |  max time  |%varavg| %total
---------------------------------------------------------------
Pair    | 9.8635     | 9.8964     | 9.9292     |   1.0 | 47.84
Neigh   | 8.9576     | 9.2323     | 9.5071     |   9.0 | 44.63
Comm    | 0.87935    | 1.1324     | 1.3855     |  23.8 |  5.47
Output  | 7.2956e-05 | 0.00010252 | 0.00013208 |   0.0 |  0.00
Modify  | 0.33328    | 0.34183    | 0.35038    |   1.5 |  1.65
Other   |            | 0.08311    |            |       |  0.40

Nlocal:    9826 ave 9827 max 9825 min
Histogram: 1 0 0 0 0 0 0 0 0 1
Nghost:    9161.5 ave 9163 max 9160 min
Histogram: 1 0 0 0 0 0 0 0 0 1
Neighs:    323242 ave 325757 max 320726 min
Histogram: 1 0 0 0 0 0 0 0 0 1

Total # of neighbors = 646483
Ave neighs/atom = 32.8965
Neighbor list builds = 495
Dangerous builds not checked
Setting up Verlet run ...
  Unit style    : metal
  Current step  : 900495
  Time step     : 0.001
Per MPI rank memory allocation (min/avg/max) = 11.37 | 11.37 | 11.37 Mbytes
Step Temp Press TotEng PotEng Enthalpy 
  900495    271.52418   -52.956578   -85262.457   -85952.153   -85287.201 
  920000    249.81606    -68.60508   -85441.962   -86076.517   -85473.958 
Loop time of 917.888 on 2 procs for 19505 steps with 19652 atoms

Performance: 1.836 ns/day, 13.072 hours/ns, 21.250 timesteps/s
97.2% CPU use with 2 MPI tasks x no OpenMP threads

MPI task timing breakdown:
Section |  min time  |  avg time  |  max time  |%varavg| %total
---------------------------------------------------------------
Pair    | 433.85     | 436.79     | 439.72     |  14.0 | 47.59
Neigh   | 386.69     | 389.09     | 391.49     |  12.2 | 42.39
Comm    | 71.304     | 71.737     | 72.171     |   5.1 |  7.82
Output  | 0.092354   | 0.092381   | 0.092407   |   0.0 |  0.01
Modify  | 16.459     | 16.534     | 16.608     |   1.8 |  1.80
Other   |            | 3.65       |            |       |  0.40

Nlocal:    9826 ave 9841 max 9811 min
Histogram: 1 0 0 0 0 0 0 0 0 1
Nghost:    9188.5 ave 9189 max 9188 min
Histogram: 1 0 0 0 0 0 0 0 0 1
Neighs:    323384 ave 326180 max 320588 min
Histogram: 1 0 0 0 0 0 0 0 0 1

Total # of neighbors = 646768
Ave neighs/atom = 32.9111
Neighbor list builds = 19505
Dangerous builds not checked
Setting up Verlet run ...
  Unit style    : metal
  Current step  : 920000
  Time step     : 0.001
Per MPI rank memory allocation (min/avg/max) = 11.37 | 11.37 | 11.37 Mbytes
Step Temp Press TotEng PotEng Enthalpy 
  920000    249.81606    -68.60508   -85441.962   -86076.517   -85473.958 
  920495     223.5867    95.970771   -85575.329    -86143.26   -85530.645 
Loop time of 26.9407 on 2 procs for 495 steps with 19652 atoms

Performance: 1.587 ns/day, 15.118 hours/ns, 18.374 timesteps/s
91.7% CPU use with 2 MPI tasks x no OpenMP threads

MPI task timing breakdown:
Section |  min time  |  avg time  |  max time  |%varavg| %total
---------------------------------------------------------------
Pair    | 13.231     | 13.504     | 13.776     |   7.4 | 50.12
Neigh   | 9.8613     | 10.242     | 10.623     |  11.9 | 38.02
Comm    | 1.4905     | 2.1597     | 2.8288     |  45.5 |  8.02
Output  | 6.5088e-05 | 0.26325    | 0.52644    |  51.3 |  0.98
Modify  | 0.39644    | 0.41005    | 0.42366    |   2.1 |  1.52
Other   |            | 0.362      |            |       |  1.34

Nlocal:    9826 ave 9839 max 9813 min
Histogram: 1 0 0 0 0 0 0 0 0 1
Nghost:    9189 ave 9220 max 9158 min
Histogram: 1 0 0 0 0 0 0 0 0 1
Neighs:    323862 ave 326835 max 320890 min
Histogram: 1 0 0 0 0 0 0 0 0 1

Total # of neighbors = 647725
Ave neighs/atom = 32.9597
Neighbor list builds = 495
Dangerous builds not checked
Setting up Verlet run ...
  Unit style    : metal
  Current step  : 920495
  Time step     : 0.001
Per MPI rank memory allocation (min/avg/max) = 11.37 | 11.37 | 11.37 Mbytes
Step Temp Press TotEng PotEng Enthalpy 
  920495     223.5867    95.970771   -85575.329    -86143.26   -85530.645 
  940000    199.03305    160.10101   -85748.875   -86254.437   -85674.463 
Loop time of 1189.9 on 2 procs for 19505 steps with 19652 atoms

Performance: 1.416 ns/day, 16.946 hours/ns, 16.392 timesteps/s
84.2% CPU use with 2 MPI tasks x no OpenMP threads

MPI task timing breakdown:
Section |  min time  |  avg time  |  max time  |%varavg| %total
---------------------------------------------------------------
Pair    | 529.78     | 532.87     | 535.95     |  13.4 | 44.78
Neigh   | 372.64     | 374.61     | 376.58     |  10.2 | 31.48
Comm    | 187.15     | 194.07     | 201        |  49.7 | 16.31
Output  | 0.10245    | 0.10248    | 0.1025     |   0.0 |  0.01
Modify  | 72.381     | 84.394     | 96.408     | 130.8 |  7.09
Other   |            | 3.855      |            |       |  0.32

Nlocal:    9826 ave 9836 max 9816 min
Histogram: 1 0 0 0 0 0 0 0 0 1
Nghost:    9179 ave 9192 max 9166 min
Histogram: 1 0 0 0 0 0 0 0 0 1
Neighs:    324348 ave 326972 max 321723 min
Histogram: 1 0 0 0 0 0 0 0 0 1

Total # of neighbors = 648695
Ave neighs/atom = 33.0091
Neighbor list builds = 19505
Dangerous builds not checked
Setting up Verlet run ...
  Unit style    : metal
  Current step  : 940000
  Time step     : 0.001
Per MPI rank memory allocation (min/avg/max) = 11.37 | 11.37 | 11.37 Mbytes
Step Temp Press TotEng PotEng Enthalpy 
  940000    199.03305    160.10101   -85748.875   -86254.437   -85674.463 
  940495    174.48733    140.70846   -85868.581   -86311.795   -85803.258 
Loop time of 27.3099 on 2 procs for 495 steps with 19652 atoms

Performance: 1.566 ns/day, 15.325 hours/ns, 18.125 timesteps/s
92.9% CPU use with 2 MPI tasks x no OpenMP threads

MPI task timing breakdown:
Section |  min time  |  avg time  |  max time  |%varavg| %total
---------------------------------------------------------------
Pair    | 12.537     | 12.637     | 12.736     |   2.8 | 46.27
Neigh   | 9.9772     | 10.083     | 10.188     |   3.3 | 36.92
Comm    | 4.0562     | 4.0576     | 4.059      |   0.1 | 14.86
Output  | 8.9169e-05 | 0.00011563 | 0.0001421  |   0.0 |  0.00
Modify  | 0.41441    | 0.41525    | 0.41608    |   0.1 |  1.52
Other   |            | 0.1173     |            |       |  0.43

Nlocal:    9826 ave 9833 max 9819 min
Histogram: 1 0 0 0 0 0 0 0 0 1
Nghost:    9173.5 ave 9174 max 9173 min
Histogram: 1 0 0 0 0 0 0 0 0 1
Neighs:    324636 ave 327249 max 322023 min
Histogram: 1 0 0 0 0 0 0 0 0 1

Total # of neighbors = 649272
Ave neighs/atom = 33.0385
Neighbor list builds = 495
Dangerous builds not checked
Setting up Verlet run ...
  Unit style    : metal
  Current step  : 940495
  Time step     : 0.001
Per MPI rank memory allocation (min/avg/max) = 11.37 | 11.37 | 11.37 Mbytes
Step Temp Press TotEng PotEng Enthalpy 
  940495    174.48733    140.70846   -85868.581   -86311.795   -85803.258 
  960000    151.11589   -163.19489   -86028.131   -86411.979   -86103.852 
Loop time of 1084.65 on 2 procs for 19505 steps with 19652 atoms

Performance: 1.554 ns/day, 15.447 hours/ns, 17.983 timesteps/s
95.9% CPU use with 2 MPI tasks x no OpenMP threads

MPI task timing breakdown:
Section |  min time  |  avg time  |  max time  |%varavg| %total
---------------------------------------------------------------
Pair    | 539.41     | 548.62     | 557.83     |  39.3 | 50.58
Neigh   | 405.19     | 417.6      | 430.01     |  60.7 | 38.50
Comm    | 72.694     | 88.523     | 104.35     | 168.2 |  8.16
Output  | 0.19595    | 0.19598    | 0.19601    |   0.0 |  0.02
Modify  | 18.883     | 24.74      | 30.597     | 117.8 |  2.28
Other   |            | 4.979      |            |       |  0.46

Nlocal:    9826 ave 9837 max 9815 min
Histogram: 1 0 0 0 0 0 0 0 0 1
Nghost:    9219.5 ave 9222 max 9217 min
Histogram: 1 0 0 0 0 0 0 0 0 1
Neighs:    324992 ave 327079 max 322906 min
Histogram: 1 0 0 0 0 0 0 0 0 1

Total # of neighbors = 649985
Ave neighs/atom = 33.0748
Neighbor list builds = 19505
Dangerous builds not checked
Setting up Verlet run ...
  Unit style    : metal
  Current step  : 960000
  Time step     : 0.001
Per MPI rank memory allocation (min/avg/max) = 11.37 | 11.37 | 11.37 Mbytes
Step Temp Press TotEng PotEng Enthalpy 
  960000    151.11589   -163.19489   -86028.131   -86411.979   -86103.852 
  960495    126.41819      121.832   -86146.571   -86467.684   -86090.135 
Loop time of 26.7194 on 2 procs for 495 steps with 19652 atoms

Performance: 1.601 ns/day, 14.994 hours/ns, 18.526 timesteps/s
96.1% CPU use with 2 MPI tasks x no OpenMP threads

MPI task timing breakdown:
Section |  min time  |  avg time  |  max time  |%varavg| %total
---------------------------------------------------------------
Pair    | 13.292     | 13.339     | 13.385     |   1.3 | 49.92
Neigh   | 10.493     | 10.575     | 10.656     |   2.5 | 39.58
Comm    | 2.2124     | 2.2424     | 2.2724     |   2.0 |  8.39
Output  | 8.7976e-05 | 0.0001179  | 0.00014782 |   0.0 |  0.00
Modify  | 0.42839    | 0.4356     | 0.44281    |   1.1 |  1.63
Other   |            | 0.1277     |            |       |  0.48

Nlocal:    9826 ave 9847 max 9805 min
Histogram: 1 0 0 0 0 0 0 0 0 1
Nghost:    9227 ave 9235 max 9219 min
Histogram: 1 0 0 0 0 0 0 0 0 1
Neighs:    325191 ave 326818 max 323564 min
Histogram: 1 0 0 0 0 0 0 0 0 1

Total # of neighbors = 650382
Ave neighs/atom = 33.095
Neighbor list builds = 495
Dangerous builds not checked
Setting up Verlet run ...
  Unit style    : metal
  Current step  : 960495
  Time step     : 0.001
Per MPI rank memory allocation (min/avg/max) = 11.37 | 11.37 | 11.37 Mbytes
Step Temp Press TotEng PotEng Enthalpy 
  960495    126.41819      121.832   -86146.571   -86467.684   -86090.135 
  980000    99.829238    -160.8315   -86306.412   -86559.988   -86380.873 
Loop time of 1105.29 on 2 procs for 19505 steps with 19652 atoms

Performance: 1.525 ns/day, 15.741 hours/ns, 17.647 timesteps/s
95.6% CPU use with 2 MPI tasks x no OpenMP threads

MPI task timing breakdown:
Section |  min time  |  avg time  |  max time  |%varavg| %total
---------------------------------------------------------------
Pair    | 549.07     | 553.45     | 557.84     |  18.6 | 50.07
Neigh   | 430.34     | 435.25     | 440.16     |  23.5 | 39.38
Comm    | 92.311     | 92.639     | 92.966     |   3.4 |  8.38
Output  | 0.053267   | 0.05331    | 0.053353   |   0.0 |  0.00
Modify  | 18.543     | 18.633     | 18.724     |   2.1 |  1.69
Other   |            | 5.259      |            |       |  0.48

Nlocal:    9826 ave 9833 max 9819 min
Histogram: 1 0 0 0 0 0 0 0 0 1
Nghost:    9206 ave 9212 max 9200 min
Histogram: 1 0 0 0 0 0 0 0 0 1
Neighs:    325580 ave 327635 max 323525 min
Histogram: 1 0 0 0 0 0 0 0 0 1

Total # of neighbors = 651160
Ave neighs/atom = 33.1345
Neighbor list builds = 19505
Dangerous builds not checked
Total wall time: 13:28:20
