LAMMPS (12 Dec 2018)
Lattice spacing in x,y,z = 4 4 4
Created orthogonal box = (0 0 0) to (68 68 68)
  1 by 1 by 1 MPI processor grid
Created 19652 atoms
  Time spent = 0.00504303 secs
Setting atom values ...
  19652 settings made for type/fraction
Neighbor list info ...
  update every 1 steps, delay 0 steps, check no
  max neighbors/atom: 2000, page size: 100000
  master list distance cutoff = 8.5
  ghost atom cutoff = 8.5
  binsize = 4.25, bins = 16 16 16
  1 neighbor lists, perpetual/occasional/extra = 1 0 0
  (1) pair eam/alloy, perpetual
      attributes: half, newton on
      pair build: half/bin/atomonly/newton
      stencil: half/bin/3d/newton
      bin: standard
Setting up Verlet run ...
  Unit style    : metal
  Current step  : 0
  Time step     : 0.001
Per MPI rank memory allocation (min/avg/max) = 18.19 | 18.19 | 18.19 Mbytes
Step Temp Press TotEng PotEng Enthalpy 
       0          300   -174102.16   -61540.291   -62302.318   -95708.368 
    1000    369.58307   -91206.901   -61540.289   -62479.064    -79439.92 
Loop time of 189.959 on 1 procs for 1000 steps with 19652 atoms

Performance: 0.455 ns/day, 52.766 hours/ns, 5.264 timesteps/s
93.9% CPU use with 1 MPI tasks x no OpenMP threads

MPI task timing breakdown:
Section |  min time  |  avg time  |  max time  |%varavg| %total
---------------------------------------------------------------
Pair    | 108.88     | 108.88     | 108.88     |   0.0 | 57.32
Neigh   | 78.28      | 78.28      | 78.28      |   0.0 | 41.21
Comm    | 1.7194     | 1.7194     | 1.7194     |   0.0 |  0.91
Output  | 0.00019407 | 0.00019407 | 0.00019407 |   0.0 |  0.00
Modify  | 0.57117    | 0.57117    | 0.57117    |   0.0 |  0.30
Other   |            | 0.5084     |            |       |  0.27

Nlocal:    19652 ave 19652 max 19652 min
Histogram: 1 0 0 0 0 0 0 0 0 0
Nghost:    19208 ave 19208 max 19208 min
Histogram: 1 0 0 0 0 0 0 0 0 0
Neighs:    1.5658e+06 ave 1.5658e+06 max 1.5658e+06 min
Histogram: 1 0 0 0 0 0 0 0 0 0

Total # of neighbors = 1565802
Ave neighs/atom = 79.6765
Neighbor list builds = 1000
Dangerous builds not checked
Setting up Verlet run ...
  Unit style    : metal
  Current step  : 1000
  Time step     : 0.001
Per MPI rank memory allocation (min/avg/max) = 18.19 | 18.19 | 18.19 Mbytes
Step Temp Press TotEng PotEng Enthalpy 
    1000    369.58307   -91206.901   -61540.289   -62479.064    -79439.92 
    2000     417.5789   -1275.9042   -66106.909   -67167.597   -66297.839 
Loop time of 252.589 on 1 procs for 1000 steps with 19652 atoms

Performance: 0.342 ns/day, 70.164 hours/ns, 3.959 timesteps/s
99.0% CPU use with 1 MPI tasks x no OpenMP threads

MPI task timing breakdown:
Section |  min time  |  avg time  |  max time  |%varavg| %total
---------------------------------------------------------------
Pair    | 144.15     | 144.15     | 144.15     |   0.0 | 57.07
Neigh   | 103.85     | 103.85     | 103.85     |   0.0 | 41.12
Comm    | 1.8885     | 1.8885     | 1.8885     |   0.0 |  0.75
Output  | 0.072025   | 0.072025   | 0.072025   |   0.0 |  0.03
Modify  | 2.0589     | 2.0589     | 2.0589     |   0.0 |  0.82
Other   |            | 0.5633     |            |       |  0.22

Nlocal:    19652 ave 19652 max 19652 min
Histogram: 1 0 0 0 0 0 0 0 0 0
Nghost:    20371 ave 20371 max 20371 min
Histogram: 1 0 0 0 0 0 0 0 0 0
Neighs:    2.04116e+06 ave 2.04116e+06 max 2.04116e+06 min
Histogram: 1 0 0 0 0 0 0 0 0 0

Total # of neighbors = 2041160
Ave neighs/atom = 103.865
Neighbor list builds = 1000
Dangerous builds not checked
Setting up Verlet run ...
  Unit style    : metal
  Current step  : 2000
  Time step     : 0.001
Per MPI rank memory allocation (min/avg/max) = 19.34 | 19.34 | 19.34 Mbytes
Step Temp Press TotEng PotEng Enthalpy 
    2000     417.5789   -1275.9042   -66106.909   -67167.597   -66297.839 
    4000    802.90324    731.55736   -64970.084   -67009.531   -64860.668 
    6000    1333.5546    663.75275   -61463.775   -64851.125   -61359.694 
    8000    1911.3252    884.82442   -56282.921   -61137.861   -56129.667 
   10000    2451.3536    261.52802    -53157.29   -59383.952   -53109.549 
Loop time of 1727.32 on 1 procs for 8000 steps with 19652 atoms

Performance: 0.400 ns/day, 59.976 hours/ns, 4.631 timesteps/s
97.8% CPU use with 1 MPI tasks x no OpenMP threads

MPI task timing breakdown:
Section |  min time  |  avg time  |  max time  |%varavg| %total
---------------------------------------------------------------
Pair    | 961.2      | 961.2      | 961.2      |   0.0 | 55.65
Neigh   | 736.59     | 736.59     | 736.59     |   0.0 | 42.64
Comm    | 11.32      | 11.32      | 11.32      |   0.0 |  0.66
Output  | 1.3707     | 1.3707     | 1.3707     |   0.0 |  0.08
Modify  | 12.981     | 12.981     | 12.981     |   0.0 |  0.75
Other   |            | 3.855      |            |       |  0.22

Nlocal:    19652 ave 19652 max 19652 min
Histogram: 1 0 0 0 0 0 0 0 0 0
Nghost:    19415 ave 19415 max 19415 min
Histogram: 1 0 0 0 0 0 0 0 0 0
Neighs:    1.68424e+06 ave 1.68424e+06 max 1.68424e+06 min
Histogram: 1 0 0 0 0 0 0 0 0 0

Total # of neighbors = 1684241
Ave neighs/atom = 85.7033
Neighbor list builds = 8000
Dangerous builds not checked
Setting up Verlet run ...
  Unit style    : metal
  Current step  : 10000
  Time step     : 0.001
Per MPI rank memory allocation (min/avg/max) = 19.72 | 19.72 | 19.72 Mbytes
Step Temp Press TotEng PotEng Enthalpy 
   10000    2451.3536    261.52802    -53157.29   -59383.952   -53109.549 
   12000    2468.8709    -299.9299   -53036.649   -59307.806   -53091.564 
   14000     2453.179   -2532.1459   -53015.511   -59246.809   -53481.243 
   16000     2433.652   -13.902935   -53101.762    -59283.46   -53104.308 
   18000    2458.8399    503.82685    -53087.11   -59332.788   -52995.051 
   20000    2450.8894   -2468.3324    -53056.69   -59282.173   -53509.713 
   22000    2463.8739   -999.96487   -53023.841   -59282.305   -53207.182 
   24000    2452.0159    69.177338   -53087.499   -59315.843   -53074.848 
   26000    2442.9498    943.99068    -53115.77   -59321.086   -52943.378 
   28000    2448.2751    1234.6796   -53029.356   -59248.198    -52803.51 
   30000    2449.2103    500.46681   -53053.568   -59274.785   -52961.965 
   32000    2429.1198    971.97717   -53166.638   -59336.824   -52989.107 
   34000    2459.2398   -1131.8582   -53071.095   -59317.788   -53278.399 
   36000    2454.7655   -472.41503   -53063.832    -59299.16   -53150.313 
   38000    2464.6127   -427.39462   -53092.048   -59352.389    -53170.15 
   40000    2435.0359    -261.8733   -53207.826   -59393.039   -53255.658 
Loop time of 4838.9 on 1 procs for 30000 steps with 19652 atoms

Performance: 0.536 ns/day, 44.805 hours/ns, 6.200 timesteps/s
98.6% CPU use with 1 MPI tasks x no OpenMP threads

MPI task timing breakdown:
Section |  min time  |  avg time  |  max time  |%varavg| %total
---------------------------------------------------------------
Pair    | 2611       | 2611       | 2611       |   0.0 | 53.96
Neigh   | 2101.2     | 2101.2     | 2101.2     |   0.0 | 43.42
Comm    | 30.623     | 30.623     | 30.623     |   0.0 |  0.63
Output  | 49.245     | 49.245     | 49.245     |   0.0 |  1.02
Modify  | 36.075     | 36.075     | 36.075     |   0.0 |  0.75
Other   |            | 10.78      |            |       |  0.22

Nlocal:    19652 ave 19652 max 19652 min
Histogram: 1 0 0 0 0 0 0 0 0 0
Nghost:    19286 ave 19286 max 19286 min
Histogram: 1 0 0 0 0 0 0 0 0 0
Neighs:    1.684e+06 ave 1.684e+06 max 1.684e+06 min
Histogram: 1 0 0 0 0 0 0 0 0 0

Total # of neighbors = 1683995
Ave neighs/atom = 85.6908
Neighbor list builds = 30000
Dangerous builds not checked
Setting up Verlet run ...
  Unit style    : metal
  Current step  : 40000
  Time step     : 0.001
Per MPI rank memory allocation (min/avg/max) = 19.72 | 19.72 | 19.72 Mbytes
Step Temp Press TotEng PotEng Enthalpy 
   40000    2435.0359    -261.8733   -53207.826   -59393.039   -53255.658 
   40495    2408.7631   -1511.3242   -53333.994   -59452.471   -53609.789 
Loop time of 72.582 on 1 procs for 495 steps with 19652 atoms

Performance: 0.589 ns/day, 40.731 hours/ns, 6.820 timesteps/s
100.0% CPU use with 1 MPI tasks x no OpenMP threads

MPI task timing breakdown:
Section |  min time  |  avg time  |  max time  |%varavg| %total
---------------------------------------------------------------
Pair    | 39.15      | 39.15      | 39.15      |   0.0 | 53.94
Neigh   | 32.249     | 32.249     | 32.249     |   0.0 | 44.43
Comm    | 0.46083    | 0.46083    | 0.46083    |   0.0 |  0.63
Output  | 0.0069571  | 0.0069571  | 0.0069571  |   0.0 |  0.01
Modify  | 0.55873    | 0.55873    | 0.55873    |   0.0 |  0.77
Other   |            | 0.1565     |            |       |  0.22

Nlocal:    19652 ave 19652 max 19652 min
Histogram: 1 0 0 0 0 0 0 0 0 0
Nghost:    19319 ave 19319 max 19319 min
Histogram: 1 0 0 0 0 0 0 0 0 0
Neighs:    1.68477e+06 ave 1.68477e+06 max 1.68477e+06 min
Histogram: 1 0 0 0 0 0 0 0 0 0

Total # of neighbors = 1684766
Ave neighs/atom = 85.73
Neighbor list builds = 495
Dangerous builds not checked
Setting up Verlet run ...
  Unit style    : metal
  Current step  : 40495
  Time step     : 0.001
Per MPI rank memory allocation (min/avg/max) = 19.72 | 19.72 | 19.72 Mbytes
Step Temp Press TotEng PotEng Enthalpy 
   40495    2408.7631   -1511.3242   -53333.994   -59452.471   -53609.789 
   42000     2415.054   -1365.8519   -53306.478   -59440.935   -53555.751 
Loop time of 256.267 on 1 procs for 1505 steps with 19652 atoms

Performance: 0.507 ns/day, 47.299 hours/ns, 5.873 timesteps/s
99.7% CPU use with 1 MPI tasks x no OpenMP threads

MPI task timing breakdown:
Section |  min time  |  avg time  |  max time  |%varavg| %total
---------------------------------------------------------------
Pair    | 140.03     | 140.03     | 140.03     |   0.0 | 54.64
Neigh   | 111.8      | 111.8      | 111.8      |   0.0 | 43.63
Comm    | 1.6347     | 1.6347     | 1.6347     |   0.0 |  0.64
Output  | 0.32144    | 0.32144    | 0.32144    |   0.0 |  0.13
Modify  | 1.9519     | 1.9519     | 1.9519     |   0.0 |  0.76
Other   |            | 0.5294     |            |       |  0.21

Nlocal:    19652 ave 19652 max 19652 min
Histogram: 1 0 0 0 0 0 0 0 0 0
Nghost:    19319 ave 19319 max 19319 min
Histogram: 1 0 0 0 0 0 0 0 0 0
Neighs:    1.68485e+06 ave 1.68485e+06 max 1.68485e+06 min
Histogram: 1 0 0 0 0 0 0 0 0 0

Total # of neighbors = 1684853
Ave neighs/atom = 85.7344
Neighbor list builds = 1505
Dangerous builds not checked
Setting up Verlet run ...
  Unit style    : metal
  Current step  : 42000
  Time step     : 0.001
Per MPI rank memory allocation (min/avg/max) = 19.72 | 19.72 | 19.72 Mbytes
Step Temp Press TotEng PotEng Enthalpy 
   42000     2415.054   -1365.8519   -53306.478   -59440.935   -53555.751 
   42495    2358.5152    676.78331   -53628.185   -59619.029   -53505.549 
Loop time of 73.8205 on 1 procs for 495 steps with 19652 atoms

Performance: 0.579 ns/day, 41.426 hours/ns, 6.705 timesteps/s
100.0% CPU use with 1 MPI tasks x no OpenMP threads

MPI task timing breakdown:
Section |  min time  |  avg time  |  max time  |%varavg| %total
---------------------------------------------------------------
Pair    | 40.124     | 40.124     | 40.124     |   0.0 | 54.35
Neigh   | 32.516     | 32.516     | 32.516     |   0.0 | 44.05
Comm    | 0.46522    | 0.46522    | 0.46522    |   0.0 |  0.63
Output  | 0.00014591 | 0.00014591 | 0.00014591 |   0.0 |  0.00
Modify  | 0.5618     | 0.5618     | 0.5618     |   0.0 |  0.76
Other   |            | 0.153      |            |       |  0.21

Nlocal:    19652 ave 19652 max 19652 min
Histogram: 1 0 0 0 0 0 0 0 0 0
Nghost:    19368 ave 19368 max 19368 min
Histogram: 1 0 0 0 0 0 0 0 0 0
Neighs:    1.69666e+06 ave 1.69666e+06 max 1.69666e+06 min
Histogram: 1 0 0 0 0 0 0 0 0 0

Total # of neighbors = 1696662
Ave neighs/atom = 86.3353
Neighbor list builds = 495
Dangerous builds not checked
Setting up Verlet run ...
  Unit style    : metal
  Current step  : 42495
  Time step     : 0.001
Per MPI rank memory allocation (min/avg/max) = 19.72 | 19.72 | 19.72 Mbytes
Step Temp Press TotEng PotEng Enthalpy 
   42495    2358.5152    676.78331   -53628.185   -59619.029   -53505.549 
   44000    2368.7033   -187.43873   -53621.288   -59638.011   -53655.222 
Loop time of 216.831 on 1 procs for 1505 steps with 19652 atoms

Performance: 0.600 ns/day, 40.020 hours/ns, 6.941 timesteps/s
99.9% CPU use with 1 MPI tasks x no OpenMP threads

MPI task timing breakdown:
Section |  min time  |  avg time  |  max time  |%varavg| %total
---------------------------------------------------------------
Pair    | 116.49     | 116.49     | 116.49     |   0.0 | 53.72
Neigh   | 96.738     | 96.738     | 96.738     |   0.0 | 44.61
Comm    | 1.3571     | 1.3571     | 1.3571     |   0.0 |  0.63
Output  | 0.18553    | 0.18553    | 0.18553    |   0.0 |  0.09
Modify  | 1.6169     | 1.6169     | 1.6169     |   0.0 |  0.75
Other   |            | 0.4457     |            |       |  0.21

Nlocal:    19652 ave 19652 max 19652 min
Histogram: 1 0 0 0 0 0 0 0 0 0
Nghost:    19315 ave 19315 max 19315 min
Histogram: 1 0 0 0 0 0 0 0 0 0
Neighs:    1.69825e+06 ave 1.69825e+06 max 1.69825e+06 min
Histogram: 1 0 0 0 0 0 0 0 0 0

Total # of neighbors = 1698252
Ave neighs/atom = 86.4162
Neighbor list builds = 1505
Dangerous builds not checked
Setting up Verlet run ...
  Unit style    : metal
  Current step  : 44000
  Time step     : 0.001
Per MPI rank memory allocation (min/avg/max) = 19.72 | 19.72 | 19.72 Mbytes
Step Temp Press TotEng PotEng Enthalpy 
   44000    2368.7033   -187.43873   -53621.288   -59638.011   -53655.222 
   44495    2305.7107   -285.09207   -53862.193   -59718.908   -53913.728 
Loop time of 67.7049 on 1 procs for 495 steps with 19652 atoms

Performance: 0.632 ns/day, 37.994 hours/ns, 7.311 timesteps/s
99.9% CPU use with 1 MPI tasks x no OpenMP threads

MPI task timing breakdown:
Section |  min time  |  avg time  |  max time  |%varavg| %total
---------------------------------------------------------------
Pair    | 36.663     | 36.663     | 36.663     |   0.0 | 54.15
Neigh   | 29.946     | 29.946     | 29.946     |   0.0 | 44.23
Comm    | 0.42426    | 0.42426    | 0.42426    |   0.0 |  0.63
Output  | 0.00013709 | 0.00013709 | 0.00013709 |   0.0 |  0.00
Modify  | 0.51133    | 0.51133    | 0.51133    |   0.0 |  0.76
Other   |            | 0.1607     |            |       |  0.24

Nlocal:    19652 ave 19652 max 19652 min
Histogram: 1 0 0 0 0 0 0 0 0 0
Nghost:    19315 ave 19315 max 19315 min
Histogram: 1 0 0 0 0 0 0 0 0 0
Neighs:    1.70065e+06 ave 1.70065e+06 max 1.70065e+06 min
Histogram: 1 0 0 0 0 0 0 0 0 0

Total # of neighbors = 1700652
Ave neighs/atom = 86.5384
Neighbor list builds = 495
Dangerous builds not checked
Setting up Verlet run ...
  Unit style    : metal
  Current step  : 44495
  Time step     : 0.001
Per MPI rank memory allocation (min/avg/max) = 19.72 | 19.72 | 19.72 Mbytes
Step Temp Press TotEng PotEng Enthalpy 
   44495    2305.7107   -285.09207   -53862.193   -59718.908   -53913.728 
   46000    2289.4475   -600.90525   -53940.971   -59756.376    -54049.49 
Loop time of 219.613 on 1 procs for 1505 steps with 19652 atoms

Performance: 0.592 ns/day, 40.534 hours/ns, 6.853 timesteps/s
99.0% CPU use with 1 MPI tasks x no OpenMP threads

MPI task timing breakdown:
Section |  min time  |  avg time  |  max time  |%varavg| %total
---------------------------------------------------------------
Pair    | 118.11     | 118.11     | 118.11     |   0.0 | 53.78
Neigh   | 96.887     | 96.887     | 96.887     |   0.0 | 44.12
Comm    | 1.406      | 1.406      | 1.406      |   0.0 |  0.64
Output  | 1.0554     | 1.0554     | 1.0554     |   0.0 |  0.48
Modify  | 1.6468     | 1.6468     | 1.6468     |   0.0 |  0.75
Other   |            | 0.5043     |            |       |  0.23

Nlocal:    19652 ave 19652 max 19652 min
Histogram: 1 0 0 0 0 0 0 0 0 0
Nghost:    19320 ave 19320 max 19320 min
Histogram: 1 0 0 0 0 0 0 0 0 0
Neighs:    1.7016e+06 ave 1.7016e+06 max 1.7016e+06 min
Histogram: 1 0 0 0 0 0 0 0 0 0

Total # of neighbors = 1701601
Ave neighs/atom = 86.5867
Neighbor list builds = 1505
Dangerous builds not checked
Setting up Verlet run ...
  Unit style    : metal
  Current step  : 46000
  Time step     : 0.001
Per MPI rank memory allocation (min/avg/max) = 19.72 | 19.72 | 19.72 Mbytes
Step Temp Press TotEng PotEng Enthalpy 
   46000    2289.4475   -600.90525   -53940.971   -59756.376    -54049.49 
   46495    2261.7512   -1067.8701   -54165.238   -59910.292   -54357.396 
Loop time of 82.7786 on 1 procs for 495 steps with 19652 atoms

Performance: 0.517 ns/day, 46.453 hours/ns, 5.980 timesteps/s
99.9% CPU use with 1 MPI tasks x no OpenMP threads

MPI task timing breakdown:
Section |  min time  |  avg time  |  max time  |%varavg| %total
---------------------------------------------------------------
Pair    | 45.121     | 45.121     | 45.121     |   0.0 | 54.51
Neigh   | 36.335     | 36.335     | 36.335     |   0.0 | 43.89
Comm    | 0.51782    | 0.51782    | 0.51782    |   0.0 |  0.63
Output  | 0.00019598 | 0.00019598 | 0.00019598 |   0.0 |  0.00
Modify  | 0.63345    | 0.63345    | 0.63345    |   0.0 |  0.77
Other   |            | 0.171      |            |       |  0.21

Nlocal:    19652 ave 19652 max 19652 min
Histogram: 1 0 0 0 0 0 0 0 0 0
Nghost:    19398 ave 19398 max 19398 min
Histogram: 1 0 0 0 0 0 0 0 0 0
Neighs:    1.70816e+06 ave 1.70816e+06 max 1.70816e+06 min
Histogram: 1 0 0 0 0 0 0 0 0 0

Total # of neighbors = 1708164
Ave neighs/atom = 86.9206
Neighbor list builds = 495
Dangerous builds not checked
Setting up Verlet run ...
  Unit style    : metal
  Current step  : 46495
  Time step     : 0.001
Per MPI rank memory allocation (min/avg/max) = 19.72 | 19.72 | 19.72 Mbytes
Step Temp Press TotEng PotEng Enthalpy 
   46495    2261.7512   -1067.8701   -54165.238   -59910.292   -54357.396 
   48000    2262.2807    1783.2139   -54182.179   -59928.578   -53862.624 
Loop time of 236.884 on 1 procs for 1505 steps with 19652 atoms

Performance: 0.549 ns/day, 43.722 hours/ns, 6.353 timesteps/s
99.3% CPU use with 1 MPI tasks x no OpenMP threads

MPI task timing breakdown:
Section |  min time  |  avg time  |  max time  |%varavg| %total
---------------------------------------------------------------
Pair    | 127.5      | 127.5      | 127.5      |   0.0 | 53.82
Neigh   | 104.1      | 104.1      | 104.1      |   0.0 | 43.94
Comm    | 1.4637     | 1.4637     | 1.4637     |   0.0 |  0.62
Output  | 1.5992     | 1.5992     | 1.5992     |   0.0 |  0.68
Modify  | 1.7525     | 1.7525     | 1.7525     |   0.0 |  0.74
Other   |            | 0.4773     |            |       |  0.20

Nlocal:    19652 ave 19652 max 19652 min
Histogram: 1 0 0 0 0 0 0 0 0 0
Nghost:    19446 ave 19446 max 19446 min
Histogram: 1 0 0 0 0 0 0 0 0 0
Neighs:    1.71544e+06 ave 1.71544e+06 max 1.71544e+06 min
Histogram: 1 0 0 0 0 0 0 0 0 0

Total # of neighbors = 1715435
Ave neighs/atom = 87.2906
Neighbor list builds = 1505
Dangerous builds not checked
Setting up Verlet run ...
  Unit style    : metal
  Current step  : 48000
  Time step     : 0.001
Per MPI rank memory allocation (min/avg/max) = 19.72 | 19.72 | 19.72 Mbytes
Step Temp Press TotEng PotEng Enthalpy 
   48000    2262.2807    1783.2139   -54182.179   -59928.578   -53862.624 
   48495    2223.3899    150.35514   -54437.667    -60085.28   -54410.784 
Loop time of 78.7469 on 1 procs for 495 steps with 19652 atoms

Performance: 0.543 ns/day, 44.190 hours/ns, 6.286 timesteps/s
99.9% CPU use with 1 MPI tasks x no OpenMP threads

MPI task timing breakdown:
Section |  min time  |  avg time  |  max time  |%varavg| %total
---------------------------------------------------------------
Pair    | 42.759     | 42.759     | 42.759     |   0.0 | 54.30
Neigh   | 34.75      | 34.75      | 34.75      |   0.0 | 44.13
Comm    | 0.47897    | 0.47897    | 0.47897    |   0.0 |  0.61
Output  | 0.00018001 | 0.00018001 | 0.00018001 |   0.0 |  0.00
Modify  | 0.59708    | 0.59708    | 0.59708    |   0.0 |  0.76
Other   |            | 0.1615     |            |       |  0.21

Nlocal:    19652 ave 19652 max 19652 min
Histogram: 1 0 0 0 0 0 0 0 0 0
Nghost:    19408 ave 19408 max 19408 min
Histogram: 1 0 0 0 0 0 0 0 0 0
Neighs:    1.71865e+06 ave 1.71865e+06 max 1.71865e+06 min
Histogram: 1 0 0 0 0 0 0 0 0 0

Total # of neighbors = 1718649
Ave neighs/atom = 87.4542
Neighbor list builds = 495
Dangerous builds not checked
Setting up Verlet run ...
  Unit style    : metal
  Current step  : 48495
  Time step     : 0.001
Per MPI rank memory allocation (min/avg/max) = 19.72 | 19.72 | 19.72 Mbytes
Step Temp Press TotEng PotEng Enthalpy 
   48495    2223.3899    150.35514   -54437.667    -60085.28   -54410.784 
   50000    2188.9471    198.48669   -54510.779   -60070.904   -54475.306 
Loop time of 243.017 on 1 procs for 1505 steps with 19652 atoms

Performance: 0.535 ns/day, 44.854 hours/ns, 6.193 timesteps/s
99.8% CPU use with 1 MPI tasks x no OpenMP threads

MPI task timing breakdown:
Section |  min time  |  avg time  |  max time  |%varavg| %total
---------------------------------------------------------------
Pair    | 131.99     | 131.99     | 131.99     |   0.0 | 54.31
Neigh   | 106.96     | 106.96     | 106.96     |   0.0 | 44.01
Comm    | 1.5238     | 1.5238     | 1.5238     |   0.0 |  0.63
Output  | 0.22943    | 0.22943    | 0.22943    |   0.0 |  0.09
Modify  | 1.8217     | 1.8217     | 1.8217     |   0.0 |  0.75
Other   |            | 0.497      |            |       |  0.20

Nlocal:    19652 ave 19652 max 19652 min
Histogram: 1 0 0 0 0 0 0 0 0 0
Nghost:    19493 ave 19493 max 19493 min
Histogram: 1 0 0 0 0 0 0 0 0 0
Neighs:    1.71977e+06 ave 1.71977e+06 max 1.71977e+06 min
Histogram: 1 0 0 0 0 0 0 0 0 0

Total # of neighbors = 1719766
Ave neighs/atom = 87.511
Neighbor list builds = 1505
Dangerous builds not checked
Setting up Verlet run ...
  Unit style    : metal
  Current step  : 50000
  Time step     : 0.001
Per MPI rank memory allocation (min/avg/max) = 19.72 | 19.72 | 19.72 Mbytes
Step Temp Press TotEng PotEng Enthalpy 
   50000    2188.9471    198.48669   -54510.779   -60070.904   -54475.306 
   50495    2158.2166    1142.7937   -54750.085   -60232.152   -54547.028 
Loop time of 74.2466 on 1 procs for 495 steps with 19652 atoms

Performance: 0.576 ns/day, 41.665 hours/ns, 6.667 timesteps/s
100.0% CPU use with 1 MPI tasks x no OpenMP threads

MPI task timing breakdown:
Section |  min time  |  avg time  |  max time  |%varavg| %total
---------------------------------------------------------------
Pair    | 40.411     | 40.411     | 40.411     |   0.0 | 54.43
Neigh   | 32.656     | 32.656     | 32.656     |   0.0 | 43.98
Comm    | 0.46174    | 0.46174    | 0.46174    |   0.0 |  0.62
Output  | 0.00011992 | 0.00011992 | 0.00011992 |   0.0 |  0.00
Modify  | 0.56305    | 0.56305    | 0.56305    |   0.0 |  0.76
Other   |            | 0.155      |            |       |  0.21

Nlocal:    19652 ave 19652 max 19652 min
Histogram: 1 0 0 0 0 0 0 0 0 0
Nghost:    19489 ave 19489 max 19489 min
Histogram: 1 0 0 0 0 0 0 0 0 0
Neighs:    1.73018e+06 ave 1.73018e+06 max 1.73018e+06 min
Histogram: 1 0 0 0 0 0 0 0 0 0

Total # of neighbors = 1730175
Ave neighs/atom = 88.0407
Neighbor list builds = 495
Dangerous builds not checked
Setting up Verlet run ...
  Unit style    : metal
  Current step  : 50495
  Time step     : 0.001
Per MPI rank memory allocation (min/avg/max) = 19.72 | 19.72 | 19.72 Mbytes
Step Temp Press TotEng PotEng Enthalpy 
   50495    2158.2166    1142.7937   -54750.085   -60232.152   -54547.028 
   52000    2139.0362    1247.7478   -54821.841   -60255.188   -54600.275 
Loop time of 237.769 on 1 procs for 1505 steps with 19652 atoms

Performance: 0.547 ns/day, 43.885 hours/ns, 6.330 timesteps/s
99.7% CPU use with 1 MPI tasks x no OpenMP threads

MPI task timing breakdown:
Section |  min time  |  avg time  |  max time  |%varavg| %total
---------------------------------------------------------------
Pair    | 129.41     | 129.41     | 129.41     |   0.0 | 54.43
Neigh   | 104.34     | 104.34     | 104.34     |   0.0 | 43.88
Comm    | 1.4777     | 1.4777     | 1.4777     |   0.0 |  0.62
Output  | 0.26249    | 0.26249    | 0.26249    |   0.0 |  0.11
Modify  | 1.7902     | 1.7902     | 1.7902     |   0.0 |  0.75
Other   |            | 0.487      |            |       |  0.20

Nlocal:    19652 ave 19652 max 19652 min
Histogram: 1 0 0 0 0 0 0 0 0 0
Nghost:    19488 ave 19488 max 19488 min
Histogram: 1 0 0 0 0 0 0 0 0 0
Neighs:    1.73069e+06 ave 1.73069e+06 max 1.73069e+06 min
Histogram: 1 0 0 0 0 0 0 0 0 0

Total # of neighbors = 1730687
Ave neighs/atom = 88.0667
Neighbor list builds = 1505
Dangerous builds not checked
Setting up Verlet run ...
  Unit style    : metal
  Current step  : 52000
  Time step     : 0.001
Per MPI rank memory allocation (min/avg/max) = 19.72 | 19.72 | 19.72 Mbytes
Step Temp Press TotEng PotEng Enthalpy 
   52000    2139.0362    1247.7478   -54821.841   -60255.188   -54600.275 
   52495    2113.1621    1291.3965   -55012.441   -60380.066   -54783.877 
Loop time of 80.2737 on 1 procs for 495 steps with 19652 atoms

Performance: 0.533 ns/day, 45.047 hours/ns, 6.166 timesteps/s
99.7% CPU use with 1 MPI tasks x no OpenMP threads

MPI task timing breakdown:
Section |  min time  |  avg time  |  max time  |%varavg| %total
---------------------------------------------------------------
Pair    | 43.991     | 43.991     | 43.991     |   0.0 | 54.80
Neigh   | 35.007     | 35.007     | 35.007     |   0.0 | 43.61
Comm    | 0.49993    | 0.49993    | 0.49993    |   0.0 |  0.62
Output  | 0.00013399 | 0.00013399 | 0.00013399 |   0.0 |  0.00
Modify  | 0.61098    | 0.61098    | 0.61098    |   0.0 |  0.76
Other   |            | 0.1645     |            |       |  0.20

Nlocal:    19652 ave 19652 max 19652 min
Histogram: 1 0 0 0 0 0 0 0 0 0
Nghost:    19531 ave 19531 max 19531 min
Histogram: 1 0 0 0 0 0 0 0 0 0
Neighs:    1.73626e+06 ave 1.73626e+06 max 1.73626e+06 min
Histogram: 1 0 0 0 0 0 0 0 0 0

Total # of neighbors = 1736261
Ave neighs/atom = 88.3503
Neighbor list builds = 495
Dangerous builds not checked
Setting up Verlet run ...
  Unit style    : metal
  Current step  : 52495
  Time step     : 0.001
Per MPI rank memory allocation (min/avg/max) = 19.72 | 19.72 | 19.72 Mbytes
Step Temp Press TotEng PotEng Enthalpy 
   52495    2113.1621    1291.3965   -55012.441   -60380.066   -54783.877 
   54000    2118.8916     621.7525   -55030.469   -60412.647   -54920.534 
Loop time of 224.484 on 1 procs for 1505 steps with 19652 atoms

Performance: 0.579 ns/day, 41.433 hours/ns, 6.704 timesteps/s
99.7% CPU use with 1 MPI tasks x no OpenMP threads

MPI task timing breakdown:
Section |  min time  |  avg time  |  max time  |%varavg| %total
---------------------------------------------------------------
Pair    | 121.97     | 121.97     | 121.97     |   0.0 | 54.34
Neigh   | 98.807     | 98.807     | 98.807     |   0.0 | 44.02
Comm    | 1.3797     | 1.3797     | 1.3797     |   0.0 |  0.61
Output  | 0.20577    | 0.20577    | 0.20577    |   0.0 |  0.09
Modify  | 1.6589     | 1.6589     | 1.6589     |   0.0 |  0.74
Other   |            | 0.458      |            |       |  0.20

Nlocal:    19652 ave 19652 max 19652 min
Histogram: 1 0 0 0 0 0 0 0 0 0
Nghost:    19584 ave 19584 max 19584 min
Histogram: 1 0 0 0 0 0 0 0 0 0
Neighs:    1.73826e+06 ave 1.73826e+06 max 1.73826e+06 min
Histogram: 1 0 0 0 0 0 0 0 0 0

Total # of neighbors = 1738262
Ave neighs/atom = 88.4522
Neighbor list builds = 1505
Dangerous builds not checked
Setting up Verlet run ...
  Unit style    : metal
  Current step  : 54000
  Time step     : 0.001
Per MPI rank memory allocation (min/avg/max) = 19.72 | 19.72 | 19.72 Mbytes
Step Temp Press TotEng PotEng Enthalpy 
   54000    2118.8916     621.7525   -55030.469   -60412.647   -54920.534 
   54495    2072.5472   -60.928024   -55260.728   -60525.187   -55271.473 
Loop time of 72.4099 on 1 procs for 495 steps with 19652 atoms

Performance: 0.591 ns/day, 40.634 hours/ns, 6.836 timesteps/s
100.0% CPU use with 1 MPI tasks x no OpenMP threads

MPI task timing breakdown:
Section |  min time  |  avg time  |  max time  |%varavg| %total
---------------------------------------------------------------
Pair    | 39.303     | 39.303     | 39.303     |   0.0 | 54.28
Neigh   | 31.946     | 31.946     | 31.946     |   0.0 | 44.12
Comm    | 0.45251    | 0.45251    | 0.45251    |   0.0 |  0.62
Output  | 0.00013089 | 0.00013089 | 0.00013089 |   0.0 |  0.00
Modify  | 0.55182    | 0.55182    | 0.55182    |   0.0 |  0.76
Other   |            | 0.156      |            |       |  0.22

Nlocal:    19652 ave 19652 max 19652 min
Histogram: 1 0 0 0 0 0 0 0 0 0
Nghost:    19502 ave 19502 max 19502 min
Histogram: 1 0 0 0 0 0 0 0 0 0
Neighs:    1.74205e+06 ave 1.74205e+06 max 1.74205e+06 min
Histogram: 1 0 0 0 0 0 0 0 0 0

Total # of neighbors = 1742046
Ave neighs/atom = 88.6447
Neighbor list builds = 495
Dangerous builds not checked
Setting up Verlet run ...
  Unit style    : metal
  Current step  : 54495
  Time step     : 0.001
Per MPI rank memory allocation (min/avg/max) = 19.72 | 19.72 | 19.72 Mbytes
Step Temp Press TotEng PotEng Enthalpy 
   54495    2072.5472   -60.928024   -55260.728   -60525.187   -55271.473 
   56000    2041.9146    808.41019   -55436.631    -60623.28   -55294.536 
Loop time of 245.334 on 1 procs for 1505 steps with 19652 atoms

Performance: 0.530 ns/day, 45.281 hours/ns, 6.134 timesteps/s
99.8% CPU use with 1 MPI tasks x no OpenMP threads

MPI task timing breakdown:
Section |  min time  |  avg time  |  max time  |%varavg| %total
---------------------------------------------------------------
Pair    | 134.34     | 134.34     | 134.34     |   0.0 | 54.76
Neigh   | 106.72     | 106.72     | 106.72     |   0.0 | 43.50
Comm    | 1.5148     | 1.5148     | 1.5148     |   0.0 |  0.62
Output  | 0.42284    | 0.42284    | 0.42284    |   0.0 |  0.17
Modify  | 1.8314     | 1.8314     | 1.8314     |   0.0 |  0.75
Other   |            | 0.505      |            |       |  0.21

Nlocal:    19652 ave 19652 max 19652 min
Histogram: 1 0 0 0 0 0 0 0 0 0
Nghost:    19548 ave 19548 max 19548 min
Histogram: 1 0 0 0 0 0 0 0 0 0
Neighs:    1.74812e+06 ave 1.74812e+06 max 1.74812e+06 min
Histogram: 1 0 0 0 0 0 0 0 0 0

Total # of neighbors = 1748119
Ave neighs/atom = 88.9537
Neighbor list builds = 1505
Dangerous builds not checked
Setting up Verlet run ...
  Unit style    : metal
  Current step  : 56000
  Time step     : 0.001
Per MPI rank memory allocation (min/avg/max) = 19.72 | 19.72 | 19.72 Mbytes
Step Temp Press TotEng PotEng Enthalpy 
   56000    2041.9146    808.41019   -55436.631    -60623.28   -55294.536 
   56495    2017.3239    698.60731   -55579.953   -60704.139   -55457.424 
Loop time of 79.9845 on 1 procs for 495 steps with 19652 atoms

Performance: 0.535 ns/day, 44.885 hours/ns, 6.189 timesteps/s
99.9% CPU use with 1 MPI tasks x no OpenMP threads

MPI task timing breakdown:
Section |  min time  |  avg time  |  max time  |%varavg| %total
---------------------------------------------------------------
Pair    | 43.911     | 43.911     | 43.911     |   0.0 | 54.90
Neigh   | 34.814     | 34.814     | 34.814     |   0.0 | 43.53
Comm    | 0.48652    | 0.48652    | 0.48652    |   0.0 |  0.61
Output  | 0.00013494 | 0.00013494 | 0.00013494 |   0.0 |  0.00
Modify  | 0.60756    | 0.60756    | 0.60756    |   0.0 |  0.76
Other   |            | 0.1656     |            |       |  0.21

Nlocal:    19652 ave 19652 max 19652 min
Histogram: 1 0 0 0 0 0 0 0 0 0
Nghost:    19606 ave 19606 max 19606 min
Histogram: 1 0 0 0 0 0 0 0 0 0
Neighs:    1.75179e+06 ave 1.75179e+06 max 1.75179e+06 min
Histogram: 1 0 0 0 0 0 0 0 0 0

Total # of neighbors = 1751794
Ave neighs/atom = 89.1407
Neighbor list builds = 495
Dangerous builds not checked
Setting up Verlet run ...
  Unit style    : metal
  Current step  : 56495
  Time step     : 0.001
Per MPI rank memory allocation (min/avg/max) = 19.72 | 19.72 | 19.72 Mbytes
Step Temp Press TotEng PotEng Enthalpy 
   56495    2017.3239    698.60731   -55579.953   -60704.139   -55457.424 
   58000    1982.0949   -1457.2985   -55701.517   -60736.218   -55957.247 
Loop time of 242.091 on 1 procs for 1505 steps with 19652 atoms

Performance: 0.537 ns/day, 44.683 hours/ns, 6.217 timesteps/s
98.6% CPU use with 1 MPI tasks x no OpenMP threads

MPI task timing breakdown:
Section |  min time  |  avg time  |  max time  |%varavg| %total
---------------------------------------------------------------
Pair    | 130.84     | 130.84     | 130.84     |   0.0 | 54.04
Neigh   | 104.21     | 104.21     | 104.21     |   0.0 | 43.05
Comm    | 1.4743     | 1.4743     | 1.4743     |   0.0 |  0.61
Output  | 3.3003     | 3.3003     | 3.3003     |   0.0 |  1.36
Modify  | 1.7788     | 1.7788     | 1.7788     |   0.0 |  0.73
Other   |            | 0.4877     |            |       |  0.20

Nlocal:    19652 ave 19652 max 19652 min
Histogram: 1 0 0 0 0 0 0 0 0 0
Nghost:    19591 ave 19591 max 19591 min
Histogram: 1 0 0 0 0 0 0 0 0 0
Neighs:    1.75057e+06 ave 1.75057e+06 max 1.75057e+06 min
Histogram: 1 0 0 0 0 0 0 0 0 0

Total # of neighbors = 1750573
Ave neighs/atom = 89.0786
Neighbor list builds = 1505
Dangerous builds not checked
Setting up Verlet run ...
  Unit style    : metal
  Current step  : 58000
  Time step     : 0.001
Per MPI rank memory allocation (min/avg/max) = 19.72 | 19.72 | 19.72 Mbytes
Step Temp Press TotEng PotEng Enthalpy 
   58000    1982.0949   -1457.2985   -55701.517   -60736.218   -55957.247 
   58495    1950.8916   -814.87507   -55833.104   -60788.547   -55975.829 
Loop time of 75.3557 on 1 procs for 495 steps with 19652 atoms

Performance: 0.568 ns/day, 42.287 hours/ns, 6.569 timesteps/s
100.0% CPU use with 1 MPI tasks x no OpenMP threads

MPI task timing breakdown:
Section |  min time  |  avg time  |  max time  |%varavg| %total
---------------------------------------------------------------
Pair    | 41.107     | 41.107     | 41.107     |   0.0 | 54.55
Neigh   | 33.044     | 33.044     | 33.044     |   0.0 | 43.85
Comm    | 0.47053    | 0.47053    | 0.47053    |   0.0 |  0.62
Output  | 0.00012207 | 0.00012207 | 0.00012207 |   0.0 |  0.00
Modify  | 0.57554    | 0.57554    | 0.57554    |   0.0 |  0.76
Other   |            | 0.1582     |            |       |  0.21

Nlocal:    19652 ave 19652 max 19652 min
Histogram: 1 0 0 0 0 0 0 0 0 0
Nghost:    19616 ave 19616 max 19616 min
Histogram: 1 0 0 0 0 0 0 0 0 0
Neighs:    1.75381e+06 ave 1.75381e+06 max 1.75381e+06 min
Histogram: 1 0 0 0 0 0 0 0 0 0

Total # of neighbors = 1753809
Ave neighs/atom = 89.2433
Neighbor list builds = 495
Dangerous builds not checked
Setting up Verlet run ...
  Unit style    : metal
  Current step  : 58495
  Time step     : 0.001
Per MPI rank memory allocation (min/avg/max) = 19.72 | 19.72 | 19.72 Mbytes
Step Temp Press TotEng PotEng Enthalpy 
   58495    1950.8916   -814.87507   -55833.104   -60788.547   -55975.829 
   60000    1948.5621    260.40385   -56030.341   -60979.866   -55985.038 
Loop time of 240.109 on 1 procs for 1505 steps with 19652 atoms

Performance: 0.542 ns/day, 44.317 hours/ns, 6.268 timesteps/s
98.7% CPU use with 1 MPI tasks x no OpenMP threads

MPI task timing breakdown:
Section |  min time  |  avg time  |  max time  |%varavg| %total
---------------------------------------------------------------
Pair    | 130.22     | 130.22     | 130.22     |   0.0 | 54.23
Neigh   | 103.82     | 103.82     | 103.82     |   0.0 | 43.24
Comm    | 1.4967     | 1.4967     | 1.4967     |   0.0 |  0.62
Output  | 2.2491     | 2.2491     | 2.2491     |   0.0 |  0.94
Modify  | 1.7746     | 1.7746     | 1.7746     |   0.0 |  0.74
Other   |            | 0.5454     |            |       |  0.23

Nlocal:    19652 ave 19652 max 19652 min
Histogram: 1 0 0 0 0 0 0 0 0 0
Nghost:    19635 ave 19635 max 19635 min
Histogram: 1 0 0 0 0 0 0 0 0 0
Neighs:    1.76534e+06 ave 1.76534e+06 max 1.76534e+06 min
Histogram: 1 0 0 0 0 0 0 0 0 0

Total # of neighbors = 1765338
Ave neighs/atom = 89.8299
Neighbor list builds = 1505
Dangerous builds not checked
Setting up Verlet run ...
  Unit style    : metal
  Current step  : 60000
  Time step     : 0.001
Per MPI rank memory allocation (min/avg/max) = 19.72 | 19.72 | 19.72 Mbytes
Step Temp Press TotEng PotEng Enthalpy 
   60000    1948.5621    260.40385   -56030.341   -60979.866   -55985.038 
   60495    1911.6118    287.42576   -56162.824   -61018.492   -56112.873 
Loop time of 76.3512 on 1 procs for 495 steps with 19652 atoms

Performance: 0.560 ns/day, 42.846 hours/ns, 6.483 timesteps/s
99.6% CPU use with 1 MPI tasks x no OpenMP threads

MPI task timing breakdown:
Section |  min time  |  avg time  |  max time  |%varavg| %total
---------------------------------------------------------------
Pair    | 41.896     | 41.896     | 41.896     |   0.0 | 54.87
Neigh   | 33.195     | 33.195     | 33.195     |   0.0 | 43.48
Comm    | 0.49403    | 0.49403    | 0.49403    |   0.0 |  0.65
Output  | 0.00015497 | 0.00015497 | 0.00015497 |   0.0 |  0.00
Modify  | 0.58638    | 0.58638    | 0.58638    |   0.0 |  0.77
Other   |            | 0.1795     |            |       |  0.24

Nlocal:    19652 ave 19652 max 19652 min
Histogram: 1 0 0 0 0 0 0 0 0 0
Nghost:    19679 ave 19679 max 19679 min
Histogram: 1 0 0 0 0 0 0 0 0 0
Neighs:    1.76722e+06 ave 1.76722e+06 max 1.76722e+06 min
Histogram: 1 0 0 0 0 0 0 0 0 0

Total # of neighbors = 1767222
Ave neighs/atom = 89.9258
Neighbor list builds = 495
Dangerous builds not checked
Setting up Verlet run ...
  Unit style    : metal
  Current step  : 60495
  Time step     : 0.001
Per MPI rank memory allocation (min/avg/max) = 19.72 | 19.72 | 19.72 Mbytes
Step Temp Press TotEng PotEng Enthalpy 
   60495    1911.6118    287.42576   -56162.824   -61018.492   -56112.873 
   62000    1909.3779   -627.52174   -56208.495   -61058.489   -56317.541 
Loop time of 249.061 on 1 procs for 1505 steps with 19652 atoms

Performance: 0.522 ns/day, 45.969 hours/ns, 6.043 timesteps/s
99.5% CPU use with 1 MPI tasks x no OpenMP threads

MPI task timing breakdown:
Section |  min time  |  avg time  |  max time  |%varavg| %total
---------------------------------------------------------------
Pair    | 137.31     | 137.31     | 137.31     |   0.0 | 55.13
Neigh   | 107.32     | 107.32     | 107.32     |   0.0 | 43.09
Comm    | 1.6387     | 1.6387     | 1.6387     |   0.0 |  0.66
Output  | 0.30849    | 0.30849    | 0.30849    |   0.0 |  0.12
Modify  | 1.9085     | 1.9085     | 1.9085     |   0.0 |  0.77
Other   |            | 0.5766     |            |       |  0.23

Nlocal:    19652 ave 19652 max 19652 min
Histogram: 1 0 0 0 0 0 0 0 0 0
Nghost:    19722 ave 19722 max 19722 min
Histogram: 1 0 0 0 0 0 0 0 0 0
Neighs:    1.76739e+06 ave 1.76739e+06 max 1.76739e+06 min
Histogram: 1 0 0 0 0 0 0 0 0 0

Total # of neighbors = 1767393
Ave neighs/atom = 89.9345
Neighbor list builds = 1505
Dangerous builds not checked
Setting up Verlet run ...
  Unit style    : metal
  Current step  : 62000
  Time step     : 0.001
Per MPI rank memory allocation (min/avg/max) = 19.72 | 19.72 | 19.72 Mbytes
Step Temp Press TotEng PotEng Enthalpy 
   62000    1909.3779   -627.52174   -56208.495   -61058.489   -56317.541 
   62495    1856.7625   -110.34477    -56468.26   -61184.605    -56487.36 
Loop time of 75.9514 on 1 procs for 495 steps with 19652 atoms

Performance: 0.563 ns/day, 42.621 hours/ns, 6.517 timesteps/s
99.8% CPU use with 1 MPI tasks x no OpenMP threads

MPI task timing breakdown:
Section |  min time  |  avg time  |  max time  |%varavg| %total
---------------------------------------------------------------
Pair    | 41.526     | 41.526     | 41.526     |   0.0 | 54.67
Neigh   | 33.179     | 33.179     | 33.179     |   0.0 | 43.69
Comm    | 0.48449    | 0.48449    | 0.48449    |   0.0 |  0.64
Output  | 0.00011611 | 0.00011611 | 0.00011611 |   0.0 |  0.00
Modify  | 0.57998    | 0.57998    | 0.57998    |   0.0 |  0.76
Other   |            | 0.1813     |            |       |  0.24

Nlocal:    19652 ave 19652 max 19652 min
Histogram: 1 0 0 0 0 0 0 0 0 0
Nghost:    19784 ave 19784 max 19784 min
Histogram: 1 0 0 0 0 0 0 0 0 0
Neighs:    1.77367e+06 ave 1.77367e+06 max 1.77367e+06 min
Histogram: 1 0 0 0 0 0 0 0 0 0

Total # of neighbors = 1773668
Ave neighs/atom = 90.2538
Neighbor list builds = 495
Dangerous builds not checked
Setting up Verlet run ...
  Unit style    : metal
  Current step  : 62495
  Time step     : 0.001
Per MPI rank memory allocation (min/avg/max) = 19.72 | 19.72 | 19.72 Mbytes
Step Temp Press TotEng PotEng Enthalpy 
   62495    1856.7625   -110.34477    -56468.26   -61184.605    -56487.36 
   64000    1845.6523    409.77346   -56521.265    -61209.39   -56450.425 
Loop time of 230.517 on 1 procs for 1505 steps with 19652 atoms

Performance: 0.564 ns/day, 42.547 hours/ns, 6.529 timesteps/s
98.7% CPU use with 1 MPI tasks x no OpenMP threads

MPI task timing breakdown:
Section |  min time  |  avg time  |  max time  |%varavg| %total
---------------------------------------------------------------
Pair    | 125.3      | 125.3      | 125.3      |   0.0 | 54.35
Neigh   | 99.482     | 99.482     | 99.482     |   0.0 | 43.16
Comm    | 1.484      | 1.484      | 1.484      |   0.0 |  0.64
Output  | 1.9563     | 1.9563     | 1.9563     |   0.0 |  0.85
Modify  | 1.7542     | 1.7542     | 1.7542     |   0.0 |  0.76
Other   |            | 0.5434     |            |       |  0.24

Nlocal:    19652 ave 19652 max 19652 min
Histogram: 1 0 0 0 0 0 0 0 0 0
Nghost:    19757 ave 19757 max 19757 min
Histogram: 1 0 0 0 0 0 0 0 0 0
Neighs:    1.7756e+06 ave 1.7756e+06 max 1.7756e+06 min
Histogram: 1 0 0 0 0 0 0 0 0 0

Total # of neighbors = 1775602
Ave neighs/atom = 90.3522
Neighbor list builds = 1505
Dangerous builds not checked
Setting up Verlet run ...
  Unit style    : metal
  Current step  : 64000
  Time step     : 0.001
Per MPI rank memory allocation (min/avg/max) = 19.72 | 19.72 | 19.72 Mbytes
Step Temp Press TotEng PotEng Enthalpy 
   64000    1845.6523    409.77346   -56521.265    -61209.39   -56450.425 
   64495    1820.0403   -226.37185   -56740.329   -61363.397   -56779.313 
Loop time of 71.3813 on 1 procs for 495 steps with 19652 atoms

Performance: 0.599 ns/day, 40.057 hours/ns, 6.935 timesteps/s
99.6% CPU use with 1 MPI tasks x no OpenMP threads

MPI task timing breakdown:
Section |  min time  |  avg time  |  max time  |%varavg| %total
---------------------------------------------------------------
Pair    | 38.453     | 38.453     | 38.453     |   0.0 | 53.87
Neigh   | 31.53      | 31.53      | 31.53      |   0.0 | 44.17
Comm    | 0.44799    | 0.44799    | 0.44799    |   0.0 |  0.63
Output  | 0.2269     | 0.2269     | 0.2269     |   0.0 |  0.32
Modify  | 0.54618    | 0.54618    | 0.54618    |   0.0 |  0.77
Other   |            | 0.177      |            |       |  0.25

Nlocal:    19652 ave 19652 max 19652 min
Histogram: 1 0 0 0 0 0 0 0 0 0
Nghost:    19765 ave 19765 max 19765 min
Histogram: 1 0 0 0 0 0 0 0 0 0
Neighs:    1.78233e+06 ave 1.78233e+06 max 1.78233e+06 min
Histogram: 1 0 0 0 0 0 0 0 0 0

Total # of neighbors = 1782330
Ave neighs/atom = 90.6946
Neighbor list builds = 495
Dangerous builds not checked
Setting up Verlet run ...
  Unit style    : metal
  Current step  : 64495
  Time step     : 0.001
Per MPI rank memory allocation (min/avg/max) = 19.72 | 19.72 | 19.72 Mbytes
Step Temp Press TotEng PotEng Enthalpy 
   64495    1820.0403   -226.37185   -56740.329   -61363.397   -56779.313 
   66000    1792.9595   -242.78568   -56798.818   -61353.099   -56840.622 
Loop time of 219.189 on 1 procs for 1505 steps with 19652 atoms

Performance: 0.593 ns/day, 40.456 hours/ns, 6.866 timesteps/s
99.9% CPU use with 1 MPI tasks x no OpenMP threads

MPI task timing breakdown:
Section |  min time  |  avg time  |  max time  |%varavg| %total
---------------------------------------------------------------
Pair    | 119.26     | 119.26     | 119.26     |   0.0 | 54.41
Neigh   | 96.34      | 96.34      | 96.34      |   0.0 | 43.95
Comm    | 1.3598     | 1.3598     | 1.3598     |   0.0 |  0.62
Output  | 0.13676    | 0.13676    | 0.13676    |   0.0 |  0.06
Modify  | 1.6374     | 1.6374     | 1.6374     |   0.0 |  0.75
Other   |            | 0.4562     |            |       |  0.21

Nlocal:    19652 ave 19652 max 19652 min
Histogram: 1 0 0 0 0 0 0 0 0 0
Nghost:    19755 ave 19755 max 19755 min
Histogram: 1 0 0 0 0 0 0 0 0 0
Neighs:    1.78311e+06 ave 1.78311e+06 max 1.78311e+06 min
Histogram: 1 0 0 0 0 0 0 0 0 0

Total # of neighbors = 1783108
Ave neighs/atom = 90.7342
Neighbor list builds = 1505
Dangerous builds not checked
Setting up Verlet run ...
  Unit style    : metal
  Current step  : 66000
  Time step     : 0.001
Per MPI rank memory allocation (min/avg/max) = 19.72 | 19.72 | 19.72 Mbytes
Step Temp Press TotEng PotEng Enthalpy 
   66000    1792.9595   -242.78568   -56798.818   -61353.099   -56840.622 
   66495    1775.5086   -369.60082   -57047.265   -61557.219   -57110.561 
Loop time of 69.6304 on 1 procs for 495 steps with 19652 atoms

Performance: 0.614 ns/day, 39.074 hours/ns, 7.109 timesteps/s
100.0% CPU use with 1 MPI tasks x no OpenMP threads

MPI task timing breakdown:
Section |  min time  |  avg time  |  max time  |%varavg| %total
---------------------------------------------------------------
Pair    | 37.802     | 37.802     | 37.802     |   0.0 | 54.29
Neigh   | 30.727     | 30.727     | 30.727     |   0.0 | 44.13
Comm    | 0.42663    | 0.42663    | 0.42663    |   0.0 |  0.61
Output  | 0.00015807 | 0.00015807 | 0.00015807 |   0.0 |  0.00
Modify  | 0.52633    | 0.52633    | 0.52633    |   0.0 |  0.76
Other   |            | 0.1482     |            |       |  0.21

Nlocal:    19652 ave 19652 max 19652 min
Histogram: 1 0 0 0 0 0 0 0 0 0
Nghost:    19910 ave 19910 max 19910 min
Histogram: 1 0 0 0 0 0 0 0 0 0
Neighs:    1.79281e+06 ave 1.79281e+06 max 1.79281e+06 min
Histogram: 1 0 0 0 0 0 0 0 0 0

Total # of neighbors = 1792809
Ave neighs/atom = 91.2278
Neighbor list builds = 495
Dangerous builds not checked
Setting up Verlet run ...
  Unit style    : metal
  Current step  : 66495
  Time step     : 0.001
Per MPI rank memory allocation (min/avg/max) = 19.72 | 19.72 | 19.72 Mbytes
Step Temp Press TotEng PotEng Enthalpy 
   66495    1775.5086   -369.60082   -57047.265   -61557.219   -57110.561 
   68000     1739.992    193.99542   -57152.862   -61572.601   -57119.655 
Loop time of 220.342 on 1 procs for 1505 steps with 19652 atoms

Performance: 0.590 ns/day, 40.668 hours/ns, 6.830 timesteps/s
99.8% CPU use with 1 MPI tasks x no OpenMP threads

MPI task timing breakdown:
Section |  min time  |  avg time  |  max time  |%varavg| %total
---------------------------------------------------------------
Pair    | 120.33     | 120.33     | 120.33     |   0.0 | 54.61
Neigh   | 96.25      | 96.25      | 96.25      |   0.0 | 43.68
Comm    | 1.3486     | 1.3486     | 1.3486     |   0.0 |  0.61
Output  | 0.32077    | 0.32077    | 0.32077    |   0.0 |  0.15
Modify  | 1.6404     | 1.6404     | 1.6404     |   0.0 |  0.74
Other   |            | 0.4556     |            |       |  0.21

Nlocal:    19652 ave 19652 max 19652 min
Histogram: 1 0 0 0 0 0 0 0 0 0
Nghost:    19834 ave 19834 max 19834 min
Histogram: 1 0 0 0 0 0 0 0 0 0
Neighs:    1.79285e+06 ave 1.79285e+06 max 1.79285e+06 min
Histogram: 1 0 0 0 0 0 0 0 0 0

Total # of neighbors = 1792852
Ave neighs/atom = 91.23
Neighbor list builds = 1505
Dangerous builds not checked
Setting up Verlet run ...
  Unit style    : metal
  Current step  : 68000
  Time step     : 0.001
Per MPI rank memory allocation (min/avg/max) = 19.72 | 19.72 | 19.72 Mbytes
Step Temp Press TotEng PotEng Enthalpy 
   68000     1739.992    193.99542   -57152.862   -61572.601   -57119.655 
   68495    1719.4093    156.00187    -57331.34   -61698.796   -57304.734 
Loop time of 80.8586 on 1 procs for 495 steps with 19652 atoms

Performance: 0.529 ns/day, 45.375 hours/ns, 6.122 timesteps/s
99.9% CPU use with 1 MPI tasks x no OpenMP threads

MPI task timing breakdown:
Section |  min time  |  avg time  |  max time  |%varavg| %total
---------------------------------------------------------------
Pair    | 44.512     | 44.512     | 44.512     |   0.0 | 55.05
Neigh   | 35.049     | 35.049     | 35.049     |   0.0 | 43.35
Comm    | 0.49645    | 0.49645    | 0.49645    |   0.0 |  0.61
Output  | 0.00016189 | 0.00016189 | 0.00016189 |   0.0 |  0.00
Modify  | 0.63023    | 0.63023    | 0.63023    |   0.0 |  0.78
Other   |            | 0.1708     |            |       |  0.21

Nlocal:    19652 ave 19652 max 19652 min
Histogram: 1 0 0 0 0 0 0 0 0 0
Nghost:    19890 ave 19890 max 19890 min
Histogram: 1 0 0 0 0 0 0 0 0 0
Neighs:    1.79922e+06 ave 1.79922e+06 max 1.79922e+06 min
Histogram: 1 0 0 0 0 0 0 0 0 0

Total # of neighbors = 1799217
Ave neighs/atom = 91.5539
Neighbor list builds = 495
Dangerous builds not checked
Setting up Verlet run ...
  Unit style    : metal
  Current step  : 68495
  Time step     : 0.001
Per MPI rank memory allocation (min/avg/max) = 19.72 | 19.72 | 19.72 Mbytes
Step Temp Press TotEng PotEng Enthalpy 
   68495    1719.4093    156.00187    -57331.34   -61698.796   -57304.734 
   70000    1693.2296   -630.12932   -57429.747   -61730.704   -57537.093 
Loop time of 230.915 on 1 procs for 1505 steps with 19652 atoms

Performance: 0.563 ns/day, 42.620 hours/ns, 6.518 timesteps/s
99.8% CPU use with 1 MPI tasks x no OpenMP threads

MPI task timing breakdown:
Section |  min time  |  avg time  |  max time  |%varavg| %total
---------------------------------------------------------------
Pair    | 126.84     | 126.84     | 126.84     |   0.0 | 54.93
Neigh   | 100.2      | 100.2      | 100.2      |   0.0 | 43.39
Comm    | 1.4403     | 1.4403     | 1.4403     |   0.0 |  0.62
Output  | 0.17263    | 0.17263    | 0.17263    |   0.0 |  0.07
Modify  | 1.7394     | 1.7394     | 1.7394     |   0.0 |  0.75
Other   |            | 0.5214     |            |       |  0.23

Nlocal:    19652 ave 19652 max 19652 min
Histogram: 1 0 0 0 0 0 0 0 0 0
Nghost:    19852 ave 19852 max 19852 min
Histogram: 1 0 0 0 0 0 0 0 0 0
Neighs:    1.80238e+06 ave 1.80238e+06 max 1.80238e+06 min
Histogram: 1 0 0 0 0 0 0 0 0 0

Total # of neighbors = 1802375
Ave neighs/atom = 91.7146
Neighbor list builds = 1505
Dangerous builds not checked
Setting up Verlet run ...
  Unit style    : metal
  Current step  : 70000
  Time step     : 0.001
Per MPI rank memory allocation (min/avg/max) = 19.72 | 19.72 | 19.72 Mbytes
Step Temp Press TotEng PotEng Enthalpy 
   70000    1693.2296   -630.12932   -57429.747   -61730.704   -57537.093 
   70495    1661.4763   -929.50625   -57647.722   -61868.023   -57805.651 
Loop time of 68.8275 on 1 procs for 495 steps with 19652 atoms

Performance: 0.621 ns/day, 38.624 hours/ns, 7.192 timesteps/s
100.0% CPU use with 1 MPI tasks x no OpenMP threads

MPI task timing breakdown:
Section |  min time  |  avg time  |  max time  |%varavg| %total
---------------------------------------------------------------
Pair    | 37.511     | 37.511     | 37.511     |   0.0 | 54.50
Neigh   | 30.194     | 30.194     | 30.194     |   0.0 | 43.87
Comm    | 0.43637    | 0.43637    | 0.43637    |   0.0 |  0.63
Output  | 0.00015497 | 0.00015497 | 0.00015497 |   0.0 |  0.00
Modify  | 0.52087    | 0.52087    | 0.52087    |   0.0 |  0.76
Other   |            | 0.1648     |            |       |  0.24

Nlocal:    19652 ave 19652 max 19652 min
Histogram: 1 0 0 0 0 0 0 0 0 0
Nghost:    19803 ave 19803 max 19803 min
Histogram: 1 0 0 0 0 0 0 0 0 0
Neighs:    1.8056e+06 ave 1.8056e+06 max 1.8056e+06 min
Histogram: 1 0 0 0 0 0 0 0 0 0

Total # of neighbors = 1805597
Ave neighs/atom = 91.8785
Neighbor list builds = 495
Dangerous builds not checked
Setting up Verlet run ...
  Unit style    : metal
  Current step  : 70495
  Time step     : 0.001
Per MPI rank memory allocation (min/avg/max) = 19.72 | 19.72 | 19.72 Mbytes
Step Temp Press TotEng PotEng Enthalpy 
   70495    1661.4763   -929.50625   -57647.722   -61868.023   -57805.651 
   72000    1661.1157   -73.789929   -57707.863   -61927.248   -57720.365 
Loop time of 236.28 on 1 procs for 1505 steps with 19652 atoms

Performance: 0.550 ns/day, 43.610 hours/ns, 6.370 timesteps/s
99.5% CPU use with 1 MPI tasks x no OpenMP threads

MPI task timing breakdown:
Section |  min time  |  avg time  |  max time  |%varavg| %total
---------------------------------------------------------------
Pair    | 130.55     | 130.55     | 130.55     |   0.0 | 55.25
Neigh   | 101.68     | 101.68     | 101.68     |   0.0 | 43.04
Comm    | 1.5226     | 1.5226     | 1.5226     |   0.0 |  0.64
Output  | 0.26335    | 0.26335    | 0.26335    |   0.0 |  0.11
Modify  | 1.7356     | 1.7356     | 1.7356     |   0.0 |  0.73
Other   |            | 0.5262     |            |       |  0.22

Nlocal:    19652 ave 19652 max 19652 min
Histogram: 1 0 0 0 0 0 0 0 0 0
Nghost:    19895 ave 19895 max 19895 min
Histogram: 1 0 0 0 0 0 0 0 0 0
Neighs:    1.81145e+06 ave 1.81145e+06 max 1.81145e+06 min
Histogram: 1 0 0 0 0 0 0 0 0 0

Total # of neighbors = 1811454
Ave neighs/atom = 92.1766
Neighbor list builds = 1505
Dangerous builds not checked
Setting up Verlet run ...
  Unit style    : metal
  Current step  : 72000
  Time step     : 0.001
Per MPI rank memory allocation (min/avg/max) = 19.72 | 19.72 | 19.72 Mbytes
Step Temp Press TotEng PotEng Enthalpy 
   72000    1661.1157   -73.789929   -57707.863   -61927.248   -57720.365 
   72495    1613.9407    624.26926   -57912.188   -62011.744   -57806.732 
Loop time of 72.8897 on 1 procs for 495 steps with 19652 atoms

Performance: 0.587 ns/day, 40.903 hours/ns, 6.791 timesteps/s
99.8% CPU use with 1 MPI tasks x no OpenMP threads

MPI task timing breakdown:
Section |  min time  |  avg time  |  max time  |%varavg| %total
---------------------------------------------------------------
Pair    | 40.054     | 40.054     | 40.054     |   0.0 | 54.95
Neigh   | 31.651     | 31.651     | 31.651     |   0.0 | 43.42
Comm    | 0.46049    | 0.46049    | 0.46049    |   0.0 |  0.63
Output  | 0.00020003 | 0.00020003 | 0.00020003 |   0.0 |  0.00
Modify  | 0.55306    | 0.55306    | 0.55306    |   0.0 |  0.76
Other   |            | 0.1712     |            |       |  0.23

Nlocal:    19652 ave 19652 max 19652 min
Histogram: 1 0 0 0 0 0 0 0 0 0
Nghost:    19955 ave 19955 max 19955 min
Histogram: 1 0 0 0 0 0 0 0 0 0
Neighs:    1.81665e+06 ave 1.81665e+06 max 1.81665e+06 min
Histogram: 1 0 0 0 0 0 0 0 0 0

Total # of neighbors = 1816651
Ave neighs/atom = 92.441
Neighbor list builds = 495
Dangerous builds not checked
Setting up Verlet run ...
  Unit style    : metal
  Current step  : 72495
  Time step     : 0.001
Per MPI rank memory allocation (min/avg/max) = 19.72 | 19.72 | 19.72 Mbytes
Step Temp Press TotEng PotEng Enthalpy 
   72495    1613.9407    624.26926   -57912.188   -62011.744   -57806.732 
   74000    1596.1314   -1563.9282   -58061.646   -62115.966   -58325.657 
Loop time of 231.905 on 1 procs for 1505 steps with 19652 atoms

Performance: 0.561 ns/day, 42.803 hours/ns, 6.490 timesteps/s
99.8% CPU use with 1 MPI tasks x no OpenMP threads

MPI task timing breakdown:
Section |  min time  |  avg time  |  max time  |%varavg| %total
---------------------------------------------------------------
Pair    | 127.83     | 127.83     | 127.83     |   0.0 | 55.12
Neigh   | 100.18     | 100.18     | 100.18     |   0.0 | 43.20
Comm    | 1.4458     | 1.4458     | 1.4458     |   0.0 |  0.62
Output  | 0.20216    | 0.20216    | 0.20216    |   0.0 |  0.09
Modify  | 1.7252     | 1.7252     | 1.7252     |   0.0 |  0.74
Other   |            | 0.5252     |            |       |  0.23

Nlocal:    19652 ave 19652 max 19652 min
Histogram: 1 0 0 0 0 0 0 0 0 0
Nghost:    19878 ave 19878 max 19878 min
Histogram: 1 0 0 0 0 0 0 0 0 0
Neighs:    1.81705e+06 ave 1.81705e+06 max 1.81705e+06 min
Histogram: 1 0 0 0 0 0 0 0 0 0

Total # of neighbors = 1817046
Ave neighs/atom = 92.4611
Neighbor list builds = 1505
Dangerous builds not checked
Setting up Verlet run ...
  Unit style    : metal
  Current step  : 74000
  Time step     : 0.001
Per MPI rank memory allocation (min/avg/max) = 19.72 | 19.72 | 19.72 Mbytes
Step Temp Press TotEng PotEng Enthalpy 
   74000    1596.1314   -1563.9282   -58061.646   -62115.966   -58325.657 
   74495    1572.6732   -673.66026   -58250.691   -62245.424   -58363.985 
Loop time of 83.6112 on 1 procs for 495 steps with 19652 atoms

Performance: 0.512 ns/day, 46.920 hours/ns, 5.920 timesteps/s
97.9% CPU use with 1 MPI tasks x no OpenMP threads

MPI task timing breakdown:
Section |  min time  |  avg time  |  max time  |%varavg| %total
---------------------------------------------------------------
Pair    | 46.256     | 46.256     | 46.256     |   0.0 | 55.32
Neigh   | 36.012     | 36.012     | 36.012     |   0.0 | 43.07
Comm    | 0.50961    | 0.50961    | 0.50961    |   0.0 |  0.61
Output  | 0.00011516 | 0.00011516 | 0.00011516 |   0.0 |  0.00
Modify  | 0.63167    | 0.63167    | 0.63167    |   0.0 |  0.76
Other   |            | 0.2015     |            |       |  0.24

Nlocal:    19652 ave 19652 max 19652 min
Histogram: 1 0 0 0 0 0 0 0 0 0
Nghost:    19930 ave 19930 max 19930 min
Histogram: 1 0 0 0 0 0 0 0 0 0
Neighs:    1.82364e+06 ave 1.82364e+06 max 1.82364e+06 min
Histogram: 1 0 0 0 0 0 0 0 0 0

Total # of neighbors = 1823639
Ave neighs/atom = 92.7966
Neighbor list builds = 495
Dangerous builds not checked
Setting up Verlet run ...
  Unit style    : metal
  Current step  : 74495
  Time step     : 0.001
Per MPI rank memory allocation (min/avg/max) = 19.72 | 19.72 | 19.72 Mbytes
Step Temp Press TotEng PotEng Enthalpy 
   74495    1572.6732   -673.66026   -58250.691   -62245.424   -58363.985 
   76000     1530.862   -948.76577   -58385.705   -62274.234    -58545.05 
Loop time of 228.275 on 1 procs for 1505 steps with 19652 atoms

Performance: 0.570 ns/day, 42.133 hours/ns, 6.593 timesteps/s
99.7% CPU use with 1 MPI tasks x no OpenMP threads

MPI task timing breakdown:
Section |  min time  |  avg time  |  max time  |%varavg| %total
---------------------------------------------------------------
Pair    | 125.43     | 125.43     | 125.43     |   0.0 | 54.95
Neigh   | 99.031     | 99.031     | 99.031     |   0.0 | 43.38
Comm    | 1.4262     | 1.4262     | 1.4262     |   0.0 |  0.62
Output  | 0.14778    | 0.14778    | 0.14778    |   0.0 |  0.06
Modify  | 1.7152     | 1.7152     | 1.7152     |   0.0 |  0.75
Other   |            | 0.5242     |            |       |  0.23

Nlocal:    19652 ave 19652 max 19652 min
Histogram: 1 0 0 0 0 0 0 0 0 0
Nghost:    19973 ave 19973 max 19973 min
Histogram: 1 0 0 0 0 0 0 0 0 0
Neighs:    1.82567e+06 ave 1.82567e+06 max 1.82567e+06 min
Histogram: 1 0 0 0 0 0 0 0 0 0

Total # of neighbors = 1825666
Ave neighs/atom = 92.8998
Neighbor list builds = 1505
Dangerous builds not checked
Setting up Verlet run ...
  Unit style    : metal
  Current step  : 76000
  Time step     : 0.001
Per MPI rank memory allocation (min/avg/max) = 19.72 | 19.72 | 19.72 Mbytes
Step Temp Press TotEng PotEng Enthalpy 
   76000     1530.862   -948.76577   -58385.705   -62274.234    -58545.05 
   76495    1514.5969   -49.548527   -58526.725   -62373.939   -58535.021 
Loop time of 68.8583 on 1 procs for 495 steps with 19652 atoms

Performance: 0.621 ns/day, 38.641 hours/ns, 7.189 timesteps/s
100.0% CPU use with 1 MPI tasks x no OpenMP threads

MPI task timing breakdown:
Section |  min time  |  avg time  |  max time  |%varavg| %total
---------------------------------------------------------------
Pair    | 37.717     | 37.717     | 37.717     |   0.0 | 54.77
Neigh   | 30.037     | 30.037     | 30.037     |   0.0 | 43.62
Comm    | 0.4288     | 0.4288     | 0.4288     |   0.0 |  0.62
Output  | 0.00013304 | 0.00013304 | 0.00013304 |   0.0 |  0.00
Modify  | 0.51533    | 0.51533    | 0.51533    |   0.0 |  0.75
Other   |            | 0.1604     |            |       |  0.23

Nlocal:    19652 ave 19652 max 19652 min
Histogram: 1 0 0 0 0 0 0 0 0 0
Nghost:    20018 ave 20018 max 20018 min
Histogram: 1 0 0 0 0 0 0 0 0 0
Neighs:    1.83187e+06 ave 1.83187e+06 max 1.83187e+06 min
Histogram: 1 0 0 0 0 0 0 0 0 0

Total # of neighbors = 1831868
Ave neighs/atom = 93.2153
Neighbor list builds = 495
Dangerous builds not checked
Setting up Verlet run ...
  Unit style    : metal
  Current step  : 76495
  Time step     : 0.001
Per MPI rank memory allocation (min/avg/max) = 19.72 | 19.72 | 19.72 Mbytes
Step Temp Press TotEng PotEng Enthalpy 
   76495    1514.5969   -49.548527   -58526.725   -62373.939   -58535.021 
   78000    1507.5441    80.554095   -58652.144   -62481.443   -58638.703 
Loop time of 224.427 on 1 procs for 1505 steps with 19652 atoms

Performance: 0.579 ns/day, 41.422 hours/ns, 6.706 timesteps/s
99.9% CPU use with 1 MPI tasks x no OpenMP threads

MPI task timing breakdown:
Section |  min time  |  avg time  |  max time  |%varavg| %total
---------------------------------------------------------------
Pair    | 123.93     | 123.93     | 123.93     |   0.0 | 55.22
Neigh   | 96.819     | 96.819     | 96.819     |   0.0 | 43.14
Comm    | 1.4103     | 1.4103     | 1.4103     |   0.0 |  0.63
Output  | 0.059172   | 0.059172   | 0.059172   |   0.0 |  0.03
Modify  | 1.6885     | 1.6885     | 1.6885     |   0.0 |  0.75
Other   |            | 0.5174     |            |       |  0.23

Nlocal:    19652 ave 19652 max 19652 min
Histogram: 1 0 0 0 0 0 0 0 0 0
Nghost:    19981 ave 19981 max 19981 min
Histogram: 1 0 0 0 0 0 0 0 0 0
Neighs:    1.83753e+06 ave 1.83753e+06 max 1.83753e+06 min
Histogram: 1 0 0 0 0 0 0 0 0 0

Total # of neighbors = 1837533
Ave neighs/atom = 93.5036
Neighbor list builds = 1505
Dangerous builds not checked
Setting up Verlet run ...
  Unit style    : metal
  Current step  : 78000
  Time step     : 0.001
Per MPI rank memory allocation (min/avg/max) = 19.72 | 19.72 | 19.72 Mbytes
Step Temp Press TotEng PotEng Enthalpy 
   78000    1507.5441    80.554095   -58652.144   -62481.443   -58638.703 
   78495    1464.0713   -386.45042   -58845.161   -62564.035   -58909.538 
Loop time of 74.7739 on 1 procs for 495 steps with 19652 atoms

Performance: 0.572 ns/day, 41.961 hours/ns, 6.620 timesteps/s
100.0% CPU use with 1 MPI tasks x no OpenMP threads

MPI task timing breakdown:
Section |  min time  |  avg time  |  max time  |%varavg| %total
---------------------------------------------------------------
Pair    | 41.361     | 41.361     | 41.361     |   0.0 | 55.31
Neigh   | 32.215     | 32.215     | 32.215     |   0.0 | 43.08
Comm    | 0.4633     | 0.4633     | 0.4633     |   0.0 |  0.62
Output  | 0.00013304 | 0.00013304 | 0.00013304 |   0.0 |  0.00
Modify  | 0.56395    | 0.56395    | 0.56395    |   0.0 |  0.75
Other   |            | 0.1706     |            |       |  0.23

Nlocal:    19652 ave 19652 max 19652 min
Histogram: 1 0 0 0 0 0 0 0 0 0
Nghost:    20055 ave 20055 max 20055 min
Histogram: 1 0 0 0 0 0 0 0 0 0
Neighs:    1.8409e+06 ave 1.8409e+06 max 1.8409e+06 min
Histogram: 1 0 0 0 0 0 0 0 0 0

Total # of neighbors = 1840895
Ave neighs/atom = 93.6747
Neighbor list builds = 495
Dangerous builds not checked
Setting up Verlet run ...
  Unit style    : metal
  Current step  : 78495
  Time step     : 0.001
Per MPI rank memory allocation (min/avg/max) = 19.72 | 19.72 | 19.72 Mbytes
Step Temp Press TotEng PotEng Enthalpy 
   78495    1464.0713   -386.45042   -58845.161   -62564.035   -58909.538 
   80000     1441.322    564.87999    -58946.78    -62607.87   -58852.914 
Loop time of 224.718 on 1 procs for 1505 steps with 19652 atoms

Performance: 0.579 ns/day, 41.476 hours/ns, 6.697 timesteps/s
99.7% CPU use with 1 MPI tasks x no OpenMP threads

MPI task timing breakdown:
Section |  min time  |  avg time  |  max time  |%varavg| %total
---------------------------------------------------------------
Pair    | 123.96     | 123.96     | 123.96     |   0.0 | 55.16
Neigh   | 97.108     | 97.108     | 97.108     |   0.0 | 43.21
Comm    | 1.4013     | 1.4013     | 1.4013     |   0.0 |  0.62
Output  | 0.05845    | 0.05845    | 0.05845    |   0.0 |  0.03
Modify  | 1.6743     | 1.6743     | 1.6743     |   0.0 |  0.75
Other   |            | 0.512      |            |       |  0.23

Nlocal:    19652 ave 19652 max 19652 min
Histogram: 1 0 0 0 0 0 0 0 0 0
Nghost:    20063 ave 20063 max 20063 min
Histogram: 1 0 0 0 0 0 0 0 0 0
Neighs:    1.84486e+06 ave 1.84486e+06 max 1.84486e+06 min
Histogram: 1 0 0 0 0 0 0 0 0 0

Total # of neighbors = 1844857
Ave neighs/atom = 93.8763
Neighbor list builds = 1505
Dangerous builds not checked
Setting up Verlet run ...
  Unit style    : metal
  Current step  : 80000
  Time step     : 0.001
Per MPI rank memory allocation (min/avg/max) = 19.72 | 19.72 | 19.72 Mbytes
Step Temp Press TotEng PotEng Enthalpy 
   80000     1441.322    564.87999    -58946.78    -62607.87   -58852.914 
   80495    1410.9337    53.611695   -59156.899   -62740.799   -59148.014 
Loop time of 71.2423 on 1 procs for 495 steps with 19652 atoms

Performance: 0.600 ns/day, 39.979 hours/ns, 6.948 timesteps/s
100.0% CPU use with 1 MPI tasks x no OpenMP threads

MPI task timing breakdown:
Section |  min time  |  avg time  |  max time  |%varavg| %total
---------------------------------------------------------------
Pair    | 39.378     | 39.378     | 39.378     |   0.0 | 55.27
Neigh   | 30.73      | 30.73      | 30.73      |   0.0 | 43.14
Comm    | 0.44073    | 0.44073    | 0.44073    |   0.0 |  0.62
Output  | 0.00017691 | 0.00017691 | 0.00017691 |   0.0 |  0.00
Modify  | 0.52808    | 0.52808    | 0.52808    |   0.0 |  0.74
Other   |            | 0.1653     |            |       |  0.23

Nlocal:    19652 ave 19652 max 19652 min
Histogram: 1 0 0 0 0 0 0 0 0 0
Nghost:    20022 ave 20022 max 20022 min
Histogram: 1 0 0 0 0 0 0 0 0 0
Neighs:    1.84957e+06 ave 1.84957e+06 max 1.84957e+06 min
Histogram: 1 0 0 0 0 0 0 0 0 0

Total # of neighbors = 1849573
Ave neighs/atom = 94.1163
Neighbor list builds = 495
Dangerous builds not checked
Setting up Verlet run ...
  Unit style    : metal
  Current step  : 80495
  Time step     : 0.001
Per MPI rank memory allocation (min/avg/max) = 19.72 | 19.72 | 19.72 Mbytes
Step Temp Press TotEng PotEng Enthalpy 
   80495    1410.9337    53.611695   -59156.899   -62740.799   -59148.014 
   82000    1399.5128   -1788.3777   -59257.665   -62812.556   -59553.951 
Loop time of 234.027 on 1 procs for 1505 steps with 19652 atoms

Performance: 0.556 ns/day, 43.194 hours/ns, 6.431 timesteps/s
99.8% CPU use with 1 MPI tasks x no OpenMP threads

MPI task timing breakdown:
Section |  min time  |  avg time  |  max time  |%varavg| %total
---------------------------------------------------------------
Pair    | 129.66     | 129.66     | 129.66     |   0.0 | 55.40
Neigh   | 100.58     | 100.58     | 100.58     |   0.0 | 42.98
Comm    | 1.4366     | 1.4366     | 1.4366     |   0.0 |  0.61
Output  | 0.061876   | 0.061876   | 0.061876   |   0.0 |  0.03
Modify  | 1.7451     | 1.7451     | 1.7451     |   0.0 |  0.75
Other   |            | 0.5411     |            |       |  0.23

Nlocal:    19652 ave 19652 max 19652 min
Histogram: 1 0 0 0 0 0 0 0 0 0
Nghost:    20108 ave 20108 max 20108 min
Histogram: 1 0 0 0 0 0 0 0 0 0
Neighs:    1.84973e+06 ave 1.84973e+06 max 1.84973e+06 min
Histogram: 1 0 0 0 0 0 0 0 0 0

Total # of neighbors = 1849730
Ave neighs/atom = 94.1243
Neighbor list builds = 1505
Dangerous builds not checked
Setting up Verlet run ...
  Unit style    : metal
  Current step  : 82000
  Time step     : 0.001
Per MPI rank memory allocation (min/avg/max) = 19.72 | 19.72 | 19.72 Mbytes
Step Temp Press TotEng PotEng Enthalpy 
   82000    1399.5128   -1788.3777   -59257.665   -62812.556   -59553.951 
   82495    1357.3702    668.24087   -59486.785   -62934.629   -59376.693 
Loop time of 73.9291 on 1 procs for 495 steps with 19652 atoms

Performance: 0.578 ns/day, 41.487 hours/ns, 6.696 timesteps/s
99.5% CPU use with 1 MPI tasks x no OpenMP threads

MPI task timing breakdown:
Section |  min time  |  avg time  |  max time  |%varavg| %total
---------------------------------------------------------------
Pair    | 40.878     | 40.878     | 40.878     |   0.0 | 55.29
Neigh   | 31.883     | 31.883     | 31.883     |   0.0 | 43.13
Comm    | 0.45056    | 0.45056    | 0.45056    |   0.0 |  0.61
Output  | 0.00013399 | 0.00013399 | 0.00013399 |   0.0 |  0.00
Modify  | 0.55137    | 0.55137    | 0.55137    |   0.0 |  0.75
Other   |            | 0.1666     |            |       |  0.23

Nlocal:    19652 ave 19652 max 19652 min
Histogram: 1 0 0 0 0 0 0 0 0 0
Nghost:    20139 ave 20139 max 20139 min
Histogram: 1 0 0 0 0 0 0 0 0 0
Neighs:    1.86034e+06 ave 1.86034e+06 max 1.86034e+06 min
Histogram: 1 0 0 0 0 0 0 0 0 0

Total # of neighbors = 1860335
Ave neighs/atom = 94.6639
Neighbor list builds = 495
Dangerous builds not checked
Setting up Verlet run ...
  Unit style    : metal
  Current step  : 82495
  Time step     : 0.001
Per MPI rank memory allocation (min/avg/max) = 19.72 | 19.72 | 19.72 Mbytes
Step Temp Press TotEng PotEng Enthalpy 
   82495    1357.3702    668.24087   -59486.785   -62934.629   -59376.693 
   84000    1346.9085   -1739.6998   -59596.185   -63017.455   -59882.875 
Loop time of 252.041 on 1 procs for 1505 steps with 19652 atoms

Performance: 0.516 ns/day, 46.519 hours/ns, 5.971 timesteps/s
99.2% CPU use with 1 MPI tasks x no OpenMP threads

MPI task timing breakdown:
Section |  min time  |  avg time  |  max time  |%varavg| %total
---------------------------------------------------------------
Pair    | 140.43     | 140.43     | 140.43     |   0.0 | 55.72
Neigh   | 107.6      | 107.6      | 107.6      |   0.0 | 42.69
Comm    | 1.5216     | 1.5216     | 1.5216     |   0.0 |  0.60
Output  | 0.060774   | 0.060774   | 0.060774   |   0.0 |  0.02
Modify  | 1.9042     | 1.9042     | 1.9042     |   0.0 |  0.76
Other   |            | 0.5262     |            |       |  0.21

Nlocal:    19652 ave 19652 max 19652 min
Histogram: 1 0 0 0 0 0 0 0 0 0
Nghost:    20101 ave 20101 max 20101 min
Histogram: 1 0 0 0 0 0 0 0 0 0
Neighs:    1.85939e+06 ave 1.85939e+06 max 1.85939e+06 min
Histogram: 1 0 0 0 0 0 0 0 0 0

Total # of neighbors = 1859392
Ave neighs/atom = 94.6159
Neighbor list builds = 1505
Dangerous builds not checked
Setting up Verlet run ...
  Unit style    : metal
  Current step  : 84000
  Time step     : 0.001
Per MPI rank memory allocation (min/avg/max) = 19.72 | 19.72 | 19.72 Mbytes
Step Temp Press TotEng PotEng Enthalpy 
   84000    1346.9085   -1739.6998   -59596.185   -63017.455   -59882.875 
   84495    1315.3491   -448.55267   -59788.174   -63129.281   -59861.802 
Loop time of 82.0015 on 1 procs for 495 steps with 19652 atoms

Performance: 0.522 ns/day, 46.017 hours/ns, 6.036 timesteps/s
99.9% CPU use with 1 MPI tasks x no OpenMP threads

MPI task timing breakdown:
Section |  min time  |  avg time  |  max time  |%varavg| %total
---------------------------------------------------------------
Pair    | 45.846     | 45.846     | 45.846     |   0.0 | 55.91
Neigh   | 34.869     | 34.869     | 34.869     |   0.0 | 42.52
Comm    | 0.49389    | 0.49389    | 0.49389    |   0.0 |  0.60
Output  | 0.00013804 | 0.00013804 | 0.00013804 |   0.0 |  0.00
Modify  | 0.62407    | 0.62407    | 0.62407    |   0.0 |  0.76
Other   |            | 0.1682     |            |       |  0.21

Nlocal:    19652 ave 19652 max 19652 min
Histogram: 1 0 0 0 0 0 0 0 0 0
Nghost:    20168 ave 20168 max 20168 min
Histogram: 1 0 0 0 0 0 0 0 0 0
Neighs:    1.86636e+06 ave 1.86636e+06 max 1.86636e+06 min
Histogram: 1 0 0 0 0 0 0 0 0 0

Total # of neighbors = 1866359
Ave neighs/atom = 94.9704
Neighbor list builds = 495
Dangerous builds not checked
Setting up Verlet run ...
  Unit style    : metal
  Current step  : 84495
  Time step     : 0.001
Per MPI rank memory allocation (min/avg/max) = 19.72 | 19.72 | 19.72 Mbytes
Step Temp Press TotEng PotEng Enthalpy 
   84495    1315.3491   -448.55267   -59788.174   -63129.281   -59861.802 
   86000     1307.036    955.36266   -59888.606   -63208.596   -59732.319 
Loop time of 245.24 on 1 procs for 1505 steps with 19652 atoms

Performance: 0.530 ns/day, 45.264 hours/ns, 6.137 timesteps/s
99.6% CPU use with 1 MPI tasks x no OpenMP threads

MPI task timing breakdown:
Section |  min time  |  avg time  |  max time  |%varavg| %total
---------------------------------------------------------------
Pair    | 136.48     | 136.48     | 136.48     |   0.0 | 55.65
Neigh   | 104.89     | 104.89     | 104.89     |   0.0 | 42.77
Comm    | 1.4648     | 1.4648     | 1.4648     |   0.0 |  0.60
Output  | 0.081413   | 0.081413   | 0.081413   |   0.0 |  0.03
Modify  | 1.8287     | 1.8287     | 1.8287     |   0.0 |  0.75
Other   |            | 0.4935     |            |       |  0.20

Nlocal:    19652 ave 19652 max 19652 min
Histogram: 1 0 0 0 0 0 0 0 0 0
Nghost:    20281 ave 20281 max 20281 min
Histogram: 1 0 0 0 0 0 0 0 0 0
Neighs:    1.8724e+06 ave 1.8724e+06 max 1.8724e+06 min
Histogram: 1 0 0 0 0 0 0 0 0 0

Total # of neighbors = 1872397
Ave neighs/atom = 95.2777
Neighbor list builds = 1505
Dangerous builds not checked
Setting up Verlet run ...
  Unit style    : metal
  Current step  : 86000
  Time step     : 0.001
Per MPI rank memory allocation (min/avg/max) = 19.72 | 19.72 | 19.72 Mbytes
Step Temp Press TotEng PotEng Enthalpy 
   86000     1307.036    955.36266   -59888.606   -63208.596   -59732.319 
   86495    1274.1296    -176.2327   -60098.073   -63334.479   -60126.829 
Loop time of 79.774 on 1 procs for 495 steps with 19652 atoms

Performance: 0.536 ns/day, 44.767 hours/ns, 6.205 timesteps/s
100.0% CPU use with 1 MPI tasks x no OpenMP threads

MPI task timing breakdown:
Section |  min time  |  avg time  |  max time  |%varavg| %total
---------------------------------------------------------------
Pair    | 44.475     | 44.475     | 44.475     |   0.0 | 55.75
Neigh   | 34.054     | 34.054     | 34.054     |   0.0 | 42.69
Comm    | 0.47821    | 0.47821    | 0.47821    |   0.0 |  0.60
Output  | 0.00014019 | 0.00014019 | 0.00014019 |   0.0 |  0.00
Modify  | 0.60301    | 0.60301    | 0.60301    |   0.0 |  0.76
Other   |            | 0.1637     |            |       |  0.21

Nlocal:    19652 ave 19652 max 19652 min
Histogram: 1 0 0 0 0 0 0 0 0 0
Nghost:    20222 ave 20222 max 20222 min
Histogram: 1 0 0 0 0 0 0 0 0 0
Neighs:    1.87648e+06 ave 1.87648e+06 max 1.87648e+06 min
Histogram: 1 0 0 0 0 0 0 0 0 0

Total # of neighbors = 1876478
Ave neighs/atom = 95.4853
Neighbor list builds = 495
Dangerous builds not checked
Setting up Verlet run ...
  Unit style    : metal
  Current step  : 86495
  Time step     : 0.001
Per MPI rank memory allocation (min/avg/max) = 19.72 | 19.72 | 19.72 Mbytes
Step Temp Press TotEng PotEng Enthalpy 
   86495    1274.1296    -176.2327   -60098.073   -63334.479   -60126.829 
   88000    1258.1748   -463.98555    -60223.05   -63418.928   -60298.638 
Loop time of 232.956 on 1 procs for 1505 steps with 19652 atoms

Performance: 0.558 ns/day, 42.997 hours/ns, 6.460 timesteps/s
99.7% CPU use with 1 MPI tasks x no OpenMP threads

MPI task timing breakdown:
Section |  min time  |  avg time  |  max time  |%varavg| %total
---------------------------------------------------------------
Pair    | 129.14     | 129.14     | 129.14     |   0.0 | 55.44
Neigh   | 99.71      | 99.71      | 99.71      |   0.0 | 42.80
Comm    | 1.3744     | 1.3744     | 1.3744     |   0.0 |  0.59
Output  | 0.53546    | 0.53546    | 0.53546    |   0.0 |  0.23
Modify  | 1.7249     | 1.7249     | 1.7249     |   0.0 |  0.74
Other   |            | 0.4666     |            |       |  0.20

Nlocal:    19652 ave 19652 max 19652 min
Histogram: 1 0 0 0 0 0 0 0 0 0
Nghost:    20253 ave 20253 max 20253 min
Histogram: 1 0 0 0 0 0 0 0 0 0
Neighs:    1.87968e+06 ave 1.87968e+06 max 1.87968e+06 min
Histogram: 1 0 0 0 0 0 0 0 0 0

Total # of neighbors = 1879684
Ave neighs/atom = 95.6485
Neighbor list builds = 1505
Dangerous builds not checked
Setting up Verlet run ...
  Unit style    : metal
  Current step  : 88000
  Time step     : 0.001
Per MPI rank memory allocation (min/avg/max) = 19.72 | 19.72 | 19.72 Mbytes
Step Temp Press TotEng PotEng Enthalpy 
   88000    1258.1748   -463.98555    -60223.05   -63418.928   -60298.638 
   88495    1213.5376    -297.0243   -60434.039   -63516.535   -60482.287 
Loop time of 72.8378 on 1 procs for 495 steps with 19652 atoms

Performance: 0.587 ns/day, 40.874 hours/ns, 6.796 timesteps/s
100.0% CPU use with 1 MPI tasks x no OpenMP threads

MPI task timing breakdown:
Section |  min time  |  avg time  |  max time  |%varavg| %total
---------------------------------------------------------------
Pair    | 40.392     | 40.392     | 40.392     |   0.0 | 55.45
Neigh   | 31.322     | 31.322     | 31.322     |   0.0 | 43.00
Comm    | 0.4344     | 0.4344     | 0.4344     |   0.0 |  0.60
Output  | 0.00010896 | 0.00010896 | 0.00010896 |   0.0 |  0.00
Modify  | 0.54132    | 0.54132    | 0.54132    |   0.0 |  0.74
Other   |            | 0.1478     |            |       |  0.20

Nlocal:    19652 ave 19652 max 19652 min
Histogram: 1 0 0 0 0 0 0 0 0 0
Nghost:    20214 ave 20214 max 20214 min
Histogram: 1 0 0 0 0 0 0 0 0 0
Neighs:    1.88494e+06 ave 1.88494e+06 max 1.88494e+06 min
Histogram: 1 0 0 0 0 0 0 0 0 0

Total # of neighbors = 1884943
Ave neighs/atom = 95.9161
Neighbor list builds = 495
Dangerous builds not checked
Setting up Verlet run ...
  Unit style    : metal
  Current step  : 88495
  Time step     : 0.001
Per MPI rank memory allocation (min/avg/max) = 19.72 | 19.72 | 19.72 Mbytes
Step Temp Press TotEng PotEng Enthalpy 
   88495    1213.5376    -297.0243   -60434.039   -63516.535   -60482.287 
   90000    1199.5234    833.39211    -60549.92   -63596.819   -60414.979 
Loop time of 221.075 on 1 procs for 1505 steps with 19652 atoms

Performance: 0.588 ns/day, 40.804 hours/ns, 6.808 timesteps/s
99.6% CPU use with 1 MPI tasks x no OpenMP threads

MPI task timing breakdown:
Section |  min time  |  avg time  |  max time  |%varavg| %total
---------------------------------------------------------------
Pair    | 121.84     | 121.84     | 121.84     |   0.0 | 55.11
Neigh   | 94.915     | 94.915     | 94.915     |   0.0 | 42.93
Comm    | 1.3075     | 1.3075     | 1.3075     |   0.0 |  0.59
Output  | 0.96243    | 0.96243    | 0.96243    |   0.0 |  0.44
Modify  | 1.6116     | 1.6116     | 1.6116     |   0.0 |  0.73
Other   |            | 0.4417     |            |       |  0.20

Nlocal:    19652 ave 19652 max 19652 min
Histogram: 1 0 0 0 0 0 0 0 0 0
Nghost:    20247 ave 20247 max 20247 min
Histogram: 1 0 0 0 0 0 0 0 0 0
Neighs:    1.8903e+06 ave 1.8903e+06 max 1.8903e+06 min
Histogram: 1 0 0 0 0 0 0 0 0 0

Total # of neighbors = 1890296
Ave neighs/atom = 96.1885
Neighbor list builds = 1505
Dangerous builds not checked
Setting up Verlet run ...
  Unit style    : metal
  Current step  : 90000
  Time step     : 0.001
Per MPI rank memory allocation (min/avg/max) = 19.72 | 19.72 | 19.72 Mbytes
Step Temp Press TotEng PotEng Enthalpy 
   90000    1199.5234    833.39211    -60549.92   -63596.819   -60414.979 
   90495    1170.9272    -512.3317   -60760.161   -63734.423   -60842.958 
Loop time of 78.0311 on 1 procs for 495 steps with 19652 atoms

Performance: 0.548 ns/day, 43.789 hours/ns, 6.344 timesteps/s
99.3% CPU use with 1 MPI tasks x no OpenMP threads

MPI task timing breakdown:
Section |  min time  |  avg time  |  max time  |%varavg| %total
---------------------------------------------------------------
Pair    | 42.877     | 42.877     | 42.877     |   0.0 | 54.95
Neigh   | 33.978     | 33.978     | 33.978     |   0.0 | 43.54
Comm    | 0.4586     | 0.4586     | 0.4586     |   0.0 |  0.59
Output  | 0.00015116 | 0.00015116 | 0.00015116 |   0.0 |  0.00
Modify  | 0.56477    | 0.56477    | 0.56477    |   0.0 |  0.72
Other   |            | 0.1524     |            |       |  0.20

Nlocal:    19652 ave 19652 max 19652 min
[...]
Dangerous builds not checked
Setting up Verlet run ...
  Unit style    : metal
  Current step  : 120000
  Time step     : 0.001
Per MPI rank memory allocation (min/avg/max) = 19.73 | 19.73 | 19.73 Mbytes
Step Temp Press TotEng PotEng Enthalpy 
  120000    451.69425    1489.8791    -65570.08   -66717.425   -65346.092 
  120495      423.385    1062.1361    -65733.29   -66808.726   -65573.904 
Loop time of 92.62 on 1 procs for 495 steps with 19652 atoms

Performance: 0.462 ns/day, 51.975 hours/ns, 5.344 timesteps/s
98.8% CPU use with 1 MPI tasks x no OpenMP threads

MPI task timing breakdown:
Section |  min time  |  avg time  |  max time  |%varavg| %total
---------------------------------------------------------------
Pair    | 50.36      | 50.36      | 50.36      |   0.0 | 54.37
Neigh   | 40.88      | 40.88      | 40.88      |   0.0 | 44.14
Comm    | 0.53203    | 0.53203    | 0.53203    |   0.0 |  0.57
Output  | 0.00014377 | 0.00014377 | 0.00014377 |   0.0 |  0.00
Modify  | 0.66768    | 0.66768    | 0.66768    |   0.0 |  0.72
Other   |            | 0.1808     |            |       |  0.20

Nlocal:    19652 ave 19652 max 19652 min
Histogram: 1 0 0 0 0 0 0 0 0 0
Nghost:    20940 ave 20940 max 20940 min
Histogram: 1 0 0 0 0 0 0 0 0 0
Neighs:    2.0356e+06 ave 2.0356e+06 max 2.0356e+06 min
Histogram: 1 0 0 0 0 0 0 0 0 0

Total # of neighbors = 2035598
Ave neighs/atom = 103.582
Neighbor list builds = 495
Dangerous builds not checked
Setting up Verlet run ...
  Unit style    : metal
  Current step  : 120495
  Time step     : 0.001
Per MPI rank memory allocation (min/avg/max) = 19.73 | 19.73 | 19.73 Mbytes
Step Temp Press TotEng PotEng Enthalpy 
  120495      423.385    1062.1361    -65733.29   -66808.726   -65573.904 
  122000     403.5119    964.72054   -65855.693    -66880.65   -65711.094 
Loop time of 299.453 on 1 procs for 1505 steps with 19652 atoms

Performance: 0.434 ns/day, 55.270 hours/ns, 5.026 timesteps/s
99.4% CPU use with 1 MPI tasks x no OpenMP threads

MPI task timing breakdown:
Section |  min time  |  avg time  |  max time  |%varavg| %total
---------------------------------------------------------------
Pair    | 163.55     | 163.55     | 163.55     |   0.0 | 54.62
Neigh   | 131.3      | 131.3      | 131.3      |   0.0 | 43.85
Comm    | 1.6905     | 1.6905     | 1.6905     |   0.0 |  0.56
Output  | 0.162      | 0.162      | 0.162      |   0.0 |  0.05
Modify  | 2.1646     | 2.1646     | 2.1646     |   0.0 |  0.72
Other   |            | 0.5861     |            |       |  0.20

Nlocal:    19652 ave 19652 max 19652 min
Histogram: 1 0 0 0 0 0 0 0 0 0
Nghost:    20953 ave 20953 max 20953 min
Histogram: 1 0 0 0 0 0 0 0 0 0
Neighs:    2.03863e+06 ave 2.03863e+06 max 2.03863e+06 min
Histogram: 1 0 0 0 0 0 0 0 0 0

Total # of neighbors = 2038634
Ave neighs/atom = 103.737
Neighbor list builds = 1505
Dangerous builds not checked
Setting up Verlet run ...
  Unit style    : metal
  Current step  : 122000
  Time step     : 0.001
Per MPI rank memory allocation (min/avg/max) = 19.73 | 19.73 | 19.73 Mbytes
Step Temp Press TotEng PotEng Enthalpy 
  122000     403.5119    964.72054   -65855.693    -66880.65   -65711.094 
  122495    374.91914    22.366343   -66015.477   -66967.805   -66012.128 
Loop time of 99.0781 on 1 procs for 495 steps with 19652 atoms

Performance: 0.432 ns/day, 55.599 hours/ns, 4.996 timesteps/s
99.0% CPU use with 1 MPI tasks x no OpenMP threads

MPI task timing breakdown:
Section |  min time  |  avg time  |  max time  |%varavg| %total
---------------------------------------------------------------
Pair    | 54.173     | 54.173     | 54.173     |   0.0 | 54.68
Neigh   | 43.432     | 43.432     | 43.432     |   0.0 | 43.84
Comm    | 0.54754    | 0.54754    | 0.54754    |   0.0 |  0.55
Output  | 0.00016093 | 0.00016093 | 0.00016093 |   0.0 |  0.00
Modify  | 0.72635    | 0.72635    | 0.72635    |   0.0 |  0.73
Other   |            | 0.1991     |            |       |  0.20

Nlocal:    19652 ave 19652 max 19652 min
Histogram: 1 0 0 0 0 0 0 0 0 0
Nghost:    20967 ave 20967 max 20967 min
Histogram: 1 0 0 0 0 0 0 0 0 0
Neighs:    2.0407e+06 ave 2.0407e+06 max 2.0407e+06 min
Histogram: 1 0 0 0 0 0 0 0 0 0

Total # of neighbors = 2040700
Ave neighs/atom = 103.842
Neighbor list builds = 495
Dangerous builds not checked
Setting up Verlet run ...
  Unit style    : metal
  Current step  : 122495
  Time step     : 0.001
Per MPI rank memory allocation (min/avg/max) = 19.73 | 19.73 | 19.73 Mbytes
Step Temp Press TotEng PotEng Enthalpy 
  122495    374.91914    22.366343   -66015.477   -66967.805   -66012.128 
  124000    349.90911   -605.66153    -66158.15   -67046.951   -66248.704 
Loop time of 281.821 on 1 procs for 1505 steps with 19652 atoms

Performance: 0.461 ns/day, 52.016 hours/ns, 5.340 timesteps/s
99.4% CPU use with 1 MPI tasks x no OpenMP threads

MPI task timing breakdown:
Section |  min time  |  avg time  |  max time  |%varavg| %total
---------------------------------------------------------------
Pair    | 154.27     | 154.27     | 154.27     |   0.0 | 54.74
Neigh   | 123.07     | 123.07     | 123.07     |   0.0 | 43.67
Comm    | 1.6304     | 1.6304     | 1.6304     |   0.0 |  0.58
Output  | 0.221      | 0.221      | 0.221      |   0.0 |  0.08
Modify  | 2.0216     | 2.0216     | 2.0216     |   0.0 |  0.72
Other   |            | 0.6032     |            |       |  0.21

Nlocal:    19652 ave 19652 max 19652 min
Histogram: 1 0 0 0 0 0 0 0 0 0
Nghost:    20998 ave 20998 max 20998 min
Histogram: 1 0 0 0 0 0 0 0 0 0
Neighs:    2.044e+06 ave 2.044e+06 max 2.044e+06 min
Histogram: 1 0 0 0 0 0 0 0 0 0

Total # of neighbors = 2044003
Ave neighs/atom = 104.01
Neighbor list builds = 1505
Dangerous builds not checked
Setting up Verlet run ...
  Unit style    : metal
  Current step  : 124000
  Time step     : 0.001
Per MPI rank memory allocation (min/avg/max) = 19.73 | 19.73 | 19.73 Mbytes
Step Temp Press TotEng PotEng Enthalpy 
  124000    349.90911   -605.66153    -66158.15   -67046.951   -66248.704 
  124495    322.07605    559.49781   -66303.969   -67122.071   -66220.529 
Loop time of 91.3231 on 1 procs for 495 steps with 19652 atoms

Performance: 0.468 ns/day, 51.248 hours/ns, 5.420 timesteps/s
98.7% CPU use with 1 MPI tasks x no OpenMP threads

MPI task timing breakdown:
Section |  min time  |  avg time  |  max time  |%varavg| %total
---------------------------------------------------------------
Pair    | 50.05      | 50.05      | 50.05      |   0.0 | 54.81
Neigh   | 39.893     | 39.893     | 39.893     |   0.0 | 43.68
Comm    | 0.52556    | 0.52556    | 0.52556    |   0.0 |  0.58
Output  | 0.00014591 | 0.00014591 | 0.00014591 |   0.0 |  0.00
Modify  | 0.64919    | 0.64919    | 0.64919    |   0.0 |  0.71
Other   |            | 0.2056     |            |       |  0.23

Nlocal:    19652 ave 19652 max 19652 min
Histogram: 1 0 0 0 0 0 0 0 0 0
Nghost:    21018 ave 21018 max 21018 min
Histogram: 1 0 0 0 0 0 0 0 0 0
Neighs:    2.0497e+06 ave 2.0497e+06 max 2.0497e+06 min
Histogram: 1 0 0 0 0 0 0 0 0 0

Total # of neighbors = 2049696
Ave neighs/atom = 104.3
Neighbor list builds = 495
Dangerous builds not checked
Setting up Verlet run ...
  Unit style    : metal
  Current step  : 124495
  Time step     : 0.001
Per MPI rank memory allocation (min/avg/max) = 19.73 | 19.73 | 19.73 Mbytes
Step Temp Press TotEng PotEng Enthalpy 
  124495    322.07605    559.49781   -66303.969   -67122.071   -66220.529 
  126000    297.29241    141.89571   -66440.203   -67195.353   -66419.068 
Loop time of 277.72 on 1 procs for 1505 steps with 19652 atoms

Performance: 0.468 ns/day, 51.259 hours/ns, 5.419 timesteps/s
99.6% CPU use with 1 MPI tasks x no OpenMP threads

MPI task timing breakdown:
Section |  min time  |  avg time  |  max time  |%varavg| %total
---------------------------------------------------------------
Pair    | 153.12     | 153.12     | 153.12     |   0.0 | 55.13
Neigh   | 120.28     | 120.28     | 120.28     |   0.0 | 43.31
Comm    | 1.5981     | 1.5981     | 1.5981     |   0.0 |  0.58
Output  | 0.17744    | 0.17744    | 0.17744    |   0.0 |  0.06
Modify  | 1.9507     | 1.9507     | 1.9507     |   0.0 |  0.70
Other   |            | 0.5968     |            |       |  0.21

Nlocal:    19652 ave 19652 max 19652 min
Histogram: 1 0 0 0 0 0 0 0 0 0
Nghost:    20994 ave 20994 max 20994 min
Histogram: 1 0 0 0 0 0 0 0 0 0
Neighs:    2.05234e+06 ave 2.05234e+06 max 2.05234e+06 min
Histogram: 1 0 0 0 0 0 0 0 0 0

Total # of neighbors = 2052337
Ave neighs/atom = 104.434
Neighbor list builds = 1505
Dangerous builds not checked
Setting up Verlet run ...
  Unit style    : metal
  Current step  : 126000
  Time step     : 0.001
Per MPI rank memory allocation (min/avg/max) = 19.73 | 19.73 | 19.73 Mbytes
Step Temp Press TotEng PotEng Enthalpy 
  126000    297.29241    141.89571   -66440.203   -67195.353   -66419.068 
  126495    274.87465    105.29504   -66577.659   -67275.866       -66562 
Loop time of 94.4702 on 1 procs for 495 steps with 19652 atoms

Performance: 0.453 ns/day, 53.014 hours/ns, 5.240 timesteps/s
98.7% CPU use with 1 MPI tasks x no OpenMP threads

MPI task timing breakdown:
Section |  min time  |  avg time  |  max time  |%varavg| %total
---------------------------------------------------------------
Pair    | 52.196     | 52.196     | 52.196     |   0.0 | 55.25
Neigh   | 40.875     | 40.875     | 40.875     |   0.0 | 43.27
Comm    | 0.53817    | 0.53817    | 0.53817    |   0.0 |  0.57
Output  | 0.00017214 | 0.00017214 | 0.00017214 |   0.0 |  0.00
Modify  | 0.6623     | 0.6623     | 0.6623     |   0.0 |  0.70
Other   |            | 0.1988     |            |       |  0.21

Nlocal:    19652 ave 19652 max 19652 min
Histogram: 1 0 0 0 0 0 0 0 0 0
Nghost:    21015 ave 21015 max 21015 min
Histogram: 1 0 0 0 0 0 0 0 0 0
Neighs:    2.05652e+06 ave 2.05652e+06 max 2.05652e+06 min
Histogram: 1 0 0 0 0 0 0 0 0 0

Total # of neighbors = 2056523
Ave neighs/atom = 104.647
Neighbor list builds = 495
Dangerous builds not checked
Setting up Verlet run ...
  Unit style    : metal
  Current step  : 126495
  Time step     : 0.001
Per MPI rank memory allocation (min/avg/max) = 19.73 | 19.73 | 19.73 Mbytes
Step Temp Press TotEng PotEng Enthalpy 
  126495    274.87465    105.29504   -66577.659   -67275.866       -66562 
  128000    251.19506    1408.1194   -66711.759   -67349.817   -66502.889 
Loop time of 299.279 on 1 procs for 1505 steps with 19652 atoms

Performance: 0.434 ns/day, 55.238 hours/ns, 5.029 timesteps/s
98.9% CPU use with 1 MPI tasks x no OpenMP threads

MPI task timing breakdown:
Section |  min time  |  avg time  |  max time  |%varavg| %total
---------------------------------------------------------------
Pair    | 165.16     | 165.16     | 165.16     |   0.0 | 55.19
Neigh   | 129.57     | 129.57     | 129.57     |   0.0 | 43.29
Comm    | 1.7195     | 1.7195     | 1.7195     |   0.0 |  0.57
Output  | 0.054703   | 0.054703   | 0.054703   |   0.0 |  0.02
Modify  | 2.1269     | 2.1269     | 2.1269     |   0.0 |  0.71
Other   |            | 0.6405     |            |       |  0.21

Nlocal:    19652 ave 19652 max 19652 min
Histogram: 1 0 0 0 0 0 0 0 0 0
Nghost:    21044 ave 21044 max 21044 min
Histogram: 1 0 0 0 0 0 0 0 0 0
Neighs:    2.06252e+06 ave 2.06252e+06 max 2.06252e+06 min
Histogram: 1 0 0 0 0 0 0 0 0 0

Total # of neighbors = 2062516
Ave neighs/atom = 104.952
Neighbor list builds = 1505
Dangerous builds not checked
Setting up Verlet run ...
  Unit style    : metal
  Current step  : 128000
  Time step     : 0.001
Per MPI rank memory allocation (min/avg/max) = 19.73 | 19.73 | 19.73 Mbytes
Step Temp Press TotEng PotEng Enthalpy 
  128000    251.19506    1408.1194   -66711.759   -67349.817   -66502.889 
  128495     225.0896    198.32454   -66848.325   -67420.074   -66818.922 
Loop time of 98.092 on 1 procs for 495 steps with 19652 atoms

Performance: 0.436 ns/day, 55.046 hours/ns, 5.046 timesteps/s
98.0% CPU use with 1 MPI tasks x no OpenMP threads

MPI task timing breakdown:
Section |  min time  |  avg time  |  max time  |%varavg| %total
---------------------------------------------------------------
Pair    | 54.39      | 54.39      | 54.39      |   0.0 | 55.45
Neigh   | 42.226     | 42.226     | 42.226     |   0.0 | 43.05
Comm    | 0.55579    | 0.55579    | 0.55579    |   0.0 |  0.57
Output  | 0.00016999 | 0.00016999 | 0.00016999 |   0.0 |  0.00
Modify  | 0.71265    | 0.71265    | 0.71265    |   0.0 |  0.73
Other   |            | 0.2074     |            |       |  0.21

Nlocal:    19652 ave 19652 max 19652 min
Histogram: 1 0 0 0 0 0 0 0 0 0
Nghost:    21024 ave 21024 max 21024 min
Histogram: 1 0 0 0 0 0 0 0 0 0
Neighs:    2.06349e+06 ave 2.06349e+06 max 2.06349e+06 min
Histogram: 1 0 0 0 0 0 0 0 0 0

Total # of neighbors = 2063494
Ave neighs/atom = 105.002
Neighbor list builds = 495
Dangerous builds not checked
Setting up Verlet run ...
  Unit style    : metal
  Current step  : 128495
  Time step     : 0.001
Per MPI rank memory allocation (min/avg/max) = 19.73 | 19.73 | 19.73 Mbytes
Step Temp Press TotEng PotEng Enthalpy 
  128495     225.0896    198.32454   -66848.325   -67420.074   -66818.922 
  130000     198.9321    502.03981    -66987.26   -67492.566   -66912.957 
Loop time of 278.606 on 1 procs for 1505 steps with 19652 atoms

Performance: 0.467 ns/day, 51.422 hours/ns, 5.402 timesteps/s
98.9% CPU use with 1 MPI tasks x no OpenMP threads

MPI task timing breakdown:
Section |  min time  |  avg time  |  max time  |%varavg| %total
---------------------------------------------------------------
Pair    | 152.94     | 152.94     | 152.94     |   0.0 | 54.89
Neigh   | 121.4      | 121.4      | 121.4      |   0.0 | 43.57
Comm    | 1.6042     | 1.6042     | 1.6042     |   0.0 |  0.58
Output  | 0.061759   | 0.061759   | 0.061759   |   0.0 |  0.02
Modify  | 1.9915     | 1.9915     | 1.9915     |   0.0 |  0.71
Other   |            | 0.6147     |            |       |  0.22

Nlocal:    19652 ave 19652 max 19652 min
Histogram: 1 0 0 0 0 0 0 0 0 0
Nghost:    21049 ave 21049 max 21049 min
Histogram: 1 0 0 0 0 0 0 0 0 0
Neighs:    2.06795e+06 ave 2.06795e+06 max 2.06795e+06 min
Histogram: 1 0 0 0 0 0 0 0 0 0

Total # of neighbors = 2067949
Ave neighs/atom = 105.228
Neighbor list builds = 1505
Dangerous builds not checked
Setting up Verlet run ...
  Unit style    : metal
  Current step  : 130000
  Time step     : 0.001
Per MPI rank memory allocation (min/avg/max) = 19.73 | 19.73 | 19.73 Mbytes
Step Temp Press TotEng PotEng Enthalpy 
  130000     198.9321    502.03981    -66987.26   -67492.566   -66912.957 
  130495     175.6364    -83.03469   -67112.562   -67558.695    -67124.84 
Loop time of 94.7013 on 1 procs for 495 steps with 19652 atoms

Performance: 0.452 ns/day, 53.143 hours/ns, 5.227 timesteps/s
99.4% CPU use with 1 MPI tasks x no OpenMP threads

MPI task timing breakdown:
Section |  min time  |  avg time  |  max time  |%varavg| %total
---------------------------------------------------------------
Pair    | 52.121     | 52.121     | 52.121     |   0.0 | 55.04
Neigh   | 41.137     | 41.137     | 41.137     |   0.0 | 43.44
Comm    | 0.54777    | 0.54777    | 0.54777    |   0.0 |  0.58
Output  | 0.00014687 | 0.00014687 | 0.00014687 |   0.0 |  0.00
Modify  | 0.67886    | 0.67886    | 0.67886    |   0.0 |  0.72
Other   |            | 0.2165     |            |       |  0.23

Nlocal:    19652 ave 19652 max 19652 min
Histogram: 1 0 0 0 0 0 0 0 0 0
Nghost:    21063 ave 21063 max 21063 min
Histogram: 1 0 0 0 0 0 0 0 0 0
Neighs:    2.07023e+06 ave 2.07023e+06 max 2.07023e+06 min
Histogram: 1 0 0 0 0 0 0 0 0 0

Total # of neighbors = 2070233
Ave neighs/atom = 105.345
Neighbor list builds = 495
Dangerous builds not checked
Setting up Verlet run ...
  Unit style    : metal
  Current step  : 130495
  Time step     : 0.001
Per MPI rank memory allocation (min/avg/max) = 19.73 | 19.73 | 19.73 Mbytes
Step Temp Press TotEng PotEng Enthalpy 
  130495     175.6364    -83.03469   -67112.562   -67558.695    -67124.84 
  132000    149.08941    28.754407   -67252.595   -67631.296    -67248.35 
Loop time of 280.367 on 1 procs for 1505 steps with 19652 atoms

Performance: 0.464 ns/day, 51.747 hours/ns, 5.368 timesteps/s
99.2% CPU use with 1 MPI tasks x no OpenMP threads

MPI task timing breakdown:
Section |  min time  |  avg time  |  max time  |%varavg| %total
---------------------------------------------------------------
Pair    | 154.54     | 154.54     | 154.54     |   0.0 | 55.12
Neigh   | 121.52     | 121.52     | 121.52     |   0.0 | 43.34
Comm    | 1.6177     | 1.6177     | 1.6177     |   0.0 |  0.58
Output  | 0.087292   | 0.087292   | 0.087292   |   0.0 |  0.03
Modify  | 1.9948     | 1.9948     | 1.9948     |   0.0 |  0.71
Other   |            | 0.6093     |            |       |  0.22

Nlocal:    19652 ave 19652 max 19652 min
Histogram: 1 0 0 0 0 0 0 0 0 0
Nghost:    21056 ave 21056 max 21056 min
Histogram: 1 0 0 0 0 0 0 0 0 0
Neighs:    2.07405e+06 ave 2.07405e+06 max 2.07405e+06 min
Histogram: 1 0 0 0 0 0 0 0 0 0

Total # of neighbors = 2074049
Ave neighs/atom = 105.539
Neighbor list builds = 1505
Dangerous builds not checked
Setting up Verlet run ...
  Unit style    : metal
  Current step  : 132000
  Time step     : 0.001
Per MPI rank memory allocation (min/avg/max) = 19.73 | 19.73 | 19.73 Mbytes
Step Temp Press TotEng PotEng Enthalpy 
  132000    149.08941    28.754407   -67252.595   -67631.296    -67248.35 
  132495     127.2817   -129.15836    -67370.64   -67693.947   -67389.685 
Loop time of 94.9837 on 1 procs for 495 steps with 19652 atoms

Performance: 0.450 ns/day, 53.302 hours/ns, 5.211 timesteps/s
99.5% CPU use with 1 MPI tasks x no OpenMP threads

MPI task timing breakdown:
Section |  min time  |  avg time  |  max time  |%varavg| %total
---------------------------------------------------------------
Pair    | 52.727     | 52.727     | 52.727     |   0.0 | 55.51
Neigh   | 40.841     | 40.841     | 40.841     |   0.0 | 43.00
Comm    | 0.54551    | 0.54551    | 0.54551    |   0.0 |  0.57
Output  | 0.00018096 | 0.00018096 | 0.00018096 |   0.0 |  0.00
Modify  | 0.66445    | 0.66445    | 0.66445    |   0.0 |  0.70
Other   |            | 0.2063     |            |       |  0.22

Nlocal:    19652 ave 19652 max 19652 min
Histogram: 1 0 0 0 0 0 0 0 0 0
Nghost:    21073 ave 21073 max 21073 min
Histogram: 1 0 0 0 0 0 0 0 0 0
Neighs:    2.07694e+06 ave 2.07694e+06 max 2.07694e+06 min
Histogram: 1 0 0 0 0 0 0 0 0 0

Total # of neighbors = 2076942
Ave neighs/atom = 105.686
Neighbor list builds = 495
Dangerous builds not checked
Setting up Verlet run ...
  Unit style    : metal
  Current step  : 132495
  Time step     : 0.001
Per MPI rank memory allocation (min/avg/max) = 19.73 | 19.73 | 19.73 Mbytes
Step Temp Press TotEng PotEng Enthalpy 
  132495     127.2817   -129.15836    -67370.64   -67693.947   -67389.685 
  134000    99.047989   -422.39228   -67518.819    -67770.41   -67581.025 
Loop time of 272.981 on 1 procs for 1505 steps with 19652 atoms

Performance: 0.476 ns/day, 50.384 hours/ns, 5.513 timesteps/s
99.8% CPU use with 1 MPI tasks x no OpenMP threads

MPI task timing breakdown:
Section |  min time  |  avg time  |  max time  |%varavg| %total
---------------------------------------------------------------
Pair    | 151.14     | 151.14     | 151.14     |   0.0 | 55.37
Neigh   | 117.65     | 117.65     | 117.65     |   0.0 | 43.10
Comm    | 1.5536     | 1.5536     | 1.5536     |   0.0 |  0.57
Output  | 0.15934    | 0.15934    | 0.15934    |   0.0 |  0.06
Modify  | 1.9108     | 1.9108     | 1.9108     |   0.0 |  0.70
Other   |            | 0.5695     |            |       |  0.21

Nlocal:    19652 ave 19652 max 19652 min
Histogram: 1 0 0 0 0 0 0 0 0 0
Nghost:    21097 ave 21097 max 21097 min
Histogram: 1 0 0 0 0 0 0 0 0 0
Neighs:    2.07965e+06 ave 2.07965e+06 max 2.07965e+06 min
Histogram: 1 0 0 0 0 0 0 0 0 0

Total # of neighbors = 2079652
Ave neighs/atom = 105.824
Neighbor list builds = 1505
Dangerous builds not checked
Total wall time: 6:25:49
