LAMMPS (12 Dec 2018)
Lattice spacing in x,y,z = 4 4 4
Created orthogonal box = (0 0 0) to (68 68 68)
  1 by 1 by 2 MPI processor grid
Created 19652 atoms
  Time spent = 0.00153685 secs
Setting atom values ...
  0 settings made for type/fraction
Neighbor list info ...
  update every 1 steps, delay 0 steps, check no
  max neighbors/atom: 2000, page size: 100000
  master list distance cutoff = 8.5
  ghost atom cutoff = 8.5
  binsize = 4.25, bins = 16 16 16
  1 neighbor lists, perpetual/occasional/extra = 1 0 0
  (1) pair eam/alloy, perpetual
      attributes: half, newton on
      pair build: half/bin/atomonly/newton
      stencil: half/bin/3d/newton
      bin: standard
Setting up Verlet run ...
  Unit style    : metal
  Current step  : 0
  Time step     : 0.001
Per MPI rank memory allocation (min/avg/max) = 11.15 | 11.15 | 11.15 Mbytes
Step Temp Press TotEng PotEng Enthalpy 
       0          300    1222321.5   -17390.093    -18152.12     222494.2 
    1000    150.30208      1225712    -17389.95   -17771.731    223159.75 
Loop time of 99.533 on 2 procs for 1000 steps with 19652 atoms

Performance: 0.868 ns/day, 27.648 hours/ns, 10.047 timesteps/s
98.0% CPU use with 2 MPI tasks x no OpenMP threads

MPI task timing breakdown:
Section |  min time  |  avg time  |  max time  |%varavg| %total
---------------------------------------------------------------
Pair    | 56.883     | 57.059     | 57.236     |   2.3 | 57.33
Neigh   | 38.74      | 38.803     | 38.865     |   1.0 | 38.98
Comm    | 2.9643     | 3.087      | 3.2096     |   7.0 |  3.10
Output  | 0.00016618 | 0.0002141  | 0.00026202 |   0.0 |  0.00
Modify  | 0.29467    | 0.29645    | 0.29823    |   0.3 |  0.30
Other   |            | 0.2876     |            |       |  0.29

Nlocal:    9826 ave 9855 max 9797 min
Histogram: 1 0 0 0 0 0 0 0 0 1
Nghost:    14211 ave 14240 max 14182 min
Histogram: 1 0 0 0 0 0 0 0 0 1
Neighs:    797870 ave 800575 max 795165 min
Histogram: 1 0 0 0 0 0 0 0 0 1

Total # of neighbors = 1595740
Ave neighs/atom = 81.1999
Neighbor list builds = 1000
Dangerous builds not checked
Setting up Verlet run ...
  Unit style    : metal
  Current step  : 1000
  Time step     : 0.001
Per MPI rank memory allocation (min/avg/max) = 11.15 | 11.15 | 11.15 Mbytes
Step Temp Press TotEng PotEng Enthalpy 
    1000    150.30208      1225712    -17389.95   -17771.731    223159.75 
    2000    169.70138     1449.367   -86455.975   -86887.032   -85786.628 
Loop time of 65.4176 on 2 procs for 1000 steps with 19652 atoms

Performance: 1.321 ns/day, 18.172 hours/ns, 15.286 timesteps/s
97.2% CPU use with 2 MPI tasks x no OpenMP threads

MPI task timing breakdown:
Section |  min time  |  avg time  |  max time  |%varavg| %total
---------------------------------------------------------------
Pair    | 34.161     | 34.25      | 34.339     |   1.5 | 52.36
Neigh   | 27.272     | 27.578     | 27.883     |   5.8 | 42.16
Comm    | 2.1188     | 2.3528     | 2.5868     |  15.3 |  3.60
Output  | 0.000103   | 0.00018406 | 0.00026512 |   0.0 |  0.00
Modify  | 0.96899    | 0.97786    | 0.98673    |   0.9 |  1.49
Other   |            | 0.2592     |            |       |  0.40

Nlocal:    9826 ave 9846 max 9806 min
Histogram: 1 0 0 0 0 0 0 0 0 1
Nghost:    10346 ave 10366 max 10326 min
Histogram: 1 0 0 0 0 0 0 0 0 1
Neighs:    349910 ave 351913 max 347908 min
Histogram: 1 0 0 0 0 0 0 0 0 1

Total # of neighbors = 699821
Ave neighs/atom = 35.6107
Neighbor list builds = 1000
Dangerous builds not checked
Setting up Verlet run ...
  Unit style    : metal
  Current step  : 2000
  Time step     : 0.001
Per MPI rank memory allocation (min/avg/max) = 11.17 | 11.17 | 11.17 Mbytes
Step Temp Press TotEng PotEng Enthalpy 
    2000    169.70138     1449.367   -86455.975   -86887.032   -85786.628 
   10000    2453.6341    644.07212   -73844.533   -80076.987   -73507.839 
Loop time of 400.815 on 2 procs for 8000 steps with 19652 atoms

Performance: 1.724 ns/day, 13.917 hours/ns, 19.959 timesteps/s
98.9% CPU use with 2 MPI tasks x no OpenMP threads

MPI task timing breakdown:
Section |  min time  |  avg time  |  max time  |%varavg| %total
---------------------------------------------------------------
Pair    | 193.27     | 194.14     | 195        |   6.2 | 48.44
Neigh   | 179.43     | 179.83     | 180.22     |   2.9 | 44.87
Comm    | 16.973     | 17.444     | 17.916     |  11.3 |  4.35
Output  | 0.04712    | 0.047232   | 0.047344   |   0.1 |  0.01
Modify  | 7.4058     | 7.413      | 7.4203     |   0.3 |  1.85
Other   |            | 1.948      |            |       |  0.49

Nlocal:    9826 ave 9834 max 9818 min
Histogram: 1 0 0 0 0 0 0 0 0 1
Nghost:    8748 ave 8773 max 8723 min
Histogram: 1 0 0 0 0 0 0 0 0 1
Neighs:    292848 ave 293227 max 292468 min
Histogram: 1 0 0 0 0 0 0 0 0 1

Total # of neighbors = 585695
Ave neighs/atom = 29.8033
Neighbor list builds = 8000
Dangerous builds not checked
Setting up Verlet run ...
  Unit style    : metal
  Current step  : 10000
  Time step     : 0.001
Per MPI rank memory allocation (min/avg/max) = 11.21 | 11.21 | 11.21 Mbytes
Step Temp Press TotEng PotEng Enthalpy 
   10000    2453.6341    644.07212   -73844.533   -80076.987   -73507.839 
   20000    2463.1568    -526.8789   -73805.133   -80061.776   -74081.592 
   30000    2452.7104    37.501635   -73850.083   -80080.191   -73830.446 
   40000    2431.9518    42.632677   -73830.467   -80007.846   -73808.111 
Loop time of 1477.26 on 2 procs for 30000 steps with 19652 atoms

Performance: 1.755 ns/day, 13.678 hours/ns, 20.308 timesteps/s
98.1% CPU use with 2 MPI tasks x no OpenMP threads

MPI task timing breakdown:
Section |  min time  |  avg time  |  max time  |%varavg| %total
---------------------------------------------------------------
Pair    | 714.97     | 717.41     | 719.85     |   9.1 | 48.56
Neigh   | 655.33     | 655.87     | 656.42     |   2.1 | 44.40
Comm    | 63.934     | 65.901     | 67.868     |  24.2 |  4.46
Output  | 0.10858    | 0.10877    | 0.10896    |   0.1 |  0.01
Modify  | 30.592     | 30.664     | 30.735     |   1.3 |  2.08
Other   |            | 7.3        |            |       |  0.49

Nlocal:    9826 ave 9839 max 9813 min
Histogram: 1 0 0 0 0 0 0 0 0 1
Nghost:    8833 ave 8839 max 8827 min
Histogram: 1 0 0 0 0 0 0 0 0 1
Neighs:    291999 ave 293098 max 290900 min
Histogram: 1 0 0 0 0 0 0 0 0 1

Total # of neighbors = 583998
Ave neighs/atom = 29.717
Neighbor list builds = 30000
Dangerous builds not checked
Setting up Verlet run ...
  Unit style    : metal
  Current step  : 40000
  Time step     : 0.001
Per MPI rank memory allocation (min/avg/max) = 11.26 | 11.26 | 11.26 Mbytes
Step Temp Press TotEng PotEng Enthalpy 
   40000    2431.9518    42.632677   -73830.467   -80007.846   -73808.111 
   40495    2393.8561    174.83202   -74074.167   -80154.779   -73982.831 
Loop time of 22.3877 on 2 procs for 495 steps with 19652 atoms

Performance: 1.910 ns/day, 12.563 hours/ns, 22.110 timesteps/s
99.9% CPU use with 2 MPI tasks x no OpenMP threads

MPI task timing breakdown:
Section |  min time  |  avg time  |  max time  |%varavg| %total
---------------------------------------------------------------
Pair    | 10.655     | 10.663     | 10.671     |   0.2 | 47.63
Neigh   | 10.273     | 10.3       | 10.327     |   0.9 | 46.01
Comm    | 0.82527    | 0.86156    | 0.89785    |   3.9 |  3.85
Output  | 0.00010014 | 0.00014806 | 0.00019598 |   0.0 |  0.00
Modify  | 0.44956    | 0.4497     | 0.44984    |   0.0 |  2.01
Other   |            | 0.1131     |            |       |  0.51

Nlocal:    9826 ave 9846 max 9806 min
Histogram: 1 0 0 0 0 0 0 0 0 1
Nghost:    8788.5 ave 8802 max 8775 min
Histogram: 1 0 0 0 0 0 0 0 0 1
Neighs:    292921 ave 294166 max 291676 min
Histogram: 1 0 0 0 0 0 0 0 0 1

Total # of neighbors = 585842
Ave neighs/atom = 29.8108
Neighbor list builds = 495
Dangerous builds not checked
Setting up Verlet run ...
  Unit style    : metal
  Current step  : 40495
  Time step     : 0.001
Per MPI rank memory allocation (min/avg/max) = 11.26 | 11.26 | 11.26 Mbytes
Step Temp Press TotEng PotEng Enthalpy 
   40495    2393.8561    174.83202   -74074.167   -80154.779   -73982.831 
   50000    2383.3405    549.29506   -74136.744   -80190.646   -73850.034 
Loop time of 459.994 on 2 procs for 9505 steps with 19652 atoms

Performance: 1.785 ns/day, 13.443 hours/ns, 20.663 timesteps/s
99.3% CPU use with 2 MPI tasks x no OpenMP threads

MPI task timing breakdown:
Section |  min time  |  avg time  |  max time  |%varavg| %total
---------------------------------------------------------------
Pair    | 224.02     | 225.56     | 227.1      |  10.2 | 49.04
Neigh   | 204.31     | 204.65     | 204.98     |   2.3 | 44.49
Comm    | 17.514     | 18.779     | 20.045     |  29.2 |  4.08
Output  | 0.038466   | 0.038516   | 0.038566   |   0.0 |  0.01
Modify  | 8.6118     | 8.659      | 8.7061     |   1.6 |  1.88
Other   |            | 2.312      |            |       |  0.50

Nlocal:    9826 ave 9860 max 9792 min
Histogram: 1 0 0 0 0 0 0 0 0 1
Nghost:    8832.5 ave 8860 max 8805 min
Histogram: 1 0 0 0 0 0 0 0 0 1
Neighs:    293222 ave 295009 max 291436 min
Histogram: 1 0 0 0 0 0 0 0 0 1

Total # of neighbors = 586445
Ave neighs/atom = 29.8415
Neighbor list builds = 9505
Dangerous builds not checked
Setting up Verlet run ...
  Unit style    : metal
  Current step  : 50000
  Time step     : 0.001
Per MPI rank memory allocation (min/avg/max) = 11.27 | 11.27 | 11.27 Mbytes
Step Temp Press TotEng PotEng Enthalpy 
   50000    2383.3405    549.29506   -74136.744   -80190.646   -73850.034 
   50495    2362.4092   -61.667663   -74228.919   -80229.654   -74261.122 
Loop time of 21.7298 on 2 procs for 495 steps with 19652 atoms

Performance: 1.968 ns/day, 12.194 hours/ns, 22.780 timesteps/s
99.9% CPU use with 2 MPI tasks x no OpenMP threads

MPI task timing breakdown:
Section |  min time  |  avg time  |  max time  |%varavg| %total
---------------------------------------------------------------
Pair    | 10.389     | 10.395     | 10.401     |   0.2 | 47.84
Neigh   | 9.92       | 9.9987     | 10.077     |   2.5 | 46.01
Comm    | 0.72677    | 0.80257    | 0.87837    |   8.5 |  3.69
Output  | 0.00011897 | 0.0001775  | 0.00023603 |   0.0 |  0.00
Modify  | 0.4206     | 0.42199    | 0.42339    |   0.2 |  1.94
Other   |            | 0.1114     |            |       |  0.51

Nlocal:    9826 ave 9847 max 9805 min
Histogram: 1 0 0 0 0 0 0 0 0 1
Nghost:    8819.5 ave 8833 max 8806 min
Histogram: 1 0 0 0 0 0 0 0 0 1
Neighs:    293132 ave 293950 max 292315 min
Histogram: 1 0 0 0 0 0 0 0 0 1

Total # of neighbors = 586265
Ave neighs/atom = 29.8323
Neighbor list builds = 495
Dangerous builds not checked
Setting up Verlet run ...
  Unit style    : metal
  Current step  : 50495
  Time step     : 0.001
Per MPI rank memory allocation (min/avg/max) = 11.27 | 11.27 | 11.27 Mbytes
Step Temp Press TotEng PotEng Enthalpy 
   50495    2362.4092   -61.667663   -74228.919   -80229.654   -74261.122 
   60000    2349.9346   -508.96409   -74346.697   -80315.745   -74612.386 
Loop time of 472.989 on 2 procs for 9505 steps with 19652 atoms

Performance: 1.736 ns/day, 13.823 hours/ns, 20.096 timesteps/s
98.8% CPU use with 2 MPI tasks x no OpenMP threads

MPI task timing breakdown:
Section |  min time  |  avg time  |  max time  |%varavg| %total
---------------------------------------------------------------
Pair    | 233.88     | 234.21     | 234.55     |   2.2 | 49.52
Neigh   | 204.91     | 207.5      | 210.1      |  18.0 | 43.87
Comm    | 17.087     | 20.071     | 23.055     |  66.6 |  4.24
Output  | 0.022996   | 0.023023   | 0.02305    |   0.0 |  0.00
Modify  | 8.8251     | 8.858      | 8.8909     |   1.1 |  1.87
Other   |            | 2.321      |            |       |  0.49

Nlocal:    9826 ave 9831 max 9821 min
Histogram: 1 0 0 0 0 0 0 0 0 1
Nghost:    8802 ave 8807 max 8797 min
Histogram: 1 0 0 0 0 0 0 0 0 1
Neighs:    293210 ave 293742 max 292679 min
Histogram: 1 0 0 0 0 0 0 0 0 1

Total # of neighbors = 586421
Ave neighs/atom = 29.8403
Neighbor list builds = 9505
Dangerous builds not checked
Setting up Verlet run ...
  Unit style    : metal
  Current step  : 60000
  Time step     : 0.001
Per MPI rank memory allocation (min/avg/max) = 11.27 | 11.27 | 11.27 Mbytes
Step Temp Press TotEng PotEng Enthalpy 
   60000    2349.9346   -508.96409   -74346.697   -80315.745   -74612.386 
   60495    2323.3083   -94.346578   -74483.467   -80384.881   -74532.595 
Loop time of 21.6984 on 2 procs for 495 steps with 19652 atoms

Performance: 1.971 ns/day, 12.176 hours/ns, 22.813 timesteps/s
99.9% CPU use with 2 MPI tasks x no OpenMP threads

MPI task timing breakdown:
Section |  min time  |  avg time  |  max time  |%varavg| %total
---------------------------------------------------------------
Pair    | 10.367     | 10.43      | 10.494     |   2.0 | 48.07
Neigh   | 9.656      | 9.8252     | 9.9945     |   5.4 | 45.28
Comm    | 0.79813    | 0.909      | 1.0199     |  11.6 |  4.19
Output  | 0.00011802 | 0.00019646 | 0.0002749  |   0.0 |  0.00
Modify  | 0.41828    | 0.4218     | 0.42532    |   0.5 |  1.94
Other   |            | 0.1117     |            |       |  0.51

Nlocal:    9826 ave 9857 max 9795 min
Histogram: 1 0 0 0 0 0 0 0 0 1
Nghost:    8856.5 ave 8858 max 8855 min
Histogram: 1 0 0 0 0 0 0 0 0 1
Neighs:    293821 ave 295316 max 292326 min
Histogram: 1 0 0 0 0 0 0 0 0 1

Total # of neighbors = 587642
Ave neighs/atom = 29.9024
Neighbor list builds = 495
Dangerous builds not checked
Setting up Verlet run ...
  Unit style    : metal
  Current step  : 60495
  Time step     : 0.001
Per MPI rank memory allocation (min/avg/max) = 11.27 | 11.27 | 11.27 Mbytes
Step Temp Press TotEng PotEng Enthalpy 
   60495    2323.3083   -94.346578   -74483.467   -80384.881   -74532.595 
   70000    2305.3675    199.55803   -74557.544   -80413.387   -74453.838 
Loop time of 439.544 on 2 procs for 9505 steps with 19652 atoms

Performance: 1.868 ns/day, 12.845 hours/ns, 21.625 timesteps/s
98.8% CPU use with 2 MPI tasks x no OpenMP threads

MPI task timing breakdown:
Section |  min time  |  avg time  |  max time  |%varavg| %total
---------------------------------------------------------------
Pair    | 212.13     | 213.26     | 214.38     |   7.7 | 48.52
Neigh   | 195.56     | 196.13     | 196.7      |   4.1 | 44.62
Comm    | 17.913     | 19.69      | 21.467     |  40.0 |  4.48
Output  | 0.034254   | 0.034297   | 0.03434    |   0.0 |  0.01
Modify  | 8.1952     | 8.2638     | 8.3324     |   2.4 |  1.88
Other   |            | 2.168      |            |       |  0.49

Nlocal:    9826 ave 9833 max 9819 min
Histogram: 1 0 0 0 0 0 0 0 0 1
Nghost:    8796.5 ave 8817 max 8776 min
Histogram: 1 0 0 0 0 0 0 0 0 1
Neighs:    294564 ave 294802 max 294326 min
Histogram: 1 0 0 0 0 0 0 0 0 1

Total # of neighbors = 589128
Ave neighs/atom = 29.978
Neighbor list builds = 9505
Dangerous builds not checked
Setting up Verlet run ...
  Unit style    : metal
  Current step  : 70000
  Time step     : 0.001
Per MPI rank memory allocation (min/avg/max) = 11.28 | 11.28 | 11.28 Mbytes
Step Temp Press TotEng PotEng Enthalpy 
   70000    2305.3675    199.55803   -74557.544   -80413.387   -74453.838 
   70495    2261.0554    276.73094   -74762.947   -80506.234   -74619.376 
Loop time of 22.1184 on 2 procs for 495 steps with 19652 atoms

Performance: 1.934 ns/day, 12.412 hours/ns, 22.380 timesteps/s
99.9% CPU use with 2 MPI tasks x no OpenMP threads

MPI task timing breakdown:
Section |  min time  |  avg time  |  max time  |%varavg| %total
---------------------------------------------------------------
Pair    | 10.688     | 10.723     | 10.757     |   1.1 | 48.48
Neigh   | 10.121     | 10.134     | 10.148     |   0.4 | 45.82
Comm    | 0.67456    | 0.69721    | 0.71987    |   2.7 |  3.15
Output  | 9.6798e-05 | 0.00012934 | 0.00016189 |   0.0 |  0.00
Modify  | 0.43983    | 0.44143    | 0.44303    |   0.2 |  2.00
Other   |            | 0.1226     |            |       |  0.55

Nlocal:    9826 ave 9835 max 9817 min
Histogram: 1 0 0 0 0 0 0 0 0 1
Nghost:    8859.5 ave 8872 max 8847 min
Histogram: 1 0 0 0 0 0 0 0 0 1
Neighs:    295075 ave 295375 max 294775 min
Histogram: 1 0 0 0 0 0 0 0 0 1

Total # of neighbors = 590150
Ave neighs/atom = 30.03
Neighbor list builds = 495
Dangerous builds not checked
Setting up Verlet run ...
  Unit style    : metal
  Current step  : 70495
  Time step     : 0.001
Per MPI rank memory allocation (min/avg/max) = 11.28 | 11.28 | 11.28 Mbytes
Step Temp Press TotEng PotEng Enthalpy 
   70495    2261.0554    276.73094   -74762.947   -80506.234   -74619.376 
   80000    2255.5028    395.78599   -74716.557   -80445.739   -74511.176 
Loop time of 420.196 on 2 procs for 9505 steps with 19652 atoms

Performance: 1.954 ns/day, 12.280 hours/ns, 22.620 timesteps/s
99.8% CPU use with 2 MPI tasks x no OpenMP threads

MPI task timing breakdown:
Section |  min time  |  avg time  |  max time  |%varavg| %total
---------------------------------------------------------------
Pair    | 201.12     | 201.53     | 201.94     |   2.9 | 47.96
Neigh   | 188.48     | 189.2      | 189.92     |   5.2 | 45.03
Comm    | 18.256     | 19.444     | 20.632     |  26.9 |  4.63
Output  | 0.03809    | 0.03819    | 0.03829    |   0.1 |  0.01
Modify  | 7.8631     | 7.9122     | 7.9613     |   1.7 |  1.88
Other   |            | 2.067      |            |       |  0.49

Nlocal:    9826 ave 9851 max 9801 min
Histogram: 1 0 0 0 0 0 0 0 0 1
Nghost:    8878 ave 8924 max 8832 min
Histogram: 1 0 0 0 0 0 0 0 0 1
Neighs:    294693 ave 295263 max 294123 min
Histogram: 1 0 0 0 0 0 0 0 0 1

Total # of neighbors = 589386
Ave neighs/atom = 29.9911
Neighbor list builds = 9505
Dangerous builds not checked
Setting up Verlet run ...
  Unit style    : metal
  Current step  : 80000
  Time step     : 0.001
Per MPI rank memory allocation (min/avg/max) = 11.29 | 11.29 | 11.29 Mbytes
Step Temp Press TotEng PotEng Enthalpy 
   80000    2255.5028    395.78599   -74716.557   -80445.739   -74511.176 
   80495    2202.7351     2.601952   -74919.608   -80514.756   -74918.259 
Loop time of 22.239 on 2 procs for 495 steps with 19652 atoms

Performance: 1.923 ns/day, 12.480 hours/ns, 22.258 timesteps/s
99.4% CPU use with 2 MPI tasks x no OpenMP threads

MPI task timing breakdown:
Section |  min time  |  avg time  |  max time  |%varavg| %total
---------------------------------------------------------------
Pair    | 10.724     | 10.74      | 10.756     |   0.5 | 48.29
Neigh   | 10.044     | 10.114     | 10.183     |   2.2 | 45.48
Comm    | 0.73927    | 0.82659    | 0.91392    |   9.6 |  3.72
Output  | 8.6069e-05 | 0.00011897 | 0.00015187 |   0.0 |  0.00
Modify  | 0.43827    | 0.43899    | 0.43971    |   0.1 |  1.97
Other   |            | 0.1195     |            |       |  0.54

Nlocal:    9826 ave 9851 max 9801 min
Histogram: 1 0 0 0 0 0 0 0 0 1
Nghost:    8810 ave 8811 max 8809 min
Histogram: 1 0 0 0 0 0 0 0 0 1
Neighs:    294910 ave 296056 max 293764 min
Histogram: 1 0 0 0 0 0 0 0 0 1

Total # of neighbors = 589820
Ave neighs/atom = 30.0132
Neighbor list builds = 495
Dangerous builds not checked
Setting up Verlet run ...
  Unit style    : metal
  Current step  : 80495
  Time step     : 0.001
Per MPI rank memory allocation (min/avg/max) = 11.29 | 11.29 | 11.29 Mbytes
Step Temp Press TotEng PotEng Enthalpy 
   80495    2202.7351     2.601952   -74919.608   -80514.756   -74918.259 
   90000    2184.5676   -320.69644   -75070.875   -80619.875   -75237.159 
Loop time of 415.093 on 2 procs for 9505 steps with 19652 atoms

Performance: 1.978 ns/day, 12.131 hours/ns, 22.898 timesteps/s
99.8% CPU use with 2 MPI tasks x no OpenMP threads

MPI task timing breakdown:
Section |  min time  |  avg time  |  max time  |%varavg| %total
---------------------------------------------------------------
Pair    | 197.25     | 199.08     | 200.91     |  13.0 | 47.96
Neigh   | 184.71     | 186.83     | 188.95     |  15.5 | 45.01
Comm    | 18.944     | 19.286     | 19.627     |   7.8 |  4.65
Output  | 0.035565   | 0.035613   | 0.03566    |   0.0 |  0.01
Modify  | 7.8008     | 7.8381     | 7.8753     |   1.3 |  1.89
Other   |            | 2.027      |            |       |  0.49

Nlocal:    9826 ave 9828 max 9824 min
Histogram: 1 0 0 0 0 0 0 0 0 1
Nghost:    8834.5 ave 8839 max 8830 min
Histogram: 1 0 0 0 0 0 0 0 0 1
Neighs:    295137 ave 295142 max 295132 min
Histogram: 1 0 0 0 0 0 0 0 0 1

Total # of neighbors = 590274
Ave neighs/atom = 30.0363
Neighbor list builds = 9505
Dangerous builds not checked
Setting up Verlet run ...
  Unit style    : metal
  Current step  : 90000
  Time step     : 0.001
Per MPI rank memory allocation (min/avg/max) = 11.3 | 11.3 | 11.3 Mbytes
Step Temp Press TotEng PotEng Enthalpy 
   90000    2184.5676   -320.69644   -75070.875   -80619.875   -75237.159 
   90495    2159.8478   -312.33064   -75213.391   -80699.601     -75375.1 
Loop time of 21.0642 on 2 procs for 495 steps with 19652 atoms

Performance: 2.030 ns/day, 11.821 hours/ns, 23.500 timesteps/s
99.9% CPU use with 2 MPI tasks x no OpenMP threads

MPI task timing breakdown:
Section |  min time  |  avg time  |  max time  |%varavg| %total
---------------------------------------------------------------
Pair    | 10.001     | 10.032     | 10.063     |   1.0 | 47.62
Neigh   | 9.4128     | 9.4567     | 9.5006     |   1.4 | 44.89
Comm    | 0.98768    | 1.065      | 1.1423     |   7.5 |  5.06
Output  | 0.0001111  | 0.00017858 | 0.00024605 |   0.0 |  0.00
Modify  | 0.40048    | 0.40269    | 0.40489    |   0.3 |  1.91
Other   |            | 0.1079     |            |       |  0.51

Nlocal:    9826 ave 9830 max 9822 min
Histogram: 1 0 0 0 0 0 0 0 0 1
Nghost:    8823 ave 8834 max 8812 min
Histogram: 1 0 0 0 0 0 0 0 0 1
Neighs:    295562 ave 295845 max 295280 min
Histogram: 1 0 0 0 0 0 0 0 0 1

Total # of neighbors = 591125
Ave neighs/atom = 30.0796
Neighbor list builds = 495
Dangerous builds not checked
Setting up Verlet run ...
  Unit style    : metal
  Current step  : 90495
  Time step     : 0.001
Per MPI rank memory allocation (min/avg/max) = 11.3 | 11.3 | 11.3 Mbytes
Step Temp Press TotEng PotEng Enthalpy 
   90495    2159.8478   -312.33064   -75213.391   -80699.601     -75375.1 
  100000    2163.6736    52.326251   -75192.356   -80688.284   -75165.293 
Loop time of 422.311 on 2 procs for 9505 steps with 19652 atoms

Performance: 1.945 ns/day, 12.342 hours/ns, 22.507 timesteps/s
99.7% CPU use with 2 MPI tasks x no OpenMP threads

MPI task timing breakdown:
Section |  min time  |  avg time  |  max time  |%varavg| %total
---------------------------------------------------------------
Pair    | 202.21     | 202.67     | 203.12     |   3.2 | 47.99
Neigh   | 191.04     | 191.5      | 191.95     |   3.3 | 45.34
Comm    | 17.06      | 18.012     | 18.965     |  22.4 |  4.27
Output  | 0.025554   | 0.025578   | 0.025603   |   0.0 |  0.01
Modify  | 7.9787     | 8.023      | 8.0674     |   1.6 |  1.90
Other   |            | 2.089      |            |       |  0.49

Nlocal:    9826 ave 9841 max 9811 min
Histogram: 1 0 0 0 0 0 0 0 0 1
Nghost:    8812 ave 8853 max 8771 min
Histogram: 1 0 0 0 0 0 0 0 0 1
Neighs:    295848 ave 296454 max 295242 min
Histogram: 1 0 0 0 0 0 0 0 0 1

Total # of neighbors = 591696
Ave neighs/atom = 30.1087
Neighbor list builds = 9505
Dangerous builds not checked
Setting up Verlet run ...
  Unit style    : metal
  Current step  : 100000
  Time step     : 0.001
Per MPI rank memory allocation (min/avg/max) = 11.3 | 11.3 | 11.3 Mbytes
Step Temp Press TotEng PotEng Enthalpy 
  100000    2163.6736    52.326251   -75192.356   -80688.284   -75165.293 
  100495    2102.7976    274.61386    -75457.37   -80798.667   -75315.814 
Loop time of 21.5899 on 2 procs for 495 steps with 19652 atoms

Performance: 1.981 ns/day, 12.116 hours/ns, 22.927 timesteps/s
99.9% CPU use with 2 MPI tasks x no OpenMP threads

MPI task timing breakdown:
Section |  min time  |  avg time  |  max time  |%varavg| %total
---------------------------------------------------------------
Pair    | 10.28      | 10.536     | 10.792     |   7.9 | 48.80
Neigh   | 8.7652     | 9.4562     | 10.147     |  22.5 | 43.80
Comm    | 0.62003    | 1.0804     | 1.5408     |  44.3 |  5.00
Output  | 0.00012898 | 0.00017798 | 0.00022697 |   0.0 |  0.00
Modify  | 0.39187    | 0.41125    | 0.43062    |   3.0 |  1.90
Other   |            | 0.1059     |            |       |  0.49

Nlocal:    9826 ave 9846 max 9806 min
Histogram: 1 0 0 0 0 0 0 0 0 1
Nghost:    8824.5 ave 8847 max 8802 min
Histogram: 1 0 0 0 0 0 0 0 0 1
Neighs:    296872 ave 297387 max 296358 min
Histogram: 1 0 0 0 0 0 0 0 0 1

Total # of neighbors = 593745
Ave neighs/atom = 30.213
Neighbor list builds = 495
Dangerous builds not checked
Setting up Verlet run ...
  Unit style    : metal
  Current step  : 100495
  Time step     : 0.001
Per MPI rank memory allocation (min/avg/max) = 11.3 | 11.3 | 11.3 Mbytes
Step Temp Press TotEng PotEng Enthalpy 
  100495    2102.7976    274.61386    -75457.37   -80798.667   -75315.814 
  110000    2087.1764    174.81403   -75544.413   -80846.031   -75454.354 
Loop time of 421.323 on 2 procs for 9505 steps with 19652 atoms

Performance: 1.949 ns/day, 12.313 hours/ns, 22.560 timesteps/s
99.6% CPU use with 2 MPI tasks x no OpenMP threads

MPI task timing breakdown:
Section |  min time  |  avg time  |  max time  |%varavg| %total
---------------------------------------------------------------
Pair    | 201.77     | 202.28     | 202.79     |   3.6 | 48.01
Neigh   | 188.7      | 190.04     | 191.38     |   9.7 | 45.11
Comm    | 16.951     | 18.884     | 20.816     |  44.5 |  4.48
Output  | 0.028077   | 0.028086   | 0.028094   |   0.0 |  0.01
Modify  | 7.927      | 7.9922     | 8.0574     |   2.3 |  1.90
Other   |            | 2.094      |            |       |  0.50

Nlocal:    9826 ave 9838 max 9814 min
Histogram: 1 0 0 0 0 0 0 0 0 1
Nghost:    8855 ave 8883 max 8827 min
Histogram: 1 0 0 0 0 0 0 0 0 1
Neighs:    297214 ave 297562 max 296866 min
Histogram: 1 0 0 0 0 0 0 0 0 1

Total # of neighbors = 594428
Ave neighs/atom = 30.2477
Neighbor list builds = 9505
Dangerous builds not checked
Setting up Verlet run ...
  Unit style    : metal
  Current step  : 110000
  Time step     : 0.001
Per MPI rank memory allocation (min/avg/max) = 11.31 | 11.31 | 11.31 Mbytes
Step Temp Press TotEng PotEng Enthalpy 
  110000    2087.1764    174.81403   -75544.413   -80846.031   -75454.354 
  110495    2063.5279    25.854038   -75685.545   -80927.094   -75672.238 
Loop time of 19.5403 on 2 procs for 495 steps with 19652 atoms

Performance: 2.189 ns/day, 10.965 hours/ns, 25.332 timesteps/s
100.0% CPU use with 2 MPI tasks x no OpenMP threads

MPI task timing breakdown:
Section |  min time  |  avg time  |  max time  |%varavg| %total
---------------------------------------------------------------
Pair    | 9.1134     | 9.1615     | 9.2097     |   1.6 | 46.89
Neigh   | 8.7703     | 8.8989     | 9.0276     |   4.3 | 45.54
Comm    | 0.93197    | 1.0129     | 1.0938     |   8.0 |  5.18
Output  | 0.000103   | 0.00014055 | 0.0001781  |   0.0 |  0.00
Modify  | 0.37365    | 0.37402    | 0.37439    |   0.1 |  1.91
Other   |            | 0.09272    |            |       |  0.47

Nlocal:    9826 ave 9834 max 9818 min
Histogram: 1 0 0 0 0 0 0 0 0 1
Nghost:    8863.5 ave 8893 max 8834 min
Histogram: 1 0 0 0 0 0 0 0 0 1
Neighs:    297086 ave 297719 max 296453 min
Histogram: 1 0 0 0 0 0 0 0 0 1

Total # of neighbors = 594172
Ave neighs/atom = 30.2347
Neighbor list builds = 495
Dangerous builds not checked
Setting up Verlet run ...
  Unit style    : metal
  Current step  : 110495
  Time step     : 0.001
Per MPI rank memory allocation (min/avg/max) = 11.31 | 11.31 | 11.31 Mbytes
Step Temp Press TotEng PotEng Enthalpy 
  110495    2063.5279    25.854038   -75685.545   -80927.094   -75672.238 
  120000    2065.0217   -663.82417   -75686.374   -80931.718   -76028.971 
Loop time of 457.74 on 2 procs for 9505 steps with 19652 atoms

Performance: 1.794 ns/day, 13.377 hours/ns, 20.765 timesteps/s
97.6% CPU use with 2 MPI tasks x no OpenMP threads

MPI task timing breakdown:
Section |  min time  |  avg time  |  max time  |%varavg| %total
---------------------------------------------------------------
Pair    | 218.71     | 220.32     | 221.93     |  10.9 | 48.13
Neigh   | 193.79     | 197.57     | 201.35     |  26.9 | 43.16
Comm    | 24.403     | 26.639     | 28.876     |  43.3 |  5.82
Output  | 0.034771   | 0.034788   | 0.034805   |   0.0 |  0.01
Modify  | 10.961     | 11         | 11.038     |   1.2 |  2.40
Other   |            | 2.179      |            |       |  0.48

Nlocal:    9826 ave 9831 max 9821 min
Histogram: 1 0 0 0 0 0 0 0 0 1
Nghost:    8839 ave 8841 max 8837 min
Histogram: 1 0 0 0 0 0 0 0 0 1
Neighs:    296430 ave 296892 max 295968 min
Histogram: 1 0 0 0 0 0 0 0 0 1

Total # of neighbors = 592860
Ave neighs/atom = 30.1679
Neighbor list builds = 9505
Dangerous builds not checked
Setting up Verlet run ...
  Unit style    : metal
  Current step  : 120000
  Time step     : 0.001
Per MPI rank memory allocation (min/avg/max) = 11.31 | 11.31 | 11.31 Mbytes
Step Temp Press TotEng PotEng Enthalpy 
  120000    2065.0217   -663.82417   -75686.374   -80931.718   -76028.971 
  120495    2013.6901   -553.02869   -75918.067   -81033.023   -76202.663 
Loop time of 20.5201 on 2 procs for 495 steps with 19652 atoms

Performance: 2.084 ns/day, 11.515 hours/ns, 24.123 timesteps/s
99.9% CPU use with 2 MPI tasks x no OpenMP threads

MPI task timing breakdown:
Section |  min time  |  avg time  |  max time  |%varavg| %total
---------------------------------------------------------------
Pair    | 9.7484     | 9.7978     | 9.8471     |   1.6 | 47.75
Neigh   | 9.0864     | 9.2626     | 9.4387     |   5.8 | 45.14
Comm    | 0.82947    | 0.96741    | 1.1054     |  14.0 |  4.71
Output  | 9.9897e-05 | 0.00017142 | 0.00024295 |   0.0 |  0.00
Modify  | 0.38608    | 0.39423    | 0.40238    |   1.3 |  1.92
Other   |            | 0.09795    |            |       |  0.48

Nlocal:    9826 ave 9829 max 9823 min
Histogram: 1 0 0 0 0 0 0 0 0 1
Nghost:    8845 ave 8849 max 8841 min
Histogram: 1 0 0 0 0 0 0 0 0 1
Neighs:    297270 ave 297272 max 297269 min
Histogram: 1 0 0 0 0 0 0 0 0 1

Total # of neighbors = 594541
Ave neighs/atom = 30.2535
Neighbor list builds = 495
Dangerous builds not checked
Setting up Verlet run ...
  Unit style    : metal
  Current step  : 120495
  Time step     : 0.001
Per MPI rank memory allocation (min/avg/max) = 11.31 | 11.31 | 11.31 Mbytes
Step Temp Press TotEng PotEng Enthalpy 
  120495    2013.6901   -553.02869   -75918.067   -81033.023   -76202.663 
  130000    2003.3547    274.98709   -75995.626    -81084.33   -75854.729 
Loop time of 411.312 on 2 procs for 9505 steps with 19652 atoms

Performance: 1.997 ns/day, 12.020 hours/ns, 23.109 timesteps/s
99.7% CPU use with 2 MPI tasks x no OpenMP threads

MPI task timing breakdown:
Section |  min time  |  avg time  |  max time  |%varavg| %total
---------------------------------------------------------------
Pair    | 196.33     | 197.63     | 198.92     |   9.2 | 48.05
Neigh   | 182.83     | 185.72     | 188.61     |  21.2 | 45.15
Comm    | 16.452     | 18.129     | 19.806     |  39.4 |  4.41
Output  | 0.035914   | 0.035933   | 0.035952   |   0.0 |  0.01
Modify  | 7.6693     | 7.7257     | 7.7821     |   2.0 |  1.88
Other   |            | 2.075      |            |       |  0.50

Nlocal:    9826 ave 9829 max 9823 min
Histogram: 1 0 0 0 0 0 0 0 0 1
Nghost:    8877.5 ave 8879 max 8876 min
Histogram: 1 0 0 0 0 0 0 0 0 1
Neighs:    298774 ave 299154 max 298395 min
Histogram: 1 0 0 0 0 0 0 0 0 1

Total # of neighbors = 597549
Ave neighs/atom = 30.4065
Neighbor list builds = 9505
Dangerous builds not checked
Setting up Verlet run ...
  Unit style    : metal
  Current step  : 130000
  Time step     : 0.001
Per MPI rank memory allocation (min/avg/max) = 11.31 | 11.31 | 11.31 Mbytes
Step Temp Press TotEng PotEng Enthalpy 
  130000    2003.3547    274.98709   -75995.626    -81084.33   -75854.729 
  130495    1974.8598     334.5095    -76151.24   -81167.564   -75980.042 
Loop time of 20.4703 on 2 procs for 495 steps with 19652 atoms

Performance: 2.089 ns/day, 11.487 hours/ns, 24.181 timesteps/s
99.7% CPU use with 2 MPI tasks x no OpenMP threads

MPI task timing breakdown:
Section |  min time  |  avg time  |  max time  |%varavg| %total
---------------------------------------------------------------
Pair    | 9.6848     | 9.7283     | 9.7719     |   1.4 | 47.52
Neigh   | 9.2474     | 9.4266     | 9.6057     |   5.8 | 46.05
Comm    | 0.66756    | 0.81223    | 0.95689    |  16.1 |  3.97
Output  | 7.8917e-05 | 0.00014997 | 0.00022101 |   0.0 |  0.00
Modify  | 0.39188    | 0.39914    | 0.40639    |   1.1 |  1.95
Other   |            | 0.1038     |            |       |  0.51

Nlocal:    9826 ave 9826 max 9826 min
Histogram: 2 0 0 0 0 0 0 0 0 0
Nghost:    8882.5 ave 8908 max 8857 min
Histogram: 1 0 0 0 0 0 0 0 0 1
Neighs:    298788 ave 298895 max 298682 min
Histogram: 1 0 0 0 0 0 0 0 0 1

Total # of neighbors = 597577
Ave neighs/atom = 30.4079
Neighbor list builds = 495
Dangerous builds not checked
Setting up Verlet run ...
  Unit style    : metal
  Current step  : 130495
  Time step     : 0.001
Per MPI rank memory allocation (min/avg/max) = 11.31 | 11.31 | 11.31 Mbytes
Step Temp Press TotEng PotEng Enthalpy 
  130495    1974.8598     334.5095    -76151.24   -81167.564   -75980.042 
  140000    1956.3047    886.49331   -76213.951   -81183.144   -75761.271 
Loop time of 423.596 on 2 procs for 9505 steps with 19652 atoms

Performance: 1.939 ns/day, 12.379 hours/ns, 22.439 timesteps/s
99.5% CPU use with 2 MPI tasks x no OpenMP threads

MPI task timing breakdown:
Section |  min time  |  avg time  |  max time  |%varavg| %total
---------------------------------------------------------------
Pair    | 204.52     | 204.98     | 205.43     |   3.2 | 48.39
Neigh   | 188.54     | 189.61     | 190.67     |   7.7 | 44.76
Comm    | 17.402     | 18.944     | 20.486     |  35.4 |  4.47
Output  | 0.037365   | 0.037387   | 0.037409   |   0.0 |  0.01
Modify  | 7.9395     | 7.9485     | 7.9574     |   0.3 |  1.88
Other   |            | 2.08       |            |       |  0.49

Nlocal:    9826 ave 9834 max 9818 min
Histogram: 1 0 0 0 0 0 0 0 0 1
Nghost:    8852 ave 8864 max 8840 min
Histogram: 1 0 0 0 0 0 0 0 0 1
Neighs:    299440 ave 300201 max 298680 min
Histogram: 1 0 0 0 0 0 0 0 0 1

Total # of neighbors = 598881
Ave neighs/atom = 30.4743
Neighbor list builds = 9505
Dangerous builds not checked
Setting up Verlet run ...
  Unit style    : metal
  Current step  : 140000
  Time step     : 0.001
Per MPI rank memory allocation (min/avg/max) = 11.32 | 11.32 | 11.32 Mbytes
Step Temp Press TotEng PotEng Enthalpy 
  140000    1956.3047    886.49331   -76213.951   -81183.144   -75761.271 
  140495    1914.2018     422.3667   -76420.922   -81283.169   -76205.375 
Loop time of 21.9173 on 2 procs for 495 steps with 19652 atoms

Performance: 1.951 ns/day, 12.299 hours/ns, 22.585 timesteps/s
99.8% CPU use with 2 MPI tasks x no OpenMP threads

MPI task timing breakdown:
Section |  min time  |  avg time  |  max time  |%varavg| %total
---------------------------------------------------------------
Pair    | 10.448     | 10.509     | 10.57      |   1.9 | 47.95
Neigh   | 10.096     | 10.13      | 10.165     |   1.1 | 46.22
Comm    | 0.6988     | 0.72917    | 0.75954    |   3.6 |  3.33
Output  | 9.5844e-05 | 0.00015545 | 0.00021505 |   0.0 |  0.00
Modify  | 0.43131    | 0.43337    | 0.43543    |   0.3 |  1.98
Other   |            | 0.1154     |            |       |  0.53

Nlocal:    9826 ave 9834 max 9818 min
Histogram: 1 0 0 0 0 0 0 0 0 1
Nghost:    8855 ave 8859 max 8851 min
Histogram: 1 0 0 0 0 0 0 0 0 1
Neighs:    299781 ave 300135 max 299427 min
Histogram: 1 0 0 0 0 0 0 0 0 1

Total # of neighbors = 599562
Ave neighs/atom = 30.509
Neighbor list builds = 495
Dangerous builds not checked
Setting up Verlet run ...
  Unit style    : metal
  Current step  : 140495
  Time step     : 0.001
Per MPI rank memory allocation (min/avg/max) = 11.32 | 11.32 | 11.32 Mbytes
Step Temp Press TotEng PotEng Enthalpy 
  140495    1914.2018     422.3667   -76420.922   -81283.169   -76205.375 
  150000    1879.8418    -146.1907   -76504.123   -81279.092   -76578.858 
Loop time of 422.903 on 2 procs for 9505 steps with 19652 atoms

Performance: 1.942 ns/day, 12.359 hours/ns, 22.476 timesteps/s
99.6% CPU use with 2 MPI tasks x no OpenMP threads

MPI task timing breakdown:
Section |  min time  |  avg time  |  max time  |%varavg| %total
---------------------------------------------------------------
Pair    | 203.04     | 203.6      | 204.16     |   3.9 | 48.14
Neigh   | 189.51     | 190.32     | 191.12     |   5.8 | 45.00
Comm    | 18.724     | 18.978     | 19.232     |   5.8 |  4.49
Output  | 0.033296   | 0.033317   | 0.033337   |   0.0 |  0.01
Modify  | 7.9033     | 7.9052     | 7.907      |   0.1 |  1.87
Other   |            | 2.074      |            |       |  0.49

Nlocal:    9826 ave 9838 max 9814 min
Histogram: 1 0 0 0 0 0 0 0 0 1
Nghost:    8870.5 ave 8873 max 8868 min
Histogram: 1 0 0 0 0 0 0 0 0 1
Neighs:    299304 ave 300044 max 298563 min
Histogram: 1 0 0 0 0 0 0 0 0 1

Total # of neighbors = 598607
Ave neighs/atom = 30.4604
Neighbor list builds = 9505
Dangerous builds not checked
Setting up Verlet run ...
  Unit style    : metal
  Current step  : 150000
  Time step     : 0.001
Per MPI rank memory allocation (min/avg/max) = 11.32 | 11.32 | 11.32 Mbytes
Step Temp Press TotEng PotEng Enthalpy 
  150000    1879.8418    -146.1907   -76504.123   -81279.092   -76578.858 
  150495    1867.0334   -215.38153   -76599.651   -81342.086   -76709.673 
Loop time of 21.5455 on 2 procs for 495 steps with 19652 atoms

Performance: 1.985 ns/day, 12.091 hours/ns, 22.975 timesteps/s
99.9% CPU use with 2 MPI tasks x no OpenMP threads

MPI task timing breakdown:
Section |  min time  |  avg time  |  max time  |%varavg| %total
---------------------------------------------------------------
Pair    | 10.284     | 10.289     | 10.294     |   0.2 | 47.76
Neigh   | 9.9698     | 9.9931     | 10.017     |   0.7 | 46.38
Comm    | 0.68558    | 0.70771    | 0.72983    |   2.6 |  3.28
Output  | 0.000108   | 0.00018501 | 0.00026202 |   0.0 |  0.00
Modify  | 0.43471    | 0.43537    | 0.43603    |   0.1 |  2.02
Other   |            | 0.1198     |            |       |  0.56

Nlocal:    9826 ave 9840 max 9812 min
Histogram: 1 0 0 0 0 0 0 0 0 1
Nghost:    8873.5 ave 8875 max 8872 min
Histogram: 1 0 0 0 0 0 0 0 0 1
Neighs:    299576 ave 300218 max 298933 min
Histogram: 1 0 0 0 0 0 0 0 0 1

Total # of neighbors = 599151
Ave neighs/atom = 30.488
Neighbor list builds = 495
Dangerous builds not checked
Setting up Verlet run ...
  Unit style    : metal
  Current step  : 150495
  Time step     : 0.001
Per MPI rank memory allocation (min/avg/max) = 11.32 | 11.32 | 11.32 Mbytes
Step Temp Press TotEng PotEng Enthalpy 
  150495    1867.0334   -215.38153   -76599.651   -81342.086   -76709.673 
  160000    1850.4664    323.74955   -76709.147     -81409.5   -76544.246 
Loop time of 431.065 on 2 procs for 9505 steps with 19652 atoms

Performance: 1.905 ns/day, 12.598 hours/ns, 22.050 timesteps/s
99.7% CPU use with 2 MPI tasks x no OpenMP threads

MPI task timing breakdown:
Section |  min time  |  avg time  |  max time  |%varavg| %total
---------------------------------------------------------------
Pair    | 205.93     | 206.1      | 206.27     |   1.2 | 47.81
Neigh   | 195.45     | 195.82     | 196.18     |   2.6 | 45.43
Comm    | 18.524     | 19.068     | 19.611     |  12.4 |  4.42
Output  | 0.03704    | 0.037059   | 0.037079   |   0.0 |  0.01
Modify  | 7.9518     | 7.9669     | 7.982      |   0.5 |  1.85
Other   |            | 2.076      |            |       |  0.48

Nlocal:    9826 ave 9844 max 9808 min
Histogram: 1 0 0 0 0 0 0 0 0 1
Nghost:    8898.5 ave 8923 max 8874 min
Histogram: 1 0 0 0 0 0 0 0 0 1
Neighs:    300642 ave 303806 max 297477 min
Histogram: 1 0 0 0 0 0 0 0 0 1

Total # of neighbors = 601283
Ave neighs/atom = 30.5965
Neighbor list builds = 9505
Dangerous builds not checked
Setting up Verlet run ...
  Unit style    : metal
  Current step  : 160000
  Time step     : 0.001
Per MPI rank memory allocation (min/avg/max) = 11.32 | 11.32 | 11.32 Mbytes
Step Temp Press TotEng PotEng Enthalpy 
  160000    1850.4664    323.74955   -76709.147     -81409.5   -76544.246 
  160495    1809.5158    507.88518   -76934.868   -81531.203   -76676.886 
Loop time of 22.2291 on 2 procs for 495 steps with 19652 atoms

Performance: 1.924 ns/day, 12.474 hours/ns, 22.268 timesteps/s
99.1% CPU use with 2 MPI tasks x no OpenMP threads

MPI task timing breakdown:
Section |  min time  |  avg time  |  max time  |%varavg| %total
---------------------------------------------------------------
Pair    | 10.512     | 10.58      | 10.648     |   2.1 | 47.60
Neigh   | 10.309     | 10.324     | 10.34      |   0.5 | 46.44
Comm    | 0.71515    | 0.80151    | 0.88786    |   9.6 |  3.61
Output  | 0.00010085 | 0.00018239 | 0.00026393 |   0.0 |  0.00
Modify  | 0.41202    | 0.41395    | 0.41588    |   0.3 |  1.86
Other   |            | 0.1091     |            |       |  0.49

Nlocal:    9826 ave 9827 max 9825 min
Histogram: 1 0 0 0 0 0 0 0 0 1
Nghost:    8922 ave 8945 max 8899 min
Histogram: 1 0 0 0 0 0 0 0 0 1
Neighs:    301263 ave 303553 max 298973 min
Histogram: 1 0 0 0 0 0 0 0 0 1

Total # of neighbors = 602526
Ave neighs/atom = 30.6598
Neighbor list builds = 495
Dangerous builds not checked
Setting up Verlet run ...
  Unit style    : metal
  Current step  : 160495
  Time step     : 0.001
Per MPI rank memory allocation (min/avg/max) = 11.32 | 11.32 | 11.32 Mbytes
Step Temp Press TotEng PotEng Enthalpy 
  160495    1809.5158    507.88518   -76934.868   -81531.203   -76676.886 
  170000    1792.3345   -666.75461   -76945.609   -81498.302    -77285.69 
Loop time of 439.187 on 2 procs for 9505 steps with 19652 atoms

Performance: 1.870 ns/day, 12.835 hours/ns, 21.642 timesteps/s
98.8% CPU use with 2 MPI tasks x no OpenMP threads

MPI task timing breakdown:
Section |  min time  |  avg time  |  max time  |%varavg| %total
---------------------------------------------------------------
Pair    | 208.79     | 209.65     | 210.52     |   6.0 | 47.74
Neigh   | 197.73     | 198.68     | 199.64     |   6.8 | 45.24
Comm    | 18.958     | 20.838     | 22.718     |  41.2 |  4.74
Output  | 0.032738   | 0.032758   | 0.032778   |   0.0 |  0.01
Modify  | 7.8487     | 7.8953     | 7.9418     |   1.7 |  1.80
Other   |            | 2.084      |            |       |  0.47

Nlocal:    9826 ave 9827 max 9825 min
Histogram: 1 0 0 0 0 0 0 0 0 1
Nghost:    8889.5 ave 8905 max 8874 min
Histogram: 1 0 0 0 0 0 0 0 0 1
Neighs:    299951 ave 302054 max 297848 min
Histogram: 1 0 0 0 0 0 0 0 0 1

Total # of neighbors = 599902
Ave neighs/atom = 30.5263
Neighbor list builds = 9505
Dangerous builds not checked
Setting up Verlet run ...
  Unit style    : metal
  Current step  : 170000
  Time step     : 0.001
Per MPI rank memory allocation (min/avg/max) = 11.33 | 11.33 | 11.33 Mbytes
Step Temp Press TotEng PotEng Enthalpy 
  170000    1792.3345   -666.75461   -76945.609   -81498.302    -77285.69 
  170495    1749.0266   -559.84227   -77134.981   -81577.668   -77419.919 
Loop time of 24.0723 on 2 procs for 495 steps with 19652 atoms

Performance: 1.777 ns/day, 13.509 hours/ns, 20.563 timesteps/s
99.9% CPU use with 2 MPI tasks x no OpenMP threads

MPI task timing breakdown:
Section |  min time  |  avg time  |  max time  |%varavg| %total
---------------------------------------------------------------
Pair    | 11.516     | 11.543     | 11.571     |   0.8 | 47.95
Neigh   | 11.075     | 11.126     | 11.177     |   1.5 | 46.22
Comm    | 0.73853    | 0.81964    | 0.90074    |   9.0 |  3.40
Output  | 8.1062e-05 | 0.00012207 | 0.00016308 |   0.0 |  0.00
Modify  | 0.45757    | 0.45961    | 0.46164    |   0.3 |  1.91
Other   |            | 0.1238     |            |       |  0.51

Nlocal:    9826 ave 9828 max 9824 min
Histogram: 1 0 0 0 0 0 0 0 0 1
Nghost:    8903 ave 8922 max 8884 min
Histogram: 1 0 0 0 0 0 0 0 0 1
Neighs:    300616 ave 302851 max 298381 min
Histogram: 1 0 0 0 0 0 0 0 0 1

Total # of neighbors = 601232
Ave neighs/atom = 30.5939
Neighbor list builds = 495
Dangerous builds not checked
Setting up Verlet run ...
  Unit style    : metal
  Current step  : 170495
  Time step     : 0.001
Per MPI rank memory allocation (min/avg/max) = 11.33 | 11.33 | 11.33 Mbytes
Step Temp Press TotEng PotEng Enthalpy 
  170495    1749.0266   -559.84227   -77134.981   -81577.668   -77419.919 
  180000    1754.0049   -529.66933   -77176.582   -81631.914   -77445.998 
Loop time of 438.546 on 2 procs for 9505 steps with 19652 atoms

Performance: 1.873 ns/day, 12.816 hours/ns, 21.674 timesteps/s
99.5% CPU use with 2 MPI tasks x no OpenMP threads

MPI task timing breakdown:
Section |  min time  |  avg time  |  max time  |%varavg| %total
---------------------------------------------------------------
Pair    | 207.12     | 208.33     | 209.54     |   8.4 | 47.50
Neigh   | 198.37     | 200.67     | 202.96     |  16.2 | 45.76
Comm    | 17.89      | 19.007     | 20.125     |  25.6 |  4.33
Output  | 0.035278   | 0.035291   | 0.035304   |   0.0 |  0.01
Modify  | 8.398      | 8.4153     | 8.4326     |   0.6 |  1.92
Other   |            | 2.095      |            |       |  0.48

Nlocal:    9826 ave 9839 max 9813 min
Histogram: 1 0 0 0 0 0 0 0 0 1
Nghost:    8894 ave 8904 max 8884 min
Histogram: 1 0 0 0 0 0 0 0 0 1
Neighs:    300818 ave 303739 max 297897 min
Histogram: 1 0 0 0 0 0 0 0 0 1

Total # of neighbors = 601636
Ave neighs/atom = 30.6145
Neighbor list builds = 9505
Dangerous builds not checked
Setting up Verlet run ...
  Unit style    : metal
  Current step  : 180000
  Time step     : 0.001
Per MPI rank memory allocation (min/avg/max) = 11.33 | 11.33 | 11.33 Mbytes
Step Temp Press TotEng PotEng Enthalpy 
  180000    1754.0049   -529.66933   -77176.582   -81631.914   -77445.998 
  180495     1692.386   -378.54268    -77373.06   -81671.875   -77565.263 
Loop time of 20.6974 on 2 procs for 495 steps with 19652 atoms

Performance: 2.066 ns/day, 11.615 hours/ns, 23.916 timesteps/s
99.9% CPU use with 2 MPI tasks x no OpenMP threads

MPI task timing breakdown:
Section |  min time  |  avg time  |  max time  |%varavg| %total
---------------------------------------------------------------
Pair    | 9.6814     | 9.7225     | 9.7636     |   1.3 | 46.97
Neigh   | 9.2445     | 9.3762     | 9.5079     |   4.3 | 45.30
Comm    | 1.0156     | 1.1167     | 1.2178     |   9.6 |  5.40
Output  | 0.00015497 | 0.0002445  | 0.00033402 |   0.0 |  0.00
Modify  | 0.37069    | 0.37873    | 0.38677    |   1.3 |  1.83
Other   |            | 0.1031     |            |       |  0.50

Nlocal:    9826 ave 9834 max 9818 min
Histogram: 1 0 0 0 0 0 0 0 0 1
Nghost:    8901 ave 8901 max 8901 min
Histogram: 2 0 0 0 0 0 0 0 0 0
Neighs:    301405 ave 304069 max 298741 min
Histogram: 1 0 0 0 0 0 0 0 0 1

Total # of neighbors = 602810
Ave neighs/atom = 30.6742
Neighbor list builds = 495
Dangerous builds not checked
Setting up Verlet run ...
  Unit style    : metal
  Current step  : 180495
  Time step     : 0.001
Per MPI rank memory allocation (min/avg/max) = 11.33 | 11.33 | 11.33 Mbytes
Step Temp Press TotEng PotEng Enthalpy 
  180495     1692.386   -378.54268    -77373.06   -81671.875   -77565.263 
  190000    1701.9167   -272.52154   -77453.371   -81776.395   -77591.478 
Loop time of 436.462 on 2 procs for 9505 steps with 19652 atoms

Performance: 1.882 ns/day, 12.755 hours/ns, 21.777 timesteps/s
99.5% CPU use with 2 MPI tasks x no OpenMP threads

MPI task timing breakdown:
Section |  min time  |  avg time  |  max time  |%varavg| %total
---------------------------------------------------------------
Pair    | 206.6      | 207.57     | 208.54     |   6.7 | 47.56
Neigh   | 199.31     | 200.57     | 201.83     |   8.9 | 45.95
Comm    | 15.928     | 18.237     | 20.545     |  54.1 |  4.18
Output  | 0.029708   | 0.02974    | 0.029773   |   0.0 |  0.01
Modify  | 7.9002     | 7.9659     | 8.0317     |   2.3 |  1.83
Other   |            | 2.092      |            |       |  0.48

Nlocal:    9826 ave 9832 max 9820 min
Histogram: 1 0 0 0 0 0 0 0 0 1
Nghost:    8879.5 ave 8897 max 8862 min
Histogram: 1 0 0 0 0 0 0 0 0 1
Neighs:    301752 ave 303678 max 299826 min
Histogram: 1 0 0 0 0 0 0 0 0 1

Total # of neighbors = 603504
Ave neighs/atom = 30.7095
Neighbor list builds = 9505
Dangerous builds not checked
Setting up Verlet run ...
  Unit style    : metal
  Current step  : 190000
  Time step     : 0.001
Per MPI rank memory allocation (min/avg/max) = 11.33 | 11.33 | 11.33 Mbytes
Step Temp Press TotEng PotEng Enthalpy 
  190000    1701.9167   -272.52154   -77453.371   -81776.395   -77591.478 
  190495     1657.134   -216.69288   -77613.871   -81823.142   -77723.529 
Loop time of 19.9962 on 2 procs for 495 steps with 19652 atoms

Performance: 2.139 ns/day, 11.221 hours/ns, 24.755 timesteps/s
98.5% CPU use with 2 MPI tasks x no OpenMP threads

MPI task timing breakdown:
Section |  min time  |  avg time  |  max time  |%varavg| %total
---------------------------------------------------------------
Pair    | 9.045      | 9.2137     | 9.3825     |   5.6 | 46.08
Neigh   | 8.669      | 9.0692     | 9.4694     |  13.3 | 45.35
Comm    | 1.0137     | 1.2629     | 1.5121     |  22.2 |  6.32
Output  | 9.8944e-05 | 0.00016296 | 0.00022697 |   0.0 |  0.00
Modify  | 0.34141    | 0.35488    | 0.36835    |   2.3 |  1.77
Other   |            | 0.09536    |            |       |  0.48

Nlocal:    9826 ave 9843 max 9809 min
Histogram: 1 0 0 0 0 0 0 0 0 1
Nghost:    8917 ave 8975 max 8859 min
Histogram: 1 0 0 0 0 0 0 0 0 1
Neighs:    302430 ave 305330 max 299529 min
Histogram: 1 0 0 0 0 0 0 0 0 1

Total # of neighbors = 604859
Ave neighs/atom = 30.7785
Neighbor list builds = 495
Dangerous builds not checked
Setting up Verlet run ...
  Unit style    : metal
  Current step  : 190495
  Time step     : 0.001
Per MPI rank memory allocation (min/avg/max) = 11.33 | 11.33 | 11.33 Mbytes
Step Temp Press TotEng PotEng Enthalpy 
  190495     1657.134   -216.69288   -77613.871   -81823.142   -77723.529 
  200000    1681.4922    24.838256   -77605.364   -81876.508   -77592.807 
Loop time of 430.381 on 2 procs for 9505 steps with 19652 atoms

Performance: 1.908 ns/day, 12.578 hours/ns, 22.085 timesteps/s
99.1% CPU use with 2 MPI tasks x no OpenMP threads

MPI task timing breakdown:
Section |  min time  |  avg time  |  max time  |%varavg| %total
---------------------------------------------------------------
Pair    | 202.58     | 204.38     | 206.18     |  12.6 | 47.49
Neigh   | 196.05     | 198.1      | 200.15     |  14.6 | 46.03
Comm    | 17.709     | 18.002     | 18.295     |   6.9 |  4.18
Output  | 0.025421   | 0.025448   | 0.025475   |   0.0 |  0.01
Modify  | 7.8155     | 7.8339     | 7.8523     |   0.7 |  1.82
Other   |            | 2.036      |            |       |  0.47

Nlocal:    9826 ave 9832 max 9820 min
Histogram: 1 0 0 0 0 0 0 0 0 1
Nghost:    8977 ave 8995 max 8959 min
Histogram: 1 0 0 0 0 0 0 0 0 1
Neighs:    302602 ave 304530 max 300673 min
Histogram: 1 0 0 0 0 0 0 0 0 1

Total # of neighbors = 605203
Ave neighs/atom = 30.796
Neighbor list builds = 9505
Dangerous builds not checked
Setting up Verlet run ...
  Unit style    : metal
  Current step  : 200000
  Time step     : 0.001
Per MPI rank memory allocation (min/avg/max) = 11.33 | 11.33 | 11.33 Mbytes
Step Temp Press TotEng PotEng Enthalpy 
  200000    1681.4922    24.838256   -77605.364   -81876.508   -77592.807 
  200495    1610.9965    123.44192    -77852.88   -81944.958   -77790.604 
Loop time of 20.0553 on 2 procs for 495 steps with 19652 atoms

Performance: 2.133 ns/day, 11.254 hours/ns, 24.682 timesteps/s
99.9% CPU use with 2 MPI tasks x no OpenMP threads

MPI task timing breakdown:
Section |  min time  |  avg time  |  max time  |%varavg| %total
---------------------------------------------------------------
Pair    | 9.3658     | 9.4285     | 9.4911     |   2.0 | 47.01
Neigh   | 8.9368     | 9.1454     | 9.3539     |   6.9 | 45.60
Comm    | 0.87265    | 1.0294     | 1.1861     |  15.4 |  5.13
Output  | 8.3923e-05 | 0.00011992 | 0.00015593 |   0.0 |  0.00
Modify  | 0.35178    | 0.36035    | 0.36892    |   1.4 |  1.80
Other   |            | 0.09161    |            |       |  0.46

Nlocal:    9826 ave 9850 max 9802 min
Histogram: 1 0 0 0 0 0 0 0 0 1
Nghost:    8946.5 ave 8971 max 8922 min
Histogram: 1 0 0 0 0 0 0 0 0 1
Neighs:    303134 ave 306585 max 299684 min
Histogram: 1 0 0 0 0 0 0 0 0 1

Total # of neighbors = 606269
Ave neighs/atom = 30.8502
Neighbor list builds = 495
Dangerous builds not checked
Setting up Verlet run ...
  Unit style    : metal
  Current step  : 200495
  Time step     : 0.001
Per MPI rank memory allocation (min/avg/max) = 11.33 | 11.33 | 11.33 Mbytes
Step Temp Press TotEng PotEng Enthalpy 
  200495    1610.9965    123.44192    -77852.88   -81944.958   -77790.604 
  210000    1611.7216    357.56656   -77932.572   -82026.491   -77752.563 
Loop time of 424.145 on 2 procs for 9505 steps with 19652 atoms

Performance: 1.936 ns/day, 12.395 hours/ns, 22.410 timesteps/s
99.4% CPU use with 2 MPI tasks x no OpenMP threads

MPI task timing breakdown:
Section |  min time  |  avg time  |  max time  |%varavg| %total
---------------------------------------------------------------
Pair    | 199.71     | 200.93     | 202.16     |   8.6 | 47.37
Neigh   | 194.83     | 195.37     | 195.91     |   3.9 | 46.06
Comm    | 16.269     | 18.09      | 19.91      |  42.8 |  4.26
Output  | 0.035634   | 0.035638   | 0.035642   |   0.0 |  0.01
Modify  | 7.6623     | 7.7088     | 7.7553     |   1.7 |  1.82
Other   |            | 2.009      |            |       |  0.47

Nlocal:    9826 ave 9847 max 9805 min
Histogram: 1 0 0 0 0 0 0 0 0 1
Nghost:    8940.5 ave 8946 max 8935 min
Histogram: 1 0 0 0 0 0 0 0 0 1
Neighs:    303880 ave 307139 max 300622 min
Histogram: 1 0 0 0 0 0 0 0 0 1

Total # of neighbors = 607761
Ave neighs/atom = 30.9262
Neighbor list builds = 9505
Dangerous builds not checked
Setting up Verlet run ...
  Unit style    : metal
  Current step  : 210000
  Time step     : 0.001
Per MPI rank memory allocation (min/avg/max) = 11.33 | 11.33 | 11.33 Mbytes
Step Temp Press TotEng PotEng Enthalpy 
  210000    1611.7216    357.56656   -77932.572   -82026.491   -77752.563 
  210495    1566.9148    446.22936   -78073.246   -82053.352   -77848.878 
Loop time of 17.788 on 2 procs for 495 steps with 19652 atoms

Performance: 2.404 ns/day, 9.982 hours/ns, 27.828 timesteps/s
98.5% CPU use with 2 MPI tasks x no OpenMP threads

MPI task timing breakdown:
Section |  min time  |  avg time  |  max time  |%varavg| %total
---------------------------------------------------------------
Pair    | 8.1974     | 8.2174     | 8.2375     |   0.7 | 46.20
Neigh   | 8.3672     | 8.4254     | 8.4837     |   2.0 | 47.37
Comm    | 0.71475    | 0.75468    | 0.79462    |   4.6 |  4.24
Output  | 8.7976e-05 | 0.0001179  | 0.00014782 |   0.0 |  0.00
Modify  | 0.307      | 0.30815    | 0.30931    |   0.2 |  1.73
Other   |            | 0.08217    |            |       |  0.46

Nlocal:    9826 ave 9838 max 9814 min
Histogram: 1 0 0 0 0 0 0 0 0 1
Nghost:    8959.5 ave 8971 max 8948 min
Histogram: 1 0 0 0 0 0 0 0 0 1
Neighs:    304116 ave 307207 max 301024 min
Histogram: 1 0 0 0 0 0 0 0 0 1

Total # of neighbors = 608231
Ave neighs/atom = 30.9501
Neighbor list builds = 495
Dangerous builds not checked
Setting up Verlet run ...
  Unit style    : metal
  Current step  : 210495
  Time step     : 0.001
Per MPI rank memory allocation (min/avg/max) = 11.33 | 11.33 | 11.33 Mbytes
Step Temp Press TotEng PotEng Enthalpy 
  210495    1566.9148    446.22936   -78073.246   -82053.352   -77848.878 
  220000    1559.5532    201.79747   -78148.725   -82110.132    -78047.32 
Loop time of 427.939 on 2 procs for 9505 steps with 19652 atoms

Performance: 1.919 ns/day, 12.506 hours/ns, 22.211 timesteps/s
98.2% CPU use with 2 MPI tasks x no OpenMP threads

MPI task timing breakdown:
Section |  min time  |  avg time  |  max time  |%varavg| %total
---------------------------------------------------------------
Pair    | 199.27     | 201.03     | 202.79     |  12.4 | 46.98
Neigh   | 192.18     | 193.5      | 194.82     |   9.5 | 45.22
Comm    | 23.418     | 23.839     | 24.26      |   8.6 |  5.57
Output  | 0.030808   | 0.030821   | 0.030835   |   0.0 |  0.01
Modify  | 7.5906     | 7.5928     | 7.595      |   0.1 |  1.77
Other   |            | 1.944      |            |       |  0.45

Nlocal:    9826 ave 9831 max 9821 min
Histogram: 1 0 0 0 0 0 0 0 0 1
Nghost:    8924.5 ave 8932 max 8917 min
Histogram: 1 0 0 0 0 0 0 0 0 1
Neighs:    304329 ave 306369 max 302289 min
Histogram: 1 0 0 0 0 0 0 0 0 1

Total # of neighbors = 608658
Ave neighs/atom = 30.9718
Neighbor list builds = 9505
Dangerous builds not checked
Setting up Verlet run ...
  Unit style    : metal
  Current step  : 220000
  Time step     : 0.001
Per MPI rank memory allocation (min/avg/max) = 11.34 | 11.34 | 11.34 Mbytes
Step Temp Press TotEng PotEng Enthalpy 
  220000    1559.5532    201.79747   -78148.725   -82110.132    -78047.32 
  220495    1516.3361    312.76351   -78333.268   -82184.899   -78176.315 
Loop time of 19.0805 on 2 procs for 495 steps with 19652 atoms

Performance: 2.241 ns/day, 10.707 hours/ns, 25.943 timesteps/s
98.7% CPU use with 2 MPI tasks x no OpenMP threads

MPI task timing breakdown:
Section |  min time  |  avg time  |  max time  |%varavg| %total
---------------------------------------------------------------
Pair    | 8.5473     | 8.75       | 8.9528     |   6.9 | 45.86
Neigh   | 8.4612     | 8.8482     | 9.2351     |  13.0 | 46.37
Comm    | 0.86697    | 1.0633     | 1.2596     |  19.0 |  5.57
Output  | 8.7023e-05 | 0.00011754 | 0.00014806 |   0.0 |  0.00
Modify  | 0.32583    | 0.33469    | 0.34355    |   1.5 |  1.75
Other   |            | 0.08419    |            |       |  0.44

Nlocal:    9826 ave 9829 max 9823 min
Histogram: 1 0 0 0 0 0 0 0 0 1
Nghost:    8943 ave 8948 max 8938 min
Histogram: 1 0 0 0 0 0 0 0 0 1
Neighs:    304773 ave 306969 max 302577 min
Histogram: 1 0 0 0 0 0 0 0 0 1

Total # of neighbors = 609546
Ave neighs/atom = 31.017
Neighbor list builds = 495
Dangerous builds not checked
Setting up Verlet run ...
  Unit style    : metal
  Current step  : 220495
  Time step     : 0.001
Per MPI rank memory allocation (min/avg/max) = 11.34 | 11.34 | 11.34 Mbytes
Step Temp Press TotEng PotEng Enthalpy 
  220495    1516.3361    312.76351   -78333.268   -82184.899   -78176.315 
  230000     1497.681    468.21726   -78421.441   -82225.687   -78186.718 
Loop time of 403.901 on 2 procs for 9505 steps with 19652 atoms

Performance: 2.033 ns/day, 11.804 hours/ns, 23.533 timesteps/s
98.9% CPU use with 2 MPI tasks x no OpenMP threads

MPI task timing breakdown:
Section |  min time  |  avg time  |  max time  |%varavg| %total
---------------------------------------------------------------
Pair    | 190.37     | 190.57     | 190.77     |   1.5 | 47.18
Neigh   | 185.43     | 185.58     | 185.74     |   1.1 | 45.95
Comm    | 18.293     | 18.668     | 19.044     |   8.7 |  4.62
Output  | 0.040134   | 0.040161   | 0.040188   |   0.0 |  0.01
Modify  | 7.1629     | 7.1885     | 7.2141     |   1.0 |  1.78
Other   |            | 1.852      |            |       |  0.46

Nlocal:    9826 ave 9838 max 9814 min
Histogram: 1 0 0 0 0 0 0 0 0 1
Nghost:    8957 ave 8985 max 8929 min
Histogram: 1 0 0 0 0 0 0 0 0 1
Neighs:    305176 ave 308268 max 302083 min
Histogram: 1 0 0 0 0 0 0 0 0 1

Total # of neighbors = 610351
Ave neighs/atom = 31.058
Neighbor list builds = 9505
Dangerous builds not checked
Setting up Verlet run ...
  Unit style    : metal
  Current step  : 230000
  Time step     : 0.001
Per MPI rank memory allocation (min/avg/max) = 11.34 | 11.34 | 11.34 Mbytes
Step Temp Press TotEng PotEng Enthalpy 
  230000     1497.681    468.21726   -78421.441   -82225.687   -78186.718 
  230495    1470.1909    393.21565   -78610.738   -82345.157   -78414.021 
Loop time of 20.7778 on 2 procs for 495 steps with 19652 atoms

Performance: 2.058 ns/day, 11.660 hours/ns, 23.824 timesteps/s
99.7% CPU use with 2 MPI tasks x no OpenMP threads

MPI task timing breakdown:
Section |  min time  |  avg time  |  max time  |%varavg| %total
---------------------------------------------------------------
Pair    | 9.6005     | 9.6161     | 9.6317     |   0.5 | 46.28
Neigh   | 9.8531     | 9.8931     | 9.9332     |   1.3 | 47.61
Comm    | 0.7283     | 0.78301    | 0.83772    |   6.2 |  3.77
Output  | 7.8917e-05 | 0.00011146 | 0.000144   |   0.0 |  0.00
Modify  | 0.38761    | 0.38773    | 0.38785    |   0.0 |  1.87
Other   |            | 0.09772    |            |       |  0.47

Nlocal:    9826 ave 9845 max 9807 min
Histogram: 1 0 0 0 0 0 0 0 0 1
Nghost:    8958 ave 8959 max 8957 min
Histogram: 1 0 0 0 0 0 0 0 0 1
Neighs:    305692 ave 308726 max 302657 min
Histogram: 1 0 0 0 0 0 0 0 0 1

Total # of neighbors = 611383
Ave neighs/atom = 31.1105
Neighbor list builds = 495
Dangerous builds not checked
Setting up Verlet run ...
  Unit style    : metal
  Current step  : 230495
  Time step     : 0.001
Per MPI rank memory allocation (min/avg/max) = 11.34 | 11.34 | 11.34 Mbytes
Step Temp Press TotEng PotEng Enthalpy 
  230495    1470.1909    393.21565   -78610.738   -82345.157   -78414.021 
  240000    1448.7508   -594.44376   -78661.149   -82341.109   -78959.585 
Loop time of 396.416 on 2 procs for 9505 steps with 19652 atoms

Performance: 2.072 ns/day, 11.585 hours/ns, 23.977 timesteps/s
98.9% CPU use with 2 MPI tasks x no OpenMP threads

MPI task timing breakdown:
Section |  min time  |  avg time  |  max time  |%varavg| %total
---------------------------------------------------------------
Pair    | 186.26     | 187.14     | 188.03     |   6.5 | 47.21
Neigh   | 182.43     | 183.18     | 183.94     |   5.6 | 46.21
Comm    | 17.091     | 17.191     | 17.29      |   2.4 |  4.34
Output  | 0.034463   | 0.034483   | 0.034503   |   0.0 |  0.01
Modify  | 7.0325     | 7.0471     | 7.0618     |   0.6 |  1.78
Other   |            | 1.817      |            |       |  0.46

Nlocal:    9826 ave 9832 max 9820 min
Histogram: 1 0 0 0 0 0 0 0 0 1
Nghost:    8940 ave 8960 max 8920 min
Histogram: 1 0 0 0 0 0 0 0 0 1
Neighs:    304600 ave 307464 max 301735 min
Histogram: 1 0 0 0 0 0 0 0 0 1

Total # of neighbors = 609199
Ave neighs/atom = 30.9993
Neighbor list builds = 9505
Dangerous builds not checked
Setting up Verlet run ...
  Unit style    : metal
  Current step  : 240000
  Time step     : 0.001
Per MPI rank memory allocation (min/avg/max) = 11.34 | 11.34 | 11.34 Mbytes
Step Temp Press TotEng PotEng Enthalpy 
  240000    1448.7508   -594.44376   -78661.149   -82341.109   -78959.585 
  240495    1405.7935    -388.5096   -78860.935   -82431.778   -79055.429 
Loop time of 20.9377 on 2 procs for 495 steps with 19652 atoms

Performance: 2.043 ns/day, 11.750 hours/ns, 23.642 timesteps/s
98.7% CPU use with 2 MPI tasks x no OpenMP threads

MPI task timing breakdown:
Section |  min time  |  avg time  |  max time  |%varavg| %total
---------------------------------------------------------------
Pair    | 9.9011     | 9.9077     | 9.9143     |   0.2 | 47.32
Neigh   | 9.4271     | 9.6674     | 9.9076     |   7.7 | 46.17
Comm    | 0.62944    | 0.8881     | 1.1468     |  27.4 |  4.24
Output  | 0.00013804 | 0.00015855 | 0.00017905 |   0.0 |  0.00
Modify  | 0.37084    | 0.37981    | 0.38878    |   1.5 |  1.81
Other   |            | 0.09453    |            |       |  0.45

Nlocal:    9826 ave 9832 max 9820 min
Histogram: 1 0 0 0 0 0 0 0 0 1
Nghost:    8931 ave 8944 max 8918 min
Histogram: 1 0 0 0 0 0 0 0 0 1
Neighs:    305494 ave 307530 max 303457 min
Histogram: 1 0 0 0 0 0 0 0 0 1

Total # of neighbors = 610987
Ave neighs/atom = 31.0903
Neighbor list builds = 495
Dangerous builds not checked
Setting up Verlet run ...
  Unit style    : metal
  Current step  : 240495
  Time step     : 0.001
Per MPI rank memory allocation (min/avg/max) = 11.34 | 11.34 | 11.34 Mbytes
Step Temp Press TotEng PotEng Enthalpy 
  240495    1405.7935    -388.5096   -78860.935   -82431.778   -79055.429 
  250000    1391.6445    221.30862   -78926.511   -82461.415   -78815.992 
Loop time of 384.156 on 2 procs for 9505 steps with 19652 atoms

Performance: 2.138 ns/day, 11.227 hours/ns, 24.743 timesteps/s
99.4% CPU use with 2 MPI tasks x no OpenMP threads

MPI task timing breakdown:
Section |  min time  |  avg time  |  max time  |%varavg| %total
---------------------------------------------------------------
Pair    | 177.44     | 179.48     | 181.51     |  15.2 | 46.72
Neigh   | 175.39     | 178.72     | 182.04     |  24.9 | 46.52
Comm    | 15.937     | 17.342     | 18.746     |  33.7 |  4.51
Output  | 0.03511    | 0.035133   | 0.035156   |   0.0 |  0.01
Modify  | 6.7443     | 6.8264     | 6.9086     |   3.1 |  1.78
Other   |            | 1.761      |            |       |  0.46

Nlocal:    9826 ave 9849 max 9803 min
Histogram: 1 0 0 0 0 0 0 0 0 1
Nghost:    8979.5 ave 9003 max 8956 min
Histogram: 1 0 0 0 0 0 0 0 0 1
Neighs:    306158 ave 307669 max 304646 min
Histogram: 1 0 0 0 0 0 0 0 0 1

Total # of neighbors = 612315
Ave neighs/atom = 31.1579
Neighbor list builds = 9505
Dangerous builds not checked
Setting up Verlet run ...
  Unit style    : metal
  Current step  : 250000
  Time step     : 0.001
Per MPI rank memory allocation (min/avg/max) = 11.34 | 11.34 | 11.34 Mbytes
Step Temp Press TotEng PotEng Enthalpy 
  250000    1391.6445    221.30862   -78926.511   -82461.415   -78815.992 
  250495     1367.247    401.05992   -79077.655   -82550.587   -78877.755 
Loop time of 20.0988 on 2 procs for 495 steps with 19652 atoms

Performance: 2.128 ns/day, 11.279 hours/ns, 24.628 timesteps/s
98.7% CPU use with 2 MPI tasks x no OpenMP threads

MPI task timing breakdown:
Section |  min time  |  avg time  |  max time  |%varavg| %total
---------------------------------------------------------------
Pair    | 9.5801     | 9.5992     | 9.6184     |   0.6 | 47.76
Neigh   | 8.7995     | 9.0076     | 9.2156     |   6.9 | 44.82
Comm    | 0.81331    | 1.0541     | 1.295      |  23.5 |  5.24
Output  | 0.00010109 | 0.00012553 | 0.00014997 |   0.0 |  0.00
Modify  | 0.33561    | 0.34624    | 0.35686    |   1.8 |  1.72
Other   |            | 0.09153    |            |       |  0.46

Nlocal:    9826 ave 9827 max 9825 min
Histogram: 1 0 0 0 0 0 0 0 0 1
Nghost:    8975.5 ave 8980 max 8971 min
Histogram: 1 0 0 0 0 0 0 0 0 1
Neighs:    306827 ave 308984 max 304670 min
Histogram: 1 0 0 0 0 0 0 0 0 1

Total # of neighbors = 613654
Ave neighs/atom = 31.226
Neighbor list builds = 495
Dangerous builds not checked
Setting up Verlet run ...
  Unit style    : metal
  Current step  : 250495
  Time step     : 0.001
Per MPI rank memory allocation (min/avg/max) = 11.34 | 11.34 | 11.34 Mbytes
Step Temp Press TotEng PotEng Enthalpy 
  250495     1367.247    401.05992   -79077.655   -82550.587   -78877.755 
  260000     1354.471   -116.28594   -79149.173   -82589.653   -79207.179 
Loop time of 345.678 on 2 procs for 9505 steps with 19652 atoms

Performance: 2.376 ns/day, 10.102 hours/ns, 27.497 timesteps/s
98.9% CPU use with 2 MPI tasks x no OpenMP threads

MPI task timing breakdown:
Section |  min time  |  avg time  |  max time  |%varavg| %total
---------------------------------------------------------------
Pair    | 157.54     | 159.57     | 161.6      |  16.1 | 46.16
Neigh   | 160.46     | 163.47     | 166.48     |  23.5 | 47.29
Comm    | 14.013     | 15.118     | 16.222     |  28.4 |  4.37
Output  | 0.024123   | 0.024136   | 0.024149   |   0.0 |  0.01
Modify  | 5.8625     | 5.9491     | 6.0357     |   3.6 |  1.72
Other   |            | 1.547      |            |       |  0.45

Nlocal:    9826 ave 9842 max 9810 min
Histogram: 1 0 0 0 0 0 0 0 0 1
Nghost:    8973 ave 8978 max 8968 min
Histogram: 1 0 0 0 0 0 0 0 0 1
Neighs:    306641 ave 309450 max 303832 min
Histogram: 1 0 0 0 0 0 0 0 0 1

Total # of neighbors = 613282
Ave neighs/atom = 31.2071
Neighbor list builds = 9505
Dangerous builds not checked
Setting up Verlet run ...
  Unit style    : metal
  Current step  : 260000
  Time step     : 0.001
Per MPI rank memory allocation (min/avg/max) = 11.34 | 11.34 | 11.34 Mbytes
Step Temp Press TotEng PotEng Enthalpy 
  260000     1354.471   -116.28594   -79149.173   -82589.653   -79207.179 
  260495    1308.6148   -32.300528   -79350.655   -82674.655   -79366.737 
Loop time of 17.3465 on 2 procs for 495 steps with 19652 atoms

Performance: 2.466 ns/day, 9.734 hours/ns, 28.536 timesteps/s
98.5% CPU use with 2 MPI tasks x no OpenMP threads

MPI task timing breakdown:
Section |  min time  |  avg time  |  max time  |%varavg| %total
---------------------------------------------------------------
Pair    | 7.8671     | 8.0526     | 8.238      |   6.5 | 46.42
Neigh   | 7.9467     | 8.2502     | 8.5537     |  10.6 | 47.56
Comm    | 0.53715    | 0.66653    | 0.7959     |  15.8 |  3.84
Output  | 9.2983e-05 | 0.00011396 | 0.00013494 |   0.0 |  0.00
Modify  | 0.28983    | 0.29814    | 0.30645    |   1.5 |  1.72
Other   |            | 0.07889    |            |       |  0.45

Nlocal:    9826 ave 9864 max 9788 min
Histogram: 1 0 0 0 0 0 0 0 0 1
Nghost:    8949 ave 8983 max 8915 min
Histogram: 1 0 0 0 0 0 0 0 0 1
Neighs:    307150 ave 311178 max 303121 min
Histogram: 1 0 0 0 0 0 0 0 0 1

Total # of neighbors = 614299
Ave neighs/atom = 31.2589
Neighbor list builds = 495
Dangerous builds not checked
Setting up Verlet run ...
  Unit style    : metal
  Current step  : 260495
  Time step     : 0.001
Per MPI rank memory allocation (min/avg/max) = 11.34 | 11.34 | 11.34 Mbytes
Step Temp Press TotEng PotEng Enthalpy 
  260495    1308.6148   -32.300528   -79350.655   -82674.655   -79366.737 
  270000    1302.4024    249.76986   -79399.783   -82708.004   -79275.565 
Loop time of 363.9 on 2 procs for 9505 steps with 19652 atoms

Performance: 2.257 ns/day, 10.635 hours/ns, 26.120 timesteps/s
98.3% CPU use with 2 MPI tasks x no OpenMP threads

MPI task timing breakdown:
Section |  min time  |  avg time  |  max time  |%varavg| %total
---------------------------------------------------------------
Pair    | 169.58     | 170.39     | 171.2      |   6.2 | 46.82
Neigh   | 167.34     | 167.61     | 167.88     |   2.1 | 46.06
Comm    | 17.518     | 18.031     | 18.544     |  12.1 |  4.95
Output  | 0.033795   | 0.033801   | 0.033807   |   0.0 |  0.01
Modify  | 6.2114     | 6.2323     | 6.2533     |   0.8 |  1.71
Other   |            | 1.604      |            |       |  0.44

Nlocal:    9826 ave 9826 max 9826 min
Histogram: 2 0 0 0 0 0 0 0 0 0
Nghost:    9016.5 ave 9025 max 9008 min
Histogram: 1 0 0 0 0 0 0 0 0 1
Neighs:    307451 ave 309979 max 304923 min
Histogram: 1 0 0 0 0 0 0 0 0 1

Total # of neighbors = 614902
Ave neighs/atom = 31.2895
Neighbor list builds = 9505
Dangerous builds not checked
Setting up Verlet run ...
  Unit style    : metal
  Current step  : 270000
  Time step     : 0.001
Per MPI rank memory allocation (min/avg/max) = 11.34 | 11.34 | 11.34 Mbytes
Step Temp Press TotEng PotEng Enthalpy 
  270000    1302.4024    249.76986   -79399.783   -82708.004   -79275.565 
  270495    1258.8435    5.8995435   -79589.696   -82787.273   -79586.765 
Loop time of 16.6435 on 2 procs for 495 steps with 19652 atoms

Performance: 2.570 ns/day, 9.340 hours/ns, 29.741 timesteps/s
99.9% CPU use with 2 MPI tasks x no OpenMP threads

MPI task timing breakdown:
Section |  min time  |  avg time  |  max time  |%varavg| %total
---------------------------------------------------------------
Pair    | 7.4762     | 7.5292     | 7.5822     |   1.9 | 45.24
Neigh   | 8.1044     | 8.1416     | 8.1789     |   1.3 | 48.92
Comm    | 0.59172    | 0.60585    | 0.61998    |   1.8 |  3.64
Output  | 9.7036e-05 | 0.000121   | 0.00014496 |   0.0 |  0.00
Modify  | 0.28827    | 0.28936    | 0.29045    |   0.2 |  1.74
Other   |            | 0.07739    |            |       |  0.47

Nlocal:    9826 ave 9842 max 9810 min
Histogram: 1 0 0 0 0 0 0 0 0 1
Nghost:    8927 ave 8958 max 8896 min
Histogram: 1 0 0 0 0 0 0 0 0 1
Neighs:    307690 ave 309360 max 306020 min
Histogram: 1 0 0 0 0 0 0 0 0 1

Total # of neighbors = 615380
Ave neighs/atom = 31.3139
Neighbor list builds = 495
Dangerous builds not checked
Setting up Verlet run ...
  Unit style    : metal
  Current step  : 270495
  Time step     : 0.001
Per MPI rank memory allocation (min/avg/max) = 11.34 | 11.34 | 11.34 Mbytes
Step Temp Press TotEng PotEng Enthalpy 
  270495    1258.8435    5.8995435   -79589.696   -82787.273   -79586.765 
  280000    1256.9543    148.30001   -79637.917   -82830.696   -79564.334 
Loop time of 334.307 on 2 procs for 9505 steps with 19652 atoms

Performance: 2.457 ns/day, 9.770 hours/ns, 28.432 timesteps/s
99.8% CPU use with 2 MPI tasks x no OpenMP threads

MPI task timing breakdown:
Section |  min time  |  avg time  |  max time  |%varavg| %total
---------------------------------------------------------------
Pair    | 151.76     | 152.54     | 153.32     |   6.3 | 45.63
Neigh   | 160.48     | 160.87     | 161.25     |   3.0 | 48.12
Comm    | 13.172     | 13.566     | 13.961     |  10.7 |  4.06
Output  | 0.023726   | 0.023742   | 0.023758   |   0.0 |  0.01
Modify  | 5.7871     | 5.788      | 5.7889     |   0.0 |  1.73
Other   |            | 1.523      |            |       |  0.46

Nlocal:    9826 ave 9828 max 9824 min
Histogram: 1 0 0 0 0 0 0 0 0 1
Nghost:    9015.5 ave 9027 max 9004 min
Histogram: 1 0 0 0 0 0 0 0 0 1
Neighs:    308127 ave 310632 max 305622 min
Histogram: 1 0 0 0 0 0 0 0 0 1

Total # of neighbors = 616254
Ave neighs/atom = 31.3583
Neighbor list builds = 9505
Dangerous builds not checked
Setting up Verlet run ...
  Unit style    : metal
  Current step  : 280000
  Time step     : 0.001
Per MPI rank memory allocation (min/avg/max) = 11.34 | 11.34 | 11.34 Mbytes
Step Temp Press TotEng PotEng Enthalpy 
  280000    1256.9543    148.30001   -79637.917   -82830.696   -79564.334 
  280495    1208.9586    143.29507   -79847.757   -82918.623   -79776.752 
Loop time of 15.8014 on 2 procs for 495 steps with 19652 atoms

Performance: 2.707 ns/day, 8.867 hours/ns, 31.326 timesteps/s
100.0% CPU use with 2 MPI tasks x no OpenMP threads

MPI task timing breakdown:
Section |  min time  |  avg time  |  max time  |%varavg| %total
---------------------------------------------------------------
Pair    | 7.0049     | 7.0218     | 7.0387     |   0.6 | 44.44
Neigh   | 7.9673     | 7.9681     | 7.9689     |   0.0 | 50.43
Comm    | 0.44624    | 0.46177    | 0.47731    |   2.3 |  2.92
Output  | 7.4148e-05 | 0.00011063 | 0.0001471  |   0.0 |  0.00
Modify  | 0.27453    | 0.27497    | 0.27541    |   0.1 |  1.74
Other   |            | 0.07472    |            |       |  0.47

Nlocal:    9826 ave 9834 max 9818 min
Histogram: 1 0 0 0 0 0 0 0 0 1
Nghost:    8989.5 ave 8997 max 8982 min
Histogram: 1 0 0 0 0 0 0 0 0 1
Neighs:    308234 ave 311139 max 305330 min
Histogram: 1 0 0 0 0 0 0 0 0 1

Total # of neighbors = 616469
Ave neighs/atom = 31.3693
Neighbor list builds = 495
Dangerous builds not checked
Setting up Verlet run ...
  Unit style    : metal
  Current step  : 280495
  Time step     : 0.001
Per MPI rank memory allocation (min/avg/max) = 11.34 | 11.34 | 11.34 Mbytes
Step Temp Press TotEng PotEng Enthalpy 
  280495    1208.9586    143.29507   -79847.757   -82918.623   -79776.752 
  290000    1197.5288   -659.55258    -79913.68   -82955.513    -80241.22 
Loop time of 357.894 on 2 procs for 9505 steps with 19652 atoms

Performance: 2.295 ns/day, 10.459 hours/ns, 26.558 timesteps/s
98.7% CPU use with 2 MPI tasks x no OpenMP threads

MPI task timing breakdown:
Section |  min time  |  avg time  |  max time  |%varavg| %total
---------------------------------------------------------------
Pair    | 166.55     | 166.89     | 167.24     |   2.7 | 46.63
Neigh   | 165.77     | 166.45     | 167.13     |   5.3 | 46.51
Comm    | 15.715     | 16.774     | 17.833     |  25.9 |  4.69
Output  | 0.025594   | 0.025617   | 0.025639   |   0.0 |  0.01
Modify  | 6.1096     | 6.1373     | 6.1651     |   1.1 |  1.71
Other   |            | 1.615      |            |       |  0.45

Nlocal:    9826 ave 9840 max 9812 min
Histogram: 1 0 0 0 0 0 0 0 0 1
Nghost:    9011 ave 9022 max 9000 min
Histogram: 1 0 0 0 0 0 0 0 0 1
Neighs:    307951 ave 310976 max 304926 min
Histogram: 1 0 0 0 0 0 0 0 0 1

Total # of neighbors = 615902
Ave neighs/atom = 31.3404
Neighbor list builds = 9505
Dangerous builds not checked
Setting up Verlet run ...
  Unit style    : metal
  Current step  : 290000
  Time step     : 0.001
Per MPI rank memory allocation (min/avg/max) = 11.34 | 11.34 | 11.34 Mbytes
Step Temp Press TotEng PotEng Enthalpy 
  290000    1197.5288   -659.55258    -79913.68   -82955.513    -80241.22 
  290495    1153.5327   -432.49762   -80111.198   -83041.276   -80325.426 
Loop time of 17.1242 on 2 procs for 495 steps with 19652 atoms

Performance: 2.498 ns/day, 9.610 hours/ns, 28.907 timesteps/s
100.0% CPU use with 2 MPI tasks x no OpenMP threads

MPI task timing breakdown:
Section |  min time  |  avg time  |  max time  |%varavg| %total
---------------------------------------------------------------
Pair    | 7.7691     | 7.7721     | 7.775      |   0.1 | 45.39
Neigh   | 8.2277     | 8.2539     | 8.2801     |   0.9 | 48.20
Comm    | 0.69225    | 0.71446    | 0.73666    |   2.6 |  4.17
Output  | 8.1778e-05 | 0.00010943 | 0.00013709 |   0.0 |  0.00
Modify  | 0.30023    | 0.30035    | 0.30046    |   0.0 |  1.75
Other   |            | 0.08333    |            |       |  0.49

Nlocal:    9826 ave 9837 max 9815 min
Histogram: 1 0 0 0 0 0 0 0 0 1
Nghost:    9005 ave 9011 max 8999 min
Histogram: 1 0 0 0 0 0 0 0 0 1
Neighs:    308644 ave 311585 max 305702 min
Histogram: 1 0 0 0 0 0 0 0 0 1

Total # of neighbors = 617287
Ave neighs/atom = 31.4109
Neighbor list builds = 495
Dangerous builds not checked
Setting up Verlet run ...
  Unit style    : metal
  Current step  : 290495
  Time step     : 0.001
Per MPI rank memory allocation (min/avg/max) = 11.34 | 11.34 | 11.34 Mbytes
Step Temp Press TotEng PotEng Enthalpy 
  290495    1153.5327   -432.49762   -80111.198   -83041.276   -80325.426 
  300000    1146.3707   -564.73677   -80191.445   -83103.331   -80471.142 
Loop time of 375.98 on 2 procs for 9505 steps with 19652 atoms

Performance: 2.184 ns/day, 10.988 hours/ns, 25.281 timesteps/s
98.3% CPU use with 2 MPI tasks x no OpenMP threads

MPI task timing breakdown:
Section |  min time  |  avg time  |  max time  |%varavg| %total
---------------------------------------------------------------
Pair    | 175.3      | 175.91     | 176.53     |   4.6 | 46.79
Neigh   | 170.13     | 170.74     | 171.35     |   4.7 | 45.41
Comm    | 21.063     | 21.085     | 21.106     |   0.5 |  5.61
Output  | 0.03584    | 0.035869   | 0.035899   |   0.0 |  0.01
Modify  | 6.4914     | 6.5003     | 6.5091     |   0.3 |  1.73
Other   |            | 1.703      |            |       |  0.45

Nlocal:    9826 ave 9846 max 9806 min
Histogram: 1 0 0 0 0 0 0 0 0 1
Nghost:    8983 ave 9023 max 8943 min
Histogram: 1 0 0 0 0 0 0 0 0 1
Neighs:    308587 ave 310082 max 307092 min
Histogram: 1 0 0 0 0 0 0 0 0 1

Total # of neighbors = 617174
Ave neighs/atom = 31.4051
Neighbor list builds = 9505
Dangerous builds not checked
Setting up Verlet run ...
  Unit style    : metal
  Current step  : 300000
  Time step     : 0.001
Per MPI rank memory allocation (min/avg/max) = 11.34 | 11.34 | 11.35 Mbytes
Step Temp Press TotEng PotEng Enthalpy 
  300000    1146.3707   -564.73677   -80191.445   -83103.331   -80471.142 
  300495     1099.064   -243.78779   -80372.585   -83164.308   -80492.991 
Loop time of 18.6069 on 2 procs for 495 steps with 19652 atoms

[...]
Histogram: 1 0 0 0 0 0 0 0 0 1
Nghost:    9111.5 ave 9126 max 9097 min
Histogram: 1 0 0 0 0 0 0 0 0 1
Neighs:    317580 ave 319980 max 315181 min
Histogram: 1 0 0 0 0 0 0 0 0 1

Total # of neighbors = 635161
Ave neighs/atom = 32.3204
Neighbor list builds = 9505
Dangerous builds not checked
Setting up Verlet run ...
  Unit style    : metal
  Current step  : 440000
  Time step     : 0.001
Per MPI rank memory allocation (min/avg/max) = 11.35 | 11.35 | 11.35 Mbytes
Step Temp Press TotEng PotEng Enthalpy 
  440000    449.35217   -170.97991   -84078.603   -85219.998   -84160.351 
  440495    420.78916   -251.16922   -84210.623   -85279.465   -84330.571 
Loop time of 32.703 on 2 procs for 495 steps with 19652 atoms

Performance: 1.308 ns/day, 18.352 hours/ns, 15.136 timesteps/s
79.5% CPU use with 2 MPI tasks x no OpenMP threads

MPI task timing breakdown:
Section |  min time  |  avg time  |  max time  |%varavg| %total
---------------------------------------------------------------
Pair    | 15.852     | 15.925     | 15.998     |   1.8 | 48.70
Neigh   | 13.533     | 13.592     | 13.65      |   1.6 | 41.56
Comm    | 2.3219     | 2.3413     | 2.3607     |   1.3 |  7.16
Output  | 7.987e-05  | 9.7513e-05 | 0.00011516 |   0.0 |  0.00
Modify  | 0.68212    | 0.71048    | 0.73884    |   3.4 |  2.17
Other   |            | 0.1344     |            |       |  0.41

Nlocal:    9826 ave 9845 max 9807 min
Histogram: 1 0 0 0 0 0 0 0 0 1
Nghost:    9136 ave 9163 max 9109 min
Histogram: 1 0 0 0 0 0 0 0 0 1
Neighs:    317654 ave 319513 max 315794 min
Histogram: 1 0 0 0 0 0 0 0 0 1

Total # of neighbors = 635307
Ave neighs/atom = 32.3279
Neighbor list builds = 495
Dangerous builds not checked
Setting up Verlet run ...
  Unit style    : metal
  Current step  : 440495
  Time step     : 0.001
Per MPI rank memory allocation (min/avg/max) = 11.35 | 11.35 | 11.35 Mbytes
Step Temp Press TotEng PotEng Enthalpy 
  440495    420.78916   -251.16922   -84210.623   -85279.465   -84330.571 
  450000    402.55857   -249.67787   -84364.924   -85387.459   -84483.992 
Loop time of 615.7 on 2 procs for 9505 steps with 19652 atoms

Performance: 1.334 ns/day, 17.993 hours/ns, 15.438 timesteps/s
85.6% CPU use with 2 MPI tasks x no OpenMP threads

MPI task timing breakdown:
Section |  min time  |  avg time  |  max time  |%varavg| %total
---------------------------------------------------------------
Pair    | 306.44     | 308.54     | 310.64     |  12.0 | 50.11
Neigh   | 248.38     | 250.91     | 253.43     |  15.9 | 40.75
Comm    | 41.168     | 41.592     | 42.017     |   6.6 |  6.76
Output  | 0.039436   | 0.039503   | 0.039571   |   0.0 |  0.01
Modify  | 12.006     | 12.014     | 12.021     |   0.2 |  1.95
Other   |            | 2.605      |            |       |  0.42

Nlocal:    9826 ave 9836 max 9816 min
Histogram: 1 0 0 0 0 0 0 0 0 1
Nghost:    9142 ave 9160 max 9124 min
Histogram: 1 0 0 0 0 0 0 0 0 1
Neighs:    318053 ave 320620 max 315486 min
Histogram: 1 0 0 0 0 0 0 0 0 1

Total # of neighbors = 636106
Ave neighs/atom = 32.3685
Neighbor list builds = 9505
Dangerous builds not checked
Setting up Verlet run ...
  Unit style    : metal
  Current step  : 450000
  Time step     : 0.001
Per MPI rank memory allocation (min/avg/max) = 11.35 | 11.35 | 11.35 Mbytes
Step Temp Press TotEng PotEng Enthalpy 
  450000    402.55857   -249.67787   -84364.924   -85387.459   -84483.992 
  450495    372.44299   -320.93925   -84516.645   -85462.684   -84669.492 
Loop time of 25.1536 on 2 procs for 495 steps with 19652 atoms

Performance: 1.700 ns/day, 14.115 hours/ns, 19.679 timesteps/s
98.8% CPU use with 2 MPI tasks x no OpenMP threads

MPI task timing breakdown:
Section |  min time  |  avg time  |  max time  |%varavg| %total
---------------------------------------------------------------
Pair    | 12.091     | 12.133     | 12.175     |   1.2 | 48.23
Neigh   | 11.386     | 11.413     | 11.439     |   0.8 | 45.37
Comm    | 0.94186    | 1.021      | 1.1002     |   7.8 |  4.06
Output  | 0.00016403 | 0.00019395 | 0.00022388 |   0.0 |  0.00
Modify  | 0.45555    | 0.4653     | 0.47504    |   1.4 |  1.85
Other   |            | 0.1218     |            |       |  0.48

Nlocal:    9826 ave 9837 max 9815 min
Histogram: 1 0 0 0 0 0 0 0 0 1
Nghost:    9159.5 ave 9168 max 9151 min
Histogram: 1 0 0 0 0 0 0 0 0 1
Neighs:    318451 ave 320341 max 316561 min
Histogram: 1 0 0 0 0 0 0 0 0 1

Total # of neighbors = 636902
Ave neighs/atom = 32.409
Neighbor list builds = 495
Dangerous builds not checked
Setting up Verlet run ...
  Unit style    : metal
  Current step  : 450495
  Time step     : 0.001
Per MPI rank memory allocation (min/avg/max) = 11.35 | 11.35 | 11.35 Mbytes
Step Temp Press TotEng PotEng Enthalpy 
  450495    372.44299   -320.93925   -84516.645   -85462.684   -84669.492 
  460000    351.54363    243.02103   -84697.992   -85590.945   -84582.629 
Loop time of 499.991 on 2 procs for 9505 steps with 19652 atoms

Performance: 1.642 ns/day, 14.612 hours/ns, 19.010 timesteps/s
96.8% CPU use with 2 MPI tasks x no OpenMP threads

MPI task timing breakdown:
Section |  min time  |  avg time  |  max time  |%varavg| %total
---------------------------------------------------------------
Pair    | 240.42     | 241.89     | 243.36     |   9.4 | 48.38
Neigh   | 219.84     | 222        | 224.16     |  14.5 | 44.40
Comm    | 23.835     | 24.539     | 25.244     |  14.2 |  4.91
Output  | 0.039031   | 0.039122   | 0.039212   |   0.0 |  0.01
Modify  | 9.1656     | 9.1722     | 9.1789     |   0.2 |  1.83
Other   |            | 2.35       |            |       |  0.47

Nlocal:    9826 ave 9835 max 9817 min
Histogram: 1 0 0 0 0 0 0 0 0 1
Nghost:    9151 ave 9177 max 9125 min
Histogram: 1 0 0 0 0 0 0 0 0 1
Neighs:    319114 ave 322020 max 316209 min
Histogram: 1 0 0 0 0 0 0 0 0 1

Total # of neighbors = 638229
Ave neighs/atom = 32.4765
Neighbor list builds = 9505
Dangerous builds not checked
Setting up Verlet run ...
  Unit style    : metal
  Current step  : 460000
  Time step     : 0.001
Per MPI rank memory allocation (min/avg/max) = 11.35 | 11.35 | 11.35 Mbytes
Step Temp Press TotEng PotEng Enthalpy 
  460000    351.54363    243.02103   -84697.992   -85590.945   -84582.629 
  460495    321.19331     31.21238   -84841.127   -85656.987   -84826.317 
Loop time of 25.9074 on 2 procs for 495 steps with 19652 atoms

Performance: 1.651 ns/day, 14.538 hours/ns, 19.106 timesteps/s
96.9% CPU use with 2 MPI tasks x no OpenMP threads

MPI task timing breakdown:
Section |  min time  |  avg time  |  max time  |%varavg| %total
---------------------------------------------------------------
Pair    | 12.118     | 12.361     | 12.604     |   6.9 | 47.71
Neigh   | 11.336     | 11.352     | 11.369     |   0.5 | 43.82
Comm    | 1.2925     | 1.56       | 1.8275     |  21.4 |  6.02
Output  | 9.799e-05  | 0.011904   | 0.023709   |  10.8 |  0.05
Modify  | 0.48387    | 0.48651    | 0.48915    |   0.4 |  1.88
Other   |            | 0.1357     |            |       |  0.52

Nlocal:    9826 ave 9829 max 9823 min
Histogram: 1 0 0 0 0 0 0 0 0 1
Nghost:    9159.5 ave 9174 max 9145 min
Histogram: 1 0 0 0 0 0 0 0 0 1
Neighs:    319280 ave 321651 max 316908 min
Histogram: 1 0 0 0 0 0 0 0 0 1

Total # of neighbors = 638559
Ave neighs/atom = 32.4933
Neighbor list builds = 495
Dangerous builds not checked
Setting up Verlet run ...
  Unit style    : metal
  Current step  : 460495
  Time step     : 0.001
Per MPI rank memory allocation (min/avg/max) = 11.35 | 11.35 | 11.35 Mbytes
Step Temp Press TotEng PotEng Enthalpy 
  460495    321.19331     31.21238   -84841.127   -85656.987   -84826.317 
  470000     300.8513    220.72678    -85025.11     -85789.3   -84920.637 
Loop time of 481.042 on 2 procs for 9505 steps with 19652 atoms

Performance: 1.707 ns/day, 14.058 hours/ns, 19.759 timesteps/s
97.9% CPU use with 2 MPI tasks x no OpenMP threads

MPI task timing breakdown:
Section |  min time  |  avg time  |  max time  |%varavg| %total
---------------------------------------------------------------
Pair    | 230.79     | 231.26     | 231.74     |   3.1 | 48.08
Neigh   | 219.37     | 219.61     | 219.85     |   1.7 | 45.65
Comm    | 18.011     | 18.774     | 19.537     |  17.6 |  3.90
Output  | 0.037259   | 0.037294   | 0.037329   |   0.0 |  0.01
Modify  | 8.9917     | 9.0295     | 9.0673     |   1.3 |  1.88
Other   |            | 2.327      |            |       |  0.48

Nlocal:    9826 ave 9832 max 9820 min
Histogram: 1 0 0 0 0 0 0 0 0 1
Nghost:    9147.5 ave 9171 max 9124 min
Histogram: 1 0 0 0 0 0 0 0 0 1
Neighs:    319602 ave 322392 max 316813 min
Histogram: 1 0 0 0 0 0 0 0 0 1

Total # of neighbors = 639205
Ave neighs/atom = 32.5262
Neighbor list builds = 9505
Dangerous builds not checked
Setting up Verlet run ...
  Unit style    : metal
  Current step  : 470000
  Time step     : 0.001
Per MPI rank memory allocation (min/avg/max) = 11.35 | 11.35 | 11.35 Mbytes
Step Temp Press TotEng PotEng Enthalpy 
  470000     300.8513    220.72678    -85025.11     -85789.3   -84920.637 
  470495     274.2443      -37.841   -85160.524    -85857.13   -85178.427 
Loop time of 23.9353 on 2 procs for 495 steps with 19652 atoms

Performance: 1.787 ns/day, 13.432 hours/ns, 20.681 timesteps/s
99.3% CPU use with 2 MPI tasks x no OpenMP threads

MPI task timing breakdown:
Section |  min time  |  avg time  |  max time  |%varavg| %total
---------------------------------------------------------------
Pair    | 11.145     | 11.152     | 11.16      |   0.2 | 46.59
Neigh   | 11.36      | 11.392     | 11.424     |   0.9 | 47.60
Comm    | 0.56064    | 0.60107    | 0.64149    |   5.2 |  2.51
Output  | 0.00010586 | 0.00014591 | 0.00018597 |   0.0 |  0.00
Modify  | 0.67643    | 0.67774    | 0.67905    |   0.2 |  2.83
Other   |            | 0.1117     |            |       |  0.47

Nlocal:    9826 ave 9831 max 9821 min
Histogram: 1 0 0 0 0 0 0 0 0 1
Nghost:    9174 ave 9175 max 9173 min
Histogram: 1 0 0 0 0 0 0 0 0 1
Neighs:    319580 ave 321943 max 317218 min
Histogram: 1 0 0 0 0 0 0 0 0 1

Total # of neighbors = 639161
Ave neighs/atom = 32.524
Neighbor list builds = 495
Dangerous builds not checked
Setting up Verlet run ...
  Unit style    : metal
  Current step  : 470495
  Time step     : 0.001
Per MPI rank memory allocation (min/avg/max) = 11.35 | 11.35 | 11.35 Mbytes
Step Temp Press TotEng PotEng Enthalpy 
  470495     274.2443      -37.841   -85160.524    -85857.13   -85178.427 
  480000      250.578    264.62361   -85340.035   -85976.526   -85215.176 
Loop time of 459.069 on 2 procs for 9505 steps with 19652 atoms

Performance: 1.789 ns/day, 13.416 hours/ns, 20.705 timesteps/s
98.4% CPU use with 2 MPI tasks x no OpenMP threads

MPI task timing breakdown:
Section |  min time  |  avg time  |  max time  |%varavg| %total
---------------------------------------------------------------
Pair    | 216.59     | 217.8      | 219.01     |   8.2 | 47.44
Neigh   | 210.75     | 212.01     | 213.27     |   8.7 | 46.18
Comm    | 18.474     | 18.517     | 18.561     |   1.0 |  4.03
Output  | 0.039173   | 0.039255   | 0.039338   |   0.0 |  0.01
Modify  | 8.4999     | 8.5061     | 8.5123     |   0.2 |  1.85
Other   |            | 2.197      |            |       |  0.48

Nlocal:    9826 ave 9828 max 9824 min
Histogram: 1 0 0 0 0 0 0 0 0 1
Nghost:    9205.5 ave 9232 max 9179 min
Histogram: 1 0 0 0 0 0 0 0 0 1
Neighs:    320410 ave 323023 max 317798 min
Histogram: 1 0 0 0 0 0 0 0 0 1

Total # of neighbors = 640821
Ave neighs/atom = 32.6084
Neighbor list builds = 9505
Dangerous builds not checked
Setting up Verlet run ...
  Unit style    : metal
  Current step  : 480000
  Time step     : 0.001
Per MPI rank memory allocation (min/avg/max) = 11.35 | 11.35 | 11.35 Mbytes
Step Temp Press TotEng PotEng Enthalpy 
  480000      250.578    264.62361   -85340.035   -85976.526   -85215.176 
  480495    224.93365   -240.95684   -85473.366   -86044.718   -85587.105 
Loop time of 23.5359 on 2 procs for 495 steps with 19652 atoms

Performance: 1.817 ns/day, 13.208 hours/ns, 21.032 timesteps/s
99.5% CPU use with 2 MPI tasks x no OpenMP threads

MPI task timing breakdown:
Section |  min time  |  avg time  |  max time  |%varavg| %total
---------------------------------------------------------------
Pair    | 11.117     | 11.198     | 11.28      |   2.4 | 47.58
Neigh   | 10.798     | 10.982     | 11.167     |   5.6 | 46.66
Comm    | 0.67254    | 0.77784    | 0.88314    |  11.9 |  3.30
Output  | 0.00013518 | 0.00022805 | 0.00032091 |   0.0 |  0.00
Modify  | 0.45437    | 0.45775    | 0.46112    |   0.5 |  1.94
Other   |            | 0.1194     |            |       |  0.51

Nlocal:    9826 ave 9833 max 9819 min
Histogram: 1 0 0 0 0 0 0 0 0 1
Nghost:    9191 ave 9205 max 9177 min
Histogram: 1 0 0 0 0 0 0 0 0 1
Neighs:    320238 ave 322684 max 317792 min
Histogram: 1 0 0 0 0 0 0 0 0 1

Total # of neighbors = 640476
Ave neighs/atom = 32.5909
Neighbor list builds = 495
Dangerous builds not checked
Setting up Verlet run ...
  Unit style    : metal
  Current step  : 480495
  Time step     : 0.001
Per MPI rank memory allocation (min/avg/max) = 11.35 | 11.35 | 11.35 Mbytes
Step Temp Press TotEng PotEng Enthalpy 
  480495    224.93365   -240.95684   -85473.366   -86044.718   -85587.105 
  490000    199.08258     245.5271   -85646.165   -86151.853   -85530.661 
Loop time of 454.327 on 2 procs for 9505 steps with 19652 atoms

Performance: 1.808 ns/day, 13.277 hours/ns, 20.921 timesteps/s
98.7% CPU use with 2 MPI tasks x no OpenMP threads

MPI task timing breakdown:
Section |  min time  |  avg time  |  max time  |%varavg| %total
---------------------------------------------------------------
Pair    | 211.79     | 212.47     | 213.14     |   4.6 | 46.77
Neigh   | 211.41     | 211.9      | 212.39     |   3.4 | 46.64
Comm    | 17.885     | 19.084     | 20.284     |  27.5 |  4.20
Output  | 0.036873   | 0.036902   | 0.036931   |   0.0 |  0.01
Modify  | 8.5878     | 8.6285     | 8.6692     |   1.4 |  1.90
Other   |            | 2.207      |            |       |  0.49

Nlocal:    9826 ave 9827 max 9825 min
Histogram: 1 0 0 0 0 0 0 0 0 1
Nghost:    9196.5 ave 9227 max 9166 min
Histogram: 1 0 0 0 0 0 0 0 0 1
Neighs:    321030 ave 323650 max 318411 min
Histogram: 1 0 0 0 0 0 0 0 0 1

Total # of neighbors = 642061
Ave neighs/atom = 32.6715
Neighbor list builds = 9505
Dangerous builds not checked
Setting up Verlet run ...
  Unit style    : metal
  Current step  : 490000
  Time step     : 0.001
Per MPI rank memory allocation (min/avg/max) = 11.35 | 11.35 | 11.35 Mbytes
Step Temp Press TotEng PotEng Enthalpy 
  490000    199.08258     245.5271   -85646.165   -86151.853   -85530.661 
  490495    174.80601     164.2892   -85769.357    -86213.38   -85692.117 
Loop time of 23.1894 on 2 procs for 495 steps with 19652 atoms

Performance: 1.844 ns/day, 13.013 hours/ns, 21.346 timesteps/s
98.8% CPU use with 2 MPI tasks x no OpenMP threads

MPI task timing breakdown:
Section |  min time  |  avg time  |  max time  |%varavg| %total
---------------------------------------------------------------
Pair    | 10.747     | 10.848     | 10.949     |   3.1 | 46.78
Neigh   | 10.66      | 10.834     | 11.009     |   5.3 | 46.72
Comm    | 0.89072    | 0.97255    | 1.0544     |   8.3 |  4.19
Output  | 0.00011897 | 0.00017989 | 0.0002408  |   0.0 |  0.00
Modify  | 0.41632    | 0.42469    | 0.43305    |   1.3 |  1.83
Other   |            | 0.1095     |            |       |  0.47

Nlocal:    9826 ave 9829 max 9823 min
Histogram: 1 0 0 0 0 0 0 0 0 1
Nghost:    9192.5 ave 9219 max 9166 min
Histogram: 1 0 0 0 0 0 0 0 0 1
Neighs:    321156 ave 323978 max 318335 min
Histogram: 1 0 0 0 0 0 0 0 0 1

Total # of neighbors = 642313
Ave neighs/atom = 32.6844
Neighbor list builds = 495
Dangerous builds not checked
Setting up Verlet run ...
  Unit style    : metal
  Current step  : 490495
  Time step     : 0.001
Per MPI rank memory allocation (min/avg/max) = 11.35 | 11.35 | 11.35 Mbytes
Step Temp Press TotEng PotEng Enthalpy 
  490495    174.80601     164.2892   -85769.357    -86213.38   -85692.117 
  500000    150.61001   -229.52627   -85939.627   -86322.191    -86047.49 
Loop time of 458.322 on 2 procs for 9505 steps with 19652 atoms

Performance: 1.792 ns/day, 13.394 hours/ns, 20.739 timesteps/s
97.8% CPU use with 2 MPI tasks x no OpenMP threads

MPI task timing breakdown:
Section |  min time  |  avg time  |  max time  |%varavg| %total
---------------------------------------------------------------
Pair    | 216.68     | 217.49     | 218.3      |   5.5 | 47.45
Neigh   | 209.64     | 210.3      | 210.96     |   4.6 | 45.88
Comm    | 19.586     | 19.761     | 19.936     |   3.9 |  4.31
Output  | 0.036403   | 0.036436   | 0.036469   |   0.0 |  0.01
Modify  | 8.5068     | 8.536      | 8.5652     |   1.0 |  1.86
Other   |            | 2.197      |            |       |  0.48

Nlocal:    9826 ave 9837 max 9815 min
Histogram: 1 0 0 0 0 0 0 0 0 1
Nghost:    9207.5 ave 9235 max 9180 min
Histogram: 1 0 0 0 0 0 0 0 0 1
Neighs:    321111 ave 324162 max 318060 min
Histogram: 1 0 0 0 0 0 0 0 0 1

Total # of neighbors = 642222
Ave neighs/atom = 32.6797
Neighbor list builds = 9505
Dangerous builds not checked
Setting up Verlet run ...
  Unit style    : metal
  Current step  : 500000
  Time step     : 0.001
Per MPI rank memory allocation (min/avg/max) = 11.35 | 11.35 | 11.35 Mbytes
Step Temp Press TotEng PotEng Enthalpy 
  500000    150.61001   -229.52627   -85939.627   -86322.191    -86047.49 
  500495    127.23845    97.517431   -86054.548   -86377.745   -86008.808 
Loop time of 24.1661 on 2 procs for 495 steps with 19652 atoms

Performance: 1.770 ns/day, 13.561 hours/ns, 20.483 timesteps/s
98.9% CPU use with 2 MPI tasks x no OpenMP threads

MPI task timing breakdown:
Section |  min time  |  avg time  |  max time  |%varavg| %total
---------------------------------------------------------------
Pair    | 11.285     | 11.348     | 11.412     |   1.9 | 46.96
Neigh   | 11.01      | 11.109     | 11.207     |   3.0 | 45.97
Comm    | 1.1028     | 1.1443     | 1.1858     |   3.9 |  4.74
Output  | 9.2983e-05 | 0.00017703 | 0.00026107 |   0.0 |  0.00
Modify  | 0.439      | 0.44821    | 0.45742    |   1.4 |  1.85
Other   |            | 0.1162     |            |       |  0.48

Nlocal:    9826 ave 9836 max 9816 min
Histogram: 1 0 0 0 0 0 0 0 0 1
Nghost:    9220.5 ave 9247 max 9194 min
Histogram: 1 0 0 0 0 0 0 0 0 1
Neighs:    321652 ave 324641 max 318663 min
Histogram: 1 0 0 0 0 0 0 0 0 1

Total # of neighbors = 643304
Ave neighs/atom = 32.7348
Neighbor list builds = 495
Dangerous builds not checked
Setting up Verlet run ...
  Unit style    : metal
  Current step  : 500495
  Time step     : 0.001
Per MPI rank memory allocation (min/avg/max) = 11.35 | 11.35 | 11.35 Mbytes
Step Temp Press TotEng PotEng Enthalpy 
  500495    127.23845    97.517431   -86054.548   -86377.745   -86008.808 
  510000    99.859884   -205.44584   -86219.068   -86472.722   -86315.405 
Loop time of 475.737 on 2 procs for 9505 steps with 19652 atoms

Performance: 1.726 ns/day, 13.903 hours/ns, 19.980 timesteps/s
96.3% CPU use with 2 MPI tasks x no OpenMP threads

MPI task timing breakdown:
Section |  min time  |  avg time  |  max time  |%varavg| %total
---------------------------------------------------------------
Pair    | 218.44     | 219.89     | 221.34     |   9.8 | 46.22
Neigh   | 210.61     | 211.24     | 211.86     |   4.3 | 44.40
Comm    | 29.318     | 30.182     | 31.045     |  15.7 |  6.34
Output  | 0.037248   | 0.037286   | 0.037324   |   0.0 |  0.01
Modify  | 12.123     | 12.172     | 12.221     |   1.4 |  2.56
Other   |            | 2.216      |            |       |  0.47

Nlocal:    9826 ave 9850 max 9802 min
Histogram: 1 0 0 0 0 0 0 0 0 1
Nghost:    9223.5 ave 9269 max 9178 min
Histogram: 1 0 0 0 0 0 0 0 0 1
Neighs:    321855 ave 325359 max 318351 min
Histogram: 1 0 0 0 0 0 0 0 0 1

Total # of neighbors = 643710
Ave neighs/atom = 32.7554
Neighbor list builds = 9505
Dangerous builds not checked
Total wall time: 6:43:01
