LAMMPS (12 Dec 2018)
Lattice spacing in x,y,z = 4 4 4
Created orthogonal box = (0 0 0) to (68 68 68)
  1 by 1 by 2 MPI processor grid
Created 19652 atoms
  Time spent = 0.00180411 secs
Setting atom values ...
  19480 settings made for type/fraction
Neighbor list info ...
  update every 1 steps, delay 0 steps, check no
  max neighbors/atom: 2000, page size: 100000
  master list distance cutoff = 8.5
  ghost atom cutoff = 8.5
  binsize = 4.25, bins = 16 16 16
  1 neighbor lists, perpetual/occasional/extra = 1 0 0
  (1) pair eam/alloy, perpetual
      attributes: half, newton on
      pair build: half/bin/atomonly/newton
      stencil: half/bin/3d/newton
      bin: standard
Setting up Verlet run ...
  Unit style    : metal
  Current step  : 0
  Time step     : 0.001
Per MPI rank memory allocation (min/avg/max) = 11.15 | 11.15 | 11.15 Mbytes
Step Temp Press TotEng PotEng Enthalpy 
       0          300    24374.552   -65178.202    -65940.23   -60394.622 
    1000    211.32104    34845.763   -65178.135   -65714.909   -58339.548 
Loop time of 113.185 on 2 procs for 1000 steps with 19652 atoms

Performance: 0.763 ns/day, 31.440 hours/ns, 8.835 timesteps/s
95.1% CPU use with 2 MPI tasks x no OpenMP threads

MPI task timing breakdown:
Section |  min time  |  avg time  |  max time  |%varavg| %total
---------------------------------------------------------------
Pair    | 67.019     | 67.151     | 67.284     |   1.6 | 59.33
Neigh   | 36.797     | 36.93      | 37.063     |   2.2 | 32.63
Comm    | 8.5317     | 8.5418     | 8.5518     |   0.3 |  7.55
Output  | 0.00011587 | 0.00017893 | 0.00024199 |   0.0 |  0.00
Modify  | 0.28327    | 0.28707    | 0.29086    |   0.7 |  0.25
Other   |            | 0.2746     |            |       |  0.24

Nlocal:    9826 ave 9836 max 9816 min
Histogram: 1 0 0 0 0 0 0 0 0 1
Nghost:    14211 ave 14221 max 14201 min
Histogram: 1 0 0 0 0 0 0 0 0 1
Neighs:    784352 ave 785578 max 783126 min
Histogram: 1 0 0 0 0 0 0 0 0 1

Total # of neighbors = 1568704
Ave neighs/atom = 79.8241
Neighbor list builds = 1000
Dangerous builds not checked
Setting up Verlet run ...
  Unit style    : metal
  Current step  : 1000
  Time step     : 0.001
Per MPI rank memory allocation (min/avg/max) = 11.15 | 11.15 | 11.15 Mbytes
Step Temp Press TotEng PotEng Enthalpy 
    1000    211.32104    34845.763   -65178.135   -65714.909   -58339.548 
    2000    304.35745   -104.80278   -64707.578   -65480.674   -64729.212 
Loop time of 148.969 on 2 procs for 1000 steps with 19652 atoms

Performance: 0.580 ns/day, 41.380 hours/ns, 6.713 timesteps/s
84.6% CPU use with 2 MPI tasks x no OpenMP threads

MPI task timing breakdown:
Section |  min time  |  avg time  |  max time  |%varavg| %total
---------------------------------------------------------------
Pair    | 75.027     | 75.288     | 75.548     |   3.0 | 50.54
Neigh   | 37.16      | 37.771     | 38.383     |  10.0 | 25.36
Comm    | 33.314     | 34.206     | 35.099     |  15.3 | 22.96
Output  | 0.00013804 | 0.00020659 | 0.00027514 |   0.0 |  0.00
Modify  | 1.3829     | 1.4007     | 1.4185     |   1.5 |  0.94
Other   |            | 0.3021     |            |       |  0.20

Nlocal:    9826 ave 9853 max 9799 min
Histogram: 1 0 0 0 0 0 0 0 0 1
Nghost:    14184.5 ave 14214 max 14155 min
Histogram: 1 0 0 0 0 0 0 0 0 1
Neighs:    728020 ave 730183 max 725856 min
Histogram: 1 0 0 0 0 0 0 0 0 1

Total # of neighbors = 1456039
Ave neighs/atom = 74.0911
Neighbor list builds = 1000
Dangerous builds not checked
Setting up Verlet run ...
  Unit style    : metal
  Current step  : 2000
  Time step     : 0.001
Per MPI rank memory allocation (min/avg/max) = 11.15 | 11.15 | 11.15 Mbytes
Step Temp Press TotEng PotEng Enthalpy 
    2000    304.35745   -104.80278   -64707.578   -65480.674   -64729.212 
   10000    2453.2371   -333.72938    -51066.04   -57297.486   -51160.491 
Loop time of 880.58 on 2 procs for 8000 steps with 19652 atoms

Performance: 0.785 ns/day, 30.576 hours/ns, 9.085 timesteps/s
94.8% CPU use with 2 MPI tasks x no OpenMP threads

MPI task timing breakdown:
Section |  min time  |  avg time  |  max time  |%varavg| %total
---------------------------------------------------------------
Pair    | 475.05     | 476.12     | 477.18     |   4.9 | 54.07
Neigh   | 297.75     | 302.81     | 307.87     |  29.1 | 34.39
Comm    | 87.017     | 91.14      | 95.264     |  43.2 | 10.35
Output  | 9.4891e-05 | 0.0001334  | 0.0001719  |   0.0 |  0.00
Modify  | 8.2855     | 8.375      | 8.4645     |   3.1 |  0.95
Other   |            | 2.136      |            |       |  0.24

Nlocal:    9826 ave 9831 max 9821 min
Histogram: 1 0 0 0 0 0 0 0 0 1
Nghost:    11279 ave 11287 max 11271 min
Histogram: 1 0 0 0 0 0 0 0 0 1
Neighs:    544064 ave 545216 max 542913 min
Histogram: 1 0 0 0 0 0 0 0 0 1

Total # of neighbors = 1088129
Ave neighs/atom = 55.3699
Neighbor list builds = 8000
Dangerous builds not checked
Setting up Verlet run ...
  Unit style    : metal
  Current step  : 10000
  Time step     : 0.001
Per MPI rank memory allocation (min/avg/max) = 11.16 | 11.16 | 11.16 Mbytes
Step Temp Press TotEng PotEng Enthalpy 
   10000    2453.2371   -333.72938    -51066.04   -57297.486   -51160.491 
   40000    2444.7131   -46.257247   -50922.604   -57132.398   -50935.761 
Loop time of 3144.57 on 2 procs for 30000 steps with 19652 atoms

Performance: 0.824 ns/day, 29.116 hours/ns, 9.540 timesteps/s
96.3% CPU use with 2 MPI tasks x no OpenMP threads

MPI task timing breakdown:
Section |  min time  |  avg time  |  max time  |%varavg| %total
---------------------------------------------------------------
Pair    | 1762.2     | 1779.5     | 1796.7     |  40.9 | 56.59
Neigh   | 1120       | 1136.3     | 1152.6     |  48.4 | 36.14
Comm    | 151.72     | 185.78     | 219.83     | 249.9 |  5.91
Output  | 0.00012016 | 0.0001651  | 0.00021005 |   0.0 |  0.00
Modify  | 33.952     | 34.307     | 34.663     |   6.1 |  1.09
Other   |            | 8.697      |            |       |  0.28

Nlocal:    9826 ave 9851 max 9801 min
Histogram: 1 0 0 0 0 0 0 0 0 1
Nghost:    11281.5 ave 11353 max 11210 min
Histogram: 1 0 0 0 0 0 0 0 0 1
Neighs:    541472 ave 543559 max 539386 min
Histogram: 1 0 0 0 0 0 0 0 0 1

Total # of neighbors = 1082945
Ave neighs/atom = 55.1061
Neighbor list builds = 30000
Dangerous builds not checked
Setting up Verlet run ...
  Unit style    : metal
  Current step  : 40000
  Time step     : 0.001
Per MPI rank memory allocation (min/avg/max) = 11.16 | 11.16 | 11.16 Mbytes
Step Temp Press TotEng PotEng Enthalpy 
   40000    2444.7131   -46.257247   -50922.604   -57132.398   -50935.761 
   40495    2401.9415    968.19445    -51194.21   -57295.361   -50921.493 
Loop time of 49.8679 on 2 procs for 495 steps with 19652 atoms

Performance: 0.858 ns/day, 27.984 hours/ns, 9.926 timesteps/s
98.7% CPU use with 2 MPI tasks x no OpenMP threads

MPI task timing breakdown:
Section |  min time  |  avg time  |  max time  |%varavg| %total
---------------------------------------------------------------
Pair    | 27.212     | 28.353     | 29.494     |  21.4 | 56.86
Neigh   | 17.881     | 18.216     | 18.552     |   7.9 | 36.53
Comm    | 1.0307     | 2.5345     | 4.0383     |  94.5 |  5.08
Output  | 0.00012589 | 0.00017285 | 0.00021982 |   0.0 |  0.00
Modify  | 0.58958    | 0.60752    | 0.62546    |   2.3 |  1.22
Other   |            | 0.1559     |            |       |  0.31

Nlocal:    9826 ave 9826 max 9826 min
Histogram: 2 0 0 0 0 0 0 0 0 0
Nghost:    11327 ave 11357 max 11297 min
Histogram: 1 0 0 0 0 0 0 0 0 1
Neighs:    546654 ave 548243 max 545064 min
Histogram: 1 0 0 0 0 0 0 0 0 1

Total # of neighbors = 1093307
Ave neighs/atom = 55.6334
Neighbor list builds = 495
Dangerous builds not checked
Setting up Verlet run ...
  Unit style    : metal
  Current step  : 40495
  Time step     : 0.001
Per MPI rank memory allocation (min/avg/max) = 11.16 | 11.16 | 11.16 Mbytes
Step Temp Press TotEng PotEng Enthalpy 
   40495    2401.9415    968.19445    -51194.21   -57295.361   -50921.493 
   50000    2430.8202    861.07438    -51183.03   -57357.535   -50940.742 
   90000    2390.4583    -199.9365     -51282.3   -57354.282   -51338.625 
Loop time of 4909.34 on 2 procs for 49505 steps with 19652 atoms

Performance: 0.871 ns/day, 27.547 hours/ns, 10.084 timesteps/s
96.7% CPU use with 2 MPI tasks x no OpenMP threads

MPI task timing breakdown:
Section |  min time  |  avg time  |  max time  |%varavg| %total
---------------------------------------------------------------
Pair    | 2721.8     | 2739.7     | 2757.7     |  34.3 | 55.81
Neigh   | 1786.9     | 1798.1     | 1809.2     |  26.3 | 36.63
Comm    | 297.29     | 301.28     | 305.26     |  22.9 |  6.14
Output  | 0.05089    | 0.050933   | 0.050976   |   0.0 |  0.00
Modify  | 53.955     | 56.681     | 59.406     |  36.2 |  1.15
Other   |            | 13.53      |            |       |  0.28

Nlocal:    9826 ave 9856 max 9796 min
Histogram: 1 0 0 0 0 0 0 0 0 1
Nghost:    11315.5 ave 11339 max 11292 min
Histogram: 1 0 0 0 0 0 0 0 0 1
Neighs:    546864 ave 549112 max 544617 min
Histogram: 1 0 0 0 0 0 0 0 0 1

Total # of neighbors = 1093729
Ave neighs/atom = 55.6548
Neighbor list builds = 49505
Dangerous builds not checked
Setting up Verlet run ...
  Unit style    : metal
  Current step  : 90000
  Time step     : 0.001
Per MPI rank memory allocation (min/avg/max) = 11.3 | 11.3 | 11.3 Mbytes
Step Temp Press TotEng PotEng Enthalpy 
   90000    2390.4583    -199.9365     -51282.3   -57354.282   -51338.625 
   90495    2351.4262    542.67006   -51484.534   -57457.371   -51332.523 
Loop time of 41.7665 on 2 procs for 495 steps with 19652 atoms

Performance: 1.024 ns/day, 23.438 hours/ns, 11.852 timesteps/s
99.7% CPU use with 2 MPI tasks x no OpenMP threads

MPI task timing breakdown:
Section |  min time  |  avg time  |  max time  |%varavg| %total
---------------------------------------------------------------
Pair    | 22.803     | 22.917     | 23.03      |   2.4 | 54.87
Neigh   | 15.726     | 15.839     | 15.953     |   2.9 | 37.92
Comm    | 2.2005     | 2.4302     | 2.6599     |  14.7 |  5.82
Output  | 8.7976e-05 | 0.00011897 | 0.00014997 |   0.0 |  0.00
Modify  | 0.4613     | 0.46346    | 0.46562    |   0.3 |  1.11
Other   |            | 0.1163     |            |       |  0.28

Nlocal:    9826 ave 9860 max 9792 min
Histogram: 1 0 0 0 0 0 0 0 0 1
Nghost:    11355.5 ave 11369 max 11342 min
Histogram: 1 0 0 0 0 0 0 0 0 1
Neighs:    549880 ave 553115 max 546645 min
Histogram: 1 0 0 0 0 0 0 0 0 1

Total # of neighbors = 1099760
Ave neighs/atom = 55.9617
Neighbor list builds = 495
Dangerous builds not checked
Setting up Verlet run ...
  Unit style    : metal
  Current step  : 90495
  Time step     : 0.001
Per MPI rank memory allocation (min/avg/max) = 11.3 | 11.3 | 11.3 Mbytes
Step Temp Press TotEng PotEng Enthalpy 
   90495    2351.4262    542.67006   -51484.534   -57457.371   -51332.523 
  100000    2352.6892    1062.8918   -51497.901   -57473.946   -51200.662 
  140000    2348.0633   -100.86162   -51537.033   -57501.327   -51565.279 
Loop time of 4653.29 on 2 procs for 49505 steps with 19652 atoms

Performance: 0.919 ns/day, 26.110 hours/ns, 10.639 timesteps/s
94.9% CPU use with 2 MPI tasks x no OpenMP threads

MPI task timing breakdown:
Section |  min time  |  avg time  |  max time  |%varavg| %total
---------------------------------------------------------------
Pair    | 2526.3     | 2539       | 2551.6     |  25.1 | 54.56
Neigh   | 1704.6     | 1723.8     | 1743.1     |  46.3 | 37.05
Comm    | 276.37     | 308.67     | 340.97     | 183.9 |  6.63
Output  | 0.09704    | 0.097092   | 0.097143   |   0.0 |  0.00
Modify  | 69.204     | 69.375     | 69.546     |   2.1 |  1.49
Other   |            | 12.34      |            |       |  0.27

Nlocal:    9826 ave 9832 max 9820 min
Histogram: 1 0 0 0 0 0 0 0 0 1
Nghost:    11376 ave 11412 max 11340 min
Histogram: 1 0 0 0 0 0 0 0 0 1
Neighs:    549827 ave 550015 max 549639 min
Histogram: 1 0 0 0 0 0 0 0 0 1

Total # of neighbors = 1099654
Ave neighs/atom = 55.9563
Neighbor list builds = 49505
Dangerous builds not checked
Setting up Verlet run ...
  Unit style    : metal
  Current step  : 140000
  Time step     : 0.001
Per MPI rank memory allocation (min/avg/max) = 11.34 | 11.34 | 11.34 Mbytes
Step Temp Press TotEng PotEng Enthalpy 
  140000    2348.0633   -100.86162   -51537.033   -57501.327   -51565.279 
  140495    2308.4483    483.95481    -51741.99   -57605.659   -51607.111 
Loop time of 43.8658 on 2 procs for 495 steps with 19652 atoms

Performance: 0.975 ns/day, 24.616 hours/ns, 11.284 timesteps/s
98.0% CPU use with 2 MPI tasks x no OpenMP threads

MPI task timing breakdown:
Section |  min time  |  avg time  |  max time  |%varavg| %total
---------------------------------------------------------------
Pair    | 23.723     | 24.237     | 24.752     |  10.4 | 55.25
Neigh   | 16.622     | 16.675     | 16.729     |   1.3 | 38.01
Comm    | 1.7835     | 2.3553     | 2.927      |  37.3 |  5.37
Output  | 0.00011706 | 0.00017202 | 0.00022697 |   0.0 |  0.00
Modify  | 0.47215    | 0.47269    | 0.47324    |   0.1 |  1.08
Other   |            | 0.1248     |            |       |  0.28

Nlocal:    9826 ave 9869 max 9783 min
Histogram: 1 0 0 0 0 0 0 0 0 1
Nghost:    11402 ave 11408 max 11396 min
Histogram: 1 0 0 0 0 0 0 0 0 1
Neighs:    552986 ave 563305 max 542667 min
Histogram: 1 0 0 0 0 0 0 0 0 1

Total # of neighbors = 1105972
Ave neighs/atom = 56.2778
Neighbor list builds = 495
Dangerous builds not checked
Setting up Verlet run ...
  Unit style    : metal
  Current step  : 140495
  Time step     : 0.001
Per MPI rank memory allocation (min/avg/max) = 11.34 | 11.34 | 11.34 Mbytes
Step Temp Press TotEng PotEng Enthalpy 
  140495    2308.4483    483.95481    -51741.99   -57605.659   -51607.111 
  150000    2284.9607    221.85667   -51854.502    -57658.51   -51792.828 
  190000    2317.3836   -130.46806   -51712.989   -57599.355   -51749.394 
Loop time of 4298.83 on 2 procs for 49505 steps with 19652 atoms

Performance: 0.995 ns/day, 24.121 hours/ns, 11.516 timesteps/s
98.2% CPU use with 2 MPI tasks x no OpenMP threads

MPI task timing breakdown:
Section |  min time  |  avg time  |  max time  |%varavg| %total
---------------------------------------------------------------
Pair    | 2302       | 2311.8     | 2321.5     |  20.2 | 53.78
Neigh   | 1718.9     | 1735.9     | 1753       |  40.9 | 40.38
Comm    | 188.14     | 195.84     | 203.54     |  55.0 |  4.56
Output  | 0.21335    | 0.2134     | 0.21346    |   0.0 |  0.00
Modify  | 43.704     | 43.745     | 43.787     |   0.6 |  1.02
Other   |            | 11.32      |            |       |  0.26

Nlocal:    9826 ave 9832 max 9820 min
Histogram: 1 0 0 0 0 0 0 0 0 1
Nghost:    11421.5 ave 11432 max 11411 min
Histogram: 1 0 0 0 0 0 0 0 0 1
Neighs:    552027 ave 557332 max 546722 min
Histogram: 1 0 0 0 0 0 0 0 0 1

Total # of neighbors = 1104054
Ave neighs/atom = 56.1802
Neighbor list builds = 49505
Dangerous builds not checked
Setting up Verlet run ...
  Unit style    : metal
  Current step  : 190000
  Time step     : 0.001
Per MPI rank memory allocation (min/avg/max) = 11.35 | 11.35 | 11.35 Mbytes
Step Temp Press TotEng PotEng Enthalpy 
  190000    2317.3836   -130.46806   -51712.989   -57599.355   -51749.394 
  190495    2271.5882   -36.890423   -51994.808   -57764.849    -52005.03 
Loop time of 42.8432 on 2 procs for 495 steps with 19652 atoms

Performance: 0.998 ns/day, 24.042 hours/ns, 11.554 timesteps/s
98.9% CPU use with 2 MPI tasks x no OpenMP threads

MPI task timing breakdown:
Section |  min time  |  avg time  |  max time  |%varavg| %total
---------------------------------------------------------------
Pair    | 21.76      | 22.753     | 23.747     |  20.8 | 53.11
Neigh   | 16.101     | 16.804     | 17.507     |  17.2 | 39.22
Comm    | 1.0504     | 2.7448     | 4.4392     | 102.3 |  6.41
Output  | 0.00013208 | 0.00015557 | 0.00017905 |   0.0 |  0.00
Modify  | 0.42058    | 0.42915    | 0.43773    |   1.3 |  1.00
Other   |            | 0.1117     |            |       |  0.26

Nlocal:    9826 ave 9826 max 9826 min
Histogram: 2 0 0 0 0 0 0 0 0 0
Nghost:    11467.5 ave 11484 max 11451 min
Histogram: 1 0 0 0 0 0 0 0 0 1
Neighs:    556119 ave 560363 max 551875 min
Histogram: 1 0 0 0 0 0 0 0 0 1

Total # of neighbors = 1112238
Ave neighs/atom = 56.5967
Neighbor list builds = 495
Dangerous builds not checked
Setting up Verlet run ...
  Unit style    : metal
  Current step  : 190495
  Time step     : 0.001
Per MPI rank memory allocation (min/avg/max) = 11.35 | 11.35 | 11.35 Mbytes
Step Temp Press TotEng PotEng Enthalpy 
  190495    2271.5882   -36.890423   -51994.808   -57764.849    -52005.03 
  200000    2270.4262    16.993932   -51968.697   -57735.786   -51963.985 
  240000    2251.8487   -811.65982   -52008.385   -57728.286   -52234.055 
Loop time of 4717.46 on 2 procs for 49505 steps with 19652 atoms

Performance: 0.907 ns/day, 26.470 hours/ns, 10.494 timesteps/s
93.1% CPU use with 2 MPI tasks x no OpenMP threads

MPI task timing breakdown:
Section |  min time  |  avg time  |  max time  |%varavg| %total
---------------------------------------------------------------
Pair    | 2407.4     | 2432       | 2456.6     |  49.9 | 51.55
Neigh   | 1673.8     | 1697.9     | 1722.1     |  58.6 | 35.99
Comm    | 457.18     | 506.3      | 555.41     | 218.3 | 10.73
Output  | 0.071016   | 0.071073   | 0.07113    |   0.0 |  0.00
Modify  | 70.175     | 70.307     | 70.439     |   1.6 |  1.49
Other   |            | 10.91      |            |       |  0.23

Nlocal:    9826 ave 9833 max 9819 min
Histogram: 1 0 0 0 0 0 0 0 0 1
Nghost:    11474.5 ave 11490 max 11459 min
Histogram: 1 0 0 0 0 0 0 0 0 1
Neighs:    554162 ave 559318 max 549007 min
Histogram: 1 0 0 0 0 0 0 0 0 1

Total # of neighbors = 1108325
Ave neighs/atom = 56.3976
Neighbor list builds = 49505
Dangerous builds not checked
Setting up Verlet run ...
  Unit style    : metal
  Current step  : 240000
  Time step     : 0.001
Per MPI rank memory allocation (min/avg/max) = 11.35 | 11.35 | 11.35 Mbytes
Step Temp Press TotEng PotEng Enthalpy 
  240000    2251.8487   -811.65982   -52008.385   -57728.286   -52234.055 
  240495    2203.7594    865.54629   -52288.701    -57886.45   -52050.702 
Loop time of 47.9258 on 2 procs for 495 steps with 19652 atoms

Performance: 0.892 ns/day, 26.894 hours/ns, 10.328 timesteps/s
91.5% CPU use with 2 MPI tasks x no OpenMP threads

MPI task timing breakdown:
Section |  min time  |  avg time  |  max time  |%varavg| %total
---------------------------------------------------------------
Pair    | 25.668     | 25.704     | 25.739     |   0.7 | 53.63
Neigh   | 16.006     | 17.353     | 18.701     |  32.3 | 36.21
Comm    | 2.7969     | 4.1594     | 5.5218     |  66.8 |  8.68
Output  | 9.1076e-05 | 0.00012302 | 0.00015497 |   0.0 |  0.00
Modify  | 0.56397    | 0.58745    | 0.61092    |   3.1 |  1.23
Other   |            | 0.1219     |            |       |  0.25

Nlocal:    9826 ave 9831 max 9821 min
Histogram: 1 0 0 0 0 0 0 0 0 1
Nghost:    11476 ave 11479 max 11473 min
Histogram: 1 0 0 0 0 0 0 0 0 1
Neighs:    560442 ave 565258 max 555626 min
Histogram: 1 0 0 0 0 0 0 0 0 1

Total # of neighbors = 1120884
Ave neighs/atom = 57.0366
Neighbor list builds = 495
Dangerous builds not checked
Setting up Verlet run ...
  Unit style    : metal
  Current step  : 240495
  Time step     : 0.001
Per MPI rank memory allocation (min/avg/max) = 11.35 | 11.35 | 11.35 Mbytes
Step Temp Press TotEng PotEng Enthalpy 
  240495    2203.7594    865.54629   -52288.701    -57886.45   -52050.702 
  250000    2165.0113   -338.35151   -52450.193   -57949.519   -52543.296 
  290000    2190.4777   -153.16906   -52369.615   -57933.628   -52411.785 
Loop time of 4608.61 on 2 procs for 49505 steps with 19652 atoms

Performance: 0.928 ns/day, 25.859 hours/ns, 10.742 timesteps/s
97.5% CPU use with 2 MPI tasks x no OpenMP threads

MPI task timing breakdown:
Section |  min time  |  avg time  |  max time  |%varavg| %total
---------------------------------------------------------------
Pair    | 2432       | 2480.8     | 2529.6     |  97.9 | 53.83
Neigh   | 1758       | 1805.9     | 1853.7     | 112.6 | 39.18
Comm    | 161.96     | 259.69     | 357.42     | 606.4 |  5.63
Output  | 0.19055    | 0.19059    | 0.19063    |   0.0 |  0.00
Modify  | 49.557     | 50.073     | 50.59      |   7.3 |  1.09
Other   |            | 11.99      |            |       |  0.26

Nlocal:    9826 ave 9832 max 9820 min
Histogram: 1 0 0 0 0 0 0 0 0 1
Nghost:    11457 ave 11459 max 11455 min
Histogram: 1 0 0 0 0 0 0 0 0 1
Neighs:    559674 ave 564909 max 554439 min
Histogram: 1 0 0 0 0 0 0 0 0 1

Total # of neighbors = 1119348
Ave neighs/atom = 56.9585
Neighbor list builds = 49505
Dangerous builds not checked
Setting up Verlet run ...
  Unit style    : metal
  Current step  : 290000
  Time step     : 0.001
Per MPI rank memory allocation (min/avg/max) = 11.35 | 11.35 | 11.35 Mbytes
Step Temp Press TotEng PotEng Enthalpy 
  290000    2190.4777   -153.16906   -52369.615   -57933.628   -52411.785 
  290495    2154.8887    435.27036    -52551.87   -58025.484   -52432.641 
Loop time of 42.24 on 2 procs for 495 steps with 19652 atoms

Performance: 1.013 ns/day, 23.704 hours/ns, 11.719 timesteps/s
99.2% CPU use with 2 MPI tasks x no OpenMP threads

MPI task timing breakdown:
Section |  min time  |  avg time  |  max time  |%varavg| %total
---------------------------------------------------------------
Pair    | 22.137     | 22.644     | 23.15      |  10.6 | 53.61
Neigh   | 16.322     | 16.925     | 17.528     |  14.7 | 40.07
Comm    | 0.98506    | 2.1125     | 3.2399     |  77.6 |  5.00
Output  | 9.799e-05  | 0.00014448 | 0.00019097 |   0.0 |  0.00
Modify  | 0.4283     | 0.44032    | 0.45234    |   1.8 |  1.04
Other   |            | 0.1184     |            |       |  0.28

Nlocal:    9826 ave 9836 max 9816 min
Histogram: 1 0 0 0 0 0 0 0 0 1
Nghost:    11442.5 ave 11466 max 11419 min
Histogram: 1 0 0 0 0 0 0 0 0 1
Neighs:    562884 ave 568899 max 556870 min
Histogram: 1 0 0 0 0 0 0 0 0 1

Total # of neighbors = 1125769
Ave neighs/atom = 57.2852
Neighbor list builds = 495
Dangerous builds not checked
Setting up Verlet run ...
  Unit style    : metal
  Current step  : 290495
  Time step     : 0.001
Per MPI rank memory allocation (min/avg/max) = 11.35 | 11.35 | 11.35 Mbytes
Step Temp Press TotEng PotEng Enthalpy 
  290495    2154.8887    435.27036    -52551.87   -58025.484   -52432.641 
  300000    2141.0517    492.42288   -52684.839   -58123.306   -52550.582 
  340000    2148.0777     15.36381   -52593.708   -58050.021   -52589.507 
Loop time of 4480.02 on 2 procs for 49505 steps with 19652 atoms

Performance: 0.955 ns/day, 25.138 hours/ns, 11.050 timesteps/s
98.7% CPU use with 2 MPI tasks x no OpenMP threads

MPI task timing breakdown:
Section |  min time  |  avg time  |  max time  |%varavg| %total
---------------------------------------------------------------
Pair    | 2388.8     | 2416.6     | 2444.4     |  56.5 | 53.94
Neigh   | 1728.8     | 1767.3     | 1805.8     |  91.5 | 39.45
Comm    | 172.54     | 239.53     | 306.52     | 432.8 |  5.35
Output  | 0.082359   | 0.08241    | 0.082461   |   0.0 |  0.00
Modify  | 44.417     | 44.846     | 45.274     |   6.4 |  1.00
Other   |            | 11.65      |            |       |  0.26

Nlocal:    9826 ave 9852 max 9800 min
Histogram: 1 0 0 0 0 0 0 0 0 1
Nghost:    11459 ave 11473 max 11445 min
Histogram: 1 0 0 0 0 0 0 0 0 1
Neighs:    563836 ave 566588 max 561085 min
Histogram: 1 0 0 0 0 0 0 0 0 1

Total # of neighbors = 1127673
Ave neighs/atom = 57.3821
Neighbor list builds = 49505
Dangerous builds not checked
Setting up Verlet run ...
  Unit style    : metal
  Current step  : 340000
  Time step     : 0.001
Per MPI rank memory allocation (min/avg/max) = 11.35 | 11.35 | 11.35 Mbytes
Step Temp Press TotEng PotEng Enthalpy 
  340000    2148.0777     15.36381   -52593.708   -58050.021   -52589.507 
  340495    2114.9635    154.07808   -52822.462   -58194.662   -52780.528 
Loop time of 41.7817 on 2 procs for 495 steps with 19652 atoms

Performance: 1.024 ns/day, 23.446 hours/ns, 11.847 timesteps/s
99.9% CPU use with 2 MPI tasks x no OpenMP threads

MPI task timing breakdown:
Section |  min time  |  avg time  |  max time  |%varavg| %total
---------------------------------------------------------------
Pair    | 22.22      | 22.54      | 22.86      |   6.7 | 53.95
Neigh   | 16.932     | 17.314     | 17.695     |   9.2 | 41.44
Comm    | 0.64415    | 1.3589     | 2.0737     |  61.3 |  3.25
Output  | 8.5115e-05 | 0.00013351 | 0.00018191 |   0.0 |  0.00
Modify  | 0.43714    | 0.44703    | 0.45692    |   1.5 |  1.07
Other   |            | 0.1218     |            |       |  0.29

Nlocal:    9826 ave 9836 max 9816 min
Histogram: 1 0 0 0 0 0 0 0 0 1
Nghost:    11446 ave 11465 max 11427 min
Histogram: 1 0 0 0 0 0 0 0 0 1
Neighs:    566120 ave 572222 max 560017 min
Histogram: 1 0 0 0 0 0 0 0 0 1

Total # of neighbors = 1132239
Ave neighs/atom = 57.6144
Neighbor list builds = 495
Dangerous builds not checked
Setting up Verlet run ...
  Unit style    : metal
  Current step  : 340495
  Time step     : 0.001
Per MPI rank memory allocation (min/avg/max) = 11.35 | 11.35 | 11.35 Mbytes
Step Temp Press TotEng PotEng Enthalpy 
  340495    2114.9635    154.07808   -52822.462   -58194.662   -52780.528 
  350000    2096.7083    1354.7273    -52956.81    -58282.64   -52590.408 
  390000    2094.1989    345.96791   -52940.842   -58260.298   -52846.979 
Loop time of 4540.54 on 2 procs for 49505 steps with 19652 atoms

Performance: 0.942 ns/day, 25.477 hours/ns, 10.903 timesteps/s
99.1% CPU use with 2 MPI tasks x no OpenMP threads

MPI task timing breakdown:
Section |  min time  |  avg time  |  max time  |%varavg| %total
---------------------------------------------------------------
Pair    | 2421.8     | 2473.4     | 2525.1     | 103.9 | 54.47
Neigh   | 1766.9     | 1780       | 1793.2     |  31.1 | 39.20
Comm    | 165.09     | 230.27     | 295.44     | 429.5 |  5.07
Output  | 0.065754   | 0.065774   | 0.065795   |   0.0 |  0.00
Modify  | 44.622     | 44.888     | 45.155     |   4.0 |  0.99
Other   |            | 11.87      |            |       |  0.26

Nlocal:    9826 ave 9838 max 9814 min
Histogram: 1 0 0 0 0 0 0 0 0 1
Nghost:    11488 ave 11514 max 11462 min
Histogram: 1 0 0 0 0 0 0 0 0 1
Neighs:    568250 ave 572786 max 563714 min
Histogram: 1 0 0 0 0 0 0 0 0 1

Total # of neighbors = 1136500
Ave neighs/atom = 57.8313
Neighbor list builds = 49505
Dangerous builds not checked
Setting up Verlet run ...
  Unit style    : metal
  Current step  : 390000
  Time step     : 0.001
Per MPI rank memory allocation (min/avg/max) = 11.35 | 11.35 | 11.35 Mbytes
Step Temp Press TotEng PotEng Enthalpy 
  390000    2094.1989    345.96791   -52940.842   -58260.298   -52846.979 
  390495    2061.1325   -604.43878   -53063.692   -58299.157   -53227.749 
Loop time of 48.793 on 2 procs for 495 steps with 19652 atoms

Performance: 0.877 ns/day, 27.381 hours/ns, 10.145 timesteps/s
98.5% CPU use with 2 MPI tasks x no OpenMP threads

MPI task timing breakdown:
Section |  min time  |  avg time  |  max time  |%varavg| %total
---------------------------------------------------------------
Pair    | 25.835     | 26.898     | 27.961     |  20.5 | 55.13
Neigh   | 17.132     | 18.143     | 19.154     |  23.7 | 37.18
Comm    | 0.99879    | 3.1072     | 5.2156     | 119.6 |  6.37
Output  | 0.00011086 | 0.0001539  | 0.00019693 |   0.0 |  0.00
Modify  | 0.48777    | 0.51043    | 0.53308    |   3.2 |  1.05
Other   |            | 0.1346     |            |       |  0.28

Nlocal:    9826 ave 9831 max 9821 min
Histogram: 1 0 0 0 0 0 0 0 0 1
Nghost:    11511 ave 11520 max 11502 min
Histogram: 1 0 0 0 0 0 0 0 0 1
Neighs:    567902 ave 574027 max 561777 min
Histogram: 1 0 0 0 0 0 0 0 0 1

Total # of neighbors = 1135804
Ave neighs/atom = 57.7958
Neighbor list builds = 495
Dangerous builds not checked
Setting up Verlet run ...
  Unit style    : metal
  Current step  : 390495
  Time step     : 0.001
Per MPI rank memory allocation (min/avg/max) = 11.35 | 11.35 | 11.35 Mbytes
Step Temp Press TotEng PotEng Enthalpy 
  390495    2061.1325   -604.43878   -53063.692   -58299.157   -53227.749 
  400000    2041.6184    434.25278   -53214.208   -58400.105   -53097.029 
  440000    2053.8375     1286.852   -53150.358   -58367.292   -52803.567 
Loop time of 4690 on 2 procs for 49505 steps with 19652 atoms

Performance: 0.912 ns/day, 26.316 hours/ns, 10.555 timesteps/s
97.5% CPU use with 2 MPI tasks x no OpenMP threads

MPI task timing breakdown:
Section |  min time  |  avg time  |  max time  |%varavg| %total
---------------------------------------------------------------
Pair    | 2506.7     | 2551.4     | 2596.1     |  88.5 | 54.40
Neigh   | 1794.5     | 1814       | 1833.6     |  45.9 | 38.68
Comm    | 200.94     | 265.41     | 329.88     | 395.7 |  5.66
Output  | 0.055377   | 0.055429   | 0.05548    |   0.0 |  0.00
Modify  | 47.021     | 47.184     | 47.347     |   2.4 |  1.01
Other   |            | 11.95      |            |       |  0.25

Nlocal:    9826 ave 9830 max 9822 min
Histogram: 1 0 0 0 0 0 0 0 0 1
Nghost:    11525 ave 11591 max 11459 min
Histogram: 1 0 0 0 0 0 0 0 0 1
Neighs:    572178 ave 577721 max 566635 min
Histogram: 1 0 0 0 0 0 0 0 0 1

Total # of neighbors = 1144356
Ave neighs/atom = 58.231
Neighbor list builds = 49505
Dangerous builds not checked
Setting up Verlet run ...
  Unit style    : metal
  Current step  : 440000
  Time step     : 0.001
Per MPI rank memory allocation (min/avg/max) = 11.35 | 11.35 | 11.35 Mbytes
Step Temp Press TotEng PotEng Enthalpy 
  440000    2053.8375     1286.852   -53150.358   -58367.292   -52803.567 
  440495    2010.9333   -384.09073   -53350.375   -58458.329   -53453.961 
Loop time of 47.6883 on 2 procs for 495 steps with 19652 atoms

Performance: 0.897 ns/day, 26.761 hours/ns, 10.380 timesteps/s
99.5% CPU use with 2 MPI tasks x no OpenMP threads

MPI task timing breakdown:
Section |  min time  |  avg time  |  max time  |%varavg| %total
---------------------------------------------------------------
Pair    | 24.931     | 25.982     | 27.034     |  20.6 | 54.48
Neigh   | 15.354     | 17.203     | 19.053     |  44.6 | 36.07
Comm    | 0.94493    | 3.8923     | 6.8398     | 149.4 |  8.16
Output  | 9.3937e-05 | 0.00012839 | 0.00016284 |   0.0 |  0.00
Modify  | 0.46237    | 0.48681    | 0.51125    |   3.5 |  1.02
Other   |            | 0.1233     |            |       |  0.26

Nlocal:    9826 ave 9835 max 9817 min
Histogram: 1 0 0 0 0 0 0 0 0 1
Nghost:    11528.5 ave 11544 max 11513 min
Histogram: 1 0 0 0 0 0 0 0 0 1
Neighs:    571520 ave 575999 max 567042 min
Histogram: 1 0 0 0 0 0 0 0 0 1

Total # of neighbors = 1143041
Ave neighs/atom = 58.1641
Neighbor list builds = 495
Dangerous builds not checked
Setting up Verlet run ...
  Unit style    : metal
  Current step  : 440495
  Time step     : 0.001
Per MPI rank memory allocation (min/avg/max) = 11.35 | 11.35 | 11.35 Mbytes
Step Temp Press TotEng PotEng Enthalpy 
  440495    2010.9333   -384.09073   -53350.375   -58458.329   -53453.961 
  450000    1994.5476   -1004.3742   -53449.416   -58515.748   -53719.682 
  490000    2014.9811    301.39647   -53422.396   -58540.631   -53341.541 
Loop time of 4591.29 on 2 procs for 49505 steps with 19652 atoms

Performance: 0.932 ns/day, 25.762 hours/ns, 10.782 timesteps/s
99.0% CPU use with 2 MPI tasks x no OpenMP threads

MPI task timing breakdown:
Section |  min time  |  avg time  |  max time  |%varavg| %total
---------------------------------------------------------------
Pair    | 2462       | 2511.3     | 2560.6     |  98.4 | 54.70
Neigh   | 1768.8     | 1784.9     | 1801.1     |  38.3 | 38.88
Comm    | 171.19     | 237.03     | 302.88     | 427.7 |  5.16
Output  | 0.058159   | 0.058219   | 0.058279   |   0.0 |  0.00
Modify  | 45.795     | 46.048     | 46.3       |   3.7 |  1.00
Other   |            | 11.87      |            |       |  0.26

Nlocal:    9826 ave 9836 max 9816 min
Histogram: 1 0 0 0 0 0 0 0 0 1
Nghost:    11592 ave 11633 max 11551 min
Histogram: 1 0 0 0 0 0 0 0 0 1
Neighs:    574836 ave 581375 max 568297 min
Histogram: 1 0 0 0 0 0 0 0 0 1

Total # of neighbors = 1149672
Ave neighs/atom = 58.5015
Neighbor list builds = 49505
Dangerous builds not checked
Setting up Verlet run ...
  Unit style    : metal
  Current step  : 490000
  Time step     : 0.001
Per MPI rank memory allocation (min/avg/max) = 11.35 | 11.35 | 11.35 Mbytes
Step Temp Press TotEng PotEng Enthalpy 
  490000    2014.9811    301.39647   -53422.396   -58540.631   -53341.541 
  490495    1966.6959   -336.94847   -53613.076   -58608.663   -53703.317 
Loop time of 46.0806 on 2 procs for 495 steps with 19652 atoms

Performance: 0.928 ns/day, 25.859 hours/ns, 10.742 timesteps/s
98.9% CPU use with 2 MPI tasks x no OpenMP threads

MPI task timing breakdown:
Section |  min time  |  avg time  |  max time  |%varavg| %total
---------------------------------------------------------------
Pair    | 23.685     | 24.998     | 26.31      |  26.2 | 54.25
Neigh   | 16.17      | 17.138     | 18.107     |  23.4 | 37.19
Comm    | 1.0303     | 3.3397     | 5.6492     | 126.4 |  7.25
Output  | 0.00010586 | 0.00011504 | 0.00012422 |   0.0 |  0.00
Modify  | 0.46631    | 0.48274    | 0.49918    |   2.4 |  1.05
Other   |            | 0.1218     |            |       |  0.26

Nlocal:    9826 ave 9854 max 9798 min
Histogram: 1 0 0 0 0 0 0 0 0 1
Nghost:    11540 ave 11547 max 11533 min
Histogram: 1 0 0 0 0 0 0 0 0 1
Neighs:    575680 ave 584855 max 566506 min
Histogram: 1 0 0 0 0 0 0 0 0 1

Total # of neighbors = 1151361
Ave neighs/atom = 58.5875
Neighbor list builds = 495
Dangerous builds not checked
Setting up Verlet run ...
  Unit style    : metal
  Current step  : 490495
  Time step     : 0.001
Per MPI rank memory allocation (min/avg/max) = 11.35 | 11.35 | 11.35 Mbytes
Step Temp Press TotEng PotEng Enthalpy 
  490495    1966.6959   -336.94847   -53613.076   -58608.663   -53703.317 
  500000    1943.7119   -888.38092   -53797.466   -58734.672   -54034.494 
  540000    1943.6468    446.35551   -53700.495   -58637.535   -53581.361 
Loop time of 4386.43 on 2 procs for 49505 steps with 19652 atoms

Performance: 0.975 ns/day, 24.613 hours/ns, 11.286 timesteps/s
98.6% CPU use with 2 MPI tasks x no OpenMP threads

MPI task timing breakdown:
Section |  min time  |  avg time  |  max time  |%varavg| %total
---------------------------------------------------------------
Pair    | 2351.7     | 2381.9     | 2412.1     |  61.9 | 54.30
Neigh   | 1684.6     | 1694.3     | 1704       |  23.6 | 38.63
Comm    | 214.64     | 254.68     | 294.73     | 251.0 |  5.81
Output  | 0.061209   | 0.06127    | 0.06133    |   0.0 |  0.00
Modify  | 44.308     | 44.401     | 44.494     |   1.4 |  1.01
Other   |            | 11.03      |            |       |  0.25

Nlocal:    9826 ave 9835 max 9817 min
Histogram: 1 0 0 0 0 0 0 0 0 1
Nghost:    11546.5 ave 11550 max 11543 min
Histogram: 1 0 0 0 0 0 0 0 0 1
Neighs:    577751 ave 583782 max 571720 min
Histogram: 1 0 0 0 0 0 0 0 0 1

Total # of neighbors = 1155502
Ave neighs/atom = 58.7982
Neighbor list builds = 49505
Dangerous builds not checked
Setting up Verlet run ...
  Unit style    : metal
  Current step  : 540000
  Time step     : 0.001
Per MPI rank memory allocation (min/avg/max) = 11.35 | 11.35 | 11.35 Mbytes
Step Temp Press TotEng PotEng Enthalpy 
  540000    1943.6468    446.35551   -53700.495   -58637.535   -53581.361 
  540495    1906.5739   -18.143197   -53888.237   -58731.108   -53893.067 
Loop time of 43.6258 on 2 procs for 495 steps with 19652 atoms

Performance: 0.980 ns/day, 24.481 hours/ns, 11.346 timesteps/s
97.2% CPU use with 2 MPI tasks x no OpenMP threads

MPI task timing breakdown:
Section |  min time  |  avg time  |  max time  |%varavg| %total
---------------------------------------------------------------
Pair    | 22.805     | 23.159     | 23.513     |   7.4 | 53.09
Neigh   | 17.411     | 18.004     | 18.597     |  14.0 | 41.27
Comm    | 0.91864    | 1.8837     | 2.8488     |  70.3 |  4.32
Output  | 9.3937e-05 | 0.00011945 | 0.00014496 |   0.0 |  0.00
Modify  | 0.45314    | 0.46501    | 0.47688    |   1.7 |  1.07
Other   |            | 0.1135     |            |       |  0.26

Nlocal:    9826 ave 9850 max 9802 min
Histogram: 1 0 0 0 0 0 0 0 0 1
Nghost:    11592 ave 11596 max 11588 min
Histogram: 1 0 0 0 0 0 0 0 0 1
Neighs:    579421 ave 582549 max 576293 min
Histogram: 1 0 0 0 0 0 0 0 0 1

Total # of neighbors = 1158842
Ave neighs/atom = 58.9681
Neighbor list builds = 495
Dangerous builds not checked
Setting up Verlet run ...
  Unit style    : metal
  Current step  : 540495
  Time step     : 0.001
Per MPI rank memory allocation (min/avg/max) = 11.35 | 11.35 | 11.35 Mbytes
Step Temp Press TotEng PotEng Enthalpy 
  540495    1906.5739   -18.143197   -53888.237   -58731.108   -53893.067 
  550000    1902.8591    -158.6372   -54031.976   -58865.411   -54074.014 
  590000    1895.1763    548.86512   -54028.751   -58842.671   -53883.434 
Loop time of 4482.22 on 2 procs for 49505 steps with 19652 atoms

Performance: 0.954 ns/day, 25.150 hours/ns, 11.045 timesteps/s
98.7% CPU use with 2 MPI tasks x no OpenMP threads

MPI task timing breakdown:
Section |  min time  |  avg time  |  max time  |%varavg| %total
---------------------------------------------------------------
Pair    | 2413.8     | 2433.5     | 2453.1     |  39.8 | 54.29
Neigh   | 1756       | 1757.8     | 1759.5     |   4.2 | 39.22
Comm    | 214.21     | 231.99     | 249.78     | 116.7 |  5.18
Output  | 0.060185   | 0.06025    | 0.060314   |   0.0 |  0.00
Modify  | 47.326     | 47.371     | 47.417     |   0.7 |  1.06
Other   |            | 11.52      |            |       |  0.26

Nlocal:    9826 ave 9847 max 9805 min
Histogram: 1 0 0 0 0 0 0 0 0 1
Nghost:    11629 ave 11637 max 11621 min
Histogram: 1 0 0 0 0 0 0 0 0 1
Neighs:    582557 ave 585509 max 579605 min
Histogram: 1 0 0 0 0 0 0 0 0 1

Total # of neighbors = 1165114
Ave neighs/atom = 59.2873
Neighbor list builds = 49505
Dangerous builds not checked
Setting up Verlet run ...
  Unit style    : metal
  Current step  : 590000
  Time step     : 0.001
Per MPI rank memory allocation (min/avg/max) = 11.35 | 11.35 | 11.35 Mbytes
Step Temp Press TotEng PotEng Enthalpy 
  590000    1895.1763    548.86512   -54028.751   -58842.671   -53883.434 
  590495    1866.3149   -145.02308   -54177.505   -58918.115   -54215.851 
Loop time of 42.4185 on 2 procs for 495 steps with 19652 atoms

Performance: 1.008 ns/day, 23.804 hours/ns, 11.669 timesteps/s
99.6% CPU use with 2 MPI tasks x no OpenMP threads

MPI task timing breakdown:
Section |  min time  |  avg time  |  max time  |%varavg| %total
---------------------------------------------------------------
Pair    | 22.656     | 22.926     | 23.196     |   5.6 | 54.05
Neigh   | 14.781     | 16.281     | 17.78      |  37.2 | 38.38
Comm    | 0.8613     | 2.6693     | 4.4773     | 110.7 |  6.29
Output  | 6.1035e-05 | 9.8586e-05 | 0.00013614 |   0.0 |  0.00
Modify  | 0.40818    | 0.43001    | 0.45183    |   3.3 |  1.01
Other   |            | 0.1126     |            |       |  0.27

Nlocal:    9826 ave 9832 max 9820 min
Histogram: 1 0 0 0 0 0 0 0 0 1
Nghost:    11631.5 ave 11649 max 11614 min
Histogram: 1 0 0 0 0 0 0 0 0 1
Neighs:    583342 ave 588491 max 578192 min
Histogram: 1 0 0 0 0 0 0 0 0 1

Total # of neighbors = 1166683
Ave neighs/atom = 59.3671
Neighbor list builds = 495
Dangerous builds not checked
Setting up Verlet run ...
  Unit style    : metal
  Current step  : 590495
  Time step     : 0.001
Per MPI rank memory allocation (min/avg/max) = 11.35 | 11.35 | 11.35 Mbytes
Step Temp Press TotEng PotEng Enthalpy 
  590495    1866.3149   -145.02308   -54177.505   -58918.115   -54215.851 
  600000    1841.3443    436.16603   -54323.633   -59000.815   -54208.865 
  640000    1863.5794    257.72646   -54195.884   -58929.545   -54127.854 
Loop time of 4472.15 on 2 procs for 49505 steps with 19652 atoms

Performance: 0.956 ns/day, 25.094 hours/ns, 11.070 timesteps/s
98.3% CPU use with 2 MPI tasks x no OpenMP threads

MPI task timing breakdown:
Section |  min time  |  avg time  |  max time  |%varavg| %total
---------------------------------------------------------------
Pair    | 2395.7     | 2426.5     | 2457.3     |  62.5 | 54.26
Neigh   | 1719.1     | 1741.3     | 1763.4     |  53.1 | 38.94
Comm    | 194.45     | 246.83     | 299.21     | 333.4 |  5.52
Output  | 0.063047   | 0.063121   | 0.063195   |   0.0 |  0.00
Modify  | 45.442     | 46.135     | 46.828     |  10.2 |  1.03
Other   |            | 11.33      |            |       |  0.25

Nlocal:    9826 ave 9835 max 9817 min
Histogram: 1 0 0 0 0 0 0 0 0 1
Nghost:    11656 ave 11659 max 11653 min
Histogram: 1 0 0 0 0 0 0 0 0 1
Neighs:    584406 ave 589480 max 579332 min
Histogram: 1 0 0 0 0 0 0 0 0 1

Total # of neighbors = 1168812
Ave neighs/atom = 59.4755
Neighbor list builds = 49505
Dangerous builds not checked
Setting up Verlet run ...
  Unit style    : metal
  Current step  : 640000
  Time step     : 0.001
Per MPI rank memory allocation (min/avg/max) = 11.35 | 11.35 | 11.35 Mbytes
Step Temp Press TotEng PotEng Enthalpy 
  640000    1863.5794    257.72646   -54195.884   -58929.545   -54127.854 
  640495    1819.6785    129.27383   -54477.077   -59099.226   -54443.149 
Loop time of 41.9842 on 2 procs for 495 steps with 19652 atoms

Performance: 1.019 ns/day, 23.560 hours/ns, 11.790 timesteps/s
99.7% CPU use with 2 MPI tasks x no OpenMP threads

MPI task timing breakdown:
Section |  min time  |  avg time  |  max time  |%varavg| %total
---------------------------------------------------------------
Pair    | 22.138     | 22.647     | 23.155     |  10.7 | 53.94
Neigh   | 15.888     | 16.641     | 17.395     |  18.5 | 39.64
Comm    | 0.86698    | 2.1462     | 3.4255     |  87.3 |  5.11
Output  | 7.5817e-05 | 0.00010836 | 0.00014091 |   0.0 |  0.00
Modify  | 0.41497    | 0.42906    | 0.44314    |   2.1 |  1.02
Other   |            | 0.1206     |            |       |  0.29

Nlocal:    9826 ave 9845 max 9807 min
Histogram: 1 0 0 0 0 0 0 0 0 1
Nghost:    11680 ave 11708 max 11652 min
Histogram: 1 0 0 0 0 0 0 0 0 1
Neighs:    587562 ave 591725 max 583398 min
Histogram: 1 0 0 0 0 0 0 0 0 1

Total # of neighbors = 1175123
Ave neighs/atom = 59.7966
Neighbor list builds = 495
Dangerous builds not checked
Setting up Verlet run ...
  Unit style    : metal
  Current step  : 640495
  Time step     : 0.001
Per MPI rank memory allocation (min/avg/max) = 11.35 | 11.35 | 11.35 Mbytes
Step Temp Press TotEng PotEng Enthalpy 
  640495    1819.6785    129.27383   -54477.077   -59099.226   -54443.149 
  650000    1811.7413   -44.800708   -54522.865   -59124.853   -54534.604 
  690000    1816.9762    543.19005   -54585.582   -59200.867   -54443.748 
Loop time of 4585.99 on 2 procs for 49505 steps with 19652 atoms

Performance: 0.933 ns/day, 25.732 hours/ns, 10.795 timesteps/s
98.7% CPU use with 2 MPI tasks x no OpenMP threads

MPI task timing breakdown:
Section |  min time  |  avg time  |  max time  |%varavg| %total
---------------------------------------------------------------
Pair    | 2481.3     | 2510.6     | 2540       |  58.6 | 54.75
Neigh   | 1766.7     | 1778.9     | 1791.1     |  29.0 | 38.79
Comm    | 196.59     | 238.33     | 280.06     | 270.3 |  5.20
Output  | 0.17923    | 0.17931    | 0.17938    |   0.0 |  0.00
Modify  | 45.867     | 46.01      | 46.153     |   2.1 |  1.00
Other   |            | 11.91      |            |       |  0.26

Nlocal:    9826 ave 9837 max 9815 min
Histogram: 1 0 0 0 0 0 0 0 0 1
Nghost:    11741 ave 11749 max 11733 min
Histogram: 1 0 0 0 0 0 0 0 0 1
Neighs:    590688 ave 595305 max 586071 min
Histogram: 1 0 0 0 0 0 0 0 0 1

Total # of neighbors = 1181376
Ave neighs/atom = 60.1148
Neighbor list builds = 49505
Dangerous builds not checked
Setting up Verlet run ...
  Unit style    : metal
  Current step  : 690000
  Time step     : 0.001
Per MPI rank memory allocation (min/avg/max) = 11.35 | 11.35 | 11.35 Mbytes
Step Temp Press TotEng PotEng Enthalpy 
  690000    1816.9762    543.19005   -54585.582   -59200.867   -54443.748 
  690495    1751.8598    388.04654   -54749.938   -59199.822   -54648.684 
Loop time of 47.3143 on 2 procs for 495 steps with 19652 atoms

Performance: 0.904 ns/day, 26.551 hours/ns, 10.462 timesteps/s
99.1% CPU use with 2 MPI tasks x no OpenMP threads

MPI task timing breakdown:
Section |  min time  |  avg time  |  max time  |%varavg| %total
---------------------------------------------------------------
Pair    | 26.136     | 26.256     | 26.376     |   2.3 | 55.49
Neigh   | 18.423     | 18.444     | 18.465     |   0.5 | 38.98
Comm    | 1.8235     | 1.9699     | 2.1163     |  10.4 |  4.16
Output  | 0.00013089 | 0.0001775  | 0.00022411 |   0.0 |  0.00
Modify  | 0.5068     | 0.51111    | 0.51542    |   0.6 |  1.08
Other   |            | 0.1331     |            |       |  0.28

Nlocal:    9826 ave 9826 max 9826 min
Histogram: 2 0 0 0 0 0 0 0 0 0
Nghost:    11724.5 ave 11734 max 11715 min
Histogram: 1 0 0 0 0 0 0 0 0 1
Neighs:    591184 ave 596008 max 586361 min
Histogram: 1 0 0 0 0 0 0 0 0 1

Total # of neighbors = 1182369
Ave neighs/atom = 60.1653
Neighbor list builds = 495
Dangerous builds not checked
Setting up Verlet run ...
  Unit style    : metal
  Current step  : 690495
  Time step     : 0.001
Per MPI rank memory allocation (min/avg/max) = 11.35 | 11.35 | 11.35 Mbytes
Step Temp Press TotEng PotEng Enthalpy 
  690495    1751.8598    388.04654   -54749.938   -59199.822   -54648.684 
  700000    1750.6237    291.35516   -54829.879   -59276.623   -54754.056 
  740000    1751.2362    66.129787   -54856.708   -59305.008   -54839.508 
Loop time of 4488.91 on 2 procs for 49505 steps with 19652 atoms

Performance: 0.953 ns/day, 25.188 hours/ns, 11.028 timesteps/s
98.6% CPU use with 2 MPI tasks x no OpenMP threads

MPI task timing breakdown:
Section |  min time  |  avg time  |  max time  |%varavg| %total
---------------------------------------------------------------
Pair    | 2411.7     | 2447.6     | 2483.4     |  72.4 | 54.52
Neigh   | 1704.4     | 1731.3     | 1758.2     |  64.5 | 38.57
Comm    | 190.18     | 253.39     | 316.6      | 397.1 |  5.64
Output  | 0.053387   | 0.053437   | 0.053488   |   0.0 |  0.00
Modify  | 45.006     | 45.251     | 45.496     |   3.6 |  1.01
Other   |            | 11.36      |            |       |  0.25

Nlocal:    9826 ave 9860 max 9792 min
Histogram: 1 0 0 0 0 0 0 0 0 1
Nghost:    11724 ave 11737 max 11711 min
Histogram: 1 0 0 0 0 0 0 0 0 1
Neighs:    593310 ave 595262 max 591357 min
Histogram: 1 0 0 0 0 0 0 0 0 1

Total # of neighbors = 1186619
Ave neighs/atom = 60.3816
Neighbor list builds = 49505
Dangerous builds not checked
Setting up Verlet run ...
  Unit style    : metal
  Current step  : 740000
  Time step     : 0.001
Per MPI rank memory allocation (min/avg/max) = 11.35 | 11.35 | 11.35 Mbytes
Step Temp Press TotEng PotEng Enthalpy 
  740000    1751.2362    66.129787   -54856.708   -59305.008   -54839.508 
  740495    1713.7107    72.109676   -55069.065   -59422.046   -55050.396 
Loop time of 41.9728 on 2 procs for 495 steps with 19652 atoms

Performance: 1.019 ns/day, 23.554 hours/ns, 11.793 timesteps/s
99.8% CPU use with 2 MPI tasks x no OpenMP threads

MPI task timing breakdown:
Section |  min time  |  avg time  |  max time  |%varavg| %total
---------------------------------------------------------------
Pair    | 22.107     | 22.803     | 23.498     |  14.6 | 54.33
Neigh   | 14.347     | 15.623     | 16.899     |  32.3 | 37.22
Comm    | 1.0341     | 3.0365     | 5.0388     | 114.9 |  7.23
Output  | 7.1049e-05 | 0.00011063 | 0.0001502  |   0.0 |  0.00
Modify  | 0.38819    | 0.40582    | 0.42344    |   2.8 |  0.97
Other   |            | 0.1049     |            |       |  0.25

Nlocal:    9826 ave 9847 max 9805 min
Histogram: 1 0 0 0 0 0 0 0 0 1
Nghost:    11744 ave 11755 max 11733 min
Histogram: 1 0 0 0 0 0 0 0 0 1
Neighs:    596004 ave 599219 max 592789 min
Histogram: 1 0 0 0 0 0 0 0 0 1

Total # of neighbors = 1192008
Ave neighs/atom = 60.6558
Neighbor list builds = 495
Dangerous builds not checked
Setting up Verlet run ...
  Unit style    : metal
  Current step  : 740495
  Time step     : 0.001
Per MPI rank memory allocation (min/avg/max) = 11.35 | 11.35 | 11.35 Mbytes
Step Temp Press TotEng PotEng Enthalpy 
  740495    1713.7107    72.109676   -55069.065   -59422.046   -55050.396 
  750000    1722.4068    90.239106    -55089.91    -59464.98   -55066.584 
  790000    1698.1463    298.84862   -55111.395   -59424.842   -55034.125 
Loop time of 4341.59 on 2 procs for 49505 steps with 19652 atoms

Performance: 0.985 ns/day, 24.361 hours/ns, 11.402 timesteps/s
99.1% CPU use with 2 MPI tasks x no OpenMP threads

MPI task timing breakdown:
Section |  min time  |  avg time  |  max time  |%varavg| %total
---------------------------------------------------------------
Pair    | 2346       | 2370.8     | 2395.5     |  50.8 | 54.61
Neigh   | 1679.7     | 1683.4     | 1687       |   8.9 | 38.77
Comm    | 211.06     | 232.96     | 254.87     | 143.5 |  5.37
Output  | 0.049736   | 0.049808   | 0.04988    |   0.0 |  0.00
Modify  | 42.551     | 43.46      | 44.369     |  13.8 |  1.00
Other   |            | 10.97      |            |       |  0.25

Nlocal:    9826 ave 9830 max 9822 min
Histogram: 1 0 0 0 0 0 0 0 0 1
Nghost:    11743.5 ave 11765 max 11722 min
Histogram: 1 0 0 0 0 0 0 0 0 1
Neighs:    596779 ave 603441 max 590117 min
Histogram: 1 0 0 0 0 0 0 0 0 1

Total # of neighbors = 1193558
Ave neighs/atom = 60.7347
Neighbor list builds = 49505
Dangerous builds not checked
Setting up Verlet run ...
  Unit style    : metal
  Current step  : 790000
  Time step     : 0.001
Per MPI rank memory allocation (min/avg/max) = 11.35 | 11.35 | 11.35 Mbytes
Step Temp Press TotEng PotEng Enthalpy 
  790000    1698.1463    298.84862   -55111.395   -59424.842   -55034.125 
  790495     1664.381    459.92974    -55341.61    -59569.29   -55223.337 
Loop time of 44.3066 on 2 procs for 495 steps with 19652 atoms

Performance: 0.965 ns/day, 24.863 hours/ns, 11.172 timesteps/s
98.0% CPU use with 2 MPI tasks x no OpenMP threads

MPI task timing breakdown:
Section |  min time  |  avg time  |  max time  |%varavg| %total
---------------------------------------------------------------
Pair    | 24.391     | 24.545     | 24.699     |   3.1 | 55.40
Neigh   | 16.623     | 17.281     | 17.938     |  15.8 | 39.00
Comm    | 1.3902     | 1.9111     | 2.4319     |  37.7 |  4.31
Output  | 0.00011706 | 0.00016248 | 0.0002079  |   0.0 |  0.00
Modify  | 0.43531    | 0.44462    | 0.45393    |   1.4 |  1.00
Other   |            | 0.1254     |            |       |  0.28

Nlocal:    9826 ave 9847 max 9805 min
Histogram: 1 0 0 0 0 0 0 0 0 1
Nghost:    11785 ave 11818 max 11752 min
Histogram: 1 0 0 0 0 0 0 0 0 1
Neighs:    599890 ave 603981 max 595798 min
Histogram: 1 0 0 0 0 0 0 0 0 1

Total # of neighbors = 1199779
Ave neighs/atom = 61.0512
Neighbor list builds = 495
Dangerous builds not checked
Setting up Verlet run ...
  Unit style    : metal
  Current step  : 790495
  Time step     : 0.001
Per MPI rank memory allocation (min/avg/max) = 11.35 | 11.35 | 11.35 Mbytes
Step Temp Press TotEng PotEng Enthalpy 
  790495     1664.381    459.92974    -55341.61    -59569.29   -55223.337 
  800000    1655.5232   -39.723701   -55401.266   -59606.446   -55411.472 
  840000    1661.5951     815.6112   -55438.195   -59658.798   -55229.171 
Loop time of 4548 on 2 procs for 49505 steps with 19652 atoms

Performance: 0.940 ns/day, 25.519 hours/ns, 10.885 timesteps/s
99.0% CPU use with 2 MPI tasks x no OpenMP threads

MPI task timing breakdown:
Section |  min time  |  avg time  |  max time  |%varavg| %total
---------------------------------------------------------------
Pair    | 2476.8     | 2510.5     | 2544.2     |  67.3 | 55.20
Neigh   | 1729.6     | 1742.3     | 1755       |  30.4 | 38.31
Comm    | 192.93     | 239.44     | 285.96     | 300.6 |  5.26
Output  | 0.053107   | 0.053156   | 0.053205   |   0.0 |  0.00
Modify  | 44.05      | 44.051     | 44.052     |   0.0 |  0.97
Other   |            | 11.63      |            |       |  0.26

Nlocal:    9826 ave 9867 max 9785 min
Histogram: 1 0 0 0 0 0 0 0 0 1
Nghost:    11789 ave 11853 max 11725 min
Histogram: 1 0 0 0 0 0 0 0 0 1
Neighs:    602076 ave 612510 max 591643 min
Histogram: 1 0 0 0 0 0 0 0 0 1

Total # of neighbors = 1204153
Ave neighs/atom = 61.2738
Neighbor list builds = 49505
Dangerous builds not checked
Setting up Verlet run ...
  Unit style    : metal
  Current step  : 840000
  Time step     : 0.001
Per MPI rank memory allocation (min/avg/max) = 11.35 | 11.35 | 11.35 Mbytes
Step Temp Press TotEng PotEng Enthalpy 
  840000    1661.5951     815.6112   -55438.195   -59658.798   -55229.171 
  840495    1617.1469     542.1657   -55647.187   -59754.887   -55508.809 
Loop time of 39.5147 on 2 procs for 495 steps with 19652 atoms

Performance: 1.082 ns/day, 22.174 hours/ns, 12.527 timesteps/s
99.9% CPU use with 2 MPI tasks x no OpenMP threads

MPI task timing breakdown:
Section |  min time  |  avg time  |  max time  |%varavg| %total
---------------------------------------------------------------
Pair    | 21.045     | 21.392     | 21.738     |   7.5 | 54.14
Neigh   | 15.291     | 15.76      | 16.228     |  11.8 | 39.88
Comm    | 1.0416     | 1.865      | 2.6884     |  60.3 |  4.72
Output  | 9.2983e-05 | 0.00012052 | 0.00014806 |   0.0 |  0.00
Modify  | 0.38874    | 0.3911     | 0.39345    |   0.4 |  0.99
Other   |            | 0.1071     |            |       |  0.27

Nlocal:    9826 ave 9826 max 9826 min
Histogram: 2 0 0 0 0 0 0 0 0 0
Nghost:    11848.5 ave 11858 max 11839 min
Histogram: 1 0 0 0 0 0 0 0 0 1
Neighs:    604814 ave 610616 max 599011 min
Histogram: 1 0 0 0 0 0 0 0 0 1

Total # of neighbors = 1209627
Ave neighs/atom = 61.5524
Neighbor list builds = 495
Dangerous builds not checked
Setting up Verlet run ...
  Unit style    : metal
  Current step  : 840495
  Time step     : 0.001
Per MPI rank memory allocation (min/avg/max) = 11.35 | 11.35 | 11.35 Mbytes
Step Temp Press TotEng PotEng Enthalpy 
  840495    1617.1469     542.1657   -55647.187   -59754.887   -55508.809 
  850000    1587.3359   -7.8327338   -55748.611   -59780.589    -55750.61 
  890000    1612.0881   -453.45225   -55733.516   -59828.367   -55849.147 
Loop time of 4225.87 on 2 procs for 49505 steps with 19652 atoms

Performance: 1.012 ns/day, 23.712 hours/ns, 11.715 timesteps/s
99.2% CPU use with 2 MPI tasks x no OpenMP threads

MPI task timing breakdown:
Section |  min time  |  avg time  |  max time  |%varavg| %total
---------------------------------------------------------------
Pair    | 2279.7     | 2308.7     | 2337.8     |  60.4 | 54.63
Neigh   | 1603.7     | 1620.1     | 1636.4     |  40.6 | 38.34
Comm    | 200.71     | 246.14     | 291.58     | 289.6 |  5.82
Output  | 0.057118   | 0.057172   | 0.057225   |   0.0 |  0.00
Modify  | 40.351     | 40.379     | 40.408     |   0.4 |  0.96
Other   |            | 10.45      |            |       |  0.25

Nlocal:    9826 ave 9845 max 9807 min
Histogram: 1 0 0 0 0 0 0 0 0 1
Nghost:    11804.5 ave 11814 max 11795 min
Histogram: 1 0 0 0 0 0 0 0 0 1
Neighs:    605342 ave 608400 max 602283 min
Histogram: 1 0 0 0 0 0 0 0 0 1

Total # of neighbors = 1210683
Ave neighs/atom = 61.6061
Neighbor list builds = 49505
Dangerous builds not checked
Setting up Verlet run ...
  Unit style    : metal
  Current step  : 890000
  Time step     : 0.001
Per MPI rank memory allocation (min/avg/max) = 11.35 | 11.35 | 11.35 Mbytes
Step Temp Press TotEng PotEng Enthalpy 
  890000    1612.0881   -453.45225   -55733.516   -59828.367   -55849.147 
  890495    1572.6723    151.43255   -55921.587   -59916.318   -55883.148 
Loop time of 39.0546 on 2 procs for 495 steps with 19652 atoms

Performance: 1.095 ns/day, 21.916 hours/ns, 12.675 timesteps/s
99.1% CPU use with 2 MPI tasks x no OpenMP threads

MPI task timing breakdown:
Section |  min time  |  avg time  |  max time  |%varavg| %total
---------------------------------------------------------------
Pair    | 20.663     | 21.125     | 21.587     |  10.1 | 54.09
Neigh   | 14.547     | 15.37      | 16.193     |  21.0 | 39.36
Comm    | 0.74801    | 2.0569     | 3.3658     |  91.3 |  5.27
Output  | 7.391e-05  | 0.00010037 | 0.00012684 |   0.0 |  0.00
Modify  | 0.38564    | 0.39826    | 0.41088    |   2.0 |  1.02
Other   |            | 0.1041     |            |       |  0.27

Nlocal:    9826 ave 9832 max 9820 min
Histogram: 1 0 0 0 0 0 0 0 0 1
Nghost:    11864 ave 11871 max 11857 min
Histogram: 1 0 0 0 0 0 0 0 0 1
Neighs:    608162 ave 613203 max 603120 min
Histogram: 1 0 0 0 0 0 0 0 0 1

Total # of neighbors = 1216323
Ave neighs/atom = 61.8931
Neighbor list builds = 495
Dangerous builds not checked
Setting up Verlet run ...
  Unit style    : metal
  Current step  : 890495
  Time step     : 0.001
Per MPI rank memory allocation (min/avg/max) = 11.35 | 11.35 | 11.35 Mbytes
Step Temp Press TotEng PotEng Enthalpy 
  890495    1572.6723    151.43255   -55921.587   -59916.318   -55883.148 
  900000     1554.402    -258.8247    -55965.44   -59913.763   -56031.189 
  940000    1539.3577   -985.15073    -56012.15   -59922.259   -56262.519 
Loop time of 4342.52 on 2 procs for 49505 steps with 19652 atoms

Performance: 0.985 ns/day, 24.366 hours/ns, 11.400 timesteps/s
98.8% CPU use with 2 MPI tasks x no OpenMP threads

MPI task timing breakdown:
Section |  min time  |  avg time  |  max time  |%varavg| %total
---------------------------------------------------------------
Pair    | 2354.2     | 2390.5     | 2426.7     |  74.1 | 55.05
Neigh   | 1632.5     | 1654.1     | 1675.7     |  53.1 | 38.09
Comm    | 186.75     | 244.92     | 303.09     | 371.7 |  5.64
Output  | 0.21612    | 0.21616    | 0.21621    |   0.0 |  0.00
Modify  | 41.776     | 41.876     | 41.975     |   1.5 |  0.96
Other   |            | 10.94      |            |       |  0.25

Nlocal:    9826 ave 9849 max 9803 min
Histogram: 1 0 0 0 0 0 0 0 0 1
Nghost:    11810 ave 11837 max 11783 min
Histogram: 1 0 0 0 0 0 0 0 0 1
Neighs:    607308 ave 609600 max 605015 min
Histogram: 1 0 0 0 0 0 0 0 0 1

Total # of neighbors = 1214615
Ave neighs/atom = 61.8062
Neighbor list builds = 49505
Dangerous builds not checked
Setting up Verlet run ...
  Unit style    : metal
  Current step  : 940000
  Time step     : 0.001
Per MPI rank memory allocation (min/avg/max) = 11.35 | 11.35 | 11.35 Mbytes
Step Temp Press TotEng PotEng Enthalpy 
  940000    1539.3577   -985.15073    -56012.15   -59922.259   -56262.519 
  940495    1501.2656   -282.48336   -56218.644   -60031.996   -56289.999 
Loop time of 44.5665 on 2 procs for 495 steps with 19652 atoms

Performance: 0.960 ns/day, 25.009 hours/ns, 11.107 timesteps/s
99.6% CPU use with 2 MPI tasks x no OpenMP threads

MPI task timing breakdown:
Section |  min time  |  avg time  |  max time  |%varavg| %total
---------------------------------------------------------------
Pair    | 24.344     | 24.803     | 25.262     |   9.2 | 55.65
Neigh   | 16.674     | 17.324     | 17.974     |  15.6 | 38.87
Comm    | 1.6845     | 1.8867     | 2.0888     |  14.7 |  4.23
Output  | 9.8944e-05 | 0.00012302 | 0.0001471  |   0.0 |  0.00
Modify  | 0.42767    | 0.43558    | 0.4435     |   1.2 |  0.98
Other   |            | 0.1168     |            |       |  0.26

Nlocal:    9826 ave 9852 max 9800 min
Histogram: 1 0 0 0 0 0 0 0 0 1
Nghost:    11837.5 ave 11841 max 11834 min
Histogram: 1 0 0 0 0 0 0 0 0 1
Neighs:    611550 ave 614648 max 608453 min
Histogram: 1 0 0 0 0 0 0 0 0 1

Total # of neighbors = 1223101
Ave neighs/atom = 62.238
Neighbor list builds = 495
Dangerous builds not checked
Setting up Verlet run ...
  Unit style    : metal
  Current step  : 940495
  Time step     : 0.001
Per MPI rank memory allocation (min/avg/max) = 11.35 | 11.35 | 11.35 Mbytes
Step Temp Press TotEng PotEng Enthalpy 
  940495    1501.2656   -282.48336   -56218.644   -60031.996   -56289.999 
  950000    1495.1987    87.393202   -56325.963   -60123.904   -56303.974 
  990000    1500.9678   -581.00424   -56278.373   -60090.968   -56424.888 
Loop time of 4337.78 on 2 procs for 49505 steps with 19652 atoms

Performance: 0.986 ns/day, 24.340 hours/ns, 11.413 timesteps/s
99.3% CPU use with 2 MPI tasks x no OpenMP threads

MPI task timing breakdown:
Section |  min time  |  avg time  |  max time  |%varavg| %total
---------------------------------------------------------------
Pair    | 2391.6     | 2403.2     | 2414.8     |  23.7 | 55.40
Neigh   | 1610.4     | 1626.2     | 1642       |  39.2 | 37.49
Comm    | 252.26     | 256.99     | 261.72     |  29.5 |  5.92
Output  | 0.056722   | 0.05679    | 0.056857   |   0.0 |  0.00
Modify  | 40.414     | 40.601     | 40.787     |   2.9 |  0.94
Other   |            | 10.72      |            |       |  0.25

Nlocal:    9826 ave 9842 max 9810 min
Histogram: 1 0 0 0 0 0 0 0 0 1
Nghost:    11856.5 ave 11888 max 11825 min
Histogram: 1 0 0 0 0 0 0 0 0 1
Neighs:    612360 ave 617710 max 607010 min
Histogram: 1 0 0 0 0 0 0 0 0 1

Total # of neighbors = 1224720
Ave neighs/atom = 62.3204
Neighbor list builds = 49505
Dangerous builds not checked
Setting up Verlet run ...
  Unit style    : metal
  Current step  : 990000
  Time step     : 0.001
Per MPI rank memory allocation (min/avg/max) = 11.35 | 11.35 | 11.35 Mbytes
Step Temp Press TotEng PotEng Enthalpy 
  990000    1500.9678   -581.00424   -56278.373   -60090.968   -56424.888 
  990495    1453.3349    -231.9137   -56498.611   -60190.214    -56556.83 
Loop time of 43.705 on 2 procs for 495 steps with 19652 atoms

Performance: 0.979 ns/day, 24.526 hours/ns, 11.326 timesteps/s
99.8% CPU use with 2 MPI tasks x no OpenMP threads

MPI task timing breakdown:
Section |  min time  |  avg time  |  max time  |%varavg| %total
---------------------------------------------------------------
Pair    | 23.458     | 24.006     | 24.555     |  11.2 | 54.93
Neigh   | 15.357     | 16.283     | 17.209     |  22.9 | 37.26
Comm    | 1.3747     | 2.8728     | 4.371      |  88.4 |  6.57
Output  | 0.0001018  | 0.00013793 | 0.00017405 |   0.0 |  0.00
Modify  | 0.41692    | 0.43138    | 0.44583    |   2.2 |  0.99
Other   |            | 0.1115     |            |       |  0.26

Nlocal:    9826 ave 9828 max 9824 min
Histogram: 1 0 0 0 0 0 0 0 0 1
Nghost:    11897.5 ave 11922 max 11873 min
Histogram: 1 0 0 0 0 0 0 0 0 1
Neighs:    615630 ave 621152 max 610108 min
Histogram: 1 0 0 0 0 0 0 0 0 1

Total # of neighbors = 1231260
Ave neighs/atom = 62.6532
Neighbor list builds = 495
Dangerous builds not checked
Setting up Verlet run ...
  Unit style    : metal
  Current step  : 990495
  Time step     : 0.001
Per MPI rank memory allocation (min/avg/max) = 11.35 | 11.35 | 11.35 Mbytes
Step Temp Press TotEng PotEng Enthalpy 
  990495    1453.3349    -231.9137   -56498.611   -60190.214    -56556.83 
 1000000    1442.2347   -24.795023   -56682.004   -60345.411   -56688.191 
 1040000    1440.9261   -9.7956489   -56590.073   -60250.156   -56592.527 
Loop time of 3918.57 on 2 procs for 49505 steps with 19652 atoms

Performance: 1.092 ns/day, 21.988 hours/ns, 12.633 timesteps/s
99.3% CPU use with 2 MPI tasks x no OpenMP threads

MPI task timing breakdown:
Section |  min time  |  avg time  |  max time  |%varavg| %total
---------------------------------------------------------------
Pair    | 2119       | 2138.5     | 2158       |  42.1 | 54.57
Neigh   | 1508.4     | 1508.7     | 1509.1     |   0.9 | 38.50
Comm    | 206.06     | 225.08     | 244.1      | 126.8 |  5.74
Output  | 0.047745   | 0.047778   | 0.047811   |   0.0 |  0.00
Modify  | 36.511     | 36.564     | 36.616     |   0.9 |  0.93
Other   |            | 9.636      |            |       |  0.25

Nlocal:    9826 ave 9836 max 9816 min
Histogram: 1 0 0 0 0 0 0 0 0 1
Nghost:    11940 ave 11949 max 11931 min
Histogram: 1 0 0 0 0 0 0 0 0 1
Neighs:    616834 ave 621788 max 611881 min
Histogram: 1 0 0 0 0 0 0 0 0 1

Total # of neighbors = 1233669
Ave neighs/atom = 62.7757
Neighbor list builds = 49505
Dangerous builds not checked
Setting up Verlet run ...
  Unit style    : metal
  Current step  : 1040000
  Time step     : 0.001
Per MPI rank memory allocation (min/avg/max) = 11.35 | 11.35 | 11.35 Mbytes
Step Temp Press TotEng PotEng Enthalpy 
 1040000    1440.9261   -9.7956489   -56590.073   -60250.156   -56592.527 
 1040495    1416.0046   -61.260849   -56792.055   -60388.836   -56807.314 
Loop time of 34.1328 on 2 procs for 495 steps with 19652 atoms

Performance: 1.253 ns/day, 19.154 hours/ns, 14.502 timesteps/s
99.7% CPU use with 2 MPI tasks x no OpenMP threads

MPI task timing breakdown:
Section |  min time  |  avg time  |  max time  |%varavg| %total
---------------------------------------------------------------
Pair    | 18.118     | 18.322     | 18.527     |   4.8 | 53.68
Neigh   | 13.443     | 13.754     | 14.065     |   8.4 | 40.29
Comm    | 1.5306     | 1.6415     | 1.7524     |   8.7 |  4.81
Output  | 7.7963e-05 | 0.00010097 | 0.00012398 |   0.0 |  0.00
Modify  | 0.32564    | 0.32879    | 0.33195    |   0.5 |  0.96
Other   |            | 0.08606    |            |       |  0.25

Nlocal:    9826 ave 9827 max 9825 min
Histogram: 1 0 0 0 0 0 0 0 0 1
Nghost:    11984 ave 12024 max 11944 min
Histogram: 1 0 0 0 0 0 0 0 0 1
Neighs:    620142 ave 626173 max 614110 min
Histogram: 1 0 0 0 0 0 0 0 0 1

Total # of neighbors = 1240283
Ave neighs/atom = 63.1123
Neighbor list builds = 495
Dangerous builds not checked
Setting up Verlet run ...
  Unit style    : metal
  Current step  : 1040495
  Time step     : 0.001
Per MPI rank memory allocation (min/avg/max) = 11.35 | 11.35 | 11.35 Mbytes
Step Temp Press TotEng PotEng Enthalpy 
 1040495    1416.0046   -61.260849   -56792.055   -60388.836   -56807.314 
 1050000    1418.6664    191.85679   -56858.883   -60462.425   -56811.216 
 1090000    1410.5379   -406.23675   -56869.697   -60452.592   -56970.787 
Loop time of 4032.49 on 2 procs for 49505 steps with 19652 atoms

Performance: 1.061 ns/day, 22.627 hours/ns, 12.277 timesteps/s
99.4% CPU use with 2 MPI tasks x no OpenMP threads

MPI task timing breakdown:
Section |  min time  |  avg time  |  max time  |%varavg| %total
---------------------------------------------------------------
Pair    | 2198.2     | 2217.8     | 2237.4     |  41.6 | 55.00
Neigh   | 1529.5     | 1535.6     | 1541.6     |  15.4 | 38.08
Comm    | 218.67     | 232.06     | 245.46     |  88.0 |  5.75
Output  | 0.062721   | 0.062772   | 0.062823   |   0.0 |  0.00
Modify  | 36.98      | 37.121     | 37.262     |   2.3 |  0.92
Other   |            | 9.89       |            |       |  0.25

Nlocal:    9826 ave 9858 max 9794 min
Histogram: 1 0 0 0 0 0 0 0 0 1
Nghost:    11931 ave 11962 max 11900 min
Histogram: 1 0 0 0 0 0 0 0 0 1
Neighs:    620730 ave 628790 max 612670 min
Histogram: 1 0 0 0 0 0 0 0 0 1

Total # of neighbors = 1241460
Ave neighs/atom = 63.1722
Neighbor list builds = 49505
Dangerous builds not checked
Setting up Verlet run ...
  Unit style    : metal
  Current step  : 1090000
  Time step     : 0.001
Per MPI rank memory allocation (min/avg/max) = 11.35 | 11.35 | 11.35 Mbytes
Step Temp Press TotEng PotEng Enthalpy 
 1090000    1410.5379   -406.23675   -56869.697   -60452.592   -56970.787 
 1090495    1365.0796    36.938819   -57080.062   -60547.488   -57070.918 
Loop time of 40.1216 on 2 procs for 495 steps with 19652 atoms

Performance: 1.066 ns/day, 22.515 hours/ns, 12.337 timesteps/s
99.0% CPU use with 2 MPI tasks x no OpenMP threads

MPI task timing breakdown:
Section |  min time  |  avg time  |  max time  |%varavg| %total
---------------------------------------------------------------
Pair    | 21.131     | 21.873     | 22.616     |  15.9 | 54.52
Neigh   | 15.243     | 15.581     | 15.919     |   8.6 | 38.83
Comm    | 1.7752     | 2.1795     | 2.5838     |  27.4 |  5.43
Output  | 9.7036e-05 | 0.00011957 | 0.0001421  |   0.0 |  0.00
Modify  | 0.38231    | 0.38649    | 0.39067    |   0.7 |  0.96
Other   |            | 0.1012     |            |       |  0.25

Nlocal:    9826 ave 9845 max 9807 min
Histogram: 1 0 0 0 0 0 0 0 0 1
Nghost:    11983.5 ave 11986 max 11981 min
Histogram: 1 0 0 0 0 0 0 0 0 1
Neighs:    624254 ave 628244 max 620263 min
Histogram: 1 0 0 0 0 0 0 0 0 1

Total # of neighbors = 1248507
Ave neighs/atom = 63.5308
Neighbor list builds = 495
Dangerous builds not checked
Setting up Verlet run ...
  Unit style    : metal
  Current step  : 1090495
  Time step     : 0.001
Per MPI rank memory allocation (min/avg/max) = 11.35 | 11.35 | 11.35 Mbytes
Step Temp Press TotEng PotEng Enthalpy 
 1090495    1365.0796    36.938819   -57080.062   -60547.488   -57070.918 
 1100000    1337.8179    128.34158   -57209.927   -60608.106   -57178.242 
 1140000     1344.501   -419.03645   -57184.744   -60599.899   -57288.284 
Loop time of 3948.7 on 2 procs for 49505 steps with 19652 atoms

Performance: 1.083 ns/day, 22.157 hours/ns, 12.537 timesteps/s
99.0% CPU use with 2 MPI tasks x no OpenMP threads

MPI task timing breakdown:
Section |  min time  |  avg time  |  max time  |%varavg| %total
---------------------------------------------------------------
Pair    | 2157.6     | 2163.8     | 2169.9     |  13.2 | 54.80
Neigh   | 1510.4     | 1513.2     | 1515.9     |   7.1 | 38.32
Comm    | 222.36     | 225.45     | 228.54     |  20.6 |  5.71
Output  | 0.06342    | 0.063465   | 0.06351    |   0.0 |  0.00
Modify  | 36.323     | 36.481     | 36.639     |   2.6 |  0.92
Other   |            | 9.733      |            |       |  0.25

Nlocal:    9826 ave 9834 max 9818 min
Histogram: 1 0 0 0 0 0 0 0 0 1
Nghost:    11991 ave 11998 max 11984 min
Histogram: 1 0 0 0 0 0 0 0 0 1
Neighs:    625457 ave 632535 max 618379 min
Histogram: 1 0 0 0 0 0 0 0 0 1

Total # of neighbors = 1250914
Ave neighs/atom = 63.6533
Neighbor list builds = 49505
Dangerous builds not checked
Setting up Verlet run ...
  Unit style    : metal
  Current step  : 1140000
  Time step     : 0.001
Per MPI rank memory allocation (min/avg/max) = 11.35 | 11.35 | 11.35 Mbytes
Step Temp Press TotEng PotEng Enthalpy 
 1140000     1344.501   -419.03645   -57184.744   -60599.899   -57288.284 
 1140495    1309.2472    -75.09869   -57374.209   -60699.817   -57392.696 
Loop time of 34.5766 on 2 procs for 495 steps with 19652 atoms

Performance: 1.237 ns/day, 19.403 hours/ns, 14.316 timesteps/s
99.8% CPU use with 2 MPI tasks x no OpenMP threads

MPI task timing breakdown:
Section |  min time  |  avg time  |  max time  |%varavg| %total
---------------------------------------------------------------
Pair    | 18.402     | 18.692     | 18.981     |   6.7 | 54.06
Neigh   | 13.461     | 13.795     | 14.129     |   9.0 | 39.90
Comm    | 1.0468     | 1.6779     | 2.309      |  48.7 |  4.85
Output  | 7.2956e-05 | 0.00010407 | 0.00013518 |   0.0 |  0.00
Modify  | 0.31959    | 0.32152    | 0.32346    |   0.3 |  0.93
Other   |            | 0.09055    |            |       |  0.26

Nlocal:    9826 ave 9845 max 9807 min
Histogram: 1 0 0 0 0 0 0 0 0 1
Nghost:    11963.5 ave 11971 max 11956 min
Histogram: 1 0 0 0 0 0 0 0 0 1
Neighs:    627848 ave 636328 max 619368 min
Histogram: 1 0 0 0 0 0 0 0 0 1

Total # of neighbors = 1255696
Ave neighs/atom = 63.8966
Neighbor list builds = 495
Dangerous builds not checked
Setting up Verlet run ...
  Unit style    : metal
  Current step  : 1140495
  Time step     : 0.001
Per MPI rank memory allocation (min/avg/max) = 11.35 | 11.35 | 11.35 Mbytes
Step Temp Press TotEng PotEng Enthalpy 
 1140495    1309.2472    -75.09869   -57374.209   -60699.817   -57392.696 
 1150000    1290.5999   -1116.0666   -57495.743   -60773.984   -57770.056 
 1190000    1292.0882    -581.2666   -57482.821   -60764.843     -57625.7 
Loop time of 3335.55 on 2 procs for 49505 steps with 19652 atoms

Performance: 1.282 ns/day, 18.716 hours/ns, 14.842 timesteps/s
99.6% CPU use with 2 MPI tasks x no OpenMP threads

MPI task timing breakdown:
Section |  min time  |  avg time  |  max time  |%varavg| %total
---------------------------------------------------------------
Pair    | 1780.9     | 1781.7     | 1782.4     |   1.8 | 53.41
Neigh   | 1371.5     | 1372.9     | 1374.3     |   3.8 | 41.16
Comm    | 140.39     | 140.91     | 141.44     |   4.4 |  4.22
Output  | 0.054028   | 0.05406    | 0.054092   |   0.0 |  0.00
Modify  | 31.523     | 31.529     | 31.535     |   0.1 |  0.95
Other   |            | 8.482      |            |       |  0.25

Nlocal:    9826 ave 9831 max 9821 min
Histogram: 1 0 0 0 0 0 0 0 0 1
Nghost:    11984.5 ave 11994 max 11975 min
Histogram: 1 0 0 0 0 0 0 0 0 1
Neighs:    628682 ave 633591 max 623772 min
Histogram: 1 0 0 0 0 0 0 0 0 1

Total # of neighbors = 1257363
Ave neighs/atom = 63.9814
Neighbor list builds = 49505
Dangerous builds not checked
Setting up Verlet run ...
  Unit style    : metal
  Current step  : 1190000
  Time step     : 0.001
Per MPI rank memory allocation (min/avg/max) = 11.35 | 11.35 | 11.35 Mbytes
Step Temp Press TotEng PotEng Enthalpy 
 1190000    1292.0882    -581.2666   -57482.821   -60764.843     -57625.7 
 1190495    1264.1691   -611.77661   -57674.638   -60885.743   -57824.206 
Loop time of 34.3309 on 2 procs for 495 steps with 19652 atoms

Performance: 1.246 ns/day, 19.265 hours/ns, 14.419 timesteps/s
99.2% CPU use with 2 MPI tasks x no OpenMP threads

MPI task timing breakdown:
Section |  min time  |  avg time  |  max time  |%varavg| %total
---------------------------------------------------------------
Pair    | 18.236     | 18.298     | 18.359     |   1.4 | 53.30
Neigh   | 14.09      | 14.359     | 14.629     |   7.1 | 41.83
Comm    | 0.91229    | 1.2493     | 1.5864     |  30.2 |  3.64
Output  | 6.9857e-05 | 8.3923e-05 | 9.799e-05  |   0.0 |  0.00
Modify  | 0.32651    | 0.33158    | 0.33664    |   0.9 |  0.97
Other   |            | 0.09279    |            |       |  0.27

Nlocal:    9826 ave 9834 max 9818 min
Histogram: 1 0 0 0 0 0 0 0 0 1
Nghost:    12065 ave 12082 max 12048 min
Histogram: 1 0 0 0 0 0 0 0 0 1
Neighs:    632318 ave 637740 max 626897 min
Histogram: 1 0 0 0 0 0 0 0 0 1

Total # of neighbors = 1264637
Ave neighs/atom = 64.3516
Neighbor list builds = 495
Dangerous builds not checked
Setting up Verlet run ...
  Unit style    : metal
  Current step  : 1190495
  Time step     : 0.001
Per MPI rank memory allocation (min/avg/max) = 11.35 | 11.35 | 11.35 Mbytes
Step Temp Press TotEng PotEng Enthalpy 
 1190495    1264.1691   -611.77661   -57674.638   -60885.743   -57824.206 
 1200000     1247.514   -401.86081   -57769.797   -60938.596   -57867.862 
 1240000    1253.7325    -252.0622    -57751.46   -60936.055    -57812.93 
Loop time of 3472.96 on 2 procs for 49505 steps with 19652 atoms

Performance: 1.232 ns/day, 19.487 hours/ns, 14.254 timesteps/s
99.3% CPU use with 2 MPI tasks x no OpenMP threads

MPI task timing breakdown:
Section |  min time  |  avg time  |  max time  |%varavg| %total
---------------------------------------------------------------
Pair    | 1868.8     | 1869       | 1869.1     |   0.4 | 53.82
Neigh   | 1399.1     | 1406.8     | 1414.4     |  20.4 | 40.51
Comm    | 146.08     | 153.86     | 161.64     |  62.7 |  4.43
Output  | 0.1974     | 0.19745    | 0.1975     |   0.0 |  0.01
Modify  | 33.998     | 34.022     | 34.046     |   0.4 |  0.98
Other   |            | 9.141      |            |       |  0.26

Nlocal:    9826 ave 9854 max 9798 min
Histogram: 1 0 0 0 0 0 0 0 0 1
Nghost:    12042 ave 12052 max 12032 min
Histogram: 1 0 0 0 0 0 0 0 0 1
Neighs:    633916 ave 642542 max 625289 min
Histogram: 1 0 0 0 0 0 0 0 0 1

Total # of neighbors = 1267831
Ave neighs/atom = 64.5141
Neighbor list builds = 49505
Dangerous builds not checked
Setting up Verlet run ...
  Unit style    : metal
  Current step  : 1240000
  Time step     : 0.001
Per MPI rank memory allocation (min/avg/max) = 11.35 | 11.35 | 11.35 Mbytes
Step Temp Press TotEng PotEng Enthalpy 
 1240000    1253.7325    -252.0622    -57751.46   -60936.055    -57812.93 
 1240495    1217.2773    55.969353   -57964.556   -61056.552   -57950.973 
Loop time of 35.1641 on 2 procs for 495 steps with 19652 atoms

Performance: 1.216 ns/day, 19.733 hours/ns, 14.077 timesteps/s
98.8% CPU use with 2 MPI tasks x no OpenMP threads

MPI task timing breakdown:
Section |  min time  |  avg time  |  max time  |%varavg| %total
---------------------------------------------------------------
Pair    | 18.908     | 18.966     | 19.025     |   1.3 | 53.94
Neigh   | 13.641     | 14.06      | 14.478     |  11.2 | 39.98
Comm    | 1.2274     | 1.7139     | 2.2004     |  37.2 |  4.87
Output  | 6.9857e-05 | 9.2506e-05 | 0.00011516 |   0.0 |  0.00
Modify  | 0.3235     | 0.3295     | 0.33549    |   1.0 |  0.94
Other   |            | 0.09451    |            |       |  0.27

Nlocal:    9826 ave 9848 max 9804 min
Histogram: 1 0 0 0 0 0 0 0 0 1
Nghost:    12040.5 ave 12061 max 12020 min
Histogram: 1 0 0 0 0 0 0 0 0 1
Neighs:    636952 ave 645409 max 628495 min
Histogram: 1 0 0 0 0 0 0 0 0 1

Total # of neighbors = 1273904
Ave neighs/atom = 64.8231
Neighbor list builds = 495
Dangerous builds not checked
Setting up Verlet run ...
  Unit style    : metal
  Current step  : 1240495
  Time step     : 0.001
Per MPI rank memory allocation (min/avg/max) = 11.35 | 11.35 | 11.35 Mbytes
Step Temp Press TotEng PotEng Enthalpy 
 1240495    1217.2773    55.969353   -57964.556   -61056.552   -57950.973 
 1250000    1194.3009   -101.21928   -58133.128   -61166.761   -58157.604 
 1290000    1204.7325      341.311   -58065.423   -61125.553   -57982.838 
Loop time of 3542.63 on 2 procs for 49505 steps with 19652 atoms

Performance: 1.207 ns/day, 19.878 hours/ns, 13.974 timesteps/s
99.3% CPU use with 2 MPI tasks x no OpenMP threads

MPI task timing breakdown:
Section |  min time  |  avg time  |  max time  |%varavg| %total
---------------------------------------------------------------
Pair    | 1883.4     | 1909.4     | 1935.4     |  59.5 | 53.90
Neigh   | 1411.2     | 1423.3     | 1435.3     |  31.9 | 40.18
Comm    | 128.81     | 167.08     | 205.35     | 296.1 |  4.72
Output  | 0.059988   | 0.060036   | 0.060084   |   0.0 |  0.00
Modify  | 33.521     | 33.562     | 33.604     |   0.7 |  0.95
Other   |            | 9.276      |            |       |  0.26

Nlocal:    9826 ave 9849 max 9803 min
Histogram: 1 0 0 0 0 0 0 0 0 1
Nghost:    12070.5 ave 12099 max 12042 min
Histogram: 1 0 0 0 0 0 0 0 0 1
Neighs:    639123 ave 645841 max 632405 min
Histogram: 1 0 0 0 0 0 0 0 0 1

Total # of neighbors = 1278246
Ave neighs/atom = 65.0441
Neighbor list builds = 49505
Dangerous builds not checked
Setting up Verlet run ...
  Unit style    : metal
  Current step  : 1290000
  Time step     : 0.001
Per MPI rank memory allocation (min/avg/max) = 11.35 | 11.35 | 11.35 Mbytes
Step Temp Press TotEng PotEng Enthalpy 
 1290000    1204.7325      341.311   -58065.423   -61125.553   -57982.838 
 1290495    1166.9865    660.95642   -58273.954   -61238.206   -58114.799 
Loop time of 34.6694 on 2 procs for 495 steps with 19652 atoms

Performance: 1.234 ns/day, 19.455 hours/ns, 14.278 timesteps/s
95.9% CPU use with 2 MPI tasks x no OpenMP threads

MPI task timing breakdown:
Section |  min time  |  avg time  |  max time  |%varavg| %total
---------------------------------------------------------------
Pair    | 18.292     | 18.408     | 18.524     |   2.7 | 53.10
Neigh   | 13.098     | 13.409     | 13.719     |   8.5 | 38.68
Comm    | 2.2492     | 2.4527     | 2.6561     |  13.0 |  7.07
Output  | 8.297e-05  | 0.00010443 | 0.00012589 |   0.0 |  0.00
Modify  | 0.30149    | 0.30822    | 0.31495    |   1.2 |  0.89
Other   |            | 0.09175    |            |       |  0.26

Nlocal:    9826 ave 9829 max 9823 min
Histogram: 1 0 0 0 0 0 0 0 0 1
Nghost:    12079 ave 12111 max 12047 min
Histogram: 1 0 0 0 0 0 0 0 0 1
Neighs:    642204 ave 647725 max 636684 min
[...]
Loop time of 35.5958 on 2 procs for 495 steps with 19652 atoms

Performance: 1.201 ns/day, 19.975 hours/ns, 13.906 timesteps/s
99.3% CPU use with 2 MPI tasks x no OpenMP threads

MPI task timing breakdown:
Section |  min time  |  avg time  |  max time  |%varavg| %total
---------------------------------------------------------------
Pair    | 18.959     | 19.086     | 19.213     |   2.9 | 53.62
Neigh   | 13.828     | 14.349     | 14.87      |  13.8 | 40.31
Comm    | 1.3049     | 1.7093     | 2.1137     |  30.9 |  4.80
Output  | 7.0095e-05 | 0.00010204 | 0.00013399 |   0.0 |  0.00
Modify  | 0.3509     | 0.35823    | 0.36556    |   1.2 |  1.01
Other   |            | 0.09275    |            |       |  0.26

Nlocal:    9826 ave 9832 max 9820 min
Histogram: 1 0 0 0 0 0 0 0 0 1
Nghost:    12670 ave 12672 max 12668 min
Histogram: 1 0 0 0 0 0 0 0 0 1
Neighs:    715161 ave 715516 max 714806 min
Histogram: 1 0 0 0 0 0 0 0 0 1

Total # of neighbors = 1430322
Ave neighs/atom = 72.7825
Neighbor list builds = 495
Dangerous builds not checked
Setting up Verlet run ...
  Unit style    : metal
  Current step  : 2040495
  Time step     : 0.001
Per MPI rank memory allocation (min/avg/max) = 11.35 | 11.35 | 11.35 Mbytes
Step Temp Press TotEng PotEng Enthalpy 
 2040495    425.31054   -458.32225   -63150.144   -64230.471   -63249.395 
 2050000    400.67587    481.64439   -63339.554   -64357.307   -63235.818 
 2090000    394.98941   -1047.8543   -63415.963   -64419.272   -63641.583 
Loop time of 3252.17 on 2 procs for 49505 steps with 19652 atoms

Performance: 1.315 ns/day, 18.248 hours/ns, 15.222 timesteps/s
99.5% CPU use with 2 MPI tasks x no OpenMP threads

MPI task timing breakdown:
Section |  min time  |  avg time  |  max time  |%varavg| %total
---------------------------------------------------------------
Pair    | 1727.1     | 1727.3     | 1727.5     |   0.5 | 53.11
Neigh   | 1372.4     | 1374.1     | 1375.8     |   4.6 | 42.25
Comm    | 110.51     | 111.98     | 113.44     |  13.8 |  3.44
Output  | 0.039618   | 0.039652   | 0.039686   |   0.0 |  0.00
Modify  | 30.183     | 30.184     | 30.186     |   0.0 |  0.93
Other   |            | 8.526      |            |       |  0.26

Nlocal:    9826 ave 9832 max 9820 min
Histogram: 1 0 0 0 0 0 0 0 0 1
Nghost:    12678 ave 12698 max 12658 min
Histogram: 1 0 0 0 0 0 0 0 0 1
Neighs:    719409 ave 719891 max 718927 min
Histogram: 1 0 0 0 0 0 0 0 0 1

Total # of neighbors = 1438818
Ave neighs/atom = 73.2148
Neighbor list builds = 49505
Dangerous builds not checked
Setting up Verlet run ...
  Unit style    : metal
  Current step  : 2090000
  Time step     : 0.001
Per MPI rank memory allocation (min/avg/max) = 11.35 | 11.35 | 11.35 Mbytes
Step Temp Press TotEng PotEng Enthalpy 
 2090000    394.98941   -1047.8543   -63415.963   -64419.272   -63641.583 
 2090495    369.05714   -669.85889   -63548.481    -64485.92   -63692.334 
Loop time of 32.1543 on 2 procs for 495 steps with 19652 atoms

Performance: 1.330 ns/day, 18.044 hours/ns, 15.395 timesteps/s
100.0% CPU use with 2 MPI tasks x no OpenMP threads

MPI task timing breakdown:
Section |  min time  |  avg time  |  max time  |%varavg| %total
---------------------------------------------------------------
Pair    | 17.059     | 17.162     | 17.266     |   2.5 | 53.38
Neigh   | 12.85      | 13.388     | 13.925     |  14.7 | 41.64
Comm    | 0.78825    | 1.2342     | 1.6802     |  40.1 |  3.84
Output  | 5.6028e-05 | 7.8559e-05 | 0.00010109 |   0.0 |  0.00
Modify  | 0.28044    | 0.28884    | 0.29725    |   1.6 |  0.90
Other   |            | 0.08098    |            |       |  0.25

Nlocal:    9826 ave 9830 max 9822 min
Histogram: 1 0 0 0 0 0 0 0 0 1
Nghost:    12673 ave 12678 max 12668 min
Histogram: 1 0 0 0 0 0 0 0 0 1
Neighs:    720973 ave 721534 max 720412 min
Histogram: 1 0 0 0 0 0 0 0 0 1

Total # of neighbors = 1441946
Ave neighs/atom = 73.374
Neighbor list builds = 495
Dangerous builds not checked
Setting up Verlet run ...
  Unit style    : metal
  Current step  : 2090495
  Time step     : 0.001
Per MPI rank memory allocation (min/avg/max) = 11.35 | 11.35 | 11.35 Mbytes
Step Temp Press TotEng PotEng Enthalpy 
 2090495    369.05714   -669.85889   -63548.481    -64485.92   -63692.334 
 2100000    354.32818     186.5861   -63694.469   -64594.495   -63654.579 
 2140000    348.75808    2.9300342   -63748.357   -64634.235   -63747.732 
Loop time of 4024.74 on 2 procs for 49505 steps with 19652 atoms

Performance: 1.063 ns/day, 22.583 hours/ns, 12.300 timesteps/s
97.5% CPU use with 2 MPI tasks x no OpenMP threads

MPI task timing breakdown:
Section |  min time  |  avg time  |  max time  |%varavg| %total
---------------------------------------------------------------
Pair    | 2188.5     | 2191.6     | 2194.6     |   6.4 | 54.45
Neigh   | 1531.7     | 1556       | 1580.3     |  61.6 | 38.66
Comm    | 206.94     | 228.95     | 250.96     | 145.5 |  5.69
Output  | 0.13958    | 0.13962    | 0.13966    |   0.0 |  0.00
Modify  | 37.449     | 37.845     | 38.242     |   6.4 |  0.94
Other   |            | 10.28      |            |       |  0.26

Nlocal:    9826 ave 9834 max 9818 min
Histogram: 1 0 0 0 0 0 0 0 0 1
Nghost:    12741.5 ave 12758 max 12725 min
Histogram: 1 0 0 0 0 0 0 0 0 1
Neighs:    724228 ave 725269 max 723188 min
Histogram: 1 0 0 0 0 0 0 0 0 1

Total # of neighbors = 1448457
Ave neighs/atom = 73.7053
Neighbor list builds = 49505
Dangerous builds not checked
Setting up Verlet run ...
  Unit style    : metal
  Current step  : 2140000
  Time step     : 0.001
Per MPI rank memory allocation (min/avg/max) = 11.35 | 11.35 | 11.35 Mbytes
Step Temp Press TotEng PotEng Enthalpy 
 2140000    348.75808    2.9300342   -63748.357   -64634.235   -63747.732 
 2140495    324.35074   -399.97409   -63895.194   -64719.074   -63980.421 
Loop time of 46.8315 on 2 procs for 495 steps with 19652 atoms

Performance: 0.913 ns/day, 26.280 hours/ns, 10.570 timesteps/s
93.7% CPU use with 2 MPI tasks x no OpenMP threads

MPI task timing breakdown:
Section |  min time  |  avg time  |  max time  |%varavg| %total
---------------------------------------------------------------
Pair    | 25.955     | 26.019     | 26.083     |   1.3 | 55.56
Neigh   | 12.396     | 15.909     | 19.421     |  88.1 | 33.97
Comm    | 0.83644    | 4.378      | 7.9196     | 169.3 |  9.35
Output  | 8.9169e-05 | 0.00012004 | 0.00015092 |   0.0 |  0.00
Modify  | 0.36319    | 0.42089    | 0.47858    |   8.9 |  0.90
Other   |            | 0.1047     |            |       |  0.22

Nlocal:    9826 ave 9828 max 9824 min
Histogram: 1 0 0 0 0 0 0 0 0 1
Nghost:    12756.5 ave 12777 max 12736 min
Histogram: 1 0 0 0 0 0 0 0 0 1
Neighs:    725649 ave 725927 max 725371 min
Histogram: 1 0 0 0 0 0 0 0 0 1

Total # of neighbors = 1451298
Ave neighs/atom = 73.8499
Neighbor list builds = 495
Dangerous builds not checked
Setting up Verlet run ...
  Unit style    : metal
  Current step  : 2140495
  Time step     : 0.001
Per MPI rank memory allocation (min/avg/max) = 11.35 | 11.35 | 11.35 Mbytes
Step Temp Press TotEng PotEng Enthalpy 
 2140495    324.35074   -399.97409   -63895.194   -64719.074   -63980.421 
 2150000    302.17344    725.43492   -64036.928   -64804.476   -63882.975 
 2190000    298.03679   -693.27556    -64073.06     -64830.1   -64220.317 
Loop time of 4555.48 on 2 procs for 49505 steps with 19652 atoms

Performance: 0.939 ns/day, 25.561 hours/ns, 10.867 timesteps/s
93.9% CPU use with 2 MPI tasks x no OpenMP threads

MPI task timing breakdown:
Section |  min time  |  avg time  |  max time  |%varavg| %total
---------------------------------------------------------------
Pair    | 2498.4     | 2500.3     | 2502.2     |   3.7 | 54.89
Neigh   | 1699.3     | 1702.8     | 1706.3     |   8.5 | 37.38
Comm    | 291.07     | 296.51     | 301.96     |  31.6 |  6.51
Output  | 0.19221    | 0.19226    | 0.1923     |   0.0 |  0.00
Modify  | 44.288     | 44.326     | 44.364     |   0.6 |  0.97
Other   |            | 11.33      |            |       |  0.25

Nlocal:    9826 ave 9831 max 9821 min
Histogram: 1 0 0 0 0 0 0 0 0 1
Nghost:    12771 ave 12780 max 12762 min
Histogram: 1 0 0 0 0 0 0 0 0 1
Neighs:    727404 ave 727869 max 726939 min
Histogram: 1 0 0 0 0 0 0 0 0 1

Total # of neighbors = 1454808
Ave neighs/atom = 74.0285
Neighbor list builds = 49505
Dangerous builds not checked
Setting up Verlet run ...
  Unit style    : metal
  Current step  : 2190000
  Time step     : 0.001
Per MPI rank memory allocation (min/avg/max) = 11.35 | 11.35 | 11.35 Mbytes
Step Temp Press TotEng PotEng Enthalpy 
 2190000    298.03679   -693.27556    -64073.06     -64830.1   -64220.317 
 2190495    273.19953    83.005362   -64207.298    -64901.25   -64189.722 
Loop time of 44.658 on 2 procs for 495 steps with 19652 atoms

Performance: 0.958 ns/day, 25.061 hours/ns, 11.084 timesteps/s
97.2% CPU use with 2 MPI tasks x no OpenMP threads

MPI task timing breakdown:
Section |  min time  |  avg time  |  max time  |%varavg| %total
---------------------------------------------------------------
Pair    | 24.687     | 24.732     | 24.778     |   0.9 | 55.38
Neigh   | 13.025     | 15.72      | 18.416     |  68.0 | 35.20
Comm    | 0.88549    | 3.6999     | 6.5143     | 146.3 |  8.28
Output  | 6.8903e-05 | 0.00010145 | 0.00013399 |   0.0 |  0.00
Modify  | 0.35365    | 0.40184    | 0.45002    |   7.6 |  0.90
Other   |            | 0.1038     |            |       |  0.23

Nlocal:    9826 ave 9833 max 9819 min
Histogram: 1 0 0 0 0 0 0 0 0 1
Nghost:    12784.5 ave 12797 max 12772 min
Histogram: 1 0 0 0 0 0 0 0 0 1
Neighs:    729430 ave 729633 max 729227 min
Histogram: 1 0 0 0 0 0 0 0 0 1

Total # of neighbors = 1458860
Ave neighs/atom = 74.2347
Neighbor list builds = 495
Dangerous builds not checked
Setting up Verlet run ...
  Unit style    : metal
  Current step  : 2190495
  Time step     : 0.001
Per MPI rank memory allocation (min/avg/max) = 11.35 | 11.35 | 11.35 Mbytes
Step Temp Press TotEng PotEng Enthalpy 
 2190495    273.19953    83.005362   -64207.298    -64901.25   -64189.722 
 2200000    249.18508   -67.432272   -64350.669   -64983.622   -64364.915 
 2240000    247.82533   -324.73005   -64352.275   -64981.774   -64420.902 
Loop time of 3976.63 on 2 procs for 49505 steps with 19652 atoms

Performance: 1.076 ns/day, 22.313 hours/ns, 12.449 timesteps/s
97.1% CPU use with 2 MPI tasks x no OpenMP threads

MPI task timing breakdown:
Section |  min time  |  avg time  |  max time  |%varavg| %total
---------------------------------------------------------------
Pair    | 2168       | 2168.8     | 2169.5     |   1.6 | 54.54
Neigh   | 1528.7     | 1541.4     | 1554.2     |  32.5 | 38.76
Comm    | 204.77     | 218.66     | 232.54     |  93.9 |  5.50
Output  | 0.049819   | 0.049863   | 0.049907   |   0.0 |  0.00
Modify  | 37.511     | 37.761     | 38.012     |   4.1 |  0.95
Other   |            | 9.953      |            |       |  0.25

Nlocal:    9826 ave 9830 max 9822 min
Histogram: 1 0 0 0 0 0 0 0 0 1
Nghost:    12809.5 ave 12818 max 12801 min
Histogram: 1 0 0 0 0 0 0 0 0 1
Neighs:    730738 ave 731383 max 730094 min
Histogram: 1 0 0 0 0 0 0 0 0 1

Total # of neighbors = 1461477
Ave neighs/atom = 74.3679
Neighbor list builds = 49505
Dangerous builds not checked
Setting up Verlet run ...
  Unit style    : metal
  Current step  : 2240000
  Time step     : 0.001
Per MPI rank memory allocation (min/avg/max) = 11.35 | 11.35 | 11.35 Mbytes
Step Temp Press TotEng PotEng Enthalpy 
 2240000    247.82533   -324.73005   -64352.275   -64981.774   -64420.902 
 2240495    225.34813    123.33364   -64483.877   -65056.282   -64457.885 
Loop time of 35.5266 on 2 procs for 495 steps with 19652 atoms

Performance: 1.204 ns/day, 19.936 hours/ns, 13.933 timesteps/s
97.7% CPU use with 2 MPI tasks x no OpenMP threads

MPI task timing breakdown:
Section |  min time  |  avg time  |  max time  |%varavg| %total
---------------------------------------------------------------
Pair    | 19.118     | 19.34      | 19.562     |   5.1 | 54.44
Neigh   | 12.418     | 13.827     | 15.236     |  37.9 | 38.92
Comm    | 0.74096    | 1.9634     | 3.1859     |  87.2 |  5.53
Output  | 5.6028e-05 | 7.3433e-05 | 9.0837e-05 |   0.0 |  0.00
Modify  | 0.28686    | 0.30832    | 0.32979    |   3.9 |  0.87
Other   |            | 0.08751    |            |       |  0.25

Nlocal:    9826 ave 9828 max 9824 min
Histogram: 1 0 0 0 0 0 0 0 0 1
Nghost:    12843.5 ave 12858 max 12829 min
Histogram: 1 0 0 0 0 0 0 0 0 1
Neighs:    732436 ave 732681 max 732192 min
Histogram: 1 0 0 0 0 0 0 0 0 1

Total # of neighbors = 1464873
Ave neighs/atom = 74.5407
Neighbor list builds = 495
Dangerous builds not checked
Setting up Verlet run ...
  Unit style    : metal
  Current step  : 2240495
  Time step     : 0.001
Per MPI rank memory allocation (min/avg/max) = 11.35 | 11.35 | 11.35 Mbytes
Step Temp Press TotEng PotEng Enthalpy 
 2240495    225.34813    123.33364   -64483.877   -65056.282   -64457.885 
 2250000    199.85463   -386.60243   -64621.639   -65129.288   -64702.981 
 2290000    201.03535   -83.474904   -64624.246   -65134.894   -64641.801 
Loop time of 4552.41 on 2 procs for 49505 steps with 19652 atoms

Performance: 0.940 ns/day, 25.544 hours/ns, 10.874 timesteps/s
93.2% CPU use with 2 MPI tasks x no OpenMP threads

MPI task timing breakdown:
Section |  min time  |  avg time  |  max time  |%varavg| %total
---------------------------------------------------------------
Pair    | 2499.7     | 2503.3     | 2506.9     |   7.2 | 54.99
Neigh   | 1665.4     | 1667.2     | 1668.9     |   4.3 | 36.62
Comm    | 322.81     | 324.77     | 326.73     |  10.9 |  7.13
Output  | 0.056313   | 0.056353   | 0.056394   |   0.0 |  0.00
Modify  | 46.025     | 46.158     | 46.29      |   1.9 |  1.01
Other   |            | 10.98      |            |       |  0.24

Nlocal:    9826 ave 9830 max 9822 min
Histogram: 1 0 0 0 0 0 0 0 0 1
Nghost:    12844 ave 12849 max 12839 min
Histogram: 1 0 0 0 0 0 0 0 0 1
Neighs:    733817 ave 733837 max 733797 min
Histogram: 1 0 0 0 0 0 0 0 0 1

Total # of neighbors = 1467634
Ave neighs/atom = 74.6812
Neighbor list builds = 49505
Dangerous builds not checked
Setting up Verlet run ...
  Unit style    : metal
  Current step  : 2290000
  Time step     : 0.001
Per MPI rank memory allocation (min/avg/max) = 11.35 | 11.35 | 11.35 Mbytes
Step Temp Press TotEng PotEng Enthalpy 
 2290000    201.03535   -83.474904   -64624.246   -65134.894   -64641.801 
 2290495    177.80345    284.88808   -64752.146   -65203.783   -64692.381 
Loop time of 38.017 on 2 procs for 495 steps with 19652 atoms

Performance: 1.125 ns/day, 21.334 hours/ns, 13.020 timesteps/s
99.7% CPU use with 2 MPI tasks x no OpenMP threads

MPI task timing breakdown:
Section |  min time  |  avg time  |  max time  |%varavg| %total
---------------------------------------------------------------
Pair    | 20.651     | 20.714     | 20.778     |   1.4 | 54.49
Neigh   | 13.525     | 14.612     | 15.699     |  28.4 | 38.44
Comm    | 1.0803     | 2.2576     | 3.4348     |  78.4 |  5.94
Output  | 8.297e-05  | 0.00012958 | 0.00017619 |   0.0 |  0.00
Modify  | 0.32506    | 0.34042    | 0.35578    |   2.6 |  0.90
Other   |            | 0.0923     |            |       |  0.24

Nlocal:    9826 ave 9827 max 9825 min
Histogram: 1 0 0 0 0 0 0 0 0 1
Nghost:    12830.5 ave 12833 max 12828 min
Histogram: 1 0 0 0 0 0 0 0 0 1
Neighs:    735415 ave 735651 max 735179 min
Histogram: 1 0 0 0 0 0 0 0 0 1

Total # of neighbors = 1470830
Ave neighs/atom = 74.8438
Neighbor list builds = 495
Dangerous builds not checked
Setting up Verlet run ...
  Unit style    : metal
  Current step  : 2290495
  Time step     : 0.001
Per MPI rank memory allocation (min/avg/max) = 11.35 | 11.35 | 11.35 Mbytes
Step Temp Press TotEng PotEng Enthalpy 
 2290495    177.80345    284.88808   -64752.146   -65203.783   -64692.381 
 2300000    149.25801   -606.41438   -64888.639   -65267.768    -65015.75 
 2340000    148.43627    312.26737   -64897.333   -65274.375   -64831.961 
Loop time of 4481.75 on 2 procs for 49505 steps with 19652 atoms

Performance: 0.954 ns/day, 25.148 hours/ns, 11.046 timesteps/s
93.4% CPU use with 2 MPI tasks x no OpenMP threads

MPI task timing breakdown:
Section |  min time  |  avg time  |  max time  |%varavg| %total
---------------------------------------------------------------
Pair    | 2464.3     | 2464.8     | 2465.3     |   1.0 | 55.00
Neigh   | 1630.2     | 1653.7     | 1677.1     |  57.7 | 36.90
Comm    | 283.95     | 307.4      | 330.85     | 133.7 |  6.86
Output  | 0.1509     | 0.15094    | 0.15098    |   0.0 |  0.00
Modify  | 44.515     | 44.708     | 44.902     |   2.9 |  1.00
Other   |            | 11.05      |            |       |  0.25

Nlocal:    9826 ave 9831 max 9821 min
Histogram: 1 0 0 0 0 0 0 0 0 1
Nghost:    12862.5 ave 12864 max 12861 min
Histogram: 1 0 0 0 0 0 0 0 0 1
Neighs:    736820 ave 737924 max 735716 min
Histogram: 1 0 0 0 0 0 0 0 0 1

Total # of neighbors = 1473640
Ave neighs/atom = 74.9868
Neighbor list builds = 49505
Dangerous builds not checked
Setting up Verlet run ...
  Unit style    : metal
  Current step  : 2340000
  Time step     : 0.001
Per MPI rank memory allocation (min/avg/max) = 11.35 | 11.35 | 11.35 Mbytes
Step Temp Press TotEng PotEng Enthalpy 
 2340000    148.43627    312.26737   -64897.333   -65274.375   -64831.961 
 2340495    126.39479   -101.64378   -65013.662   -65334.716   -65034.914 
Loop time of 46.3597 on 2 procs for 495 steps with 19652 atoms

Performance: 0.923 ns/day, 26.016 hours/ns, 10.677 timesteps/s
94.3% CPU use with 2 MPI tasks x no OpenMP threads

MPI task timing breakdown:
Section |  min time  |  avg time  |  max time  |%varavg| %total
---------------------------------------------------------------
Pair    | 25.422     | 25.543     | 25.663     |   2.4 | 55.10
Neigh   | 15.205     | 16.129     | 17.052     |  23.0 | 34.79
Comm    | 3.3116     | 4.1448     | 4.978      |  40.9 |  8.94
Output  | 9.799e-05  | 0.00012851 | 0.00015903 |   0.0 |  0.00
Modify  | 0.41342    | 0.4352     | 0.45698    |   3.3 |  0.94
Other   |            | 0.1084     |            |       |  0.23

Nlocal:    9826 ave 9830 max 9822 min
Histogram: 1 0 0 0 0 0 0 0 0 1
Nghost:    12869.5 ave 12884 max 12855 min
Histogram: 1 0 0 0 0 0 0 0 0 1
Neighs:    737478 ave 737571 max 737385 min
Histogram: 1 0 0 0 0 0 0 0 0 1

Total # of neighbors = 1474956
Ave neighs/atom = 75.0537
Neighbor list builds = 495
Dangerous builds not checked
Setting up Verlet run ...
  Unit style    : metal
  Current step  : 2340495
  Time step     : 0.001
Per MPI rank memory allocation (min/avg/max) = 11.35 | 11.35 | 11.35 Mbytes
Step Temp Press TotEng PotEng Enthalpy 
 2340495    126.39479   -101.64378   -65013.662   -65334.716   -65034.914 
 2350000    100.10235    214.98356   -65154.461    -65408.73   -65109.626 
 2390000    100.96109    52.845857   -65155.346   -65411.796   -65144.323 
Loop time of 4342.4 on 2 procs for 49505 steps with 19652 atoms

Performance: 0.985 ns/day, 24.366 hours/ns, 11.400 timesteps/s
94.6% CPU use with 2 MPI tasks x no OpenMP threads

MPI task timing breakdown:
Section |  min time  |  avg time  |  max time  |%varavg| %total
---------------------------------------------------------------
Pair    | 2379.7     | 2388       | 2396.2     |  16.9 | 54.99
Neigh   | 1607       | 1616.6     | 1626.2     |  23.8 | 37.23
Comm    | 266.37     | 284.47     | 302.56     | 107.3 |  6.55
Output  | 0.059601   | 0.059656   | 0.05971    |   0.0 |  0.00
Modify  | 42.553     | 42.592     | 42.631     |   0.6 |  0.98
Other   |            | 10.75      |            |       |  0.25

Nlocal:    9826 ave 9837 max 9815 min
Histogram: 1 0 0 0 0 0 0 0 0 1
Nghost:    12878.5 ave 12908 max 12849 min
Histogram: 1 0 0 0 0 0 0 0 0 1
Neighs:    739022 ave 739346 max 738698 min
Histogram: 1 0 0 0 0 0 0 0 0 1

Total # of neighbors = 1478044
Ave neighs/atom = 75.2109
Neighbor list builds = 49505
Dangerous builds not checked
Total wall time: 55:37:43
