LAMMPS (12 Dec 2018)
Lattice spacing in x,y,z = 4 4 4
Created orthogonal box = (0 0 0) to (68 68 68)
  1 by 1 by 2 MPI processor grid
Created 19652 atoms
  Time spent = 0.00192404 secs
Setting atom values ...
  19281 settings made for type/fraction
Neighbor list info ...
  update every 1 steps, delay 0 steps, check no
  max neighbors/atom: 2000, page size: 100000
  master list distance cutoff = 10
  ghost atom cutoff = 10
  binsize = 5, bins = 14 14 14
  1 neighbor lists, perpetual/occasional/extra = 1 0 0
  (1) pair eam/fs, perpetual
      attributes: half, newton on
      pair build: half/bin/atomonly/newton
      stencil: half/bin/3d/newton
      bin: standard
Setting up Verlet run ...
  Unit style    : metal
  Current step  : 0
  Time step     : 0.001
Per MPI rank memory allocation (min/avg/max) = 12.91 | 12.92 | 12.92 Mbytes
Step Temp Press TotEng PotEng Enthalpy Volume 
       0          300    1510751.6    3055.7823    2293.7549    299545.37       314432 
    1000    224.67487    1508543.9    3055.8212    2485.1266    299112.14       314432 
Loop time of 260.66 on 2 procs for 1000 steps with 19652 atoms

Performance: 0.331 ns/day, 72.406 hours/ns, 3.836 timesteps/s
99.1% CPU use with 2 MPI tasks x no OpenMP threads

MPI task timing breakdown:
Section |  min time  |  avg time  |  max time  |%varavg| %total
---------------------------------------------------------------
Pair    | 183.06     | 184.52     | 185.99     |  10.8 | 70.79
Neigh   | 69.156     | 69.579     | 70.002     |   5.1 | 26.69
Comm    | 3.9239     | 5.8072     | 7.6905     |  78.2 |  2.23
Output  | 0.043448   | 0.04345    | 0.043452   |   0.0 |  0.02
Modify  | 0.35635    | 0.35875    | 0.36115    |   0.4 |  0.14
Other   |            | 0.3481     |            |       |  0.13

Nlocal:    9826 ave 9831 max 9821 min
Histogram: 1 0 0 0 0 0 0 0 0 1
Nghost:    16300.5 ave 16322 max 16279 min
Histogram: 1 0 0 0 0 0 0 0 0 1
Neighs:    1.22069e+06 ave 1.24034e+06 max 1.20105e+06 min
Histogram: 1 0 0 0 0 0 0 0 0 1

Total # of neighbors = 2441387
Ave neighs/atom = 124.231
Neighbor list builds = 1000
Dangerous builds not checked
Setting up Verlet run ...
  Unit style    : metal
  Current step  : 1000
  Time step     : 0.001
Per MPI rank memory allocation (min/avg/max) = 12.92 | 12.93 | 12.93 Mbytes
Step Temp Press TotEng PotEng Enthalpy Volume 
    1000    224.67487    1508543.9    3055.8212    2485.1266    299112.14       314432 
    2000    317.46773    52.025716   -94409.324   -95215.721    -94386.48    703520.81 
Loop time of 159.257 on 2 procs for 1000 steps with 19652 atoms

Performance: 0.543 ns/day, 44.238 hours/ns, 6.279 timesteps/s
99.5% CPU use with 2 MPI tasks x no OpenMP threads

MPI task timing breakdown:
Section |  min time  |  avg time  |  max time  |%varavg| %total
---------------------------------------------------------------
Pair    | 109.92     | 110.31     | 110.7      |   3.7 | 69.27
Neigh   | 44.306     | 44.53      | 44.754     |   3.4 | 27.96
Comm    | 2.7994     | 2.9599     | 3.1203     |   9.3 |  1.86
Output  | 0.038613   | 0.038641   | 0.038669   |   0.0 |  0.02
Modify  | 1.0854     | 1.0895     | 1.0936     |   0.4 |  0.68
Other   |            | 0.3255     |            |       |  0.20

Nlocal:    9826 ave 9836 max 9816 min
Histogram: 1 0 0 0 0 0 0 0 0 1
Nghost:    10429.5 ave 10434 max 10425 min
Histogram: 1 0 0 0 0 0 0 0 0 1
Neighs:    601396 ave 607794 max 594998 min
Histogram: 1 0 0 0 0 0 0 0 0 1

Total # of neighbors = 1202792
Ave neighs/atom = 61.2046
Neighbor list builds = 1000
Dangerous builds not checked
Setting up Verlet run ...
  Unit style    : metal
  Current step  : 2000
  Time step     : 0.001
Per MPI rank memory allocation (min/avg/max) = 12.94 | 12.94 | 12.95 Mbytes
Step Temp Press TotEng PotEng Enthalpy Volume 
    2000    317.46773    52.025716   -94409.324   -95215.721    -94386.48    703520.81 
    3000    482.55879    165.39211   -93605.138   -94830.881   -93532.265    705926.82 
    4000    806.70273    -487.8224   -91933.694   -93982.793   -92150.511    712099.32 
    5000    1098.1663   -936.07359   -90458.676   -93248.118   -90877.885    717514.89 
    6000    1364.0908    -195.4154   -89013.673   -92478.588   -89101.691    721639.25 
    7000    1638.5635   -557.95696   -87550.382   -91712.482   -87803.878    727916.41 
    8000    1905.7777   -983.50896    -86115.65   -90956.499   -86566.328    734172.98 
    9000    2176.2244    323.68591   -84587.829   -90115.637   -84438.713    738087.98 
   10000    2449.9743    1250.8533   -82884.944   -89108.102   -82303.398    744883.45 
Loop time of 1200.74 on 2 procs for 8000 steps with 19652 atoms

Performance: 0.576 ns/day, 41.692 hours/ns, 6.663 timesteps/s
98.7% CPU use with 2 MPI tasks x no OpenMP threads

MPI task timing breakdown:
Section |  min time  |  avg time  |  max time  |%varavg| %total
---------------------------------------------------------------
Pair    | 846.04     | 850.72     | 855.41     |  16.1 | 70.85
Neigh   | 306.51     | 306.69     | 306.86     |   1.0 | 25.54
Comm    | 26.443     | 31.363     | 36.283     |  87.9 |  2.61
Output  | 0.32529    | 0.32588    | 0.32647    |   0.1 |  0.03
Modify  | 9.0037     | 9.0416     | 9.0796     |   1.3 |  0.75
Other   |            | 2.596      |            |       |  0.22

Nlocal:    9826 ave 9836 max 9816 min
Histogram: 1 0 0 0 0 0 0 0 0 1
Nghost:    10642.5 ave 10670 max 10615 min
Histogram: 1 0 0 0 0 0 0 0 0 1
Neighs:    541758 ave 541896 max 541621 min
Histogram: 1 0 0 0 0 0 0 0 0 1

Total # of neighbors = 1083517
Ave neighs/atom = 55.1352
Neighbor list builds = 8000
Dangerous builds not checked
Setting up Verlet run ...
  Unit style    : metal
  Current step  : 10000
  Time step     : 0.001
Per MPI rank memory allocation (min/avg/max) = 12.95 | 12.96 | 12.96 Mbytes
Step Temp Press TotEng PotEng Enthalpy Volume 
   10000    2449.9743    1250.8533   -82884.944   -89108.102   -82303.398    744883.45 
   11000    2454.7577    308.15238   -82811.272    -89046.58   -82667.615    746914.56 
   12000    2442.6061    714.46416   -82803.402   -89007.844   -82470.626    746246.01 
   13000    2440.7801    877.23194   -82681.041   -88880.845   -82272.015     747044.7 
   14000    2459.0439    1240.8049   -82671.757   -88917.952   -82094.038    745973.53 
   15000    2446.1163    936.98722   -82713.614   -88926.972   -82276.982    746607.95 
   16000    2464.0975    829.03361    -82694.61   -88953.643   -82308.202    746766.13 
   17000    2453.1956    1328.9908   -82763.527   -88994.867   -82145.221    745404.37 
   18000    2454.6841    619.62841    -82649.78   -88884.902   -82360.721    747421.98 
   19000    2474.6471    825.42081   -82650.925   -88936.754   -82266.092    746977.58 
   20000    2465.8745    783.34853   -82527.017   -88790.563   -82161.438    747715.25 
   21000    2436.6077    1056.2315   -82639.076   -88828.282   -82146.754    746794.72 
   22000    2463.5793    1357.9899   -82592.236   -88849.952    -81959.67    746309.95 
   23000    2452.6944    1001.7836   -82606.107   -88836.174   -82139.042    746987.82 
   24000    2462.5543    911.21347   -82535.418    -88790.53   -82110.187    747678.31 
   25000    2461.0369    1141.7959   -82516.218   -88767.476   -81983.822    747061.43 
   26000    2473.5158    493.86864   -82428.432   -88711.388   -82197.713    748485.71 
   27000    2480.0969    -311.9417   -82399.539   -88699.211   -82545.647    750432.06 
   28000    2461.7921   -480.60225   -82444.928   -88698.104   -82670.054    750499.27 
   29000    2452.3053   -762.11523   -82403.101    -88632.18   -82760.632    751628.98 
   30000     2452.387    -850.4727   -82348.229   -88577.515   -82747.368    751924.74 
   31000    2431.3277   -1069.1966   -82404.754   -88580.548   -82906.805    752316.87 
   32000    2451.6921   -1093.2315   -82311.371   -88538.892   -82825.035    752795.74 
   33000     2459.027    -23.59378   -82269.496   -88515.648   -82280.552    750836.74 
   34000    2446.3588    239.18007   -82214.766    -88428.74   -82102.665    750919.94 
   35000     2466.584    256.55183   -82085.199   -88350.548   -81964.912    751200.91 
   36000    2442.2422   -104.87712   -82086.113   -88289.631    -82135.37    752482.71 
   37000    2448.7575    -953.4509   -81891.341   -88111.408   -82340.785     755244.5 
   38000    2482.9938   -528.67263   -81754.504   -88061.535   -82003.459    754474.06 
   39000    2447.5056   -198.62128   -81720.872   -87937.759   -81814.469    755003.72 
   40000     2438.824   -24.831115   -81693.662   -87888.497   -81705.359    754757.16 
Loop time of 4459.46 on 2 procs for 30000 steps with 19652 atoms

Performance: 0.581 ns/day, 41.291 hours/ns, 6.727 timesteps/s
98.4% CPU use with 2 MPI tasks x no OpenMP threads

MPI task timing breakdown:
Section |  min time  |  avg time  |  max time  |%varavg| %total
---------------------------------------------------------------
Pair    | 3242.1     | 3252.6     | 3263.1     |  18.5 | 72.94
Neigh   | 1035.7     | 1035.8     | 1035.9     |   0.3 | 23.23
Comm    | 114.87     | 125.75     | 136.62     |  97.0 |  2.82
Output  | 1.238      | 1.2414     | 1.2447     |   0.3 |  0.03
Modify  | 33.969     | 34.189     | 34.409     |   3.8 |  0.77
Other   |            | 9.849      |            |       |  0.22

Nlocal:    9826 ave 9908 max 9744 min
Histogram: 1 0 0 0 0 0 0 0 0 1
Nghost:    10859.5 ave 10955 max 10764 min
Histogram: 1 0 0 0 0 0 0 0 0 1
Neighs:    534189 ave 539984 max 528394 min
Histogram: 1 0 0 0 0 0 0 0 0 1

Total # of neighbors = 1068378
Ave neighs/atom = 54.3648
Neighbor list builds = 30000
Dangerous builds not checked
Setting up Verlet run ...
  Unit style    : metal
  Current step  : 40000
  Time step     : 0.001
Per MPI rank memory allocation (min/avg/max) = 12.96 | 12.96 | 12.96 Mbytes
Step Temp Press TotEng PotEng Enthalpy Volume 
   40000     2438.824   -24.831115   -81693.662   -87888.497   -81705.359    754757.16 
   40495    2413.5071   -208.87652   -81708.278   -87838.806   -81806.643    754504.07 
Loop time of 68.4497 on 2 procs for 495 steps with 19652 atoms

Performance: 0.625 ns/day, 38.412 hours/ns, 7.232 timesteps/s
99.2% CPU use with 2 MPI tasks x no OpenMP threads

MPI task timing breakdown:
Section |  min time  |  avg time  |  max time  |%varavg| %total
---------------------------------------------------------------
Pair    | 47.944     | 48.776     | 49.608     |  11.9 | 71.26
Neigh   | 16.439     | 16.639     | 16.838     |   4.9 | 24.31
Comm    | 1.2943     | 2.3397     | 3.3851     |  68.3 |  3.42
Output  | 8.0109e-05 | 0.00011361 | 0.0001471  |   0.0 |  0.00
Modify  | 0.52818    | 0.54049    | 0.5528     |   1.7 |  0.79
Other   |            | 0.1548     |            |       |  0.23

Nlocal:    9826 ave 9902 max 9750 min
Histogram: 1 0 0 0 0 0 0 0 0 1
Nghost:    10855 ave 10946 max 10764 min
Histogram: 1 0 0 0 0 0 0 0 0 1
Neighs:    534469 ave 540063 max 528875 min
Histogram: 1 0 0 0 0 0 0 0 0 1

Total # of neighbors = 1068938
Ave neighs/atom = 54.3933
Neighbor list builds = 495
Dangerous builds not checked
Setting up Verlet run ...
  Unit style    : metal
  Current step  : 40495
  Time step     : 0.001
Per MPI rank memory allocation (min/avg/max) = 12.96 | 12.96 | 12.96 Mbytes
Step Temp Press TotEng PotEng Enthalpy Volume 
   40495    2413.5071   -208.87652   -81708.278   -87838.806   -81806.643    754504.07 
   41000    2416.3217   -484.13862   -81745.224   -87882.901   -81973.474    755358.47 
Loop time of 72.3482 on 2 procs for 505 steps with 19652 atoms

Performance: 0.603 ns/day, 39.795 hours/ns, 6.980 timesteps/s
98.5% CPU use with 2 MPI tasks x no OpenMP threads

MPI task timing breakdown:
Section |  min time  |  avg time  |  max time  |%varavg| %total
---------------------------------------------------------------
Pair    | 50.989     | 51.642     | 52.296     |   9.1 | 71.38
Neigh   | 16.975     | 17.301     | 17.627     |   7.8 | 23.91
Comm    | 1.6522     | 2.6489     | 3.6456     |  61.2 |  3.66
Output  | 0.038693   | 0.038873   | 0.039053   |   0.1 |  0.05
Modify  | 0.53631    | 0.55125    | 0.56618    |   2.0 |  0.76
Other   |            | 0.1654     |            |       |  0.23

Nlocal:    9826 ave 9861 max 9791 min
Histogram: 1 0 0 0 0 0 0 0 0 1
Nghost:    10843.5 ave 10897 max 10790 min
Histogram: 1 0 0 0 0 0 0 0 0 1
Neighs:    533800 ave 536436 max 531165 min
Histogram: 1 0 0 0 0 0 0 0 0 1

Total # of neighbors = 1067601
Ave neighs/atom = 54.3253
Neighbor list builds = 505
Dangerous builds not checked
Setting up Verlet run ...
  Unit style    : metal
  Current step  : 41000
  Time step     : 0.001
Per MPI rank memory allocation (min/avg/max) = 12.96 | 12.96 | 12.96 Mbytes
Step Temp Press TotEng PotEng Enthalpy Volume 
   41000    2416.3217   -484.13862   -81745.224   -87882.901   -81973.474    755358.47 
   41495     2344.871   -26.022068   -82048.654    -88004.84   -82060.893    753534.39 
Loop time of 67.5867 on 2 procs for 495 steps with 19652 atoms

Performance: 0.633 ns/day, 37.927 hours/ns, 7.324 timesteps/s
99.2% CPU use with 2 MPI tasks x no OpenMP threads

MPI task timing breakdown:
Section |  min time  |  avg time  |  max time  |%varavg| %total
---------------------------------------------------------------
Pair    | 48.405     | 48.451     | 48.496     |   0.7 | 71.69
Neigh   | 16.593     | 16.713     | 16.833     |   2.9 | 24.73
Comm    | 1.5418     | 1.7167     | 1.8917     |  13.4 |  2.54
Output  | 0.00010204 | 0.00018859 | 0.00027514 |   0.0 |  0.00
Modify  | 0.53699    | 0.54515    | 0.55331    |   1.1 |  0.81
Other   |            | 0.1611     |            |       |  0.24

Nlocal:    9826 ave 9842 max 9810 min
Histogram: 1 0 0 0 0 0 0 0 0 1
Nghost:    10857.5 ave 10914 max 10801 min
Histogram: 1 0 0 0 0 0 0 0 0 1
Neighs:    535534 ave 536663 max 534404 min
Histogram: 1 0 0 0 0 0 0 0 0 1

Total # of neighbors = 1071067
Ave neighs/atom = 54.5017
Neighbor list builds = 495
Dangerous builds not checked
Setting up Verlet run ...
  Unit style    : metal
  Current step  : 41495
  Time step     : 0.001
Per MPI rank memory allocation (min/avg/max) = 12.96 | 12.96 | 12.96 Mbytes
Step Temp Press TotEng PotEng Enthalpy Volume 
   41495     2344.871   -26.022068   -82048.654    -88004.84   -82060.893    753534.39 
   42000    2334.1877   -134.96867   -82093.136   -88022.185    -82156.64    753836.97 
Loop time of 70.7191 on 2 procs for 505 steps with 19652 atoms

Performance: 0.617 ns/day, 38.899 hours/ns, 7.141 timesteps/s
98.4% CPU use with 2 MPI tasks x no OpenMP threads

MPI task timing breakdown:
Section |  min time  |  avg time  |  max time  |%varavg| %total
---------------------------------------------------------------
Pair    | 49.928     | 50.524     | 51.121     |   8.4 | 71.44
Neigh   | 17.111     | 17.213     | 17.315     |   2.5 | 24.34
Comm    | 1.4995     | 2.2108     | 2.9222     |  47.8 |  3.13
Output  | 0.043977   | 0.044094   | 0.044211   |   0.1 |  0.06
Modify  | 0.54916    | 0.56124    | 0.57333    |   1.6 |  0.79
Other   |            | 0.1657     |            |       |  0.23

Nlocal:    9826 ave 9864 max 9788 min
Histogram: 1 0 0 0 0 0 0 0 0 1
Nghost:    10888 ave 10900 max 10876 min
Histogram: 1 0 0 0 0 0 0 0 0 1
Neighs:    535428 ave 538596 max 532260 min
Histogram: 1 0 0 0 0 0 0 0 0 1

Total # of neighbors = 1070856
Ave neighs/atom = 54.4909
Neighbor list builds = 505
Dangerous builds not checked
Setting up Verlet run ...
  Unit style    : metal
  Current step  : 42000
  Time step     : 0.001
Per MPI rank memory allocation (min/avg/max) = 12.96 | 12.96 | 12.97 Mbytes
Step Temp Press TotEng PotEng Enthalpy Volume 
   42000    2334.1877   -134.96867   -82093.136   -88022.185    -82156.64    753836.97 
   42495     2298.104   -55.430443    -82139.19   -87976.583   -82165.255    753407.77 
Loop time of 67.1472 on 2 procs for 495 steps with 19652 atoms

Performance: 0.637 ns/day, 37.681 hours/ns, 7.372 timesteps/s
99.2% CPU use with 2 MPI tasks x no OpenMP threads

MPI task timing breakdown:
Section |  min time  |  avg time  |  max time  |%varavg| %total
---------------------------------------------------------------
Pair    | 47.638     | 48.089     | 48.54      |   6.5 | 71.62
Neigh   | 16.661     | 16.772     | 16.883     |   2.7 | 24.98
Comm    | 1.027      | 1.5936     | 2.1602     |  44.9 |  2.37
Output  | 0.00013399 | 0.00022054 | 0.00030708 |   0.0 |  0.00
Modify  | 0.52969    | 0.53492    | 0.54016    |   0.7 |  0.80
Other   |            | 0.1575     |            |       |  0.23

Nlocal:    9826 ave 9842 max 9810 min
Histogram: 1 0 0 0 0 0 0 0 0 1
Nghost:    10907.5 ave 10925 max 10890 min
Histogram: 1 0 0 0 0 0 0 0 0 1
Neighs:    535860 ave 537368 max 534353 min
Histogram: 1 0 0 0 0 0 0 0 0 1

Total # of neighbors = 1071721
Ave neighs/atom = 54.535
Neighbor list builds = 495
Dangerous builds not checked
Setting up Verlet run ...
  Unit style    : metal
  Current step  : 42495
  Time step     : 0.001
Per MPI rank memory allocation (min/avg/max) = 12.96 | 12.96 | 12.97 Mbytes
Step Temp Press TotEng PotEng Enthalpy Volume 
   42495     2298.104   -55.430443    -82139.19   -87976.583   -82165.255    753407.77 
   43000      2299.67    398.26145   -82263.467   -88104.838   -82076.483     752222.7 
Loop time of 69.11 on 2 procs for 505 steps with 19652 atoms

Performance: 0.631 ns/day, 38.014 hours/ns, 7.307 timesteps/s
99.6% CPU use with 2 MPI tasks x no OpenMP threads

MPI task timing breakdown:
Section |  min time  |  avg time  |  max time  |%varavg| %total
---------------------------------------------------------------
Pair    | 49.054     | 49.353     | 49.652     |   4.2 | 71.41
Neigh   | 16.8       | 17.002     | 17.203     |   4.9 | 24.60
Comm    | 1.4925     | 2.0036     | 2.5147     |  36.1 |  2.90
Output  | 0.04076    | 0.040897   | 0.041035   |   0.1 |  0.06
Modify  | 0.53837    | 0.54633    | 0.55428    |   1.1 |  0.79
Other   |            | 0.1644     |            |       |  0.24

Nlocal:    9826 ave 9829 max 9823 min
Histogram: 1 0 0 0 0 0 0 0 0 1
Nghost:    10902.5 ave 10906 max 10899 min
Histogram: 1 0 0 0 0 0 0 0 0 1
Neighs:    537101 ave 537178 max 537024 min
Histogram: 1 0 0 0 0 0 0 0 0 1

Total # of neighbors = 1074202
Ave neighs/atom = 54.6612
Neighbor list builds = 505
Dangerous builds not checked
Setting up Verlet run ...
  Unit style    : metal
  Current step  : 43000
  Time step     : 0.001
Per MPI rank memory allocation (min/avg/max) = 12.96 | 12.96 | 12.97 Mbytes
Step Temp Press TotEng PotEng Enthalpy Volume 
   43000      2299.67    398.26145   -82263.467   -88104.838   -82076.483     752222.7 
   43495    2256.8267    424.39312   -82469.397   -88201.942   -82270.314    751582.18 
Loop time of 69.2354 on 2 procs for 495 steps with 19652 atoms

Performance: 0.618 ns/day, 38.853 hours/ns, 7.150 timesteps/s
98.8% CPU use with 2 MPI tasks x no OpenMP threads

MPI task timing breakdown:
Section |  min time  |  avg time  |  max time  |%varavg| %total
---------------------------------------------------------------
Pair    | 48.802     | 49.083     | 49.364     |   4.0 | 70.89
Neigh   | 16.479     | 16.722     | 16.966     |   5.9 | 24.15
Comm    | 2.2066     | 2.7439     | 3.2811     |  32.4 |  3.96
Output  | 0.00012493 | 0.00025606 | 0.00038719 |   0.0 |  0.00
Modify  | 0.51376    | 0.5253     | 0.53683    |   1.6 |  0.76
Other   |            | 0.1605     |            |       |  0.23

Nlocal:    9826 ave 9842 max 9810 min
Histogram: 1 0 0 0 0 0 0 0 0 1
Nghost:    10904 ave 10922 max 10886 min
Histogram: 1 0 0 0 0 0 0 0 0 1
Neighs:    537367 ave 539386 max 535348 min
Histogram: 1 0 0 0 0 0 0 0 0 1

Total # of neighbors = 1074734
Ave neighs/atom = 54.6883
Neighbor list builds = 495
Dangerous builds not checked
Setting up Verlet run ...
  Unit style    : metal
  Current step  : 43495
  Time step     : 0.001
Per MPI rank memory allocation (min/avg/max) = 12.96 | 12.96 | 12.97 Mbytes
Step Temp Press TotEng PotEng Enthalpy Volume 
   43495    2256.8267    424.39312   -82469.397   -88201.942   -82270.314    751582.18 
   44000    2265.7432    197.48703   -82531.269   -88286.463   -82438.736    750703.37 
Loop time of 68.3393 on 2 procs for 505 steps with 19652 atoms

Performance: 0.638 ns/day, 37.590 hours/ns, 7.390 timesteps/s
99.2% CPU use with 2 MPI tasks x no OpenMP threads

MPI task timing breakdown:
Section |  min time  |  avg time  |  max time  |%varavg| %total
---------------------------------------------------------------
Pair    | 48.399     | 48.786     | 49.173     |   5.5 | 71.39
Neigh   | 16.915     | 16.992     | 17.069     |   1.9 | 24.86
Comm    | 1.317      | 1.7895     | 2.262      |  35.3 |  2.62
Output  | 0.04489    | 0.045004   | 0.045119   |   0.1 |  0.07
Modify  | 0.55278    | 0.56073    | 0.56867    |   1.1 |  0.82
Other   |            | 0.1655     |            |       |  0.24

Nlocal:    9826 ave 9849 max 9803 min
Histogram: 1 0 0 0 0 0 0 0 0 1
Nghost:    10909.5 ave 10952 max 10867 min
Histogram: 1 0 0 0 0 0 0 0 0 1
Neighs:    538290 ave 540841 max 535740 min
Histogram: 1 0 0 0 0 0 0 0 0 1

Total # of neighbors = 1076581
Ave neighs/atom = 54.7823
Neighbor list builds = 505
Dangerous builds not checked
Setting up Verlet run ...
  Unit style    : metal
  Current step  : 44000
  Time step     : 0.001
Per MPI rank memory allocation (min/avg/max) = 12.96 | 12.96 | 12.97 Mbytes
Step Temp Press TotEng PotEng Enthalpy Volume 
   44000    2265.7432    197.48703   -82531.269   -88286.463   -82438.736    750703.37 
   44495    2212.2089    411.22482   -82784.054   -88403.266   -82591.521    750129.55 
Loop time of 67.5018 on 2 procs for 495 steps with 19652 atoms

Performance: 0.634 ns/day, 37.880 hours/ns, 7.333 timesteps/s
99.5% CPU use with 2 MPI tasks x no OpenMP threads

MPI task timing breakdown:
Section |  min time  |  avg time  |  max time  |%varavg| %total
---------------------------------------------------------------
Pair    | 48.263     | 48.337     | 48.411     |   1.1 | 71.61
Neigh   | 16.695     | 16.806     | 16.916     |   2.7 | 24.90
Comm    | 1.6056     | 1.6497     | 1.6937     |   3.4 |  2.44
Output  | 0.00032806 | 0.00040615 | 0.00048423 |   0.0 |  0.00
Modify  | 0.54139    | 0.54779    | 0.5542     |   0.9 |  0.81
Other   |            | 0.1618     |            |       |  0.24

Nlocal:    9826 ave 9838 max 9814 min
Histogram: 1 0 0 0 0 0 0 0 0 1
Nghost:    10922.5 ave 10943 max 10902 min
Histogram: 1 0 0 0 0 0 0 0 0 1
Neighs:    538882 ave 539541 max 538224 min
Histogram: 1 0 0 0 0 0 0 0 0 1

Total # of neighbors = 1077765
Ave neighs/atom = 54.8425
Neighbor list builds = 495
Dangerous builds not checked
Setting up Verlet run ...
  Unit style    : metal
  Current step  : 44495
  Time step     : 0.001
Per MPI rank memory allocation (min/avg/max) = 12.96 | 12.96 | 12.97 Mbytes
Step Temp Press TotEng PotEng Enthalpy Volume 
   44495    2212.2089    411.22482   -82784.054   -88403.266   -82591.521    750129.55 
   45000    2206.5497    473.31789   -82774.462   -88379.299   -82552.958    749789.35 
Loop time of 67.3654 on 2 procs for 505 steps with 19652 atoms

Performance: 0.648 ns/day, 37.055 hours/ns, 7.496 timesteps/s
99.2% CPU use with 2 MPI tasks x no OpenMP threads

MPI task timing breakdown:
Section |  min time  |  avg time  |  max time  |%varavg| %total
---------------------------------------------------------------
Pair    | 46.655     | 47.513     | 48.372     |  12.5 | 70.53
Neigh   | 16.617     | 16.67      | 16.723     |   1.3 | 24.75
Comm    | 1.532      | 2.4508     | 3.3695     |  58.7 |  3.64
Output  | 0.038289   | 0.038468   | 0.038647   |   0.1 |  0.06
Modify  | 0.5275     | 0.53469    | 0.54189    |   1.0 |  0.79
Other   |            | 0.1583     |            |       |  0.24

Nlocal:    9826 ave 9867 max 9785 min
Histogram: 1 0 0 0 0 0 0 0 0 1
Nghost:    10890.5 ave 10917 max 10864 min
Histogram: 1 0 0 0 0 0 0 0 0 1
Neighs:    539084 ave 542211 max 535957 min
Histogram: 1 0 0 0 0 0 0 0 0 1

Total # of neighbors = 1078168
Ave neighs/atom = 54.863
Neighbor list builds = 505
Dangerous builds not checked
Setting up Verlet run ...
  Unit style    : metal
  Current step  : 45000
  Time step     : 0.001
Per MPI rank memory allocation (min/avg/max) = 12.96 | 12.96 | 12.97 Mbytes
Step Temp Press TotEng PotEng Enthalpy Volume 
   45000    2206.5497    473.31789   -82774.462   -88379.299   -82552.958    749789.35 
   45495    2188.3251    528.07923    -83023.24   -88581.785   -82776.376    748978.38 
Loop time of 70.2797 on 2 procs for 495 steps with 19652 atoms

Performance: 0.609 ns/day, 39.439 hours/ns, 7.043 timesteps/s
98.5% CPU use with 2 MPI tasks x no OpenMP threads

MPI task timing breakdown:
Section |  min time  |  avg time  |  max time  |%varavg| %total
---------------------------------------------------------------
Pair    | 50.321     | 50.486     | 50.652     |   2.3 | 71.84
Neigh   | 16.493     | 16.606     | 16.719     |   2.8 | 23.63
Comm    | 2.4186     | 2.4663     | 2.514      |   3.0 |  3.51
Output  | 9.6083e-05 | 0.00016809 | 0.00024009 |   0.0 |  0.00
Modify  | 0.55996    | 0.56191    | 0.56385    |   0.3 |  0.80
Other   |            | 0.1592     |            |       |  0.23

Nlocal:    9826 ave 9905 max 9747 min
Histogram: 1 0 0 0 0 0 0 0 0 1
Nghost:    10920.5 ave 10959 max 10882 min
Histogram: 1 0 0 0 0 0 0 0 0 1
Neighs:    539933 ave 545631 max 534235 min
Histogram: 1 0 0 0 0 0 0 0 0 1

Total # of neighbors = 1079866
Ave neighs/atom = 54.9494
Neighbor list builds = 495
Dangerous builds not checked
Setting up Verlet run ...
  Unit style    : metal
  Current step  : 45495
  Time step     : 0.001
Per MPI rank memory allocation (min/avg/max) = 12.96 | 12.96 | 12.97 Mbytes
Step Temp Press TotEng PotEng Enthalpy Volume 
   45495    2188.3251    528.07923    -83023.24   -88581.785   -82776.376    748978.38 
   46000    2138.7734     375.5964   -83172.092   -88604.771   -82996.543    748839.01 
Loop time of 72.5498 on 2 procs for 505 steps with 19652 atoms

Performance: 0.601 ns/day, 39.906 hours/ns, 6.961 timesteps/s
97.6% CPU use with 2 MPI tasks x no OpenMP threads

MPI task timing breakdown:
Section |  min time  |  avg time  |  max time  |%varavg| %total
---------------------------------------------------------------
Pair    | 51.406     | 51.666     | 51.926     |   3.6 | 71.21
Neigh   | 16.924     | 16.999     | 17.074     |   1.8 | 23.43
Comm    | 2.9209     | 3.1093     | 3.2978     |  10.7 |  4.29
Output  | 0.037374   | 0.037488   | 0.037602   |   0.1 |  0.05
Modify  | 0.56906    | 0.57168    | 0.5743     |   0.3 |  0.79
Other   |            | 0.1658     |            |       |  0.23

Nlocal:    9826 ave 9851 max 9801 min
Histogram: 1 0 0 0 0 0 0 0 0 1
Nghost:    10937 ave 10958 max 10916 min
Histogram: 1 0 0 0 0 0 0 0 0 1
Neighs:    540052 ave 542070 max 538034 min
Histogram: 1 0 0 0 0 0 0 0 0 1

Total # of neighbors = 1080104
Ave neighs/atom = 54.9615
Neighbor list builds = 505
Dangerous builds not checked
Setting up Verlet run ...
  Unit style    : metal
  Current step  : 46000
  Time step     : 0.001
Per MPI rank memory allocation (min/avg/max) = 12.96 | 12.96 | 12.97 Mbytes
Step Temp Press TotEng PotEng Enthalpy Volume 
   46000    2138.7734     375.5964   -83172.092   -88604.771   -82996.543    748839.01 
   46495    2099.4042    421.79659   -83391.864   -88724.542   -83195.099    747404.06 
Loop time of 73.0247 on 2 procs for 495 steps with 19652 atoms

Performance: 0.586 ns/day, 40.979 hours/ns, 6.779 timesteps/s
97.1% CPU use with 2 MPI tasks x no OpenMP threads

MPI task timing breakdown:
Section |  min time  |  avg time  |  max time  |%varavg| %total
---------------------------------------------------------------
Pair    | 52.001     | 52.346     | 52.69      |   4.8 | 71.68
Neigh   | 16.731     | 16.789     | 16.846     |   1.4 | 22.99
Comm    | 2.8802     | 3.1714     | 3.4626     |  16.4 |  4.34
Output  | 7.987e-05  | 0.00011289 | 0.00014591 |   0.0 |  0.00
Modify  | 0.54916    | 0.5528     | 0.55644    |   0.5 |  0.76
Other   |            | 0.1662     |            |       |  0.23

Nlocal:    9826 ave 9832 max 9820 min
Histogram: 1 0 0 0 0 0 0 0 0 1
Nghost:    10915.5 ave 10927 max 10904 min
Histogram: 1 0 0 0 0 0 0 0 0 1
Neighs:    541510 ave 542336 max 540683 min
Histogram: 1 0 0 0 0 0 0 0 0 1

Total # of neighbors = 1083019
Ave neighs/atom = 55.1099
Neighbor list builds = 495
Dangerous builds not checked
Setting up Verlet run ...
  Unit style    : metal
  Current step  : 46495
  Time step     : 0.001
Per MPI rank memory allocation (min/avg/max) = 12.96 | 12.96 | 12.97 Mbytes
Step Temp Press TotEng PotEng Enthalpy Volume 
   46495    2099.4042    421.79659   -83391.864   -88724.542   -83195.099    747404.06 
   47000    2105.5125    312.83568   -83447.644   -88795.837    -83301.69    747494.69 
Loop time of 73.0853 on 2 procs for 505 steps with 19652 atoms

Performance: 0.597 ns/day, 40.201 hours/ns, 6.910 timesteps/s
99.3% CPU use with 2 MPI tasks x no OpenMP threads

MPI task timing breakdown:
Section |  min time  |  avg time  |  max time  |%varavg| %total
---------------------------------------------------------------
Pair    | 52.907     | 52.955     | 53.003     |   0.7 | 72.46
Neigh   | 17.21      | 17.362     | 17.515     |   3.7 | 23.76
Comm    | 1.7789     | 1.9799     | 2.1809     |  14.3 |  2.71
Output  | 0.039211   | 0.039274   | 0.039336   |   0.0 |  0.05
Modify  | 0.5754     | 0.57712    | 0.57885    |   0.2 |  0.79
Other   |            | 0.1715     |            |       |  0.23

Nlocal:    9826 ave 9826 max 9826 min
Histogram: 2 0 0 0 0 0 0 0 0 0
Nghost:    10941 ave 10955 max 10927 min
Histogram: 1 0 0 0 0 0 0 0 0 1
Neighs:    541550 ave 542690 max 540410 min
Histogram: 1 0 0 0 0 0 0 0 0 1

Total # of neighbors = 1083100
Ave neighs/atom = 55.114
Neighbor list builds = 505
Dangerous builds not checked
Setting up Verlet run ...
  Unit style    : metal
  Current step  : 47000
  Time step     : 0.001
Per MPI rank memory allocation (min/avg/max) = 12.96 | 12.96 | 12.97 Mbytes
Step Temp Press TotEng PotEng Enthalpy Volume 
   47000    2105.5125    312.83568   -83447.644   -88795.837    -83301.69    747494.69 
   47495    2071.8716    488.92239   -83647.777    -88910.52   -83420.059    746221.49 
Loop time of 71.7475 on 2 procs for 495 steps with 19652 atoms

Performance: 0.596 ns/day, 40.262 hours/ns, 6.899 timesteps/s
99.0% CPU use with 2 MPI tasks x no OpenMP threads

MPI task timing breakdown:
Section |  min time  |  avg time  |  max time  |%varavg| %total
---------------------------------------------------------------
Pair    | 51.402     | 51.655     | 51.907     |   3.5 | 72.00
Neigh   | 16.697     | 16.728     | 16.758     |   0.7 | 23.31
Comm    | 2.3119     | 2.6012     | 2.8905     |  17.9 |  3.63
Output  | 0.00011611 | 0.00018954 | 0.00026298 |   0.0 |  0.00
Modify  | 0.59163    | 0.59725    | 0.60287    |   0.7 |  0.83
Other   |            | 0.1662     |            |       |  0.23

Nlocal:    9826 ave 9840 max 9812 min
Histogram: 1 0 0 0 0 0 0 0 0 1
Nghost:    10932.5 ave 10962 max 10903 min
Histogram: 1 0 0 0 0 0 0 0 0 1
Neighs:    542796 ave 544451 max 541142 min
Histogram: 1 0 0 0 0 0 0 0 0 1

Total # of neighbors = 1085593
Ave neighs/atom = 55.2408
Neighbor list builds = 495
Dangerous builds not checked
Setting up Verlet run ...
  Unit style    : metal
  Current step  : 47495
  Time step     : 0.001
Per MPI rank memory allocation (min/avg/max) = 12.96 | 12.96 | 12.97 Mbytes
Step Temp Press TotEng PotEng Enthalpy Volume 
   47495    2071.8716    488.92239   -83647.777    -88910.52   -83420.059    746221.49 
   48000    2060.3791    -63.04446   -83722.386   -88955.936   -83751.765       746643 
Loop time of 72.2936 on 2 procs for 505 steps with 19652 atoms

Performance: 0.604 ns/day, 39.765 hours/ns, 6.985 timesteps/s
98.0% CPU use with 2 MPI tasks x no OpenMP threads

MPI task timing breakdown:
Section |  min time  |  avg time  |  max time  |%varavg| %total
---------------------------------------------------------------
Pair    | 50.694     | 50.802     | 50.91      |   1.5 | 70.27
Neigh   | 16.887     | 16.976     | 17.066     |   2.2 | 23.48
Comm    | 3.7382     | 3.7578     | 3.7774     |   1.0 |  5.20
Output  | 0.038535   | 0.038558   | 0.03858    |   0.0 |  0.05
Modify  | 0.55256    | 0.55415    | 0.55574    |   0.2 |  0.77
Other   |            | 0.1652     |            |       |  0.23

Nlocal:    9826 ave 9829 max 9823 min
Histogram: 1 0 0 0 0 0 0 0 0 1
Nghost:    10894.5 ave 10935 max 10854 min
Histogram: 1 0 0 0 0 0 0 0 0 1
Neighs:    542349 ave 543084 max 541614 min
Histogram: 1 0 0 0 0 0 0 0 0 1

Total # of neighbors = 1084698
Ave neighs/atom = 55.1953
Neighbor list builds = 505
Dangerous builds not checked
Setting up Verlet run ...
  Unit style    : metal
  Current step  : 48000
  Time step     : 0.001
Per MPI rank memory allocation (min/avg/max) = 12.96 | 12.96 | 12.97 Mbytes
Step Temp Press TotEng PotEng Enthalpy Volume 
   48000    2060.3791    -63.04446   -83722.386   -88955.936   -83751.765       746643 
   48495    2017.7182    118.97796    -83955.14   -89080.328   -83899.733     746130.7 
Loop time of 71.2166 on 2 procs for 495 steps with 19652 atoms

Performance: 0.601 ns/day, 39.964 hours/ns, 6.951 timesteps/s
99.0% CPU use with 2 MPI tasks x no OpenMP threads

MPI task timing breakdown:
Section |  min time  |  avg time  |  max time  |%varavg| %total
---------------------------------------------------------------
Pair    | 50.923     | 51.059     | 51.196     |   1.9 | 71.70
Neigh   | 16.651     | 16.671     | 16.691     |   0.5 | 23.41
Comm    | 2.5956     | 2.7594     | 2.9233     |   9.9 |  3.87
Output  | 0.00016189 | 0.0002799  | 0.00039792 |   0.0 |  0.00
Modify  | 0.55526    | 0.56301    | 0.57076    |   1.0 |  0.79
Other   |            | 0.1631     |            |       |  0.23

Nlocal:    9826 ave 9834 max 9818 min
Histogram: 1 0 0 0 0 0 0 0 0 1
Nghost:    10906.5 ave 10917 max 10896 min
Histogram: 1 0 0 0 0 0 0 0 0 1
Neighs:    543057 ave 543106 max 543008 min
Histogram: 1 0 0 0 0 0 0 0 0 1

Total # of neighbors = 1086114
Ave neighs/atom = 55.2674
Neighbor list builds = 495
Dangerous builds not checked
Setting up Verlet run ...
  Unit style    : metal
  Current step  : 48495
  Time step     : 0.001
Per MPI rank memory allocation (min/avg/max) = 12.96 | 12.96 | 12.97 Mbytes
Step Temp Press TotEng PotEng Enthalpy Volume 
   48495    2017.7182    118.97796    -83955.14   -89080.328   -83899.733     746130.7 
   49000    1999.1833   -947.36382   -84039.328   -89117.435    -84481.23     747342.2 
Loop time of 73.8218 on 2 procs for 505 steps with 19652 atoms

Performance: 0.591 ns/day, 40.606 hours/ns, 6.841 timesteps/s
97.9% CPU use with 2 MPI tasks x no OpenMP threads

MPI task timing breakdown:
Section |  min time  |  avg time  |  max time  |%varavg| %total
---------------------------------------------------------------
Pair    | 53.717     | 53.871     | 54.024     |   2.1 | 72.97
Neigh   | 17.222     | 17.222     | 17.222     |   0.0 | 23.33
Comm    | 1.7969     | 1.9506     | 2.1042     |  11.0 |  2.64
Output  | 0.036266   | 0.036283   | 0.0363     |   0.0 |  0.05
Modify  | 0.57042    | 0.57199    | 0.57355    |   0.2 |  0.77
Other   |            | 0.1701     |            |       |  0.23

Nlocal:    9826 ave 9860 max 9792 min
Histogram: 1 0 0 0 0 0 0 0 0 1
Nghost:    10866.5 ave 10885 max 10848 min
Histogram: 1 0 0 0 0 0 0 0 0 1
Neighs:    541844 ave 543217 max 540472 min
Histogram: 1 0 0 0 0 0 0 0 0 1

Total # of neighbors = 1083689
Ave neighs/atom = 55.144
Neighbor list builds = 505
Dangerous builds not checked
Setting up Verlet run ...
  Unit style    : metal
  Current step  : 49000
  Time step     : 0.001
Per MPI rank memory allocation (min/avg/max) = 12.96 | 12.96 | 12.97 Mbytes
Step Temp Press TotEng PotEng Enthalpy Volume 
   49000    1999.1833   -947.36382   -84039.328   -89117.435    -84481.23     747342.2 
   49495    1960.4417   -528.90524   -84281.984   -89261.685   -84528.233    745945.09 
Loop time of 71.4149 on 2 procs for 495 steps with 19652 atoms

Performance: 0.599 ns/day, 40.076 hours/ns, 6.931 timesteps/s
99.0% CPU use with 2 MPI tasks x no OpenMP threads

MPI task timing breakdown:
Section |  min time  |  avg time  |  max time  |%varavg| %total
---------------------------------------------------------------
Pair    | 51.365     | 51.783     | 52.201     |   5.8 | 72.51
Neigh   | 16.66      | 16.686     | 16.711     |   0.6 | 23.36
Comm    | 1.7642     | 2.2131     | 2.662      |  30.2 |  3.10
Output  | 0.000103   | 0.00024748 | 0.00039196 |   0.0 |  0.00
Modify  | 0.56154    | 0.56789    | 0.57423    |   0.8 |  0.80
Other   |            | 0.1649     |            |       |  0.23

Nlocal:    9826 ave 9872 max 9780 min
Histogram: 1 0 0 0 0 0 0 0 0 1
Nghost:    10886.5 ave 10909 max 10864 min
Histogram: 1 0 0 0 0 0 0 0 0 1
Neighs:    543394 ave 546414 max 540373 min
Histogram: 1 0 0 0 0 0 0 0 0 1

Total # of neighbors = 1086787
Ave neighs/atom = 55.3016
Neighbor list builds = 495
Dangerous builds not checked
Setting up Verlet run ...
  Unit style    : metal
  Current step  : 49495
  Time step     : 0.001
Per MPI rank memory allocation (min/avg/max) = 12.96 | 12.96 | 12.97 Mbytes
Step Temp Press TotEng PotEng Enthalpy Volume 
   49495    1960.4417   -528.90524   -84281.984   -89261.685   -84528.233    745945.09 
   50000    1944.4594    -639.3506   -84459.672   -89398.776   -84757.006     745103.2 
Loop time of 73.4677 on 2 procs for 505 steps with 19652 atoms

Performance: 0.594 ns/day, 40.411 hours/ns, 6.874 timesteps/s
97.3% CPU use with 2 MPI tasks x no OpenMP threads

MPI task timing breakdown:
Section |  min time  |  avg time  |  max time  |%varavg| %total
---------------------------------------------------------------
Pair    | 52.158     | 52.24      | 52.322     |   1.1 | 71.11
Neigh   | 17.146     | 17.151     | 17.156     |   0.1 | 23.34
Comm    | 3.2328     | 3.3114     | 3.3901     |   4.3 |  4.51
Output  | 0.04008    | 0.040143   | 0.040205   |   0.0 |  0.05
Modify  | 0.55319    | 0.5553     | 0.55741    |   0.3 |  0.76
Other   |            | 0.1696     |            |       |  0.23

Nlocal:    9826 ave 9837 max 9815 min
Histogram: 1 0 0 0 0 0 0 0 0 1
Nghost:    10870 ave 10873 max 10867 min
Histogram: 1 0 0 0 0 0 0 0 0 1
Neighs:    544154 ave 544308 max 544000 min
Histogram: 1 0 0 0 0 0 0 0 0 1

Total # of neighbors = 1088308
Ave neighs/atom = 55.379
Neighbor list builds = 505
Dangerous builds not checked
Setting up Verlet run ...
  Unit style    : metal
  Current step  : 50000
  Time step     : 0.001
Per MPI rank memory allocation (min/avg/max) = 12.96 | 12.96 | 12.97 Mbytes
Step Temp Press TotEng PotEng Enthalpy Volume 
   50000    1944.4594    -639.3506   -84459.672   -89398.776   -84757.006     745103.2 
   50495      1909.07   -424.92041    -84669.17   -89518.381   -84866.363    743524.33 
Loop time of 68.3017 on 2 procs for 495 steps with 19652 atoms

Performance: 0.626 ns/day, 38.329 hours/ns, 7.247 timesteps/s
96.9% CPU use with 2 MPI tasks x no OpenMP threads

MPI task timing breakdown:
Section |  min time  |  avg time  |  max time  |%varavg| %total
---------------------------------------------------------------
Pair    | 47.454     | 47.63      | 47.806     |   2.5 | 69.73
Neigh   | 16.044     | 16.089     | 16.135     |   1.1 | 23.56
Comm    | 3.7767     | 3.9101     | 4.0436     |   6.8 |  5.72
Output  | 0.00011301 | 0.00018644 | 0.00025988 |   0.0 |  0.00
Modify  | 0.51795    | 0.521      | 0.52404    |   0.4 |  0.76
Other   |            | 0.151      |            |       |  0.22

Nlocal:    9826 ave 9831 max 9821 min
Histogram: 1 0 0 0 0 0 0 0 0 1
Nghost:    10883.5 ave 10901 max 10866 min
Histogram: 1 0 0 0 0 0 0 0 0 1
Neighs:    545250 ave 545835 max 544666 min
Histogram: 1 0 0 0 0 0 0 0 0 1

Total # of neighbors = 1090501
Ave neighs/atom = 55.4906
Neighbor list builds = 495
Dangerous builds not checked
Setting up Verlet run ...
  Unit style    : metal
  Current step  : 50495
  Time step     : 0.001
Per MPI rank memory allocation (min/avg/max) = 12.96 | 12.96 | 12.97 Mbytes
Step Temp Press TotEng PotEng Enthalpy Volume 
   50495      1909.07   -424.92041    -84669.17   -89518.381   -84866.363    743524.33 
   51000    1909.9229    430.75241   -84813.715   -89665.093    -84614.26    741869.13 
Loop time of 74.8343 on 2 procs for 505 steps with 19652 atoms

Performance: 0.583 ns/day, 41.163 hours/ns, 6.748 timesteps/s
94.3% CPU use with 2 MPI tasks x no OpenMP threads

MPI task timing breakdown:
Section |  min time  |  avg time  |  max time  |%varavg| %total
---------------------------------------------------------------
Pair    | 50.304     | 50.78      | 51.256     |   6.7 | 67.86
Neigh   | 17.011     | 17.045     | 17.078     |   0.8 | 22.78
Comm    | 4.5679     | 5.0158     | 5.4637     |  20.0 |  6.70
Output  | 0.036006   | 0.036026   | 0.036047   |   0.0 |  0.05
Modify  | 1.7902     | 1.7943     | 1.7984     |   0.3 |  2.40
Other   |            | 0.1637     |            |       |  0.22

Nlocal:    9826 ave 9830 max 9822 min
Histogram: 1 0 0 0 0 0 0 0 0 1
Nghost:    10906 ave 10919 max 10893 min
Histogram: 1 0 0 0 0 0 0 0 0 1
Neighs:    546842 ave 547106 max 546578 min
Histogram: 1 0 0 0 0 0 0 0 0 1

Total # of neighbors = 1093684
Ave neighs/atom = 55.6526
Neighbor list builds = 505
Dangerous builds not checked
Setting up Verlet run ...
  Unit style    : metal
  Current step  : 51000
  Time step     : 0.001
Per MPI rank memory allocation (min/avg/max) = 12.96 | 12.96 | 12.97 Mbytes
Step Temp Press TotEng PotEng Enthalpy Volume 
   51000    1909.9229    430.75241   -84813.715   -89665.093    -84614.26    741869.13 
   51495    1859.5681    498.56462   -85037.415   -89760.887   -84807.087     740176.4 
Loop time of 67.4196 on 2 procs for 495 steps with 19652 atoms

Performance: 0.634 ns/day, 37.834 hours/ns, 7.342 timesteps/s
96.7% CPU use with 2 MPI tasks x no OpenMP threads

MPI task timing breakdown:
Section |  min time  |  avg time  |  max time  |%varavg| %total
---------------------------------------------------------------
Pair    | 46.478     | 46.84      | 47.202     |   5.3 | 69.48
Neigh   | 16.232     | 16.298     | 16.365     |   1.6 | 24.17
Comm    | 3.1697     | 3.5794     | 3.9891     |  21.7 |  5.31
Output  | 0.00014901 | 0.00025249 | 0.00035596 |   0.0 |  0.00
Modify  | 0.52649    | 0.5481     | 0.56972    |   2.9 |  0.81
Other   |            | 0.1535     |            |       |  0.23

Nlocal:    9826 ave 9830 max 9822 min
Histogram: 1 0 0 0 0 0 0 0 0 1
Nghost:    10900.5 ave 10914 max 10887 min
Histogram: 1 0 0 0 0 0 0 0 0 1
Neighs:    548528 ave 548674 max 548381 min
Histogram: 1 0 0 0 0 0 0 0 0 1

Total # of neighbors = 1097055
Ave neighs/atom = 55.8241
Neighbor list builds = 495
Dangerous builds not checked
Setting up Verlet run ...
  Unit style    : metal
  Current step  : 51495
  Time step     : 0.001
Per MPI rank memory allocation (min/avg/max) = 12.96 | 12.96 | 12.97 Mbytes
Step Temp Press TotEng PotEng Enthalpy Volume 
   51495    1859.5681    498.56462   -85037.415   -89760.887   -84807.087     740176.4 
   52000    1845.0398    207.61349   -85128.131     -89814.7   -85032.108    741022.02 
Loop time of 67.7603 on 2 procs for 505 steps with 19652 atoms

Performance: 0.644 ns/day, 37.272 hours/ns, 7.453 timesteps/s
96.1% CPU use with 2 MPI tasks x no OpenMP threads

MPI task timing breakdown:
Section |  min time  |  avg time  |  max time  |%varavg| %total
---------------------------------------------------------------
Pair    | 44.815     | 45.159     | 45.502     |   5.1 | 66.65
Neigh   | 16.259     | 16.405     | 16.55      |   3.6 | 24.21
Comm    | 3.9896     | 4.4868     | 4.984      |  23.5 |  6.62
Output  | 0.081667   | 0.08168    | 0.081693   |   0.0 |  0.12
Modify  | 1.4669     | 1.4739     | 1.481      |   0.6 |  2.18
Other   |            | 0.1542     |            |       |  0.23

Nlocal:    9826 ave 9830 max 9822 min
Histogram: 1 0 0 0 0 0 0 0 0 1
Nghost:    10878.5 ave 10890 max 10867 min
Histogram: 1 0 0 0 0 0 0 0 0 1
Neighs:    548128 ave 548604 max 547651 min
Histogram: 1 0 0 0 0 0 0 0 0 1

Total # of neighbors = 1096255
Ave neighs/atom = 55.7834
Neighbor list builds = 505
Dangerous builds not checked
Setting up Verlet run ...
  Unit style    : metal
  Current step  : 52000
  Time step     : 0.001
Per MPI rank memory allocation (min/avg/max) = 12.96 | 12.96 | 12.97 Mbytes
Step Temp Press TotEng PotEng Enthalpy Volume 
   52000    1845.0398    207.61349   -85128.131     -89814.7   -85032.108    741022.02 
   52495    1809.8773    34.951039   -85330.081   -89927.334   -85313.927    740533.61 
Loop time of 71.1836 on 2 procs for 495 steps with 19652 atoms

Performance: 0.601 ns/day, 39.946 hours/ns, 6.954 timesteps/s
96.5% CPU use with 2 MPI tasks x no OpenMP threads

MPI task timing breakdown:
Section |  min time  |  avg time  |  max time  |%varavg| %total
---------------------------------------------------------------
Pair    | 48.319     | 48.8       | 49.28      |   6.9 | 68.55
Neigh   | 16.514     | 16.52      | 16.526     |   0.2 | 23.21
Comm    | 3.9138     | 4.3873     | 4.8609     |  22.6 |  6.16
Output  | 0.00013494 | 0.00023353 | 0.00033212 |   0.0 |  0.00
Modify  | 1.3202     | 1.3203     | 1.3203     |   0.0 |  1.85
Other   |            | 0.156      |            |       |  0.22

Nlocal:    9826 ave 9834 max 9818 min
Histogram: 1 0 0 0 0 0 0 0 0 1
Nghost:    10910.5 ave 10960 max 10861 min
Histogram: 1 0 0 0 0 0 0 0 0 1
Neighs:    548667 ave 549172 max 548162 min
Histogram: 1 0 0 0 0 0 0 0 0 1

Total # of neighbors = 1097334
Ave neighs/atom = 55.8383
Neighbor list builds = 495
Dangerous builds not checked
Setting up Verlet run ...
  Unit style    : metal
  Current step  : 52495
  Time step     : 0.001
Per MPI rank memory allocation (min/avg/max) = 12.96 | 12.96 | 12.97 Mbytes
Step Temp Press TotEng PotEng Enthalpy Volume 
   52495    1809.8773    34.951039   -85330.081   -89927.334   -85313.927    740533.61 
   53000    1787.3858   -163.32037   -85476.722   -90016.845   -85552.154    739992.61 
Loop time of 71.3662 on 2 procs for 505 steps with 19652 atoms

Performance: 0.611 ns/day, 39.255 hours/ns, 7.076 timesteps/s
98.7% CPU use with 2 MPI tasks x no OpenMP threads

MPI task timing breakdown:
Section |  min time  |  avg time  |  max time  |%varavg| %total
---------------------------------------------------------------
Pair    | 51.505     | 51.533     | 51.562     |   0.4 | 72.21
Neigh   | 17.26      | 17.323     | 17.386     |   1.5 | 24.27
Comm    | 1.6955     | 1.7321     | 1.7686     |   2.8 |  2.43
Output  | 0.037836   | 0.038007   | 0.038178   |   0.1 |  0.05
Modify  | 0.56724    | 0.56859    | 0.56994    |   0.2 |  0.80
Other   |            | 0.1715     |            |       |  0.24

Nlocal:    9826 ave 9851 max 9801 min
Histogram: 1 0 0 0 0 0 0 0 0 1
Nghost:    10864.5 ave 10881 max 10848 min
Histogram: 1 0 0 0 0 0 0 0 0 1
Neighs:    549001 ave 549312 max 548690 min
Histogram: 1 0 0 0 0 0 0 0 0 1

Total # of neighbors = 1098002
Ave neighs/atom = 55.8723
Neighbor list builds = 505
Dangerous builds not checked
Setting up Verlet run ...
  Unit style    : metal
  Current step  : 53000
  Time step     : 0.001
Per MPI rank memory allocation (min/avg/max) = 12.96 | 12.96 | 12.97 Mbytes
Step Temp Press TotEng PotEng Enthalpy Volume 
   53000    1787.3858   -163.32037   -85476.722   -90016.845   -85552.154    739992.61 
   53495    1755.9621    242.09436   -85663.073   -90123.377   -85551.436    738812.77 
Loop time of 68.2421 on 2 procs for 495 steps with 19652 atoms

Performance: 0.627 ns/day, 38.295 hours/ns, 7.254 timesteps/s
98.1% CPU use with 2 MPI tasks x no OpenMP threads

MPI task timing breakdown:
Section |  min time  |  avg time  |  max time  |%varavg| %total
---------------------------------------------------------------
Pair    | 48.052     | 48.376     | 48.699     |   4.6 | 70.89
Neigh   | 17.082     | 17.118     | 17.153     |   0.9 | 25.08
Comm    | 1.6628     | 2.0214     | 2.38       |  25.2 |  2.96
Output  | 0.00023007 | 0.00048697 | 0.00074387 |   0.0 |  0.00
Modify  | 0.56646    | 0.56706    | 0.56766    |   0.1 |  0.83
Other   |            | 0.1599     |            |       |  0.23

Nlocal:    9826 ave 9894 max 9758 min
Histogram: 1 0 0 0 0 0 0 0 0 1
Nghost:    10870 ave 10918 max 10822 min
Histogram: 1 0 0 0 0 0 0 0 0 1
Neighs:    550180 ave 553916 max 546445 min
Histogram: 1 0 0 0 0 0 0 0 0 1

Total # of neighbors = 1100361
Ave neighs/atom = 55.9923
Neighbor list builds = 495
Dangerous builds not checked
Setting up Verlet run ...
  Unit style    : metal
  Current step  : 53495
  Time step     : 0.001
Per MPI rank memory allocation (min/avg/max) = 12.96 | 12.96 | 12.97 Mbytes
Step Temp Press TotEng PotEng Enthalpy Volume 
   53495    1755.9621    242.09436   -85663.073   -90123.377   -85551.436    738812.77 
   54000    1752.0535    189.23072   -85808.208   -90258.584   -85720.966    738660.39 
Loop time of 71.0118 on 2 procs for 505 steps with 19652 atoms

Performance: 0.614 ns/day, 39.060 hours/ns, 7.111 timesteps/s
98.8% CPU use with 2 MPI tasks x no OpenMP threads

MPI task timing breakdown:
Section |  min time  |  avg time  |  max time  |%varavg| %total
---------------------------------------------------------------
Pair    | 50.668     | 51.302     | 51.936     |   8.9 | 72.24
Neigh   | 17.232     | 17.319     | 17.406     |   2.1 | 24.39
Comm    | 0.87687    | 1.6057     | 2.3345     |  57.5 |  2.26
Output  | 0.041406   | 0.041442   | 0.041478   |   0.0 |  0.06
Modify  | 0.5679     | 0.57489    | 0.58188    |   0.9 |  0.81
Other   |            | 0.1683     |            |       |  0.24

Nlocal:    9826 ave 9862 max 9790 min
Histogram: 1 0 0 0 0 0 0 0 0 1
Nghost:    10856.5 ave 10879 max 10834 min
Histogram: 1 0 0 0 0 0 0 0 0 1
Neighs:    550505 ave 552275 max 548735 min
Histogram: 1 0 0 0 0 0 0 0 0 1

Total # of neighbors = 1101010
Ave neighs/atom = 56.0253
Neighbor list builds = 505
Dangerous builds not checked
Setting up Verlet run ...
  Unit style    : metal
  Current step  : 54000
  Time step     : 0.001
Per MPI rank memory allocation (min/avg/max) = 12.96 | 12.96 | 12.97 Mbytes
Step Temp Press TotEng PotEng Enthalpy Volume 
   54000    1752.0535    189.23072   -85808.208   -90258.584   -85720.966    738660.39 
   54495    1698.1154    30.954687   -85993.354   -90306.722   -85979.093    738147.78 
Loop time of 66.8928 on 2 procs for 495 steps with 19652 atoms

Performance: 0.639 ns/day, 37.538 hours/ns, 7.400 timesteps/s
98.7% CPU use with 2 MPI tasks x no OpenMP threads

MPI task timing breakdown:
Section |  min time  |  avg time  |  max time  |%varavg| %total
---------------------------------------------------------------
Pair    | 47.871     | 48.243     | 48.614     |   5.3 | 72.12
Neigh   | 16.538     | 16.561     | 16.585     |   0.6 | 24.76
Comm    | 1.0492     | 1.3994     | 1.7496     |  29.6 |  2.09
Output  | 0.00014901 | 0.00027847 | 0.00040793 |   0.0 |  0.00
Modify  | 0.51589    | 0.52132    | 0.52675    |   0.8 |  0.78
Other   |            | 0.1676     |            |       |  0.25

Nlocal:    9826 ave 9844 max 9808 min
Histogram: 1 0 0 0 0 0 0 0 0 1
Nghost:    10853.5 ave 10861 max 10846 min
Histogram: 1 0 0 0 0 0 0 0 0 1
Neighs:    550964 ave 551927 max 550001 min
Histogram: 1 0 0 0 0 0 0 0 0 1

Total # of neighbors = 1101928
Ave neighs/atom = 56.0721
Neighbor list builds = 495
Dangerous builds not checked
Setting up Verlet run ...
  Unit style    : metal
  Current step  : 54495
  Time step     : 0.001
Per MPI rank memory allocation (min/avg/max) = 12.96 | 12.96 | 12.97 Mbytes
Step Temp Press TotEng PotEng Enthalpy Volume 
   54495    1698.1154    30.954687   -85993.354   -90306.722   -85979.093    738147.78 
   55000     1713.887   -43.819243   -86061.821   -90415.251   -86081.998    737736.14 
Loop time of 69.486 on 2 procs for 505 steps with 19652 atoms

Performance: 0.628 ns/day, 38.221 hours/ns, 7.268 timesteps/s
98.9% CPU use with 2 MPI tasks x no OpenMP threads

MPI task timing breakdown:
Section |  min time  |  avg time  |  max time  |%varavg| %total
---------------------------------------------------------------
Pair    | 49.551     | 49.835     | 50.118     |   4.0 | 71.72
Neigh   | 17.033     | 17.087     | 17.141     |   1.3 | 24.59
Comm    | 1.5661     | 1.7947     | 2.0234     |  17.1 |  2.58
Output  | 0.040584   | 0.040651   | 0.040719   |   0.0 |  0.06
Modify  | 0.5633     | 0.5645     | 0.5657     |   0.2 |  0.81
Other   |            | 0.1643     |            |       |  0.24

Nlocal:    9826 ave 9836 max 9816 min
Histogram: 1 0 0 0 0 0 0 0 0 1
Nghost:    10820.5 ave 10824 max 10817 min
Histogram: 1 0 0 0 0 0 0 0 0 1
Neighs:    551522 ave 551878 max 551165 min
Histogram: 1 0 0 0 0 0 0 0 0 1

Total # of neighbors = 1103043
Ave neighs/atom = 56.1288
Neighbor list builds = 505
Dangerous builds not checked
Setting up Verlet run ...
  Unit style    : metal
  Current step  : 55000
  Time step     : 0.001
Per MPI rank memory allocation (min/avg/max) = 12.96 | 12.96 | 12.97 Mbytes
Step Temp Press TotEng PotEng Enthalpy Volume 
   55000     1713.887   -43.819243   -86061.821   -90415.251   -86081.998    737736.14 
   55495    1658.9183   -44.204723   -86305.707   -90519.511   -86326.037    736829.42 
Loop time of 68.2527 on 2 procs for 495 steps with 19652 atoms

Performance: 0.627 ns/day, 38.301 hours/ns, 7.252 timesteps/s
99.8% CPU use with 2 MPI tasks x no OpenMP threads

MPI task timing breakdown:
Section |  min time  |  avg time  |  max time  |%varavg| %total
---------------------------------------------------------------
Pair    | 48.897     | 49.185     | 49.472     |   4.1 | 72.06
Neigh   | 16.887     | 17.009     | 17.131     |   3.0 | 24.92
Comm    | 0.90875    | 1.3231     | 1.7375     |  36.0 |  1.94
Output  | 8.5831e-05 | 0.00012398 | 0.00016212 |   0.0 |  0.00
Modify  | 0.56416    | 0.56898    | 0.57381    |   0.6 |  0.83
Other   |            | 0.1668     |            |       |  0.24

Nlocal:    9826 ave 9834 max 9818 min
Histogram: 1 0 0 0 0 0 0 0 0 1
Nghost:    10845 ave 10848 max 10842 min
Histogram: 1 0 0 0 0 0 0 0 0 1
Neighs:    552974 ave 554206 max 551742 min
Histogram: 1 0 0 0 0 0 0 0 0 1

Total # of neighbors = 1105948
Ave neighs/atom = 56.2766
Neighbor list builds = 495
Dangerous builds not checked
Setting up Verlet run ...
  Unit style    : metal
  Current step  : 55495
  Time step     : 0.001
Per MPI rank memory allocation (min/avg/max) = 12.96 | 12.96 | 12.97 Mbytes
Step Temp Press TotEng PotEng Enthalpy Volume 
   55495    1658.9183   -44.204723   -86305.707   -90519.511   -86326.037    736829.42 
   56000    1664.5836    -199.6635   -86444.042   -90672.236   -86535.803    736323.78 
Loop time of 68.3206 on 2 procs for 505 steps with 19652 atoms

Performance: 0.639 ns/day, 37.580 hours/ns, 7.392 timesteps/s
99.5% CPU use with 2 MPI tasks x no OpenMP threads

MPI task timing breakdown:
Section |  min time  |  avg time  |  max time  |%varavg| %total
---------------------------------------------------------------
Pair    | 48.008     | 48.754     | 49.501     |  10.7 | 71.36
Neigh   | 16.992     | 17.022     | 17.051     |   0.7 | 24.91
Comm    | 1.058      | 1.7786     | 2.4992     |  54.0 |  2.60
Output  | 0.036758   | 0.036816   | 0.036875   |   0.0 |  0.05
Modify  | 0.56063    | 0.56438    | 0.56812    |   0.5 |  0.83
Other   |            | 0.1647     |            |       |  0.24

Nlocal:    9826 ave 9857 max 9795 min
Histogram: 1 0 0 0 0 0 0 0 0 1
Nghost:    10832.5 ave 10857 max 10808 min
Histogram: 1 0 0 0 0 0 0 0 0 1
Neighs:    553528 ave 554311 max 552746 min
Histogram: 1 0 0 0 0 0 0 0 0 1

Total # of neighbors = 1107057
Ave neighs/atom = 56.333
Neighbor list builds = 505
Dangerous builds not checked
Setting up Verlet run ...
  Unit style    : metal
  Current step  : 56000
  Time step     : 0.001
Per MPI rank memory allocation (min/avg/max) = 12.96 | 12.96 | 12.97 Mbytes
Step Temp Press TotEng PotEng Enthalpy Volume 
   56000    1664.5836    -199.6635   -86444.042   -90672.236   -86535.803    736323.78 
   56495     1613.692   -38.403396   -86586.711   -90685.635   -86604.353    736027.14 
Loop time of 67.7274 on 2 procs for 495 steps with 19652 atoms

Performance: 0.631 ns/day, 38.006 hours/ns, 7.309 timesteps/s
99.5% CPU use with 2 MPI tasks x no OpenMP threads

MPI task timing breakdown:
Section |  min time  |  avg time  |  max time  |%varavg| %total
---------------------------------------------------------------
Pair    | 48.502     | 48.851     | 49.199     |   5.0 | 72.13
Neigh   | 16.755     | 16.806     | 16.858     |   1.3 | 24.81
Comm    | 0.94375    | 1.3565     | 1.7692     |  35.4 |  2.00
Output  | 8.2016e-05 | 0.00022757 | 0.00037313 |   0.0 |  0.00
Modify  | 0.54093    | 0.55022    | 0.55951    |   1.3 |  0.81
Other   |            | 0.1632     |            |       |  0.24

Nlocal:    9826 ave 9858 max 9794 min
Histogram: 1 0 0 0 0 0 0 0 0 1
Nghost:    10857 ave 10865 max 10849 min
Histogram: 1 0 0 0 0 0 0 0 0 1
Neighs:    553710 ave 555261 max 552159 min
Histogram: 1 0 0 0 0 0 0 0 0 1

Total # of neighbors = 1107420
Ave neighs/atom = 56.3515
Neighbor list builds = 495
Dangerous builds not checked
Setting up Verlet run ...
  Unit style    : metal
  Current step  : 56495
  Time step     : 0.001
Per MPI rank memory allocation (min/avg/max) = 12.96 | 12.96 | 12.97 Mbytes
Step Temp Press TotEng PotEng Enthalpy Volume 
   56495     1613.692   -38.403396   -86586.711   -90685.635   -86604.353    736027.14 
   57000    1610.0728    198.60578   -86705.996   -90795.728   -86614.868    735145.61 
Loop time of 70.3155 on 2 procs for 505 steps with 19652 atoms

Performance: 0.621 ns/day, 38.677 hours/ns, 7.182 timesteps/s
97.9% CPU use with 2 MPI tasks x no OpenMP threads

MPI task timing breakdown:
Section |  min time  |  avg time  |  max time  |%varavg| %total
---------------------------------------------------------------
Pair    | 49.387     | 50.103     | 50.819     |  10.1 | 71.25
Neigh   | 17.016     | 17.368     | 17.72      |   8.4 | 24.70
Comm    | 1.7324     | 1.9199     | 2.1075     |  13.5 |  2.73
Output  | 0.039683   | 0.039854   | 0.040025   |   0.1 |  0.06
Modify  | 0.54601    | 0.72475    | 0.90348    |  21.0 |  1.03
Other   |            | 0.1599     |            |       |  0.23

Nlocal:    9826 ave 9876 max 9776 min
Histogram: 1 0 0 0 0 0 0 0 0 1
Nghost:    10829 ave 10891 max 10767 min
Histogram: 1 0 0 0 0 0 0 0 0 1
Neighs:    554492 ave 557262 max 551723 min
Histogram: 1 0 0 0 0 0 0 0 0 1

Total # of neighbors = 1108985
Ave neighs/atom = 56.4312
Neighbor list builds = 505
Dangerous builds not checked
Setting up Verlet run ...
  Unit style    : metal
  Current step  : 57000
  Time step     : 0.001
Per MPI rank memory allocation (min/avg/max) = 12.96 | 12.96 | 12.97 Mbytes
Step Temp Press TotEng PotEng Enthalpy Volume 
   57000    1610.0728    198.60578   -86705.996   -90795.728   -86614.868    735145.61 
   57495    1572.3196    41.078745   -86934.198   -90928.033   -86915.372    734255.75 
Loop time of 62.0292 on 2 procs for 495 steps with 19652 atoms

Performance: 0.689 ns/day, 34.809 hours/ns, 7.980 timesteps/s
98.1% CPU use with 2 MPI tasks x no OpenMP threads

MPI task timing breakdown:
Section |  min time  |  avg time  |  max time  |%varavg| %total
---------------------------------------------------------------
Pair    | 42.532     | 43.117     | 43.703     |   8.9 | 69.51
Neigh   | 16.237     | 16.438     | 16.64      |   5.0 | 26.50
Comm    | 1.3967     | 1.7869     | 2.177      |  29.2 |  2.88
Output  | 0.00013185 | 0.00036693 | 0.00060201 |   0.0 |  0.00
Modify  | 0.53472    | 0.53544    | 0.53615    |   0.1 |  0.86
Other   |            | 0.1509     |            |       |  0.24

Nlocal:    9826 ave 9831 max 9821 min
Histogram: 1 0 0 0 0 0 0 0 0 1
Nghost:    10814 ave 10862 max 10766 min
Histogram: 1 0 0 0 0 0 0 0 0 1
Neighs:    555412 ave 555914 max 554911 min
Histogram: 1 0 0 0 0 0 0 0 0 1

Total # of neighbors = 1110825
Ave neighs/atom = 56.5248
Neighbor list builds = 495
Dangerous builds not checked
Setting up Verlet run ...
  Unit style    : metal
  Current step  : 57495
  Time step     : 0.001
Per MPI rank memory allocation (min/avg/max) = 12.96 | 12.96 | 12.97 Mbytes
Step Temp Press TotEng PotEng Enthalpy Volume 
   57495    1572.3196    41.078745   -86934.198   -90928.033   -86915.372    734255.75 
   58000    1543.3082   -112.27743   -87051.426   -90971.569   -87102.874    734159.61 
Loop time of 58.319 on 2 procs for 505 steps with 19652 atoms

Performance: 0.748 ns/day, 32.079 hours/ns, 8.659 timesteps/s
92.1% CPU use with 2 MPI tasks x no OpenMP threads

MPI task timing breakdown:
Section |  min time  |  avg time  |  max time  |%varavg| %total
---------------------------------------------------------------
Pair    | 38.143     | 38.228     | 38.313     |   1.4 | 65.55
Neigh   | 16.366     | 16.429     | 16.491     |   1.5 | 28.17
Comm    | 2.8752     | 2.904      | 2.9329     |   1.7 |  4.98
Output  | 0.035103   | 0.035239   | 0.035375   |   0.1 |  0.06
Modify  | 0.57965    | 0.58638    | 0.5931     |   0.9 |  1.01
Other   |            | 0.1362     |            |       |  0.23

Nlocal:    9826 ave 9839 max 9813 min
Histogram: 1 0 0 0 0 0 0 0 0 1
Nghost:    10789 ave 10815 max 10763 min
Histogram: 1 0 0 0 0 0 0 0 0 1
Neighs:    555310 ave 555582 max 555038 min
Histogram: 1 0 0 0 0 0 0 0 0 1

Total # of neighbors = 1110620
Ave neighs/atom = 56.5143
Neighbor list builds = 505
Dangerous builds not checked
Setting up Verlet run ...
  Unit style    : metal
  Current step  : 58000
  Time step     : 0.001
Per MPI rank memory allocation (min/avg/max) = 12.96 | 12.96 | 12.97 Mbytes
Step Temp Press TotEng PotEng Enthalpy Volume 
   58000    1543.3082   -112.27743   -87051.426   -90971.569   -87102.874    734159.61 
   58495    1508.6748   -27.315713   -87231.732   -91063.904   -87244.235    733319.31 
Loop time of 53.2998 on 2 procs for 495 steps with 19652 atoms

Performance: 0.802 ns/day, 29.910 hours/ns, 9.287 timesteps/s
98.0% CPU use with 2 MPI tasks x no OpenMP threads

MPI task timing breakdown:
Section |  min time  |  avg time  |  max time  |%varavg| %total
---------------------------------------------------------------
Pair    | 35.508     | 35.598     | 35.687     |   1.5 | 66.79
Neigh   | 15.264     | 15.392     | 15.521     |   3.3 | 28.88
Comm    | 1.4713     | 1.6927     | 1.9142     |  17.0 |  3.18
Output  | 7.1049e-05 | 0.00014603 | 0.00022101 |   0.0 |  0.00
Modify  | 0.47934    | 0.48312    | 0.4869     |   0.5 |  0.91
Other   |            | 0.1337     |            |       |  0.25

Nlocal:    9826 ave 9828 max 9824 min
Histogram: 1 0 0 0 0 0 0 0 0 1
Nghost:    10811.5 ave 10846 max 10777 min
Histogram: 1 0 0 0 0 0 0 0 0 1
Neighs:    556333 ave 557051 max 555615 min
Histogram: 1 0 0 0 0 0 0 0 0 1

Total # of neighbors = 1112666
Ave neighs/atom = 56.6185
Neighbor list builds = 495
Dangerous builds not checked
Setting up Verlet run ...
  Unit style    : metal
  Current step  : 58495
  Time step     : 0.001
Per MPI rank memory allocation (min/avg/max) = 12.96 | 12.96 | 12.97 Mbytes
Step Temp Press TotEng PotEng Enthalpy Volume 
   58495    1508.6748   -27.315713   -87231.732   -91063.904   -87244.235    733319.31 
   59000    1494.5234   -158.98654   -87348.435    -91144.66   -87421.181    733100.96 
Loop time of 57.4909 on 2 procs for 505 steps with 19652 atoms

Performance: 0.759 ns/day, 31.623 hours/ns, 8.784 timesteps/s
93.3% CPU use with 2 MPI tasks x no OpenMP threads

MPI task timing breakdown:
Section |  min time  |  avg time  |  max time  |%varavg| %total
---------------------------------------------------------------
Pair    | 38.064     | 38.242     | 38.419     |   2.9 | 66.52
Neigh   | 15.934     | 16.209     | 16.484     |   6.8 | 28.19
Comm    | 2.2042     | 2.3108     | 2.4174     |   7.0 |  4.02
Output  | 0.033645   | 0.03371    | 0.033776   |   0.0 |  0.06
Modify  | 0.55267    | 0.55455    | 0.55642    |   0.3 |  0.96
Other   |            | 0.1415     |            |       |  0.25

Nlocal:    9826 ave 9831 max 9821 min
Histogram: 1 0 0 0 0 0 0 0 0 1
Nghost:    10820 ave 10844 max 10796 min
Histogram: 1 0 0 0 0 0 0 0 0 1
Neighs:    556966 ave 557188 max 556743 min
Histogram: 1 0 0 0 0 0 0 0 0 1

Total # of neighbors = 1113931
Ave neighs/atom = 56.6828
Neighbor list builds = 505
Dangerous builds not checked
Setting up Verlet run ...
  Unit style    : metal
  Current step  : 59000
  Time step     : 0.001
Per MPI rank memory allocation (min/avg/max) = 12.96 | 12.96 | 12.97 Mbytes
Step Temp Press TotEng PotEng Enthalpy Volume 
   59000    1494.5234   -158.98654   -87348.435    -91144.66   -87421.181    733100.96 
   59495    1459.0494    591.92563   -87543.718   -91249.837   -87273.476    731471.06 
Loop time of 55.1417 on 2 procs for 495 steps with 19652 atoms

Performance: 0.776 ns/day, 30.944 hours/ns, 8.977 timesteps/s
95.6% CPU use with 2 MPI tasks x no OpenMP threads

MPI task timing breakdown:
Section |  min time  |  avg time  |  max time  |%varavg| %total
---------------------------------------------------------------
Pair    | 36.323     | 36.599     | 36.874     |   4.6 | 66.37
Neigh   | 15.632     | 15.768     | 15.904     |   3.4 | 28.60
Comm    | 1.7352     | 2.1543     | 2.5733     |  28.6 |  3.91
Output  | 7.0095e-05 | 0.00014055 | 0.000211   |   0.0 |  0.00
Modify  | 0.47523    | 0.48055    | 0.48588    |   0.8 |  0.87
Other   |            | 0.1398     |            |       |  0.25

Nlocal:    9826 ave 9859 max 9793 min
Histogram: 1 0 0 0 0 0 0 0 0 1
Nghost:    10831 ave 10839 max 10823 min
Histogram: 1 0 0 0 0 0 0 0 0 1
Neighs:    558817 ave 560266 max 557368 min
Histogram: 1 0 0 0 0 0 0 0 0 1

Total # of neighbors = 1117634
Ave neighs/atom = 56.8713
Neighbor list builds = 495
Dangerous builds not checked
Setting up Verlet run ...
  Unit style    : metal
  Current step  : 59495
  Time step     : 0.001
Per MPI rank memory allocation (min/avg/max) = 12.96 | 12.96 | 12.97 Mbytes
Step Temp Press TotEng PotEng Enthalpy Volume 
   59495    1459.0494    591.92563   -87543.718   -91249.837   -87273.476    731471.06 
   60000    1439.6208   -457.34266   -87676.163   -91332.931   -87885.206    732323.51 
Loop time of 57.7231 on 2 procs for 505 steps with 19652 atoms

Performance: 0.756 ns/day, 31.751 hours/ns, 8.749 timesteps/s
91.7% CPU use with 2 MPI tasks x no OpenMP threads

MPI task timing breakdown:
Section |  min time  |  avg time  |  max time  |%varavg| %total
---------------------------------------------------------------
Pair    | 37.96      | 38.06      | 38.16      |   1.6 | 65.94
Neigh   | 15.967     | 16.038     | 16.109     |   1.8 | 27.78
Comm    | 2.9081     | 2.9454     | 2.9828     |   2.2 |  5.10
Output  | 0.036899   | 0.03704    | 0.03718    |   0.1 |  0.06
Modify  | 0.49455    | 0.50383    | 0.5131     |   1.3 |  0.87
Other   |            | 0.1386     |            |       |  0.24

Nlocal:    9826 ave 9846 max 9806 min
Histogram: 1 0 0 0 0 0 0 0 0 1
Nghost:    10823.5 ave 10862 max 10785 min
Histogram: 1 0 0 0 0 0 0 0 0 1
Neighs:    558073 ave 559727 max 556419 min
Histogram: 1 0 0 0 0 0 0 0 0 1

Total # of neighbors = 1116146
Ave neighs/atom = 56.7955
Neighbor list builds = 505
Dangerous builds not checked
Setting up Verlet run ...
  Unit style    : metal
  Current step  : 60000
  Time step     : 0.001
Per MPI rank memory allocation (min/avg/max) = 12.96 | 12.96 | 12.97 Mbytes
Step Temp Press TotEng PotEng Enthalpy Volume 
   60000    1439.6208   -457.34266   -87676.163   -91332.931   -87885.206    732323.51 
   60495    1404.3119    459.12723   -87877.115   -91444.195   -87667.845    730270.46 
Loop time of 58.2617 on 2 procs for 495 steps with 19652 atoms

Performance: 0.734 ns/day, 32.695 hours/ns, 8.496 timesteps/s
93.1% CPU use with 2 MPI tasks x no OpenMP threads

MPI task timing breakdown:
Section |  min time  |  avg time  |  max time  |%varavg| %total
---------------------------------------------------------------
Pair    | 38.577     | 38.93      | 39.284     |   5.7 | 66.82
Neigh   | 15.799     | 15.855     | 15.912     |   1.4 | 27.21
Comm    | 2.4179     | 2.8373     | 3.2568     |  24.9 |  4.87
Output  | 7.8917e-05 | 0.00010991 | 0.00014091 |   0.0 |  0.00
Modify  | 0.50299    | 0.50766    | 0.51233    |   0.7 |  0.87
Other   |            | 0.1308     |            |       |  0.22

Nlocal:    9826 ave 9837 max 9815 min
Histogram: 1 0 0 0 0 0 0 0 0 1
Nghost:    10838.5 ave 10842 max 10835 min
Histogram: 1 0 0 0 0 0 0 0 0 1
Neighs:    560115 ave 560603 max 559627 min
Histogram: 1 0 0 0 0 0 0 0 0 1

Total # of neighbors = 1120230
Ave neighs/atom = 57.0034
Neighbor list builds = 495
Dangerous builds not checked
Setting up Verlet run ...
  Unit style    : metal
  Current step  : 60495
  Time step     : 0.001
Per MPI rank memory allocation (min/avg/max) = 12.96 | 12.96 | 12.97 Mbytes
Step Temp Press TotEng PotEng Enthalpy Volume 
   60495    1404.3119    459.12723   -87877.115   -91444.195   -87667.845    730270.46 
   61000    1395.2125   -747.36653   -87958.656   -91502.623   -88300.125    732029.15 
Loop time of 58.8176 on 2 procs for 505 steps with 19652 atoms

Performance: 0.742 ns/day, 32.353 hours/ns, 8.586 timesteps/s
91.0% CPU use with 2 MPI tasks x no OpenMP threads

MPI task timing breakdown:
Section |  min time  |  avg time  |  max time  |%varavg| %total
---------------------------------------------------------------
Pair    | 38.306     | 38.426     | 38.545     |   1.9 | 65.33
Neigh   | 15.978     | 16.21      | 16.441     |   5.7 | 27.56
Comm    | 3.2985     | 3.4329     | 3.5672     |   7.2 |  5.84
Output  | 0.0349     | 0.034955   | 0.035009   |   0.0 |  0.06
Modify  | 0.56153    | 0.57743    | 0.59332    |   2.1 |  0.98
Other   |            | 0.1371     |            |       |  0.23

Nlocal:    9826 ave 9849 max 9803 min
Histogram: 1 0 0 0 0 0 0 0 0 1
Nghost:    10797 ave 10825 max 10769 min
Histogram: 1 0 0 0 0 0 0 0 0 1
Neighs:    558504 ave 560586 max 556421 min
Histogram: 1 0 0 0 0 0 0 0 0 1

Total # of neighbors = 1117007
Ave neighs/atom = 56.8394
Neighbor list builds = 505
Dangerous builds not checked
Setting up Verlet run ...
  Unit style    : metal
  Current step  : 61000
  Time step     : 0.001
Per MPI rank memory allocation (min/avg/max) = 12.96 | 12.96 | 12.97 Mbytes
Step Temp Press TotEng PotEng Enthalpy Volume 
   61000    1395.2125   -747.36653   -87958.656   -91502.623   -88300.125    732029.15 
   61495    1358.1218    473.14502   -88153.147     -91602.9   -87937.748    729389.16 
Loop time of 54.0879 on 2 procs for 495 steps with 19652 atoms

Performance: 0.791 ns/day, 30.352 hours/ns, 9.152 timesteps/s
93.9% CPU use with 2 MPI tasks x no OpenMP threads

MPI task timing breakdown:
Section |  min time  |  avg time  |  max time  |%varavg| %total
---------------------------------------------------------------
Pair    | 35.984     | 35.986     | 35.988     |   0.0 | 66.53
Neigh   | 15.377     | 15.459     | 15.541     |   2.1 | 28.58
Comm    | 1.9486     | 2.0363     | 2.124      |   6.1 |  3.76
Output  | 7.7009e-05 | 0.00014246 | 0.0002079  |   0.0 |  0.00
Modify  | 0.46946    | 0.47182    | 0.47418    |   0.3 |  0.87
Other   |            | 0.1347     |            |       |  0.25

Nlocal:    9826 ave 9844 max 9808 min
Histogram: 1 0 0 0 0 0 0 0 0 1
Nghost:    10812.5 ave 10833 max 10792 min
Histogram: 1 0 0 0 0 0 0 0 0 1
Neighs:    561228 ave 562763 max 559692 min
Histogram: 1 0 0 0 0 0 0 0 0 1

Total # of neighbors = 1122455
Ave neighs/atom = 57.1166
Neighbor list builds = 495
Dangerous builds not checked
Setting up Verlet run ...
  Unit style    : metal
  Current step  : 61495
  Time step     : 0.001
Per MPI rank memory allocation (min/avg/max) = 12.96 | 12.96 | 12.97 Mbytes
Step Temp Press TotEng PotEng Enthalpy Volume 
   61495    1358.1218    473.14502   -88153.147     -91602.9   -87937.748    729389.16 
   62000    1348.7974     -616.631   -88290.346   -91716.414   -88571.394    730239.91 
Loop time of 58.2828 on 2 procs for 505 steps with 19652 atoms

Performance: 0.749 ns/day, 32.059 hours/ns, 8.665 timesteps/s
93.2% CPU use with 2 MPI tasks x no OpenMP threads

MPI task timing breakdown:
Section |  min time  |  avg time  |  max time  |%varavg| %total
---------------------------------------------------------------
Pair    | 37.924     | 38.352     | 38.78      |   6.9 | 65.80
Neigh   | 16.513     | 16.579     | 16.645     |   1.6 | 28.45
Comm    | 2.1327     | 2.6385     | 3.1444     |  31.1 |  4.53
Output  | 0.037294   | 0.037368   | 0.037441   |   0.0 |  0.06
Modify  | 0.52965    | 0.53696    | 0.54428    |   1.0 |  0.92
Other   |            | 0.1386     |            |       |  0.24

Nlocal:    9826 ave 9838 max 9814 min
Histogram: 1 0 0 0 0 0 0 0 0 1
Nghost:    10788.5 ave 10810 max 10767 min
Histogram: 1 0 0 0 0 0 0 0 0 1
Neighs:    560684 ave 561559 max 559808 min
Histogram: 1 0 0 0 0 0 0 0 0 1

Total # of neighbors = 1121367
Ave neighs/atom = 57.0612
Neighbor list builds = 505
Dangerous builds not checked
Setting up Verlet run ...
  Unit style    : metal
  Current step  : 62000
  Time step     : 0.001
Per MPI rank memory allocation (min/avg/max) = 12.96 | 12.96 | 12.97 Mbytes
Step Temp Press TotEng PotEng Enthalpy Volume 
   62000    1348.7974     -616.631   -88290.346   -91716.414   -88571.394    730239.91 
   62495    1318.9972    807.52065   -88462.206   -91812.579   -88095.303    727959.88 
Loop time of 58.669 on 2 procs for 495 steps with 19652 atoms

Performance: 0.729 ns/day, 32.923 hours/ns, 8.437 timesteps/s
91.8% CPU use with 2 MPI tasks x no OpenMP threads

MPI task timing breakdown:
Section |  min time  |  avg time  |  max time  |%varavg| %total
---------------------------------------------------------------
Pair    | 38.891     | 39.141     | 39.39      |   4.0 | 66.71
Neigh   | 16.294     | 16.378     | 16.462     |   2.1 | 27.92
Comm    | 2.3739     | 2.5332     | 2.6925     |  10.0 |  4.32
Output  | 7.8917e-05 | 9.5487e-05 | 0.00011206 |   0.0 |  0.00
Modify  | 0.47576    | 0.48228    | 0.4888     |   0.9 |  0.82
Other   |            | 0.1353     |            |       |  0.23

Nlocal:    9826 ave 9870 max 9782 min
Histogram: 1 0 0 0 0 0 0 0 0 1
Nghost:    10822 ave 10829 max 10815 min
Histogram: 1 0 0 0 0 0 0 0 0 1
Neighs:    563138 ave 565536 max 560740 min
Histogram: 1 0 0 0 0 0 0 0 0 1

Total # of neighbors = 1126276
Ave neighs/atom = 57.311
Neighbor list builds = 495
Dangerous builds not checked
Setting up Verlet run ...
  Unit style    : metal
  Current step  : 62495
  Time step     : 0.001
Per MPI rank memory allocation (min/avg/max) = 12.96 | 12.96 | 12.97 Mbytes
Step Temp Press TotEng PotEng Enthalpy Volume 
   62495    1318.9972    807.52065   -88462.206   -91812.579   -88095.303    727959.88 
   63000     1299.346   -189.37364   -88589.244   -91889.701   -88675.382    728765.26 
Loop time of 62.3703 on 2 procs for 505 steps with 19652 atoms

Performance: 0.700 ns/day, 34.307 hours/ns, 8.097 timesteps/s
95.0% CPU use with 2 MPI tasks x no OpenMP threads

MPI task timing breakdown:
Section |  min time  |  avg time  |  max time  |%varavg| %total
---------------------------------------------------------------
Pair    | 40.508     | 40.528     | 40.547     |   0.3 | 64.98
Neigh   | 17.478     | 17.584     | 17.691     |   2.5 | 28.19
Comm    | 3.4649     | 3.6039     | 3.7429     |   7.3 |  5.78
Output  | 0.037285   | 0.037433   | 0.03758    |   0.1 |  0.06
Modify  | 0.47249    | 0.48389    | 0.49529    |   1.6 |  0.78
Other   |            | 0.1332     |            |       |  0.21

Nlocal:    9826 ave 9864 max 9788 min
Histogram: 1 0 0 0 0 0 0 0 0 1
Nghost:    10825 ave 10844 max 10806 min
Histogram: 1 0 0 0 0 0 0 0 0 1
Neighs:    562440 ave 565165 max 559714 min
Histogram: 1 0 0 0 0 0 0 0 0 1

Total # of neighbors = 1124879
Ave neighs/atom = 57.2399
Neighbor list builds = 505
Dangerous builds not checked
Setting up Verlet run ...
  Unit style    : metal
  Current step  : 63000
  Time step     : 0.001
Per MPI rank memory allocation (min/avg/max) = 12.96 | 12.96 | 12.97 Mbytes
Step Temp Press TotEng PotEng Enthalpy Volume 
   63000     1299.346   -189.37364   -88589.244   -91889.701   -88675.382    728765.26 
   63495    1249.6327   -263.13062   -88770.304   -91944.485   -88889.923    728351.44 
Loop time of 62.4696 on 2 procs for 495 steps with 19652 atoms

Performance: 0.685 ns/day, 35.056 hours/ns, 7.924 timesteps/s
94.2% CPU use with 2 MPI tasks x no OpenMP threads

MPI task timing breakdown:
Section |  min time  |  avg time  |  max time  |%varavg| %total
---------------------------------------------------------------
Pair    | 40.612     | 40.683     | 40.754     |   1.1 | 65.12
Neigh   | 18.027     | 18.448     | 18.87      |   9.8 | 29.53
Comm    | 2.3215     | 2.6763     | 3.0311     |  21.7 |  4.28
Output  | 0.00023007 | 0.00037146 | 0.00051284 |   0.0 |  0.00
Modify  | 0.5136     | 0.51565    | 0.51769    |   0.3 |  0.83
Other   |            | 0.146      |            |       |  0.23

Nlocal:    9826 ave 9862 max 9790 min
Histogram: 1 0 0 0 0 0 0 0 0 1
Nghost:    10790.5 ave 10812 max 10769 min
Histogram: 1 0 0 0 0 0 0 0 0 1
Neighs:    563128 ave 565745 max 560510 min
Histogram: 1 0 0 0 0 0 0 0 0 1

Total # of neighbors = 1126255
Ave neighs/atom = 57.3099
Neighbor list builds = 495
Dangerous builds not checked
Setting up Verlet run ...
  Unit style    : metal
  Current step  : 63495
  Time step     : 0.001
Per MPI rank memory allocation (min/avg/max) = 12.96 | 12.96 | 12.97 Mbytes
Step Temp Press TotEng PotEng Enthalpy Volume 
   63495    1249.6327   -263.13062   -88770.304   -91944.485   -88889.923    728351.44 
   64000    1245.2412     197.7142   -88913.804    -92076.83   -88824.049    727328.96 
Loop time of 64.9554 on 2 procs for 505 steps with 19652 atoms

Performance: 0.672 ns/day, 35.729 hours/ns, 7.775 timesteps/s
92.0% CPU use with 2 MPI tasks x no OpenMP threads

MPI task timing breakdown:
Section |  min time  |  avg time  |  max time  |%varavg| %total
---------------------------------------------------------------
Pair    | 41.708     | 42.13      | 42.551     |   6.5 | 64.86
Neigh   | 18.759     | 18.954     | 19.15      |   4.5 | 29.18
Comm    | 2.9717     | 3.1916     | 3.4115     |  12.3 |  4.91
Output  | 0.040518   | 0.040584   | 0.040649   |   0.0 |  0.06
Modify  | 0.49673    | 0.50249    | 0.50826    |   0.8 |  0.77
Other   |            | 0.1367     |            |       |  0.21

Nlocal:    9826 ave 9855 max 9797 min
Histogram: 1 0 0 0 0 0 0 0 0 1
Nghost:    10811 ave 10825 max 10797 min
Histogram: 1 0 0 0 0 0 0 0 0 1
Neighs:    564114 ave 567384 max 560843 min
Histogram: 1 0 0 0 0 0 0 0 0 1

Total # of neighbors = 1128227
Ave neighs/atom = 57.4103
Neighbor list builds = 505
Dangerous builds not checked
Setting up Verlet run ...
  Unit style    : metal
  Current step  : 64000
  Time step     : 0.001
Per MPI rank memory allocation (min/avg/max) = 12.96 | 12.96 | 12.97 Mbytes
Step Temp Press TotEng PotEng Enthalpy Volume 
   64000    1245.2412     197.7142   -88913.804    -92076.83   -88824.049    727328.96 
   64495      1215.52    -612.1687   -89079.204   -92166.735   -89357.297    727830.52 
Loop time of 63.0944 on 2 procs for 495 steps with 19652 atoms

Performance: 0.678 ns/day, 35.407 hours/ns, 7.845 timesteps/s
91.4% CPU use with 2 MPI tasks x no OpenMP threads

MPI task timing breakdown:
Section |  min time  |  avg time  |  max time  |%varavg| %total
---------------------------------------------------------------
Pair    | 39.258     | 40.326     | 41.395     |  16.8 | 63.91
Neigh   | 18.402     | 18.415     | 18.428     |   0.3 | 29.19
Comm    | 2.648      | 3.6884     | 4.7288     |  54.2 |  5.85
Output  | 8.1062e-05 | 0.0001545  | 0.00022793 |   0.0 |  0.00
Modify  | 0.51671    | 0.52765    | 0.53859    |   1.5 |  0.84
Other   |            | 0.1368     |            |       |  0.22

Nlocal:    9826 ave 9829 max 9823 min
Histogram: 1 0 0 0 0 0 0 0 0 1
Nghost:    10814.5 ave 10862 max 10767 min
Histogram: 1 0 0 0 0 0 0 0 0 1
[...]
   80000    448.23534   -54.623634   -93296.808   -94435.366   -93321.185    715007.67 
   80495    419.16525    163.67966   -93440.216   -94504.934   -93367.234    714383.64 
Loop time of 73.6126 on 2 procs for 495 steps with 19652 atoms

Performance: 0.581 ns/day, 41.309 hours/ns, 6.724 timesteps/s
85.3% CPU use with 2 MPI tasks x no OpenMP threads

MPI task timing breakdown:
Section |  min time  |  avg time  |  max time  |%varavg| %total
---------------------------------------------------------------
Pair    | 48.742     | 48.817     | 48.892     |   1.1 | 66.32
Neigh   | 18.726     | 18.807     | 18.887     |   1.9 | 25.55
Comm    | 4.5049     | 4.5099     | 4.5149     |   0.2 |  6.13
Output  | 7.7963e-05 | 0.00010693 | 0.0001359  |   0.0 |  0.00
Modify  | 1.3268     | 1.3358     | 1.3449     |   0.8 |  1.81
Other   |            | 0.143      |            |       |  0.19

Nlocal:    9826 ave 9890 max 9762 min
Histogram: 1 0 0 0 0 0 0 0 0 1
Nghost:    10861 ave 10889 max 10833 min
Histogram: 1 0 0 0 0 0 0 0 0 1
Neighs:    582752 ave 583165 max 582340 min
Histogram: 1 0 0 0 0 0 0 0 0 1

Total # of neighbors = 1165505
Ave neighs/atom = 59.3072
Neighbor list builds = 495
Dangerous builds not checked
Setting up Verlet run ...
  Unit style    : metal
  Current step  : 80495
  Time step     : 0.001
Per MPI rank memory allocation (min/avg/max) = 12.96 | 12.96 | 12.97 Mbytes
Step Temp Press TotEng PotEng Enthalpy Volume 
   80495    419.16525    163.67966   -93440.216   -94504.934   -93367.234    714383.64 
   81000    395.02437   -18.395394   -93563.788   -94567.186   -93571.993    714652.47 
Loop time of 61.5248 on 2 procs for 505 steps with 19652 atoms

Performance: 0.709 ns/day, 33.842 hours/ns, 8.208 timesteps/s
90.6% CPU use with 2 MPI tasks x no OpenMP threads

MPI task timing breakdown:
Section |  min time  |  avg time  |  max time  |%varavg| %total
---------------------------------------------------------------
Pair    | 38.509     | 39.012     | 39.515     |   8.1 | 63.41
Neigh   | 18.068     | 18.201     | 18.335     |   3.1 | 29.58
Comm    | 3.192      | 3.562      | 3.9319     |  19.6 |  5.79
Output  | 0.034369   | 0.034384   | 0.034399   |   0.0 |  0.06
Modify  | 0.57199    | 0.581      | 0.59001    |   1.2 |  0.94
Other   |            | 0.1339     |            |       |  0.22

Nlocal:    9826 ave 9914 max 9738 min
Histogram: 1 0 0 0 0 0 0 0 0 1
Nghost:    10881 ave 10928 max 10834 min
Histogram: 1 0 0 0 0 0 0 0 0 1
Neighs:    582291 ave 583671 max 580911 min
Histogram: 1 0 0 0 0 0 0 0 0 1

Total # of neighbors = 1164582
Ave neighs/atom = 59.2602
Neighbor list builds = 505
Dangerous builds not checked
Setting up Verlet run ...
  Unit style    : metal
  Current step  : 81000
  Time step     : 0.001
Per MPI rank memory allocation (min/avg/max) = 12.96 | 12.96 | 12.97 Mbytes
Step Temp Press TotEng PotEng Enthalpy Volume 
   81000    395.02437   -18.395394   -93563.788   -94567.186   -93571.993    714652.47 
   81495    370.09676    138.02496   -93695.789   -94635.868   -93634.287    713898.33 
Loop time of 56.971 on 2 procs for 495 steps with 19652 atoms

Performance: 0.751 ns/day, 31.970 hours/ns, 8.689 timesteps/s
94.8% CPU use with 2 MPI tasks x no OpenMP threads

MPI task timing breakdown:
Section |  min time  |  avg time  |  max time  |%varavg| %total
---------------------------------------------------------------
Pair    | 35.95      | 36.116     | 36.282     |   2.8 | 63.39
Neigh   | 16.967     | 17.375     | 17.783     |   9.8 | 30.50
Comm    | 2.2923     | 2.8747     | 3.4572     |  34.4 |  5.05
Output  | 0.00012302 | 0.000175   | 0.00022697 |   0.0 |  0.00
Modify  | 0.4624     | 0.47289    | 0.48338    |   1.5 |  0.83
Other   |            | 0.1321     |            |       |  0.23

Nlocal:    9826 ave 9907 max 9745 min
Histogram: 1 0 0 0 0 0 0 0 0 1
Nghost:    10889 ave 10912 max 10866 min
Histogram: 1 0 0 0 0 0 0 0 0 1
Neighs:    583233 ave 584288 max 582178 min
Histogram: 1 0 0 0 0 0 0 0 0 1

Total # of neighbors = 1166466
Ave neighs/atom = 59.3561
Neighbor list builds = 495
Dangerous builds not checked
Setting up Verlet run ...
  Unit style    : metal
  Current step  : 81495
  Time step     : 0.001
Per MPI rank memory allocation (min/avg/max) = 12.96 | 12.96 | 12.97 Mbytes
Step Temp Press TotEng PotEng Enthalpy Volume 
   81495    370.09676    138.02496   -93695.789   -94635.868   -93634.287    713898.33 
   82000    348.13134    118.65465   -93822.657   -94706.942   -93769.798    713742.94 
Loop time of 61.9411 on 2 procs for 505 steps with 19652 atoms

Performance: 0.704 ns/day, 34.071 hours/ns, 8.153 timesteps/s
89.4% CPU use with 2 MPI tasks x no OpenMP threads

MPI task timing breakdown:
Section |  min time  |  avg time  |  max time  |%varavg| %total
---------------------------------------------------------------
Pair    | 38.569     | 39.1       | 39.63      |   8.5 | 63.12
Neigh   | 18.369     | 18.4       | 18.431     |   0.7 | 29.71
Comm    | 3.051      | 3.5513     | 4.0516     |  26.5 |  5.73
Output  | 0.072014   | 0.072048   | 0.072081   |   0.0 |  0.12
Modify  | 0.68131    | 0.6854     | 0.68948    |   0.5 |  1.11
Other   |            | 0.1328     |            |       |  0.21

Nlocal:    9826 ave 9927 max 9725 min
Histogram: 1 0 0 0 0 0 0 0 0 1
Nghost:    10902.5 ave 10936 max 10869 min
Histogram: 1 0 0 0 0 0 0 0 0 1
Neighs:    582836 ave 585570 max 580101 min
Histogram: 1 0 0 0 0 0 0 0 0 1

Total # of neighbors = 1165671
Ave neighs/atom = 59.3156
Neighbor list builds = 505
Dangerous builds not checked
Setting up Verlet run ...
  Unit style    : metal
  Current step  : 82000
  Time step     : 0.001
Per MPI rank memory allocation (min/avg/max) = 12.96 | 12.97 | 12.97 Mbytes
Step Temp Press TotEng PotEng Enthalpy Volume 
   82000    348.13134    118.65465   -93822.657   -94706.942   -93769.798    713742.94 
   82495     322.3778   -33.028856   -93957.934   -94776.803   -93972.644    713527.19 
Loop time of 56.5789 on 2 procs for 495 steps with 19652 atoms

Performance: 0.756 ns/day, 31.750 hours/ns, 8.749 timesteps/s
93.0% CPU use with 2 MPI tasks x no OpenMP threads

MPI task timing breakdown:
Section |  min time  |  avg time  |  max time  |%varavg| %total
---------------------------------------------------------------
Pair    | 35.751     | 35.826     | 35.901     |   1.3 | 63.32
Neigh   | 17.168     | 17.624     | 18.08      |  10.9 | 31.15
Comm    | 2.0931     | 2.4868     | 2.8805     |  25.0 |  4.40
Output  | 0.000103   | 0.0001725  | 0.00024199 |   0.0 |  0.00
Modify  | 0.50198    | 0.5151     | 0.52821    |   1.8 |  0.91
Other   |            | 0.127      |            |       |  0.22

Nlocal:    9826 ave 9928 max 9724 min
Histogram: 1 0 0 0 0 0 0 0 0 1
Nghost:    10914.5 ave 10968 max 10861 min
Histogram: 1 0 0 0 0 0 0 0 0 1
Neighs:    583390 ave 585817 max 580964 min
Histogram: 1 0 0 0 0 0 0 0 0 1

Total # of neighbors = 1166781
Ave neighs/atom = 59.3721
Neighbor list builds = 495
Dangerous builds not checked
Setting up Verlet run ...
  Unit style    : metal
  Current step  : 82495
  Time step     : 0.001
Per MPI rank memory allocation (min/avg/max) = 12.96 | 12.97 | 12.97 Mbytes
Step Temp Press TotEng PotEng Enthalpy Volume 
   82495     322.3778   -33.028856   -93957.934   -94776.803   -93972.644    713527.19 
   83000    299.05878    44.175843   -94088.528   -94848.165   -94068.865    713151.98 
Loop time of 59.9054 on 2 procs for 505 steps with 19652 atoms

Performance: 0.728 ns/day, 32.951 hours/ns, 8.430 timesteps/s
91.5% CPU use with 2 MPI tasks x no OpenMP threads

MPI task timing breakdown:
Section |  min time  |  avg time  |  max time  |%varavg| %total
---------------------------------------------------------------
Pair    | 37.815     | 38.061     | 38.306     |   4.0 | 63.53
Neigh   | 18.102     | 18.102     | 18.103     |   0.0 | 30.22
Comm    | 2.7237     | 2.9699     | 3.2161     |  14.3 |  4.96
Output  | 0.035401   | 0.03545    | 0.0355     |   0.0 |  0.06
Modify  | 0.60554    | 0.60608    | 0.60663    |   0.1 |  1.01
Other   |            | 0.1308     |            |       |  0.22

Nlocal:    9826 ave 9887 max 9765 min
Histogram: 1 0 0 0 0 0 0 0 0 1
Nghost:    10923.5 ave 10938 max 10909 min
Histogram: 1 0 0 0 0 0 0 0 0 1
Neighs:    583602 ave 584122 max 583081 min
Histogram: 1 0 0 0 0 0 0 0 0 1

Total # of neighbors = 1167203
Ave neighs/atom = 59.3936
Neighbor list builds = 505
Dangerous builds not checked
Setting up Verlet run ...
  Unit style    : metal
  Current step  : 83000
  Time step     : 0.001
Per MPI rank memory allocation (min/avg/max) = 12.96 | 12.97 | 12.97 Mbytes
Step Temp Press TotEng PotEng Enthalpy Volume 
   83000    299.05878    44.175843   -94088.528   -94848.165   -94068.865    713151.98 
   83495    274.79033    -171.1236   -94217.296   -94915.289   -94293.457    713067.02 
Loop time of 63.224 on 2 procs for 495 steps with 19652 atoms

Performance: 0.676 ns/day, 35.479 hours/ns, 7.829 timesteps/s
87.8% CPU use with 2 MPI tasks x no OpenMP threads

MPI task timing breakdown:
Section |  min time  |  avg time  |  max time  |%varavg| %total
---------------------------------------------------------------
Pair    | 39.628     | 40.102     | 40.576     |   7.5 | 63.43
Neigh   | 18.281     | 18.383     | 18.484     |   2.4 | 29.08
Comm    | 3.6412     | 4.032      | 4.4229     |  19.5 |  6.38
Output  | 0.00027013 | 0.00028801 | 0.00030589 |   0.0 |  0.00
Modify  | 0.55245    | 0.56916    | 0.58586    |   2.2 |  0.90
Other   |            | 0.138      |            |       |  0.22

Nlocal:    9826 ave 9903 max 9749 min
Histogram: 1 0 0 0 0 0 0 0 0 1
Nghost:    10928 ave 10953 max 10903 min
Histogram: 1 0 0 0 0 0 0 0 0 1
Neighs:    583767 ave 584144 max 583390 min
Histogram: 1 0 0 0 0 0 0 0 0 1

Total # of neighbors = 1167534
Ave neighs/atom = 59.4104
Neighbor list builds = 495
Dangerous builds not checked
Setting up Verlet run ...
  Unit style    : metal
  Current step  : 83495
  Time step     : 0.001
Per MPI rank memory allocation (min/avg/max) = 12.96 | 12.97 | 12.97 Mbytes
Step Temp Press TotEng PotEng Enthalpy Volume 
   83495    274.79033    -171.1236   -94217.296   -94915.289   -94293.457    713067.02 
   84000    247.56019     243.0826   -94351.074   -94979.899   -94243.011    712251.72 
Loop time of 62.7815 on 2 procs for 505 steps with 19652 atoms

Performance: 0.695 ns/day, 34.533 hours/ns, 8.044 timesteps/s
88.7% CPU use with 2 MPI tasks x no OpenMP threads

MPI task timing breakdown:
Section |  min time  |  avg time  |  max time  |%varavg| %total
---------------------------------------------------------------
Pair    | 38.752     | 39.213     | 39.675     |   7.4 | 62.46
Neigh   | 18.08      | 18.311     | 18.541     |   5.4 | 29.17
Comm    | 4.2689     | 4.5065     | 4.7441     |  11.2 |  7.18
Output  | 0.039616   | 0.039634   | 0.039653   |   0.0 |  0.06
Modify  | 0.57329    | 0.57377    | 0.57425    |   0.1 |  0.91
Other   |            | 0.1376     |            |       |  0.22

Nlocal:    9826 ave 9901 max 9751 min
Histogram: 1 0 0 0 0 0 0 0 0 1
Nghost:    10969.5 ave 10979 max 10960 min
Histogram: 1 0 0 0 0 0 0 0 0 1
Neighs:    584505 ave 584709 max 584301 min
Histogram: 1 0 0 0 0 0 0 0 0 1

Total # of neighbors = 1169010
Ave neighs/atom = 59.4855
Neighbor list builds = 505
Dangerous builds not checked
Setting up Verlet run ...
  Unit style    : metal
  Current step  : 84000
  Time step     : 0.001
Per MPI rank memory allocation (min/avg/max) = 12.96 | 12.97 | 12.97 Mbytes
Step Temp Press TotEng PotEng Enthalpy Volume 
   84000    247.56019     243.0826   -94351.074   -94979.899   -94243.011    712251.72 
   84495    222.99062    -233.1364   -94476.673    -95043.09   -94580.354    712521.75 
Loop time of 66.0194 on 2 procs for 495 steps with 19652 atoms

Performance: 0.648 ns/day, 37.048 hours/ns, 7.498 timesteps/s
86.2% CPU use with 2 MPI tasks x no OpenMP threads

MPI task timing breakdown:
Section |  min time  |  avg time  |  max time  |%varavg| %total
---------------------------------------------------------------
Pair    | 42.099     | 42.229     | 42.359     |   2.0 | 63.96
Neigh   | 18.347     | 18.882     | 19.417     |  12.3 | 28.60
Comm    | 3.7664     | 4.1808     | 4.5952     |  20.3 |  6.33
Output  | 0.00011301 | 0.00019848 | 0.00028396 |   0.0 |  0.00
Modify  | 0.5735     | 0.58336    | 0.59322    |   1.3 |  0.88
Other   |            | 0.1436     |            |       |  0.22

Nlocal:    9826 ave 9930 max 9722 min
Histogram: 1 0 0 0 0 0 0 0 0 1
Nghost:    11003 ave 11029 max 10977 min
Histogram: 1 0 0 0 0 0 0 0 0 1
Neighs:    584144 ave 587198 max 581090 min
Histogram: 1 0 0 0 0 0 0 0 0 1

Total # of neighbors = 1168288
Ave neighs/atom = 59.4488
Neighbor list builds = 495
Dangerous builds not checked
Setting up Verlet run ...
  Unit style    : metal
  Current step  : 84495
  Time step     : 0.001
Per MPI rank memory allocation (min/avg/max) = 12.96 | 12.97 | 12.97 Mbytes
Step Temp Press TotEng PotEng Enthalpy Volume 
   84495    222.99062    -233.1364   -94476.673    -95043.09   -94580.354    712521.75 
   85000     199.7928    -272.6986   -94605.894   -95113.386   -94727.133    712307.94 
Loop time of 65.015 on 2 procs for 505 steps with 19652 atoms

Performance: 0.671 ns/day, 35.762 hours/ns, 7.767 timesteps/s
87.0% CPU use with 2 MPI tasks x no OpenMP threads

MPI task timing breakdown:
Section |  min time  |  avg time  |  max time  |%varavg| %total
---------------------------------------------------------------
Pair    | 41.893     | 42.057     | 42.221     |   2.5 | 64.69
Neigh   | 18.625     | 18.798     | 18.97      |   4.0 | 28.91
Comm    | 3.403      | 3.4106     | 3.4183     |   0.4 |  5.25
Output  | 0.035876   | 0.035899   | 0.035921   |   0.0 |  0.06
Modify  | 0.55283    | 0.56103    | 0.56922    |   1.1 |  0.86
Other   |            | 0.1528     |            |       |  0.23

Nlocal:    9826 ave 9936 max 9716 min
Histogram: 1 0 0 0 0 0 0 0 0 1
Nghost:    10976 ave 11019 max 10933 min
Histogram: 1 0 0 0 0 0 0 0 0 1
Neighs:    584355 ave 587501 max 581209 min
Histogram: 1 0 0 0 0 0 0 0 0 1

Total # of neighbors = 1168710
Ave neighs/atom = 59.4703
Neighbor list builds = 505
Dangerous builds not checked
Setting up Verlet run ...
  Unit style    : metal
  Current step  : 85000
  Time step     : 0.001
Per MPI rank memory allocation (min/avg/max) = 12.96 | 12.97 | 12.97 Mbytes
Step Temp Press TotEng PotEng Enthalpy Volume 
   85000     199.7928    -272.6986   -94605.894   -95113.386   -94727.133    712307.94 
   85495    175.78954   -224.45989   -94729.917   -95176.439    -94829.64    711808.61 
Loop time of 63.2009 on 2 procs for 495 steps with 19652 atoms

Performance: 0.677 ns/day, 35.466 hours/ns, 7.832 timesteps/s
85.8% CPU use with 2 MPI tasks x no OpenMP threads

MPI task timing breakdown:
Section |  min time  |  avg time  |  max time  |%varavg| %total
---------------------------------------------------------------
Pair    | 38.815     | 38.919     | 39.024     |   1.7 | 61.58
Neigh   | 17.673     | 18.247     | 18.822     |  13.5 | 28.87
Comm    | 4.8602     | 5.3295     | 5.7987     |  20.3 |  8.43
Output  | 0.00011301 | 0.00015354 | 0.00019407 |   0.0 |  0.00
Modify  | 0.55789    | 0.56502    | 0.57214    |   0.9 |  0.89
Other   |            | 0.1397     |            |       |  0.22

Nlocal:    9826 ave 9913 max 9739 min
Histogram: 1 0 0 0 0 0 0 0 0 1
Nghost:    10981.5 ave 11004 max 10959 min
Histogram: 1 0 0 0 0 0 0 0 0 1
Neighs:    584998 ave 586595 max 583400 min
Histogram: 1 0 0 0 0 0 0 0 0 1

Total # of neighbors = 1169995
Ave neighs/atom = 59.5357
Neighbor list builds = 495
Dangerous builds not checked
Setting up Verlet run ...
  Unit style    : metal
  Current step  : 85495
  Time step     : 0.001
Per MPI rank memory allocation (min/avg/max) = 12.96 | 12.97 | 12.97 Mbytes
Step Temp Press TotEng PotEng Enthalpy Volume 
   85495    175.78954   -224.45989   -94729.917   -95176.439    -94829.64    711808.61 
   86000    150.74761    207.71596   -94858.194   -95241.107   -94765.993    711171.93 
Loop time of 58.7884 on 2 procs for 505 steps with 19652 atoms

Performance: 0.742 ns/day, 32.337 hours/ns, 8.590 timesteps/s
87.4% CPU use with 2 MPI tasks x no OpenMP threads

MPI task timing breakdown:
Section |  min time  |  avg time  |  max time  |%varavg| %total
---------------------------------------------------------------
Pair    | 35.344     | 35.695     | 36.046     |   5.9 | 60.72
Neigh   | 17.77      | 17.885     | 18         |   2.7 | 30.42
Comm    | 4.2034     | 4.4584     | 4.7135     |  12.1 |  7.58
Output  | 0.034148   | 0.034209   | 0.03427    |   0.0 |  0.06
Modify  | 0.57105    | 0.59216    | 0.61327    |   2.7 |  1.01
Other   |            | 0.1239     |            |       |  0.21

Nlocal:    9826 ave 9912 max 9740 min
Histogram: 1 0 0 0 0 0 0 0 0 1
Nghost:    11003.5 ave 11006 max 11001 min
Histogram: 1 0 0 0 0 0 0 0 0 1
Neighs:    585692 ave 586543 max 584840 min
Histogram: 1 0 0 0 0 0 0 0 0 1

Total # of neighbors = 1171383
Ave neighs/atom = 59.6063
Neighbor list builds = 505
Dangerous builds not checked
Setting up Verlet run ...
  Unit style    : metal
  Current step  : 86000
  Time step     : 0.001
Per MPI rank memory allocation (min/avg/max) = 12.96 | 12.97 | 12.97 Mbytes
Step Temp Press TotEng PotEng Enthalpy Volume 
   86000    150.74761    207.71596   -94858.194   -95241.107   -94765.993    711171.93 
   86495     126.9376   -240.52061   -94979.864   -95302.297   -95086.644    711292.23 
Loop time of 59.8056 on 2 procs for 495 steps with 19652 atoms

Performance: 0.715 ns/day, 33.561 hours/ns, 8.277 timesteps/s
86.0% CPU use with 2 MPI tasks x no OpenMP threads

MPI task timing breakdown:
Section |  min time  |  avg time  |  max time  |%varavg| %total
---------------------------------------------------------------
Pair    | 37.296     | 37.439     | 37.582     |   2.3 | 62.60
Neigh   | 18.21      | 18.283     | 18.356     |   1.7 | 30.57
Comm    | 3.3423     | 3.3891     | 3.4359     |   2.5 |  5.67
Output  | 8.7976e-05 | 0.000175   | 0.00026202 |   0.0 |  0.00
Modify  | 0.54428    | 0.55104    | 0.55781    |   0.9 |  0.92
Other   |            | 0.1426     |            |       |  0.24

Nlocal:    9826 ave 9890 max 9762 min
Histogram: 1 0 0 0 0 0 0 0 0 1
Nghost:    11006.5 ave 11012 max 11001 min
Histogram: 1 0 0 0 0 0 0 0 0 1
Neighs:    585470 ave 585935 max 585005 min
Histogram: 1 0 0 0 0 0 0 0 0 1

Total # of neighbors = 1170940
Ave neighs/atom = 59.5838
Neighbor list builds = 495
Dangerous builds not checked
Setting up Verlet run ...
  Unit style    : metal
  Current step  : 86495
  Time step     : 0.001
Per MPI rank memory allocation (min/avg/max) = 12.96 | 12.97 | 12.97 Mbytes
Step Temp Press TotEng PotEng Enthalpy Volume 
   86495     126.9376   -240.52061   -94979.864   -95302.297   -95086.644    711292.23 
   87000    102.10975     106.5905   -95107.534   -95366.902   -95060.245    710809.78 
Loop time of 61.3173 on 2 procs for 505 steps with 19652 atoms

Performance: 0.712 ns/day, 33.728 hours/ns, 8.236 timesteps/s
86.2% CPU use with 2 MPI tasks x no OpenMP threads

MPI task timing breakdown:
Section |  min time  |  avg time  |  max time  |%varavg| %total
---------------------------------------------------------------
Pair    | 37.62      | 37.789     | 37.959     |   2.8 | 61.63
Neigh   | 18.663     | 18.949     | 19.236     |   6.6 | 30.90
Comm    | 3.708      | 3.8334     | 3.9588     |   6.4 |  6.25
Output  | 0.054029   | 0.054069   | 0.054109   |   0.0 |  0.09
Modify  | 0.54629    | 0.55458    | 0.56288    |   1.1 |  0.90
Other   |            | 0.1367     |            |       |  0.22

Nlocal:    9826 ave 9912 max 9740 min
Histogram: 1 0 0 0 0 0 0 0 0 1
Nghost:    11007 ave 11026 max 10988 min
Histogram: 1 0 0 0 0 0 0 0 0 1
Neighs:    585880 ave 587221 max 584538 min
Histogram: 1 0 0 0 0 0 0 0 0 1

Total # of neighbors = 1171759
Ave neighs/atom = 59.6254
Neighbor list builds = 505
Dangerous builds not checked
Total wall time: 3:23:33
