LAMMPS (12 Dec 2018)
Lattice spacing in x,y,z = 4 4 4
Created orthogonal box = (0 0 0) to (68 68 68)
  1 by 1 by 1 MPI processor grid
Created 19652 atoms
  Time spent = 0.00316501 secs
Setting atom values ...
  19652 settings made for type/fraction
Neighbor list info ...
  update every 1 steps, delay 0 steps, check no
  max neighbors/atom: 2000, page size: 100000
  master list distance cutoff = 8.2
  ghost atom cutoff = 8.2
  binsize = 4.1, bins = 17 17 17
  1 neighbor lists, perpetual/occasional/extra = 1 0 0
  (1) pair eam/alloy, perpetual
      attributes: half, newton on
      pair build: half/bin/atomonly/newton
      stencil: half/bin/3d/newton
      bin: standard
Setting up Verlet run ...
  Unit style    : metal
  Current step  : 0
  Time step     : 0.001
Per MPI rank memory allocation (min/avg/max) = 17.03 | 17.03 | 17.03 Mbytes
Step Temp Press TotEng PotEng Enthalpy 
       0          300   -363464.88   -69534.083    -70296.11   -140865.17 
    1000    1452.8893    -78465.93   -69534.445   -73224.916   -84933.622 
Loop time of 138.575 on 1 procs for 1000 steps with 19652 atoms

Performance: 0.623 ns/day, 38.493 hours/ns, 7.216 timesteps/s
100.0% CPU use with 1 MPI tasks x no OpenMP threads

MPI task timing breakdown:
Section |  min time  |  avg time  |  max time  |%varavg| %total
---------------------------------------------------------------
Pair    | 74.868     | 74.868     | 74.868     |   0.0 | 54.03
Neigh   | 60.566     | 60.566     | 60.566     |   0.0 | 43.71
Comm    | 1.9143     | 1.9143     | 1.9143     |   0.0 |  1.38
Output  | 0.00026417 | 0.00026417 | 0.00026417 |   0.0 |  0.00
Modify  | 0.72463    | 0.72463    | 0.72463    |   0.0 |  0.52
Other   |            | 0.5006     |            |       |  0.36

Nlocal:    19652 ave 19652 max 19652 min
Histogram: 1 0 0 0 0 0 0 0 0 0
Nghost:    18031 ave 18031 max 18031 min
Histogram: 1 0 0 0 0 0 0 0 0 0
Neighs:    1.44885e+06 ave 1.44885e+06 max 1.44885e+06 min
Histogram: 1 0 0 0 0 0 0 0 0 0

Total # of neighbors = 1448848
Ave neighs/atom = 73.7252
Neighbor list builds = 1000
Dangerous builds not checked
Setting up Verlet run ...
  Unit style    : metal
  Current step  : 1000
  Time step     : 0.001
Per MPI rank memory allocation (min/avg/max) = 17.03 | 17.03 | 17.03 Mbytes
Step Temp Press TotEng PotEng Enthalpy 
    1000    1452.8893    -78465.93   -69534.445   -73224.916   -84933.622 
    2000    430.63381   -3484.6579   -80697.986   -81791.835   -81210.802 
Loop time of 164.763 on 1 procs for 1000 steps with 19652 atoms

Performance: 0.524 ns/day, 45.768 hours/ns, 6.069 timesteps/s
100.0% CPU use with 1 MPI tasks x no OpenMP threads

MPI task timing breakdown:
Section |  min time  |  avg time  |  max time  |%varavg| %total
---------------------------------------------------------------
Pair    | 91.493     | 91.493     | 91.493     |   0.0 | 55.53
Neigh   | 68.782     | 68.782     | 68.782     |   0.0 | 41.75
Comm    | 1.811      | 1.811      | 1.811      |   0.0 |  1.10
Output  | 0.067716   | 0.067716   | 0.067716   |   0.0 |  0.04
Modify  | 2.0846     | 2.0846     | 2.0846     |   0.0 |  1.27
Other   |            | 0.5254     |            |       |  0.32

Nlocal:    19652 ave 19652 max 19652 min
Histogram: 1 0 0 0 0 0 0 0 0 0
Nghost:    20283 ave 20283 max 20283 min
Histogram: 1 0 0 0 0 0 0 0 0 0
Neighs:    1.87813e+06 ave 1.87813e+06 max 1.87813e+06 min
Histogram: 1 0 0 0 0 0 0 0 0 0

Total # of neighbors = 1878128
Ave neighs/atom = 95.5693
Neighbor list builds = 1000
Dangerous builds not checked
Setting up Verlet run ...
  Unit style    : metal
  Current step  : 2000
  Time step     : 0.001
Per MPI rank memory allocation (min/avg/max) = 18.95 | 18.95 | 18.95 Mbytes
Step Temp Press TotEng PotEng Enthalpy 
    2000    430.63381   -3484.6579   -80697.986   -81791.835   -81210.802 
    4000    824.91032    1178.6711   -80284.988   -82380.335   -80118.162 
    6000    1362.1413   -804.56145   -77162.182   -80622.145   -77279.109 
    8000    1891.2472   -840.88483   -73252.253   -78056.194   -73379.144 
   10000    2452.5495    2274.1707   -69539.899   -75769.598   -69184.986 
Loop time of 1437.09 on 1 procs for 8000 steps with 19652 atoms

Performance: 0.481 ns/day, 49.899 hours/ns, 5.567 timesteps/s
100.0% CPU use with 1 MPI tasks x no OpenMP threads

MPI task timing breakdown:
Section |  min time  |  avg time  |  max time  |%varavg| %total
---------------------------------------------------------------
Pair    | 799.32     | 799.32     | 799.32     |   0.0 | 55.62
Neigh   | 601.62     | 601.62     | 601.62     |   0.0 | 41.86
Comm    | 15.075     | 15.075     | 15.075     |   0.0 |  1.05
Output  | 0.19029    | 0.19029    | 0.19029    |   0.0 |  0.01
Modify  | 16.812     | 16.812     | 16.812     |   0.0 |  1.17
Other   |            | 4.078      |            |       |  0.28

Nlocal:    19652 ave 19652 max 19652 min
Histogram: 1 0 0 0 0 0 0 0 0 0
Nghost:    19671 ave 19671 max 19671 min
Histogram: 1 0 0 0 0 0 0 0 0 0
Neighs:    1.76444e+06 ave 1.76444e+06 max 1.76444e+06 min
Histogram: 1 0 0 0 0 0 0 0 0 0

Total # of neighbors = 1764437
Ave neighs/atom = 89.7841
Neighbor list builds = 8000
Dangerous builds not checked
Setting up Verlet run ...
  Unit style    : metal
  Current step  : 10000
  Time step     : 0.001
Per MPI rank memory allocation (min/avg/max) = 18.95 | 18.95 | 18.95 Mbytes
Step Temp Press TotEng PotEng Enthalpy 
   10000    2452.5495    2274.1707   -69539.899   -75769.598   -69184.986 
   12000     2447.692   -111.98603   -69492.494   -75709.855   -69510.005 
   14000    2440.7781   -1709.0403   -69403.194   -75602.992   -69670.968 
   16000    2429.2065   -1062.7847   -69520.546   -75690.952   -69686.876 
   18000    2442.5298    837.54969    -69394.56   -75598.808   -69263.406 
   20000    2444.7838    4622.3345   -69473.738   -75683.712   -68752.604 
   22000    2427.4561    329.71932   -69560.028   -75725.988   -69508.476 
   24000    2468.8182    1905.3129   -69448.816   -75719.839   -69151.158 
   26000    2455.0548    2923.1626   -69402.887    -75638.95   -68946.125 
   28000    2428.9327   -2884.4441   -69494.807   -75664.518   -69946.765 
   30000    2451.8976    3997.8647    -69404.23   -75632.274   -68779.775 
   32000    2453.9582   -469.41486   -69424.601   -75657.879   -69498.098 
   34000    2458.1709    1732.8806    -69453.99   -75697.968   -69183.102 
   36000    2438.6612   -2301.3792    -69500.82   -75695.241   -69861.191 
   38000    2458.9444    986.45505   -69405.461   -75651.404   -69251.154 
   40000    2452.4589   -629.98879   -69395.455   -75624.924    -69494.15 
Loop time of 5254.28 on 1 procs for 30000 steps with 19652 atoms

Performance: 0.493 ns/day, 48.651 hours/ns, 5.710 timesteps/s
100.0% CPU use with 1 MPI tasks x no OpenMP threads

MPI task timing breakdown:
Section |  min time  |  avg time  |  max time  |%varavg| %total
---------------------------------------------------------------
Pair    | 2928.7     | 2928.7     | 2928.7     |   0.0 | 55.74
Neigh   | 2191.6     | 2191.6     | 2191.6     |   0.0 | 41.71
Comm    | 55.962     | 55.962     | 55.962     |   0.0 |  1.07
Output  | 0.65631    | 0.65631    | 0.65631    |   0.0 |  0.01
Modify  | 62.241     | 62.241     | 62.241     |   0.0 |  1.18
Other   |            | 15.11      |            |       |  0.29

Nlocal:    19652 ave 19652 max 19652 min
Histogram: 1 0 0 0 0 0 0 0 0 0
Nghost:    19615 ave 19615 max 19615 min
Histogram: 1 0 0 0 0 0 0 0 0 0
Neighs:    1.75805e+06 ave 1.75805e+06 max 1.75805e+06 min
Histogram: 1 0 0 0 0 0 0 0 0 0

Total # of neighbors = 1758051
Ave neighs/atom = 89.4591
Neighbor list builds = 30000
Dangerous builds not checked
Setting up Verlet run ...
  Unit style    : metal
  Current step  : 40000
  Time step     : 0.001
Per MPI rank memory allocation (min/avg/max) = 18.95 | 18.95 | 18.95 Mbytes
Step Temp Press TotEng PotEng Enthalpy 
   40000    2452.4589   -629.98879   -69395.455   -75624.924    -69494.15 
   40495       2415.8   -2195.9153   -69684.881   -75821.233   -70028.058 
Loop time of 75.3652 on 1 procs for 495 steps with 19652 atoms

Performance: 0.567 ns/day, 42.292 hours/ns, 6.568 timesteps/s
100.0% CPU use with 1 MPI tasks x no OpenMP threads

MPI task timing breakdown:
Section |  min time  |  avg time  |  max time  |%varavg| %total
---------------------------------------------------------------
Pair    | 41.617     | 41.617     | 41.617     |   0.0 | 55.22
Neigh   | 31.637     | 31.637     | 31.637     |   0.0 | 41.98
Comm    | 0.90996    | 0.90996    | 0.90996    |   0.0 |  1.21
Output  | 0.00014997 | 0.00014997 | 0.00014997 |   0.0 |  0.00
Modify  | 0.9689     | 0.9689     | 0.9689     |   0.0 |  1.29
Other   |            | 0.2319     |            |       |  0.31

Nlocal:    19652 ave 19652 max 19652 min
Histogram: 1 0 0 0 0 0 0 0 0 0
Nghost:    19728 ave 19728 max 19728 min
Histogram: 1 0 0 0 0 0 0 0 0 0
Neighs:    1.76222e+06 ave 1.76222e+06 max 1.76222e+06 min
Histogram: 1 0 0 0 0 0 0 0 0 0

Total # of neighbors = 1762225
Ave neighs/atom = 89.6715
Neighbor list builds = 495
Dangerous builds not checked
Setting up Verlet run ...
  Unit style    : metal
  Current step  : 40495
  Time step     : 0.001
Per MPI rank memory allocation (min/avg/max) = 18.95 | 18.95 | 18.95 Mbytes
Step Temp Press TotEng PotEng Enthalpy 
   40495       2415.8   -2195.9153   -69684.881   -75821.233   -70028.058 
   42000    2373.0639   -2674.7021   -69763.324   -75791.123   -70181.561 
Loop time of 246.971 on 1 procs for 1505 steps with 19652 atoms

Performance: 0.527 ns/day, 45.583 hours/ns, 6.094 timesteps/s
100.0% CPU use with 1 MPI tasks x no OpenMP threads

MPI task timing breakdown:
Section |  min time  |  avg time  |  max time  |%varavg| %total
---------------------------------------------------------------
Pair    | 137.67     | 137.67     | 137.67     |   0.0 | 55.74
Neigh   | 102.13     | 102.13     | 102.13     |   0.0 | 41.35
Comm    | 3.1048     | 3.1048     | 3.1048     |   0.0 |  1.26
Output  | 0.046566   | 0.046566   | 0.046566   |   0.0 |  0.02
Modify  | 3.2526     | 3.2526     | 3.2526     |   0.0 |  1.32
Other   |            | 0.7651     |            |       |  0.31

Nlocal:    19652 ave 19652 max 19652 min
Histogram: 1 0 0 0 0 0 0 0 0 0
Nghost:    19655 ave 19655 max 19655 min
Histogram: 1 0 0 0 0 0 0 0 0 0
Neighs:    1.76056e+06 ave 1.76056e+06 max 1.76056e+06 min
Histogram: 1 0 0 0 0 0 0 0 0 0

Total # of neighbors = 1760563
Ave neighs/atom = 89.587
Neighbor list builds = 1505
Dangerous builds not checked
Setting up Verlet run ...
  Unit style    : metal
  Current step  : 42000
  Time step     : 0.001
Per MPI rank memory allocation (min/avg/max) = 18.95 | 18.95 | 18.95 Mbytes
Step Temp Press TotEng PotEng Enthalpy 
   42000    2373.0639   -2674.7021   -69763.324   -75791.123   -70181.561 
   42495    2347.7852   -1604.6614   -70038.977   -76002.565   -70289.014 
Loop time of 79.2436 on 1 procs for 495 steps with 19652 atoms

Performance: 0.540 ns/day, 44.469 hours/ns, 6.247 timesteps/s
100.0% CPU use with 1 MPI tasks x no OpenMP threads

MPI task timing breakdown:
Section |  min time  |  avg time  |  max time  |%varavg| %total
---------------------------------------------------------------
Pair    | 44.543     | 44.543     | 44.543     |   0.0 | 56.21
Neigh   | 32.55      | 32.55      | 32.55      |   0.0 | 41.08
Comm    | 0.92353    | 0.92353    | 0.92353    |   0.0 |  1.17
Output  | 0.0001471  | 0.0001471  | 0.0001471  |   0.0 |  0.00
Modify  | 0.98782    | 0.98782    | 0.98782    |   0.0 |  1.25
Other   |            | 0.2386     |            |       |  0.30

Nlocal:    19652 ave 19652 max 19652 min
Histogram: 1 0 0 0 0 0 0 0 0 0
Nghost:    19670 ave 19670 max 19670 min
Histogram: 1 0 0 0 0 0 0 0 0 0
Neighs:    1.7663e+06 ave 1.7663e+06 max 1.7663e+06 min
Histogram: 1 0 0 0 0 0 0 0 0 0

Total # of neighbors = 1766295
Ave neighs/atom = 89.8786
Neighbor list builds = 495
Dangerous builds not checked
Setting up Verlet run ...
  Unit style    : metal
  Current step  : 42495
  Time step     : 0.001
Per MPI rank memory allocation (min/avg/max) = 18.95 | 18.95 | 18.95 Mbytes
Step Temp Press TotEng PotEng Enthalpy 
   42495    2347.7852   -1604.6614   -70038.977   -76002.565   -70289.014 
   44000    2344.0997    1992.2642   -70122.813    -76077.04   -69813.364 
Loop time of 244.232 on 1 procs for 1505 steps with 19652 atoms

Performance: 0.532 ns/day, 45.078 hours/ns, 6.162 timesteps/s
100.0% CPU use with 1 MPI tasks x no OpenMP threads

MPI task timing breakdown:
Section |  min time  |  avg time  |  max time  |%varavg| %total
---------------------------------------------------------------
Pair    | 137.02     | 137.02     | 137.02     |   0.0 | 56.10
Neigh   | 99.891     | 99.891     | 99.891     |   0.0 | 40.90
Comm    | 3.1911     | 3.1911     | 3.1911     |   0.0 |  1.31
Output  | 0.04473    | 0.04473    | 0.04473    |   0.0 |  0.02
Modify  | 3.2966     | 3.2966     | 3.2966     |   0.0 |  1.35
Other   |            | 0.7836     |            |       |  0.32

Nlocal:    19652 ave 19652 max 19652 min
Histogram: 1 0 0 0 0 0 0 0 0 0
Nghost:    19732 ave 19732 max 19732 min
Histogram: 1 0 0 0 0 0 0 0 0 0
Neighs:    1.77279e+06 ave 1.77279e+06 max 1.77279e+06 min
Histogram: 1 0 0 0 0 0 0 0 0 0

Total # of neighbors = 1772791
Ave neighs/atom = 90.2092
Neighbor list builds = 1505
Dangerous builds not checked
Setting up Verlet run ...
  Unit style    : metal
  Current step  : 44000
  Time step     : 0.001
Per MPI rank memory allocation (min/avg/max) = 18.95 | 18.95 | 18.95 Mbytes
Step Temp Press TotEng PotEng Enthalpy 
   44000    2344.0997    1992.2642   -70122.813    -76077.04   -69813.364 
   44495    2323.5078    1408.3458   -70329.817   -76231.739   -70111.578 
Loop time of 82.4147 on 1 procs for 495 steps with 19652 atoms

Performance: 0.519 ns/day, 46.248 hours/ns, 6.006 timesteps/s
100.0% CPU use with 1 MPI tasks x no OpenMP threads

MPI task timing breakdown:
Section |  min time  |  avg time  |  max time  |%varavg| %total
---------------------------------------------------------------
Pair    | 45.936     | 45.936     | 45.936     |   0.0 | 55.74
Neigh   | 33.789     | 33.789     | 33.789     |   0.0 | 41.00
Comm    | 1.1844     | 1.1844     | 1.1844     |   0.0 |  1.44
Output  | 0.00029492 | 0.00029492 | 0.00029492 |   0.0 |  0.00
Modify  | 1.2159     | 1.2159     | 1.2159     |   0.0 |  1.48
Other   |            | 0.2883     |            |       |  0.35

Nlocal:    19652 ave 19652 max 19652 min
Histogram: 1 0 0 0 0 0 0 0 0 0
Nghost:    19759 ave 19759 max 19759 min
Histogram: 1 0 0 0 0 0 0 0 0 0
Neighs:    1.77581e+06 ave 1.77581e+06 max 1.77581e+06 min
Histogram: 1 0 0 0 0 0 0 0 0 0

Total # of neighbors = 1775808
Ave neighs/atom = 90.3627
Neighbor list builds = 495
Dangerous builds not checked
Setting up Verlet run ...
  Unit style    : metal
  Current step  : 44495
  Time step     : 0.001
Per MPI rank memory allocation (min/avg/max) = 18.95 | 18.95 | 18.95 Mbytes
Step Temp Press TotEng PotEng Enthalpy 
   44495    2323.5078    1408.3458   -70329.817   -76231.739   -70111.578 
   46000    2277.3563   -1034.7961    -70482.88   -76267.572   -70643.424 
Loop time of 240.849 on 1 procs for 1505 steps with 19652 atoms

Performance: 0.540 ns/day, 44.453 hours/ns, 6.249 timesteps/s
100.0% CPU use with 1 MPI tasks x no OpenMP threads

MPI task timing breakdown:
Section |  min time  |  avg time  |  max time  |%varavg| %total
---------------------------------------------------------------
Pair    | 134.99     | 134.99     | 134.99     |   0.0 | 56.05
Neigh   | 99.116     | 99.116     | 99.116     |   0.0 | 41.15
Comm    | 2.8566     | 2.8566     | 2.8566     |   0.0 |  1.19
Output  | 0.042802   | 0.042802   | 0.042802   |   0.0 |  0.02
Modify  | 3.0698     | 3.0698     | 3.0698     |   0.0 |  1.27
Other   |            | 0.7768     |            |       |  0.32

Nlocal:    19652 ave 19652 max 19652 min
Histogram: 1 0 0 0 0 0 0 0 0 0
Nghost:    19756 ave 19756 max 19756 min
Histogram: 1 0 0 0 0 0 0 0 0 0
Neighs:    1.77374e+06 ave 1.77374e+06 max 1.77374e+06 min
Histogram: 1 0 0 0 0 0 0 0 0 0

Total # of neighbors = 1773740
Ave neighs/atom = 90.2575
Neighbor list builds = 1505
Dangerous builds not checked
Setting up Verlet run ...
  Unit style    : metal
  Current step  : 46000
  Time step     : 0.001
Per MPI rank memory allocation (min/avg/max) = 18.95 | 18.95 | 18.95 Mbytes
Step Temp Press TotEng PotEng Enthalpy 
   46000    2277.3563   -1034.7961    -70482.88   -76267.572   -70643.424 
   46495    2266.6838   -157.55122   -70626.342   -76383.925   -70650.732 
Loop time of 82.3215 on 1 procs for 495 steps with 19652 atoms

Performance: 0.520 ns/day, 46.196 hours/ns, 6.013 timesteps/s
100.0% CPU use with 1 MPI tasks x no OpenMP threads

MPI task timing breakdown:
Section |  min time  |  avg time  |  max time  |%varavg| %total
---------------------------------------------------------------
Pair    | 46.366     | 46.366     | 46.366     |   0.0 | 56.32
Neigh   | 33.611     | 33.611     | 33.611     |   0.0 | 40.83
Comm    | 1.0072     | 1.0072     | 1.0072     |   0.0 |  1.22
Output  | 0.00019503 | 0.00019503 | 0.00019503 |   0.0 |  0.00
Modify  | 1.0803     | 1.0803     | 1.0803     |   0.0 |  1.31
Other   |            | 0.2565     |            |       |  0.31

Nlocal:    19652 ave 19652 max 19652 min
Histogram: 1 0 0 0 0 0 0 0 0 0
Nghost:    19813 ave 19813 max 19813 min
Histogram: 1 0 0 0 0 0 0 0 0 0
Neighs:    1.7782e+06 ave 1.7782e+06 max 1.7782e+06 min
Histogram: 1 0 0 0 0 0 0 0 0 0

Total # of neighbors = 1778198
Ave neighs/atom = 90.4843
Neighbor list builds = 495
Dangerous builds not checked
Setting up Verlet run ...
  Unit style    : metal
  Current step  : 46495
  Time step     : 0.001
Per MPI rank memory allocation (min/avg/max) = 18.95 | 18.95 | 18.95 Mbytes
Step Temp Press TotEng PotEng Enthalpy 
   46495    2266.6838   -157.55122   -70626.342   -76383.925   -70650.732 
   48000    2239.0932    211.70369   -70878.119    -76565.62   -70845.447 
Loop time of 249.562 on 1 procs for 1505 steps with 19652 atoms

Performance: 0.521 ns/day, 46.062 hours/ns, 6.031 timesteps/s
100.0% CPU use with 1 MPI tasks x no OpenMP threads

MPI task timing breakdown:
Section |  min time  |  avg time  |  max time  |%varavg| %total
---------------------------------------------------------------
Pair    | 140.43     | 140.43     | 140.43     |   0.0 | 56.27
Neigh   | 101.87     | 101.87     | 101.87     |   0.0 | 40.82
Comm    | 3.1466     | 3.1466     | 3.1466     |   0.0 |  1.26
Output  | 0.042955   | 0.042955   | 0.042955   |   0.0 |  0.02
Modify  | 3.2776     | 3.2776     | 3.2776     |   0.0 |  1.31
Other   |            | 0.7897     |            |       |  0.32

Nlocal:    19652 ave 19652 max 19652 min
Histogram: 1 0 0 0 0 0 0 0 0 0
Nghost:    19783 ave 19783 max 19783 min
Histogram: 1 0 0 0 0 0 0 0 0 0
Neighs:    1.78271e+06 ave 1.78271e+06 max 1.78271e+06 min
Histogram: 1 0 0 0 0 0 0 0 0 0

Total # of neighbors = 1782710
Ave neighs/atom = 90.7139
Neighbor list builds = 1505
Dangerous builds not checked
Setting up Verlet run ...
  Unit style    : metal
  Current step  : 48000
  Time step     : 0.001
Per MPI rank memory allocation (min/avg/max) = 18.95 | 18.95 | 18.95 Mbytes
Step Temp Press TotEng PotEng Enthalpy 
   48000    2239.0932    211.70369   -70878.119    -76565.62   -70845.447 
   48495     2229.721    -349.9182   -70912.414   -76576.109   -70966.405 
Loop time of 82.8628 on 1 procs for 495 steps with 19652 atoms

Performance: 0.516 ns/day, 46.500 hours/ns, 5.974 timesteps/s
100.1% CPU use with 1 MPI tasks x no OpenMP threads

MPI task timing breakdown:
Section |  min time  |  avg time  |  max time  |%varavg| %total
---------------------------------------------------------------
Pair    | 46.391     | 46.391     | 46.391     |   0.0 | 55.99
Neigh   | 33.941     | 33.941     | 33.941     |   0.0 | 40.96
Comm    | 1.1133     | 1.1133     | 1.1133     |   0.0 |  1.34
Output  | 0.00021386 | 0.00021386 | 0.00021386 |   0.0 |  0.00
Modify  | 1.1524     | 1.1524     | 1.1524     |   0.0 |  1.39
Other   |            | 0.2649     |            |       |  0.32

Nlocal:    19652 ave 19652 max 19652 min
Histogram: 1 0 0 0 0 0 0 0 0 0
Nghost:    19759 ave 19759 max 19759 min
Histogram: 1 0 0 0 0 0 0 0 0 0
Neighs:    1.78369e+06 ave 1.78369e+06 max 1.78369e+06 min
Histogram: 1 0 0 0 0 0 0 0 0 0

Total # of neighbors = 1783687
Ave neighs/atom = 90.7636
Neighbor list builds = 495
Dangerous builds not checked
Setting up Verlet run ...
  Unit style    : metal
  Current step  : 48495
  Time step     : 0.001
Per MPI rank memory allocation (min/avg/max) = 18.95 | 18.95 | 18.95 Mbytes
Step Temp Press TotEng PotEng Enthalpy 
   48495     2229.721    -349.9182   -70912.414   -76576.109   -70966.405 
   50000    2196.0523    4406.2201   -71061.939   -76640.112   -70384.396 
Loop time of 248.721 on 1 procs for 1505 steps with 19652 atoms

Performance: 0.523 ns/day, 45.906 hours/ns, 6.051 timesteps/s
99.9% CPU use with 1 MPI tasks x no OpenMP threads

MPI task timing breakdown:
Section |  min time  |  avg time  |  max time  |%varavg| %total
---------------------------------------------------------------
Pair    | 139.26     | 139.26     | 139.26     |   0.0 | 55.99
Neigh   | 102.63     | 102.63     | 102.63     |   0.0 | 41.26
Comm    | 2.8921     | 2.8921     | 2.8921     |   0.0 |  1.16
Output  | 0.042035   | 0.042035   | 0.042035   |   0.0 |  0.02
Modify  | 3.147      | 3.147      | 3.147      |   0.0 |  1.27
Other   |            | 0.7498     |            |       |  0.30

Nlocal:    19652 ave 19652 max 19652 min
Histogram: 1 0 0 0 0 0 0 0 0 0
Nghost:    19777 ave 19777 max 19777 min
Histogram: 1 0 0 0 0 0 0 0 0 0
Neighs:    1.78931e+06 ave 1.78931e+06 max 1.78931e+06 min
Histogram: 1 0 0 0 0 0 0 0 0 0

Total # of neighbors = 1789311
Ave neighs/atom = 91.0498
Neighbor list builds = 1505
Dangerous builds not checked
Setting up Verlet run ...
  Unit style    : metal
  Current step  : 50000
  Time step     : 0.001
Per MPI rank memory allocation (min/avg/max) = 18.95 | 18.95 | 18.95 Mbytes
Step Temp Press TotEng PotEng Enthalpy 
   50000    2196.0523    4406.2201   -71061.939   -76640.112   -70384.396 
   50495    2191.6984    1364.5948   -71266.918   -76834.032    -71057.28 
Loop time of 82.0556 on 1 procs for 495 steps with 19652 atoms

Performance: 0.521 ns/day, 46.047 hours/ns, 6.032 timesteps/s
99.9% CPU use with 1 MPI tasks x no OpenMP threads

MPI task timing breakdown:
Section |  min time  |  avg time  |  max time  |%varavg| %total
---------------------------------------------------------------
Pair    | 45.635     | 45.635     | 45.635     |   0.0 | 55.62
Neigh   | 34.241     | 34.241     | 34.241     |   0.0 | 41.73
Comm    | 0.91547    | 0.91547    | 0.91547    |   0.0 |  1.12
Output  | 0.00019002 | 0.00019002 | 0.00019002 |   0.0 |  0.00
Modify  | 1.0232     | 1.0232     | 1.0232     |   0.0 |  1.25
Other   |            | 0.2404     |            |       |  0.29

Nlocal:    19652 ave 19652 max 19652 min
Histogram: 1 0 0 0 0 0 0 0 0 0
Nghost:    19953 ave 19953 max 19953 min
Histogram: 1 0 0 0 0 0 0 0 0 0
Neighs:    1.79032e+06 ave 1.79032e+06 max 1.79032e+06 min
Histogram: 1 0 0 0 0 0 0 0 0 0

Total # of neighbors = 1790321
Ave neighs/atom = 91.1012
Neighbor list builds = 495
Dangerous builds not checked
Setting up Verlet run ...
  Unit style    : metal
  Current step  : 50495
  Time step     : 0.001
Per MPI rank memory allocation (min/avg/max) = 18.95 | 18.95 | 18.95 Mbytes
Step Temp Press TotEng PotEng Enthalpy 
   50495    2191.6984    1364.5948   -71266.918   -76834.032    -71057.28 
   52000    2138.7681   -444.28563   -71428.175   -76860.841   -71496.435 
Loop time of 249.69 on 1 procs for 1505 steps with 19652 atoms

Performance: 0.521 ns/day, 46.085 hours/ns, 6.027 timesteps/s
100.0% CPU use with 1 MPI tasks x no OpenMP threads

MPI task timing breakdown:
Section |  min time  |  avg time  |  max time  |%varavg| %total
---------------------------------------------------------------
Pair    | 140.02     | 140.02     | 140.02     |   0.0 | 56.08
Neigh   | 102.88     | 102.88     | 102.88     |   0.0 | 41.20
Comm    | 2.8473     | 2.8473     | 2.8473     |   0.0 |  1.14
Output  | 0.042032   | 0.042032   | 0.042032   |   0.0 |  0.02
Modify  | 3.1344     | 3.1344     | 3.1344     |   0.0 |  1.26
Other   |            | 0.7656     |            |       |  0.31

Nlocal:    19652 ave 19652 max 19652 min
Histogram: 1 0 0 0 0 0 0 0 0 0
Nghost:    19767 ave 19767 max 19767 min
Histogram: 1 0 0 0 0 0 0 0 0 0
Neighs:    1.79022e+06 ave 1.79022e+06 max 1.79022e+06 min
Histogram: 1 0 0 0 0 0 0 0 0 0

Total # of neighbors = 1790216
Ave neighs/atom = 91.0959
Neighbor list builds = 1505
Dangerous builds not checked
Setting up Verlet run ...
  Unit style    : metal
  Current step  : 52000
  Time step     : 0.001
Per MPI rank memory allocation (min/avg/max) = 18.95 | 18.95 | 18.95 Mbytes
Step Temp Press TotEng PotEng Enthalpy 
   52000    2138.7681   -444.28563   -71428.175   -76860.841   -71496.435 
   52495    2107.2788    2712.9466   -71674.101   -77026.781    -71258.94 
Loop time of 78.8223 on 1 procs for 495 steps with 19652 atoms

Performance: 0.543 ns/day, 44.232 hours/ns, 6.280 timesteps/s
99.9% CPU use with 1 MPI tasks x no OpenMP threads

MPI task timing breakdown:
Section |  min time  |  avg time  |  max time  |%varavg| %total
---------------------------------------------------------------
Pair    | 44.023     | 44.023     | 44.023     |   0.0 | 55.85
Neigh   | 32.522     | 32.522     | 32.522     |   0.0 | 41.26
Comm    | 0.97976    | 0.97976    | 0.97976    |   0.0 |  1.24
Output  | 0.00022483 | 0.00022483 | 0.00022483 |   0.0 |  0.00
Modify  | 1.0438     | 1.0438     | 1.0438     |   0.0 |  1.32
Other   |            | 0.2535     |            |       |  0.32

Nlocal:    19652 ave 19652 max 19652 min
Histogram: 1 0 0 0 0 0 0 0 0 0
Nghost:    19840 ave 19840 max 19840 min
Histogram: 1 0 0 0 0 0 0 0 0 0
Neighs:    1.79703e+06 ave 1.79703e+06 max 1.79703e+06 min
Histogram: 1 0 0 0 0 0 0 0 0 0

Total # of neighbors = 1797030
Ave neighs/atom = 91.4426
Neighbor list builds = 495
Dangerous builds not checked
Setting up Verlet run ...
  Unit style    : metal
  Current step  : 52495
  Time step     : 0.001
Per MPI rank memory allocation (min/avg/max) = 18.95 | 18.95 | 18.95 Mbytes
Step Temp Press TotEng PotEng Enthalpy 
   52495    2107.2788    2712.9466   -71674.101   -77026.781    -71258.94 
   54000    2089.8337   -2480.0076   -71753.989   -77062.357   -72134.254 
Loop time of 248.854 on 1 procs for 1505 steps with 19652 atoms

Performance: 0.523 ns/day, 45.931 hours/ns, 6.048 timesteps/s
100.0% CPU use with 1 MPI tasks x no OpenMP threads

MPI task timing breakdown:
Section |  min time  |  avg time  |  max time  |%varavg| %total
---------------------------------------------------------------
Pair    | 138.13     | 138.13     | 138.13     |   0.0 | 55.50
Neigh   | 103.48     | 103.48     | 103.48     |   0.0 | 41.58
Comm    | 3.1291     | 3.1291     | 3.1291     |   0.0 |  1.26
Output  | 0.089067   | 0.089067   | 0.089067   |   0.0 |  0.04
Modify  | 3.2723     | 3.2723     | 3.2723     |   0.0 |  1.31
Other   |            | 0.7594     |            |       |  0.31

Nlocal:    19652 ave 19652 max 19652 min
Histogram: 1 0 0 0 0 0 0 0 0 0
Nghost:    19779 ave 19779 max 19779 min
Histogram: 1 0 0 0 0 0 0 0 0 0
Neighs:    1.79377e+06 ave 1.79377e+06 max 1.79377e+06 min
Histogram: 1 0 0 0 0 0 0 0 0 0

Total # of neighbors = 1793771
Ave neighs/atom = 91.2768
Neighbor list builds = 1505
Dangerous builds not checked
Setting up Verlet run ...
  Unit style    : metal
  Current step  : 54000
  Time step     : 0.001
Per MPI rank memory allocation (min/avg/max) = 18.95 | 18.95 | 18.95 Mbytes
Step Temp Press TotEng PotEng Enthalpy 
   54000    2089.8337   -2480.0076   -71753.989   -77062.357   -72134.254 
   54495    2065.1185   -1385.6119   -71982.073   -77227.662   -72193.917 
Loop time of 82.8622 on 1 procs for 495 steps with 19652 atoms

Performance: 0.516 ns/day, 46.500 hours/ns, 5.974 timesteps/s
100.1% CPU use with 1 MPI tasks x no OpenMP threads

MPI task timing breakdown:
Section |  min time  |  avg time  |  max time  |%varavg| %total
---------------------------------------------------------------
Pair    | 46.083     | 46.083     | 46.083     |   0.0 | 55.61
Neigh   | 34.96      | 34.96      | 34.96      |   0.0 | 42.19
Comm    | 0.70841    | 0.70841    | 0.70841    |   0.0 |  0.85
Output  | 0.00014305 | 0.00014305 | 0.00014305 |   0.0 |  0.00
Modify  | 0.89054    | 0.89054    | 0.89054    |   0.0 |  1.07
Other   |            | 0.2203     |            |       |  0.27

Nlocal:    19652 ave 19652 max 19652 min
Histogram: 1 0 0 0 0 0 0 0 0 0
Nghost:    19924 ave 19924 max 19924 min
Histogram: 1 0 0 0 0 0 0 0 0 0
Neighs:    1.79823e+06 ave 1.79823e+06 max 1.79823e+06 min
Histogram: 1 0 0 0 0 0 0 0 0 0

Total # of neighbors = 1798233
Ave neighs/atom = 91.5038
Neighbor list builds = 495
Dangerous builds not checked
Setting up Verlet run ...
  Unit style    : metal
  Current step  : 54495
  Time step     : 0.001
Per MPI rank memory allocation (min/avg/max) = 18.95 | 18.95 | 18.95 Mbytes
Step Temp Press TotEng PotEng Enthalpy 
   54495    2065.1185   -1385.6119   -71982.073   -77227.662   -72193.917 
   56000    2049.0287    1012.6275   -72102.065   -77306.784   -71947.683 
Loop time of 276.856 on 1 procs for 1505 steps with 19652 atoms

Performance: 0.470 ns/day, 51.099 hours/ns, 5.436 timesteps/s
99.7% CPU use with 1 MPI tasks x no OpenMP threads

MPI task timing breakdown:
Section |  min time  |  avg time  |  max time  |%varavg| %total
---------------------------------------------------------------
Pair    | 154.88     | 154.88     | 154.88     |   0.0 | 55.94
Neigh   | 115.65     | 115.65     | 115.65     |   0.0 | 41.77
Comm    | 2.5245     | 2.5245     | 2.5245     |   0.0 |  0.91
Output  | 0.042194   | 0.042194   | 0.042194   |   0.0 |  0.02
Modify  | 3.0241     | 3.0241     | 3.0241     |   0.0 |  1.09
Other   |            | 0.7347     |            |       |  0.27

Nlocal:    19652 ave 19652 max 19652 min
Histogram: 1 0 0 0 0 0 0 0 0 0
Nghost:    19939 ave 19939 max 19939 min
Histogram: 1 0 0 0 0 0 0 0 0 0
Neighs:    1.80401e+06 ave 1.80401e+06 max 1.80401e+06 min
Histogram: 1 0 0 0 0 0 0 0 0 0

Total # of neighbors = 1804008
Ave neighs/atom = 91.7977
Neighbor list builds = 1505
Dangerous builds not checked
Setting up Verlet run ...
  Unit style    : metal
  Current step  : 56000
  Time step     : 0.001
Per MPI rank memory allocation (min/avg/max) = 18.95 | 18.95 | 18.95 Mbytes
Step Temp Press TotEng PotEng Enthalpy 
   56000    2049.0287    1012.6275   -72102.065   -77306.784   -71947.683 
   56495    2012.0387     984.0404   -72348.659   -77459.421    -72199.01 
Loop time of 97.5773 on 1 procs for 495 steps with 19652 atoms

Performance: 0.438 ns/day, 54.757 hours/ns, 5.073 timesteps/s
99.9% CPU use with 1 MPI tasks x no OpenMP threads

MPI task timing breakdown:
Section |  min time  |  avg time  |  max time  |%varavg| %total
---------------------------------------------------------------
Pair    | 55.241     | 55.241     | 55.241     |   0.0 | 56.61
Neigh   | 39.311     | 39.311     | 39.311     |   0.0 | 40.29
Comm    | 1.3262     | 1.3262     | 1.3262     |   0.0 |  1.36
Output  | 0.000175   | 0.000175   | 0.000175   |   0.0 |  0.00
Modify  | 1.3878     | 1.3878     | 1.3878     |   0.0 |  1.42
Other   |            | 0.311      |            |       |  0.32

Nlocal:    19652 ave 19652 max 19652 min
Histogram: 1 0 0 0 0 0 0 0 0 0
Nghost:    19934 ave 19934 max 19934 min
Histogram: 1 0 0 0 0 0 0 0 0 0
Neighs:    1.80746e+06 ave 1.80746e+06 max 1.80746e+06 min
Histogram: 1 0 0 0 0 0 0 0 0 0

Total # of neighbors = 1807457
Ave neighs/atom = 91.9732
Neighbor list builds = 495
Dangerous builds not checked
Setting up Verlet run ...
  Unit style    : metal
  Current step  : 56495
  Time step     : 0.001
Per MPI rank memory allocation (min/avg/max) = 18.95 | 18.95 | 18.95 Mbytes
Step Temp Press TotEng PotEng Enthalpy 
   56495    2012.0387     984.0404   -72348.659   -77459.421    -72199.01 
   58000    1987.6198   -806.18157   -72393.712   -77442.447   -72516.532 
Loop time of 268.261 on 1 procs for 1505 steps with 19652 atoms

Performance: 0.485 ns/day, 49.513 hours/ns, 5.610 timesteps/s
100.0% CPU use with 1 MPI tasks x no OpenMP threads

MPI task timing breakdown:
Section |  min time  |  avg time  |  max time  |%varavg| %total
---------------------------------------------------------------
Pair    | 151.14     | 151.14     | 151.14     |   0.0 | 56.34
Neigh   | 108.95     | 108.95     | 108.95     |   0.0 | 40.61
Comm    | 3.5905     | 3.5905     | 3.5905     |   0.0 |  1.34
Output  | 0.043035   | 0.043035   | 0.043035   |   0.0 |  0.02
Modify  | 3.6875     | 3.6875     | 3.6875     |   0.0 |  1.37
Other   |            | 0.8512     |            |       |  0.32

Nlocal:    19652 ave 19652 max 19652 min
Histogram: 1 0 0 0 0 0 0 0 0 0
Nghost:    19914 ave 19914 max 19914 min
Histogram: 1 0 0 0 0 0 0 0 0 0
Neighs:    1.80462e+06 ave 1.80462e+06 max 1.80462e+06 min
Histogram: 1 0 0 0 0 0 0 0 0 0

Total # of neighbors = 1804621
Ave neighs/atom = 91.8289
Neighbor list builds = 1505
Dangerous builds not checked
Setting up Verlet run ...
  Unit style    : metal
  Current step  : 58000
  Time step     : 0.001
Per MPI rank memory allocation (min/avg/max) = 18.95 | 18.95 | 18.95 Mbytes
Step Temp Press TotEng PotEng Enthalpy 
   58000    1987.6198   -806.18157   -72393.712   -77442.447   -72516.532 
   58495    1965.3835    176.75406   -72628.179   -77620.432   -72601.341 
Loop time of 88.9853 on 1 procs for 495 steps with 19652 atoms

Performance: 0.481 ns/day, 49.936 hours/ns, 5.563 timesteps/s
100.0% CPU use with 1 MPI tasks x no OpenMP threads

MPI task timing breakdown:
Section |  min time  |  avg time  |  max time  |%varavg| %total
---------------------------------------------------------------
Pair    | 50.117     | 50.117     | 50.117     |   0.0 | 56.32
Neigh   | 36.473     | 36.473     | 36.473     |   0.0 | 40.99
Comm    | 1.0153     | 1.0153     | 1.0153     |   0.0 |  1.14
Output  | 0.00016403 | 0.00016403 | 0.00016403 |   0.0 |  0.00
Modify  | 1.1121     | 1.1121     | 1.1121     |   0.0 |  1.25
Other   |            | 0.2677     |            |       |  0.30

Nlocal:    19652 ave 19652 max 19652 min
Histogram: 1 0 0 0 0 0 0 0 0 0
Nghost:    19968 ave 19968 max 19968 min
Histogram: 1 0 0 0 0 0 0 0 0 0
Neighs:    1.80993e+06 ave 1.80993e+06 max 1.80993e+06 min
Histogram: 1 0 0 0 0 0 0 0 0 0

Total # of neighbors = 1809934
Ave neighs/atom = 92.0992
Neighbor list builds = 495
Dangerous builds not checked
Setting up Verlet run ...
  Unit style    : metal
  Current step  : 58495
  Time step     : 0.001
Per MPI rank memory allocation (min/avg/max) = 18.95 | 18.95 | 18.95 Mbytes
Step Temp Press TotEng PotEng Enthalpy 
   58495    1965.3835    176.75406   -72628.179   -77620.432   -72601.341 
   60000    1943.8886    3149.4499   -72764.966    -77702.62   -72288.151 
Loop time of 265.437 on 1 procs for 1505 steps with 19652 atoms

Performance: 0.490 ns/day, 48.992 hours/ns, 5.670 timesteps/s
99.8% CPU use with 1 MPI tasks x no OpenMP threads

MPI task timing breakdown:
Section |  min time  |  avg time  |  max time  |%varavg| %total
---------------------------------------------------------------
Pair    | 149.36     | 149.36     | 149.36     |   0.0 | 56.27
Neigh   | 109.24     | 109.24     | 109.24     |   0.0 | 41.15
Comm    | 2.6294     | 2.6294     | 2.6294     |   0.0 |  0.99
Output  | 0.36057    | 0.36057    | 0.36057    |   0.0 |  0.14
Modify  | 3.0667     | 3.0667     | 3.0667     |   0.0 |  1.16
Other   |            | 0.7855     |            |       |  0.30

Nlocal:    19652 ave 19652 max 19652 min
Histogram: 1 0 0 0 0 0 0 0 0 0
Nghost:    19883 ave 19883 max 19883 min
Histogram: 1 0 0 0 0 0 0 0 0 0
Neighs:    1.81534e+06 ave 1.81534e+06 max 1.81534e+06 min
Histogram: 1 0 0 0 0 0 0 0 0 0

Total # of neighbors = 1815343
Ave neighs/atom = 92.3745
Neighbor list builds = 1505
Dangerous builds not checked
Setting up Verlet run ...
  Unit style    : metal
  Current step  : 60000
  Time step     : 0.001
Per MPI rank memory allocation (min/avg/max) = 18.95 | 18.95 | 18.95 Mbytes
Step Temp Press TotEng PotEng Enthalpy 
   60000    1943.8886    3149.4499   -72764.966    -77702.62   -72288.151 
   60495    1913.4372    1586.4829   -72979.285   -77839.589   -72739.381 
Loop time of 78.335 on 1 procs for 495 steps with 19652 atoms

Performance: 0.546 ns/day, 43.959 hours/ns, 6.319 timesteps/s
100.0% CPU use with 1 MPI tasks x no OpenMP threads

MPI task timing breakdown:
Section |  min time  |  avg time  |  max time  |%varavg| %total
---------------------------------------------------------------
Pair    | 43.711     | 43.711     | 43.711     |   0.0 | 55.80
Neigh   | 32.965     | 32.965     | 32.965     |   0.0 | 42.08
Comm    | 0.63985    | 0.63985    | 0.63985    |   0.0 |  0.82
Output  | 0.000139   | 0.000139   | 0.000139   |   0.0 |  0.00
Modify  | 0.81595    | 0.81595    | 0.81595    |   0.0 |  1.04
Other   |            | 0.2031     |            |       |  0.26

Nlocal:    19652 ave 19652 max 19652 min
Histogram: 1 0 0 0 0 0 0 0 0 0
Nghost:    19959 ave 19959 max 19959 min
Histogram: 1 0 0 0 0 0 0 0 0 0
Neighs:    1.81727e+06 ave 1.81727e+06 max 1.81727e+06 min
Histogram: 1 0 0 0 0 0 0 0 0 0

Total # of neighbors = 1817274
Ave neighs/atom = 92.4727
Neighbor list builds = 495
Dangerous builds not checked
Setting up Verlet run ...
  Unit style    : metal
  Current step  : 60495
  Time step     : 0.001
Per MPI rank memory allocation (min/avg/max) = 18.95 | 18.95 | 18.95 Mbytes
Step Temp Press TotEng PotEng Enthalpy 
   60495    1913.4372    1586.4829   -72979.285   -77839.589   -72739.381 
   62000    1909.1283    684.08946   -73022.862   -77872.222   -72919.426 
Loop time of 274.67 on 1 procs for 1505 steps with 19652 atoms

Performance: 0.473 ns/day, 50.696 hours/ns, 5.479 timesteps/s
99.9% CPU use with 1 MPI tasks x no OpenMP threads

MPI task timing breakdown:
Section |  min time  |  avg time  |  max time  |%varavg| %total
---------------------------------------------------------------
Pair    | 154.43     | 154.43     | 154.43     |   0.0 | 56.22
Neigh   | 113.61     | 113.61     | 113.61     |   0.0 | 41.36
Comm    | 2.7056     | 2.7056     | 2.7056     |   0.0 |  0.99
Output  | 0.042402   | 0.042402   | 0.042402   |   0.0 |  0.02
Modify  | 3.1193     | 3.1193     | 3.1193     |   0.0 |  1.14
Other   |            | 0.7623     |            |       |  0.28

Nlocal:    19652 ave 19652 max 19652 min
Histogram: 1 0 0 0 0 0 0 0 0 0
Nghost:    19969 ave 19969 max 19969 min
Histogram: 1 0 0 0 0 0 0 0 0 0
Neighs:    1.81654e+06 ave 1.81654e+06 max 1.81654e+06 min
Histogram: 1 0 0 0 0 0 0 0 0 0

Total # of neighbors = 1816537
Ave neighs/atom = 92.4352
Neighbor list builds = 1505
Dangerous builds not checked
Setting up Verlet run ...
  Unit style    : metal
  Current step  : 62000
  Time step     : 0.001
Per MPI rank memory allocation (min/avg/max) = 18.95 | 18.95 | 18.95 Mbytes
Step Temp Press TotEng PotEng Enthalpy 
   62000    1909.1283    684.08946   -73022.862   -77872.222   -72919.426 
   62495    1874.4045   -454.98894   -73313.268   -78074.426   -73381.912 
Loop time of 83.8005 on 1 procs for 495 steps with 19652 atoms

Performance: 0.510 ns/day, 47.026 hours/ns, 5.907 timesteps/s
100.0% CPU use with 1 MPI tasks x no OpenMP threads

MPI task timing breakdown:
Section |  min time  |  avg time  |  max time  |%varavg| %total
---------------------------------------------------------------
Pair    | 47.234     | 47.234     | 47.234     |   0.0 | 56.36
Neigh   | 34.509     | 34.509     | 34.509     |   0.0 | 41.18
Comm    | 0.84217    | 0.84217    | 0.84217    |   0.0 |  1.00
Output  | 0.00021505 | 0.00021505 | 0.00021505 |   0.0 |  0.00
Modify  | 0.97363    | 0.97363    | 0.97363    |   0.0 |  1.16
Other   |            | 0.2414     |            |       |  0.29

Nlocal:    19652 ave 19652 max 19652 min
Histogram: 1 0 0 0 0 0 0 0 0 0
Nghost:    19958 ave 19958 max 19958 min
Histogram: 1 0 0 0 0 0 0 0 0 0
Neighs:    1.82054e+06 ave 1.82054e+06 max 1.82054e+06 min
Histogram: 1 0 0 0 0 0 0 0 0 0

Total # of neighbors = 1820543
Ave neighs/atom = 92.6391
Neighbor list builds = 495
Dangerous builds not checked
Setting up Verlet run ...
  Unit style    : metal
  Current step  : 62495
  Time step     : 0.001
Per MPI rank memory allocation (min/avg/max) = 18.95 | 18.95 | 18.95 Mbytes
Step Temp Press TotEng PotEng Enthalpy 
   62495    1874.4045   -454.98894   -73313.268   -78074.426   -73381.912 
   64000    1854.3147    1241.1382   -73435.014   -78145.142    -73248.16 
Loop time of 275.141 on 1 procs for 1505 steps with 19652 atoms

Performance: 0.473 ns/day, 50.783 hours/ns, 5.470 timesteps/s
100.0% CPU use with 1 MPI tasks x no OpenMP threads

MPI task timing breakdown:
Section |  min time  |  avg time  |  max time  |%varavg| %total
---------------------------------------------------------------
Pair    | 155.33     | 155.33     | 155.33     |   0.0 | 56.45
Neigh   | 111.99     | 111.99     | 111.99     |   0.0 | 40.70
Comm    | 3.332      | 3.332      | 3.332      |   0.0 |  1.21
Output  | 0.042309   | 0.042309   | 0.042309   |   0.0 |  0.02
Modify  | 3.5945     | 3.5945     | 3.5945     |   0.0 |  1.31
Other   |            | 0.8588     |            |       |  0.31

Nlocal:    19652 ave 19652 max 19652 min
Histogram: 1 0 0 0 0 0 0 0 0 0
Nghost:    19985 ave 19985 max 19985 min
Histogram: 1 0 0 0 0 0 0 0 0 0
Neighs:    1.82394e+06 ave 1.82394e+06 max 1.82394e+06 min
Histogram: 1 0 0 0 0 0 0 0 0 0

Total # of neighbors = 1823937
Ave neighs/atom = 92.8118
Neighbor list builds = 1505
Dangerous builds not checked
Setting up Verlet run ...
  Unit style    : metal
  Current step  : 64000
  Time step     : 0.001
Per MPI rank memory allocation (min/avg/max) = 18.95 | 18.95 | 18.95 Mbytes
Step Temp Press TotEng PotEng Enthalpy 
   64000    1854.3147    1241.1382   -73435.014   -78145.142    -73248.16 
   64495    1801.1274   -1064.2499   -73651.325   -78226.352   -73811.505 
Loop time of 83.3574 on 1 procs for 495 steps with 19652 atoms

Performance: 0.513 ns/day, 46.777 hours/ns, 5.938 timesteps/s
100.0% CPU use with 1 MPI tasks x no OpenMP threads

MPI task timing breakdown:
Section |  min time  |  avg time  |  max time  |%varavg| %total
---------------------------------------------------------------
Pair    | 46.92      | 46.92      | 46.92      |   0.0 | 56.29
Neigh   | 33.808     | 33.808     | 33.808     |   0.0 | 40.56
Comm    | 1.1519     | 1.1519     | 1.1519     |   0.0 |  1.38
Output  | 0.00023007 | 0.00023007 | 0.00023007 |   0.0 |  0.00
Modify  | 1.1987     | 1.1987     | 1.1987     |   0.0 |  1.44
Other   |            | 0.2781     |            |       |  0.33

Nlocal:    19652 ave 19652 max 19652 min
Histogram: 1 0 0 0 0 0 0 0 0 0
Nghost:    20100 ave 20100 max 20100 min
Histogram: 1 0 0 0 0 0 0 0 0 0
Neighs:    1.82448e+06 ave 1.82448e+06 max 1.82448e+06 min
Histogram: 1 0 0 0 0 0 0 0 0 0

Total # of neighbors = 1824484
Ave neighs/atom = 92.8396
Neighbor list builds = 495
Dangerous builds not checked
Setting up Verlet run ...
  Unit style    : metal
  Current step  : 64495
  Time step     : 0.001
Per MPI rank memory allocation (min/avg/max) = 18.95 | 18.95 | 18.95 Mbytes
Step Temp Press TotEng PotEng Enthalpy 
   64495    1801.1274   -1064.2499   -73651.325   -78226.352   -73811.505 
   66000    1801.6877     1189.624   -73855.921   -78432.372   -73677.566 
Loop time of 277.766 on 1 procs for 1505 steps with 19652 atoms

Performance: 0.468 ns/day, 51.267 hours/ns, 5.418 timesteps/s
99.8% CPU use with 1 MPI tasks x no OpenMP threads

MPI task timing breakdown:
Section |  min time  |  avg time  |  max time  |%varavg| %total
---------------------------------------------------------------
Pair    | 156.63     | 156.63     | 156.63     |   0.0 | 56.39
Neigh   | 112.64     | 112.64     | 112.64     |   0.0 | 40.55
Comm    | 3.6325     | 3.6325     | 3.6325     |   0.0 |  1.31
Output  | 0.043474   | 0.043474   | 0.043474   |   0.0 |  0.02
Modify  | 3.8794     | 3.8794     | 3.8794     |   0.0 |  1.40
Other   |            | 0.9422     |            |       |  0.34

Nlocal:    19652 ave 19652 max 19652 min
Histogram: 1 0 0 0 0 0 0 0 0 0
Nghost:    20064 ave 20064 max 20064 min
Histogram: 1 0 0 0 0 0 0 0 0 0
Neighs:    1.8306e+06 ave 1.8306e+06 max 1.8306e+06 min
Histogram: 1 0 0 0 0 0 0 0 0 0

Total # of neighbors = 1830603
Ave neighs/atom = 93.151
Neighbor list builds = 1505
Dangerous builds not checked
Setting up Verlet run ...
  Unit style    : metal
  Current step  : 66000
  Time step     : 0.001
Per MPI rank memory allocation (min/avg/max) = 18.95 | 18.95 | 18.95 Mbytes
Step Temp Press TotEng PotEng Enthalpy 
   66000    1801.6877     1189.624   -73855.921   -78432.372   -73677.566 
   66495    1759.0169    1811.7632   -73991.494   -78459.557   -73720.052 
Loop time of 90.0592 on 1 procs for 495 steps with 19652 atoms

Performance: 0.475 ns/day, 50.538 hours/ns, 5.496 timesteps/s
100.0% CPU use with 1 MPI tasks x no OpenMP threads

MPI task timing breakdown:
Section |  min time  |  avg time  |  max time  |%varavg| %total
---------------------------------------------------------------
Pair    | 50.957     | 50.957     | 50.957     |   0.0 | 56.58
Neigh   | 36.52      | 36.52      | 36.52      |   0.0 | 40.55
Comm    | 1.1263     | 1.1263     | 1.1263     |   0.0 |  1.25
Output  | 0.00024414 | 0.00024414 | 0.00024414 |   0.0 |  0.00
Modify  | 1.1777     | 1.1777     | 1.1777     |   0.0 |  1.31
Other   |            | 0.2783     |            |       |  0.31

Nlocal:    19652 ave 19652 max 19652 min
Histogram: 1 0 0 0 0 0 0 0 0 0
Nghost:    19973 ave 19973 max 19973 min
Histogram: 1 0 0 0 0 0 0 0 0 0
Neighs:    1.83188e+06 ave 1.83188e+06 max 1.83188e+06 min
Histogram: 1 0 0 0 0 0 0 0 0 0

Total # of neighbors = 1831881
Ave neighs/atom = 93.216
Neighbor list builds = 495
Dangerous builds not checked
Setting up Verlet run ...
  Unit style    : metal
  Current step  : 66495
  Time step     : 0.001
Per MPI rank memory allocation (min/avg/max) = 18.95 | 18.95 | 18.95 Mbytes
Step Temp Press TotEng PotEng Enthalpy 
   66495    1759.0169    1811.7632   -73991.494   -78459.557   -73720.052 
   68000    1760.7129    2291.6782   -74116.487   -78588.858   -73773.885 
Loop time of 279.515 on 1 procs for 1505 steps with 19652 atoms

Performance: 0.465 ns/day, 51.590 hours/ns, 5.384 timesteps/s
100.0% CPU use with 1 MPI tasks x no OpenMP threads

MPI task timing breakdown:
Section |  min time  |  avg time  |  max time  |%varavg| %total
---------------------------------------------------------------
Pair    | 157.73     | 157.73     | 157.73     |   0.0 | 56.43
Neigh   | 114.34     | 114.34     | 114.34     |   0.0 | 40.91
Comm    | 3.1402     | 3.1402     | 3.1402     |   0.0 |  1.12
Output  | 0.048038   | 0.048038   | 0.048038   |   0.0 |  0.02
Modify  | 3.4315     | 3.4315     | 3.4315     |   0.0 |  1.23
Other   |            | 0.8258     |            |       |  0.30

Nlocal:    19652 ave 19652 max 19652 min
Histogram: 1 0 0 0 0 0 0 0 0 0
Nghost:    20009 ave 20009 max 20009 min
Histogram: 1 0 0 0 0 0 0 0 0 0
Neighs:    1.83572e+06 ave 1.83572e+06 max 1.83572e+06 min
Histogram: 1 0 0 0 0 0 0 0 0 0

Total # of neighbors = 1835718
Ave neighs/atom = 93.4113
Neighbor list builds = 1505
Dangerous builds not checked
Setting up Verlet run ...
  Unit style    : metal
  Current step  : 68000
  Time step     : 0.001
Per MPI rank memory allocation (min/avg/max) = 18.95 | 18.95 | 18.95 Mbytes
Step Temp Press TotEng PotEng Enthalpy 
   68000    1760.7129    2291.6782   -74116.487   -78588.858   -73773.885 
   68495    1716.4653    3.2928885    -74355.96   -78715.938   -74355.468 
Loop time of 87.0758 on 1 procs for 495 steps with 19652 atoms

Performance: 0.491 ns/day, 48.864 hours/ns, 5.685 timesteps/s
100.0% CPU use with 1 MPI tasks x no OpenMP threads

MPI task timing breakdown:
Section |  min time  |  avg time  |  max time  |%varavg| %total
---------------------------------------------------------------
Pair    | 49.088     | 49.088     | 49.088     |   0.0 | 56.37
Neigh   | 35.772     | 35.772     | 35.772     |   0.0 | 41.08
Comm    | 0.91118    | 0.91118    | 0.91118    |   0.0 |  1.05
Output  | 0.00015497 | 0.00015497 | 0.00015497 |   0.0 |  0.00
Modify  | 1.0494     | 1.0494     | 1.0494     |   0.0 |  1.21
Other   |            | 0.2547     |            |       |  0.29

Nlocal:    19652 ave 19652 max 19652 min
Histogram: 1 0 0 0 0 0 0 0 0 0
Nghost:    20083 ave 20083 max 20083 min
Histogram: 1 0 0 0 0 0 0 0 0 0
Neighs:    1.83636e+06 ave 1.83636e+06 max 1.83636e+06 min
Histogram: 1 0 0 0 0 0 0 0 0 0

Total # of neighbors = 1836360
Ave neighs/atom = 93.4439
Neighbor list builds = 495
Dangerous builds not checked
Setting up Verlet run ...
  Unit style    : metal
  Current step  : 68495
  Time step     : 0.001
Per MPI rank memory allocation (min/avg/max) = 18.95 | 18.95 | 18.95 Mbytes
Step Temp Press TotEng PotEng Enthalpy 
   68495    1716.4653    3.2928885    -74355.96   -78715.938   -74355.468 
   70000     1709.635    1484.4249    -74433.45   -78776.079   -74212.111 
Loop time of 269.14 on 1 procs for 1505 steps with 19652 atoms

Performance: 0.483 ns/day, 49.675 hours/ns, 5.592 timesteps/s
99.9% CPU use with 1 MPI tasks x no OpenMP threads

MPI task timing breakdown:
Section |  min time  |  avg time  |  max time  |%varavg| %total
---------------------------------------------------------------
Pair    | 152.35     | 152.35     | 152.35     |   0.0 | 56.61
Neigh   | 109.38     | 109.38     | 109.38     |   0.0 | 40.64
Comm    | 3.1068     | 3.1068     | 3.1068     |   0.0 |  1.15
Output  | 0.043901   | 0.043901   | 0.043901   |   0.0 |  0.02
Modify  | 3.423      | 3.423      | 3.423      |   0.0 |  1.27
Other   |            | 0.8313     |            |       |  0.31

Nlocal:    19652 ave 19652 max 19652 min
Histogram: 1 0 0 0 0 0 0 0 0 0
Nghost:    20011 ave 20011 max 20011 min
Histogram: 1 0 0 0 0 0 0 0 0 0
Neighs:    1.84045e+06 ave 1.84045e+06 max 1.84045e+06 min
Histogram: 1 0 0 0 0 0 0 0 0 0

Total # of neighbors = 1840454
Ave neighs/atom = 93.6522
Neighbor list builds = 1505
Dangerous builds not checked
Setting up Verlet run ...
  Unit style    : metal
  Current step  : 70000
  Time step     : 0.001
Per MPI rank memory allocation (min/avg/max) = 18.95 | 18.95 | 18.95 Mbytes
Step Temp Press TotEng PotEng Enthalpy 
   70000     1709.635    1484.4249    -74433.45   -78776.079   -74212.111 
   70495    1666.7624   -839.72664   -74674.625   -78908.353   -74799.762 
Loop time of 95.1359 on 1 procs for 495 steps with 19652 atoms

Performance: 0.450 ns/day, 53.387 hours/ns, 5.203 timesteps/s
99.9% CPU use with 1 MPI tasks x no OpenMP threads

MPI task timing breakdown:
Section |  min time  |  avg time  |  max time  |%varavg| %total
---------------------------------------------------------------
Pair    | 54.261     | 54.261     | 54.261     |   0.0 | 57.04
Neigh   | 37.889     | 37.889     | 37.889     |   0.0 | 39.83
Comm    | 1.3245     | 1.3245     | 1.3245     |   0.0 |  1.39
Output  | 0.00021219 | 0.00021219 | 0.00021219 |   0.0 |  0.00
Modify  | 1.3577     | 1.3577     | 1.3577     |   0.0 |  1.43
Other   |            | 0.3032     |            |       |  0.32

Nlocal:    19652 ave 19652 max 19652 min
Histogram: 1 0 0 0 0 0 0 0 0 0
Nghost:    20009 ave 20009 max 20009 min
Histogram: 1 0 0 0 0 0 0 0 0 0
Neighs:    1.84086e+06 ave 1.84086e+06 max 1.84086e+06 min
Histogram: 1 0 0 0 0 0 0 0 0 0

Total # of neighbors = 1840859
Ave neighs/atom = 93.6729
Neighbor list builds = 495
Dangerous builds not checked
Setting up Verlet run ...
  Unit style    : metal
  Current step  : 70495
  Time step     : 0.001
Per MPI rank memory allocation (min/avg/max) = 18.95 | 18.95 | 18.95 Mbytes
Step Temp Press TotEng PotEng Enthalpy 
   70495    1666.7624   -839.72664   -74674.625   -78908.353   -74799.762 
   72000    1646.0538   -2887.6649   -74824.931   -79006.058   -75255.031 
Loop time of 267.622 on 1 procs for 1505 steps with 19652 atoms

Performance: 0.486 ns/day, 49.395 hours/ns, 5.624 timesteps/s
99.9% CPU use with 1 MPI tasks x no OpenMP threads

MPI task timing breakdown:
Section |  min time  |  avg time  |  max time  |%varavg| %total
---------------------------------------------------------------
Pair    | 151.83     | 151.83     | 151.83     |   0.0 | 56.73
Neigh   | 107.63     | 107.63     | 107.63     |   0.0 | 40.22
Comm    | 3.6126     | 3.6126     | 3.6126     |   0.0 |  1.35
Output  | 0.04398    | 0.04398    | 0.04398    |   0.0 |  0.02
Modify  | 3.6535     | 3.6535     | 3.6535     |   0.0 |  1.37
Other   |            | 0.8488     |            |       |  0.32

Nlocal:    19652 ave 19652 max 19652 min
Histogram: 1 0 0 0 0 0 0 0 0 0
Nghost:    20063 ave 20063 max 20063 min
Histogram: 1 0 0 0 0 0 0 0 0 0
Neighs:    1.84148e+06 ave 1.84148e+06 max 1.84148e+06 min
Histogram: 1 0 0 0 0 0 0 0 0 0

Total # of neighbors = 1841475
Ave neighs/atom = 93.7042
Neighbor list builds = 1505
Dangerous builds not checked
Setting up Verlet run ...
  Unit style    : metal
  Current step  : 72000
  Time step     : 0.001
Per MPI rank memory allocation (min/avg/max) = 18.95 | 18.95 | 18.95 Mbytes
Step Temp Press TotEng PotEng Enthalpy 
   72000    1646.0538   -2887.6649   -74824.931   -79006.058   -75255.031 
   72495    1602.2092    1560.5834   -75059.219   -79128.977   -74827.683 
Loop time of 90.4273 on 1 procs for 495 steps with 19652 atoms

Performance: 0.473 ns/day, 50.745 hours/ns, 5.474 timesteps/s
100.0% CPU use with 1 MPI tasks x no OpenMP threads

MPI task timing breakdown:
Section |  min time  |  avg time  |  max time  |%varavg| %total
---------------------------------------------------------------
Pair    | 51.215     | 51.215     | 51.215     |   0.0 | 56.64
Neigh   | 36.295     | 36.295     | 36.295     |   0.0 | 40.14
Comm    | 1.2862     | 1.2862     | 1.2862     |   0.0 |  1.42
Output  | 0.00022006 | 0.00022006 | 0.00022006 |   0.0 |  0.00
Modify  | 1.328      | 1.328      | 1.328      |   0.0 |  1.47
Other   |            | 0.3034     |            |       |  0.34

Nlocal:    19652 ave 19652 max 19652 min
Histogram: 1 0 0 0 0 0 0 0 0 0
Nghost:    20086 ave 20086 max 20086 min
Histogram: 1 0 0 0 0 0 0 0 0 0
Neighs:    1.84884e+06 ave 1.84884e+06 max 1.84884e+06 min
Histogram: 1 0 0 0 0 0 0 0 0 0

Total # of neighbors = 1848835
Ave neighs/atom = 94.0787
Neighbor list builds = 495
Dangerous builds not checked
Setting up Verlet run ...
  Unit style    : metal
  Current step  : 72495
  Time step     : 0.001
Per MPI rank memory allocation (min/avg/max) = 18.95 | 18.95 | 18.95 Mbytes
Step Temp Press TotEng PotEng Enthalpy 
   72495    1602.2092    1560.5834   -75059.219   -79128.977   -74827.683 
   74000    1613.1646   -654.53119   -75161.407   -79258.992   -75258.428 
Loop time of 284.843 on 1 procs for 1505 steps with 19652 atoms

Performance: 0.457 ns/day, 52.573 hours/ns, 5.284 timesteps/s
99.9% CPU use with 1 MPI tasks x no OpenMP threads

MPI task timing breakdown:
Section |  min time  |  avg time  |  max time  |%varavg| %total
---------------------------------------------------------------
Pair    | 161.8      | 161.8      | 161.8      |   0.0 | 56.80
Neigh   | 114.2      | 114.2      | 114.2      |   0.0 | 40.09
Comm    | 3.8428     | 3.8428     | 3.8428     |   0.0 |  1.35
Output  | 0.063391   | 0.063391   | 0.063391   |   0.0 |  0.02
Modify  | 4.0084     | 4.0084     | 4.0084     |   0.0 |  1.41
Other   |            | 0.9331     |            |       |  0.33

Nlocal:    19652 ave 19652 max 19652 min
Histogram: 1 0 0 0 0 0 0 0 0 0
Nghost:    20133 ave 20133 max 20133 min
Histogram: 1 0 0 0 0 0 0 0 0 0
Neighs:    1.84944e+06 ave 1.84944e+06 max 1.84944e+06 min
Histogram: 1 0 0 0 0 0 0 0 0 0

Total # of neighbors = 1849445
Ave neighs/atom = 94.1098
Neighbor list builds = 1505
Dangerous builds not checked
Setting up Verlet run ...
  Unit style    : metal
  Current step  : 74000
  Time step     : 0.001
Per MPI rank memory allocation (min/avg/max) = 18.95 | 18.95 | 18.95 Mbytes
Step Temp Press TotEng PotEng Enthalpy 
   74000    1613.1646   -654.53119   -75161.407   -79258.992   -75258.428 
   74495    1567.3651     29.56257   -75388.355   -79369.605   -75383.981 
Loop time of 90.4413 on 1 procs for 495 steps with 19652 atoms

Performance: 0.473 ns/day, 50.753 hours/ns, 5.473 timesteps/s
100.0% CPU use with 1 MPI tasks x no OpenMP threads

MPI task timing breakdown:
Section |  min time  |  avg time  |  max time  |%varavg| %total
---------------------------------------------------------------
Pair    | 51.357     | 51.357     | 51.357     |   0.0 | 56.78
Neigh   | 36.811     | 36.811     | 36.811     |   0.0 | 40.70
Comm    | 0.94226    | 0.94226    | 0.94226    |   0.0 |  1.04
Output  | 0.00019097 | 0.00019097 | 0.00019097 |   0.0 |  0.00
Modify  | 1.0661     | 1.0661     | 1.0661     |   0.0 |  1.18
Other   |            | 0.2645     |            |       |  0.29

Nlocal:    19652 ave 19652 max 19652 min
Histogram: 1 0 0 0 0 0 0 0 0 0
Nghost:    20147 ave 20147 max 20147 min
Histogram: 1 0 0 0 0 0 0 0 0 0
Neighs:    1.85306e+06 ave 1.85306e+06 max 1.85306e+06 min
Histogram: 1 0 0 0 0 0 0 0 0 0

Total # of neighbors = 1853056
Ave neighs/atom = 94.2935
Neighbor list builds = 495
Dangerous builds not checked
Setting up Verlet run ...
  Unit style    : metal
  Current step  : 74495
  Time step     : 0.001
Per MPI rank memory allocation (min/avg/max) = 18.95 | 18.95 | 18.95 Mbytes
Step Temp Press TotEng PotEng Enthalpy 
   74495    1567.3651     29.56257   -75388.355   -79369.605   -75383.981 
   76000    1556.0954    1652.2203    -75494.64   -79447.264   -75250.738 
Loop time of 271.212 on 1 procs for 1505 steps with 19652 atoms

Performance: 0.479 ns/day, 50.058 hours/ns, 5.549 timesteps/s
100.0% CPU use with 1 MPI tasks x no OpenMP threads

MPI task timing breakdown:
Section |  min time  |  avg time  |  max time  |%varavg| %total
---------------------------------------------------------------
Pair    | 154.55     | 154.55     | 154.55     |   0.0 | 56.98
Neigh   | 110.08     | 110.08     | 110.08     |   0.0 | 40.59
Comm    | 2.674      | 2.674      | 2.674      |   0.0 |  0.99
Output  | 0.062404   | 0.062404   | 0.062404   |   0.0 |  0.02
Modify  | 3.068      | 3.068      | 3.068      |   0.0 |  1.13
Other   |            | 0.7792     |            |       |  0.29

Nlocal:    19652 ave 19652 max 19652 min
Histogram: 1 0 0 0 0 0 0 0 0 0
Nghost:    20163 ave 20163 max 20163 min
Histogram: 1 0 0 0 0 0 0 0 0 0
Neighs:    1.85678e+06 ave 1.85678e+06 max 1.85678e+06 min
Histogram: 1 0 0 0 0 0 0 0 0 0

Total # of neighbors = 1856781
Ave neighs/atom = 94.4831
Neighbor list builds = 1505
Dangerous builds not checked
Setting up Verlet run ...
  Unit style    : metal
  Current step  : 76000
  Time step     : 0.001
Per MPI rank memory allocation (min/avg/max) = 18.95 | 18.95 | 18.95 Mbytes
Step Temp Press TotEng PotEng Enthalpy 
   76000    1556.0954    1652.2203    -75494.64   -79447.264   -75250.738 
   76495    1516.1536   -737.70536   -75748.792   -79599.961    -75857.62 
Loop time of 91.9886 on 1 procs for 495 steps with 19652 atoms

Performance: 0.465 ns/day, 51.621 hours/ns, 5.381 timesteps/s
100.0% CPU use with 1 MPI tasks x no OpenMP threads

MPI task timing breakdown:
Section |  min time  |  avg time  |  max time  |%varavg| %total
---------------------------------------------------------------
Pair    | 52.313     | 52.313     | 52.313     |   0.0 | 56.87
Neigh   | 37.261     | 37.261     | 37.261     |   0.0 | 40.51
Comm    | 1.0173     | 1.0173     | 1.0173     |   0.0 |  1.11
Output  | 0.00018191 | 0.00018191 | 0.00018191 |   0.0 |  0.00
Modify  | 1.1225     | 1.1225     | 1.1225     |   0.0 |  1.22
Other   |            | 0.2743     |            |       |  0.30

Nlocal:    19652 ave 19652 max 19652 min
Histogram: 1 0 0 0 0 0 0 0 0 0
Nghost:    20226 ave 20226 max 20226 min
Histogram: 1 0 0 0 0 0 0 0 0 0
Neighs:    1.85722e+06 ave 1.85722e+06 max 1.85722e+06 min
Histogram: 1 0 0 0 0 0 0 0 0 0

Total # of neighbors = 1857224
Ave neighs/atom = 94.5056
Neighbor list builds = 495
Dangerous builds not checked
Setting up Verlet run ...
  Unit style    : metal
  Current step  : 76495
  Time step     : 0.001
Per MPI rank memory allocation (min/avg/max) = 18.95 | 18.95 | 18.95 Mbytes
Step Temp Press TotEng PotEng Enthalpy 
   76495    1516.1536   -737.70536   -75748.792   -79599.961    -75857.62 
   78000     1499.718   -945.09939   -75898.351   -79707.771   -76037.557 
Loop time of 270.988 on 1 procs for 1505 steps with 19652 atoms

Performance: 0.480 ns/day, 50.016 hours/ns, 5.554 timesteps/s
100.0% CPU use with 1 MPI tasks x no OpenMP threads

MPI task timing breakdown:
Section |  min time  |  avg time  |  max time  |%varavg| %total
---------------------------------------------------------------
Pair    | 154.39     | 154.39     | 154.39     |   0.0 | 56.97
Neigh   | 108.39     | 108.39     | 108.39     |   0.0 | 40.00
Comm    | 3.6071     | 3.6071     | 3.6071     |   0.0 |  1.33
Output  | 0.042913   | 0.042913   | 0.042913   |   0.0 |  0.02
Modify  | 3.7039     | 3.7039     | 3.7039     |   0.0 |  1.37
Other   |            | 0.858      |            |       |  0.32

Nlocal:    19652 ave 19652 max 19652 min
Histogram: 1 0 0 0 0 0 0 0 0 0
Nghost:    20171 ave 20171 max 20171 min
Histogram: 1 0 0 0 0 0 0 0 0 0
Neighs:    1.85923e+06 ave 1.85923e+06 max 1.85923e+06 min
Histogram: 1 0 0 0 0 0 0 0 0 0

Total # of neighbors = 1859229
Ave neighs/atom = 94.6076
Neighbor list builds = 1505
Dangerous builds not checked
Setting up Verlet run ...
  Unit style    : metal
  Current step  : 78000
  Time step     : 0.001
Per MPI rank memory allocation (min/avg/max) = 18.95 | 18.95 | 18.95 Mbytes
Step Temp Press TotEng PotEng Enthalpy 
   78000     1499.718   -945.09939   -75898.351   -79707.771   -76037.557 
   78495    1466.8483   -216.35192   -76118.095   -79844.023   -76149.877 
Loop time of 85.8762 on 1 procs for 495 steps with 19652 atoms

Performance: 0.498 ns/day, 48.191 hours/ns, 5.764 timesteps/s
100.1% CPU use with 1 MPI tasks x no OpenMP threads

MPI task timing breakdown:
Section |  min time  |  avg time  |  max time  |%varavg| %total
---------------------------------------------------------------
Pair    | 48.866     | 48.866     | 48.866     |   0.0 | 56.90
Neigh   | 34.435     | 34.435     | 34.435     |   0.0 | 40.10
Comm    | 1.1245     | 1.1245     | 1.1245     |   0.0 |  1.31
Output  | 0.0002079  | 0.0002079  | 0.0002079  |   0.0 |  0.00
Modify  | 1.1774     | 1.1774     | 1.1774     |   0.0 |  1.37
Other   |            | 0.2734     |            |       |  0.32

Nlocal:    19652 ave 19652 max 19652 min
Histogram: 1 0 0 0 0 0 0 0 0 0
Nghost:    20228 ave 20228 max 20228 min
Histogram: 1 0 0 0 0 0 0 0 0 0
Neighs:    1.86461e+06 ave 1.86461e+06 max 1.86461e+06 min
Histogram: 1 0 0 0 0 0 0 0 0 0

Total # of neighbors = 1864610
Ave neighs/atom = 94.8814
Neighbor list builds = 495
Dangerous builds not checked
Setting up Verlet run ...
  Unit style    : metal
  Current step  : 78495
  Time step     : 0.001
Per MPI rank memory allocation (min/avg/max) = 18.95 | 18.95 | 18.95 Mbytes
Step Temp Press TotEng PotEng Enthalpy 
   78495    1466.8483   -216.35192   -76118.095   -79844.023   -76149.877 
   80000    1455.7827   -1219.9805   -76277.372   -79975.193   -76456.358 
Loop time of 271.539 on 1 procs for 1505 steps with 19652 atoms

Performance: 0.479 ns/day, 50.118 hours/ns, 5.542 timesteps/s
100.0% CPU use with 1 MPI tasks x no OpenMP threads

MPI task timing breakdown:
Section |  min time  |  avg time  |  max time  |%varavg| %total
---------------------------------------------------------------
Pair    | 153.74     | 153.74     | 153.74     |   0.0 | 56.62
Neigh   | 110.32     | 110.32     | 110.32     |   0.0 | 40.63
Comm    | 3.1827     | 3.1827     | 3.1827     |   0.0 |  1.17
Output  | 0.043723   | 0.043723   | 0.043723   |   0.0 |  0.02
Modify  | 3.4507     | 3.4507     | 3.4507     |   0.0 |  1.27
Other   |            | 0.8052     |            |       |  0.30

Nlocal:    19652 ave 19652 max 19652 min
Histogram: 1 0 0 0 0 0 0 0 0 0
Nghost:    20185 ave 20185 max 20185 min
Histogram: 1 0 0 0 0 0 0 0 0 0
Neighs:    1.86657e+06 ave 1.86657e+06 max 1.86657e+06 min
Histogram: 1 0 0 0 0 0 0 0 0 0

Total # of neighbors = 1866567
Ave neighs/atom = 94.981
Neighbor list builds = 1505
Dangerous builds not checked
Setting up Verlet run ...
  Unit style    : metal
  Current step  : 80000
  Time step     : 0.001
Per MPI rank memory allocation (min/avg/max) = 18.95 | 18.95 | 18.95 Mbytes
Step Temp Press TotEng PotEng Enthalpy 
   80000    1455.7827   -1219.9805   -76277.372   -79975.193   -76456.358 
   80495    1408.9833   -189.98458   -76468.867   -80047.813   -76496.701 
Loop time of 95.4813 on 1 procs for 495 steps with 19652 atoms

Performance: 0.448 ns/day, 53.581 hours/ns, 5.184 timesteps/s
99.6% CPU use with 1 MPI tasks x no OpenMP threads

MPI task timing breakdown:
Section |  min time  |  avg time  |  max time  |%varavg| %total
---------------------------------------------------------------
Pair    | 54.318     | 54.318     | 54.318     |   0.0 | 56.89
Neigh   | 38.467     | 38.467     | 38.467     |   0.0 | 40.29
Comm    | 1.1584     | 1.1584     | 1.1584     |   0.0 |  1.21
Output  | 0.00014687 | 0.00014687 | 0.00014687 |   0.0 |  0.00
Modify  | 1.2333     | 1.2333     | 1.2333     |   0.0 |  1.29
Other   |            | 0.3039     |            |       |  0.32

Nlocal:    19652 ave 19652 max 19652 min
Histogram: 1 0 0 0 0 0 0 0 0 0
Nghost:    20218 ave 20218 max 20218 min
Histogram: 1 0 0 0 0 0 0 0 0 0
Neighs:    1.86904e+06 ave 1.86904e+06 max 1.86904e+06 min
Histogram: 1 0 0 0 0 0 0 0 0 0

Total # of neighbors = 1869037
Ave neighs/atom = 95.1067
Neighbor list builds = 495
Dangerous builds not checked
Setting up Verlet run ...
  Unit style    : metal
  Current step  : 80495
  Time step     : 0.001
Per MPI rank memory allocation (min/avg/max) = 18.95 | 18.95 | 18.95 Mbytes
Step Temp Press TotEng PotEng Enthalpy 
   80495    1408.9833   -189.98458   -76468.867   -80047.813   -76496.701 
   82000    1391.9628    1547.6243   -76622.593   -80158.305   -76396.489 
Loop time of 253.273 on 1 procs for 1505 steps with 19652 atoms

Performance: 0.513 ns/day, 46.747 hours/ns, 5.942 timesteps/s
99.9% CPU use with 1 MPI tasks x no OpenMP threads

MPI task timing breakdown:
Section |  min time  |  avg time  |  max time  |%varavg| %total
---------------------------------------------------------------
Pair    | 144.29     | 144.29     | 144.29     |   0.0 | 56.97
Neigh   | 103        | 103        | 103        |   0.0 | 40.67
Comm    | 2.4136     | 2.4136     | 2.4136     |   0.0 |  0.95
Output  | 0.041339   | 0.041339   | 0.041339   |   0.0 |  0.02
Modify  | 2.8046     | 2.8046     | 2.8046     |   0.0 |  1.11
Other   |            | 0.7286     |            |       |  0.29

Nlocal:    19652 ave 19652 max 19652 min
Histogram: 1 0 0 0 0 0 0 0 0 0
Nghost:    20301 ave 20301 max 20301 min
Histogram: 1 0 0 0 0 0 0 0 0 0
Neighs:    1.87331e+06 ave 1.87331e+06 max 1.87331e+06 min
Histogram: 1 0 0 0 0 0 0 0 0 0

Total # of neighbors = 1873306
Ave neighs/atom = 95.3239
Neighbor list builds = 1505
Dangerous builds not checked
Setting up Verlet run ...
  Unit style    : metal
  Current step  : 82000
  Time step     : 0.001
Per MPI rank memory allocation (min/avg/max) = 18.95 | 18.95 | 18.95 Mbytes
Step Temp Press TotEng PotEng Enthalpy 
   82000    1391.9628    1547.6243   -76622.593   -80158.305   -76396.489 
   82495    1359.7798    -530.1603   -76832.957   -80286.922   -76910.371 
Loop time of 80.0144 on 1 procs for 495 steps with 19652 atoms

Performance: 0.535 ns/day, 44.901 hours/ns, 6.186 timesteps/s
99.9% CPU use with 1 MPI tasks x no OpenMP threads

MPI task timing breakdown:
Section |  min time  |  avg time  |  max time  |%varavg| %total
---------------------------------------------------------------
Pair    | 45.246     | 45.246     | 45.246     |   0.0 | 56.55
Neigh   | 32.944     | 32.944     | 32.944     |   0.0 | 41.17
Comm    | 0.72828    | 0.72828    | 0.72828    |   0.0 |  0.91
Output  | 0.00013399 | 0.00013399 | 0.00013399 |   0.0 |  0.00
Modify  | 0.87513    | 0.87513    | 0.87513    |   0.0 |  1.09
Other   |            | 0.2206     |            |       |  0.28

Nlocal:    19652 ave 19652 max 19652 min
Histogram: 1 0 0 0 0 0 0 0 0 0
Nghost:    20226 ave 20226 max 20226 min
Histogram: 1 0 0 0 0 0 0 0 0 0
Neighs:    1.87463e+06 ave 1.87463e+06 max 1.87463e+06 min
Histogram: 1 0 0 0 0 0 0 0 0 0

Total # of neighbors = 1874630
Ave neighs/atom = 95.3913
Neighbor list builds = 495
Dangerous builds not checked
Setting up Verlet run ...
  Unit style    : metal
  Current step  : 82495
  Time step     : 0.001
Per MPI rank memory allocation (min/avg/max) = 18.95 | 18.95 | 18.95 Mbytes
Step Temp Press TotEng PotEng Enthalpy 
   82495    1359.7798    -530.1603   -76832.957   -80286.922   -76910.371 
   84000    1352.5271    2618.0512    -76980.63   -80416.172    -76599.81 
Loop time of 260.743 on 1 procs for 1505 steps with 19652 atoms

Performance: 0.499 ns/day, 48.125 hours/ns, 5.772 timesteps/s
100.0% CPU use with 1 MPI tasks x no OpenMP threads

MPI task timing breakdown:
Section |  min time  |  avg time  |  max time  |%varavg| %total
---------------------------------------------------------------
Pair    | 147.45     | 147.45     | 147.45     |   0.0 | 56.55
Neigh   | 105.97     | 105.97     | 105.97     |   0.0 | 40.64
Comm    | 3.111      | 3.111      | 3.111      |   0.0 |  1.19
Output  | 0.063827   | 0.063827   | 0.063827   |   0.0 |  0.02
Modify  | 3.3772     | 3.3772     | 3.3772     |   0.0 |  1.30
Other   |            | 0.7747     |            |       |  0.30

Nlocal:    19652 ave 19652 max 19652 min
Histogram: 1 0 0 0 0 0 0 0 0 0
Nghost:    20259 ave 20259 max 20259 min
Histogram: 1 0 0 0 0 0 0 0 0 0
Neighs:    1.88142e+06 ave 1.88142e+06 max 1.88142e+06 min
Histogram: 1 0 0 0 0 0 0 0 0 0

Total # of neighbors = 1881424
Ave neighs/atom = 95.737
Neighbor list builds = 1505
Dangerous builds not checked
Setting up Verlet run ...
  Unit style    : metal
  Current step  : 84000
  Time step     : 0.001
Per MPI rank memory allocation (min/avg/max) = 18.95 | 18.95 | 18.95 Mbytes
Step Temp Press TotEng PotEng Enthalpy 
   84000    1352.5271    2618.0512    -76980.63   -80416.172    -76599.81 
   84495    1308.7426   -2393.3872   -77179.367   -80503.692   -77527.991 
Loop time of 94.4814 on 1 procs for 495 steps with 19652 atoms

Performance: 0.453 ns/day, 53.020 hours/ns, 5.239 timesteps/s
99.9% CPU use with 1 MPI tasks x no OpenMP threads

MPI task timing breakdown:
Section |  min time  |  avg time  |  max time  |%varavg| %total
---------------------------------------------------------------
Pair    | 53.682     | 53.682     | 53.682     |   0.0 | 56.82
Neigh   | 37.893     | 37.893     | 37.893     |   0.0 | 40.11
Comm    | 1.2625     | 1.2625     | 1.2625     |   0.0 |  1.34
Output  | 0.00022984 | 0.00022984 | 0.00022984 |   0.0 |  0.00
Modify  | 1.3412     | 1.3412     | 1.3412     |   0.0 |  1.42
Other   |            | 0.3027     |            |       |  0.32

Nlocal:    19652 ave 19652 max 19652 min
Histogram: 1 0 0 0 0 0 0 0 0 0
Nghost:    20271 ave 20271 max 20271 min
Histogram: 1 0 0 0 0 0 0 0 0 0
Neighs:    1.87811e+06 ave 1.87811e+06 max 1.87811e+06 min
Histogram: 1 0 0 0 0 0 0 0 0 0

Total # of neighbors = 1878108
Ave neighs/atom = 95.5683
Neighbor list builds = 495
Dangerous builds not checked
Setting up Verlet run ...
  Unit style    : metal
  Current step  : 84495
  Time step     : 0.001
Per MPI rank memory allocation (min/avg/max) = 18.95 | 18.95 | 18.95 Mbytes
Step Temp Press TotEng PotEng Enthalpy 
   84495    1308.7426   -2393.3872   -77179.367   -80503.692   -77527.991 
   86000    1300.3108    274.97386   -77351.802   -80654.709   -77311.896 
Loop time of 276.778 on 1 procs for 1505 steps with 19652 atoms

Performance: 0.470 ns/day, 51.085 hours/ns, 5.438 timesteps/s
99.9% CPU use with 1 MPI tasks x no OpenMP threads

MPI task timing breakdown:
Section |  min time  |  avg time  |  max time  |%varavg| %total
---------------------------------------------------------------
Pair    | 153.72     | 153.72     | 153.72     |   0.0 | 55.54
Neigh   | 115.75     | 115.75     | 115.75     |   0.0 | 41.82
Comm    | 3.1219     | 3.1219     | 3.1219     |   0.0 |  1.13
Output  | 0.042021   | 0.042021   | 0.042021   |   0.0 |  0.02
Modify  | 3.3683     | 3.3683     | 3.3683     |   0.0 |  1.22
Other   |            | 0.7768     |            |       |  0.28

Nlocal:    19652 ave 19652 max 19652 min
Histogram: 1 0 0 0 0 0 0 0 0 0
Nghost:    20257 ave 20257 max 20257 min
Histogram: 1 0 0 0 0 0 0 0 0 0
Neighs:    1.88441e+06 ave 1.88441e+06 max 1.88441e+06 min
Histogram: 1 0 0 0 0 0 0 0 0 0

Total # of neighbors = 1884409
Ave neighs/atom = 95.8889
Neighbor list builds = 1505
Dangerous builds not checked
Setting up Verlet run ...
  Unit style    : metal
  Current step  : 86000
  Time step     : 0.001
Per MPI rank memory allocation (min/avg/max) = 18.96 | 18.96 | 18.96 Mbytes
Step Temp Press TotEng PotEng Enthalpy 
   86000    1300.3108    274.97386   -77351.802   -80654.709   -77311.896 
   86495     1258.607     218.8009   -77554.019   -80750.996   -77522.308 
Loop time of 93.9893 on 1 procs for 495 steps with 19652 atoms

Performance: 0.455 ns/day, 52.744 hours/ns, 5.267 timesteps/s
99.8% CPU use with 1 MPI tasks x no OpenMP threads

MPI task timing breakdown:
Section |  min time  |  avg time  |  max time  |%varavg| %total
---------------------------------------------------------------
Pair    | 50.885     | 50.885     | 50.885     |   0.0 | 54.14
Neigh   | 40.814     | 40.814     | 40.814     |   0.0 | 43.42
Comm    | 0.96946    | 0.96946    | 0.96946    |   0.0 |  1.03
Output  | 0.00015593 | 0.00015593 | 0.00015593 |   0.0 |  0.00
Modify  | 1.0677     | 1.0677     | 1.0677     |   0.0 |  1.14
Other   |            | 0.253      |            |       |  0.27

Nlocal:    19652 ave 19652 max 19652 min
Histogram: 1 0 0 0 0 0 0 0 0 0
Nghost:    20268 ave 20268 max 20268 min
Histogram: 1 0 0 0 0 0 0 0 0 0
Neighs:    1.8862e+06 ave 1.8862e+06 max 1.8862e+06 min
Histogram: 1 0 0 0 0 0 0 0 0 0

Total # of neighbors = 1886196
Ave neighs/atom = 95.9798
Neighbor list builds = 495
Dangerous builds not checked
Setting up Verlet run ...
  Unit style    : metal
  Current step  : 86495
  Time step     : 0.001
Per MPI rank memory allocation (min/avg/max) = 18.96 | 18.96 | 18.96 Mbytes
Step Temp Press TotEng PotEng Enthalpy 
   86495     1258.607     218.8009   -77554.019   -80750.996   -77522.308 
   88000    1259.4959    429.49117   -77626.139   -80825.373   -77563.966 
Loop time of 284.217 on 1 procs for 1505 steps with 19652 atoms

Performance: 0.458 ns/day, 52.458 hours/ns, 5.295 timesteps/s
99.9% CPU use with 1 MPI tasks x no OpenMP threads

MPI task timing breakdown:
Section |  min time  |  avg time  |  max time  |%varavg| %total
---------------------------------------------------------------
Pair    | 153.98     | 153.98     | 153.98     |   0.0 | 54.18
Neigh   | 123.97     | 123.97     | 123.97     |   0.0 | 43.62
Comm    | 2.5181     | 2.5181     | 2.5181     |   0.0 |  0.89
Output  | 0.064262   | 0.064262   | 0.064262   |   0.0 |  0.02
Modify  | 2.9585     | 2.9585     | 2.9585     |   0.0 |  1.04
Other   |            | 0.7272     |            |       |  0.26

Nlocal:    19652 ave 19652 max 19652 min
Histogram: 1 0 0 0 0 0 0 0 0 0
Nghost:    20269 ave 20269 max 20269 min
Histogram: 1 0 0 0 0 0 0 0 0 0
Neighs:    1.88901e+06 ave 1.88901e+06 max 1.88901e+06 min
Histogram: 1 0 0 0 0 0 0 0 0 0

Total # of neighbors = 1889014
Ave neighs/atom = 96.1232
Neighbor list builds = 1505
Dangerous builds not checked
Setting up Verlet run ...
  Unit style    : metal
  Current step  : 88000
  Time step     : 0.001
Per MPI rank memory allocation (min/avg/max) = 18.96 | 18.96 | 18.96 Mbytes
Step Temp Press TotEng PotEng Enthalpy 
   88000    1259.4959    429.49117   -77626.139   -80825.373   -77563.966 
   88495    1215.2075    926.17735   -77887.678   -80974.415   -77753.896 
Loop time of 96.5801 on 1 procs for 495 steps with 19652 atoms

Performance: 0.443 ns/day, 54.198 hours/ns, 5.125 timesteps/s
99.8% CPU use with 1 MPI tasks x no OpenMP threads

MPI task timing breakdown:
Section |  min time  |  avg time  |  max time  |%varavg| %total
---------------------------------------------------------------
Pair    | 52.492     | 52.492     | 52.492     |   0.0 | 54.35
Neigh   | 41.754     | 41.754     | 41.754     |   0.0 | 43.23
Comm    | 0.97615    | 0.97615    | 0.97615    |   0.0 |  1.01
Output  | 0.00019383 | 0.00019383 | 0.00019383 |   0.0 |  0.00
Modify  | 1.0911     | 1.0911     | 1.0911     |   0.0 |  1.13
Other   |            | 0.2661     |            |       |  0.28

Nlocal:    19652 ave 19652 max 19652 min
Histogram: 1 0 0 0 0 0 0 0 0 0
Nghost:    20265 ave 20265 max 20265 min
Histogram: 1 0 0 0 0 0 0 0 0 0
Neighs:    1.8924e+06 ave 1.8924e+06 max 1.8924e+06 min
Histogram: 1 0 0 0 0 0 0 0 0 0

Total # of neighbors = 1892395
Ave neighs/atom = 96.2953
Neighbor list builds = 495
Dangerous builds not checked
Setting up Verlet run ...
  Unit style    : metal
  Current step  : 88495
  Time step     : 0.001
Per MPI rank memory allocation (min/avg/max) = 18.96 | 18.96 | 18.96 Mbytes
Step Temp Press TotEng PotEng Enthalpy 
   88495    1215.2075    926.17735   -77887.678   -80974.415   -77753.896 
   90000    1200.7097    289.58836   -78065.851   -81115.763   -78024.093 
Loop time of 278.346 on 1 procs for 1505 steps with 19652 atoms

Performance: 0.467 ns/day, 51.374 hours/ns, 5.407 timesteps/s
99.9% CPU use with 1 MPI tasks x no OpenMP threads

MPI task timing breakdown:
Section |  min time  |  avg time  |  max time  |%varavg| %total
---------------------------------------------------------------
Pair    | 151.2      | 151.2      | 151.2      |   0.0 | 54.32
Neigh   | 119.54     | 119.54     | 119.54     |   0.0 | 42.95
Comm    | 3.2535     | 3.2535     | 3.2535     |   0.0 |  1.17
Output  | 0.042345   | 0.042345   | 0.042345   |   0.0 |  0.02
Modify  | 3.4798     | 3.4798     | 3.4798     |   0.0 |  1.25
Other   |            | 0.8374     |            |       |  0.30

Nlocal:    19652 ave 19652 max 19652 min
Histogram: 1 0 0 0 0 0 0 0 0 0
Nghost:    20323 ave 20323 max 20323 min
Histogram: 1 0 0 0 0 0 0 0 0 0
Neighs:    1.89547e+06 ave 1.89547e+06 max 1.89547e+06 min
Histogram: 1 0 0 0 0 0 0 0 0 0

Total # of neighbors = 1895470
Ave neighs/atom = 96.4518
Neighbor list builds = 1505
Dangerous builds not checked
Setting up Verlet run ...
  Unit style    : metal
  Current step  : 90000
  Time step     : 0.001
Per MPI rank memory allocation (min/avg/max) = 18.96 | 18.96 | 18.96 Mbytes
Step Temp Press TotEng PotEng Enthalpy 
   90000    1200.7097    289.58836   -78065.851   -81115.763   -78024.093 
   90495    1167.6731    -73.13209   -78253.052   -81219.048    -78263.58 
Loop time of 93.432 on 1 procs for 495 steps with 19652 atoms

Performance: 0.458 ns/day, 52.431 hours/ns, 5.298 timesteps/s
100.0% CPU use with 1 MPI tasks x no OpenMP threads

MPI task timing breakdown:
Section |  min time  |  avg time  |  max time  |%varavg| %total
---------------------------------------------------------------
Pair    | 50.777     | 50.777     | 50.777     |   0.0 | 54.35
Neigh   | 40.401     | 40.401     | 40.401     |   0.0 | 43.24
Comm    | 0.96011    | 0.96011    | 0.96011    |   0.0 |  1.03
Output  | 0.00022316 | 0.00022316 | 0.00022316 |   0.0 |  0.00
Modify  | 1.0427     | 1.0427     | 1.0427     |   0.0 |  1.12
Other   |            | 0.2513     |            |       |  0.27

[...]
Setting up Verlet run ...
  Unit style    : metal
  Current step  : 120000
  Time step     : 0.001
Per MPI rank memory allocation (min/avg/max) = 19.34 | 19.34 | 19.34 Mbytes
Step Temp Press TotEng PotEng Enthalpy 
  120000    452.29709    -750.5052   -82834.337   -83983.212   -82938.319 
  120495    421.12747    183.23999   -82990.258   -84059.961    -82964.91 
Loop time of 91.8164 on 1 procs for 495 steps with 19652 atoms

Performance: 0.466 ns/day, 51.524 hours/ns, 5.391 timesteps/s
99.9% CPU use with 1 MPI tasks x no OpenMP threads

MPI task timing breakdown:
Section |  min time  |  avg time  |  max time  |%varavg| %total
---------------------------------------------------------------
Pair    | 50.812     | 50.812     | 50.812     |   0.0 | 55.34
Neigh   | 38.848     | 38.848     | 38.848     |   0.0 | 42.31
Comm    | 0.88847    | 0.88847    | 0.88847    |   0.0 |  0.97
Output  | 0.00019097 | 0.00019097 | 0.00019097 |   0.0 |  0.00
Modify  | 1.0101     | 1.0101     | 1.0101     |   0.0 |  1.10
Other   |            | 0.2569     |            |       |  0.28

Nlocal:    19652 ave 19652 max 19652 min
Histogram: 1 0 0 0 0 0 0 0 0 0
Nghost:    20748 ave 20748 max 20748 min
Histogram: 1 0 0 0 0 0 0 0 0 0
Neighs:    1.97354e+06 ave 1.97354e+06 max 1.97354e+06 min
Histogram: 1 0 0 0 0 0 0 0 0 0

Total # of neighbors = 1973535
Ave neighs/atom = 100.424
Neighbor list builds = 495
Dangerous builds not checked
Setting up Verlet run ...
  Unit style    : metal
  Current step  : 120495
  Time step     : 0.001
Per MPI rank memory allocation (min/avg/max) = 19.34 | 19.34 | 19.34 Mbytes
Step Temp Press TotEng PotEng Enthalpy 
  120495    421.12747    183.23999   -82990.258   -84059.961    -82964.91 
  122000    401.33821   -1103.2467   -83100.571   -84120.006   -83253.161 
Loop time of 278.775 on 1 procs for 1505 steps with 19652 atoms

Performance: 0.466 ns/day, 51.454 hours/ns, 5.399 timesteps/s
99.9% CPU use with 1 MPI tasks x no OpenMP threads

MPI task timing breakdown:
Section |  min time  |  avg time  |  max time  |%varavg| %total
---------------------------------------------------------------
Pair    | 154.35     | 154.35     | 154.35     |   0.0 | 55.37
Neigh   | 118.07     | 118.07     | 118.07     |   0.0 | 42.35
Comm    | 2.5574     | 2.5574     | 2.5574     |   0.0 |  0.92
Output  | 0.043268   | 0.043268   | 0.043268   |   0.0 |  0.02
Modify  | 2.9866     | 2.9866     | 2.9866     |   0.0 |  1.07
Other   |            | 0.7681     |            |       |  0.28

Nlocal:    19652 ave 19652 max 19652 min
Histogram: 1 0 0 0 0 0 0 0 0 0
Nghost:    20731 ave 20731 max 20731 min
Histogram: 1 0 0 0 0 0 0 0 0 0
Neighs:    1.97372e+06 ave 1.97372e+06 max 1.97372e+06 min
Histogram: 1 0 0 0 0 0 0 0 0 0

Total # of neighbors = 1973725
Ave neighs/atom = 100.434
Neighbor list builds = 1505
Dangerous builds not checked
Setting up Verlet run ...
  Unit style    : metal
  Current step  : 122000
  Time step     : 0.001
Per MPI rank memory allocation (min/avg/max) = 19.34 | 19.34 | 19.34 Mbytes
Step Temp Press TotEng PotEng Enthalpy 
  122000    401.33821   -1103.2467   -83100.571   -84120.006   -83253.161 
  122495    374.00466    186.50199   -83261.599   -84211.605   -83235.853 
Loop time of 97.877 on 1 procs for 495 steps with 19652 atoms

Performance: 0.437 ns/day, 54.925 hours/ns, 5.057 timesteps/s
99.6% CPU use with 1 MPI tasks x no OpenMP threads

MPI task timing breakdown:
Section |  min time  |  avg time  |  max time  |%varavg| %total
---------------------------------------------------------------
Pair    | 54.261     | 54.261     | 54.261     |   0.0 | 55.44
Neigh   | 41.311     | 41.311     | 41.311     |   0.0 | 42.21
Comm    | 0.94861    | 0.94861    | 0.94861    |   0.0 |  0.97
Output  | 0.00017309 | 0.00017309 | 0.00017309 |   0.0 |  0.00
Modify  | 1.0812     | 1.0812     | 1.0812     |   0.0 |  1.10
Other   |            | 0.2742     |            |       |  0.28

Nlocal:    19652 ave 19652 max 19652 min
Histogram: 1 0 0 0 0 0 0 0 0 0
Nghost:    20765 ave 20765 max 20765 min
Histogram: 1 0 0 0 0 0 0 0 0 0
Neighs:    1.97798e+06 ave 1.97798e+06 max 1.97798e+06 min
Histogram: 1 0 0 0 0 0 0 0 0 0

Total # of neighbors = 1977983
Ave neighs/atom = 100.65
Neighbor list builds = 495
Dangerous builds not checked
Setting up Verlet run ...
  Unit style    : metal
  Current step  : 122495
  Time step     : 0.001
Per MPI rank memory allocation (min/avg/max) = 19.34 | 19.34 | 19.34 Mbytes
Step Temp Press TotEng PotEng Enthalpy 
  122495    374.00466    186.50199   -83261.599   -84211.605   -83235.853 
  124000    351.04196    359.91877    -83376.18   -84267.859   -83326.537 
Loop time of 309.611 on 1 procs for 1505 steps with 19652 atoms

Performance: 0.420 ns/day, 57.145 hours/ns, 4.861 timesteps/s
99.8% CPU use with 1 MPI tasks x no OpenMP threads

MPI task timing breakdown:
Section |  min time  |  avg time  |  max time  |%varavg| %total
---------------------------------------------------------------
Pair    | 171.02     | 171.02     | 171.02     |   0.0 | 55.24
Neigh   | 130.98     | 130.98     | 130.98     |   0.0 | 42.30
Comm    | 3.1346     | 3.1346     | 3.1346     |   0.0 |  1.01
Output  | 0.067654   | 0.067654   | 0.067654   |   0.0 |  0.02
Modify  | 3.5309     | 3.5309     | 3.5309     |   0.0 |  1.14
Other   |            | 0.8799     |            |       |  0.28

Nlocal:    19652 ave 19652 max 19652 min
Histogram: 1 0 0 0 0 0 0 0 0 0
Nghost:    20760 ave 20760 max 20760 min
Histogram: 1 0 0 0 0 0 0 0 0 0
Neighs:    1.9796e+06 ave 1.9796e+06 max 1.9796e+06 min
Histogram: 1 0 0 0 0 0 0 0 0 0

Total # of neighbors = 1979605
Ave neighs/atom = 100.733
Neighbor list builds = 1505
Dangerous builds not checked
Setting up Verlet run ...
  Unit style    : metal
  Current step  : 124000
  Time step     : 0.001
Per MPI rank memory allocation (min/avg/max) = 19.34 | 19.34 | 19.34 Mbytes
Step Temp Press TotEng PotEng Enthalpy 
  124000    351.04196    359.91877    -83376.18   -84267.859   -83326.537 
  124495    322.80291     577.5468   -83528.918   -84348.867   -83449.352 
Loop time of 100.071 on 1 procs for 495 steps with 19652 atoms

Performance: 0.427 ns/day, 56.156 hours/ns, 4.946 timesteps/s
100.0% CPU use with 1 MPI tasks x no OpenMP threads

MPI task timing breakdown:
Section |  min time  |  avg time  |  max time  |%varavg| %total
---------------------------------------------------------------
Pair    | 55.107     | 55.107     | 55.107     |   0.0 | 55.07
Neigh   | 42.29      | 42.29      | 42.29      |   0.0 | 42.26
Comm    | 1.1259     | 1.1259     | 1.1259     |   0.0 |  1.13
Output  | 0.00018716 | 0.00018716 | 0.00018716 |   0.0 |  0.00
Modify  | 1.2385     | 1.2385     | 1.2385     |   0.0 |  1.24
Other   |            | 0.3093     |            |       |  0.31

Nlocal:    19652 ave 19652 max 19652 min
Histogram: 1 0 0 0 0 0 0 0 0 0
Nghost:    20770 ave 20770 max 20770 min
Histogram: 1 0 0 0 0 0 0 0 0 0
Neighs:    1.98247e+06 ave 1.98247e+06 max 1.98247e+06 min
Histogram: 1 0 0 0 0 0 0 0 0 0

Total # of neighbors = 1982467
Ave neighs/atom = 100.879
Neighbor list builds = 495
Dangerous builds not checked
Setting up Verlet run ...
  Unit style    : metal
  Current step  : 124495
  Time step     : 0.001
Per MPI rank memory allocation (min/avg/max) = 19.34 | 19.34 | 19.34 Mbytes
Step Temp Press TotEng PotEng Enthalpy 
  124495    322.80291     577.5468   -83528.918   -84348.867   -83449.352 
  126000    301.26996     1172.572   -83645.785   -84411.038   -83484.428 
Loop time of 309.624 on 1 procs for 1505 steps with 19652 atoms

Performance: 0.420 ns/day, 57.147 hours/ns, 4.861 timesteps/s
99.5% CPU use with 1 MPI tasks x no OpenMP threads

MPI task timing breakdown:
Section |  min time  |  avg time  |  max time  |%varavg| %total
---------------------------------------------------------------
Pair    | 170.3      | 170.3      | 170.3      |   0.0 | 55.00
Neigh   | 131.49     | 131.49     | 131.49     |   0.0 | 42.47
Comm    | 3.1507     | 3.1507     | 3.1507     |   0.0 |  1.02
Output  | 0.2173     | 0.2173     | 0.2173     |   0.0 |  0.07
Modify  | 3.5765     | 3.5765     | 3.5765     |   0.0 |  1.16
Other   |            | 0.8948     |            |       |  0.29

Nlocal:    19652 ave 19652 max 19652 min
Histogram: 1 0 0 0 0 0 0 0 0 0
Nghost:    20807 ave 20807 max 20807 min
Histogram: 1 0 0 0 0 0 0 0 0 0
Neighs:    1.98485e+06 ave 1.98485e+06 max 1.98485e+06 min
Histogram: 1 0 0 0 0 0 0 0 0 0

Total # of neighbors = 1984853
Ave neighs/atom = 101
Neighbor list builds = 1505
Dangerous builds not checked
Setting up Verlet run ...
  Unit style    : metal
  Current step  : 126000
  Time step     : 0.001
Per MPI rank memory allocation (min/avg/max) = 19.34 | 19.34 | 19.34 Mbytes
Step Temp Press TotEng PotEng Enthalpy 
  126000    301.26996     1172.572   -83645.785   -84411.038   -83484.428 
  126495    272.31283    465.07858   -83790.709   -84482.409   -83726.764 
Loop time of 107.223 on 1 procs for 495 steps with 19652 atoms

Performance: 0.399 ns/day, 60.170 hours/ns, 4.617 timesteps/s
98.3% CPU use with 1 MPI tasks x no OpenMP threads

MPI task timing breakdown:
Section |  min time  |  avg time  |  max time  |%varavg| %total
---------------------------------------------------------------
Pair    | 59.923     | 59.923     | 59.923     |   0.0 | 55.89
Neigh   | 43.348     | 43.348     | 43.348     |   0.0 | 40.43
Comm    | 1.7254     | 1.7254     | 1.7254     |   0.0 |  1.61
Output  | 0.00024009 | 0.00024009 | 0.00024009 |   0.0 |  0.00
Modify  | 1.8195     | 1.8195     | 1.8195     |   0.0 |  1.70
Other   |            | 0.4071     |            |       |  0.38

Nlocal:    19652 ave 19652 max 19652 min
Histogram: 1 0 0 0 0 0 0 0 0 0
Nghost:    20793 ave 20793 max 20793 min
Histogram: 1 0 0 0 0 0 0 0 0 0
Neighs:    1.98666e+06 ave 1.98666e+06 max 1.98666e+06 min
Histogram: 1 0 0 0 0 0 0 0 0 0

Total # of neighbors = 1986655
Ave neighs/atom = 101.092
Neighbor list builds = 495
Dangerous builds not checked
Setting up Verlet run ...
  Unit style    : metal
  Current step  : 126495
  Time step     : 0.001
Per MPI rank memory allocation (min/avg/max) = 19.34 | 19.34 | 19.34 Mbytes
Step Temp Press TotEng PotEng Enthalpy 
  126495    272.31283    465.07858   -83790.709   -84482.409   -83726.764 
  128000     250.9154    820.83318   -83909.638   -84546.986   -83796.886 
Loop time of 311.919 on 1 procs for 1505 steps with 19652 atoms

Performance: 0.417 ns/day, 57.571 hours/ns, 4.825 timesteps/s
99.8% CPU use with 1 MPI tasks x no OpenMP threads

MPI task timing breakdown:
Section |  min time  |  avg time  |  max time  |%varavg| %total
---------------------------------------------------------------
Pair    | 173.33     | 173.33     | 173.33     |   0.0 | 55.57
Neigh   | 128.97     | 128.97     | 128.97     |   0.0 | 41.35
Comm    | 4.1997     | 4.1997     | 4.1997     |   0.0 |  1.35
Output  | 0.066668   | 0.066668   | 0.066668   |   0.0 |  0.02
Modify  | 4.3364     | 4.3364     | 4.3364     |   0.0 |  1.39
Other   |            | 1.021      |            |       |  0.33

Nlocal:    19652 ave 19652 max 19652 min
Histogram: 1 0 0 0 0 0 0 0 0 0
Nghost:    20808 ave 20808 max 20808 min
Histogram: 1 0 0 0 0 0 0 0 0 0
Neighs:    1.98856e+06 ave 1.98856e+06 max 1.98856e+06 min
Histogram: 1 0 0 0 0 0 0 0 0 0

Total # of neighbors = 1988557
Ave neighs/atom = 101.189
Neighbor list builds = 1505
Dangerous builds not checked
Setting up Verlet run ...
  Unit style    : metal
  Current step  : 128000
  Time step     : 0.001
Per MPI rank memory allocation (min/avg/max) = 19.34 | 19.34 | 19.34 Mbytes
Step Temp Press TotEng PotEng Enthalpy 
  128000     250.9154    820.83318   -83909.638   -84546.986   -83796.886 
  128495    225.88252   -856.11696   -84048.437   -84622.199   -84166.005 
Loop time of 104.123 on 1 procs for 495 steps with 19652 atoms

Performance: 0.411 ns/day, 58.430 hours/ns, 4.754 timesteps/s
99.4% CPU use with 1 MPI tasks x no OpenMP threads

MPI task timing breakdown:
Section |  min time  |  avg time  |  max time  |%varavg| %total
---------------------------------------------------------------
Pair    | 58.308     | 58.308     | 58.308     |   0.0 | 56.00
Neigh   | 42.378     | 42.378     | 42.378     |   0.0 | 40.70
Comm    | 1.5231     | 1.5231     | 1.5231     |   0.0 |  1.46
Output  | 0.00022483 | 0.00022483 | 0.00022483 |   0.0 |  0.00
Modify  | 1.5656     | 1.5656     | 1.5656     |   0.0 |  1.50
Other   |            | 0.3481     |            |       |  0.33

Nlocal:    19652 ave 19652 max 19652 min
Histogram: 1 0 0 0 0 0 0 0 0 0
Nghost:    20832 ave 20832 max 20832 min
Histogram: 1 0 0 0 0 0 0 0 0 0
Neighs:    1.98939e+06 ave 1.98939e+06 max 1.98939e+06 min
Histogram: 1 0 0 0 0 0 0 0 0 0

Total # of neighbors = 1989390
Ave neighs/atom = 101.231
Neighbor list builds = 495
Dangerous builds not checked
Setting up Verlet run ...
  Unit style    : metal
  Current step  : 128495
  Time step     : 0.001
Per MPI rank memory allocation (min/avg/max) = 19.34 | 19.34 | 19.34 Mbytes
Step Temp Press TotEng PotEng Enthalpy 
  128495    225.88252   -856.11696   -84048.437   -84622.199   -84166.005 
  130000    201.61231    454.82994   -84172.051   -84684.165   -84109.684 
Loop time of 325.275 on 1 procs for 1505 steps with 19652 atoms

Performance: 0.400 ns/day, 60.036 hours/ns, 4.627 timesteps/s
99.4% CPU use with 1 MPI tasks x no OpenMP threads

MPI task timing breakdown:
Section |  min time  |  avg time  |  max time  |%varavg| %total
---------------------------------------------------------------
Pair    | 181.62     | 181.62     | 181.62     |   0.0 | 55.84
Neigh   | 132.44     | 132.44     | 132.44     |   0.0 | 40.72
Comm    | 4.9936     | 4.9936     | 4.9936     |   0.0 |  1.54
Output  | 0.046224   | 0.046224   | 0.046224   |   0.0 |  0.01
Modify  | 5.0746     | 5.0746     | 5.0746     |   0.0 |  1.56
Other   |            | 1.099      |            |       |  0.34

Nlocal:    19652 ave 19652 max 19652 min
Histogram: 1 0 0 0 0 0 0 0 0 0
Nghost:    20830 ave 20830 max 20830 min
Histogram: 1 0 0 0 0 0 0 0 0 0
Neighs:    1.99287e+06 ave 1.99287e+06 max 1.99287e+06 min
Histogram: 1 0 0 0 0 0 0 0 0 0

Total # of neighbors = 1992868
Ave neighs/atom = 101.408
Neighbor list builds = 1505
Dangerous builds not checked
Setting up Verlet run ...
  Unit style    : metal
  Current step  : 130000
  Time step     : 0.001
Per MPI rank memory allocation (min/avg/max) = 19.34 | 19.34 | 19.34 Mbytes
Step Temp Press TotEng PotEng Enthalpy 
  130000    201.61231    454.82994   -84172.051   -84684.165   -84109.684 
  130495    177.22493    268.11444   -84303.061   -84753.228   -84266.329 
Loop time of 113.457 on 1 procs for 495 steps with 19652 atoms

Performance: 0.377 ns/day, 63.668 hours/ns, 4.363 timesteps/s
99.2% CPU use with 1 MPI tasks x no OpenMP threads

MPI task timing breakdown:
Section |  min time  |  avg time  |  max time  |%varavg| %total
---------------------------------------------------------------
Pair    | 63.061     | 63.061     | 63.061     |   0.0 | 55.58
Neigh   | 46.595     | 46.595     | 46.595     |   0.0 | 41.07
Comm    | 1.6688     | 1.6688     | 1.6688     |   0.0 |  1.47
Output  | 0.00031996 | 0.00031996 | 0.00031996 |   0.0 |  0.00
Modify  | 1.7436     | 1.7436     | 1.7436     |   0.0 |  1.54
Other   |            | 0.3888     |            |       |  0.34

Nlocal:    19652 ave 19652 max 19652 min
Histogram: 1 0 0 0 0 0 0 0 0 0
Nghost:    20817 ave 20817 max 20817 min
Histogram: 1 0 0 0 0 0 0 0 0 0
Neighs:    1.99462e+06 ave 1.99462e+06 max 1.99462e+06 min
Histogram: 1 0 0 0 0 0 0 0 0 0

Total # of neighbors = 1994617
Ave neighs/atom = 101.497
Neighbor list builds = 495
Dangerous builds not checked
Setting up Verlet run ...
  Unit style    : metal
  Current step  : 130495
  Time step     : 0.001
Per MPI rank memory allocation (min/avg/max) = 19.34 | 19.34 | 19.34 Mbytes
Step Temp Press TotEng PotEng Enthalpy 
  130495    177.22493    268.11444   -84303.061   -84753.228   -84266.329 
  132000    149.18416    348.85487   -84436.006   -84814.947    -84388.26 
Loop time of 323.431 on 1 procs for 1505 steps with 19652 atoms

Performance: 0.402 ns/day, 59.696 hours/ns, 4.653 timesteps/s
98.8% CPU use with 1 MPI tasks x no OpenMP threads

MPI task timing breakdown:
Section |  min time  |  avg time  |  max time  |%varavg| %total
---------------------------------------------------------------
Pair    | 179.9      | 179.9      | 179.9      |   0.0 | 55.62
Neigh   | 132.87     | 132.87     | 132.87     |   0.0 | 41.08
Comm    | 4.656      | 4.656      | 4.656      |   0.0 |  1.44
Output  | 0.04474    | 0.04474    | 0.04474    |   0.0 |  0.01
Modify  | 4.8314     | 4.8314     | 4.8314     |   0.0 |  1.49
Other   |            | 1.127      |            |       |  0.35

Nlocal:    19652 ave 19652 max 19652 min
Histogram: 1 0 0 0 0 0 0 0 0 0
Nghost:    20843 ave 20843 max 20843 min
Histogram: 1 0 0 0 0 0 0 0 0 0
Neighs:    1.9968e+06 ave 1.9968e+06 max 1.9968e+06 min
Histogram: 1 0 0 0 0 0 0 0 0 0

Total # of neighbors = 1996800
Ave neighs/atom = 101.608
Neighbor list builds = 1505
Dangerous builds not checked
Setting up Verlet run ...
  Unit style    : metal
  Current step  : 132000
  Time step     : 0.001
Per MPI rank memory allocation (min/avg/max) = 19.34 | 19.34 | 19.34 Mbytes
Step Temp Press TotEng PotEng Enthalpy 
  132000    149.18416    348.85487   -84436.006   -84814.947    -84388.26 
  132495    127.98004    254.26774   -84555.571   -84880.652     -84520.8 
Loop time of 107.465 on 1 procs for 495 steps with 19652 atoms

Performance: 0.398 ns/day, 60.306 hours/ns, 4.606 timesteps/s
99.4% CPU use with 1 MPI tasks x no OpenMP threads

MPI task timing breakdown:
Section |  min time  |  avg time  |  max time  |%varavg| %total
---------------------------------------------------------------
Pair    | 59.94      | 59.94      | 59.94      |   0.0 | 55.78
Neigh   | 43.705     | 43.705     | 43.705     |   0.0 | 40.67
Comm    | 1.702      | 1.702      | 1.702      |   0.0 |  1.58
Output  | 0.00019717 | 0.00019717 | 0.00019717 |   0.0 |  0.00
Modify  | 1.7382     | 1.7382     | 1.7382     |   0.0 |  1.62
Other   |            | 0.3801     |            |       |  0.35

Nlocal:    19652 ave 19652 max 19652 min
Histogram: 1 0 0 0 0 0 0 0 0 0
Nghost:    20804 ave 20804 max 20804 min
Histogram: 1 0 0 0 0 0 0 0 0 0
Neighs:    1.99882e+06 ave 1.99882e+06 max 1.99882e+06 min
Histogram: 1 0 0 0 0 0 0 0 0 0

Total # of neighbors = 1998822
Ave neighs/atom = 101.711
Neighbor list builds = 495
Dangerous builds not checked
Setting up Verlet run ...
  Unit style    : metal
  Current step  : 132495
  Time step     : 0.001
Per MPI rank memory allocation (min/avg/max) = 19.34 | 19.34 | 19.34 Mbytes
Step Temp Press TotEng PotEng Enthalpy 
  132495    127.98004    254.26774   -84555.571   -84880.652     -84520.8 
  134000    98.730676   -613.42507   -84699.809   -84950.594   -84783.643 
Loop time of 337.276 on 1 procs for 1505 steps with 19652 atoms

Performance: 0.386 ns/day, 62.251 hours/ns, 4.462 timesteps/s
98.6% CPU use with 1 MPI tasks x no OpenMP threads

MPI task timing breakdown:
Section |  min time  |  avg time  |  max time  |%varavg| %total
---------------------------------------------------------------
Pair    | 187.34     | 187.34     | 187.34     |   0.0 | 55.54
Neigh   | 138.61     | 138.61     | 138.61     |   0.0 | 41.10
Comm    | 4.7786     | 4.7786     | 4.7786     |   0.0 |  1.42
Output  | 0.45997    | 0.45997    | 0.45997    |   0.0 |  0.14
Modify  | 4.9978     | 4.9978     | 4.9978     |   0.0 |  1.48
Other   |            | 1.094      |            |       |  0.32

Nlocal:    19652 ave 19652 max 19652 min
Histogram: 1 0 0 0 0 0 0 0 0 0
Nghost:    20844 ave 20844 max 20844 min
Histogram: 1 0 0 0 0 0 0 0 0 0
Neighs:    2.00042e+06 ave 2.00042e+06 max 2.00042e+06 min
Histogram: 1 0 0 0 0 0 0 0 0 0

Total # of neighbors = 2000424
Ave neighs/atom = 101.792
Neighbor list builds = 1505
Dangerous builds not checked
Total wall time: 6:39:28
