LAMMPS (12 Dec 2018)
Lattice spacing in x,y,z = 4 4 4
Created orthogonal box = (0 0 0) to (68 68 68)
  1 by 1 by 1 MPI processor grid
Created 19652 atoms
  Time spent = 0.004462 secs
Setting atom values ...
  19480 settings made for type/fraction
Neighbor list info ...
  update every 1 steps, delay 0 steps, check no
  max neighbors/atom: 2000, page size: 100000
  master list distance cutoff = 8.5
  ghost atom cutoff = 8.5
  binsize = 4.25, bins = 16 16 16
  1 neighbor lists, perpetual/occasional/extra = 1 0 0
  (1) pair eam/alloy, perpetual
      attributes: half, newton on
      pair build: half/bin/atomonly/newton
      stencil: half/bin/3d/newton
      bin: standard
Setting up Verlet run ...
  Unit style    : metal
  Current step  : 0
  Time step     : 0.001
Per MPI rank memory allocation (min/avg/max) = 18.19 | 18.19 | 18.19 Mbytes
Step Temp Press TotEng PotEng Enthalpy 
       0          300    701299.96   -100796.08   -101558.11    36836.167 
    1000    314.34352    594158.72   -100796.02   -101594.49    15809.429 
Loop time of 154.257 on 1 procs for 1000 steps with 19652 atoms

Performance: 0.560 ns/day, 42.849 hours/ns, 6.483 timesteps/s
99.1% CPU use with 1 MPI tasks x no OpenMP threads

MPI task timing breakdown:
Section |  min time  |  avg time  |  max time  |%varavg| %total
---------------------------------------------------------------
Pair    | 86.942     | 86.942     | 86.942     |   0.0 | 56.36
Neigh   | 65.365     | 65.365     | 65.365     |   0.0 | 42.37
Comm    | 1.1734     | 1.1734     | 1.1734     |   0.0 |  0.76
Output  | 0.00018287 | 0.00018287 | 0.00018287 |   0.0 |  0.00
Modify  | 0.40205    | 0.40205    | 0.40205    |   0.0 |  0.26
Other   |            | 0.3739     |            |       |  0.24

Nlocal:    19652 ave 19652 max 19652 min
Histogram: 1 0 0 0 0 0 0 0 0 0
Nghost:    19555 ave 19555 max 19555 min
Histogram: 1 0 0 0 0 0 0 0 0 0
Neighs:    1.58354e+06 ave 1.58354e+06 max 1.58354e+06 min
Histogram: 1 0 0 0 0 0 0 0 0 0

Total # of neighbors = 1583536
Ave neighs/atom = 80.5789
Neighbor list builds = 1000
Dangerous builds not checked
Setting up Verlet run ...
  Unit style    : metal
  Current step  : 1000
  Time step     : 0.001
Per MPI rank memory allocation (min/avg/max) = 18.19 | 18.19 | 18.19 Mbytes
Step Temp Press TotEng PotEng Enthalpy 
    1000    314.34352    594158.72   -100796.02   -101594.49    15809.429 
    2000     288.5754    9.9947735   -122598.33   -123331.34   -122595.46 
Loop time of 131.977 on 1 procs for 1000 steps with 19652 atoms

Performance: 0.655 ns/day, 36.660 hours/ns, 7.577 timesteps/s
98.6% CPU use with 1 MPI tasks x no OpenMP threads

MPI task timing breakdown:
Section |  min time  |  avg time  |  max time  |%varavg| %total
---------------------------------------------------------------
Pair    | 71.315     | 71.315     | 71.315     |   0.0 | 54.04
Neigh   | 57.715     | 57.715     | 57.715     |   0.0 | 43.73
Comm    | 1.0794     | 1.0794     | 1.0794     |   0.0 |  0.82
Output  | 0.055841   | 0.055841   | 0.055841   |   0.0 |  0.04
Modify  | 1.4397     | 1.4397     | 1.4397     |   0.0 |  1.09
Other   |            | 0.3714     |            |       |  0.28

Nlocal:    19652 ave 19652 max 19652 min
Histogram: 1 0 0 0 0 0 0 0 0 0
Nghost:    14817 ave 14817 max 14817 min
Histogram: 1 0 0 0 0 0 0 0 0 0
Neighs:    1.08068e+06 ave 1.08068e+06 max 1.08068e+06 min
Histogram: 1 0 0 0 0 0 0 0 0 0

Total # of neighbors = 1080683
Ave neighs/atom = 54.991
Neighbor list builds = 1000
Dangerous builds not checked
Setting up Verlet run ...
  Unit style    : metal
  Current step  : 2000
  Time step     : 0.001
Per MPI rank memory allocation (min/avg/max) = 18.19 | 18.19 | 18.19 Mbytes
Step Temp Press TotEng PotEng Enthalpy 
    2000     288.5754    9.9947735   -122598.33   -123331.34   -122595.46 
    4000    812.97909    522.36162   -119847.73   -121912.77      -119697 
    6000    1372.4007    207.49359   -116651.11   -120137.13   -116590.51 
    8000     1895.102    1245.7587   -113189.96   -118003.69   -112821.19 
   10000    2389.4082   -799.58495   -108043.73   -114113.04   -108287.64 
Loop time of 1017.89 on 1 procs for 8000 steps with 19652 atoms

Performance: 0.679 ns/day, 35.343 hours/ns, 7.859 timesteps/s
98.9% CPU use with 1 MPI tasks x no OpenMP threads

MPI task timing breakdown:
Section |  min time  |  avg time  |  max time  |%varavg| %total
---------------------------------------------------------------
Pair    | 554.12     | 554.12     | 554.12     |   0.0 | 54.44
Neigh   | 438.89     | 438.89     | 438.89     |   0.0 | 43.12
Comm    | 8.9677     | 8.9677     | 8.9677     |   0.0 |  0.88
Output  | 0.27596    | 0.27596    | 0.27596    |   0.0 |  0.03
Modify  | 12.392     | 12.392     | 12.392     |   0.0 |  1.22
Other   |            | 3.244      |            |       |  0.32

Nlocal:    19652 ave 19652 max 19652 min
Histogram: 1 0 0 0 0 0 0 0 0 0
Nghost:    15430 ave 15430 max 15430 min
Histogram: 1 0 0 0 0 0 0 0 0 0
Neighs:    1.00439e+06 ave 1.00439e+06 max 1.00439e+06 min
Histogram: 1 0 0 0 0 0 0 0 0 0

Total # of neighbors = 1004389
Ave neighs/atom = 51.1087
Neighbor list builds = 8000
Dangerous builds not checked
Setting up Verlet run ...
  Unit style    : metal
  Current step  : 10000
  Time step     : 0.001
Per MPI rank memory allocation (min/avg/max) = 18.19 | 18.19 | 18.19 Mbytes
Step Temp Press TotEng PotEng Enthalpy 
   10000    2389.4082   -799.58495   -108043.73   -114113.04   -108287.64 
   12000    2432.3173   -1557.8101   -106916.79    -113095.1      -107396 
   14000    2435.7263    295.72302   -106866.25   -113053.22   -106775.52 
   16000    2472.3136    1413.9917   -106873.82   -113153.72   -106440.94 
   18000     2462.753   -858.51823   -106805.56   -113061.17   -107069.52 
   20000    2421.6987    540.84825   -106882.43   -113033.76   -106716.57 
   22000    2433.5317   -191.14042   -106909.13   -113090.52   -106967.74 
   24000    2490.9637   -397.36996   -106762.74   -113090.01   -106884.83 
   26000    2453.8919     -1259.24   -106840.57   -113073.68   -107227.75 
   28000    2447.1289    1084.2186   -106895.63   -113111.56   -106563.48 
   30000    2445.1193    575.67121   -106843.64   -113054.47   -106667.13 
   32000    2417.3564    -1208.151   -106911.51   -113051.81   -107283.07 
   34000    2451.7623    66.536921   -106910.94   -113138.64   -106890.52 
   36000    2457.5031    501.96599   -106818.57   -113060.85   -106664.66 
   38000    2464.0371    905.00102   -106786.77   -113045.65   -106509.49 
   40000    2439.8765   -1117.2452   -106875.88   -113073.39   -107219.31 
Loop time of 3775.14 on 1 procs for 30000 steps with 19652 atoms

Performance: 0.687 ns/day, 34.955 hours/ns, 7.947 timesteps/s
99.3% CPU use with 1 MPI tasks x no OpenMP threads

MPI task timing breakdown:
Section |  min time  |  avg time  |  max time  |%varavg| %total
---------------------------------------------------------------
Pair    | 2013.9     | 2013.9     | 2013.9     |   0.0 | 53.35
Neigh   | 1673       | 1673       | 1673       |   0.0 | 44.32
Comm    | 31.817     | 31.817     | 31.817     |   0.0 |  0.84
Output  | 2.0425     | 2.0425     | 2.0425     |   0.0 |  0.05
Modify  | 42.767     | 42.767     | 42.767     |   0.0 |  1.13
Other   |            | 11.58      |            |       |  0.31

Nlocal:    19652 ave 19652 max 19652 min
Histogram: 1 0 0 0 0 0 0 0 0 0
Nghost:    15686 ave 15686 max 15686 min
Histogram: 1 0 0 0 0 0 0 0 0 0
Neighs:    997920 ave 997920 max 997920 min
Histogram: 1 0 0 0 0 0 0 0 0 0

Total # of neighbors = 997920
Ave neighs/atom = 50.7796
Neighbor list builds = 30000
Dangerous builds not checked
Setting up Verlet run ...
  Unit style    : metal
  Current step  : 40000
  Time step     : 0.001
Per MPI rank memory allocation (min/avg/max) = 18.19 | 18.19 | 18.19 Mbytes
Step Temp Press TotEng PotEng Enthalpy 
   40000    2439.8765   -1117.2452   -106875.88   -113073.39   -107219.31 
   40495    2408.5261   -848.76829   -107117.15   -113235.03   -107377.59 
Loop time of 61.8789 on 1 procs for 495 steps with 19652 atoms

Performance: 0.691 ns/day, 34.724 hours/ns, 7.999 timesteps/s
100.0% CPU use with 1 MPI tasks x no OpenMP threads

MPI task timing breakdown:
Section |  min time  |  avg time  |  max time  |%varavg| %total
---------------------------------------------------------------
Pair    | 33.145     | 33.145     | 33.145     |   0.0 | 53.56
Neigh   | 27.29      | 27.29      | 27.29      |   0.0 | 44.10
Comm    | 0.52884    | 0.52884    | 0.52884    |   0.0 |  0.85
Output  | 0.00013304 | 0.00013304 | 0.00013304 |   0.0 |  0.00
Modify  | 0.72393    | 0.72393    | 0.72393    |   0.0 |  1.17
Other   |            | 0.1903     |            |       |  0.31

Nlocal:    19652 ave 19652 max 19652 min
Histogram: 1 0 0 0 0 0 0 0 0 0
Nghost:    15582 ave 15582 max 15582 min
Histogram: 1 0 0 0 0 0 0 0 0 0
Neighs:    999087 ave 999087 max 999087 min
Histogram: 1 0 0 0 0 0 0 0 0 0

Total # of neighbors = 999087
Ave neighs/atom = 50.8389
Neighbor list builds = 495
Dangerous builds not checked
Setting up Verlet run ...
  Unit style    : metal
  Current step  : 40495
  Time step     : 0.001
Per MPI rank memory allocation (min/avg/max) = 18.19 | 18.19 | 18.19 Mbytes
Step Temp Press TotEng PotEng Enthalpy 
   40495    2408.5261   -848.76829   -107117.15   -113235.03   -107377.59 
   42000    2420.5452    1710.5467   -107219.94   -113368.35   -106697.55 
Loop time of 186.279 on 1 procs for 1505 steps with 19652 atoms

Performance: 0.698 ns/day, 34.381 hours/ns, 8.079 timesteps/s
98.3% CPU use with 1 MPI tasks x no OpenMP threads

MPI task timing breakdown:
Section |  min time  |  avg time  |  max time  |%varavg| %total
---------------------------------------------------------------
Pair    | 98.713     | 98.713     | 98.713     |   0.0 | 52.99
Neigh   | 80.917     | 80.917     | 80.917     |   0.0 | 43.44
Comm    | 1.6115     | 1.6115     | 1.6115     |   0.0 |  0.87
Output  | 2.3578     | 2.3578     | 2.3578     |   0.0 |  1.27
Modify  | 2.1227     | 2.1227     | 2.1227     |   0.0 |  1.14
Other   |            | 0.5568     |            |       |  0.30

Nlocal:    19652 ave 19652 max 19652 min
Histogram: 1 0 0 0 0 0 0 0 0 0
Nghost:    15647 ave 15647 max 15647 min
Histogram: 1 0 0 0 0 0 0 0 0 0
Neighs:    1.00445e+06 ave 1.00445e+06 max 1.00445e+06 min
Histogram: 1 0 0 0 0 0 0 0 0 0

Total # of neighbors = 1004453
Ave neighs/atom = 51.112
Neighbor list builds = 1505
Dangerous builds not checked
Setting up Verlet run ...
  Unit style    : metal
  Current step  : 42000
  Time step     : 0.001
Per MPI rank memory allocation (min/avg/max) = 18.19 | 18.19 | 18.19 Mbytes
Step Temp Press TotEng PotEng Enthalpy 
   42000    2420.5452    1710.5467   -107219.94   -113368.35   -106697.55 
   42495    2357.1546    1739.6805   -107416.89   -113404.27   -106885.97 
Loop time of 54.2158 on 1 procs for 495 steps with 19652 atoms

Performance: 0.789 ns/day, 30.424 hours/ns, 9.130 timesteps/s
99.7% CPU use with 1 MPI tasks x no OpenMP threads

MPI task timing breakdown:
Section |  min time  |  avg time  |  max time  |%varavg| %total
---------------------------------------------------------------
Pair    | 28.611     | 28.611     | 28.611     |   0.0 | 52.77
Neigh   | 24.372     | 24.372     | 24.372     |   0.0 | 44.95
Comm    | 0.4521     | 0.4521     | 0.4521     |   0.0 |  0.83
Output  | 0.00017905 | 0.00017905 | 0.00017905 |   0.0 |  0.00
Modify  | 0.6124     | 0.6124     | 0.6124     |   0.0 |  1.13
Other   |            | 0.1681     |            |       |  0.31

Nlocal:    19652 ave 19652 max 19652 min
Histogram: 1 0 0 0 0 0 0 0 0 0
Nghost:    15601 ave 15601 max 15601 min
Histogram: 1 0 0 0 0 0 0 0 0 0
Neighs:    1.00512e+06 ave 1.00512e+06 max 1.00512e+06 min
Histogram: 1 0 0 0 0 0 0 0 0 0

Total # of neighbors = 1005117
Ave neighs/atom = 51.1458
Neighbor list builds = 495
Dangerous builds not checked
Setting up Verlet run ...
  Unit style    : metal
  Current step  : 42495
  Time step     : 0.001
Per MPI rank memory allocation (min/avg/max) = 18.19 | 18.19 | 18.19 Mbytes
Step Temp Press TotEng PotEng Enthalpy 
   42495    2357.1546    1739.6805   -107416.89   -113404.27   -106885.97 
   44000    2341.4501    733.02438   -107535.72   -113483.22   -107311.92 
Loop time of 166.712 on 1 procs for 1505 steps with 19652 atoms

Performance: 0.780 ns/day, 30.770 hours/ns, 9.028 timesteps/s
98.9% CPU use with 1 MPI tasks x no OpenMP threads

MPI task timing breakdown:
Section |  min time  |  avg time  |  max time  |%varavg| %total
---------------------------------------------------------------
Pair    | 87.433     | 87.433     | 87.433     |   0.0 | 52.45
Neigh   | 75.341     | 75.341     | 75.341     |   0.0 | 45.19
Comm    | 1.4039     | 1.4039     | 1.4039     |   0.0 |  0.84
Output  | 0.11953    | 0.11953    | 0.11953    |   0.0 |  0.07
Modify  | 1.8998     | 1.8998     | 1.8998     |   0.0 |  1.14
Other   |            | 0.5147     |            |       |  0.31

Nlocal:    19652 ave 19652 max 19652 min
Histogram: 1 0 0 0 0 0 0 0 0 0
Nghost:    15642 ave 15642 max 15642 min
Histogram: 1 0 0 0 0 0 0 0 0 0
Neighs:    1.00514e+06 ave 1.00514e+06 max 1.00514e+06 min
Histogram: 1 0 0 0 0 0 0 0 0 0

Total # of neighbors = 1005142
Ave neighs/atom = 51.1471
Neighbor list builds = 1505
Dangerous builds not checked
Setting up Verlet run ...
  Unit style    : metal
  Current step  : 44000
  Time step     : 0.001
Per MPI rank memory allocation (min/avg/max) = 18.19 | 18.19 | 18.19 Mbytes
Step Temp Press TotEng PotEng Enthalpy 
   44000    2341.4501    733.02438   -107535.72   -113483.22   -107311.92 
   44495    2311.9785    1283.9909   -107765.39   -113638.03   -107373.94 
Loop time of 54.2254 on 1 procs for 495 steps with 19652 atoms

Performance: 0.789 ns/day, 30.430 hours/ns, 9.129 timesteps/s
99.7% CPU use with 1 MPI tasks x no OpenMP threads

MPI task timing breakdown:
Section |  min time  |  avg time  |  max time  |%varavg| %total
---------------------------------------------------------------
Pair    | 28.61      | 28.61      | 28.61      |   0.0 | 52.76
Neigh   | 24.362     | 24.362     | 24.362     |   0.0 | 44.93
Comm    | 0.46273    | 0.46273    | 0.46273    |   0.0 |  0.85
Output  | 0.00013399 | 0.00013399 | 0.00013399 |   0.0 |  0.00
Modify  | 0.62082    | 0.62082    | 0.62082    |   0.0 |  1.14
Other   |            | 0.1698     |            |       |  0.31

Nlocal:    19652 ave 19652 max 19652 min
Histogram: 1 0 0 0 0 0 0 0 0 0
Nghost:    15654 ave 15654 max 15654 min
Histogram: 1 0 0 0 0 0 0 0 0 0
Neighs:    1.00654e+06 ave 1.00654e+06 max 1.00654e+06 min
Histogram: 1 0 0 0 0 0 0 0 0 0

Total # of neighbors = 1006543
Ave neighs/atom = 51.2183
Neighbor list builds = 495
Dangerous builds not checked
Setting up Verlet run ...
  Unit style    : metal
  Current step  : 44495
  Time step     : 0.001
Per MPI rank memory allocation (min/avg/max) = 18.19 | 18.19 | 18.19 Mbytes
Step Temp Press TotEng PotEng Enthalpy 
   44495    2311.9785    1283.9909   -107765.39   -113638.03   -107373.94 
   46000    2310.9345    1706.0922   -107802.16   -113672.14   -107282.59 
Loop time of 164.877 on 1 procs for 1505 steps with 19652 atoms

Performance: 0.789 ns/day, 30.431 hours/ns, 9.128 timesteps/s
99.8% CPU use with 1 MPI tasks x no OpenMP threads

MPI task timing breakdown:
Section |  min time  |  avg time  |  max time  |%varavg| %total
---------------------------------------------------------------
Pair    | 86.386     | 86.386     | 86.386     |   0.0 | 52.39
Neigh   | 74.599     | 74.599     | 74.599     |   0.0 | 45.25
Comm    | 1.3936     | 1.3936     | 1.3936     |   0.0 |  0.85
Output  | 0.12557    | 0.12557    | 0.12557    |   0.0 |  0.08
Modify  | 1.8574     | 1.8574     | 1.8574     |   0.0 |  1.13
Other   |            | 0.5154     |            |       |  0.31

Nlocal:    19652 ave 19652 max 19652 min
Histogram: 1 0 0 0 0 0 0 0 0 0
Nghost:    15725 ave 15725 max 15725 min
Histogram: 1 0 0 0 0 0 0 0 0 0
Neighs:    1.00765e+06 ave 1.00765e+06 max 1.00765e+06 min
Histogram: 1 0 0 0 0 0 0 0 0 0

Total # of neighbors = 1007648
Ave neighs/atom = 51.2746
Neighbor list builds = 1505
Dangerous builds not checked
Setting up Verlet run ...
  Unit style    : metal
  Current step  : 46000
  Time step     : 0.001
Per MPI rank memory allocation (min/avg/max) = 18.19 | 18.19 | 18.19 Mbytes
Step Temp Press TotEng PotEng Enthalpy 
   46000    2310.9345    1706.0922   -107802.16   -113672.14   -107282.59 
   46495    2263.4732    1586.3084   -108049.55   -113798.98   -107566.85 
Loop time of 51.2746 on 1 procs for 495 steps with 19652 atoms

Performance: 0.834 ns/day, 28.774 hours/ns, 9.654 timesteps/s
99.8% CPU use with 1 MPI tasks x no OpenMP threads

MPI task timing breakdown:
Section |  min time  |  avg time  |  max time  |%varavg| %total
---------------------------------------------------------------
Pair    | 26.51      | 26.51      | 26.51      |   0.0 | 51.70
Neigh   | 23.596     | 23.596     | 23.596     |   0.0 | 46.02
Comm    | 0.42367    | 0.42367    | 0.42367    |   0.0 |  0.83
Output  | 0.00019121 | 0.00019121 | 0.00019121 |   0.0 |  0.00
Modify  | 0.58228    | 0.58228    | 0.58228    |   0.0 |  1.14
Other   |            | 0.163      |            |       |  0.32

Nlocal:    19652 ave 19652 max 19652 min
Histogram: 1 0 0 0 0 0 0 0 0 0
Nghost:    15736 ave 15736 max 15736 min
Histogram: 1 0 0 0 0 0 0 0 0 0
Neighs:    1.00878e+06 ave 1.00878e+06 max 1.00878e+06 min
Histogram: 1 0 0 0 0 0 0 0 0 0

Total # of neighbors = 1008782
Ave neighs/atom = 51.3323
Neighbor list builds = 495
Dangerous builds not checked
Setting up Verlet run ...
  Unit style    : metal
  Current step  : 46495
  Time step     : 0.001
Per MPI rank memory allocation (min/avg/max) = 18.19 | 18.19 | 18.19 Mbytes
Step Temp Press TotEng PotEng Enthalpy 
   46495    2263.4732    1586.3084   -108049.55   -113798.98   -107566.85 
   48000    2238.9974    394.69455   -108166.24   -113853.49   -108046.01 
Loop time of 156.398 on 1 procs for 1505 steps with 19652 atoms

Performance: 0.831 ns/day, 28.866 hours/ns, 9.623 timesteps/s
99.9% CPU use with 1 MPI tasks x no OpenMP threads

MPI task timing breakdown:
Section |  min time  |  avg time  |  max time  |%varavg| %total
---------------------------------------------------------------
Pair    | 80.915     | 80.915     | 80.915     |   0.0 | 51.74
Neigh   | 71.777     | 71.777     | 71.777     |   0.0 | 45.89
Comm    | 1.3135     | 1.3135     | 1.3135     |   0.0 |  0.84
Output  | 0.13175    | 0.13175    | 0.13175    |   0.0 |  0.08
Modify  | 1.7652     | 1.7652     | 1.7652     |   0.0 |  1.13
Other   |            | 0.4954     |            |       |  0.32

Nlocal:    19652 ave 19652 max 19652 min
Histogram: 1 0 0 0 0 0 0 0 0 0
Nghost:    15650 ave 15650 max 15650 min
Histogram: 1 0 0 0 0 0 0 0 0 0
Neighs:    1.0075e+06 ave 1.0075e+06 max 1.0075e+06 min
Histogram: 1 0 0 0 0 0 0 0 0 0

Total # of neighbors = 1007504
Ave neighs/atom = 51.2673
Neighbor list builds = 1505
Dangerous builds not checked
Setting up Verlet run ...
  Unit style    : metal
  Current step  : 48000
  Time step     : 0.001
Per MPI rank memory allocation (min/avg/max) = 18.19 | 18.19 | 18.19 Mbytes
Step Temp Press TotEng PotEng Enthalpy 
   48000    2238.9974    394.69455   -108166.24   -113853.49   -108046.01 
   48495    2209.7507    297.73617   -108380.15   -113993.12   -108289.57 
Loop time of 48.1502 on 1 procs for 495 steps with 19652 atoms

Performance: 0.888 ns/day, 27.020 hours/ns, 10.280 timesteps/s
100.0% CPU use with 1 MPI tasks x no OpenMP threads

MPI task timing breakdown:
Section |  min time  |  avg time  |  max time  |%varavg| %total
---------------------------------------------------------------
Pair    | 24.606     | 24.606     | 24.606     |   0.0 | 51.10
Neigh   | 22.425     | 22.425     | 22.425     |   0.0 | 46.57
Comm    | 0.41123    | 0.41123    | 0.41123    |   0.0 |  0.85
Output  | 0.0001359  | 0.0001359  | 0.0001359  |   0.0 |  0.00
Modify  | 0.55156    | 0.55156    | 0.55156    |   0.0 |  1.15
Other   |            | 0.1568     |            |       |  0.33

Nlocal:    19652 ave 19652 max 19652 min
Histogram: 1 0 0 0 0 0 0 0 0 0
Nghost:    15730 ave 15730 max 15730 min
Histogram: 1 0 0 0 0 0 0 0 0 0
Neighs:    1.00869e+06 ave 1.00869e+06 max 1.00869e+06 min
Histogram: 1 0 0 0 0 0 0 0 0 0

Total # of neighbors = 1008692
Ave neighs/atom = 51.3277
Neighbor list builds = 495
Dangerous builds not checked
Setting up Verlet run ...
  Unit style    : metal
  Current step  : 48495
  Time step     : 0.001
Per MPI rank memory allocation (min/avg/max) = 18.19 | 18.19 | 18.19 Mbytes
Step Temp Press TotEng PotEng Enthalpy 
   48495    2209.7507    297.73617   -108380.15   -113993.12   -108289.57 
   50000    2200.4667    513.85799   -108525.47   -114114.86   -108369.31 
Loop time of 165.132 on 1 procs for 1505 steps with 19652 atoms

Performance: 0.787 ns/day, 30.478 hours/ns, 9.114 timesteps/s
99.2% CPU use with 1 MPI tasks x no OpenMP threads

MPI task timing breakdown:
Section |  min time  |  avg time  |  max time  |%varavg| %total
---------------------------------------------------------------
Pair    | 86.876     | 86.876     | 86.876     |   0.0 | 52.61
Neigh   | 74.385     | 74.385     | 74.385     |   0.0 | 45.05
Comm    | 1.3983     | 1.3983     | 1.3983     |   0.0 |  0.85
Output  | 0.12178    | 0.12178    | 0.12178    |   0.0 |  0.07
Modify  | 1.8437     | 1.8437     | 1.8437     |   0.0 |  1.12
Other   |            | 0.5074     |            |       |  0.31

Nlocal:    19652 ave 19652 max 19652 min
Histogram: 1 0 0 0 0 0 0 0 0 0
Nghost:    15696 ave 15696 max 15696 min
Histogram: 1 0 0 0 0 0 0 0 0 0
Neighs:    1.00968e+06 ave 1.00968e+06 max 1.00968e+06 min
Histogram: 1 0 0 0 0 0 0 0 0 0

Total # of neighbors = 1009685
Ave neighs/atom = 51.3782
Neighbor list builds = 1505
Dangerous builds not checked
Setting up Verlet run ...
  Unit style    : metal
  Current step  : 50000
  Time step     : 0.001
Per MPI rank memory allocation (min/avg/max) = 18.19 | 18.19 | 18.19 Mbytes
Step Temp Press TotEng PotEng Enthalpy 
   50000    2200.4667    513.85799   -108525.47   -114114.86   -108369.31 
   50495    2159.0771    741.22871   -108663.62   -114147.87   -108438.71 
Loop time of 52.3561 on 1 procs for 495 steps with 19652 atoms

Performance: 0.817 ns/day, 29.381 hours/ns, 9.454 timesteps/s
100.0% CPU use with 1 MPI tasks x no OpenMP threads

MPI task timing breakdown:
Section |  min time  |  avg time  |  max time  |%varavg| %total
---------------------------------------------------------------
Pair    | 27.309     | 27.309     | 27.309     |   0.0 | 52.16
Neigh   | 23.839     | 23.839     | 23.839     |   0.0 | 45.53
Comm    | 0.44701    | 0.44701    | 0.44701    |   0.0 |  0.85
Output  | 0.00014496 | 0.00014496 | 0.00014496 |   0.0 |  0.00
Modify  | 0.59369    | 0.59369    | 0.59369    |   0.0 |  1.13
Other   |            | 0.1671     |            |       |  0.32

Nlocal:    19652 ave 19652 max 19652 min
Histogram: 1 0 0 0 0 0 0 0 0 0
Nghost:    15803 ave 15803 max 15803 min
Histogram: 1 0 0 0 0 0 0 0 0 0
Neighs:    1.01209e+06 ave 1.01209e+06 max 1.01209e+06 min
Histogram: 1 0 0 0 0 0 0 0 0 0

Total # of neighbors = 1012092
Ave neighs/atom = 51.5007
Neighbor list builds = 495
Dangerous builds not checked
Setting up Verlet run ...
  Unit style    : metal
  Current step  : 50495
  Time step     : 0.001
Per MPI rank memory allocation (min/avg/max) = 18.19 | 18.19 | 18.19 Mbytes
Step Temp Press TotEng PotEng Enthalpy 
   50495    2159.0771    741.22871   -108663.62   -114147.87   -108438.71 
   52000    2165.0638    520.95759   -108902.18   -114401.64   -108744.26 
Loop time of 169.808 on 1 procs for 1505 steps with 19652 atoms

Performance: 0.766 ns/day, 31.341 hours/ns, 8.863 timesteps/s
99.8% CPU use with 1 MPI tasks x no OpenMP threads

MPI task timing breakdown:
Section |  min time  |  avg time  |  max time  |%varavg| %total
---------------------------------------------------------------
Pair    | 89.246     | 89.246     | 89.246     |   0.0 | 52.56
Neigh   | 76.569     | 76.569     | 76.569     |   0.0 | 45.09
Comm    | 1.4191     | 1.4191     | 1.4191     |   0.0 |  0.84
Output  | 0.11608    | 0.11608    | 0.11608    |   0.0 |  0.07
Modify  | 1.9311     | 1.9311     | 1.9311     |   0.0 |  1.14
Other   |            | 0.5264     |            |       |  0.31

Nlocal:    19652 ave 19652 max 19652 min
Histogram: 1 0 0 0 0 0 0 0 0 0
Nghost:    15662 ave 15662 max 15662 min
Histogram: 1 0 0 0 0 0 0 0 0 0
Neighs:    1.01296e+06 ave 1.01296e+06 max 1.01296e+06 min
Histogram: 1 0 0 0 0 0 0 0 0 0

Total # of neighbors = 1012962
Ave neighs/atom = 51.545
Neighbor list builds = 1505
Dangerous builds not checked
Setting up Verlet run ...
  Unit style    : metal
  Current step  : 52000
  Time step     : 0.001
Per MPI rank memory allocation (min/avg/max) = 18.19 | 18.19 | 18.19 Mbytes
Step Temp Press TotEng PotEng Enthalpy 
   52000    2165.0638    520.95759   -108902.18   -114401.64   -108744.26 
   52495    2100.9624    1072.4742   -109027.39   -114364.02    -108702.7 
Loop time of 54.6089 on 1 procs for 495 steps with 19652 atoms

Performance: 0.783 ns/day, 30.645 hours/ns, 9.064 timesteps/s
100.0% CPU use with 1 MPI tasks x no OpenMP threads

MPI task timing breakdown:
Section |  min time  |  avg time  |  max time  |%varavg| %total
---------------------------------------------------------------
Pair    | 28.713     | 28.713     | 28.713     |   0.0 | 52.58
Neigh   | 24.652     | 24.652     | 24.652     |   0.0 | 45.14
Comm    | 0.45674    | 0.45674    | 0.45674    |   0.0 |  0.84
Output  | 0.00018406 | 0.00018406 | 0.00018406 |   0.0 |  0.00
Modify  | 0.61843    | 0.61843    | 0.61843    |   0.0 |  1.13
Other   |            | 0.1692     |            |       |  0.31

Nlocal:    19652 ave 19652 max 19652 min
Histogram: 1 0 0 0 0 0 0 0 0 0
Nghost:    15702 ave 15702 max 15702 min
Histogram: 1 0 0 0 0 0 0 0 0 0
Neighs:    1.01407e+06 ave 1.01407e+06 max 1.01407e+06 min
Histogram: 1 0 0 0 0 0 0 0 0 0

Total # of neighbors = 1014069
Ave neighs/atom = 51.6013
Neighbor list builds = 495
Dangerous builds not checked
Setting up Verlet run ...
  Unit style    : metal
  Current step  : 52495
  Time step     : 0.001
Per MPI rank memory allocation (min/avg/max) = 18.19 | 18.19 | 18.19 Mbytes
Step Temp Press TotEng PotEng Enthalpy 
   52495    2100.9624    1072.4742   -109027.39   -114364.02    -108702.7 
   54000    2112.5829    1645.7716   -109046.97   -114413.13   -108549.31 
Loop time of 160.62 on 1 procs for 1505 steps with 19652 atoms

Performance: 0.810 ns/day, 29.646 hours/ns, 9.370 timesteps/s
99.9% CPU use with 1 MPI tasks x no OpenMP threads

MPI task timing breakdown:
Section |  min time  |  avg time  |  max time  |%varavg| %total
---------------------------------------------------------------
Pair    | 84.522     | 84.522     | 84.522     |   0.0 | 52.62
Neigh   | 72.275     | 72.275     | 72.275     |   0.0 | 45.00
Comm    | 1.3607     | 1.3607     | 1.3607     |   0.0 |  0.85
Output  | 0.18837    | 0.18837    | 0.18837    |   0.0 |  0.12
Modify  | 1.7786     | 1.7786     | 1.7786     |   0.0 |  1.11
Other   |            | 0.4946     |            |       |  0.31

Nlocal:    19652 ave 19652 max 19652 min
Histogram: 1 0 0 0 0 0 0 0 0 0
Nghost:    15748 ave 15748 max 15748 min
Histogram: 1 0 0 0 0 0 0 0 0 0
Neighs:    1.01592e+06 ave 1.01592e+06 max 1.01592e+06 min
Histogram: 1 0 0 0 0 0 0 0 0 0

Total # of neighbors = 1015916
Ave neighs/atom = 51.6953
Neighbor list builds = 1505
Dangerous builds not checked
Setting up Verlet run ...
  Unit style    : metal
  Current step  : 54000
  Time step     : 0.001
Per MPI rank memory allocation (min/avg/max) = 18.19 | 18.19 | 18.19 Mbytes
Step Temp Press TotEng PotEng Enthalpy 
   54000    2112.5829    1645.7716   -109046.97   -114413.13   -108549.31 
   54495    2087.5541    1133.2266   -109366.71   -114669.29   -109024.32 
Loop time of 59.6578 on 1 procs for 495 steps with 19652 atoms

Performance: 0.717 ns/day, 33.478 hours/ns, 8.297 timesteps/s
100.0% CPU use with 1 MPI tasks x no OpenMP threads

MPI task timing breakdown:
Section |  min time  |  avg time  |  max time  |%varavg| %total
---------------------------------------------------------------
Pair    | 32.143     | 32.143     | 32.143     |   0.0 | 53.88
Neigh   | 26.12      | 26.12      | 26.12      |   0.0 | 43.78
Comm    | 0.51445    | 0.51445    | 0.51445    |   0.0 |  0.86
Output  | 0.00011301 | 0.00011301 | 0.00011301 |   0.0 |  0.00
Modify  | 0.69678    | 0.69678    | 0.69678    |   0.0 |  1.17
Other   |            | 0.1832     |            |       |  0.31

Nlocal:    19652 ave 19652 max 19652 min
Histogram: 1 0 0 0 0 0 0 0 0 0
Nghost:    15732 ave 15732 max 15732 min
Histogram: 1 0 0 0 0 0 0 0 0 0
Neighs:    1.01686e+06 ave 1.01686e+06 max 1.01686e+06 min
Histogram: 1 0 0 0 0 0 0 0 0 0

Total # of neighbors = 1016858
Ave neighs/atom = 51.7432
Neighbor list builds = 495
Dangerous builds not checked
Setting up Verlet run ...
  Unit style    : metal
  Current step  : 54495
  Time step     : 0.001
Per MPI rank memory allocation (min/avg/max) = 18.19 | 18.19 | 18.19 Mbytes
Step Temp Press TotEng PotEng Enthalpy 
   54495    2087.5541    1133.2266   -109366.71   -114669.29   -109024.32 
   56000    2049.3772   -334.13428   -109536.26   -114741.86   -109637.38 
Loop time of 136.095 on 1 procs for 1505 steps with 19652 atoms

Performance: 0.955 ns/day, 25.119 hours/ns, 11.058 timesteps/s
99.8% CPU use with 1 MPI tasks x no OpenMP threads

MPI task timing breakdown:
Section |  min time  |  avg time  |  max time  |%varavg| %total
---------------------------------------------------------------
Pair    | 68.418     | 68.418     | 68.418     |   0.0 | 50.27
Neigh   | 64.416     | 64.416     | 64.416     |   0.0 | 47.33
Comm    | 1.0936     | 1.0936     | 1.0936     |   0.0 |  0.80
Output  | 0.2511     | 0.2511     | 0.2511     |   0.0 |  0.18
Modify  | 1.5181     | 1.5181     | 1.5181     |   0.0 |  1.12
Other   |            | 0.3976     |            |       |  0.29

Nlocal:    19652 ave 19652 max 19652 min
Histogram: 1 0 0 0 0 0 0 0 0 0
Nghost:    15684 ave 15684 max 15684 min
Histogram: 1 0 0 0 0 0 0 0 0 0
Neighs:    1.0154e+06 ave 1.0154e+06 max 1.0154e+06 min
Histogram: 1 0 0 0 0 0 0 0 0 0

Total # of neighbors = 1015405
Ave neighs/atom = 51.6693
Neighbor list builds = 1505
Dangerous builds not checked
Setting up Verlet run ...
  Unit style    : metal
  Current step  : 56000
  Time step     : 0.001
Per MPI rank memory allocation (min/avg/max) = 18.19 | 18.19 | 18.19 Mbytes
Step Temp Press TotEng PotEng Enthalpy 
   56000    2049.3772   -334.13428   -109536.26   -114741.86   -109637.38 
   56495    2019.2225    111.16882   -109685.45   -114814.46   -109651.84 
Loop time of 44.2736 on 1 procs for 495 steps with 19652 atoms

Performance: 0.966 ns/day, 24.845 hours/ns, 11.180 timesteps/s
99.8% CPU use with 1 MPI tasks x no OpenMP threads

MPI task timing breakdown:
Section |  min time  |  avg time  |  max time  |%varavg| %total
---------------------------------------------------------------
Pair    | 22.172     | 22.172     | 22.172     |   0.0 | 50.08
Neigh   | 21.11      | 21.11      | 21.11      |   0.0 | 47.68
Comm    | 0.35757    | 0.35757    | 0.35757    |   0.0 |  0.81
Output  | 0.00011206 | 0.00011206 | 0.00011206 |   0.0 |  0.00
Modify  | 0.50209    | 0.50209    | 0.50209    |   0.0 |  1.13
Other   |            | 0.1315     |            |       |  0.30

Nlocal:    19652 ave 19652 max 19652 min
Histogram: 1 0 0 0 0 0 0 0 0 0
Nghost:    15742 ave 15742 max 15742 min
Histogram: 1 0 0 0 0 0 0 0 0 0
Neighs:    1.01641e+06 ave 1.01641e+06 max 1.01641e+06 min
Histogram: 1 0 0 0 0 0 0 0 0 0

Total # of neighbors = 1016414
Ave neighs/atom = 51.7206
Neighbor list builds = 495
Dangerous builds not checked
Setting up Verlet run ...
  Unit style    : metal
  Current step  : 56495
  Time step     : 0.001
Per MPI rank memory allocation (min/avg/max) = 18.19 | 18.19 | 18.19 Mbytes
Step Temp Press TotEng PotEng Enthalpy 
   56495    2019.2225    111.16882   -109685.45   -114814.46   -109651.84 
   58000    2000.2949    938.46438   -109834.96   -114915.89   -109551.93 
Loop time of 156.92 on 1 procs for 1505 steps with 19652 atoms

Performance: 0.829 ns/day, 28.963 hours/ns, 9.591 timesteps/s
99.1% CPU use with 1 MPI tasks x no OpenMP threads

MPI task timing breakdown:
Section |  min time  |  avg time  |  max time  |%varavg| %total
---------------------------------------------------------------
Pair    | 79.799     | 79.799     | 79.799     |   0.0 | 50.85
Neigh   | 73.139     | 73.139     | 73.139     |   0.0 | 46.61
Comm    | 1.2687     | 1.2687     | 1.2687     |   0.0 |  0.81
Output  | 0.41985    | 0.41985    | 0.41985    |   0.0 |  0.27
Modify  | 1.8261     | 1.8261     | 1.8261     |   0.0 |  1.16
Other   |            | 0.4671     |            |       |  0.30

Nlocal:    19652 ave 19652 max 19652 min
Histogram: 1 0 0 0 0 0 0 0 0 0
Nghost:    15706 ave 15706 max 15706 min
Histogram: 1 0 0 0 0 0 0 0 0 0
Neighs:    1.01927e+06 ave 1.01927e+06 max 1.01927e+06 min
Histogram: 1 0 0 0 0 0 0 0 0 0

Total # of neighbors = 1019273
Ave neighs/atom = 51.8661
Neighbor list builds = 1505
Dangerous builds not checked
Setting up Verlet run ...
  Unit style    : metal
  Current step  : 58000
  Time step     : 0.001
Per MPI rank memory allocation (min/avg/max) = 18.19 | 18.19 | 18.19 Mbytes
Step Temp Press TotEng PotEng Enthalpy 
   58000    2000.2949    938.46438   -109834.96   -114915.89   -109551.93 
   58495    1962.0289    1217.2411   -110050.58   -115034.32   -109683.89 
Loop time of 50.404 on 1 procs for 495 steps with 19652 atoms

Performance: 0.849 ns/day, 28.285 hours/ns, 9.821 timesteps/s
99.1% CPU use with 1 MPI tasks x no OpenMP threads

MPI task timing breakdown:
Section |  min time  |  avg time  |  max time  |%varavg| %total
---------------------------------------------------------------
Pair    | 25.774     | 25.774     | 25.774     |   0.0 | 51.14
Neigh   | 23.482     | 23.482     | 23.482     |   0.0 | 46.59
Comm    | 0.41271    | 0.41271    | 0.41271    |   0.0 |  0.82
Output  | 0.00012112 | 0.00012112 | 0.00012112 |   0.0 |  0.00
Modify  | 0.58366    | 0.58366    | 0.58366    |   0.0 |  1.16
Other   |            | 0.151      |            |       |  0.30

Nlocal:    19652 ave 19652 max 19652 min
Histogram: 1 0 0 0 0 0 0 0 0 0
Nghost:    15742 ave 15742 max 15742 min
Histogram: 1 0 0 0 0 0 0 0 0 0
Neighs:    1.02005e+06 ave 1.02005e+06 max 1.02005e+06 min
Histogram: 1 0 0 0 0 0 0 0 0 0

Total # of neighbors = 1020048
Ave neighs/atom = 51.9056
Neighbor list builds = 495
Dangerous builds not checked
Setting up Verlet run ...
  Unit style    : metal
  Current step  : 58495
  Time step     : 0.001
Per MPI rank memory allocation (min/avg/max) = 18.19 | 18.19 | 18.19 Mbytes
Step Temp Press TotEng PotEng Enthalpy 
   58495    1962.0289    1217.2411   -110050.58   -115034.32   -109683.89 
   60000    1959.7483    1428.5871    -110236.3   -115214.24   -109806.63 
Loop time of 145.791 on 1 procs for 1505 steps with 19652 atoms

Performance: 0.892 ns/day, 26.909 hours/ns, 10.323 timesteps/s
99.8% CPU use with 1 MPI tasks x no OpenMP threads

MPI task timing breakdown:
Section |  min time  |  avg time  |  max time  |%varavg| %total
---------------------------------------------------------------
Pair    | 74.175     | 74.175     | 74.175     |   0.0 | 50.88
Neigh   | 68.236     | 68.236     | 68.236     |   0.0 | 46.80
Comm    | 1.1774     | 1.1774     | 1.1774     |   0.0 |  0.81
Output  | 0.1319     | 0.1319     | 0.1319     |   0.0 |  0.09
Modify  | 1.6444     | 1.6444     | 1.6444     |   0.0 |  1.13
Other   |            | 0.4272     |            |       |  0.29

Nlocal:    19652 ave 19652 max 19652 min
Histogram: 1 0 0 0 0 0 0 0 0 0
Nghost:    15709 ave 15709 max 15709 min
Histogram: 1 0 0 0 0 0 0 0 0 0
Neighs:    1.02208e+06 ave 1.02208e+06 max 1.02208e+06 min
Histogram: 1 0 0 0 0 0 0 0 0 0

Total # of neighbors = 1022077
Ave neighs/atom = 52.0088
Neighbor list builds = 1505
Dangerous builds not checked
Setting up Verlet run ...
  Unit style    : metal
  Current step  : 60000
  Time step     : 0.001
Per MPI rank memory allocation (min/avg/max) = 18.19 | 18.19 | 18.19 Mbytes
Step Temp Press TotEng PotEng Enthalpy 
   60000    1959.7483    1428.5871    -110236.3   -115214.24   -109806.63 
   60495    1912.9878    1486.6251   -110420.14    -115279.3   -109973.35 
Loop time of 46.5783 on 1 procs for 495 steps with 19652 atoms

Performance: 0.918 ns/day, 26.138 hours/ns, 10.627 timesteps/s
100.0% CPU use with 1 MPI tasks x no OpenMP threads

MPI task timing breakdown:
Section |  min time  |  avg time  |  max time  |%varavg| %total
---------------------------------------------------------------
Pair    | 23.677     | 23.677     | 23.677     |   0.0 | 50.83
Neigh   | 21.855     | 21.855     | 21.855     |   0.0 | 46.92
Comm    | 0.37853    | 0.37853    | 0.37853    |   0.0 |  0.81
Output  | 0.00012088 | 0.00012088 | 0.00012088 |   0.0 |  0.00
Modify  | 0.53046    | 0.53046    | 0.53046    |   0.0 |  1.14
Other   |            | 0.1366     |            |       |  0.29

Nlocal:    19652 ave 19652 max 19652 min
Histogram: 1 0 0 0 0 0 0 0 0 0
Nghost:    15776 ave 15776 max 15776 min
Histogram: 1 0 0 0 0 0 0 0 0 0
Neighs:    1.0232e+06 ave 1.0232e+06 max 1.0232e+06 min
Histogram: 1 0 0 0 0 0 0 0 0 0

Total # of neighbors = 1023200
Ave neighs/atom = 52.0659
Neighbor list builds = 495
Dangerous builds not checked
Setting up Verlet run ...
  Unit style    : metal
  Current step  : 60495
  Time step     : 0.001
Per MPI rank memory allocation (min/avg/max) = 18.19 | 18.19 | 18.19 Mbytes
Step Temp Press TotEng PotEng Enthalpy 
   60495    1912.9878    1486.6251   -110420.14    -115279.3   -109973.35 
   62000    1913.7583   -1420.7548    -110501.5   -115362.62   -110929.82 
Loop time of 143.124 on 1 procs for 1505 steps with 19652 atoms

Performance: 0.909 ns/day, 26.416 hours/ns, 10.515 timesteps/s
99.6% CPU use with 1 MPI tasks x no OpenMP threads

MPI task timing breakdown:
Section |  min time  |  avg time  |  max time  |%varavg| %total
---------------------------------------------------------------
Pair    | 71.94      | 71.94      | 71.94      |   0.0 | 50.26
Neigh   | 67.37      | 67.37      | 67.37      |   0.0 | 47.07
Comm    | 1.1671     | 1.1671     | 1.1671     |   0.0 |  0.82
Output  | 0.60155    | 0.60155    | 0.60155    |   0.0 |  0.42
Modify  | 1.6253     | 1.6253     | 1.6253     |   0.0 |  1.14
Other   |            | 0.42       |            |       |  0.29

Nlocal:    19652 ave 19652 max 19652 min
Histogram: 1 0 0 0 0 0 0 0 0 0
Nghost:    15738 ave 15738 max 15738 min
Histogram: 1 0 0 0 0 0 0 0 0 0
Neighs:    1.01979e+06 ave 1.01979e+06 max 1.01979e+06 min
Histogram: 1 0 0 0 0 0 0 0 0 0

Total # of neighbors = 1019788
Ave neighs/atom = 51.8923
Neighbor list builds = 1505
Dangerous builds not checked
Setting up Verlet run ...
  Unit style    : metal
  Current step  : 62000
  Time step     : 0.001
Per MPI rank memory allocation (min/avg/max) = 18.19 | 18.19 | 18.19 Mbytes
Step Temp Press TotEng PotEng Enthalpy 
   62000    1913.7583   -1420.7548    -110501.5   -115362.62   -110929.82 
   62495    1857.2735   -1211.2238   -110725.54   -115443.18   -111090.53 
Loop time of 52.1929 on 1 procs for 495 steps with 19652 atoms

Performance: 0.819 ns/day, 29.289 hours/ns, 9.484 timesteps/s
98.7% CPU use with 1 MPI tasks x no OpenMP threads

MPI task timing breakdown:
Section |  min time  |  avg time  |  max time  |%varavg| %total
---------------------------------------------------------------
Pair    | 26.752     | 26.752     | 26.752     |   0.0 | 51.26
Neigh   | 24.236     | 24.236     | 24.236     |   0.0 | 46.44
Comm    | 0.43192    | 0.43192    | 0.43192    |   0.0 |  0.83
Output  | 0.00010681 | 0.00010681 | 0.00010681 |   0.0 |  0.00
Modify  | 0.61873    | 0.61873    | 0.61873    |   0.0 |  1.19
Other   |            | 0.1545     |            |       |  0.30

Nlocal:    19652 ave 19652 max 19652 min
Histogram: 1 0 0 0 0 0 0 0 0 0
Nghost:    15680 ave 15680 max 15680 min
Histogram: 1 0 0 0 0 0 0 0 0 0
Neighs:    1.02064e+06 ave 1.02064e+06 max 1.02064e+06 min
Histogram: 1 0 0 0 0 0 0 0 0 0

Total # of neighbors = 1020645
Ave neighs/atom = 51.9359
Neighbor list builds = 495
Dangerous builds not checked
Setting up Verlet run ...
  Unit style    : metal
  Current step  : 62495
  Time step     : 0.001
Per MPI rank memory allocation (min/avg/max) = 18.19 | 18.19 | 18.19 Mbytes
Step Temp Press TotEng PotEng Enthalpy 
   62495    1857.2735   -1211.2238   -110725.54   -115443.18   -111090.53 
   64000     1854.829    210.20242   -110833.31   -115544.74    -110770.2 
Loop time of 151.635 on 1 procs for 1505 steps with 19652 atoms

Performance: 0.858 ns/day, 27.987 hours/ns, 9.925 timesteps/s
99.2% CPU use with 1 MPI tasks x no OpenMP threads

MPI task timing breakdown:
Section |  min time  |  avg time  |  max time  |%varavg| %total
---------------------------------------------------------------
Pair    | 77.165     | 77.165     | 77.165     |   0.0 | 50.89
Neigh   | 70.566     | 70.566     | 70.566     |   0.0 | 46.54
Comm    | 1.2698     | 1.2698     | 1.2698     |   0.0 |  0.84
Output  | 0.43712    | 0.43712    | 0.43712    |   0.0 |  0.29
Modify  | 1.7481     | 1.7481     | 1.7481     |   0.0 |  1.15
Other   |            | 0.4491     |            |       |  0.30

Nlocal:    19652 ave 19652 max 19652 min
Histogram: 1 0 0 0 0 0 0 0 0 0
Nghost:    15766 ave 15766 max 15766 min
Histogram: 1 0 0 0 0 0 0 0 0 0
Neighs:    1.02469e+06 ave 1.02469e+06 max 1.02469e+06 min
Histogram: 1 0 0 0 0 0 0 0 0 0

Total # of neighbors = 1024692
Ave neighs/atom = 52.1419
Neighbor list builds = 1505
Dangerous builds not checked
Setting up Verlet run ...
  Unit style    : metal
  Current step  : 64000
  Time step     : 0.001
Per MPI rank memory allocation (min/avg/max) = 18.19 | 18.19 | 18.19 Mbytes
Step Temp Press TotEng PotEng Enthalpy 
   64000     1854.829    210.20242   -110833.31   -115544.74    -110770.2 
   64495    1823.9351    658.47081   -111067.79   -115700.76   -110870.37 
Loop time of 45.8148 on 1 procs for 495 steps with 19652 atoms

Performance: 0.933 ns/day, 25.710 hours/ns, 10.804 timesteps/s
100.0% CPU use with 1 MPI tasks x no OpenMP threads

MPI task timing breakdown:
Section |  min time  |  avg time  |  max time  |%varavg| %total
---------------------------------------------------------------
Pair    | 22.965     | 22.965     | 22.965     |   0.0 | 50.13
Neigh   | 21.817     | 21.817     | 21.817     |   0.0 | 47.62
Comm    | 0.37551    | 0.37551    | 0.37551    |   0.0 |  0.82
Output  | 0.00013494 | 0.00013494 | 0.00013494 |   0.0 |  0.00
Modify  | 0.52057    | 0.52057    | 0.52057    |   0.0 |  1.14
Other   |            | 0.1364     |            |       |  0.30

Nlocal:    19652 ave 19652 max 19652 min
Histogram: 1 0 0 0 0 0 0 0 0 0
Nghost:    15781 ave 15781 max 15781 min
Histogram: 1 0 0 0 0 0 0 0 0 0
Neighs:    1.02631e+06 ave 1.02631e+06 max 1.02631e+06 min
Histogram: 1 0 0 0 0 0 0 0 0 0

Total # of neighbors = 1026309
Ave neighs/atom = 52.2242
Neighbor list builds = 495
Dangerous builds not checked
Setting up Verlet run ...
  Unit style    : metal
  Current step  : 64495
  Time step     : 0.001
Per MPI rank memory allocation (min/avg/max) = 18.19 | 18.19 | 18.19 Mbytes
Step Temp Press TotEng PotEng Enthalpy 
   64495    1823.9351    658.47081   -111067.79   -115700.76   -110870.37 
   66000    1807.6581   -252.87734   -111159.08    -115750.7   -111234.96 
Loop time of 147.322 on 1 procs for 1505 steps with 19652 atoms

Performance: 0.883 ns/day, 27.191 hours/ns, 10.216 timesteps/s
99.0% CPU use with 1 MPI tasks x no OpenMP threads

MPI task timing breakdown:
Section |  min time  |  avg time  |  max time  |%varavg| %total
---------------------------------------------------------------
Pair    | 74.33      | 74.33      | 74.33      |   0.0 | 50.45
Neigh   | 69.007     | 69.007     | 69.007     |   0.0 | 46.84
Comm    | 1.1986     | 1.1986     | 1.1986     |   0.0 |  0.81
Output  | 0.64868    | 0.64868    | 0.64868    |   0.0 |  0.44
Modify  | 1.7041     | 1.7041     | 1.7041     |   0.0 |  1.16
Other   |            | 0.4346     |            |       |  0.30

Nlocal:    19652 ave 19652 max 19652 min
Histogram: 1 0 0 0 0 0 0 0 0 0
Nghost:    15784 ave 15784 max 15784 min
Histogram: 1 0 0 0 0 0 0 0 0 0
Neighs:    1.02602e+06 ave 1.02602e+06 max 1.02602e+06 min
Histogram: 1 0 0 0 0 0 0 0 0 0

Total # of neighbors = 1026016
Ave neighs/atom = 52.2092
Neighbor list builds = 1505
Dangerous builds not checked
Setting up Verlet run ...
  Unit style    : metal
  Current step  : 66000
  Time step     : 0.001
Per MPI rank memory allocation (min/avg/max) = 18.19 | 18.19 | 18.19 Mbytes
Step Temp Press TotEng PotEng Enthalpy 
   66000    1807.6581   -252.87734   -111159.08    -115750.7   -111234.96 
   66495    1761.0881   -480.99904   -111415.12   -115888.44   -111559.34 
Loop time of 45.9851 on 1 procs for 495 steps with 19652 atoms

Performance: 0.930 ns/day, 25.805 hours/ns, 10.764 timesteps/s
100.0% CPU use with 1 MPI tasks x no OpenMP threads

MPI task timing breakdown:
Section |  min time  |  avg time  |  max time  |%varavg| %total
---------------------------------------------------------------
Pair    | 23.214     | 23.214     | 23.214     |   0.0 | 50.48
Neigh   | 21.74      | 21.74      | 21.74      |   0.0 | 47.28
Comm    | 0.37326    | 0.37326    | 0.37326    |   0.0 |  0.81
Output  | 0.00010204 | 0.00010204 | 0.00010204 |   0.0 |  0.00
Modify  | 0.52237    | 0.52237    | 0.52237    |   0.0 |  1.14
Other   |            | 0.136      |            |       |  0.30

Nlocal:    19652 ave 19652 max 19652 min
Histogram: 1 0 0 0 0 0 0 0 0 0
Nghost:    15733 ave 15733 max 15733 min
Histogram: 1 0 0 0 0 0 0 0 0 0
Neighs:    1.02663e+06 ave 1.02663e+06 max 1.02663e+06 min
Histogram: 1 0 0 0 0 0 0 0 0 0

Total # of neighbors = 1026634
Ave neighs/atom = 52.2407
Neighbor list builds = 495
Dangerous builds not checked
Setting up Verlet run ...
  Unit style    : metal
  Current step  : 66495
  Time step     : 0.001
Per MPI rank memory allocation (min/avg/max) = 18.19 | 18.19 | 18.19 Mbytes
Step Temp Press TotEng PotEng Enthalpy 
   66495    1761.0881   -480.99904   -111415.12   -115888.44   -111559.34 
   68000    1749.8882    280.73948   -111542.37   -115987.24   -111458.35 
Loop time of 143.177 on 1 procs for 1505 steps with 19652 atoms

Performance: 0.908 ns/day, 26.426 hours/ns, 10.511 timesteps/s
99.7% CPU use with 1 MPI tasks x no OpenMP threads

MPI task timing breakdown:
Section |  min time  |  avg time  |  max time  |%varavg| %total
---------------------------------------------------------------
Pair    | 72.5       | 72.5       | 72.5       |   0.0 | 50.64
Neigh   | 67.28      | 67.28      | 67.28      |   0.0 | 46.99
Comm    | 1.1643     | 1.1643     | 1.1643     |   0.0 |  0.81
Output  | 0.18764    | 0.18764    | 0.18764    |   0.0 |  0.13
Modify  | 1.6253     | 1.6253     | 1.6253     |   0.0 |  1.14
Other   |            | 0.4198     |            |       |  0.29

Nlocal:    19652 ave 19652 max 19652 min
Histogram: 1 0 0 0 0 0 0 0 0 0
Nghost:    15772 ave 15772 max 15772 min
Histogram: 1 0 0 0 0 0 0 0 0 0
Neighs:    1.02891e+06 ave 1.02891e+06 max 1.02891e+06 min
Histogram: 1 0 0 0 0 0 0 0 0 0

Total # of neighbors = 1028911
Ave neighs/atom = 52.3566
Neighbor list builds = 1505
Dangerous builds not checked
Setting up Verlet run ...
  Unit style    : metal
  Current step  : 68000
  Time step     : 0.001
Per MPI rank memory allocation (min/avg/max) = 18.19 | 18.19 | 18.19 Mbytes
Step Temp Press TotEng PotEng Enthalpy 
   68000    1749.8882    280.73948   -111542.37   -115987.24   -111458.35 
   68495    1720.3217    330.12842   -111778.23   -116148.01   -111679.52 
Loop time of 46.0988 on 1 procs for 495 steps with 19652 atoms

Performance: 0.928 ns/day, 25.869 hours/ns, 10.738 timesteps/s
99.6% CPU use with 1 MPI tasks x no OpenMP threads

MPI task timing breakdown:
Section |  min time  |  avg time  |  max time  |%varavg| %total
---------------------------------------------------------------
Pair    | 23.318     | 23.318     | 23.318     |   0.0 | 50.58
Neigh   | 21.75      | 21.75      | 21.75      |   0.0 | 47.18
Comm    | 0.37801    | 0.37801    | 0.37801    |   0.0 |  0.82
Output  | 0.00011611 | 0.00011611 | 0.00011611 |   0.0 |  0.00
Modify  | 0.51734    | 0.51734    | 0.51734    |   0.0 |  1.12
Other   |            | 0.1353     |            |       |  0.29

Nlocal:    19652 ave 19652 max 19652 min
Histogram: 1 0 0 0 0 0 0 0 0 0
Nghost:    15814 ave 15814 max 15814 min
Histogram: 1 0 0 0 0 0 0 0 0 0
Neighs:    1.03063e+06 ave 1.03063e+06 max 1.03063e+06 min
Histogram: 1 0 0 0 0 0 0 0 0 0

Total # of neighbors = 1030632
Ave neighs/atom = 52.4441
Neighbor list builds = 495
Dangerous builds not checked
Setting up Verlet run ...
  Unit style    : metal
  Current step  : 68495
  Time step     : 0.001
Per MPI rank memory allocation (min/avg/max) = 18.19 | 18.19 | 18.19 Mbytes
Step Temp Press TotEng PotEng Enthalpy 
   68495    1720.3217    330.12842   -111778.23   -116148.01   -111679.52 
   70000    1673.5333   -190.57115   -112004.32   -116255.25   -112061.28 
Loop time of 137.67 on 1 procs for 1505 steps with 19652 atoms

Performance: 0.945 ns/day, 25.410 hours/ns, 10.932 timesteps/s
99.7% CPU use with 1 MPI tasks x no OpenMP threads

MPI task timing breakdown:
Section |  min time  |  avg time  |  max time  |%varavg| %total
---------------------------------------------------------------
Pair    | 69.037     | 69.037     | 69.037     |   0.0 | 50.15
Neigh   | 65.233     | 65.233     | 65.233     |   0.0 | 47.38
Comm    | 1.1142     | 1.1142     | 1.1142     |   0.0 |  0.81
Output  | 0.33358    | 0.33358    | 0.33358    |   0.0 |  0.24
Modify  | 1.5521     | 1.5521     | 1.5521     |   0.0 |  1.13
Other   |            | 0.4009     |            |       |  0.29

Nlocal:    19652 ave 19652 max 19652 min
Histogram: 1 0 0 0 0 0 0 0 0 0
Nghost:    15791 ave 15791 max 15791 min
Histogram: 1 0 0 0 0 0 0 0 0 0
Neighs:    1.03112e+06 ave 1.03112e+06 max 1.03112e+06 min
Histogram: 1 0 0 0 0 0 0 0 0 0

Total # of neighbors = 1031124
Ave neighs/atom = 52.4692
Neighbor list builds = 1505
Dangerous builds not checked
Setting up Verlet run ...
  Unit style    : metal
  Current step  : 70000
  Time step     : 0.001
Per MPI rank memory allocation (min/avg/max) = 18.19 | 18.19 | 18.19 Mbytes
Step Temp Press TotEng PotEng Enthalpy 
   70000    1673.5333   -190.57115   -112004.32   -116255.25   -112061.28 
   70495    1670.4098   -325.65682   -112101.52   -116344.52    -112198.8 
Loop time of 44.0749 on 1 procs for 495 steps with 19652 atoms

Performance: 0.970 ns/day, 24.733 hours/ns, 11.231 timesteps/s
100.0% CPU use with 1 MPI tasks x no OpenMP threads

MPI task timing breakdown:
Section |  min time  |  avg time  |  max time  |%varavg| %total
---------------------------------------------------------------
Pair    | 22.076     | 22.076     | 22.076     |   0.0 | 50.09
Neigh   | 21.022     | 21.022     | 21.022     |   0.0 | 47.70
Comm    | 0.35405    | 0.35405    | 0.35405    |   0.0 |  0.80
Output  | 0.00011802 | 0.00011802 | 0.00011802 |   0.0 |  0.00
Modify  | 0.4932     | 0.4932     | 0.4932     |   0.0 |  1.12
Other   |            | 0.1293     |            |       |  0.29

Nlocal:    19652 ave 19652 max 19652 min
Histogram: 1 0 0 0 0 0 0 0 0 0
Nghost:    15785 ave 15785 max 15785 min
Histogram: 1 0 0 0 0 0 0 0 0 0
Neighs:    1.0317e+06 ave 1.0317e+06 max 1.0317e+06 min
Histogram: 1 0 0 0 0 0 0 0 0 0

Total # of neighbors = 1031698
Ave neighs/atom = 52.4984
Neighbor list builds = 495
Dangerous builds not checked
Setting up Verlet run ...
  Unit style    : metal
  Current step  : 70495
  Time step     : 0.001
Per MPI rank memory allocation (min/avg/max) = 18.19 | 18.19 | 18.19 Mbytes
Step Temp Press TotEng PotEng Enthalpy 
   70495    1670.4098   -325.65682   -112101.52   -116344.52    -112198.8 
   72000    1654.6945    951.39824   -112269.88   -116472.95    -111986.4 
Loop time of 139.412 on 1 procs for 1505 steps with 19652 atoms

Performance: 0.933 ns/day, 25.731 hours/ns, 10.795 timesteps/s
99.6% CPU use with 1 MPI tasks x no OpenMP threads

MPI task timing breakdown:
Section |  min time  |  avg time  |  max time  |%varavg| %total
---------------------------------------------------------------
Pair    | 70.045     | 70.045     | 70.045     |   0.0 | 50.24
Neigh   | 65.872     | 65.872     | 65.872     |   0.0 | 47.25
Comm    | 1.1288     | 1.1288     | 1.1288     |   0.0 |  0.81
Output  | 0.38447    | 0.38447    | 0.38447    |   0.0 |  0.28
Modify  | 1.5724     | 1.5724     | 1.5724     |   0.0 |  1.13
Other   |            | 0.4095     |            |       |  0.29

Nlocal:    19652 ave 19652 max 19652 min
Histogram: 1 0 0 0 0 0 0 0 0 0
Nghost:    15816 ave 15816 max 15816 min
Histogram: 1 0 0 0 0 0 0 0 0 0
Neighs:    1.03496e+06 ave 1.03496e+06 max 1.03496e+06 min
Histogram: 1 0 0 0 0 0 0 0 0 0

Total # of neighbors = 1034960
Ave neighs/atom = 52.6644
Neighbor list builds = 1505
Dangerous builds not checked
Setting up Verlet run ...
  Unit style    : metal
  Current step  : 72000
  Time step     : 0.001
Per MPI rank memory allocation (min/avg/max) = 18.19 | 18.19 | 18.19 Mbytes
Step Temp Press TotEng PotEng Enthalpy 
   72000    1654.6945    951.39824   -112269.88   -116472.95    -111986.4 
   72495    1628.9666    390.89319   -112487.71   -116625.44   -112371.28 
Loop time of 45.9599 on 1 procs for 495 steps with 19652 atoms

Performance: 0.931 ns/day, 25.791 hours/ns, 10.770 timesteps/s
99.8% CPU use with 1 MPI tasks x no OpenMP threads

MPI task timing breakdown:
Section |  min time  |  avg time  |  max time  |%varavg| %total
---------------------------------------------------------------
Pair    | 23.233     | 23.233     | 23.233     |   0.0 | 50.55
Neigh   | 21.682     | 21.682     | 21.682     |   0.0 | 47.18
Comm    | 0.38036    | 0.38036    | 0.38036    |   0.0 |  0.83
Output  | 0.00011706 | 0.00011706 | 0.00011706 |   0.0 |  0.00
Modify  | 0.5272     | 0.5272     | 0.5272     |   0.0 |  1.15
Other   |            | 0.1367     |            |       |  0.30

Nlocal:    19652 ave 19652 max 19652 min
Histogram: 1 0 0 0 0 0 0 0 0 0
Nghost:    15841 ave 15841 max 15841 min
Histogram: 1 0 0 0 0 0 0 0 0 0
Neighs:    1.03569e+06 ave 1.03569e+06 max 1.03569e+06 min
Histogram: 1 0 0 0 0 0 0 0 0 0

Total # of neighbors = 1035692
Ave neighs/atom = 52.7016
Neighbor list builds = 495
Dangerous builds not checked
Setting up Verlet run ...
  Unit style    : metal
  Current step  : 72495
  Time step     : 0.001
Per MPI rank memory allocation (min/avg/max) = 18.19 | 18.19 | 18.19 Mbytes
Step Temp Press TotEng PotEng Enthalpy 
   72495    1628.9666    390.89319   -112487.71   -116625.44   -112371.28 
   74000    1600.5338    769.08913   -112637.08   -116702.58   -112408.23 
Loop time of 151.624 on 1 procs for 1505 steps with 19652 atoms

Performance: 0.858 ns/day, 27.985 hours/ns, 9.926 timesteps/s
99.0% CPU use with 1 MPI tasks x no OpenMP threads

MPI task timing breakdown:
Section |  min time  |  avg time  |  max time  |%varavg| %total
---------------------------------------------------------------
Pair    | 77.297     | 77.297     | 77.297     |   0.0 | 50.98
Neigh   | 70.714     | 70.714     | 70.714     |   0.0 | 46.64
Comm    | 1.2301     | 1.2301     | 1.2301     |   0.0 |  0.81
Output  | 0.19075    | 0.19075    | 0.19075    |   0.0 |  0.13
Modify  | 1.7465     | 1.7465     | 1.7465     |   0.0 |  1.15
Other   |            | 0.4451     |            |       |  0.29

Nlocal:    19652 ave 19652 max 19652 min
Histogram: 1 0 0 0 0 0 0 0 0 0
Nghost:    15788 ave 15788 max 15788 min
Histogram: 1 0 0 0 0 0 0 0 0 0
Neighs:    1.03691e+06 ave 1.03691e+06 max 1.03691e+06 min
Histogram: 1 0 0 0 0 0 0 0 0 0

Total # of neighbors = 1036913
Ave neighs/atom = 52.7637
Neighbor list builds = 1505
Dangerous builds not checked
Setting up Verlet run ...
  Unit style    : metal
  Current step  : 74000
  Time step     : 0.001
Per MPI rank memory allocation (min/avg/max) = 18.19 | 18.19 | 18.19 Mbytes
Step Temp Press TotEng PotEng Enthalpy 
   74000    1600.5338    769.08913   -112637.08   -116702.58   -112408.23 
   74495     1559.004   -58.292803   -112830.42   -116790.43   -112847.77 
Loop time of 45.8743 on 1 procs for 495 steps with 19652 atoms

Performance: 0.932 ns/day, 25.743 hours/ns, 10.790 timesteps/s
98.7% CPU use with 1 MPI tasks x no OpenMP threads

MPI task timing breakdown:
Section |  min time  |  avg time  |  max time  |%varavg| %total
---------------------------------------------------------------
Pair    | 23.163     | 23.163     | 23.163     |   0.0 | 50.49
Neigh   | 21.682     | 21.682     | 21.682     |   0.0 | 47.26
Comm    | 0.36773    | 0.36773    | 0.36773    |   0.0 |  0.80
Output  | 0.00011992 | 0.00011992 | 0.00011992 |   0.0 |  0.00
Modify  | 0.52425    | 0.52425    | 0.52425    |   0.0 |  1.14
Other   |            | 0.1367     |            |       |  0.30

Nlocal:    19652 ave 19652 max 19652 min
Histogram: 1 0 0 0 0 0 0 0 0 0
Nghost:    15816 ave 15816 max 15816 min
Histogram: 1 0 0 0 0 0 0 0 0 0
Neighs:    1.03702e+06 ave 1.03702e+06 max 1.03702e+06 min
Histogram: 1 0 0 0 0 0 0 0 0 0

Total # of neighbors = 1037021
Ave neighs/atom = 52.7692
Neighbor list builds = 495
Dangerous builds not checked
Setting up Verlet run ...
  Unit style    : metal
  Current step  : 74495
  Time step     : 0.001
Per MPI rank memory allocation (min/avg/max) = 18.19 | 18.19 | 18.19 Mbytes
Step Temp Press TotEng PotEng Enthalpy 
   74495     1559.004   -58.292803   -112830.42   -116790.43   -112847.77 
   76000    1556.6747    1479.2592   -112975.63   -116929.73   -112536.65 
Loop time of 149.416 on 1 procs for 1505 steps with 19652 atoms

Performance: 0.870 ns/day, 27.578 hours/ns, 10.073 timesteps/s
99.3% CPU use with 1 MPI tasks x no OpenMP threads

MPI task timing breakdown:
Section |  min time  |  avg time  |  max time  |%varavg| %total
---------------------------------------------------------------
Pair    | 76.005     | 76.005     | 76.005     |   0.0 | 50.87
Neigh   | 69.913     | 69.913     | 69.913     |   0.0 | 46.79
Comm    | 1.2141     | 1.2141     | 1.2141     |   0.0 |  0.81
Output  | 0.11827    | 0.11827    | 0.11827    |   0.0 |  0.08
Modify  | 1.7084     | 1.7084     | 1.7084     |   0.0 |  1.14
Other   |            | 0.4576     |            |       |  0.31

Nlocal:    19652 ave 19652 max 19652 min
Histogram: 1 0 0 0 0 0 0 0 0 0
Nghost:    15870 ave 15870 max 15870 min
Histogram: 1 0 0 0 0 0 0 0 0 0
Neighs:    1.04109e+06 ave 1.04109e+06 max 1.04109e+06 min
Histogram: 1 0 0 0 0 0 0 0 0 0

Total # of neighbors = 1041090
Ave neighs/atom = 52.9763
Neighbor list builds = 1505
Dangerous builds not checked
Setting up Verlet run ...
  Unit style    : metal
  Current step  : 76000
  Time step     : 0.001
Per MPI rank memory allocation (min/avg/max) = 18.19 | 18.19 | 18.19 Mbytes
Step Temp Press TotEng PotEng Enthalpy 
   76000    1556.6747    1479.2592   -112975.63   -116929.73   -112536.65 
   76495    1510.5249   -135.20382   -113193.92   -117030.79   -113234.09 
Loop time of 59.0493 on 1 procs for 495 steps with 19652 atoms

Performance: 0.724 ns/day, 33.137 hours/ns, 8.383 timesteps/s
98.4% CPU use with 1 MPI tasks x no OpenMP threads

MPI task timing breakdown:
Section |  min time  |  avg time  |  max time  |%varavg| %total
---------------------------------------------------------------
Pair    | 31.1       | 31.1       | 31.1       |   0.0 | 52.67
Neigh   | 26.569     | 26.569     | 26.569     |   0.0 | 44.99
Comm    | 0.49245    | 0.49245    | 0.49245    |   0.0 |  0.83
Output  | 0.00016809 | 0.00016809 | 0.00016809 |   0.0 |  0.00
Modify  | 0.69228    | 0.69228    | 0.69228    |   0.0 |  1.17
Other   |            | 0.1948     |            |       |  0.33

Nlocal:    19652 ave 19652 max 19652 min
Histogram: 1 0 0 0 0 0 0 0 0 0
Nghost:    15866 ave 15866 max 15866 min
Histogram: 1 0 0 0 0 0 0 0 0 0
Neighs:    1.03984e+06 ave 1.03984e+06 max 1.03984e+06 min
Histogram: 1 0 0 0 0 0 0 0 0 0

Total # of neighbors = 1039844
Ave neighs/atom = 52.9129
Neighbor list builds = 495
Dangerous builds not checked
Setting up Verlet run ...
  Unit style    : metal
  Current step  : 76495
  Time step     : 0.001
Per MPI rank memory allocation (min/avg/max) = 18.19 | 18.19 | 18.19 Mbytes
Step Temp Press TotEng PotEng Enthalpy 
   76495    1510.5249   -135.20382   -113193.92   -117030.79   -113234.09 
   78000    1504.8296   -427.48228   -113348.74   -117171.15   -113475.67 
Loop time of 163.173 on 1 procs for 1505 steps with 19652 atoms

Performance: 0.797 ns/day, 30.117 hours/ns, 9.223 timesteps/s
99.5% CPU use with 1 MPI tasks x no OpenMP threads

MPI task timing breakdown:
Section |  min time  |  avg time  |  max time  |%varavg| %total
---------------------------------------------------------------
Pair    | 84.929     | 84.929     | 84.929     |   0.0 | 52.05
Neigh   | 74.248     | 74.248     | 74.248     |   0.0 | 45.50
Comm    | 1.3799     | 1.3799     | 1.3799     |   0.0 |  0.85
Output  | 0.22039    | 0.22039    | 0.22039    |   0.0 |  0.14
Modify  | 1.8737     | 1.8737     | 1.8737     |   0.0 |  1.15
Other   |            | 0.5213     |            |       |  0.32

Nlocal:    19652 ave 19652 max 19652 min
Histogram: 1 0 0 0 0 0 0 0 0 0
Nghost:    15829 ave 15829 max 15829 min
Histogram: 1 0 0 0 0 0 0 0 0 0
Neighs:    1.04077e+06 ave 1.04077e+06 max 1.04077e+06 min
Histogram: 1 0 0 0 0 0 0 0 0 0

Total # of neighbors = 1040770
Ave neighs/atom = 52.96
Neighbor list builds = 1505
Dangerous builds not checked
Setting up Verlet run ...
  Unit style    : metal
  Current step  : 78000
  Time step     : 0.001
Per MPI rank memory allocation (min/avg/max) = 18.19 | 18.19 | 18.19 Mbytes
Step Temp Press TotEng PotEng Enthalpy 
   78000    1504.8296   -427.48228   -113348.74   -117171.15   -113475.67 
   78495    1460.9894    515.61023   -113542.62   -117253.67    -113389.8 
Loop time of 54.9013 on 1 procs for 495 steps with 19652 atoms

Performance: 0.779 ns/day, 30.809 hours/ns, 9.016 timesteps/s
98.9% CPU use with 1 MPI tasks x no OpenMP threads

MPI task timing breakdown:
Section |  min time  |  avg time  |  max time  |%varavg| %total
---------------------------------------------------------------
Pair    | 28.707     | 28.707     | 28.707     |   0.0 | 52.29
Neigh   | 24.915     | 24.915     | 24.915     |   0.0 | 45.38
Comm    | 0.46495    | 0.46495    | 0.46495    |   0.0 |  0.85
Output  | 0.00013614 | 0.00013614 | 0.00013614 |   0.0 |  0.00
Modify  | 0.64249    | 0.64249    | 0.64249    |   0.0 |  1.17
Other   |            | 0.1721     |            |       |  0.31

Nlocal:    19652 ave 19652 max 19652 min
Histogram: 1 0 0 0 0 0 0 0 0 0
Nghost:    15873 ave 15873 max 15873 min
Histogram: 1 0 0 0 0 0 0 0 0 0
Neighs:    1.04319e+06 ave 1.04319e+06 max 1.04319e+06 min
Histogram: 1 0 0 0 0 0 0 0 0 0

Total # of neighbors = 1043192
Ave neighs/atom = 53.0832
Neighbor list builds = 495
Dangerous builds not checked
Setting up Verlet run ...
  Unit style    : metal
  Current step  : 78495
  Time step     : 0.001
Per MPI rank memory allocation (min/avg/max) = 18.19 | 18.19 | 18.19 Mbytes
Step Temp Press TotEng PotEng Enthalpy 
   78495    1460.9894    515.61023   -113542.62   -117253.67    -113389.8 
   80000     1449.224    576.40796   -113646.38   -117327.55   -113475.72 
Loop time of 160.405 on 1 procs for 1505 steps with 19652 atoms

Performance: 0.811 ns/day, 29.606 hours/ns, 9.383 timesteps/s
98.8% CPU use with 1 MPI tasks x no OpenMP threads

MPI task timing breakdown:
Section |  min time  |  avg time  |  max time  |%varavg| %total
---------------------------------------------------------------
Pair    | 82.864     | 82.864     | 82.864     |   0.0 | 51.66
Neigh   | 73.786     | 73.786     | 73.786     |   0.0 | 46.00
Comm    | 1.3288     | 1.3288     | 1.3288     |   0.0 |  0.83
Output  | 0.063701   | 0.063701   | 0.063701   |   0.0 |  0.04
Modify  | 1.8522     | 1.8522     | 1.8522     |   0.0 |  1.15
Other   |            | 0.5098     |            |       |  0.32

Nlocal:    19652 ave 19652 max 19652 min
Histogram: 1 0 0 0 0 0 0 0 0 0
Nghost:    15805 ave 15805 max 15805 min
Histogram: 1 0 0 0 0 0 0 0 0 0
Neighs:    1.04403e+06 ave 1.04403e+06 max 1.04403e+06 min
Histogram: 1 0 0 0 0 0 0 0 0 0

Total # of neighbors = 1044034
Ave neighs/atom = 53.1261
Neighbor list builds = 1505
Dangerous builds not checked
Setting up Verlet run ...
  Unit style    : metal
  Current step  : 80000
  Time step     : 0.001
Per MPI rank memory allocation (min/avg/max) = 18.19 | 18.19 | 18.19 Mbytes
Step Temp Press TotEng PotEng Enthalpy 
   80000     1449.224    576.40796   -113646.38   -117327.55   -113475.72 
   80495    1418.8065   -754.18687   -113860.63   -117464.53   -114084.16 
Loop time of 58.0846 on 1 procs for 495 steps with 19652 atoms

Performance: 0.736 ns/day, 32.595 hours/ns, 8.522 timesteps/s
98.3% CPU use with 1 MPI tasks x no OpenMP threads

MPI task timing breakdown:
Section |  min time  |  avg time  |  max time  |%varavg| %total
---------------------------------------------------------------
Pair    | 30.557     | 30.557     | 30.557     |   0.0 | 52.61
Neigh   | 26.169     | 26.169     | 26.169     |   0.0 | 45.05
Comm    | 0.48258    | 0.48258    | 0.48258    |   0.0 |  0.83
Output  | 0.00012207 | 0.00012207 | 0.00012207 |   0.0 |  0.00
Modify  | 0.67651    | 0.67651    | 0.67651    |   0.0 |  1.16
Other   |            | 0.1996     |            |       |  0.34

Nlocal:    19652 ave 19652 max 19652 min
Histogram: 1 0 0 0 0 0 0 0 0 0
Nghost:    15872 ave 15872 max 15872 min
Histogram: 1 0 0 0 0 0 0 0 0 0
Neighs:    1.04327e+06 ave 1.04327e+06 max 1.04327e+06 min
Histogram: 1 0 0 0 0 0 0 0 0 0

Total # of neighbors = 1043266
Ave neighs/atom = 53.087
Neighbor list builds = 495
Dangerous builds not checked
Setting up Verlet run ...
  Unit style    : metal
  Current step  : 80495
  Time step     : 0.001
Per MPI rank memory allocation (min/avg/max) = 18.19 | 18.19 | 18.19 Mbytes
Step Temp Press TotEng PotEng Enthalpy 
   80495    1418.8065   -754.18687   -113860.63   -117464.53   -114084.16 
   82000     1389.988   -2047.1128   -114083.09   -117613.78   -114690.06 
Loop time of 157.339 on 1 procs for 1505 steps with 19652 atoms

Performance: 0.826 ns/day, 29.040 hours/ns, 9.565 timesteps/s
99.8% CPU use with 1 MPI tasks x no OpenMP threads

MPI task timing breakdown:
Section |  min time  |  avg time  |  max time  |%varavg| %total
---------------------------------------------------------------
Pair    | 80.851     | 80.851     | 80.851     |   0.0 | 51.39
Neigh   | 72.654     | 72.654     | 72.654     |   0.0 | 46.18
Comm    | 1.3151     | 1.3151     | 1.3151     |   0.0 |  0.84
Output  | 0.19042    | 0.19042    | 0.19042    |   0.0 |  0.12
Modify  | 1.8228     | 1.8228     | 1.8228     |   0.0 |  1.16
Other   |            | 0.5057     |            |       |  0.32

Nlocal:    19652 ave 19652 max 19652 min
Histogram: 1 0 0 0 0 0 0 0 0 0
Nghost:    15854 ave 15854 max 15854 min
Histogram: 1 0 0 0 0 0 0 0 0 0
Neighs:    1.04277e+06 ave 1.04277e+06 max 1.04277e+06 min
Histogram: 1 0 0 0 0 0 0 0 0 0

Total # of neighbors = 1042772
Ave neighs/atom = 53.0619
Neighbor list builds = 1505
Dangerous builds not checked
Setting up Verlet run ...
  Unit style    : metal
  Current step  : 82000
  Time step     : 0.001
Per MPI rank memory allocation (min/avg/max) = 18.19 | 18.19 | 18.19 Mbytes
Step Temp Press TotEng PotEng Enthalpy 
   82000     1389.988   -2047.1128   -114083.09   -117613.78   -114690.06 
   82495    1359.3335    545.25572   -114216.01   -117668.84   -114054.94 
Loop time of 53.9687 on 1 procs for 495 steps with 19652 atoms

Performance: 0.792 ns/day, 30.285 hours/ns, 9.172 timesteps/s
98.2% CPU use with 1 MPI tasks x no OpenMP threads

MPI task timing breakdown:
Section |  min time  |  avg time  |  max time  |%varavg| %total
---------------------------------------------------------------
Pair    | 28.188     | 28.188     | 28.188     |   0.0 | 52.23
Neigh   | 24.52      | 24.52      | 24.52      |   0.0 | 45.43
Comm    | 0.44615    | 0.44615    | 0.44615    |   0.0 |  0.83
Output  | 0.00011992 | 0.00011992 | 0.00011992 |   0.0 |  0.00
Modify  | 0.6443     | 0.6443     | 0.6443     |   0.0 |  1.19
Other   |            | 0.1701     |            |       |  0.32

Nlocal:    19652 ave 19652 max 19652 min
Histogram: 1 0 0 0 0 0 0 0 0 0
Nghost:    15864 ave 15864 max 15864 min
Histogram: 1 0 0 0 0 0 0 0 0 0
Neighs:    1.04689e+06 ave 1.04689e+06 max 1.04689e+06 min
Histogram: 1 0 0 0 0 0 0 0 0 0

Total # of neighbors = 1046887
Ave neighs/atom = 53.2713
Neighbor list builds = 495
Dangerous builds not checked
Setting up Verlet run ...
  Unit style    : metal
  Current step  : 82495
  Time step     : 0.001
Per MPI rank memory allocation (min/avg/max) = 18.19 | 18.19 | 18.19 Mbytes
Step Temp Press TotEng PotEng Enthalpy 
   82495    1359.3335    545.25572   -114216.01   -117668.84   -114054.94 
   84000    1344.7506    1553.6287   -114391.38   -117807.17   -113933.61 
Loop time of 165.034 on 1 procs for 1505 steps with 19652 atoms

Performance: 0.788 ns/day, 30.460 hours/ns, 9.119 timesteps/s
99.8% CPU use with 1 MPI tasks x no OpenMP threads

MPI task timing breakdown:
Section |  min time  |  avg time  |  max time  |%varavg| %total
---------------------------------------------------------------
Pair    | 85.69      | 85.69      | 85.69      |   0.0 | 51.92
Neigh   | 75.418     | 75.418     | 75.418     |   0.0 | 45.70
Comm    | 1.4106     | 1.4106     | 1.4106     |   0.0 |  0.85
Output  | 0.071048   | 0.071048   | 0.071048   |   0.0 |  0.04
Modify  | 1.9103     | 1.9103     | 1.9103     |   0.0 |  1.16
Other   |            | 0.5342     |            |       |  0.32

Nlocal:    19652 ave 19652 max 19652 min
Histogram: 1 0 0 0 0 0 0 0 0 0
Nghost:    15900 ave 15900 max 15900 min
Histogram: 1 0 0 0 0 0 0 0 0 0
Neighs:    1.05084e+06 ave 1.05084e+06 max 1.05084e+06 min
Histogram: 1 0 0 0 0 0 0 0 0 0

Total # of neighbors = 1050837
Ave neighs/atom = 53.4723
Neighbor list builds = 1505
Dangerous builds not checked
Setting up Verlet run ...
  Unit style    : metal
  Current step  : 84000
  Time step     : 0.001
Per MPI rank memory allocation (min/avg/max) = 18.19 | 18.19 | 18.19 Mbytes
Step Temp Press TotEng PotEng Enthalpy 
   84000    1344.7506    1553.6287   -114391.38   -117807.17   -113933.61 
   84495    1309.1226   -983.42949   -114595.71      -117921   -114886.27 
Loop time of 55.426 on 1 procs for 495 steps with 19652 atoms

Performance: 0.772 ns/day, 31.103 hours/ns, 8.931 timesteps/s
99.4% CPU use with 1 MPI tasks x no OpenMP threads

MPI task timing breakdown:
Section |  min time  |  avg time  |  max time  |%varavg| %total
---------------------------------------------------------------
Pair    | 28.744     | 28.744     | 28.744     |   0.0 | 51.86
Neigh   | 25.384     | 25.384     | 25.384     |   0.0 | 45.80
Comm    | 0.45994    | 0.45994    | 0.45994    |   0.0 |  0.83
Output  | 0.00015616 | 0.00015616 | 0.00015616 |   0.0 |  0.00
Modify  | 0.65665    | 0.65665    | 0.65665    |   0.0 |  1.18
Other   |            | 0.1813     |            |       |  0.33

Nlocal:    19652 ave 19652 max 19652 min
Histogram: 1 0 0 0 0 0 0 0 0 0
Nghost:    15887 ave 15887 max 15887 min
Histogram: 1 0 0 0 0 0 0 0 0 0
Neighs:    1.04793e+06 ave 1.04793e+06 max 1.04793e+06 min
Histogram: 1 0 0 0 0 0 0 0 0 0

Total # of neighbors = 1047934
Ave neighs/atom = 53.3245
Neighbor list builds = 495
Dangerous builds not checked
Setting up Verlet run ...
  Unit style    : metal
  Current step  : 84495
  Time step     : 0.001
Per MPI rank memory allocation (min/avg/max) = 18.19 | 18.19 | 18.19 Mbytes
Step Temp Press TotEng PotEng Enthalpy 
   84495    1309.1226   -983.42949   -114595.71      -117921   -114886.27 
   86000     1301.177   -1177.4758   -114679.92   -117985.03   -115027.85 
Loop time of 159.417 on 1 procs for 1505 steps with 19652 atoms

Performance: 0.816 ns/day, 29.424 hours/ns, 9.441 timesteps/s
99.9% CPU use with 1 MPI tasks x no OpenMP threads

MPI task timing breakdown:
Section |  min time  |  avg time  |  max time  |%varavg| %total
---------------------------------------------------------------
Pair    | 82.313     | 82.313     | 82.313     |   0.0 | 51.63
Neigh   | 73.231     | 73.231     | 73.231     |   0.0 | 45.94
Comm    | 1.3319     | 1.3319     | 1.3319     |   0.0 |  0.84
Output  | 0.19123    | 0.19123    | 0.19123    |   0.0 |  0.12
Modify  | 1.8364     | 1.8364     | 1.8364     |   0.0 |  1.15
Other   |            | 0.5144     |            |       |  0.32

Nlocal:    19652 ave 19652 max 19652 min
Histogram: 1 0 0 0 0 0 0 0 0 0
Nghost:    15839 ave 15839 max 15839 min
Histogram: 1 0 0 0 0 0 0 0 0 0
Neighs:    1.04893e+06 ave 1.04893e+06 max 1.04893e+06 min
Histogram: 1 0 0 0 0 0 0 0 0 0

Total # of neighbors = 1048926
Ave neighs/atom = 53.375
Neighbor list builds = 1505
Dangerous builds not checked
Setting up Verlet run ...
  Unit style    : metal
  Current step  : 86000
  Time step     : 0.001
Per MPI rank memory allocation (min/avg/max) = 18.19 | 18.19 | 18.19 Mbytes
Step Temp Press TotEng PotEng Enthalpy 
   86000     1301.177   -1177.4758   -114679.92   -117985.03   -115027.85 
   86495    1274.0528    337.45388    -114906.7   -118142.91   -114807.33 
Loop time of 58.6231 on 1 procs for 495 steps with 19652 atoms

Performance: 0.730 ns/day, 32.897 hours/ns, 8.444 timesteps/s
97.5% CPU use with 1 MPI tasks x no OpenMP threads

MPI task timing breakdown:
Section |  min time  |  avg time  |  max time  |%varavg| %total
---------------------------------------------------------------
Pair    | 31.27      | 31.27      | 31.27      |   0.0 | 53.34
Neigh   | 25.969     | 25.969     | 25.969     |   0.0 | 44.30
Comm    | 0.51066    | 0.51066    | 0.51066    |   0.0 |  0.87
Output  | 0.00015402 | 0.00015402 | 0.00015402 |   0.0 |  0.00
Modify  | 0.68876    | 0.68876    | 0.68876    |   0.0 |  1.17
Other   |            | 0.1847     |            |       |  0.32

Nlocal:    19652 ave 19652 max 19652 min
Histogram: 1 0 0 0 0 0 0 0 0 0
Nghost:    15879 ave 15879 max 15879 min
Histogram: 1 0 0 0 0 0 0 0 0 0
Neighs:    1.05238e+06 ave 1.05238e+06 max 1.05238e+06 min
Histogram: 1 0 0 0 0 0 0 0 0 0

Total # of neighbors = 1052376
Ave neighs/atom = 53.5506
Neighbor list builds = 495
Dangerous builds not checked
Setting up Verlet run ...
  Unit style    : metal
  Current step  : 86495
  Time step     : 0.001
Per MPI rank memory allocation (min/avg/max) = 18.19 | 18.19 | 18.19 Mbytes
Step Temp Press TotEng PotEng Enthalpy 
   86495    1274.0528    337.45388    -114906.7   -118142.91   -114807.33 
   88000    1261.7541    237.77759   -115044.25   -118249.22   -114974.26 
Loop time of 167.08 on 1 procs for 1505 steps with 19652 atoms

Performance: 0.778 ns/day, 30.838 hours/ns, 9.008 timesteps/s
99.8% CPU use with 1 MPI tasks x no OpenMP threads

MPI task timing breakdown:
Section |  min time  |  avg time  |  max time  |%varavg| %total
---------------------------------------------------------------
Pair    | 86.976     | 86.976     | 86.976     |   0.0 | 52.06
Neigh   | 76.146     | 76.146     | 76.146     |   0.0 | 45.57
Comm    | 1.3772     | 1.3772     | 1.3772     |   0.0 |  0.82
Output  | 0.13327    | 0.13327    | 0.13327    |   0.0 |  0.08
Modify  | 1.9144     | 1.9144     | 1.9144     |   0.0 |  1.15
Other   |            | 0.533      |            |       |  0.32

Nlocal:    19652 ave 19652 max 19652 min
Histogram: 1 0 0 0 0 0 0 0 0 0
Nghost:    15895 ave 15895 max 15895 min
Histogram: 1 0 0 0 0 0 0 0 0 0
Neighs:    1.05326e+06 ave 1.05326e+06 max 1.05326e+06 min
Histogram: 1 0 0 0 0 0 0 0 0 0

Total # of neighbors = 1053263
Ave neighs/atom = 53.5957
Neighbor list builds = 1505
Dangerous builds not checked
Setting up Verlet run ...
  Unit style    : metal
  Current step  : 88000
  Time step     : 0.001
Per MPI rank memory allocation (min/avg/max) = 18.19 | 18.19 | 18.19 Mbytes
Step Temp Press TotEng PotEng Enthalpy 
   88000    1261.7541    237.77759   -115044.25   -118249.22   -114974.26 
   88495    1215.5356   -504.19907   -115280.59   -118368.16   -115428.99 
Loop time of 52.9828 on 1 procs for 495 steps with 19652 atoms

Performance: 0.807 ns/day, 29.732 hours/ns, 9.343 timesteps/s
100.0% CPU use with 1 MPI tasks x no OpenMP threads

MPI task timing breakdown:
Section |  min time  |  avg time  |  max time  |%varavg| %total
---------------------------------------------------------------
Pair    | 27.497     | 27.497     | 27.497     |   0.0 | 51.90
Neigh   | 24.264     | 24.264     | 24.264     |   0.0 | 45.80
Comm    | 0.43689    | 0.43689    | 0.43689    |   0.0 |  0.82
Output  | 0.00016785 | 0.00016785 | 0.00016785 |   0.0 |  0.00
Modify  | 0.61286    | 0.61286    | 0.61286    |   0.0 |  1.16
Other   |            | 0.1719     |            |       |  0.32

Nlocal:    19652 ave 19652 max 19652 min
Histogram: 1 0 0 0 0 0 0 0 0 0
Nghost:    15895 ave 15895 max 15895 min
Histogram: 1 0 0 0 0 0 0 0 0 0
Neighs:    1.05389e+06 ave 1.05389e+06 max 1.05389e+06 min
Histogram: 1 0 0 0 0 0 0 0 0 0

Total # of neighbors = 1053891
Ave neighs/atom = 53.6277
Neighbor list builds = 495
Dangerous builds not checked
Setting up Verlet run ...
  Unit style    : metal
  Current step  : 88495
  Time step     : 0.001
Per MPI rank memory allocation (min/avg/max) = 18.19 | 18.19 | 18.19 Mbytes
Step Temp Press TotEng PotEng Enthalpy 
   88495    1215.5356   -504.19907   -115280.59   -118368.16   -115428.99 
   90000    1216.3963    854.57086   -115345.72   -118435.48   -115094.68 
Loop time of 169.893 on 1 procs for 1505 steps with 19652 atoms

Performance: 0.765 ns/day, 31.357 hours/ns, 8.859 timesteps/s
99.8% CPU use with 1 MPI tasks x no OpenMP threads

MPI task timing breakdown:
Section |  min time  |  avg time  |  max time  |%varavg| %total
---------------------------------------------------------------
Pair    | 88.308     | 88.308     | 88.308     |   0.0 | 51.98
Neigh   | 77.487     | 77.487     | 77.487     |   0.0 | 45.61
Comm    | 1.4047     | 1.4047     | 1.4047     |   0.0 |  0.83
Output  | 0.14534    | 0.14534    | 0.14534    |   0.0 |  0.09
Modify  | 1.9999     | 1.9999     | 1.9999     |   0.0 |  1.18
Other   |            | 0.5479     |            |       |  0.32

Nlocal:    19652 ave 19652 max 19652 min
Histogram: 1 0 0 0 0 0 0 0 0 0
Nghost:    15948 ave 15948 max 15948 min
Histogram: 1 0 0 0 0 0 0 0 0 0
Neighs:    1.05696e+06 ave 1.05696e+06 max 1.05696e+06 min
Histogram: 1 0 0 0 0 0 0 0 0 0

Total # of neighbors = 1056957
Ave neighs/atom = 53.7837
Neighbor list builds = 1505
Dangerous builds not checked
Setting up Verlet run ...
  Unit style    : metal
  Current step  : 90000
  Time step     : 0.001
Per MPI rank memory allocation (min/avg/max) = 18.19 | 18.19 | 18.19 Mbytes
Step Temp Press TotEng PotEng Enthalpy 
   90000    1216.3963    854.57086   -115345.72   -118435.48   -115094.68 
   90495    1173.4866   -975.26233   -115619.15   -118599.91   -115905.97 
Loop time of 53.4109 on 1 procs for 495 steps with 19652 atoms

Performance: 0.801 ns/day, 29.972 hours/ns, 9.268 timesteps/s
100.0% CPU use with 1 MPI tasks x no OpenMP threads

MPI task timing breakdown:
Section |  min time  |  avg time  |  max time  |%varavg| %total
---------------------------------------------------------------
Pair    | 27.874     | 27.874     | 27.874     |   0.0 | 52.19
Neigh   | 24.305     | 24.305     | 24.305     |   0.0 | 45.51
Comm    | 0.44357    | 0.44357    | 0.44357    |   0.0 |  0.83
Output  | 0.00013995 | 0.00013995 | 0.00013995 |   0.0 |  0.00
Modify  | 0.61704    | 0.61704    | 0.61704    |   0.0 |  1.16
Other   |            | 0.1706     |            |       |  0.32

Nlocal:    19652 ave 19652 max 19652 min
[...]
Setting up Verlet run ...
  Unit style    : metal
  Current step  : 120000
  Time step     : 0.001
Per MPI rank memory allocation (min/avg/max) = 18.19 | 18.19 | 18.19 Mbytes
Step Temp Press TotEng PotEng Enthalpy 
  120000    450.14912    919.79641   -120083.96   -121227.38   -119819.03 
  120495    421.03866   -760.72347   -120244.35   -121313.83   -120463.74 
Loop time of 56.4241 on 1 procs for 495 steps with 19652 atoms

Performance: 0.758 ns/day, 31.663 hours/ns, 8.773 timesteps/s
100.0% CPU use with 1 MPI tasks x no OpenMP threads

MPI task timing breakdown:
Section |  min time  |  avg time  |  max time  |%varavg| %total
---------------------------------------------------------------
Pair    | 29.872     | 29.872     | 29.872     |   0.0 | 52.94
Neigh   | 25.226     | 25.226     | 25.226     |   0.0 | 44.71
Comm    | 0.47739    | 0.47739    | 0.47739    |   0.0 |  0.85
Output  | 0.00019312 | 0.00019312 | 0.00019312 |   0.0 |  0.00
Modify  | 0.66793    | 0.66793    | 0.66793    |   0.0 |  1.18
Other   |            | 0.1813     |            |       |  0.32

Nlocal:    19652 ave 19652 max 19652 min
Histogram: 1 0 0 0 0 0 0 0 0 0
Nghost:    16067 ave 16067 max 16067 min
Histogram: 1 0 0 0 0 0 0 0 0 0
Neighs:    1.08895e+06 ave 1.08895e+06 max 1.08895e+06 min
Histogram: 1 0 0 0 0 0 0 0 0 0

Total # of neighbors = 1088953
Ave neighs/atom = 55.4118
Neighbor list builds = 495
Dangerous builds not checked
Setting up Verlet run ...
  Unit style    : metal
  Current step  : 120495
  Time step     : 0.001
Per MPI rank memory allocation (min/avg/max) = 18.19 | 18.19 | 18.19 Mbytes
Step Temp Press TotEng PotEng Enthalpy 
  120495    421.03866   -760.72347   -120244.35   -121313.83   -120463.74 
  122000     399.9816   -524.13777   -120365.69   -121381.68   -120516.76 
Loop time of 160.777 on 1 procs for 1505 steps with 19652 atoms

Performance: 0.809 ns/day, 29.675 hours/ns, 9.361 timesteps/s
99.0% CPU use with 1 MPI tasks x no OpenMP threads

MPI task timing breakdown:
Section |  min time  |  avg time  |  max time  |%varavg| %total
---------------------------------------------------------------
Pair    | 83.804     | 83.804     | 83.804     |   0.0 | 52.12
Neigh   | 73.197     | 73.197     | 73.197     |   0.0 | 45.53
Comm    | 1.3294     | 1.3294     | 1.3294     |   0.0 |  0.83
Output  | 0.05019    | 0.05019    | 0.05019    |   0.0 |  0.03
Modify  | 1.8768     | 1.8768     | 1.8768     |   0.0 |  1.17
Other   |            | 0.5191     |            |       |  0.32

Nlocal:    19652 ave 19652 max 19652 min
Histogram: 1 0 0 0 0 0 0 0 0 0
Nghost:    16034 ave 16034 max 16034 min
Histogram: 1 0 0 0 0 0 0 0 0 0
Neighs:    1.09016e+06 ave 1.09016e+06 max 1.09016e+06 min
Histogram: 1 0 0 0 0 0 0 0 0 0

Total # of neighbors = 1090162
Ave neighs/atom = 55.4733
Neighbor list builds = 1505
Dangerous builds not checked
Setting up Verlet run ...
  Unit style    : metal
  Current step  : 122000
  Time step     : 0.001
Per MPI rank memory allocation (min/avg/max) = 18.19 | 18.19 | 18.19 Mbytes
Step Temp Press TotEng PotEng Enthalpy 
  122000     399.9816   -524.13777   -120365.69   -121381.68   -120516.76 
  122495    371.26285    179.56952   -120515.66    -121458.7   -120463.97 
Loop time of 52.943 on 1 procs for 495 steps with 19652 atoms

Performance: 0.808 ns/day, 29.710 hours/ns, 9.350 timesteps/s
100.0% CPU use with 1 MPI tasks x no OpenMP threads

MPI task timing breakdown:
Section |  min time  |  avg time  |  max time  |%varavg| %total
---------------------------------------------------------------
Pair    | 27.862     | 27.862     | 27.862     |   0.0 | 52.63
Neigh   | 23.855     | 23.855     | 23.855     |   0.0 | 45.06
Comm    | 0.44141    | 0.44141    | 0.44141    |   0.0 |  0.83
Output  | 0.00013208 | 0.00013208 | 0.00013208 |   0.0 |  0.00
Modify  | 0.61524    | 0.61524    | 0.61524    |   0.0 |  1.16
Other   |            | 0.1691     |            |       |  0.32

Nlocal:    19652 ave 19652 max 19652 min
Histogram: 1 0 0 0 0 0 0 0 0 0
Nghost:    16048 ave 16048 max 16048 min
Histogram: 1 0 0 0 0 0 0 0 0 0
Neighs:    1.09212e+06 ave 1.09212e+06 max 1.09212e+06 min
Histogram: 1 0 0 0 0 0 0 0 0 0

Total # of neighbors = 1092125
Ave neighs/atom = 55.5732
Neighbor list builds = 495
Dangerous builds not checked
Setting up Verlet run ...
  Unit style    : metal
  Current step  : 122495
  Time step     : 0.001
Per MPI rank memory allocation (min/avg/max) = 18.19 | 18.19 | 18.19 Mbytes
Step Temp Press TotEng PotEng Enthalpy 
  122495    371.26285    179.56952   -120515.66    -121458.7   -120463.97 
  124000    350.06791   -49.828298   -120621.78   -121510.98   -120636.12 
Loop time of 168.78 on 1 procs for 1505 steps with 19652 atoms

Performance: 0.770 ns/day, 31.152 hours/ns, 8.917 timesteps/s
98.7% CPU use with 1 MPI tasks x no OpenMP threads

MPI task timing breakdown:
Section |  min time  |  avg time  |  max time  |%varavg| %total
---------------------------------------------------------------
Pair    | 88.419     | 88.419     | 88.419     |   0.0 | 52.39
Neigh   | 76.355     | 76.355     | 76.355     |   0.0 | 45.24
Comm    | 1.3985     | 1.3985     | 1.3985     |   0.0 |  0.83
Output  | 0.061654   | 0.061654   | 0.061654   |   0.0 |  0.04
Modify  | 1.9941     | 1.9941     | 1.9941     |   0.0 |  1.18
Other   |            | 0.5525     |            |       |  0.33

Nlocal:    19652 ave 19652 max 19652 min
Histogram: 1 0 0 0 0 0 0 0 0 0
Nghost:    16082 ave 16082 max 16082 min
Histogram: 1 0 0 0 0 0 0 0 0 0
Neighs:    1.09218e+06 ave 1.09218e+06 max 1.09218e+06 min
Histogram: 1 0 0 0 0 0 0 0 0 0

Total # of neighbors = 1092182
Ave neighs/atom = 55.5761
Neighbor list builds = 1505
Dangerous builds not checked
Setting up Verlet run ...
  Unit style    : metal
  Current step  : 124000
  Time step     : 0.001
Per MPI rank memory allocation (min/avg/max) = 18.19 | 18.19 | 18.19 Mbytes
Step Temp Press TotEng PotEng Enthalpy 
  124000    350.06791   -49.828298   -120621.78   -121510.98   -120636.12 
  124495    323.98708    47.762334   -120774.66   -121597.62   -120760.93 
Loop time of 53.608 on 1 procs for 495 steps with 19652 atoms

Performance: 0.798 ns/day, 30.083 hours/ns, 9.234 timesteps/s
100.0% CPU use with 1 MPI tasks x no OpenMP threads

MPI task timing breakdown:
Section |  min time  |  avg time  |  max time  |%varavg| %total
---------------------------------------------------------------
Pair    | 28.086     | 28.086     | 28.086     |   0.0 | 52.39
Neigh   | 24.28      | 24.28      | 24.28      |   0.0 | 45.29
Comm    | 0.44176    | 0.44176    | 0.44176    |   0.0 |  0.82
Output  | 0.000144   | 0.000144   | 0.000144   |   0.0 |  0.00
Modify  | 0.62734    | 0.62734    | 0.62734    |   0.0 |  1.17
Other   |            | 0.1726     |            |       |  0.32

Nlocal:    19652 ave 19652 max 19652 min
Histogram: 1 0 0 0 0 0 0 0 0 0
Nghost:    16072 ave 16072 max 16072 min
Histogram: 1 0 0 0 0 0 0 0 0 0
Neighs:    1.09316e+06 ave 1.09316e+06 max 1.09316e+06 min
Histogram: 1 0 0 0 0 0 0 0 0 0

Total # of neighbors = 1093158
Ave neighs/atom = 55.6258
Neighbor list builds = 495
Dangerous builds not checked
Setting up Verlet run ...
  Unit style    : metal
  Current step  : 124495
  Time step     : 0.001
Per MPI rank memory allocation (min/avg/max) = 18.19 | 18.19 | 18.19 Mbytes
Step Temp Press TotEng PotEng Enthalpy 
  124495    323.98708    47.762334   -120774.66   -121597.62   -120760.93 
  126000    298.29556   -511.24902   -120895.48   -121653.18   -121042.55 
Loop time of 173.417 on 1 procs for 1505 steps with 19652 atoms

Performance: 0.750 ns/day, 32.008 hours/ns, 8.678 timesteps/s
99.7% CPU use with 1 MPI tasks x no OpenMP threads

MPI task timing breakdown:
Section |  min time  |  avg time  |  max time  |%varavg| %total
---------------------------------------------------------------
Pair    | 91.126     | 91.126     | 91.126     |   0.0 | 52.55
Neigh   | 78.135     | 78.135     | 78.135     |   0.0 | 45.06
Comm    | 1.437      | 1.437      | 1.437      |   0.0 |  0.83
Output  | 0.077593   | 0.077593   | 0.077593   |   0.0 |  0.04
Modify  | 2.0773     | 2.0773     | 2.0773     |   0.0 |  1.20
Other   |            | 0.5645     |            |       |  0.33

Nlocal:    19652 ave 19652 max 19652 min
Histogram: 1 0 0 0 0 0 0 0 0 0
Nghost:    16039 ave 16039 max 16039 min
Histogram: 1 0 0 0 0 0 0 0 0 0
Neighs:    1.0936e+06 ave 1.0936e+06 max 1.0936e+06 min
Histogram: 1 0 0 0 0 0 0 0 0 0

Total # of neighbors = 1093602
Ave neighs/atom = 55.6484
Neighbor list builds = 1505
Dangerous builds not checked
Setting up Verlet run ...
  Unit style    : metal
  Current step  : 126000
  Time step     : 0.001
Per MPI rank memory allocation (min/avg/max) = 18.19 | 18.19 | 18.19 Mbytes
Step Temp Press TotEng PotEng Enthalpy 
  126000    298.29556   -511.24902   -120895.48   -121653.18   -121042.55 
  126495     272.0971   -554.78498   -121034.05    -121725.2   -121193.54 
Loop time of 55.552 on 1 procs for 495 steps with 19652 atoms

Performance: 0.770 ns/day, 31.174 hours/ns, 8.911 timesteps/s
100.0% CPU use with 1 MPI tasks x no OpenMP threads

MPI task timing breakdown:
Section |  min time  |  avg time  |  max time  |%varavg| %total
---------------------------------------------------------------
Pair    | 29.392     | 29.392     | 29.392     |   0.0 | 52.91
Neigh   | 24.848     | 24.848     | 24.848     |   0.0 | 44.73
Comm    | 0.46696    | 0.46696    | 0.46696    |   0.0 |  0.84
Output  | 0.0001719  | 0.0001719  | 0.0001719  |   0.0 |  0.00
Modify  | 0.66291    | 0.66291    | 0.66291    |   0.0 |  1.19
Other   |            | 0.182      |            |       |  0.33

Nlocal:    19652 ave 19652 max 19652 min
Histogram: 1 0 0 0 0 0 0 0 0 0
Nghost:    16061 ave 16061 max 16061 min
Histogram: 1 0 0 0 0 0 0 0 0 0
Neighs:    1.09437e+06 ave 1.09437e+06 max 1.09437e+06 min
Histogram: 1 0 0 0 0 0 0 0 0 0

Total # of neighbors = 1094370
Ave neighs/atom = 55.6875
Neighbor list builds = 495
Dangerous builds not checked
Setting up Verlet run ...
  Unit style    : metal
  Current step  : 126495
  Time step     : 0.001
Per MPI rank memory allocation (min/avg/max) = 18.19 | 18.19 | 18.19 Mbytes
Step Temp Press TotEng PotEng Enthalpy 
  126495     272.0971   -554.78498   -121034.05    -121725.2   -121193.54 
  128000    249.86418     346.1822   -121160.82    -121795.5   -121061.44 
Loop time of 166.869 on 1 procs for 1505 steps with 19652 atoms

Performance: 0.779 ns/day, 30.799 hours/ns, 9.019 timesteps/s
100.0% CPU use with 1 MPI tasks x no OpenMP threads

MPI task timing breakdown:
Section |  min time  |  avg time  |  max time  |%varavg| %total
---------------------------------------------------------------
Pair    | 87.559     | 87.559     | 87.559     |   0.0 | 52.47
Neigh   | 75.35      | 75.35      | 75.35      |   0.0 | 45.16
Comm    | 1.3927     | 1.3927     | 1.3927     |   0.0 |  0.83
Output  | 0.056263   | 0.056263   | 0.056263   |   0.0 |  0.03
Modify  | 1.9643     | 1.9643     | 1.9643     |   0.0 |  1.18
Other   |            | 0.546      |            |       |  0.33

Nlocal:    19652 ave 19652 max 19652 min
Histogram: 1 0 0 0 0 0 0 0 0 0
Nghost:    16068 ave 16068 max 16068 min
Histogram: 1 0 0 0 0 0 0 0 0 0
Neighs:    1.0964e+06 ave 1.0964e+06 max 1.0964e+06 min
Histogram: 1 0 0 0 0 0 0 0 0 0

Total # of neighbors = 1096396
Ave neighs/atom = 55.7906
Neighbor list builds = 1505
Dangerous builds not checked
Setting up Verlet run ...
  Unit style    : metal
  Current step  : 128000
  Time step     : 0.001
Per MPI rank memory allocation (min/avg/max) = 18.19 | 18.19 | 18.19 Mbytes
Step Temp Press TotEng PotEng Enthalpy 
  128000    249.86418     346.1822   -121160.82    -121795.5   -121061.44 
  128495    222.76509   -269.13934   -121291.79   -121857.63   -121369.07 
Loop time of 48.9124 on 1 procs for 495 steps with 19652 atoms

Performance: 0.874 ns/day, 27.448 hours/ns, 10.120 timesteps/s
100.0% CPU use with 1 MPI tasks x no OpenMP threads

MPI task timing breakdown:
Section |  min time  |  avg time  |  max time  |%varavg| %total
---------------------------------------------------------------
Pair    | 25.275     | 25.275     | 25.275     |   0.0 | 51.67
Neigh   | 22.516     | 22.516     | 22.516     |   0.0 | 46.03
Comm    | 0.39099    | 0.39099    | 0.39099    |   0.0 |  0.80
Output  | 0.00016809 | 0.00016809 | 0.00016809 |   0.0 |  0.00
Modify  | 0.56619    | 0.56619    | 0.56619    |   0.0 |  1.16
Other   |            | 0.1645     |            |       |  0.34

Nlocal:    19652 ave 19652 max 19652 min
Histogram: 1 0 0 0 0 0 0 0 0 0
Nghost:    16092 ave 16092 max 16092 min
Histogram: 1 0 0 0 0 0 0 0 0 0
Neighs:    1.09602e+06 ave 1.09602e+06 max 1.09602e+06 min
Histogram: 1 0 0 0 0 0 0 0 0 0

Total # of neighbors = 1096017
Ave neighs/atom = 55.7713
Neighbor list builds = 495
Dangerous builds not checked
Setting up Verlet run ...
  Unit style    : metal
  Current step  : 128495
  Time step     : 0.001
Per MPI rank memory allocation (min/avg/max) = 18.19 | 18.19 | 18.19 Mbytes
Step Temp Press TotEng PotEng Enthalpy 
  128495    222.76509   -269.13934   -121291.79   -121857.63   -121369.07 
  130000    199.87355    607.83814   -121418.34   -121926.04   -121244.05 
Loop time of 152.306 on 1 procs for 1505 steps with 19652 atoms

Performance: 0.854 ns/day, 28.111 hours/ns, 9.881 timesteps/s
99.9% CPU use with 1 MPI tasks x no OpenMP threads

MPI task timing breakdown:
Section |  min time  |  avg time  |  max time  |%varavg| %total
---------------------------------------------------------------
Pair    | 78.569     | 78.569     | 78.569     |   0.0 | 51.59
Neigh   | 70.175     | 70.175     | 70.175     |   0.0 | 46.07
Comm    | 1.2202     | 1.2202     | 1.2202     |   0.0 |  0.80
Output  | 0.06182    | 0.06182    | 0.06182    |   0.0 |  0.04
Modify  | 1.7743     | 1.7743     | 1.7743     |   0.0 |  1.16
Other   |            | 0.5067     |            |       |  0.33

Nlocal:    19652 ave 19652 max 19652 min
Histogram: 1 0 0 0 0 0 0 0 0 0
Nghost:    16075 ave 16075 max 16075 min
Histogram: 1 0 0 0 0 0 0 0 0 0
Neighs:    1.09818e+06 ave 1.09818e+06 max 1.09818e+06 min
Histogram: 1 0 0 0 0 0 0 0 0 0

Total # of neighbors = 1098179
Ave neighs/atom = 55.8813
Neighbor list builds = 1505
Dangerous builds not checked
Setting up Verlet run ...
  Unit style    : metal
  Current step  : 130000
  Time step     : 0.001
Per MPI rank memory allocation (min/avg/max) = 18.19 | 18.19 | 18.19 Mbytes
Step Temp Press TotEng PotEng Enthalpy 
  130000    199.87355    607.83814   -121418.34   -121926.04   -121244.05 
  130495    175.69814    66.703885   -121544.91    -121991.2   -121525.78 
Loop time of 50.0134 on 1 procs for 495 steps with 19652 atoms

Performance: 0.855 ns/day, 28.066 hours/ns, 9.897 timesteps/s
99.9% CPU use with 1 MPI tasks x no OpenMP threads

MPI task timing breakdown:
Section |  min time  |  avg time  |  max time  |%varavg| %total
---------------------------------------------------------------
Pair    | 25.763     | 25.763     | 25.763     |   0.0 | 51.51
Neigh   | 23.09      | 23.09      | 23.09      |   0.0 | 46.17
Comm    | 0.40091    | 0.40091    | 0.40091    |   0.0 |  0.80
Output  | 0.00013304 | 0.00013304 | 0.00013304 |   0.0 |  0.00
Modify  | 0.59096    | 0.59096    | 0.59096    |   0.0 |  1.18
Other   |            | 0.1686     |            |       |  0.34

Nlocal:    19652 ave 19652 max 19652 min
Histogram: 1 0 0 0 0 0 0 0 0 0
Nghost:    16090 ave 16090 max 16090 min
Histogram: 1 0 0 0 0 0 0 0 0 0
Neighs:    1.0979e+06 ave 1.0979e+06 max 1.0979e+06 min
Histogram: 1 0 0 0 0 0 0 0 0 0

Total # of neighbors = 1097903
Ave neighs/atom = 55.8672
Neighbor list builds = 495
Dangerous builds not checked
Setting up Verlet run ...
  Unit style    : metal
  Current step  : 130495
  Time step     : 0.001
Per MPI rank memory allocation (min/avg/max) = 18.19 | 18.19 | 18.19 Mbytes
Step Temp Press TotEng PotEng Enthalpy 
  130495    175.69814    66.703885   -121544.91    -121991.2   -121525.78 
  132000    149.43384    167.57232   -121679.26   -122058.83   -121631.23 
Loop time of 137.425 on 1 procs for 1505 steps with 19652 atoms

Performance: 0.946 ns/day, 25.365 hours/ns, 10.951 timesteps/s
99.4% CPU use with 1 MPI tasks x no OpenMP threads

MPI task timing breakdown:
Section |  min time  |  avg time  |  max time  |%varavg| %total
---------------------------------------------------------------
Pair    | 70.25      | 70.25      | 70.25      |   0.0 | 51.12
Neigh   | 63.967     | 63.967     | 63.967     |   0.0 | 46.55
Comm    | 1.0847     | 1.0847     | 1.0847     |   0.0 |  0.79
Output  | 0.1376     | 0.1376     | 0.1376     |   0.0 |  0.10
Modify  | 1.5357     | 1.5357     | 1.5357     |   0.0 |  1.12
Other   |            | 0.4506     |            |       |  0.33

Nlocal:    19652 ave 19652 max 19652 min
Histogram: 1 0 0 0 0 0 0 0 0 0
Nghost:    16073 ave 16073 max 16073 min
Histogram: 1 0 0 0 0 0 0 0 0 0
Neighs:    1.09912e+06 ave 1.09912e+06 max 1.09912e+06 min
Histogram: 1 0 0 0 0 0 0 0 0 0

Total # of neighbors = 1099122
Ave neighs/atom = 55.9293
Neighbor list builds = 1505
Dangerous builds not checked
Setting up Verlet run ...
  Unit style    : metal
  Current step  : 132000
  Time step     : 0.001
Per MPI rank memory allocation (min/avg/max) = 18.19 | 18.19 | 18.19 Mbytes
Step Temp Press TotEng PotEng Enthalpy 
  132000    149.43384    167.57232   -121679.26   -122058.83   -121631.23 
  132495    126.28638   -123.10031   -121795.85   -122116.63   -121831.13 
Loop time of 51.8271 on 1 procs for 495 steps with 19652 atoms

Performance: 0.825 ns/day, 29.084 hours/ns, 9.551 timesteps/s
99.3% CPU use with 1 MPI tasks x no OpenMP threads

MPI task timing breakdown:
Section |  min time  |  avg time  |  max time  |%varavg| %total
---------------------------------------------------------------
Pair    | 26.794     | 26.794     | 26.794     |   0.0 | 51.70
Neigh   | 23.831     | 23.831     | 23.831     |   0.0 | 45.98
Comm    | 0.42008    | 0.42008    | 0.42008    |   0.0 |  0.81
Output  | 0.00012088 | 0.00012088 | 0.00012088 |   0.0 |  0.00
Modify  | 0.60964    | 0.60964    | 0.60964    |   0.0 |  1.18
Other   |            | 0.1728     |            |       |  0.33

Nlocal:    19652 ave 19652 max 19652 min
Histogram: 1 0 0 0 0 0 0 0 0 0
Nghost:    16094 ave 16094 max 16094 min
Histogram: 1 0 0 0 0 0 0 0 0 0
Neighs:    1.09922e+06 ave 1.09922e+06 max 1.09922e+06 min
Histogram: 1 0 0 0 0 0 0 0 0 0

Total # of neighbors = 1099219
Ave neighs/atom = 55.9342
Neighbor list builds = 495
Dangerous builds not checked
Setting up Verlet run ...
  Unit style    : metal
  Current step  : 132495
  Time step     : 0.001
Per MPI rank memory allocation (min/avg/max) = 18.19 | 18.19 | 18.19 Mbytes
Step Temp Press TotEng PotEng Enthalpy 
  132495    126.28638   -123.10031   -121795.85   -122116.63   -121831.13 
  134000    99.219269    127.50111   -121938.15   -122190.17   -121901.64 
Loop time of 141.812 on 1 procs for 1505 steps with 19652 atoms

Performance: 0.917 ns/day, 26.174 hours/ns, 10.613 timesteps/s
99.9% CPU use with 1 MPI tasks x no OpenMP threads

MPI task timing breakdown:
Section |  min time  |  avg time  |  max time  |%varavg| %total
---------------------------------------------------------------
Pair    | 72.892     | 72.892     | 72.892     |   0.0 | 51.40
Neigh   | 65.656     | 65.656     | 65.656     |   0.0 | 46.30
Comm    | 1.1293     | 1.1293     | 1.1293     |   0.0 |  0.80
Output  | 0.058098   | 0.058098   | 0.058098   |   0.0 |  0.04
Modify  | 1.609      | 1.609      | 1.609      |   0.0 |  1.13
Other   |            | 0.4671     |            |       |  0.33

Nlocal:    19652 ave 19652 max 19652 min
Histogram: 1 0 0 0 0 0 0 0 0 0
Nghost:    16101 ave 16101 max 16101 min
Histogram: 1 0 0 0 0 0 0 0 0 0
Neighs:    1.10056e+06 ave 1.10056e+06 max 1.10056e+06 min
Histogram: 1 0 0 0 0 0 0 0 0 0

Total # of neighbors = 1100564
Ave neighs/atom = 56.0026
Neighbor list builds = 1505
Dangerous builds not checked
Total wall time: 4:10:35
