LAMMPS (12 Dec 2018)
Lattice spacing in x,y,z = 4 4 4
Created orthogonal box = (0 0 0) to (68 68 68)
  1 by 1 by 2 MPI processor grid
Created 19652 atoms
  Time spent = 0.001791 secs
Setting atom values ...
  206 settings made for type/fraction
Neighbor list info ...
  update every 1 steps, delay 0 steps, check no
  max neighbors/atom: 2000, page size: 100000
  master list distance cutoff = 8.2
  ghost atom cutoff = 8.2
  binsize = 4.1, bins = 17 17 17
  1 neighbor lists, perpetual/occasional/extra = 1 0 0
  (1) pair eam/alloy, perpetual
      attributes: half, newton on
      pair build: half/bin/atomonly/newton
      stencil: half/bin/3d/newton
      bin: standard
Setting up Verlet run ...
  Unit style    : metal
  Current step  : 0
  Time step     : 0.001
Per MPI rank memory allocation (min/avg/max) = 10.76 | 10.76 | 10.76 Mbytes
Step Temp Press TotEng PotEng Enthalpy 
       0          300   -242575.04   -60023.057   -60785.085   -107629.14 
    1000    682.84547    -73174.12   -60023.139   -61757.629   -74383.782 
Loop time of 88.534 on 2 procs for 1000 steps with 19652 atoms

Performance: 0.976 ns/day, 24.593 hours/ns, 11.295 timesteps/s
99.5% CPU use with 2 MPI tasks x no OpenMP threads

MPI task timing breakdown:
Section |  min time  |  avg time  |  max time  |%varavg| %total
---------------------------------------------------------------
Pair    | 47.802     | 48.167     | 48.531     |   5.3 | 54.40
Neigh   | 36.393     | 36.563     | 36.732     |   2.8 | 41.30
Comm    | 2.8086     | 3.3502     | 3.8918     |  29.6 |  3.78
Output  | 0.00015903 | 0.00029457 | 0.00043011 |   0.0 |  0.00
Modify  | 0.22741    | 0.23239    | 0.23736    |   1.0 |  0.26
Other   |            | 0.2219     |            |       |  0.25

Nlocal:    9826 ave 9957 max 9695 min
Histogram: 1 0 0 0 0 0 0 0 0 1
Nghost:    12911 ave 13120 max 12702 min
Histogram: 1 0 0 0 0 0 0 0 0 1
Neighs:    718432 ave 729409 max 707456 min
Histogram: 1 0 0 0 0 0 0 0 0 1

Total # of neighbors = 1436865
Ave neighs/atom = 73.1155
Neighbor list builds = 1000
Dangerous builds not checked
Setting up Verlet run ...
  Unit style    : metal
  Current step  : 1000
  Time step     : 0.001
Per MPI rank memory allocation (min/avg/max) = 10.76 | 10.76 | 10.76 Mbytes
Step Temp Press TotEng PotEng Enthalpy 
    1000    682.84547    -73174.12   -60023.139   -61757.629   -74383.782 
    2000    406.90865   -2047.8165   -65454.682   -66488.267    -65769.01 
Loop time of 107.39 on 2 procs for 1000 steps with 19652 atoms

Performance: 0.805 ns/day, 29.830 hours/ns, 9.312 timesteps/s
98.9% CPU use with 2 MPI tasks x no OpenMP threads

MPI task timing breakdown:
Section |  min time  |  avg time  |  max time  |%varavg| %total
---------------------------------------------------------------
Pair    | 58.774     | 59.145     | 59.516     |   4.8 | 55.08
Neigh   | 42.86      | 43.166     | 43.473     |   4.7 | 40.20
Comm    | 3.3297     | 4.0105     | 4.6914     |  34.0 |  3.73
Output  | 0.00010991 | 0.00022292 | 0.00033593 |   0.0 |  0.00
Modify  | 0.83406    | 0.83814    | 0.84223    |   0.4 |  0.78
Other   |            | 0.2294     |            |       |  0.21

Nlocal:    9826 ave 9867 max 9785 min
Histogram: 1 0 0 0 0 0 0 0 0 1
Nghost:    14161.5 ave 14163 max 14160 min
Histogram: 1 0 0 0 0 0 0 0 0 1
Neighs:    894916 ave 897971 max 891861 min
Histogram: 1 0 0 0 0 0 0 0 0 1

Total # of neighbors = 1789832
Ave neighs/atom = 91.0763
Neighbor list builds = 1000
Dangerous builds not checked
Setting up Verlet run ...
  Unit style    : metal
  Current step  : 2000
  Time step     : 0.001
Per MPI rank memory allocation (min/avg/max) = 11.54 | 11.54 | 11.54 Mbytes
Step Temp Press TotEng PotEng Enthalpy 
    2000    406.90865   -2047.8165   -65454.682   -66488.267    -65769.01 
   10000    2460.3678    1492.0287   -52968.345   -59217.904   -52707.273 
Loop time of 1142.48 on 2 procs for 8000 steps with 19652 atoms

Performance: 0.605 ns/day, 39.669 hours/ns, 7.002 timesteps/s
88.0% CPU use with 2 MPI tasks x no OpenMP threads

MPI task timing breakdown:
Section |  min time  |  avg time  |  max time  |%varavg| %total
---------------------------------------------------------------
Pair    | 640.29     | 647.03     | 653.78     |  26.5 | 56.63
Neigh   | 421.27     | 422.64     | 424.01     |   6.6 | 36.99
Comm    | 56.138     | 61.529     | 66.92      |  68.7 |  5.39
Output  | 0.040103   | 0.040141   | 0.040179   |   0.0 |  0.00
Modify  | 9.0245     | 9.0739     | 9.1232     |   1.6 |  0.79
Other   |            | 2.162      |            |       |  0.19

Nlocal:    9826 ave 9831 max 9821 min
Histogram: 1 0 0 0 0 0 0 0 0 1
Nghost:    13233 ave 13267 max 13199 min
Histogram: 1 0 0 0 0 0 0 0 0 1
Neighs:    788210 ave 797149 max 779272 min
Histogram: 1 0 0 0 0 0 0 0 0 1

Total # of neighbors = 1576421
Ave neighs/atom = 80.2168
Neighbor list builds = 8000
Dangerous builds not checked
Setting up Verlet run ...
  Unit style    : metal
  Current step  : 10000
  Time step     : 0.001
Per MPI rank memory allocation (min/avg/max) = 11.56 | 11.56 | 11.56 Mbytes
Step Temp Press TotEng PotEng Enthalpy 
   10000    2460.3678    1492.0287   -52968.345   -59217.904   -52707.273 
   20000    2441.5639   -1036.5643   -52925.128   -59126.922   -53107.074 
   30000    2482.2093    1109.3944    -52842.35   -59147.388   -52647.862 
   40000    2465.4394    654.14972   -52773.029    -59035.47   -52658.063 
Loop time of 4880.43 on 2 procs for 30000 steps with 19652 atoms

Performance: 0.531 ns/day, 45.189 hours/ns, 6.147 timesteps/s
80.9% CPU use with 2 MPI tasks x no OpenMP threads

MPI task timing breakdown:
Section |  min time  |  avg time  |  max time  |%varavg| %total
---------------------------------------------------------------
Pair    | 2691.3     | 2712       | 2732.8     |  39.9 | 55.57
Neigh   | 1798.4     | 1798.7     | 1799       |   0.7 | 36.85
Comm    | 298.06     | 318.57     | 339.08     | 114.9 |  6.53
Output  | 0.20761    | 0.20769    | 0.20777    |   0.0 |  0.00
Modify  | 41.796     | 41.93      | 42.064     |   2.1 |  0.86
Other   |            | 9.034      |            |       |  0.19

Nlocal:    9826 ave 9828 max 9824 min
Histogram: 1 0 0 0 0 0 0 0 0 1
Nghost:    13227 ave 13244 max 13210 min
Histogram: 1 0 0 0 0 0 0 0 0 1
Neighs:    784987 ave 794061 max 775913 min
Histogram: 1 0 0 0 0 0 0 0 0 1

Total # of neighbors = 1569974
Ave neighs/atom = 79.8888
Neighbor list builds = 30000
Dangerous builds not checked
Setting up Verlet run ...
  Unit style    : metal
  Current step  : 40000
  Time step     : 0.001
Per MPI rank memory allocation (min/avg/max) = 11.61 | 11.61 | 11.61 Mbytes
Step Temp Press TotEng PotEng Enthalpy 
   40000    2465.4394    654.14972   -52773.029    -59035.47   -52658.063 
   40495    2423.9823     1012.427   -53121.026   -59278.162   -52944.055 
Loop time of 79.0402 on 2 procs for 495 steps with 19652 atoms

Performance: 0.541 ns/day, 44.355 hours/ns, 6.263 timesteps/s
79.8% CPU use with 2 MPI tasks x no OpenMP threads

MPI task timing breakdown:
Section |  min time  |  avg time  |  max time  |%varavg| %total
---------------------------------------------------------------
Pair    | 44.07      | 44.319     | 44.568     |   3.7 | 56.07
Neigh   | 28.841     | 28.912     | 28.983     |   1.3 | 36.58
Comm    | 4.8498     | 4.988      | 5.1263     |   6.2 |  6.31
Output  | 9.2983e-05 | 0.000144   | 0.00019503 |   0.0 |  0.00
Modify  | 0.63192    | 0.66901    | 0.7061     |   4.5 |  0.85
Other   |            | 0.1519     |            |       |  0.19

Nlocal:    9826 ave 9835 max 9817 min
Histogram: 1 0 0 0 0 0 0 0 0 1
Nghost:    13251.5 ave 13268 max 13235 min
Histogram: 1 0 0 0 0 0 0 0 0 1
Neighs:    788947 ave 799384 max 778510 min
Histogram: 1 0 0 0 0 0 0 0 0 1

Total # of neighbors = 1577894
Ave neighs/atom = 80.2918
Neighbor list builds = 495
Dangerous builds not checked
Setting up Verlet run ...
  Unit style    : metal
  Current step  : 40495
  Time step     : 0.001
Per MPI rank memory allocation (min/avg/max) = 11.61 | 11.61 | 11.61 Mbytes
Step Temp Press TotEng PotEng Enthalpy 
   40495    2423.9823     1012.427   -53121.026   -59278.162   -52944.055 
   50000    2419.1813    921.22905    -53134.22   -59279.161   -52973.241 
Loop time of 1591.03 on 2 procs for 9505 steps with 19652 atoms

Performance: 0.516 ns/day, 46.497 hours/ns, 5.974 timesteps/s
80.0% CPU use with 2 MPI tasks x no OpenMP threads

MPI task timing breakdown:
Section |  min time  |  avg time  |  max time  |%varavg| %total
---------------------------------------------------------------
Pair    | 879.98     | 888.41     | 896.84     |  28.3 | 55.84
Neigh   | 577.31     | 577.78     | 578.24     |   1.9 | 36.31
Comm    | 98.93      | 107.94     | 116.94     |  86.7 |  6.78
Output  | 0.039243   | 0.039284   | 0.039324   |   0.0 |  0.00
Modify  | 13.888     | 13.917     | 13.945     |   0.8 |  0.87
Other   |            | 2.946      |            |       |  0.19

Nlocal:    9826 ave 9828 max 9824 min
Histogram: 1 0 0 0 0 0 0 0 0 1
Nghost:    13250.5 ave 13251 max 13250 min
Histogram: 1 0 0 0 0 0 0 0 0 1
Neighs:    789620 ave 798766 max 780474 min
Histogram: 1 0 0 0 0 0 0 0 0 1

Total # of neighbors = 1579240
Ave neighs/atom = 80.3603
Neighbor list builds = 9505
Dangerous builds not checked
Setting up Verlet run ...
  Unit style    : metal
  Current step  : 50000
  Time step     : 0.001
Per MPI rank memory allocation (min/avg/max) = 11.63 | 11.63 | 11.63 Mbytes
Step Temp Press TotEng PotEng Enthalpy 
   50000    2419.1813    921.22905    -53134.22   -59279.161   -52973.241 
   50495    2365.4419    666.95703   -53395.843   -59404.281    -53279.62 
Loop time of 74.9008 on 2 procs for 495 steps with 19652 atoms

Performance: 0.571 ns/day, 42.032 hours/ns, 6.609 timesteps/s
83.5% CPU use with 2 MPI tasks x no OpenMP threads

MPI task timing breakdown:
Section |  min time  |  avg time  |  max time  |%varavg| %total
---------------------------------------------------------------
Pair    | 40.808     | 41.515     | 42.222     |  11.0 | 55.43
Neigh   | 25.932     | 26.711     | 27.491     |  15.1 | 35.66
Comm    | 5.8487     | 5.9344     | 6.02       |   3.5 |  7.92
Output  | 9.799e-05  | 0.00019443 | 0.00029087 |   0.0 |  0.00
Modify  | 0.60138    | 0.60427    | 0.60716    |   0.4 |  0.81
Other   |            | 0.1353     |            |       |  0.18

Nlocal:    9826 ave 9835 max 9817 min
Histogram: 1 0 0 0 0 0 0 0 0 1
Nghost:    13305 ave 13318 max 13292 min
Histogram: 1 0 0 0 0 0 0 0 0 1
Neighs:    791570 ave 802211 max 780929 min
Histogram: 1 0 0 0 0 0 0 0 0 1

Total # of neighbors = 1583140
Ave neighs/atom = 80.5587
Neighbor list builds = 495
Dangerous builds not checked
Setting up Verlet run ...
  Unit style    : metal
  Current step  : 50495
  Time step     : 0.001
Per MPI rank memory allocation (min/avg/max) = 11.63 | 11.63 | 11.63 Mbytes
Step Temp Press TotEng PotEng Enthalpy 
   50495    2365.4419    666.95703   -53395.843   -59404.281    -53279.62 
   60000    2343.1793    556.32485   -53638.303   -59590.192   -53541.735 
Loop time of 1437.47 on 2 procs for 9505 steps with 19652 atoms

Performance: 0.571 ns/day, 42.009 hours/ns, 6.612 timesteps/s
86.0% CPU use with 2 MPI tasks x no OpenMP threads

MPI task timing breakdown:
Section |  min time  |  avg time  |  max time  |%varavg| %total
---------------------------------------------------------------
Pair    | 792.77     | 801.45     | 810.13     |  30.7 | 55.75
Neigh   | 534.01     | 534.18     | 534.35     |   0.7 | 37.16
Comm    | 77.791     | 86.336     | 94.88      |  92.0 |  6.01
Output  | 0.60781    | 0.60784    | 0.60788    |   0.0 |  0.04
Modify  | 12.1       | 12.113     | 12.126     |   0.4 |  0.84
Other   |            | 2.782      |            |       |  0.19

Nlocal:    9826 ave 9837 max 9815 min
Histogram: 1 0 0 0 0 0 0 0 0 1
Nghost:    13263.5 ave 13273 max 13254 min
Histogram: 1 0 0 0 0 0 0 0 0 1
Neighs:    794454 ave 803659 max 785250 min
Histogram: 1 0 0 0 0 0 0 0 0 1

Total # of neighbors = 1588909
Ave neighs/atom = 80.8523
Neighbor list builds = 9505
Dangerous builds not checked
Setting up Verlet run ...
  Unit style    : metal
  Current step  : 60000
  Time step     : 0.001
Per MPI rank memory allocation (min/avg/max) = 11.63 | 11.63 | 11.63 Mbytes
Step Temp Press TotEng PotEng Enthalpy 
   60000    2343.1793    556.32485   -53638.303   -59590.192   -53541.735 
   60495    2320.3448   -1765.8962   -53651.436   -59545.323   -53958.844 
Loop time of 65.8071 on 2 procs for 495 steps with 19652 atoms

Performance: 0.650 ns/day, 36.929 hours/ns, 7.522 timesteps/s
90.4% CPU use with 2 MPI tasks x no OpenMP threads

MPI task timing breakdown:
Section |  min time  |  avg time  |  max time  |%varavg| %total
---------------------------------------------------------------
Pair    | 33.004     | 33.3       | 33.596     |   5.1 | 50.60
Neigh   | 23.362     | 23.888     | 24.415     |  10.8 | 36.30
Comm    | 6.7279     | 6.9675     | 7.2072     |   9.1 | 10.59
Output  | 0.00011396 | 0.0002085  | 0.00030303 |   0.0 |  0.00
Modify  | 1.5094     | 1.5185     | 1.5275     |   0.7 |  2.31
Other   |            | 0.1326     |            |       |  0.20

Nlocal:    9826 ave 9842 max 9810 min
Histogram: 1 0 0 0 0 0 0 0 0 1
Nghost:    13254.5 ave 13263 max 13246 min
Histogram: 1 0 0 0 0 0 0 0 0 1
Neighs:    792111 ave 798444 max 785778 min
Histogram: 1 0 0 0 0 0 0 0 0 1

Total # of neighbors = 1584222
Ave neighs/atom = 80.6138
Neighbor list builds = 495
Dangerous builds not checked
Setting up Verlet run ...
  Unit style    : metal
  Current step  : 60495
  Time step     : 0.001
Per MPI rank memory allocation (min/avg/max) = 11.63 | 11.63 | 11.63 Mbytes
Step Temp Press TotEng PotEng Enthalpy 
   60495    2320.3448   -1765.8962   -53651.436   -59545.323   -53958.844 
   70000     2309.142    932.96709   -53842.063   -59707.494   -53680.563 
Loop time of 1206.73 on 2 procs for 9505 steps with 19652 atoms

Performance: 0.681 ns/day, 35.266 hours/ns, 7.877 timesteps/s
92.9% CPU use with 2 MPI tasks x no OpenMP threads

MPI task timing breakdown:
Section |  min time  |  avg time  |  max time  |%varavg| %total
---------------------------------------------------------------
Pair    | 656.9      | 663.27     | 669.64     |  24.7 | 54.96
Neigh   | 470.5      | 470.98     | 471.46     |   2.2 | 39.03
Comm    | 53.517     | 60.35      | 67.183     |  88.0 |  5.00
Output  | 0.036688   | 0.036763   | 0.036838   |   0.0 |  0.00
Modify  | 9.6183     | 9.6246     | 9.6308     |   0.2 |  0.80
Other   |            | 2.47       |            |       |  0.20

Nlocal:    9826 ave 9836 max 9816 min
Histogram: 1 0 0 0 0 0 0 0 0 1
Nghost:    13324 ave 13345 max 13303 min
Histogram: 1 0 0 0 0 0 0 0 0 1
Neighs:    796814 ave 805962 max 787667 min
Histogram: 1 0 0 0 0 0 0 0 0 1

Total # of neighbors = 1593629
Ave neighs/atom = 81.0925
Neighbor list builds = 9505
Dangerous builds not checked
Setting up Verlet run ...
  Unit style    : metal
  Current step  : 70000
  Time step     : 0.001
Per MPI rank memory allocation (min/avg/max) = 11.64 | 11.64 | 11.64 Mbytes
Step Temp Press TotEng PotEng Enthalpy 
   70000     2309.142    932.96709   -53842.063   -59707.494   -53680.563 
   70495    2270.7498    1443.8944   -54036.567   -59804.478   -53787.273 
Loop time of 52.0718 on 2 procs for 495 steps with 19652 atoms

Performance: 0.821 ns/day, 29.221 hours/ns, 9.506 timesteps/s
98.6% CPU use with 2 MPI tasks x no OpenMP threads

MPI task timing breakdown:
Section |  min time  |  avg time  |  max time  |%varavg| %total
---------------------------------------------------------------
Pair    | 27.896     | 28.193     | 28.49      |   5.6 | 54.14
Neigh   | 21.299     | 21.333     | 21.367     |   0.7 | 40.97
Comm    | 1.7487     | 2.0131     | 2.2775     |  18.6 |  3.87
Output  | 0.0001092  | 0.00012612 | 0.00014305 |   0.0 |  0.00
Modify  | 0.41839    | 0.41961    | 0.42083    |   0.2 |  0.81
Other   |            | 0.113      |            |       |  0.22

Nlocal:    9826 ave 9842 max 9810 min
Histogram: 1 0 0 0 0 0 0 0 0 1
Nghost:    13336.5 ave 13338 max 13335 min
Histogram: 1 0 0 0 0 0 0 0 0 1
Neighs:    798658 ave 805532 max 791783 min
Histogram: 1 0 0 0 0 0 0 0 0 1

Total # of neighbors = 1597315
Ave neighs/atom = 81.28
Neighbor list builds = 495
Dangerous builds not checked
Setting up Verlet run ...
  Unit style    : metal
  Current step  : 70495
  Time step     : 0.001
Per MPI rank memory allocation (min/avg/max) = 11.64 | 11.64 | 11.64 Mbytes
Step Temp Press TotEng PotEng Enthalpy 
   70495    2270.7498    1443.8944   -54036.567   -59804.478   -53787.273 
   80000    2232.0386    2622.8496   -54147.286   -59816.868   -53695.025 
Loop time of 1050.95 on 2 procs for 9505 steps with 19652 atoms

Performance: 0.781 ns/day, 30.713 hours/ns, 9.044 timesteps/s
98.6% CPU use with 2 MPI tasks x no OpenMP threads

MPI task timing breakdown:
Section |  min time  |  avg time  |  max time  |%varavg| %total
---------------------------------------------------------------
Pair    | 568.07     | 572.01     | 575.96     |  16.5 | 54.43
Neigh   | 428.4      | 429.94     | 431.47     |   7.4 | 40.91
Comm    | 32.859     | 38.226     | 43.594     |  86.8 |  3.64
Output  | 0.07197    | 0.071997   | 0.072023   |   0.0 |  0.01
Modify  | 8.3893     | 8.5045     | 8.6196     |   3.9 |  0.81
Other   |            | 2.2        |            |       |  0.21

Nlocal:    9826 ave 9834 max 9818 min
Histogram: 1 0 0 0 0 0 0 0 0 1
Nghost:    13325 ave 13341 max 13309 min
Histogram: 1 0 0 0 0 0 0 0 0 1
Neighs:    799528 ave 807645 max 791411 min
Histogram: 1 0 0 0 0 0 0 0 0 1

Total # of neighbors = 1599056
Ave neighs/atom = 81.3686
Neighbor list builds = 9505
Dangerous builds not checked
Setting up Verlet run ...
  Unit style    : metal
  Current step  : 80000
  Time step     : 0.001
Per MPI rank memory allocation (min/avg/max) = 11.65 | 11.65 | 11.65 Mbytes
Step Temp Press TotEng PotEng Enthalpy 
   80000    2232.0386    2622.8496   -54147.286   -59816.868   -53695.025 
   80495    2216.0955    1801.0634   -54348.126    -59977.21   -54038.474 
Loop time of 53.0995 on 2 procs for 495 steps with 19652 atoms

Performance: 0.805 ns/day, 29.798 hours/ns, 9.322 timesteps/s
98.5% CPU use with 2 MPI tasks x no OpenMP threads

MPI task timing breakdown:
Section |  min time  |  avg time  |  max time  |%varavg| %total
---------------------------------------------------------------
Pair    | 28.286     | 28.341     | 28.397     |   1.0 | 53.37
Neigh   | 21.544     | 21.632     | 21.719     |   1.9 | 40.74
Comm    | 2.5596     | 2.59       | 2.6204     |   1.9 |  4.88
Output  | 0.00010204 | 0.00014102 | 0.00018001 |   0.0 |  0.00
Modify  | 0.42162    | 0.42337    | 0.42511    |   0.3 |  0.80
Other   |            | 0.1129     |            |       |  0.21

Nlocal:    9826 ave 9829 max 9823 min
Histogram: 1 0 0 0 0 0 0 0 0 1
Nghost:    13398 ave 13399 max 13397 min
Histogram: 1 0 0 0 0 0 0 0 0 1
Neighs:    801874 ave 810676 max 793072 min
Histogram: 1 0 0 0 0 0 0 0 0 1

Total # of neighbors = 1603748
Ave neighs/atom = 81.6074
Neighbor list builds = 495
Dangerous builds not checked
Setting up Verlet run ...
  Unit style    : metal
  Current step  : 80495
  Time step     : 0.001
Per MPI rank memory allocation (min/avg/max) = 11.65 | 11.65 | 11.65 Mbytes
Step Temp Press TotEng PotEng Enthalpy 
   80495    2216.0955    1801.0634   -54348.126    -59977.21   -54038.474 
   90000    2216.0983   -1877.8855   -54423.445   -60052.537   -54746.897 
Loop time of 1044.2 on 2 procs for 9505 steps with 19652 atoms

Performance: 0.786 ns/day, 30.516 hours/ns, 9.103 timesteps/s
99.1% CPU use with 2 MPI tasks x no OpenMP threads

MPI task timing breakdown:
Section |  min time  |  avg time  |  max time  |%varavg| %total
---------------------------------------------------------------
Pair    | 565.21     | 569.47     | 573.73     |  17.9 | 54.54
Neigh   | 426.17     | 427.32     | 428.47     |   5.6 | 40.92
Comm    | 31.594     | 37.036     | 42.478     |  89.4 |  3.55
Output  | 0.035771   | 0.035793   | 0.035815   |   0.0 |  0.00
Modify  | 8.106      | 8.1394     | 8.1728     |   1.2 |  0.78
Other   |            | 2.2        |            |       |  0.21

Nlocal:    9826 ave 9842 max 9810 min
Histogram: 1 0 0 0 0 0 0 0 0 1
Nghost:    13359 ave 13367 max 13351 min
Histogram: 1 0 0 0 0 0 0 0 0 1
Neighs:    800051 ave 811000 max 789102 min
Histogram: 1 0 0 0 0 0 0 0 0 1

Total # of neighbors = 1600102
Ave neighs/atom = 81.4218
Neighbor list builds = 9505
Dangerous builds not checked
Setting up Verlet run ...
  Unit style    : metal
  Current step  : 90000
  Time step     : 0.001
Per MPI rank memory allocation (min/avg/max) = 11.66 | 11.66 | 11.66 Mbytes
Step Temp Press TotEng PotEng Enthalpy 
   90000    2216.0983   -1877.8855   -54423.445   -60052.537   -54746.897 
   90495    2149.0887   -1454.9906   -54694.765   -60153.646   -54944.663 
Loop time of 53.7645 on 2 procs for 495 steps with 19652 atoms

Performance: 0.795 ns/day, 30.171 hours/ns, 9.207 timesteps/s
99.5% CPU use with 2 MPI tasks x no OpenMP threads

MPI task timing breakdown:
Section |  min time  |  avg time  |  max time  |%varavg| %total
---------------------------------------------------------------
Pair    | 29.016     | 29.305     | 29.594     |   5.3 | 54.51
Neigh   | 21.544     | 21.844     | 22.145     |   6.4 | 40.63
Comm    | 1.4761     | 2.067      | 2.658      |  41.1 |  3.84
Output  | 8.7976e-05 | 0.00012243 | 0.00015688 |   0.0 |  0.00
Modify  | 0.42792    | 0.42828    | 0.42864    |   0.1 |  0.80
Other   |            | 0.1199     |            |       |  0.22

Nlocal:    9826 ave 9833 max 9819 min
Histogram: 1 0 0 0 0 0 0 0 0 1
Nghost:    13328.5 ave 13343 max 13314 min
Histogram: 1 0 0 0 0 0 0 0 0 1
Neighs:    802752 ave 810899 max 794605 min
Histogram: 1 0 0 0 0 0 0 0 0 1

Total # of neighbors = 1605504
Ave neighs/atom = 81.6967
Neighbor list builds = 495
Dangerous builds not checked
Setting up Verlet run ...
  Unit style    : metal
  Current step  : 90495
  Time step     : 0.001
Per MPI rank memory allocation (min/avg/max) = 11.66 | 11.66 | 11.66 Mbytes
Step Temp Press TotEng PotEng Enthalpy 
   90495    2149.0887   -1454.9906   -54694.765   -60153.646   -54944.663 
  100000     2152.742   -35.394959   -54799.257   -60267.418   -54805.314 
Loop time of 1050.01 on 2 procs for 9505 steps with 19652 atoms

Performance: 0.782 ns/day, 30.686 hours/ns, 9.052 timesteps/s
99.0% CPU use with 2 MPI tasks x no OpenMP threads

MPI task timing breakdown:
Section |  min time  |  avg time  |  max time  |%varavg| %total
---------------------------------------------------------------
Pair    | 564.48     | 570.21     | 575.93     |  24.0 | 54.31
Neigh   | 426.72     | 427.66     | 428.59     |   4.5 | 40.73
Comm    | 33.595     | 40.294     | 46.994     | 105.5 |  3.84
Output  | 0.032395   | 0.03242    | 0.032446   |   0.0 |  0.00
Modify  | 9.5631     | 9.6093     | 9.6554     |   1.5 |  0.92
Other   |            | 2.21       |            |       |  0.21

Nlocal:    9826 ave 9843 max 9809 min
Histogram: 1 0 0 0 0 0 0 0 0 1
Nghost:    13375.5 ave 13392 max 13359 min
Histogram: 1 0 0 0 0 0 0 0 0 1
Neighs:    805424 ave 811147 max 799701 min
Histogram: 1 0 0 0 0 0 0 0 0 1

Total # of neighbors = 1610848
Ave neighs/atom = 81.9687
Neighbor list builds = 9505
Dangerous builds not checked
Setting up Verlet run ...
  Unit style    : metal
  Current step  : 100000
  Time step     : 0.001
Per MPI rank memory allocation (min/avg/max) = 11.66 | 11.66 | 11.66 Mbytes
Step Temp Press TotEng PotEng Enthalpy 
  100000     2152.742   -35.394959   -54799.257   -60267.418   -54805.314 
  100495    2107.9813    1505.7834   -54965.711   -60320.175   -54708.617 
Loop time of 53.6536 on 2 procs for 495 steps with 19652 atoms

Performance: 0.797 ns/day, 30.109 hours/ns, 9.226 timesteps/s
98.7% CPU use with 2 MPI tasks x no OpenMP threads

MPI task timing breakdown:
Section |  min time  |  avg time  |  max time  |%varavg| %total
---------------------------------------------------------------
Pair    | 29.222     | 29.437     | 29.652     |   4.0 | 54.87
Neigh   | 22.062     | 22.155     | 22.248     |   2.0 | 41.29
Comm    | 1.3861     | 1.5101     | 1.6342     |  10.1 |  2.81
Output  | 8.6069e-05 | 0.00012255 | 0.00015903 |   0.0 |  0.00
Modify  | 0.42866    | 0.4319     | 0.43514    |   0.5 |  0.80
Other   |            | 0.1192     |            |       |  0.22

Nlocal:    9826 ave 9833 max 9819 min
Histogram: 1 0 0 0 0 0 0 0 0 1
Nghost:    13356.5 ave 13379 max 13334 min
Histogram: 1 0 0 0 0 0 0 0 0 1
Neighs:    806984 ave 815421 max 798547 min
Histogram: 1 0 0 0 0 0 0 0 0 1

Total # of neighbors = 1613968
Ave neighs/atom = 82.1274
Neighbor list builds = 495
Dangerous builds not checked
Setting up Verlet run ...
  Unit style    : metal
  Current step  : 100495
  Time step     : 0.001
Per MPI rank memory allocation (min/avg/max) = 11.66 | 11.66 | 11.66 Mbytes
Step Temp Press TotEng PotEng Enthalpy 
  100495    2107.9813    1505.7834   -54965.711   -60320.175   -54708.617 
  110000      2111.09   -307.30007   -55107.213   -60469.574   -55159.589 
Loop time of 1056.86 on 2 procs for 9505 steps with 19652 atoms

Performance: 0.777 ns/day, 30.886 hours/ns, 8.994 timesteps/s
99.2% CPU use with 2 MPI tasks x no OpenMP threads

MPI task timing breakdown:
Section |  min time  |  avg time  |  max time  |%varavg| %total
---------------------------------------------------------------
Pair    | 570.07     | 577.34     | 584.61     |  30.3 | 54.63
Neigh   | 429.64     | 430.23     | 430.82     |   2.8 | 40.71
Comm    | 30.646     | 38.557     | 46.468     | 127.4 |  3.65
Output  | 0.037858   | 0.037892   | 0.037926   |   0.0 |  0.00
Modify  | 8.3886     | 8.4399     | 8.4911     |   1.8 |  0.80
Other   |            | 2.25       |            |       |  0.21

Nlocal:    9826 ave 9853 max 9799 min
Histogram: 1 0 0 0 0 0 0 0 0 1
Nghost:    13363.5 ave 13379 max 13348 min
Histogram: 1 0 0 0 0 0 0 0 0 1
Neighs:    808474 ave 818953 max 797994 min
Histogram: 1 0 0 0 0 0 0 0 0 1

Total # of neighbors = 1616947
Ave neighs/atom = 82.279
Neighbor list builds = 9505
Dangerous builds not checked
Setting up Verlet run ...
  Unit style    : metal
  Current step  : 110000
  Time step     : 0.001
Per MPI rank memory allocation (min/avg/max) = 11.67 | 11.67 | 11.67 Mbytes
Step Temp Press TotEng PotEng Enthalpy 
  110000      2111.09   -307.30007   -55107.213   -60469.574   -55159.589 
  110495    2060.7098    1103.5157    -55329.52   -60563.911   -55142.027 
Loop time of 52.7246 on 2 procs for 495 steps with 19652 atoms

Performance: 0.811 ns/day, 29.587 hours/ns, 9.388 timesteps/s
99.6% CPU use with 2 MPI tasks x no OpenMP threads

MPI task timing breakdown:
Section |  min time  |  avg time  |  max time  |%varavg| %total
---------------------------------------------------------------
Pair    | 28.259     | 28.728     | 29.197     |   8.7 | 54.49
Neigh   | 21.35      | 21.625     | 21.899     |   5.9 | 41.01
Comm    | 1.6374     | 1.8307     | 2.0239     |  14.3 |  3.47
Output  | 0.00020695 | 0.00020897 | 0.000211   |   0.0 |  0.00
Modify  | 0.42436    | 0.42498    | 0.42559    |   0.1 |  0.81
Other   |            | 0.1161     |            |       |  0.22

Nlocal:    9826 ave 9829 max 9823 min
Histogram: 1 0 0 0 0 0 0 0 0 1
Nghost:    13377.5 ave 13403 max 13352 min
Histogram: 1 0 0 0 0 0 0 0 0 1
Neighs:    810742 ave 818198 max 803287 min
Histogram: 1 0 0 0 0 0 0 0 0 1

Total # of neighbors = 1621485
Ave neighs/atom = 82.5099
Neighbor list builds = 495
Dangerous builds not checked
Setting up Verlet run ...
  Unit style    : metal
  Current step  : 110495
  Time step     : 0.001
Per MPI rank memory allocation (min/avg/max) = 11.67 | 11.67 | 11.67 Mbytes
Step Temp Press TotEng PotEng Enthalpy 
  110495    2060.7098    1103.5157    -55329.52   -60563.911   -55142.027 
  120000    2054.2282   -610.34405   -55357.354    -60575.28    -55461.19 
Loop time of 1061.45 on 2 procs for 9505 steps with 19652 atoms

Performance: 0.774 ns/day, 31.020 hours/ns, 8.955 timesteps/s
99.0% CPU use with 2 MPI tasks x no OpenMP threads

MPI task timing breakdown:
Section |  min time  |  avg time  |  max time  |%varavg| %total
---------------------------------------------------------------
Pair    | 577.68     | 581.48     | 585.28     |  15.8 | 54.78
Neigh   | 430.22     | 430.5      | 430.78     |   1.3 | 40.56
Comm    | 34.858     | 38.968     | 43.079     |  65.8 |  3.67
Output  | 0.036762   | 0.036837   | 0.036913   |   0.0 |  0.00
Modify  | 8.1832     | 8.2116     | 8.24       |   1.0 |  0.77
Other   |            | 2.253      |            |       |  0.21

Nlocal:    9826 ave 9828 max 9824 min
Histogram: 1 0 0 0 0 0 0 0 0 1
Nghost:    13383 ave 13397 max 13369 min
Histogram: 1 0 0 0 0 0 0 0 0 1
Neighs:    810028 ave 819137 max 800920 min
Histogram: 1 0 0 0 0 0 0 0 0 1

Total # of neighbors = 1620057
Ave neighs/atom = 82.4373
Neighbor list builds = 9505
Dangerous builds not checked
Setting up Verlet run ...
  Unit style    : metal
  Current step  : 120000
  Time step     : 0.001
Per MPI rank memory allocation (min/avg/max) = 11.67 | 11.67 | 11.67 Mbytes
Step Temp Press TotEng PotEng Enthalpy 
  120000    2054.2282   -610.34405   -55357.354    -60575.28    -55461.19 
  120495    2001.9146   -134.50045   -55601.517   -60686.563   -55624.333 
Loop time of 54.2421 on 2 procs for 495 steps with 19652 atoms

Performance: 0.788 ns/day, 30.439 hours/ns, 9.126 timesteps/s
96.4% CPU use with 2 MPI tasks x no OpenMP threads

MPI task timing breakdown:
Section |  min time  |  avg time  |  max time  |%varavg| %total
---------------------------------------------------------------
Pair    | 30.334     | 30.518     | 30.702     |   3.3 | 56.26
Neigh   | 21.312     | 21.486     | 21.659     |   3.7 | 39.61
Comm    | 1.3359     | 1.6995     | 2.0632     |  27.9 |  3.13
Output  | 0.00010109 | 0.00014055 | 0.00018001 |   0.0 |  0.00
Modify  | 0.41608    | 0.42192    | 0.42775    |   0.9 |  0.78
Other   |            | 0.1167     |            |       |  0.22

Nlocal:    9826 ave 9834 max 9818 min
Histogram: 1 0 0 0 0 0 0 0 0 1
Nghost:    13409.5 ave 13422 max 13397 min
Histogram: 1 0 0 0 0 0 0 0 0 1
Neighs:    812103 ave 821419 max 802787 min
Histogram: 1 0 0 0 0 0 0 0 0 1

Total # of neighbors = 1624206
Ave neighs/atom = 82.6484
Neighbor list builds = 495
Dangerous builds not checked
Setting up Verlet run ...
  Unit style    : metal
  Current step  : 120495
  Time step     : 0.001
Per MPI rank memory allocation (min/avg/max) = 11.67 | 11.67 | 11.67 Mbytes
Step Temp Press TotEng PotEng Enthalpy 
  120495    2001.9146   -134.50045   -55601.517   -60686.563   -55624.333 
  130000     1998.653    1126.2395   -55714.544   -60791.305   -55524.093 
Loop time of 1052.48 on 2 procs for 9505 steps with 19652 atoms

Performance: 0.780 ns/day, 30.758 hours/ns, 9.031 timesteps/s
99.1% CPU use with 2 MPI tasks x no OpenMP threads

MPI task timing breakdown:
Section |  min time  |  avg time  |  max time  |%varavg| %total
---------------------------------------------------------------
Pair    | 572.45     | 577.46     | 582.48     |  20.9 | 54.87
Neigh   | 425.56     | 425.85     | 426.14     |   1.4 | 40.46
Comm    | 32.8       | 38.147     | 43.493     |  86.6 |  3.62
Output  | 0.039511   | 0.039613   | 0.039716   |   0.1 |  0.00
Modify  | 8.7129     | 8.7563     | 8.7998     |   1.5 |  0.83
Other   |            | 2.23       |            |       |  0.21

Nlocal:    9826 ave 9834 max 9818 min
Histogram: 1 0 0 0 0 0 0 0 0 1
Nghost:    13500.5 ave 13518 max 13483 min
Histogram: 1 0 0 0 0 0 0 0 0 1
Neighs:    814615 ave 825428 max 803802 min
Histogram: 1 0 0 0 0 0 0 0 0 1

Total # of neighbors = 1629230
Ave neighs/atom = 82.904
Neighbor list builds = 9505
Dangerous builds not checked
Setting up Verlet run ...
  Unit style    : metal
  Current step  : 130000
  Time step     : 0.001
Per MPI rank memory allocation (min/avg/max) = 11.67 | 11.67 | 11.67 Mbytes
Step Temp Press TotEng PotEng Enthalpy 
  130000     1998.653    1126.2395   -55714.544   -60791.305   -55524.093 
  130495    1963.6196    1875.2939   -55920.445   -60908.218   -55604.339 
Loop time of 53.2098 on 2 procs for 495 steps with 19652 atoms

Performance: 0.804 ns/day, 29.860 hours/ns, 9.303 timesteps/s
99.9% CPU use with 2 MPI tasks x no OpenMP threads

MPI task timing breakdown:
Section |  min time  |  avg time  |  max time  |%varavg| %total
---------------------------------------------------------------
Pair    | 28.894     | 29.169     | 29.444     |   5.1 | 54.82
Neigh   | 21.737     | 21.837     | 21.937     |   2.1 | 41.04
Comm    | 1.2809     | 1.6603     | 2.0398     |  29.4 |  3.12
Output  | 0.00020003 | 0.00020206 | 0.00020409 |   0.0 |  0.00
Modify  | 0.42201    | 0.42587    | 0.42974    |   0.6 |  0.80
Other   |            | 0.1174     |            |       |  0.22

Nlocal:    9826 ave 9848 max 9804 min
Histogram: 1 0 0 0 0 0 0 0 0 1
Nghost:    13491.5 ave 13506 max 13477 min
Histogram: 1 0 0 0 0 0 0 0 0 1
Neighs:    816962 ave 827698 max 806226 min
Histogram: 1 0 0 0 0 0 0 0 0 1

Total # of neighbors = 1633924
Ave neighs/atom = 83.1429
Neighbor list builds = 495
Dangerous builds not checked
Setting up Verlet run ...
  Unit style    : metal
  Current step  : 130495
  Time step     : 0.001
Per MPI rank memory allocation (min/avg/max) = 11.67 | 11.67 | 11.67 Mbytes
Step Temp Press TotEng PotEng Enthalpy 
  130495    1963.6196    1875.2939   -55920.445   -60908.218   -55604.339 
  140000    1940.2996   -1466.4754   -56040.751   -60969.289   -56288.205 
Loop time of 1072.28 on 2 procs for 9505 steps with 19652 atoms

Performance: 0.766 ns/day, 31.337 hours/ns, 8.864 timesteps/s
98.5% CPU use with 2 MPI tasks x no OpenMP threads

MPI task timing breakdown:
Section |  min time  |  avg time  |  max time  |%varavg| %total
---------------------------------------------------------------
Pair    | 583.61     | 589        | 594.39     |  22.2 | 54.93
Neigh   | 436.15     | 436.33     | 436.52     |   0.9 | 40.69
Comm    | 30.956     | 36.193     | 41.43      |  87.1 |  3.38
Output  | 0.034938   | 0.034975   | 0.035011   |   0.0 |  0.00
Modify  | 8.4209     | 8.4618     | 8.5026     |   1.4 |  0.79
Other   |            | 2.263      |            |       |  0.21

Nlocal:    9826 ave 9830 max 9822 min
Histogram: 1 0 0 0 0 0 0 0 0 1
Nghost:    13449.5 ave 13466 max 13433 min
Histogram: 1 0 0 0 0 0 0 0 0 1
Neighs:    816042 ave 824122 max 807963 min
Histogram: 1 0 0 0 0 0 0 0 0 1

Total # of neighbors = 1632085
Ave neighs/atom = 83.0493
Neighbor list builds = 9505
Dangerous builds not checked
Setting up Verlet run ...
  Unit style    : metal
  Current step  : 140000
  Time step     : 0.001
Per MPI rank memory allocation (min/avg/max) = 11.68 | 11.68 | 11.68 Mbytes
Step Temp Press TotEng PotEng Enthalpy 
  140000    1940.2996   -1466.4754   -56040.751   -60969.289   -56288.205 
  140495    1914.2157   -837.81419    -56235.68   -61097.962   -56376.621 
Loop time of 53.2161 on 2 procs for 495 steps with 19652 atoms

Performance: 0.804 ns/day, 29.863 hours/ns, 9.302 timesteps/s
99.1% CPU use with 2 MPI tasks x no OpenMP threads

MPI task timing breakdown:
Section |  min time  |  avg time  |  max time  |%varavg| %total
---------------------------------------------------------------
Pair    | 28.598     | 28.946     | 29.293     |   6.5 | 54.39
Neigh   | 21.779     | 21.819     | 21.858     |   0.8 | 41.00
Comm    | 1.6088     | 1.9164     | 2.2239     |  22.2 |  3.60
Output  | 0.0001111  | 0.0001781  | 0.00024509 |   0.0 |  0.00
Modify  | 0.41969    | 0.41996    | 0.42022    |   0.0 |  0.79
Other   |            | 0.1152     |            |       |  0.22

Nlocal:    9826 ave 9837 max 9815 min
Histogram: 1 0 0 0 0 0 0 0 0 1
Nghost:    13478.5 ave 13493 max 13464 min
Histogram: 1 0 0 0 0 0 0 0 0 1
Neighs:    818290 ave 829172 max 807409 min
Histogram: 1 0 0 0 0 0 0 0 0 1

Total # of neighbors = 1636581
Ave neighs/atom = 83.2781
Neighbor list builds = 495
Dangerous builds not checked
Setting up Verlet run ...
  Unit style    : metal
  Current step  : 140495
  Time step     : 0.001
Per MPI rank memory allocation (min/avg/max) = 11.68 | 11.68 | 11.68 Mbytes
Step Temp Press TotEng PotEng Enthalpy 
  140495    1914.2157   -837.81419    -56235.68   -61097.962   -56376.621 
  150000    1911.7453   -2003.1482   -56298.868   -61154.875   -56635.859 
Loop time of 1056.49 on 2 procs for 9505 steps with 19652 atoms

Performance: 0.777 ns/day, 30.875 hours/ns, 8.997 timesteps/s
99.1% CPU use with 2 MPI tasks x no OpenMP threads

MPI task timing breakdown:
Section |  min time  |  avg time  |  max time  |%varavg| %total
---------------------------------------------------------------
Pair    | 575.35     | 578.84     | 582.33     |  14.5 | 54.79
Neigh   | 433.27     | 433.39     | 433.5      |   0.5 | 41.02
Comm    | 30.175     | 33.233     | 36.291     |  53.0 |  3.15
Output  | 0.035557   | 0.035579   | 0.035601   |   0.0 |  0.00
Modify  | 8.2237     | 8.7672     | 9.3107     |  18.4 |  0.83
Other   |            | 2.225      |            |       |  0.21

Nlocal:    9826 ave 9838 max 9814 min
Histogram: 1 0 0 0 0 0 0 0 0 1
Nghost:    13455.5 ave 13489 max 13422 min
Histogram: 1 0 0 0 0 0 0 0 0 1
Neighs:    818360 ave 828545 max 808175 min
Histogram: 1 0 0 0 0 0 0 0 0 1

Total # of neighbors = 1636720
Ave neighs/atom = 83.2852
Neighbor list builds = 9505
Dangerous builds not checked
Setting up Verlet run ...
  Unit style    : metal
  Current step  : 150000
  Time step     : 0.001
Per MPI rank memory allocation (min/avg/max) = 11.68 | 11.68 | 11.68 Mbytes
Step Temp Press TotEng PotEng Enthalpy 
  150000    1911.7453   -2003.1482   -56298.868   -61154.875   -56635.859 
  150495    1849.8408    855.96841   -56532.026    -61230.79   -56388.626 
Loop time of 54.4356 on 2 procs for 495 steps with 19652 atoms

Performance: 0.786 ns/day, 30.547 hours/ns, 9.093 timesteps/s
98.4% CPU use with 2 MPI tasks x no OpenMP threads

MPI task timing breakdown:
Section |  min time  |  avg time  |  max time  |%varavg| %total
---------------------------------------------------------------
Pair    | 29.921     | 30.061     | 30.201     |   2.6 | 55.22
Neigh   | 22.084     | 22.317     | 22.55      |   4.9 | 41.00
Comm    | 1.1305     | 1.5102     | 1.89       |  30.9 |  2.77
Output  | 8.3923e-05 | 0.00017345 | 0.00026298 |   0.0 |  0.00
Modify  | 0.42512    | 0.43079    | 0.43646    |   0.9 |  0.79
Other   |            | 0.1166     |            |       |  0.21

Nlocal:    9826 ave 9871 max 9781 min
Histogram: 1 0 0 0 0 0 0 0 0 1
Nghost:    13483 ave 13505 max 13461 min
Histogram: 1 0 0 0 0 0 0 0 0 1
Neighs:    821710 ave 837004 max 806417 min
Histogram: 1 0 0 0 0 0 0 0 0 1

Total # of neighbors = 1643421
Ave neighs/atom = 83.6261
Neighbor list builds = 495
Dangerous builds not checked
Setting up Verlet run ...
  Unit style    : metal
  Current step  : 150495
  Time step     : 0.001
Per MPI rank memory allocation (min/avg/max) = 11.68 | 11.68 | 11.68 Mbytes
Step Temp Press TotEng PotEng Enthalpy 
  150495    1849.8408    855.96841   -56532.026    -61230.79   -56388.626 
  160000    1869.1366    2551.5631   -56585.704   -61333.481   -56159.596 
Loop time of 1077.01 on 2 procs for 9505 steps with 19652 atoms

Performance: 0.763 ns/day, 31.475 hours/ns, 8.825 timesteps/s
98.4% CPU use with 2 MPI tasks x no OpenMP threads

MPI task timing breakdown:
Section |  min time  |  avg time  |  max time  |%varavg| %total
---------------------------------------------------------------
Pair    | 579.51     | 587.04     | 594.58     |  31.1 | 54.51
Neigh   | 437.36     | 438.23     | 439.11     |   4.2 | 40.69
Comm    | 32.527     | 39.227     | 45.928     | 107.0 |  3.64
Output  | 0.035362   | 0.035396   | 0.035429   |   0.0 |  0.00
Modify  | 10.196     | 10.24      | 10.283     |   1.3 |  0.95
Other   |            | 2.237      |            |       |  0.21

Nlocal:    9826 ave 9840 max 9812 min
Histogram: 1 0 0 0 0 0 0 0 0 1
Nghost:    13550 ave 13572 max 13528 min
Histogram: 1 0 0 0 0 0 0 0 0 1
Neighs:    824296 ave 832001 max 816591 min
Histogram: 1 0 0 0 0 0 0 0 0 1

Total # of neighbors = 1648592
Ave neighs/atom = 83.8893
Neighbor list builds = 9505
Dangerous builds not checked
Setting up Verlet run ...
  Unit style    : metal
  Current step  : 160000
  Time step     : 0.001
Per MPI rank memory allocation (min/avg/max) = 11.68 | 11.68 | 11.68 Mbytes
Step Temp Press TotEng PotEng Enthalpy 
  160000    1869.1366    2551.5631   -56585.704   -61333.481   -56159.596 
  160495    1825.9918    941.30045   -56814.537   -61452.722   -56657.585 
Loop time of 53.4642 on 2 procs for 495 steps with 19652 atoms

Performance: 0.800 ns/day, 30.002 hours/ns, 9.259 timesteps/s
99.1% CPU use with 2 MPI tasks x no OpenMP threads

MPI task timing breakdown:
Section |  min time  |  avg time  |  max time  |%varavg| %total
---------------------------------------------------------------
Pair    | 28.954     | 29.218     | 29.481     |   4.9 | 54.65
Neigh   | 22.072     | 22.085     | 22.098     |   0.3 | 41.31
Comm    | 1.3415     | 1.6217     | 1.9019     |  22.0 |  3.03
Output  | 9.9897e-05 | 0.00015843 | 0.00021696 |   0.0 |  0.00
Modify  | 0.42013    | 0.42384    | 0.42755    |   0.6 |  0.79
Other   |            | 0.1156     |            |       |  0.22

Nlocal:    9826 ave 9836 max 9816 min
Histogram: 1 0 0 0 0 0 0 0 0 1
Nghost:    13534 ave 13560 max 13508 min
Histogram: 1 0 0 0 0 0 0 0 0 1
Neighs:    824848 ave 833592 max 816103 min
Histogram: 1 0 0 0 0 0 0 0 0 1

Total # of neighbors = 1649695
Ave neighs/atom = 83.9454
Neighbor list builds = 495
Dangerous builds not checked
Setting up Verlet run ...
  Unit style    : metal
  Current step  : 160495
  Time step     : 0.001
Per MPI rank memory allocation (min/avg/max) = 11.68 | 11.68 | 11.68 Mbytes
Step Temp Press TotEng PotEng Enthalpy 
  160495    1825.9918    941.30045   -56814.537   -61452.722   -56657.585 
  170000    1789.6306   -620.48827   -57020.173   -61565.998   -57123.522 
Loop time of 1074.09 on 2 procs for 9505 steps with 19652 atoms

Performance: 0.765 ns/day, 31.390 hours/ns, 8.849 timesteps/s
98.1% CPU use with 2 MPI tasks x no OpenMP threads

MPI task timing breakdown:
Section |  min time  |  avg time  |  max time  |%varavg| %total
---------------------------------------------------------------
Pair    | 586.69     | 591.3      | 595.92     |  19.0 | 55.05
Neigh   | 437.42     | 438.02     | 438.61     |   2.8 | 40.78
Comm    | 29.948     | 33.563     | 37.177     |  62.4 |  3.12
Output  | 0.037595   | 0.037632   | 0.037669   |   0.0 |  0.00
Modify  | 8.5216     | 8.9244     | 9.3271     |  13.5 |  0.83
Other   |            | 2.243      |            |       |  0.21

Nlocal:    9826 ave 9848 max 9804 min
Histogram: 1 0 0 0 0 0 0 0 0 1
Nghost:    13502 ave 13520 max 13484 min
Histogram: 1 0 0 0 0 0 0 0 0 1
Neighs:    825902 ave 837140 max 814663 min
Histogram: 1 0 0 0 0 0 0 0 0 1

Total # of neighbors = 1651803
Ave neighs/atom = 84.0527
Neighbor list builds = 9505
Dangerous builds not checked
Setting up Verlet run ...
  Unit style    : metal
  Current step  : 170000
  Time step     : 0.001
Per MPI rank memory allocation (min/avg/max) = 11.68 | 11.68 | 11.68 Mbytes
Step Temp Press TotEng PotEng Enthalpy 
  170000    1789.6306   -620.48827   -57020.173   -61565.998   -57123.522 
  170495    1762.2683    566.56656   -57177.401   -61653.723   -57083.289 
Loop time of 54.7752 on 2 procs for 495 steps with 19652 atoms

Performance: 0.781 ns/day, 30.738 hours/ns, 9.037 timesteps/s
98.9% CPU use with 2 MPI tasks x no OpenMP threads

MPI task timing breakdown:
Section |  min time  |  avg time  |  max time  |%varavg| %total
---------------------------------------------------------------
Pair    | 30.102     | 30.223     | 30.345     |   2.2 | 55.18
Neigh   | 22.433     | 22.445     | 22.457     |   0.3 | 40.98
Comm    | 1.4141     | 1.5523     | 1.6904     |  11.1 |  2.83
Output  | 9.3937e-05 | 0.00014246 | 0.00019097 |   0.0 |  0.00
Modify  | 0.4329     | 0.43746    | 0.44202    |   0.7 |  0.80
Other   |            | 0.117      |            |       |  0.21

Nlocal:    9826 ave 9869 max 9783 min
Histogram: 1 0 0 0 0 0 0 0 0 1
Nghost:    13542.5 ave 13586 max 13499 min
Histogram: 1 0 0 0 0 0 0 0 0 1
Neighs:    828313 ave 842111 max 814515 min
Histogram: 1 0 0 0 0 0 0 0 0 1

Total # of neighbors = 1656626
Ave neighs/atom = 84.2981
Neighbor list builds = 495
Dangerous builds not checked
Setting up Verlet run ...
  Unit style    : metal
  Current step  : 170495
  Time step     : 0.001
Per MPI rank memory allocation (min/avg/max) = 11.68 | 11.68 | 11.68 Mbytes
Step Temp Press TotEng PotEng Enthalpy 
  170495    1762.2683    566.56656   -57177.401   -61653.723   -57083.289 
  180000    1758.7538   -679.49275   -57261.876   -61729.271   -57374.639 
Loop time of 1075.44 on 2 procs for 9505 steps with 19652 atoms

Performance: 0.764 ns/day, 31.429 hours/ns, 8.838 timesteps/s
97.8% CPU use with 2 MPI tasks x no OpenMP threads

MPI task timing breakdown:
Section |  min time  |  avg time  |  max time  |%varavg| %total
---------------------------------------------------------------
Pair    | 584.61     | 589.75     | 594.89     |  21.2 | 54.84
Neigh   | 435.61     | 436.8      | 438        |   5.7 | 40.62
Comm    | 31.279     | 37.385     | 43.49      |  99.9 |  3.48
Output  | 0.036675   | 0.036701   | 0.036727   |   0.0 |  0.00
Modify  | 8.999      | 9.2297     | 9.4605     |   7.6 |  0.86
Other   |            | 2.233      |            |       |  0.21

Nlocal:    9826 ave 9837 max 9815 min
Histogram: 1 0 0 0 0 0 0 0 0 1
Nghost:    13527.5 ave 13546 max 13509 min
Histogram: 1 0 0 0 0 0 0 0 0 1
Neighs:    828683 ave 838106 max 819260 min
Histogram: 1 0 0 0 0 0 0 0 0 1

Total # of neighbors = 1657366
Ave neighs/atom = 84.3357
Neighbor list builds = 9505
Dangerous builds not checked
Setting up Verlet run ...
  Unit style    : metal
  Current step  : 180000
  Time step     : 0.001
Per MPI rank memory allocation (min/avg/max) = 11.69 | 11.69 | 11.69 Mbytes
Step Temp Press TotEng PotEng Enthalpy 
  180000    1758.7538   -679.49275   -57261.876   -61729.271   -57374.639 
  180495    1716.6091    245.50451   -57502.286    -61862.63    -57461.67 
Loop time of 53.8211 on 2 procs for 495 steps with 19652 atoms

Performance: 0.795 ns/day, 30.203 hours/ns, 9.197 timesteps/s
97.0% CPU use with 2 MPI tasks x no OpenMP threads

MPI task timing breakdown:
Section |  min time  |  avg time  |  max time  |%varavg| %total
---------------------------------------------------------------
Pair    | 29.586     | 29.844     | 30.102     |   4.7 | 55.45
Neigh   | 22.202     | 22.226     | 22.251     |   0.5 | 41.30
Comm    | 0.97118    | 1.2061     | 1.441      |  21.4 |  2.24
Output  | 8.4877e-05 | 0.00016749 | 0.0002501  |   0.0 |  0.00
Modify  | 0.43053    | 0.43061    | 0.4307     |   0.0 |  0.80
Other   |            | 0.1145     |            |       |  0.21

Nlocal:    9826 ave 9828 max 9824 min
Histogram: 1 0 0 0 0 0 0 0 0 1
Nghost:    13540.5 ave 13560 max 13521 min
Histogram: 1 0 0 0 0 0 0 0 0 1
Neighs:    831316 ave 840458 max 822173 min
Histogram: 1 0 0 0 0 0 0 0 0 1

Total # of neighbors = 1662631
Ave neighs/atom = 84.6037
Neighbor list builds = 495
Dangerous builds not checked
Setting up Verlet run ...
  Unit style    : metal
  Current step  : 180495
  Time step     : 0.001
Per MPI rank memory allocation (min/avg/max) = 11.69 | 11.69 | 11.69 Mbytes
Step Temp Press TotEng PotEng Enthalpy 
  180495    1716.6091    245.50451   -57502.286    -61862.63    -57461.67 
  190000     1703.486    2229.9986   -57600.962   -61927.972   -57233.011 
Loop time of 1035.11 on 2 procs for 9505 steps with 19652 atoms

Performance: 0.793 ns/day, 30.250 hours/ns, 9.183 timesteps/s
97.7% CPU use with 2 MPI tasks x no OpenMP threads

MPI task timing breakdown:
Section |  min time  |  avg time  |  max time  |%varavg| %total
---------------------------------------------------------------
Pair    | 560.21     | 565.85     | 571.5      |  23.7 | 54.67
Neigh   | 421.91     | 422.08     | 422.26     |   0.9 | 40.78
Comm    | 30.885     | 36.748     | 42.61      |  96.7 |  3.55
Output  | 0.037901   | 0.037925   | 0.03795    |   0.0 |  0.00
Modify  | 8.202      | 8.2354     | 8.2687     |   1.2 |  0.80
Other   |            | 2.153      |            |       |  0.21

Nlocal:    9826 ave 9827 max 9825 min
Histogram: 1 0 0 0 0 0 0 0 0 1
Nghost:    13565 ave 13578 max 13552 min
Histogram: 1 0 0 0 0 0 0 0 0 1
Neighs:    833240 ave 842304 max 824175 min
Histogram: 1 0 0 0 0 0 0 0 0 1

Total # of neighbors = 1666479
Ave neighs/atom = 84.7995
Neighbor list builds = 9505
Dangerous builds not checked
Setting up Verlet run ...
  Unit style    : metal
  Current step  : 190000
  Time step     : 0.001
Per MPI rank memory allocation (min/avg/max) = 11.69 | 11.69 | 11.69 Mbytes
Step Temp Press TotEng PotEng Enthalpy 
  190000     1703.486    2229.9986   -57600.962   -61927.972   -57233.011 
  190495    1663.8228    233.21064    -57845.42   -62071.682   -57807.022 
Loop time of 53.2124 on 2 procs for 495 steps with 19652 atoms

Performance: 0.804 ns/day, 29.861 hours/ns, 9.302 timesteps/s
97.2% CPU use with 2 MPI tasks x no OpenMP threads

MPI task timing breakdown:
Section |  min time  |  avg time  |  max time  |%varavg| %total
---------------------------------------------------------------
Pair    | 28.896     | 29.295     | 29.694     |   7.4 | 55.05
Neigh   | 20.457     | 21.153     | 21.848     |  15.1 | 39.75
Comm    | 1.9237     | 2.2302     | 2.5368     |  20.5 |  4.19
Output  | 9.4891e-05 | 0.00013697 | 0.00017905 |   0.0 |  0.00
Modify  | 0.41684    | 0.42258    | 0.42833    |   0.9 |  0.79
Other   |            | 0.1114     |            |       |  0.21

Nlocal:    9826 ave 9832 max 9820 min
Histogram: 1 0 0 0 0 0 0 0 0 1
Nghost:    13615 ave 13640 max 13590 min
Histogram: 1 0 0 0 0 0 0 0 0 1
Neighs:    835020 ave 845251 max 824789 min
Histogram: 1 0 0 0 0 0 0 0 0 1

Total # of neighbors = 1670040
Ave neighs/atom = 84.9807
Neighbor list builds = 495
Dangerous builds not checked
Setting up Verlet run ...
  Unit style    : metal
  Current step  : 190495
  Time step     : 0.001
Per MPI rank memory allocation (min/avg/max) = 11.69 | 11.69 | 11.69 Mbytes
Step Temp Press TotEng PotEng Enthalpy 
  190495    1663.8228    233.21064    -57845.42   -62071.682   -57807.022 
  200000    1642.5295   -930.31661   -57991.949   -62164.124   -58145.039 
Loop time of 1012.27 on 2 procs for 9505 steps with 19652 atoms

Performance: 0.811 ns/day, 29.583 hours/ns, 9.390 timesteps/s
98.2% CPU use with 2 MPI tasks x no OpenMP threads

MPI task timing breakdown:
Section |  min time  |  avg time  |  max time  |%varavg| %total
---------------------------------------------------------------
Pair    | 543.81     | 549.68     | 555.56     |  25.1 | 54.30
Neigh   | 413.53     | 415.78     | 418.03     |  11.0 | 41.07
Comm    | 28.411     | 36.587     | 44.763     | 135.2 |  3.61
Output  | 0.035236   | 0.035306   | 0.035376   |   0.0 |  0.00
Modify  | 8.0408     | 8.0761     | 8.1113     |   1.2 |  0.80
Other   |            | 2.113      |            |       |  0.21

Nlocal:    9826 ave 9836 max 9816 min
Histogram: 1 0 0 0 0 0 0 0 0 1
Nghost:    13573.5 ave 13607 max 13540 min
Histogram: 1 0 0 0 0 0 0 0 0 1
Neighs:    835164 ave 843789 max 826539 min
Histogram: 1 0 0 0 0 0 0 0 0 1

Total # of neighbors = 1670328
Ave neighs/atom = 84.9953
Neighbor list builds = 9505
Dangerous builds not checked
Setting up Verlet run ...
  Unit style    : metal
  Current step  : 200000
  Time step     : 0.001
Per MPI rank memory allocation (min/avg/max) = 11.69 | 11.69 | 11.69 Mbytes
Step Temp Press TotEng PotEng Enthalpy 
  200000    1642.5295   -930.31661   -57991.949   -62164.124   -58145.039 
  200495    1603.8112   -102.36779   -58176.286   -62250.112    -58193.08 
Loop time of 49.1551 on 2 procs for 495 steps with 19652 atoms

Performance: 0.870 ns/day, 27.584 hours/ns, 10.070 timesteps/s
98.7% CPU use with 2 MPI tasks x no OpenMP threads

MPI task timing breakdown:
Section |  min time  |  avg time  |  max time  |%varavg| %total
---------------------------------------------------------------
Pair    | 26.339     | 26.68      | 27.021     |   6.6 | 54.28
Neigh   | 19.863     | 20.351     | 20.84      |  10.8 | 41.40
Comm    | 1.4732     | 1.6232     | 1.7732     |  11.8 |  3.30
Output  | 9.203e-05  | 0.00011551 | 0.000139   |   0.0 |  0.00
Modify  | 0.39592    | 0.39746    | 0.399      |   0.2 |  0.81
Other   |            | 0.1036     |            |       |  0.21

Nlocal:    9826 ave 9849 max 9803 min
Histogram: 1 0 0 0 0 0 0 0 0 1
Nghost:    13631 ave 13636 max 13626 min
Histogram: 1 0 0 0 0 0 0 0 0 1
Neighs:    837544 ave 843853 max 831234 min
Histogram: 1 0 0 0 0 0 0 0 0 1

Total # of neighbors = 1675087
Ave neighs/atom = 85.2375
Neighbor list builds = 495
Dangerous builds not checked
Setting up Verlet run ...
  Unit style    : metal
  Current step  : 200495
  Time step     : 0.001
Per MPI rank memory allocation (min/avg/max) = 11.69 | 11.69 | 11.69 Mbytes
Step Temp Press TotEng PotEng Enthalpy 
  200495    1603.8112   -102.36779   -58176.286   -62250.112    -58193.08 
  210000    1593.1816   -852.78565   -58280.442   -62327.268   -58420.273 
Loop time of 1005.3 on 2 procs for 9505 steps with 19652 atoms

Performance: 0.817 ns/day, 29.379 hours/ns, 9.455 timesteps/s
97.6% CPU use with 2 MPI tasks x no OpenMP threads

MPI task timing breakdown:
Section |  min time  |  avg time  |  max time  |%varavg| %total
---------------------------------------------------------------
Pair    | 539.22     | 547.31     | 555.4      |  34.6 | 54.44
Neigh   | 403.43     | 407.29     | 411.14     |  19.1 | 40.51
Comm    | 36.527     | 40.701     | 44.875     |  65.4 |  4.05
Output  | 0.03396    | 0.033977   | 0.033995   |   0.0 |  0.00
Modify  | 7.8915     | 7.9235     | 7.9556     |   1.1 |  0.79
Other   |            | 2.045      |            |       |  0.20

Nlocal:    9826 ave 9834 max 9818 min
Histogram: 1 0 0 0 0 0 0 0 0 1
Nghost:    13610.5 ave 13613 max 13608 min
Histogram: 1 0 0 0 0 0 0 0 0 1
Neighs:    837868 ave 848596 max 827139 min
Histogram: 1 0 0 0 0 0 0 0 0 1

Total # of neighbors = 1675735
Ave neighs/atom = 85.2705
Neighbor list builds = 9505
Dangerous builds not checked
Setting up Verlet run ...
  Unit style    : metal
  Current step  : 210000
  Time step     : 0.001
Per MPI rank memory allocation (min/avg/max) = 11.69 | 11.69 | 11.69 Mbytes
Step Temp Press TotEng PotEng Enthalpy 
  210000    1593.1816   -852.78565   -58280.442   -62327.268   -58420.273 
  210495    1579.5692    298.21585   -58511.583   -62523.833   -58462.897 
Loop time of 53.9373 on 2 procs for 495 steps with 19652 atoms

Performance: 0.793 ns/day, 30.268 hours/ns, 9.177 timesteps/s
95.8% CPU use with 2 MPI tasks x no OpenMP threads

MPI task timing breakdown:
Section |  min time  |  avg time  |  max time  |%varavg| %total
---------------------------------------------------------------
Pair    | 29.459     | 29.869     | 30.278     |   7.5 | 55.38
Neigh   | 20.47      | 21.172     | 21.873     |  15.2 | 39.25
Comm    | 1.2488     | 2.3644     | 3.48       |  72.6 |  4.38
Output  | 8.5115e-05 | 0.00011754 | 0.00014997 |   0.0 |  0.00
Modify  | 0.42167    | 0.42552    | 0.42938    |   0.6 |  0.79
Other   |            | 0.1069     |            |       |  0.20

Nlocal:    9826 ave 9835 max 9817 min
Histogram: 1 0 0 0 0 0 0 0 0 1
Nghost:    13663 ave 13669 max 13657 min
Histogram: 1 0 0 0 0 0 0 0 0 1
Neighs:    841211 ave 850148 max 832274 min
Histogram: 1 0 0 0 0 0 0 0 0 1

Total # of neighbors = 1682422
Ave neighs/atom = 85.6107
Neighbor list builds = 495
Dangerous builds not checked
Setting up Verlet run ...
  Unit style    : metal
  Current step  : 210495
  Time step     : 0.001
Per MPI rank memory allocation (min/avg/max) = 11.69 | 11.69 | 11.69 Mbytes
Step Temp Press TotEng PotEng Enthalpy 
  210495    1579.5692    298.21585   -58511.583   -62523.833   -58462.897 
  220000    1551.7634   -128.32717   -58638.267   -62579.888   -58659.188 
Loop time of 1023.12 on 2 procs for 9505 steps with 19652 atoms

Performance: 0.803 ns/day, 29.900 hours/ns, 9.290 timesteps/s
96.6% CPU use with 2 MPI tasks x no OpenMP threads

MPI task timing breakdown:
Section |  min time  |  avg time  |  max time  |%varavg| %total
---------------------------------------------------------------
Pair    | 552.1      | 557.45     | 562.8      |  22.7 | 54.49
Neigh   | 404.61     | 405.96     | 407.3      |   6.7 | 39.68
Comm    | 45.584     | 49.587     | 53.589     |  56.8 |  4.85
Output  | 0.03476    | 0.034777   | 0.034794   |   0.0 |  0.00
Modify  | 8.0408     | 8.0411     | 8.0414     |   0.0 |  0.79
Other   |            | 2.054      |            |       |  0.20

Nlocal:    9826 ave 9827 max 9825 min
Histogram: 1 0 0 0 0 0 0 0 0 1
Nghost:    13637 ave 13646 max 13628 min
Histogram: 1 0 0 0 0 0 0 0 0 1
Neighs:    842228 ave 851816 max 832640 min
Histogram: 1 0 0 0 0 0 0 0 0 1

Total # of neighbors = 1684456
Ave neighs/atom = 85.7142
Neighbor list builds = 9505
Dangerous builds not checked
Setting up Verlet run ...
  Unit style    : metal
  Current step  : 220000
  Time step     : 0.001
Per MPI rank memory allocation (min/avg/max) = 11.69 | 11.69 | 11.69 Mbytes
Step Temp Press TotEng PotEng Enthalpy 
  220000    1551.7634   -128.32717   -58638.267   -62579.888   -58659.188 
  220495    1493.2506    1515.3405   -58854.095   -62647.087   -58607.647 
Loop time of 56.4372 on 2 procs for 495 steps with 19652 atoms

Performance: 0.758 ns/day, 31.671 hours/ns, 8.771 timesteps/s
94.2% CPU use with 2 MPI tasks x no OpenMP threads

MPI task timing breakdown:
Section |  min time  |  avg time  |  max time  |%varavg| %total
---------------------------------------------------------------
Pair    | 30.66      | 31.231     | 31.801     |  10.2 | 55.34
Neigh   | 20.903     | 21.457     | 22.01      |  12.0 | 38.02
Comm    | 2.0597     | 3.1936     | 4.3276     |  63.5 |  5.66
Output  | 9.7036e-05 | 0.00014353 | 0.00019002 |   0.0 |  0.00
Modify  | 0.43583    | 0.44238    | 0.44894    |   1.0 |  0.78
Other   |            | 0.1139     |            |       |  0.20

Nlocal:    9826 ave 9854 max 9798 min
Histogram: 1 0 0 0 0 0 0 0 0 1
Nghost:    13634 ave 13657 max 13611 min
Histogram: 1 0 0 0 0 0 0 0 0 1
Neighs:    843960 ave 850119 max 837801 min
Histogram: 1 0 0 0 0 0 0 0 0 1

Total # of neighbors = 1687920
Ave neighs/atom = 85.8905
Neighbor list builds = 495
Dangerous builds not checked
Setting up Verlet run ...
  Unit style    : metal
  Current step  : 220495
  Time step     : 0.001
Per MPI rank memory allocation (min/avg/max) = 11.69 | 11.69 | 11.69 Mbytes
Step Temp Press TotEng PotEng Enthalpy 
  220495    1493.2506    1515.3405   -58854.095   -62647.087   -58607.647 
  230000    1508.0354   -537.83238   -58925.248   -62755.795   -59012.656 
Loop time of 932.125 on 2 procs for 9505 steps with 19652 atoms

Performance: 0.881 ns/day, 27.241 hours/ns, 10.197 timesteps/s
97.0% CPU use with 2 MPI tasks x no OpenMP threads

MPI task timing breakdown:
Section |  min time  |  avg time  |  max time  |%varavg| %total
---------------------------------------------------------------
Pair    | 492.78     | 496.67     | 500.56     |  17.5 | 53.28
Neigh   | 357.59     | 364.22     | 370.84     |  34.7 | 39.07
Comm    | 51.481     | 61.872     | 72.262     | 132.1 |  6.64
Output  | 0.0349     | 0.034918   | 0.034936   |   0.0 |  0.00
Modify  | 7.3334     | 7.4843     | 7.6353     |   5.5 |  0.80
Other   |            | 1.845      |            |       |  0.20

Nlocal:    9826 ave 9835 max 9817 min
Histogram: 1 0 0 0 0 0 0 0 0 1
Nghost:    13652 ave 13667 max 13637 min
Histogram: 1 0 0 0 0 0 0 0 0 1
Neighs:    844595 ave 852692 max 836498 min
Histogram: 1 0 0 0 0 0 0 0 0 1

Total # of neighbors = 1689190
Ave neighs/atom = 85.9551
Neighbor list builds = 9505
Dangerous builds not checked
Setting up Verlet run ...
  Unit style    : metal
  Current step  : 230000
  Time step     : 0.001
Per MPI rank memory allocation (min/avg/max) = 11.69 | 11.69 | 11.69 Mbytes
Step Temp Press TotEng PotEng Enthalpy 
  230000    1508.0354   -537.83238   -58925.248   -62755.795   -59012.656 
  230495    1467.0009   -351.76887    -59140.85   -62867.166   -59197.887 
Loop time of 47.0175 on 2 procs for 495 steps with 19652 atoms

Performance: 0.910 ns/day, 26.385 hours/ns, 10.528 timesteps/s
97.9% CPU use with 2 MPI tasks x no OpenMP threads

MPI task timing breakdown:
Section |  min time  |  avg time  |  max time  |%varavg| %total
---------------------------------------------------------------
Pair    | 25.985     | 26.135     | 26.284     |   2.9 | 55.58
Neigh   | 17.949     | 18.601     | 19.253     |  15.1 | 39.56
Comm    | 1.3015     | 1.8163     | 2.3311     |  38.2 |  3.86
Output  | 8.5831e-05 | 0.00011396 | 0.0001421  |   0.0 |  0.00
Modify  | 0.36164    | 0.37094    | 0.38025    |   1.5 |  0.79
Other   |            | 0.0948     |            |       |  0.20

Nlocal:    9826 ave 9835 max 9817 min
Histogram: 1 0 0 0 0 0 0 0 0 1
Nghost:    13671.5 ave 13695 max 13648 min
Histogram: 1 0 0 0 0 0 0 0 0 1
Neighs:    846350 ave 854310 max 838391 min
Histogram: 1 0 0 0 0 0 0 0 0 1

Total # of neighbors = 1692701
Ave neighs/atom = 86.1338
Neighbor list builds = 495
Dangerous builds not checked
Setting up Verlet run ...
  Unit style    : metal
  Current step  : 230495
  Time step     : 0.001
Per MPI rank memory allocation (min/avg/max) = 11.69 | 11.69 | 11.69 Mbytes
Step Temp Press TotEng PotEng Enthalpy 
  230495    1467.0009   -351.76887    -59140.85   -62867.166   -59197.887 
  240000    1435.2375     -2092.34   -59312.049   -62957.683   -59651.019 
Loop time of 937.617 on 2 procs for 9505 steps with 19652 atoms

Performance: 0.876 ns/day, 27.401 hours/ns, 10.137 timesteps/s
97.7% CPU use with 2 MPI tasks x no OpenMP threads

MPI task timing breakdown:
Section |  min time  |  avg time  |  max time  |%varavg| %total
---------------------------------------------------------------
Pair    | 504.66     | 508.26     | 511.86     |  16.0 | 54.21
Neigh   | 367.79     | 371.34     | 374.89     |  18.4 | 39.60
Comm    | 47.956     | 47.982     | 48.008     |   0.4 |  5.12
Output  | 0.035509   | 0.035528   | 0.035547   |   0.0 |  0.00
Modify  | 8.1141     | 8.1157     | 8.1174     |   0.1 |  0.87
Other   |            | 1.884      |            |       |  0.20

Nlocal:    9826 ave 9839 max 9813 min
Histogram: 1 0 0 0 0 0 0 0 0 1
Nghost:    13671 ave 13680 max 13662 min
Histogram: 1 0 0 0 0 0 0 0 0 1
Neighs:    846957 ave 854817 max 839097 min
Histogram: 1 0 0 0 0 0 0 0 0 1

Total # of neighbors = 1693914
Ave neighs/atom = 86.1955
Neighbor list builds = 9505
Dangerous builds not checked
Setting up Verlet run ...
  Unit style    : metal
  Current step  : 240000
  Time step     : 0.001
Per MPI rank memory allocation (min/avg/max) = 11.69 | 11.69 | 11.69 Mbytes
Step Temp Press TotEng PotEng Enthalpy 
  240000    1435.2375     -2092.34   -59312.049   -62957.683   -59651.019 
  240495    1410.6148   -316.48457   -59499.165   -63082.255   -59550.247 
Loop time of 44.5765 on 2 procs for 495 steps with 19652 atoms

Performance: 0.959 ns/day, 25.015 hours/ns, 11.105 timesteps/s
98.9% CPU use with 2 MPI tasks x no OpenMP threads

MPI task timing breakdown:
Section |  min time  |  avg time  |  max time  |%varavg| %total
---------------------------------------------------------------
Pair    | 24.303     | 24.557     | 24.811     |   5.1 | 55.09
Neigh   | 17.065     | 17.866     | 18.667     |  18.9 | 40.08
Comm    | 1.1507     | 1.7077     | 2.2648     |  42.6 |  3.83
Output  | 6.6042e-05 | 9.5963e-05 | 0.00012589 |   0.0 |  0.00
Modify  | 0.34531    | 0.35264    | 0.35997    |   1.2 |  0.79
Other   |            | 0.09278    |            |       |  0.21

Nlocal:    9826 ave 9846 max 9806 min
Histogram: 1 0 0 0 0 0 0 0 0 1
Nghost:    13679 ave 13692 max 13666 min
Histogram: 1 0 0 0 0 0 0 0 0 1
Neighs:    849966 ave 861208 max 838725 min
Histogram: 1 0 0 0 0 0 0 0 0 1

Total # of neighbors = 1699933
Ave neighs/atom = 86.5018
Neighbor list builds = 495
Dangerous builds not checked
Setting up Verlet run ...
  Unit style    : metal
  Current step  : 240495
  Time step     : 0.001
Per MPI rank memory allocation (min/avg/max) = 11.69 | 11.69 | 11.69 Mbytes
Step Temp Press TotEng PotEng Enthalpy 
  240495    1410.6148   -316.48457   -59499.165   -63082.255   -59550.247 
  250000    1388.0515    663.89471   -59686.427   -63212.204   -59579.624 
Loop time of 948.329 on 2 procs for 9505 steps with 19652 atoms

Performance: 0.866 ns/day, 27.714 hours/ns, 10.023 timesteps/s
97.6% CPU use with 2 MPI tasks x no OpenMP threads

MPI task timing breakdown:
Section |  min time  |  avg time  |  max time  |%varavg| %total
---------------------------------------------------------------
Pair    | 511.29     | 515.33     | 519.38     |  17.8 | 54.34
Neigh   | 370.65     | 373.91     | 377.18     |  16.9 | 39.43
Comm    | 48.297     | 49.061     | 49.825     |  10.9 |  5.17
Output  | 0.024133   | 0.024151   | 0.024169   |   0.0 |  0.00
Modify  | 8.0908     | 8.0941     | 8.0973     |   0.1 |  0.85
Other   |            | 1.9        |            |       |  0.20

Nlocal:    9826 ave 9829 max 9823 min
Histogram: 1 0 0 0 0 0 0 0 0 1
Nghost:    13766.5 ave 13778 max 13755 min
Histogram: 1 0 0 0 0 0 0 0 0 1
Neighs:    852142 ave 862057 max 842227 min
Histogram: 1 0 0 0 0 0 0 0 0 1

Total # of neighbors = 1704284
Ave neighs/atom = 86.7232
Neighbor list builds = 9505
Dangerous builds not checked
Setting up Verlet run ...
  Unit style    : metal
  Current step  : 250000
  Time step     : 0.001
Per MPI rank memory allocation (min/avg/max) = 11.69 | 11.69 | 11.69 Mbytes
Step Temp Press TotEng PotEng Enthalpy 
  250000    1388.0515    663.89471   -59686.427   -63212.204   -59579.624 
  250495    1357.0994    1504.9741   -59845.377   -63292.533   -59603.826 
Loop time of 49.2353 on 2 procs for 495 steps with 19652 atoms

Performance: 0.869 ns/day, 27.629 hours/ns, 10.054 timesteps/s
98.5% CPU use with 2 MPI tasks x no OpenMP threads

MPI task timing breakdown:
Section |  min time  |  avg time  |  max time  |%varavg| %total
---------------------------------------------------------------
Pair    | 26.598     | 26.71      | 26.822     |   2.2 | 54.25
Neigh   | 19.495     | 19.817     | 20.139     |   7.2 | 40.25
Comm    | 1.9983     | 2.2167     | 2.4351     |  14.7 |  4.50
Output  | 0.0001061  | 0.00012553 | 0.00014496 |   0.0 |  0.00
Modify  | 0.38432    | 0.3911     | 0.39789    |   1.1 |  0.79
Other   |            | 0.1001     |            |       |  0.20

Nlocal:    9826 ave 9854 max 9798 min
Histogram: 1 0 0 0 0 0 0 0 0 1
Nghost:    13761.5 ave 13775 max 13748 min
Histogram: 1 0 0 0 0 0 0 0 0 1
Neighs:    853972 ave 867016 max 840927 min
Histogram: 1 0 0 0 0 0 0 0 0 1

Total # of neighbors = 1707943
Ave neighs/atom = 86.9094
Neighbor list builds = 495
Dangerous builds not checked
Setting up Verlet run ...
  Unit style    : metal
  Current step  : 250495
  Time step     : 0.001
Per MPI rank memory allocation (min/avg/max) = 11.69 | 11.69 | 11.69 Mbytes
Step Temp Press TotEng PotEng Enthalpy 
  250495    1357.0994    1504.9741   -59845.377   -63292.533   -59603.826 
  260000    1344.1375     2.473938   -60010.459    -63424.69   -60010.062 
Loop time of 957.109 on 2 procs for 9505 steps with 19652 atoms

Performance: 0.858 ns/day, 27.971 hours/ns, 9.931 timesteps/s
98.4% CPU use with 2 MPI tasks x no OpenMP threads

MPI task timing breakdown:
Section |  min time  |  avg time  |  max time  |%varavg| %total
---------------------------------------------------------------
Pair    | 516.25     | 520.67     | 525.08     |  19.3 | 54.40
Neigh   | 382.38     | 383.38     | 384.37     |   5.1 | 40.06
Comm    | 39.999     | 43.328     | 46.657     |  50.6 |  4.53
Output  | 0.036379   | 0.03641    | 0.036442   |   0.0 |  0.00
Modify  | 7.6678     | 7.7565     | 7.8453     |   3.2 |  0.81
Other   |            | 1.946      |            |       |  0.20

Nlocal:    9826 ave 9828 max 9824 min
Histogram: 1 0 0 0 0 0 0 0 0 1
Nghost:    13755.5 ave 13767 max 13744 min
Histogram: 1 0 0 0 0 0 0 0 0 1
Neighs:    854913 ave 864240 max 845586 min
Histogram: 1 0 0 0 0 0 0 0 0 1

Total # of neighbors = 1709826
Ave neighs/atom = 87.0052
Neighbor list builds = 9505
Dangerous builds not checked
Setting up Verlet run ...
  Unit style    : metal
  Current step  : 260000
  Time step     : 0.001
Per MPI rank memory allocation (min/avg/max) = 11.69 | 11.69 | 11.7 Mbytes
Step Temp Press TotEng PotEng Enthalpy 
  260000    1344.1375     2.473938   -60010.459    -63424.69   -60010.062 
  260495    1306.3991    706.24985   -60165.593   -63483.966   -60052.612 
Loop time of 48.8741 on 2 procs for 495 steps with 19652 atoms

Performance: 0.875 ns/day, 27.427 hours/ns, 10.128 timesteps/s
99.4% CPU use with 2 MPI tasks x no OpenMP threads

MPI task timing breakdown:
Section |  min time  |  avg time  |  max time  |%varavg| %total
---------------------------------------------------------------
Pair    | 26.623     | 26.792     | 26.961     |   3.3 | 54.82
Neigh   | 19.542     | 19.757     | 19.973     |   4.8 | 40.43
Comm    | 1.7801     | 1.83       | 1.8799     |   3.7 |  3.74
Output  | 8.7023e-05 | 0.00012898 | 0.00017095 |   0.0 |  0.00
Modify  | 0.386      | 0.3898     | 0.39361    |   0.6 |  0.80
Other   |            | 0.1042     |            |       |  0.21

Nlocal:    9826 ave 9832 max 9820 min
Histogram: 1 0 0 0 0 0 0 0 0 1
Nghost:    13743.5 ave 13746 max 13741 min
Histogram: 1 0 0 0 0 0 0 0 0 1
Neighs:    856516 ave 866140 max 846891 min
Histogram: 1 0 0 0 0 0 0 0 0 1

Total # of neighbors = 1713031
Ave neighs/atom = 87.1683
Neighbor list builds = 495
Dangerous builds not checked
Setting up Verlet run ...
  Unit style    : metal
  Current step  : 260495
  Time step     : 0.001
Per MPI rank memory allocation (min/avg/max) = 11.69 | 11.69 | 11.7 Mbytes
Step Temp Press TotEng PotEng Enthalpy 
  260495    1306.3991    706.24985   -60165.593   -63483.966   -60052.612 
  270000    1290.6974   -1346.4855   -60316.934   -63595.423   -60532.139 
Loop time of 1015.13 on 2 procs for 9505 steps with 19652 atoms

Performance: 0.809 ns/day, 29.667 hours/ns, 9.363 timesteps/s
97.7% CPU use with 2 MPI tasks x no OpenMP threads

MPI task timing breakdown:
Section |  min time  |  avg time  |  max time  |%varavg| %total
---------------------------------------------------------------
Pair    | 555        | 559.34     | 563.68     |  18.4 | 55.10
Neigh   | 402.97     | 403.52     | 404.08     |   2.8 | 39.75
Comm    | 38.189     | 42.005     | 45.821     |  58.9 |  4.14
Output  | 0.035751   | 0.035769   | 0.035788   |   0.0 |  0.00
Modify  | 8.0917     | 8.1391     | 8.1865     |   1.7 |  0.80
Other   |            | 2.086      |            |       |  0.21

Nlocal:    9826 ave 9834 max 9818 min
Histogram: 1 0 0 0 0 0 0 0 0 1
Nghost:    13813 ave 13833 max 13793 min
Histogram: 1 0 0 0 0 0 0 0 0 1
Neighs:    856806 ave 866142 max 847470 min
Histogram: 1 0 0 0 0 0 0 0 0 1

Total # of neighbors = 1713612
Ave neighs/atom = 87.1978
Neighbor list builds = 9505
Dangerous builds not checked
Setting up Verlet run ...
  Unit style    : metal
  Current step  : 270000
  Time step     : 0.001
Per MPI rank memory allocation (min/avg/max) = 11.7 | 11.7 | 11.7 Mbytes
Step Temp Press TotEng PotEng Enthalpy 
  270000    1290.6974   -1346.4855   -60316.934   -63595.423   -60532.139 
  270495    1264.9308    700.52764   -60542.853   -63755.892   -60431.349 
Loop time of 52.5441 on 2 procs for 495 steps with 19652 atoms

Performance: 0.814 ns/day, 29.486 hours/ns, 9.421 timesteps/s
98.7% CPU use with 2 MPI tasks x no OpenMP threads

MPI task timing breakdown:
Section |  min time  |  avg time  |  max time  |%varavg| %total
---------------------------------------------------------------
Pair    | 29.083     | 29.215     | 29.347     |   2.4 | 55.60
Neigh   | 21.235     | 21.352     | 21.47      |   2.5 | 40.64
Comm    | 1.4278     | 1.4427     | 1.4577     |   1.2 |  2.75
Output  | 0.00010514 | 0.00014055 | 0.00017595 |   0.0 |  0.00
Modify  | 0.4203     | 0.42085    | 0.4214     |   0.1 |  0.80
Other   |            | 0.1131     |            |       |  0.22

Nlocal:    9826 ave 9841 max 9811 min
Histogram: 1 0 0 0 0 0 0 0 0 1
Nghost:    13748 ave 13777 max 13719 min
Histogram: 1 0 0 0 0 0 0 0 0 1
Neighs:    860016 ave 867928 max 852105 min
Histogram: 1 0 0 0 0 0 0 0 0 1

Total # of neighbors = 1720033
Ave neighs/atom = 87.5246
Neighbor list builds = 495
Dangerous builds not checked
Setting up Verlet run ...
  Unit style    : metal
  Current step  : 270495
  Time step     : 0.001
Per MPI rank memory allocation (min/avg/max) = 11.7 | 11.7 | 11.7 Mbytes
Step Temp Press TotEng PotEng Enthalpy 
  270495    1264.9308    700.52764   -60542.853   -63755.892   -60431.349 
  280000    1246.2033   -1114.5716   -60631.078   -63796.548   -60808.502 
Loop time of 1030.61 on 2 procs for 9505 steps with 19652 atoms

Performance: 0.797 ns/day, 30.119 hours/ns, 9.223 timesteps/s
98.9% CPU use with 2 MPI tasks x no OpenMP threads

MPI task timing breakdown:
Section |  min time  |  avg time  |  max time  |%varavg| %total
---------------------------------------------------------------
Pair    | 566.12     | 571.42     | 576.72     |  22.2 | 55.44
Neigh   | 414.82     | 416.57     | 418.32     |   8.6 | 40.42
Comm    | 28.432     | 31.996     | 35.561     |  63.0 |  3.10
Output  | 0.03678    | 0.036809   | 0.036838   |   0.0 |  0.00
Modify  | 8.32       | 8.3394     | 8.3589     |   0.7 |  0.81
Other   |            | 2.251      |            |       |  0.22

Nlocal:    9826 ave 9833 max 9819 min
Histogram: 1 0 0 0 0 0 0 0 0 1
Nghost:    13801 ave 13824 max 13778 min
Histogram: 1 0 0 0 0 0 0 0 0 1
Neighs:    859751 ave 868348 max 851154 min
Histogram: 1 0 0 0 0 0 0 0 0 1

Total # of neighbors = 1719502
Ave neighs/atom = 87.4976
Neighbor list builds = 9505
Dangerous builds not checked
Setting up Verlet run ...
  Unit style    : metal
  Current step  : 280000
  Time step     : 0.001
Per MPI rank memory allocation (min/avg/max) = 11.7 | 11.7 | 11.7 Mbytes
Step Temp Press TotEng PotEng Enthalpy 
  280000    1246.2033   -1114.5716   -60631.078   -63796.548   -60808.502 
  280495    1222.4181    515.76015   -60847.256   -63952.309   -60765.477 
Loop time of 52.596 on 2 procs for 495 steps with 19652 atoms

Performance: 0.813 ns/day, 29.515 hours/ns, 9.411 timesteps/s
98.8% CPU use with 2 MPI tasks x no OpenMP threads

MPI task timing breakdown:
Section |  min time  |  avg time  |  max time  |%varavg| %total
---------------------------------------------------------------
Pair    | 29.044     | 29.441     | 29.837     |   7.3 | 55.97
Neigh   | 20.856     | 20.992     | 21.127     |   3.0 | 39.91
Comm    | 1.3552     | 1.6197     | 1.8842     |  20.8 |  3.08
Output  | 8.7976e-05 | 0.00012398 | 0.00015998 |   0.0 |  0.00
Modify  | 0.42257    | 0.42668    | 0.43079    |   0.6 |  0.81
Other   |            | 0.1175     |            |       |  0.22

Nlocal:    9826 ave 9831 max 9821 min
Histogram: 1 0 0 0 0 0 0 0 0 1
Nghost:    13798.5 ave 13802 max 13795 min
Histogram: 1 0 0 0 0 0 0 0 0 1
Neighs:    862678 ave 873214 max 852142 min
Histogram: 1 0 0 0 0 0 0 0 0 1

Total # of neighbors = 1725356
Ave neighs/atom = 87.7954
Neighbor list builds = 495
Dangerous builds not checked
Setting up Verlet run ...
  Unit style    : metal
  Current step  : 280495
  Time step     : 0.001
Per MPI rank memory allocation (min/avg/max) = 11.7 | 11.7 | 11.7 Mbytes
Step Temp Press TotEng PotEng Enthalpy 
  280495    1222.4181    515.76015   -60847.256   -63952.309   -60765.477 
  290000    1200.6454    2374.2761   -60979.825   -64029.573   -60604.465 
Loop time of 1042.37 on 2 procs for 9505 steps with 19652 atoms

Performance: 0.788 ns/day, 30.463 hours/ns, 9.119 timesteps/s
99.1% CPU use with 2 MPI tasks x no OpenMP threads

MPI task timing breakdown:
Section |  min time  |  avg time  |  max time  |%varavg| %total
---------------------------------------------------------------
Pair    | 571.57     | 577.59     | 583.61     |  25.0 | 55.41
Neigh   | 416.48     | 416.64     | 416.79     |   0.8 | 39.97
Comm    | 31.325     | 37.288     | 43.25      |  97.6 |  3.58
Output  | 0.036098   | 0.036165   | 0.036231   |   0.0 |  0.00
Modify  | 8.2987     | 8.5081     | 8.7176     |   7.2 |  0.82
Other   |            | 2.308      |            |       |  0.22

Nlocal:    9826 ave 9829 max 9823 min
Histogram: 1 0 0 0 0 0 0 0 0 1
Nghost:    13840 ave 13863 max 13817 min
Histogram: 1 0 0 0 0 0 0 0 0 1
Neighs:    865119 ave 874677 max 855561 min
Histogram: 1 0 0 0 0 0 0 0 0 1

Total # of neighbors = 1730238
Ave neighs/atom = 88.0439
Neighbor list builds = 9505
Dangerous builds not checked
Setting up Verlet run ...
  Unit style    : metal
  Current step  : 290000
  Time step     : 0.001
Per MPI rank memory allocation (min/avg/max) = 11.7 | 11.7 | 11.7 Mbytes
Step Temp Press TotEng PotEng Enthalpy 
  290000    1200.6454    2374.2761   -60979.825   -64029.573   -60604.465 
  290495    1166.3981   -1865.0595   -61200.373    -64163.13   -61495.269 
Loop time of 54.0799 on 2 procs for 495 steps with 19652 atoms

Performance: 0.791 ns/day, 30.348 hours/ns, 9.153 timesteps/s
98.8% CPU use with 2 MPI tasks x no OpenMP threads

MPI task timing breakdown:
Section |  min time  |  avg time  |  max time  |%varavg| %total
---------------------------------------------------------------
Pair    | 29.612     | 29.755     | 29.898     |   2.6 | 55.02
Neigh   | 21.648     | 21.787     | 21.925     |   3.0 | 40.29
Comm    | 1.6931     | 1.9794     | 2.2657     |  20.3 |  3.66
Output  | 0.00012779 | 0.0001564  | 0.00018501 |   0.0 |  0.00
Modify  | 0.43272    | 0.4376     | 0.44248    |   0.7 |  0.81
Other   |            | 0.1213     |            |       |  0.22

Nlocal:    9826 ave 9842 max 9810 min
Histogram: 1 0 0 0 0 0 0 0 0 1
Nghost:    13823.5 ave 13833 max 13814 min
Histogram: 1 0 0 0 0 0 0 0 0 1
Neighs:    864758 ave 871643 max 857872 min
Histogram: 1 0 0 0 0 0 0 0 0 1

Total # of neighbors = 1729515
Ave neighs/atom = 88.0071
Neighbor list builds = 495
Dangerous builds not checked
Setting up Verlet run ...
  Unit style    : metal
  Current step  : 290495
  Time step     : 0.001
Per MPI rank memory allocation (min/avg/max) = 11.7 | 11.7 | 11.7 Mbytes
Step Temp Press TotEng PotEng Enthalpy 
  290495    1166.3981   -1865.0595   -61200.373    -64163.13   -61495.269 
  300000    1153.6684   -342.15041   -61365.958   -64296.381   -61419.865 
Loop time of 1055.86 on 2 procs for 9505 steps with 19652 atoms

Performance: 0.778 ns/day, 30.857 hours/ns, 9.002 timesteps/s
98.9% CPU use with 2 MPI tasks x no OpenMP threads

MPI task timing breakdown:
Section |  min time  |  avg time  |  max time  |%varavg| %total
---------------------------------------------------------------
Pair    | 583.61     | 589.31     | 595.01     |  23.5 | 55.81
Neigh   | 424.64     | 424.87     | 425.11     |   1.2 | 40.24
Comm    | 25.305     | 30.836     | 36.366     |  99.6 |  2.92
Output  | 0.035372   | 0.035463   | 0.035554   |   0.0 |  0.00
Modify  | 8.3709     | 8.4289     | 8.487      |   2.0 |  0.80
Other   |            | 2.37       |            |       |  0.22

Nlocal:    9826 ave 9832 max 9820 min
Histogram: 1 0 0 0 0 0 0 0 0 1
Nghost:    13789.5 ave 13792 max 13787 min
Histogram: 1 0 0 0 0 0 0 0 0 1
Neighs:    867402 ave 875229 max 859575 min
Histogram: 1 0 0 0 0 0 0 0 0 1

Total # of neighbors = 1734804
Ave neighs/atom = 88.2762
Neighbor list builds = 9505
Dangerous builds not checked
Setting up Verlet run ...
  Unit style    : metal
  Current step  : 300000
  Time step     : 0.001
Per MPI rank memory allocation (min/avg/max) = 11.7 | 11.7 | 11.7 Mbytes
Step Temp Press TotEng PotEng Enthalpy 
  300000    1153.6684   -342.15041   -61365.958   -64296.381   -61419.865 
[...]
Nghost:    14184.5 ave 14191 max 14178 min
Histogram: 1 0 0 0 0 0 0 0 0 1
Neighs:    910420 ave 920706 max 900135 min
Histogram: 1 0 0 0 0 0 0 0 0 1

Total # of neighbors = 1820841
Ave neighs/atom = 92.6542
Neighbor list builds = 9505
Dangerous builds not checked
Setting up Verlet run ...
  Unit style    : metal
  Current step  : 440000
  Time step     : 0.001
Per MPI rank memory allocation (min/avg/max) = 11.7 | 11.7 | 11.7 Mbytes
Step Temp Press TotEng PotEng Enthalpy 
  440000    452.45266   -320.18088   -66178.199    -67327.47   -66225.829 
  440495    418.06542    628.57642   -66348.308   -67410.232   -66255.007 
Loop time of 48.5978 on 2 procs for 495 steps with 19652 atoms

Performance: 0.880 ns/day, 27.271 hours/ns, 10.186 timesteps/s
98.3% CPU use with 2 MPI tasks x no OpenMP threads

MPI task timing breakdown:
Section |  min time  |  avg time  |  max time  |%varavg| %total
---------------------------------------------------------------
Pair    | 26.86      | 27.069     | 27.279     |   4.0 | 55.70
Neigh   | 19.831     | 19.857     | 19.882     |   0.6 | 40.86
Comm    | 0.93244    | 1.1712     | 1.41       |  22.1 |  2.41
Output  | 9.9897e-05 | 0.00014448 | 0.00018907 |   0.0 |  0.00
Modify  | 0.39062    | 0.3909     | 0.39118    |   0.0 |  0.80
Other   |            | 0.1093     |            |       |  0.22

Nlocal:    9826 ave 9837 max 9815 min
Histogram: 1 0 0 0 0 0 0 0 0 1
Nghost:    14184 ave 14193 max 14175 min
Histogram: 1 0 0 0 0 0 0 0 0 1
Neighs:    912472 ave 924680 max 900263 min
Histogram: 1 0 0 0 0 0 0 0 0 1

Total # of neighbors = 1824943
Ave neighs/atom = 92.863
Neighbor list builds = 495
Dangerous builds not checked
Setting up Verlet run ...
  Unit style    : metal
  Current step  : 440495
  Time step     : 0.001
Per MPI rank memory allocation (min/avg/max) = 11.7 | 11.7 | 11.7 Mbytes
Step Temp Press TotEng PotEng Enthalpy 
  440495    418.06542    628.57642   -66348.308   -67410.232   -66255.007 
  450000    398.82152   -1000.0788   -66475.099   -67488.142   -66623.483 
Loop time of 979.222 on 2 procs for 9505 steps with 19652 atoms

Performance: 0.839 ns/day, 28.617 hours/ns, 9.707 timesteps/s
97.6% CPU use with 2 MPI tasks x no OpenMP threads

MPI task timing breakdown:
Section |  min time  |  avg time  |  max time  |%varavg| %total
---------------------------------------------------------------
Pair    | 535.26     | 542.56     | 549.85     |  31.3 | 55.41
Neigh   | 387.74     | 388.22     | 388.7      |   2.4 | 39.65
Comm    | 31.665     | 38.548     | 45.431     | 110.9 |  3.94
Output  | 0.034752   | 0.03477    | 0.034789   |   0.0 |  0.00
Modify  | 7.724      | 7.7848     | 7.8456     |   2.2 |  0.79
Other   |            | 2.081      |            |       |  0.21

Nlocal:    9826 ave 9830 max 9822 min
Histogram: 1 0 0 0 0 0 0 0 0 1
Nghost:    14179 ave 14181 max 14177 min
Histogram: 1 0 0 0 0 0 0 0 0 1
Neighs:    912604 ave 922944 max 902263 min
Histogram: 1 0 0 0 0 0 0 0 0 1

Total # of neighbors = 1825207
Ave neighs/atom = 92.8764
Neighbor list builds = 9505
Dangerous builds not checked
Setting up Verlet run ...
  Unit style    : metal
  Current step  : 450000
  Time step     : 0.001
Per MPI rank memory allocation (min/avg/max) = 11.7 | 11.7 | 11.7 Mbytes
Step Temp Press TotEng PotEng Enthalpy 
  450000    398.82152   -1000.0788   -66475.099   -67488.142   -66623.483 
  450495     371.8461    551.76401     -66636.9   -67581.423   -66555.246 
Loop time of 52.4736 on 2 procs for 495 steps with 19652 atoms

Performance: 0.815 ns/day, 29.446 hours/ns, 9.433 timesteps/s
95.7% CPU use with 2 MPI tasks x no OpenMP threads

MPI task timing breakdown:
Section |  min time  |  avg time  |  max time  |%varavg| %total
---------------------------------------------------------------
Pair    | 28.882     | 29.153     | 29.424     |   5.0 | 55.56
Neigh   | 20.422     | 20.719     | 21.016     |   6.5 | 39.48
Comm    | 1.9876     | 2.0277     | 2.0679     |   2.8 |  3.86
Output  | 8.893e-05  | 0.00016499 | 0.00024104 |   0.0 |  0.00
Modify  | 0.45048    | 0.46219    | 0.4739     |   1.7 |  0.88
Other   |            | 0.1119     |            |       |  0.21

Nlocal:    9826 ave 9831 max 9821 min
Histogram: 1 0 0 0 0 0 0 0 0 1
Nghost:    14251.5 ave 14260 max 14243 min
Histogram: 1 0 0 0 0 0 0 0 0 1
Neighs:    915000 ave 926438 max 903561 min
Histogram: 1 0 0 0 0 0 0 0 0 1

Total # of neighbors = 1829999
Ave neighs/atom = 93.1202
Neighbor list builds = 495
Dangerous builds not checked
Setting up Verlet run ...
  Unit style    : metal
  Current step  : 450495
  Time step     : 0.001
Per MPI rank memory allocation (min/avg/max) = 11.7 | 11.7 | 11.7 Mbytes
Step Temp Press TotEng PotEng Enthalpy 
  450495     371.8461    551.76401     -66636.9   -67581.423   -66555.246 
  460000    349.78534    761.41169   -66769.057   -67657.544   -66656.557 
Loop time of 981.298 on 2 procs for 9505 steps with 19652 atoms

Performance: 0.837 ns/day, 28.678 hours/ns, 9.686 timesteps/s
96.9% CPU use with 2 MPI tasks x no OpenMP threads

MPI task timing breakdown:
Section |  min time  |  avg time  |  max time  |%varavg| %total
---------------------------------------------------------------
Pair    | 534.93     | 540.32     | 545.72     |  23.2 | 55.06
Neigh   | 390.82     | 390.83     | 390.84     |   0.1 | 39.83
Comm    | 34.537     | 39.972     | 45.406     |  86.0 |  4.07
Output  | 0.036106   | 0.036165   | 0.036224   |   0.0 |  0.00
Modify  | 8.0009     | 8.0343     | 8.0676     |   1.2 |  0.82
Other   |            | 2.099      |            |       |  0.21

Nlocal:    9826 ave 9845 max 9807 min
Histogram: 1 0 0 0 0 0 0 0 0 1
Nghost:    14247.5 ave 14257 max 14238 min
Histogram: 1 0 0 0 0 0 0 0 0 1
Neighs:    916688 ave 925332 max 908043 min
Histogram: 1 0 0 0 0 0 0 0 0 1

Total # of neighbors = 1833375
Ave neighs/atom = 93.292
Neighbor list builds = 9505
Dangerous builds not checked
Setting up Verlet run ...
  Unit style    : metal
  Current step  : 460000
  Time step     : 0.001
Per MPI rank memory allocation (min/avg/max) = 11.7 | 11.7 | 11.7 Mbytes
Step Temp Press TotEng PotEng Enthalpy 
  460000    349.78534    761.41169   -66769.057   -67657.544   -66656.557 
  460495    323.37608   -478.33924   -66915.526   -67736.931   -66986.142 
Loop time of 53.8692 on 2 procs for 495 steps with 19652 atoms

Performance: 0.794 ns/day, 30.230 hours/ns, 9.189 timesteps/s
94.1% CPU use with 2 MPI tasks x no OpenMP threads

MPI task timing breakdown:
Section |  min time  |  avg time  |  max time  |%varavg| %total
---------------------------------------------------------------
Pair    | 28.291     | 28.493     | 28.695     |   3.8 | 52.89
Neigh   | 20.673     | 20.691     | 20.708     |   0.4 | 38.41
Comm    | 3.9193     | 4.1463     | 4.3734     |  11.2 |  7.70
Output  | 8.7976e-05 | 0.00010753 | 0.00012708 |   0.0 |  0.00
Modify  | 0.41989    | 0.42819    | 0.43649    |   1.3 |  0.79
Other   |            | 0.1106     |            |       |  0.21

Nlocal:    9826 ave 9828 max 9824 min
Histogram: 1 0 0 0 0 0 0 0 0 1
Nghost:    14231.5 ave 14241 max 14222 min
Histogram: 1 0 0 0 0 0 0 0 0 1
Neighs:    917515 ave 928481 max 906549 min
Histogram: 1 0 0 0 0 0 0 0 0 1

Total # of neighbors = 1835030
Ave neighs/atom = 93.3762
Neighbor list builds = 495
Dangerous builds not checked
Setting up Verlet run ...
  Unit style    : metal
  Current step  : 460495
  Time step     : 0.001
Per MPI rank memory allocation (min/avg/max) = 11.7 | 11.7 | 11.7 Mbytes
Step Temp Press TotEng PotEng Enthalpy 
  460495    323.37608   -478.33924   -66915.526   -67736.931   -66986.142 
  470000    299.32645   -1166.8773   -67044.486   -67804.802   -67216.623 
Loop time of 962.86 on 2 procs for 9505 steps with 19652 atoms

Performance: 0.853 ns/day, 28.139 hours/ns, 9.872 timesteps/s
97.4% CPU use with 2 MPI tasks x no OpenMP threads

MPI task timing breakdown:
Section |  min time  |  avg time  |  max time  |%varavg| %total
---------------------------------------------------------------
Pair    | 527.3      | 532.15     | 537.01     |  21.0 | 55.27
Neigh   | 385.61     | 386.62     | 387.64     |   5.2 | 40.15
Comm    | 30.183     | 34.168     | 38.152     |  68.2 |  3.55
Output  | 0.036017   | 0.036029   | 0.03604    |   0.0 |  0.00
Modify  | 7.6521     | 7.8004     | 7.9487     |   5.3 |  0.81
Other   |            | 2.083      |            |       |  0.22

Nlocal:    9826 ave 9835 max 9817 min
Histogram: 1 0 0 0 0 0 0 0 0 1
Nghost:    14252 ave 14264 max 14240 min
Histogram: 1 0 0 0 0 0 0 0 0 1
Neighs:    917961 ave 927572 max 908350 min
Histogram: 1 0 0 0 0 0 0 0 0 1

Total # of neighbors = 1835922
Ave neighs/atom = 93.4216
Neighbor list builds = 9505
Dangerous builds not checked
Setting up Verlet run ...
  Unit style    : metal
  Current step  : 470000
  Time step     : 0.001
Per MPI rank memory allocation (min/avg/max) = 11.7 | 11.7 | 11.7 Mbytes
Step Temp Press TotEng PotEng Enthalpy 
  470000    299.32645   -1166.8773   -67044.486   -67804.802   -67216.623 
  470495    271.83841   -804.80946   -67185.195   -67875.689   -67303.728 
Loop time of 48.7243 on 2 procs for 495 steps with 19652 atoms

Performance: 0.878 ns/day, 27.342 hours/ns, 10.159 timesteps/s
98.6% CPU use with 2 MPI tasks x no OpenMP threads

MPI task timing breakdown:
Section |  min time  |  avg time  |  max time  |%varavg| %total
---------------------------------------------------------------
Pair    | 26.331     | 26.507     | 26.683     |   3.4 | 54.40
Neigh   | 19.782     | 19.897     | 20.013     |   2.6 | 40.84
Comm    | 1.5222     | 1.8155     | 2.1089     |  21.8 |  3.73
Output  | 9.6798e-05 | 0.00011647 | 0.00013614 |   0.0 |  0.00
Modify  | 0.392      | 0.39481    | 0.39762    |   0.4 |  0.81
Other   |            | 0.1092     |            |       |  0.22

Nlocal:    9826 ave 9842 max 9810 min
Histogram: 1 0 0 0 0 0 0 0 0 1
Nghost:    14261.5 ave 14289 max 14234 min
Histogram: 1 0 0 0 0 0 0 0 0 1
Neighs:    919253 ave 928060 max 910446 min
Histogram: 1 0 0 0 0 0 0 0 0 1

Total # of neighbors = 1838506
Ave neighs/atom = 93.5531
Neighbor list builds = 495
Dangerous builds not checked
Setting up Verlet run ...
  Unit style    : metal
  Current step  : 470495
  Time step     : 0.001
Per MPI rank memory allocation (min/avg/max) = 11.7 | 11.7 | 11.7 Mbytes
Step Temp Press TotEng PotEng Enthalpy 
  470495    271.83841   -804.80946   -67185.195   -67875.689   -67303.728 
  480000    248.51053    331.59176   -67315.644   -67946.883   -67266.905 
Loop time of 959.42 on 2 procs for 9505 steps with 19652 atoms

Performance: 0.856 ns/day, 28.038 hours/ns, 9.907 timesteps/s
97.2% CPU use with 2 MPI tasks x no OpenMP threads

MPI task timing breakdown:
Section |  min time  |  avg time  |  max time  |%varavg| %total
---------------------------------------------------------------
Pair    | 526.9      | 530.11     | 533.32     |  13.9 | 55.25
Neigh   | 385.45     | 385.85     | 386.25     |   2.0 | 40.22
Comm    | 28.935     | 31.702     | 34.47      |  49.2 |  3.30
Output  | 0.036619   | 0.036643   | 0.036667   |   0.0 |  0.00
Modify  | 9.586      | 9.6241     | 9.6623     |   1.2 |  1.00
Other   |            | 2.092      |            |       |  0.22

Nlocal:    9826 ave 9838 max 9814 min
Histogram: 1 0 0 0 0 0 0 0 0 1
Nghost:    14244 ave 14262 max 14226 min
Histogram: 1 0 0 0 0 0 0 0 0 1
Neighs:    921266 ave 930467 max 912066 min
Histogram: 1 0 0 0 0 0 0 0 0 1

Total # of neighbors = 1842533
Ave neighs/atom = 93.758
Neighbor list builds = 9505
Dangerous builds not checked
Setting up Verlet run ...
  Unit style    : metal
  Current step  : 480000
  Time step     : 0.001
Per MPI rank memory allocation (min/avg/max) = 11.7 | 11.7 | 11.7 Mbytes
Step Temp Press TotEng PotEng Enthalpy 
  480000    248.51053    331.59176   -67315.644   -67946.883   -67266.905 
  480495    223.09215    128.70033    -67448.18   -68014.854   -67429.286 
Loop time of 50.6019 on 2 procs for 495 steps with 19652 atoms

Performance: 0.845 ns/day, 28.396 hours/ns, 9.782 timesteps/s
98.3% CPU use with 2 MPI tasks x no OpenMP threads

MPI task timing breakdown:
Section |  min time  |  avg time  |  max time  |%varavg| %total
---------------------------------------------------------------
Pair    | 28.301     | 28.527     | 28.753     |   4.2 | 56.38
Neigh   | 20.19      | 20.431     | 20.672     |   5.3 | 40.38
Comm    | 1.1071     | 1.1243     | 1.1415     |   1.6 |  2.22
Output  | 8.0109e-05 | 9.9659e-05 | 0.00011921 |   0.0 |  0.00
Modify  | 0.40811    | 0.41016    | 0.41221    |   0.3 |  0.81
Other   |            | 0.1088     |            |       |  0.22

Nlocal:    9826 ave 9832 max 9820 min
Histogram: 1 0 0 0 0 0 0 0 0 1
Nghost:    14283 ave 14294 max 14272 min
Histogram: 1 0 0 0 0 0 0 0 0 1
Neighs:    922504 ave 932229 max 912778 min
Histogram: 1 0 0 0 0 0 0 0 0 1

Total # of neighbors = 1845007
Ave neighs/atom = 93.8839
Neighbor list builds = 495
Dangerous builds not checked
Setting up Verlet run ...
  Unit style    : metal
  Current step  : 480495
  Time step     : 0.001
Per MPI rank memory allocation (min/avg/max) = 11.7 | 11.7 | 11.7 Mbytes
Step Temp Press TotEng PotEng Enthalpy 
  480495    223.09215    128.70033    -67448.18   -68014.854   -67429.286 
  490000    199.26164    773.28877    -67579.59   -68085.733   -67466.261 
Loop time of 944.954 on 2 procs for 9505 steps with 19652 atoms

Performance: 0.869 ns/day, 27.616 hours/ns, 10.059 timesteps/s
98.3% CPU use with 2 MPI tasks x no OpenMP threads

MPI task timing breakdown:
Section |  min time  |  avg time  |  max time  |%varavg| %total
---------------------------------------------------------------
Pair    | 522.8      | 526.22     | 529.65     |  14.9 | 55.69
Neigh   | 385.97     | 386.04     | 386.1      |   0.3 | 40.85
Comm    | 19.349     | 22.874     | 26.4       |  73.7 |  2.42
Output  | 0.036312   | 0.036368   | 0.036424   |   0.0 |  0.00
Modify  | 7.6486     | 7.6812     | 7.7137     |   1.2 |  0.81
Other   |            | 2.103      |            |       |  0.22

Nlocal:    9826 ave 9836 max 9816 min
Histogram: 1 0 0 0 0 0 0 0 0 1
Nghost:    14296 ave 14303 max 14289 min
Histogram: 1 0 0 0 0 0 0 0 0 1
Neighs:    924025 ave 933580 max 914470 min
Histogram: 1 0 0 0 0 0 0 0 0 1

Total # of neighbors = 1848050
Ave neighs/atom = 94.0388
Neighbor list builds = 9505
Dangerous builds not checked
Setting up Verlet run ...
  Unit style    : metal
  Current step  : 490000
  Time step     : 0.001
Per MPI rank memory allocation (min/avg/max) = 11.7 | 11.7 | 11.7 Mbytes
Step Temp Press TotEng PotEng Enthalpy 
  490000    199.26164    773.28877    -67579.59   -68085.733   -67466.261 
  490495    175.10263   -948.12766   -67705.849   -68150.626   -67844.778 
Loop time of 49.3262 on 2 procs for 495 steps with 19652 atoms

Performance: 0.867 ns/day, 27.680 hours/ns, 10.035 timesteps/s
97.0% CPU use with 2 MPI tasks x no OpenMP threads

MPI task timing breakdown:
Section |  min time  |  avg time  |  max time  |%varavg| %total
---------------------------------------------------------------
Pair    | 27.324     | 27.503     | 27.681     |   3.4 | 55.76
Neigh   | 19.861     | 19.924     | 19.986     |   1.4 | 40.39
Comm    | 1.276      | 1.3921     | 1.5081     |   9.8 |  2.82
Output  | 8.6069e-05 | 0.00011706 | 0.00014806 |   0.0 |  0.00
Modify  | 0.39856    | 0.39863    | 0.39871    |   0.0 |  0.81
Other   |            | 0.1091     |            |       |  0.22

Nlocal:    9826 ave 9831 max 9821 min
Histogram: 1 0 0 0 0 0 0 0 0 1
Nghost:    14292.5 ave 14331 max 14254 min
Histogram: 1 0 0 0 0 0 0 0 0 1
Neighs:    923955 ave 933913 max 913997 min
Histogram: 1 0 0 0 0 0 0 0 0 1

Total # of neighbors = 1847910
Ave neighs/atom = 94.0317
Neighbor list builds = 495
Dangerous builds not checked
Setting up Verlet run ...
  Unit style    : metal
  Current step  : 490495
  Time step     : 0.001
Per MPI rank memory allocation (min/avg/max) = 11.7 | 11.7 | 11.7 Mbytes
Step Temp Press TotEng PotEng Enthalpy 
  490495    175.10263   -948.12766   -67705.849   -68150.626   -67844.778 
  500000      150.997    294.20608   -67839.461   -68223.007   -67796.441 
Loop time of 1013.28 on 2 procs for 9505 steps with 19652 atoms

Performance: 0.810 ns/day, 29.613 hours/ns, 9.380 timesteps/s
94.9% CPU use with 2 MPI tasks x no OpenMP threads

MPI task timing breakdown:
Section |  min time  |  avg time  |  max time  |%varavg| %total
---------------------------------------------------------------
Pair    | 559.73     | 562.55     | 565.37     |  11.9 | 55.52
Neigh   | 395.79     | 396.82     | 397.86     |   5.2 | 39.16
Comm    | 39.934     | 41.509     | 43.085     |  24.5 |  4.10
Output  | 0.032876   | 0.032932   | 0.032988   |   0.0 |  0.00
Modify  | 10.008     | 10.209     | 10.411     |   6.3 |  1.01
Other   |            | 2.153      |            |       |  0.21

Nlocal:    9826 ave 9836 max 9816 min
Histogram: 1 0 0 0 0 0 0 0 0 1
Nghost:    14307 ave 14308 max 14306 min
Histogram: 1 0 0 0 0 0 0 0 0 1
Neighs:    926064 ave 935553 max 916574 min
Histogram: 1 0 0 0 0 0 0 0 0 1

Total # of neighbors = 1852127
Ave neighs/atom = 94.2462
Neighbor list builds = 9505
Dangerous builds not checked
Setting up Verlet run ...
  Unit style    : metal
  Current step  : 500000
  Time step     : 0.001
Per MPI rank memory allocation (min/avg/max) = 11.7 | 11.7 | 11.7 Mbytes
Step Temp Press TotEng PotEng Enthalpy 
  500000      150.997    294.20608   -67839.461   -68223.007   -67796.441 
  500495     127.2697    550.52198   -67959.448   -68282.725   -67879.058 
Loop time of 50.035 on 2 procs for 495 steps with 19652 atoms

Performance: 0.855 ns/day, 28.078 hours/ns, 9.893 timesteps/s
98.3% CPU use with 2 MPI tasks x no OpenMP threads

MPI task timing breakdown:
Section |  min time  |  avg time  |  max time  |%varavg| %total
---------------------------------------------------------------
Pair    | 27.733     | 27.897     | 28.061     |   3.1 | 55.76
Neigh   | 20.3       | 20.426     | 20.552     |   2.8 | 40.82
Comm    | 1.1545     | 1.194      | 1.2334     |   3.6 |  2.39
Output  | 8.5115e-05 | 0.00010848 | 0.00013185 |   0.0 |  0.00
Modify  | 0.40847    | 0.41003    | 0.4116     |   0.2 |  0.82
Other   |            | 0.1076     |            |       |  0.22

Nlocal:    9826 ave 9831 max 9821 min
Histogram: 1 0 0 0 0 0 0 0 0 1
Nghost:    14327.5 ave 14341 max 14314 min
Histogram: 1 0 0 0 0 0 0 0 0 1
Neighs:    927372 ave 938004 max 916740 min
Histogram: 1 0 0 0 0 0 0 0 0 1

Total # of neighbors = 1854744
Ave neighs/atom = 94.3794
Neighbor list builds = 495
Dangerous builds not checked
Setting up Verlet run ...
  Unit style    : metal
  Current step  : 500495
  Time step     : 0.001
Per MPI rank memory allocation (min/avg/max) = 11.7 | 11.7 | 11.7 Mbytes
Step Temp Press TotEng PotEng Enthalpy 
  500495     127.2697    550.52198   -67959.448   -68282.725   -67879.058 
  510000     100.2959   -178.76011   -68099.571   -68354.331   -68125.651 
Loop time of 967.916 on 2 procs for 9505 steps with 19652 atoms

Performance: 0.848 ns/day, 28.287 hours/ns, 9.820 timesteps/s
97.5% CPU use with 2 MPI tasks x no OpenMP threads

MPI task timing breakdown:
Section |  min time  |  avg time  |  max time  |%varavg| %total
---------------------------------------------------------------
Pair    | 534.63     | 539.17     | 543.72     |  19.6 | 55.70
Neigh   | 389.22     | 389.52     | 389.82     |   1.5 | 40.24
Comm    | 24.907     | 29.187     | 33.467     |  79.2 |  3.02
Output  | 0.036755   | 0.036779   | 0.036802   |   0.0 |  0.00
Modify  | 7.8512     | 7.8816     | 7.9121     |   1.1 |  0.81
Other   |            | 2.117      |            |       |  0.22

Nlocal:    9826 ave 9840 max 9812 min
Histogram: 1 0 0 0 0 0 0 0 0 1
Nghost:    14316 ave 14324 max 14308 min
Histogram: 1 0 0 0 0 0 0 0 0 1
Neighs:    928190 ave 937231 max 919150 min
Histogram: 1 0 0 0 0 0 0 0 0 1

Total # of neighbors = 1856381
Ave neighs/atom = 94.4627
Neighbor list builds = 9505
Dangerous builds not checked
Total wall time: 16:05:04
