LAMMPS (12 Dec 2018)
Lattice spacing in x,y,z = 4 4 4
Created orthogonal box = (0 0 0) to (68 68 68)
  1 by 1 by 1 MPI processor grid
Created 19652 atoms
  Time spent = 0.00303006 secs
Setting atom values ...
  19281 settings made for type/fraction
Neighbor list info ...
  update every 1 steps, delay 0 steps, check no
  max neighbors/atom: 2000, page size: 100000
  master list distance cutoff = 8.5
  ghost atom cutoff = 8.5
  binsize = 4.25, bins = 16 16 16
  1 neighbor lists, perpetual/occasional/extra = 1 0 0
  (1) pair eam/alloy, perpetual
      attributes: half, newton on
      pair build: half/bin/atomonly/newton
      stencil: half/bin/3d/newton
      bin: standard
Setting up Verlet run ...
  Unit style    : metal
  Current step  : 0
  Time step     : 0.001
Per MPI rank memory allocation (min/avg/max) = 18.19 | 18.19 | 18.19 Mbytes
Step Temp Press TotEng PotEng Enthalpy 
       0          300   -166746.06   -61341.629   -62103.656   -94066.049 
    1000    411.81698   -80504.877    -61341.63   -62387.683   -77140.957 
Loop time of 165.03 on 1 procs for 1000 steps with 19652 atoms

Performance: 0.524 ns/day, 45.842 hours/ns, 6.060 timesteps/s
99.2% CPU use with 1 MPI tasks x no OpenMP threads

MPI task timing breakdown:
Section |  min time  |  avg time  |  max time  |%varavg| %total
---------------------------------------------------------------
Pair    | 92.638     | 92.638     | 92.638     |   0.0 | 56.13
Neigh   | 70.345     | 70.345     | 70.345     |   0.0 | 42.63
Comm    | 1.2255     | 1.2255     | 1.2255     |   0.0 |  0.74
Output  | 0.00016904 | 0.00016904 | 0.00016904 |   0.0 |  0.00
Modify  | 0.42896    | 0.42896    | 0.42896    |   0.0 |  0.26
Other   |            | 0.392      |            |       |  0.24

Nlocal:    19652 ave 19652 max 19652 min
Histogram: 1 0 0 0 0 0 0 0 0 0
Nghost:    18879 ave 18879 max 18879 min
Histogram: 1 0 0 0 0 0 0 0 0 0
Neighs:    1.57628e+06 ave 1.57628e+06 max 1.57628e+06 min
Histogram: 1 0 0 0 0 0 0 0 0 0

Total # of neighbors = 1576281
Ave neighs/atom = 80.2097
Neighbor list builds = 1000
Dangerous builds not checked
Setting up Verlet run ...
  Unit style    : metal
  Current step  : 1000
  Time step     : 0.001
Per MPI rank memory allocation (min/avg/max) = 18.19 | 18.19 | 18.19 Mbytes
Step Temp Press TotEng PotEng Enthalpy 
    1000    411.81698   -80504.877    -61341.63   -62387.683   -77140.957 
    2000    398.91143   -1633.6679   -65390.376   -66403.648   -65639.766 
Loop time of 209.214 on 1 procs for 1000 steps with 19652 atoms

Performance: 0.413 ns/day, 58.115 hours/ns, 4.780 timesteps/s
100.0% CPU use with 1 MPI tasks x no OpenMP threads

MPI task timing breakdown:
Section |  min time  |  avg time  |  max time  |%varavg| %total
---------------------------------------------------------------
Pair    | 115.13     | 115.13     | 115.13     |   0.0 | 55.03
Neigh   | 90.942     | 90.942     | 90.942     |   0.0 | 43.47
Comm    | 1.175      | 1.175      | 1.175      |   0.0 |  0.56
Output  | 0.071927   | 0.071927   | 0.071927   |   0.0 |  0.03
Modify  | 1.4953     | 1.4953     | 1.4953     |   0.0 |  0.71
Other   |            | 0.3947     |            |       |  0.19

Nlocal:    19652 ave 19652 max 19652 min
Histogram: 1 0 0 0 0 0 0 0 0 0
Nghost:    20334 ave 20334 max 20334 min
Histogram: 1 0 0 0 0 0 0 0 0 0
Neighs:    2.005e+06 ave 2.005e+06 max 2.005e+06 min
Histogram: 1 0 0 0 0 0 0 0 0 0

Total # of neighbors = 2005002
Ave neighs/atom = 102.025
Neighbor list builds = 1000
Dangerous builds not checked
Setting up Verlet run ...
  Unit style    : metal
  Current step  : 2000
  Time step     : 0.001
Per MPI rank memory allocation (min/avg/max) = 19.34 | 19.34 | 19.34 Mbytes
Step Temp Press TotEng PotEng Enthalpy 
    2000    398.91143   -1633.6679   -65390.376   -66403.648   -65639.766 
    4000    797.36514    605.65176   -64182.451   -66207.831   -64090.549 
    6000    1341.7914    -1242.689    -60618.54   -64026.813   -60817.184 
    8000     1892.496   -1032.0565   -55670.033   -60477.146   -55852.047 
   10000    2460.2127    284.01152   -52467.853   -58717.017   -52415.104 
Loop time of 1565.53 on 1 procs for 8000 steps with 19652 atoms

Performance: 0.442 ns/day, 54.359 hours/ns, 5.110 timesteps/s
99.3% CPU use with 1 MPI tasks x no OpenMP threads

MPI task timing breakdown:
Section |  min time  |  avg time  |  max time  |%varavg| %total
---------------------------------------------------------------
Pair    | 851.91     | 851.91     | 851.91     |   0.0 | 54.42
Neigh   | 689.84     | 689.84     | 689.84     |   0.0 | 44.06
Comm    | 8.7959     | 8.7959     | 8.7959     |   0.0 |  0.56
Output  | 0.55456    | 0.55456    | 0.55456    |   0.0 |  0.04
Modify  | 11.393     | 11.393     | 11.393     |   0.0 |  0.73
Other   |            | 3.035      |            |       |  0.19

Nlocal:    19652 ave 19652 max 19652 min
Histogram: 1 0 0 0 0 0 0 0 0 0
Nghost:    19149 ave 19149 max 19149 min
Histogram: 1 0 0 0 0 0 0 0 0 0
Neighs:    1.65633e+06 ave 1.65633e+06 max 1.65633e+06 min
Histogram: 1 0 0 0 0 0 0 0 0 0

Total # of neighbors = 1656328
Ave neighs/atom = 84.2829
Neighbor list builds = 8000
Dangerous builds not checked
Setting up Verlet run ...
  Unit style    : metal
  Current step  : 10000
  Time step     : 0.001
Per MPI rank memory allocation (min/avg/max) = 19.34 | 19.34 | 19.34 Mbytes
Step Temp Press TotEng PotEng Enthalpy 
   10000    2460.2127    284.01152   -52467.853   -58717.017   -52415.104 
   12000    2446.7246   -301.14361   -52447.701   -58662.605   -52503.791 
   14000    2478.6582    210.20917   -52369.864   -58665.882   -52330.732 
   16000    2448.8675   -1913.2964   -52512.183    -58732.53   -52868.227 
   18000    2447.7975    449.87844   -52471.699   -58689.328     -52388.1 
   20000    2431.7904   -970.29196   -52433.638   -58610.608   -52614.821 
   22000    2464.7675     -1470.17   -52417.038   -58677.772   -52690.721 
   24000    2459.8671    732.11034    -52403.23   -58651.517   -52266.993 
   26000    2466.8144    -31.94893   -52404.071   -58670.005   -52410.018 
   28000    2447.8492   -1508.5042   -52426.215   -58643.975   -52707.556 
   30000    2467.1669   -1286.5771     -52371.5   -58638.328   -52611.464 
   32000    2446.2849    -634.3791   -52427.809   -58641.596   -52545.956 
   34000    2463.0449    -465.2391   -52436.852   -58693.211    -52523.45 
   36000    2479.5055    1950.7779   -52433.799   -58731.969   -52072.049 
   38000    2446.4929    1901.3367   -52506.737   -58721.052   -52154.225 
   40000    2430.9458   -586.21158   -52426.734   -58601.558   -52536.035 
Loop time of 5261.58 on 1 procs for 30000 steps with 19652 atoms

Performance: 0.493 ns/day, 48.718 hours/ns, 5.702 timesteps/s
99.2% CPU use with 1 MPI tasks x no OpenMP threads

MPI task timing breakdown:
Section |  min time  |  avg time  |  max time  |%varavg| %total
---------------------------------------------------------------
Pair    | 2847.3     | 2847.3     | 2847.3     |   0.0 | 54.12
Neigh   | 2326.2     | 2326.2     | 2326.2     |   0.0 | 44.21
Comm    | 32.091     | 32.091     | 32.091     |   0.0 |  0.61
Output  | 4.839      | 4.839      | 4.839      |   0.0 |  0.09
Modify  | 40.116     | 40.116     | 40.116     |   0.0 |  0.76
Other   |            | 11.01      |            |       |  0.21

Nlocal:    19652 ave 19652 max 19652 min
Histogram: 1 0 0 0 0 0 0 0 0 0
Nghost:    19110 ave 19110 max 19110 min
Histogram: 1 0 0 0 0 0 0 0 0 0
Neighs:    1.64939e+06 ave 1.64939e+06 max 1.64939e+06 min
Histogram: 1 0 0 0 0 0 0 0 0 0

Total # of neighbors = 1649386
Ave neighs/atom = 83.9297
Neighbor list builds = 30000
Dangerous builds not checked
Setting up Verlet run ...
  Unit style    : metal
  Current step  : 40000
  Time step     : 0.001
Per MPI rank memory allocation (min/avg/max) = 19.34 | 19.34 | 19.34 Mbytes
Step Temp Press TotEng PotEng Enthalpy 
   40000    2430.9458   -586.21158   -52426.734   -58601.558   -52536.035 
   40495    2396.0856    1197.0807   -52675.903   -58762.179   -52454.122 
Loop time of 81.3159 on 1 procs for 495 steps with 19652 atoms

Performance: 0.526 ns/day, 45.632 hours/ns, 6.087 timesteps/s
99.8% CPU use with 1 MPI tasks x no OpenMP threads

MPI task timing breakdown:
Section |  min time  |  avg time  |  max time  |%varavg| %total
---------------------------------------------------------------
Pair    | 44.539     | 44.539     | 44.539     |   0.0 | 54.77
Neigh   | 35.456     | 35.456     | 35.456     |   0.0 | 43.60
Comm    | 0.51403    | 0.51403    | 0.51403    |   0.0 |  0.63
Output  | 0.00011706 | 0.00011706 | 0.00011706 |   0.0 |  0.00
Modify  | 0.62682    | 0.62682    | 0.62682    |   0.0 |  0.77
Other   |            | 0.1797     |            |       |  0.22

Nlocal:    19652 ave 19652 max 19652 min
Histogram: 1 0 0 0 0 0 0 0 0 0
Nghost:    19233 ave 19233 max 19233 min
Histogram: 1 0 0 0 0 0 0 0 0 0
Neighs:    1.66015e+06 ave 1.66015e+06 max 1.66015e+06 min
Histogram: 1 0 0 0 0 0 0 0 0 0

Total # of neighbors = 1660153
Ave neighs/atom = 84.4776
Neighbor list builds = 495
Dangerous builds not checked
Setting up Verlet run ...
  Unit style    : metal
  Current step  : 40495
  Time step     : 0.001
Per MPI rank memory allocation (min/avg/max) = 19.34 | 19.34 | 19.34 Mbytes
Step Temp Press TotEng PotEng Enthalpy 
   40495    2396.0856    1197.0807   -52675.903   -58762.179   -52454.122 
   42000    2416.4029   -1297.7568   -52735.987    -58873.87   -52976.375 
Loop time of 250.796 on 1 procs for 1505 steps with 19652 atoms

Performance: 0.518 ns/day, 46.289 hours/ns, 6.001 timesteps/s
97.6% CPU use with 1 MPI tasks x no OpenMP threads

MPI task timing breakdown:
Section |  min time  |  avg time  |  max time  |%varavg| %total
---------------------------------------------------------------
Pair    | 134.51     | 134.51     | 134.51     |   0.0 | 53.63
Neigh   | 106.72     | 106.72     | 106.72     |   0.0 | 42.55
Comm    | 1.5256     | 1.5256     | 1.5256     |   0.0 |  0.61
Output  | 5.6717     | 5.6717     | 5.6717     |   0.0 |  2.26
Modify  | 1.844      | 1.844      | 1.844      |   0.0 |  0.74
Other   |            | 0.5293     |            |       |  0.21

Nlocal:    19652 ave 19652 max 19652 min
Histogram: 1 0 0 0 0 0 0 0 0 0
Nghost:    19211 ave 19211 max 19211 min
Histogram: 1 0 0 0 0 0 0 0 0 0
Neighs:    1.66011e+06 ave 1.66011e+06 max 1.66011e+06 min
Histogram: 1 0 0 0 0 0 0 0 0 0

Total # of neighbors = 1660108
Ave neighs/atom = 84.4753
Neighbor list builds = 1505
Dangerous builds not checked
Setting up Verlet run ...
  Unit style    : metal
  Current step  : 42000
  Time step     : 0.001
Per MPI rank memory allocation (min/avg/max) = 19.34 | 19.34 | 19.34 Mbytes
Step Temp Press TotEng PotEng Enthalpy 
   42000    2416.4029   -1297.7568   -52735.987    -58873.87   -52976.375 
   42495    2362.0336    774.13561   -52941.771   -58941.551   -52799.123 
Loop time of 78.1852 on 1 procs for 495 steps with 19652 atoms

Performance: 0.547 ns/day, 43.875 hours/ns, 6.331 timesteps/s
98.8% CPU use with 1 MPI tasks x no OpenMP threads

MPI task timing breakdown:
Section |  min time  |  avg time  |  max time  |%varavg| %total
---------------------------------------------------------------
Pair    | 42.423     | 42.423     | 42.423     |   0.0 | 54.26
Neigh   | 34.499     | 34.499     | 34.499     |   0.0 | 44.12
Comm    | 0.49023    | 0.49023    | 0.49023    |   0.0 |  0.63
Output  | 0.00010896 | 0.00010896 | 0.00010896 |   0.0 |  0.00
Modify  | 0.59923    | 0.59923    | 0.59923    |   0.0 |  0.77
Other   |            | 0.1737     |            |       |  0.22

Nlocal:    19652 ave 19652 max 19652 min
Histogram: 1 0 0 0 0 0 0 0 0 0
Nghost:    19192 ave 19192 max 19192 min
Histogram: 1 0 0 0 0 0 0 0 0 0
Neighs:    1.66886e+06 ave 1.66886e+06 max 1.66886e+06 min
Histogram: 1 0 0 0 0 0 0 0 0 0

Total # of neighbors = 1668863
Ave neighs/atom = 84.9208
Neighbor list builds = 495
Dangerous builds not checked
Setting up Verlet run ...
  Unit style    : metal
  Current step  : 42495
  Time step     : 0.001
Per MPI rank memory allocation (min/avg/max) = 19.34 | 19.34 | 19.34 Mbytes
Step Temp Press TotEng PotEng Enthalpy 
   42495    2362.0336    774.13561   -52941.771   -58941.551   -52799.123 
   44000    2391.8338     991.7252   -52890.402   -58965.877    -52707.69 
Loop time of 245.854 on 1 procs for 1505 steps with 19652 atoms

Performance: 0.529 ns/day, 45.377 hours/ns, 6.122 timesteps/s
99.3% CPU use with 1 MPI tasks x no OpenMP threads

MPI task timing breakdown:
Section |  min time  |  avg time  |  max time  |%varavg| %total
---------------------------------------------------------------
Pair    | 135.11     | 135.11     | 135.11     |   0.0 | 54.95
Neigh   | 106.62     | 106.62     | 106.62     |   0.0 | 43.37
Comm    | 1.5286     | 1.5286     | 1.5286     |   0.0 |  0.62
Output  | 0.23495    | 0.23495    | 0.23495    |   0.0 |  0.10
Modify  | 1.826      | 1.826      | 1.826      |   0.0 |  0.74
Other   |            | 0.5381     |            |       |  0.22

Nlocal:    19652 ave 19652 max 19652 min
Histogram: 1 0 0 0 0 0 0 0 0 0
Nghost:    19305 ave 19305 max 19305 min
Histogram: 1 0 0 0 0 0 0 0 0 0
Neighs:    1.66855e+06 ave 1.66855e+06 max 1.66855e+06 min
Histogram: 1 0 0 0 0 0 0 0 0 0

Total # of neighbors = 1668553
Ave neighs/atom = 84.905
Neighbor list builds = 1505
Dangerous builds not checked
Setting up Verlet run ...
  Unit style    : metal
  Current step  : 44000
  Time step     : 0.001
Per MPI rank memory allocation (min/avg/max) = 19.34 | 19.34 | 19.34 Mbytes
Step Temp Press TotEng PotEng Enthalpy 
   44000    2391.8338     991.7252   -52890.402   -58965.877    -52707.69 
   44495    2323.3167    374.51518    -53180.29   -59081.726   -53111.486 
Loop time of 83.9652 on 1 procs for 495 steps with 19652 atoms

Performance: 0.509 ns/day, 47.119 hours/ns, 5.895 timesteps/s
99.8% CPU use with 1 MPI tasks x no OpenMP threads

MPI task timing breakdown:
Section |  min time  |  avg time  |  max time  |%varavg| %total
---------------------------------------------------------------
Pair    | 46.079     | 46.079     | 46.079     |   0.0 | 54.88
Neigh   | 36.54      | 36.54      | 36.54      |   0.0 | 43.52
Comm    | 0.52562    | 0.52562    | 0.52562    |   0.0 |  0.63
Output  | 0.00013494 | 0.00013494 | 0.00013494 |   0.0 |  0.00
Modify  | 0.6388     | 0.6388     | 0.6388     |   0.0 |  0.76
Other   |            | 0.1821     |            |       |  0.22

Nlocal:    19652 ave 19652 max 19652 min
Histogram: 1 0 0 0 0 0 0 0 0 0
Nghost:    19353 ave 19353 max 19353 min
Histogram: 1 0 0 0 0 0 0 0 0 0
Neighs:    1.67412e+06 ave 1.67412e+06 max 1.67412e+06 min
Histogram: 1 0 0 0 0 0 0 0 0 0

Total # of neighbors = 1674118
Ave neighs/atom = 85.1882
Neighbor list builds = 495
Dangerous builds not checked
Setting up Verlet run ...
  Unit style    : metal
  Current step  : 44495
  Time step     : 0.001
Per MPI rank memory allocation (min/avg/max) = 19.34 | 19.34 | 19.34 Mbytes
Step Temp Press TotEng PotEng Enthalpy 
   44495    2323.3167    374.51518    -53180.29   -59081.726   -53111.486 
   46000    2287.9605   -1858.4429   -53306.966   -59118.594   -53648.612 
Loop time of 240.196 on 1 procs for 1505 steps with 19652 atoms

Performance: 0.541 ns/day, 44.333 hours/ns, 6.266 timesteps/s
98.9% CPU use with 1 MPI tasks x no OpenMP threads

MPI task timing breakdown:
Section |  min time  |  avg time  |  max time  |%varavg| %total
---------------------------------------------------------------
Pair    | 129.49     | 129.49     | 129.49     |   0.0 | 53.91
Neigh   | 106.76     | 106.76     | 106.76     |   0.0 | 44.45
Comm    | 1.4517     | 1.4517     | 1.4517     |   0.0 |  0.60
Output  | 0.15642    | 0.15642    | 0.15642    |   0.0 |  0.07
Modify  | 1.8428     | 1.8428     | 1.8428     |   0.0 |  0.77
Other   |            | 0.5017     |            |       |  0.21

Nlocal:    19652 ave 19652 max 19652 min
Histogram: 1 0 0 0 0 0 0 0 0 0
Nghost:    19252 ave 19252 max 19252 min
Histogram: 1 0 0 0 0 0 0 0 0 0
Neighs:    1.67219e+06 ave 1.67219e+06 max 1.67219e+06 min
Histogram: 1 0 0 0 0 0 0 0 0 0

Total # of neighbors = 1672188
Ave neighs/atom = 85.09
Neighbor list builds = 1505
Dangerous builds not checked
Setting up Verlet run ...
  Unit style    : metal
  Current step  : 46000
  Time step     : 0.001
Per MPI rank memory allocation (min/avg/max) = 19.34 | 19.34 | 19.34 Mbytes
Step Temp Press TotEng PotEng Enthalpy 
   46000    2287.9605   -1858.4429   -53306.966   -59118.594   -53648.612 
   46495    2246.0955    944.18991   -53561.313     -59266.6   -53388.908 
Loop time of 75.7521 on 1 procs for 495 steps with 19652 atoms

Performance: 0.565 ns/day, 42.510 hours/ns, 6.534 timesteps/s
100.0% CPU use with 1 MPI tasks x no OpenMP threads

MPI task timing breakdown:
Section |  min time  |  avg time  |  max time  |%varavg| %total
---------------------------------------------------------------
Pair    | 40.443     | 40.443     | 40.443     |   0.0 | 53.39
Neigh   | 34.1       | 34.1       | 34.1       |   0.0 | 45.02
Comm    | 0.44942    | 0.44942    | 0.44942    |   0.0 |  0.59
Output  | 0.00018716 | 0.00018716 | 0.00018716 |   0.0 |  0.00
Modify  | 0.60067    | 0.60067    | 0.60067    |   0.0 |  0.79
Other   |            | 0.1589     |            |       |  0.21

Nlocal:    19652 ave 19652 max 19652 min
Histogram: 1 0 0 0 0 0 0 0 0 0
Nghost:    19324 ave 19324 max 19324 min
Histogram: 1 0 0 0 0 0 0 0 0 0
Neighs:    1.6834e+06 ave 1.6834e+06 max 1.6834e+06 min
Histogram: 1 0 0 0 0 0 0 0 0 0

Total # of neighbors = 1683401
Ave neighs/atom = 85.6605
Neighbor list builds = 495
Dangerous builds not checked
Setting up Verlet run ...
  Unit style    : metal
  Current step  : 46495
  Time step     : 0.001
Per MPI rank memory allocation (min/avg/max) = 19.34 | 19.34 | 19.34 Mbytes
Step Temp Press TotEng PotEng Enthalpy 
   46495    2246.0955    944.18991   -53561.313     -59266.6   -53388.908 
   48000    2262.6025   -2051.6493   -53610.617   -59357.834   -53985.173 
Loop time of 239.02 on 1 procs for 1505 steps with 19652 atoms

Performance: 0.544 ns/day, 44.116 hours/ns, 6.297 timesteps/s
99.9% CPU use with 1 MPI tasks x no OpenMP threads

MPI task timing breakdown:
Section |  min time  |  avg time  |  max time  |%varavg| %total
---------------------------------------------------------------
Pair    | 128.87     | 128.87     | 128.87     |   0.0 | 53.92
Neigh   | 106.23     | 106.23     | 106.23     |   0.0 | 44.44
Comm    | 1.4188     | 1.4188     | 1.4188     |   0.0 |  0.59
Output  | 0.19837    | 0.19837    | 0.19837    |   0.0 |  0.08
Modify  | 1.8207     | 1.8207     | 1.8207     |   0.0 |  0.76
Other   |            | 0.4799     |            |       |  0.20

Nlocal:    19652 ave 19652 max 19652 min
Histogram: 1 0 0 0 0 0 0 0 0 0
Nghost:    19300 ave 19300 max 19300 min
Histogram: 1 0 0 0 0 0 0 0 0 0
Neighs:    1.68405e+06 ave 1.68405e+06 max 1.68405e+06 min
Histogram: 1 0 0 0 0 0 0 0 0 0

Total # of neighbors = 1684051
Ave neighs/atom = 85.6936
Neighbor list builds = 1505
Dangerous builds not checked
Setting up Verlet run ...
  Unit style    : metal
  Current step  : 48000
  Time step     : 0.001
Per MPI rank memory allocation (min/avg/max) = 19.34 | 19.34 | 19.34 Mbytes
Step Temp Press TotEng PotEng Enthalpy 
   48000    2262.6025   -2051.6493   -53610.617   -59357.834   -53985.173 
   48495    2207.4649   -445.84153   -53813.684   -59420.846   -53894.724 
Loop time of 84.7265 on 1 procs for 495 steps with 19652 atoms

Performance: 0.505 ns/day, 47.546 hours/ns, 5.842 timesteps/s
100.0% CPU use with 1 MPI tasks x no OpenMP threads

MPI task timing breakdown:
Section |  min time  |  avg time  |  max time  |%varavg| %total
---------------------------------------------------------------
Pair    | 45.468     | 45.468     | 45.468     |   0.0 | 53.66
Neigh   | 37.88      | 37.88      | 37.88      |   0.0 | 44.71
Comm    | 0.50736    | 0.50736    | 0.50736    |   0.0 |  0.60
Output  | 0.00013995 | 0.00013995 | 0.00013995 |   0.0 |  0.00
Modify  | 0.68992    | 0.68992    | 0.68992    |   0.0 |  0.81
Other   |            | 0.1807     |            |       |  0.21

Nlocal:    19652 ave 19652 max 19652 min
Histogram: 1 0 0 0 0 0 0 0 0 0
Nghost:    19371 ave 19371 max 19371 min
Histogram: 1 0 0 0 0 0 0 0 0 0
Neighs:    1.69156e+06 ave 1.69156e+06 max 1.69156e+06 min
Histogram: 1 0 0 0 0 0 0 0 0 0

Total # of neighbors = 1691561
Ave neighs/atom = 86.0758
Neighbor list builds = 495
Dangerous builds not checked
Setting up Verlet run ...
  Unit style    : metal
  Current step  : 48495
  Time step     : 0.001
Per MPI rank memory allocation (min/avg/max) = 19.34 | 19.34 | 19.34 Mbytes
Step Temp Press TotEng PotEng Enthalpy 
   48495    2207.4649   -445.84153   -53813.684   -59420.846   -53894.724 
   50000    2230.8332    1690.0488   -53876.796   -59543.316   -53570.971 
Loop time of 252.199 on 1 procs for 1505 steps with 19652 atoms

Performance: 0.516 ns/day, 46.548 hours/ns, 5.968 timesteps/s
99.9% CPU use with 1 MPI tasks x no OpenMP threads

MPI task timing breakdown:
Section |  min time  |  avg time  |  max time  |%varavg| %total
---------------------------------------------------------------
Pair    | 136.64     | 136.64     | 136.64     |   0.0 | 54.18
Neigh   | 111.44     | 111.44     | 111.44     |   0.0 | 44.19
Comm    | 1.5029     | 1.5029     | 1.5029     |   0.0 |  0.60
Output  | 0.16737    | 0.16737    | 0.16737    |   0.0 |  0.07
Modify  | 1.9467     | 1.9467     | 1.9467     |   0.0 |  0.77
Other   |            | 0.5072     |            |       |  0.20

Nlocal:    19652 ave 19652 max 19652 min
Histogram: 1 0 0 0 0 0 0 0 0 0
Nghost:    19386 ave 19386 max 19386 min
Histogram: 1 0 0 0 0 0 0 0 0 0
Neighs:    1.69828e+06 ave 1.69828e+06 max 1.69828e+06 min
Histogram: 1 0 0 0 0 0 0 0 0 0

Total # of neighbors = 1698284
Ave neighs/atom = 86.4179
Neighbor list builds = 1505
Dangerous builds not checked
Setting up Verlet run ...
  Unit style    : metal
  Current step  : 50000
  Time step     : 0.001
Per MPI rank memory allocation (min/avg/max) = 19.34 | 19.34 | 19.34 Mbytes
Step Temp Press TotEng PotEng Enthalpy 
   50000    2230.8332    1690.0488   -53876.796   -59543.316   -53570.971 
   50495    2178.0858   -723.50827   -54043.121   -59575.658   -54174.169 
Loop time of 82.4733 on 1 procs for 495 steps with 19652 atoms

Performance: 0.519 ns/day, 46.281 hours/ns, 6.002 timesteps/s
100.0% CPU use with 1 MPI tasks x no OpenMP threads

MPI task timing breakdown:
Section |  min time  |  avg time  |  max time  |%varavg| %total
---------------------------------------------------------------
Pair    | 44.51      | 44.51      | 44.51      |   0.0 | 53.97
Neigh   | 36.653     | 36.653     | 36.653     |   0.0 | 44.44
Comm    | 0.4892     | 0.4892     | 0.4892     |   0.0 |  0.59
Output  | 0.00013995 | 0.00013995 | 0.00013995 |   0.0 |  0.00
Modify  | 0.65142    | 0.65142    | 0.65142    |   0.0 |  0.79
Other   |            | 0.1694     |            |       |  0.21

Nlocal:    19652 ave 19652 max 19652 min
Histogram: 1 0 0 0 0 0 0 0 0 0
Nghost:    19415 ave 19415 max 19415 min
Histogram: 1 0 0 0 0 0 0 0 0 0
Neighs:    1.69651e+06 ave 1.69651e+06 max 1.69651e+06 min
Histogram: 1 0 0 0 0 0 0 0 0 0

Total # of neighbors = 1696513
Ave neighs/atom = 86.3278
Neighbor list builds = 495
Dangerous builds not checked
Setting up Verlet run ...
  Unit style    : metal
  Current step  : 50495
  Time step     : 0.001
Per MPI rank memory allocation (min/avg/max) = 19.34 | 19.34 | 19.34 Mbytes
Step Temp Press TotEng PotEng Enthalpy 
   50495    2178.0858   -723.50827   -54043.121   -59575.658   -54174.169 
   52000    2147.5818    432.29802   -54184.967    -59640.02   -54106.917 
Loop time of 226.506 on 1 procs for 1505 steps with 19652 atoms

Performance: 0.574 ns/day, 41.806 hours/ns, 6.644 timesteps/s
96.0% CPU use with 1 MPI tasks x no OpenMP threads

MPI task timing breakdown:
Section |  min time  |  avg time  |  max time  |%varavg| %total
---------------------------------------------------------------
Pair    | 117.26     | 117.26     | 117.26     |   0.0 | 51.77
Neigh   | 97.25      | 97.25      | 97.25      |   0.0 | 42.94
Comm    | 1.2897     | 1.2897     | 1.2897     |   0.0 |  0.57
Output  | 8.6184     | 8.6184     | 8.6184     |   0.0 |  3.80
Modify  | 1.6431     | 1.6431     | 1.6431     |   0.0 |  0.73
Other   |            | 0.4412     |            |       |  0.19

Nlocal:    19652 ave 19652 max 19652 min
Histogram: 1 0 0 0 0 0 0 0 0 0
Nghost:    19451 ave 19451 max 19451 min
Histogram: 1 0 0 0 0 0 0 0 0 0
Neighs:    1.70235e+06 ave 1.70235e+06 max 1.70235e+06 min
Histogram: 1 0 0 0 0 0 0 0 0 0

Total # of neighbors = 1702351
Ave neighs/atom = 86.6248
Neighbor list builds = 1505
Dangerous builds not checked
Setting up Verlet run ...
  Unit style    : metal
  Current step  : 52000
  Time step     : 0.001
Per MPI rank memory allocation (min/avg/max) = 19.34 | 19.34 | 19.34 Mbytes
Step Temp Press TotEng PotEng Enthalpy 
   52000    2147.5818    432.29802   -54184.967    -59640.02   -54106.917 
   52495    2102.1652    1549.5493   -54399.992   -59739.683   -54121.453 
Loop time of 79.3542 on 1 procs for 495 steps with 19652 atoms

Performance: 0.539 ns/day, 44.531 hours/ns, 6.238 timesteps/s
99.2% CPU use with 1 MPI tasks x no OpenMP threads

MPI task timing breakdown:
Section |  min time  |  avg time  |  max time  |%varavg| %total
---------------------------------------------------------------
Pair    | 42.445     | 42.445     | 42.445     |   0.0 | 53.49
Neigh   | 35.63      | 35.63      | 35.63      |   0.0 | 44.90
Comm    | 0.48149    | 0.48149    | 0.48149    |   0.0 |  0.61
Output  | 0.00012207 | 0.00012207 | 0.00012207 |   0.0 |  0.00
Modify  | 0.63017    | 0.63017    | 0.63017    |   0.0 |  0.79
Other   |            | 0.1679     |            |       |  0.21

Nlocal:    19652 ave 19652 max 19652 min
Histogram: 1 0 0 0 0 0 0 0 0 0
Nghost:    19410 ave 19410 max 19410 min
Histogram: 1 0 0 0 0 0 0 0 0 0
Neighs:    1.70948e+06 ave 1.70948e+06 max 1.70948e+06 min
Histogram: 1 0 0 0 0 0 0 0 0 0

Total # of neighbors = 1709482
Ave neighs/atom = 86.9877
Neighbor list builds = 495
Dangerous builds not checked
Setting up Verlet run ...
  Unit style    : metal
  Current step  : 52495
  Time step     : 0.001
Per MPI rank memory allocation (min/avg/max) = 19.34 | 19.34 | 19.34 Mbytes
Step Temp Press TotEng PotEng Enthalpy 
   52495    2102.1652    1549.5493   -54399.992   -59739.683   -54121.453 
   54000    2087.2073    1407.5346   -54522.663    -59824.36   -54270.057 
Loop time of 255.861 on 1 procs for 1505 steps with 19652 atoms

Performance: 0.508 ns/day, 47.224 hours/ns, 5.882 timesteps/s
98.4% CPU use with 1 MPI tasks x no OpenMP threads

MPI task timing breakdown:
Section |  min time  |  avg time  |  max time  |%varavg| %total
---------------------------------------------------------------
Pair    | 138.83     | 138.83     | 138.83     |   0.0 | 54.26
Neigh   | 112.68     | 112.68     | 112.68     |   0.0 | 44.04
Comm    | 1.5358     | 1.5358     | 1.5358     |   0.0 |  0.60
Output  | 0.29331    | 0.29331    | 0.29331    |   0.0 |  0.11
Modify  | 1.9789     | 1.9789     | 1.9789     |   0.0 |  0.77
Other   |            | 0.5438     |            |       |  0.21

Nlocal:    19652 ave 19652 max 19652 min
Histogram: 1 0 0 0 0 0 0 0 0 0
Nghost:    19404 ave 19404 max 19404 min
Histogram: 1 0 0 0 0 0 0 0 0 0
Neighs:    1.71226e+06 ave 1.71226e+06 max 1.71226e+06 min
Histogram: 1 0 0 0 0 0 0 0 0 0

Total # of neighbors = 1712260
Ave neighs/atom = 87.129
Neighbor list builds = 1505
Dangerous builds not checked
Setting up Verlet run ...
  Unit style    : metal
  Current step  : 54000
  Time step     : 0.001
Per MPI rank memory allocation (min/avg/max) = 19.34 | 19.34 | 19.34 Mbytes
Step Temp Press TotEng PotEng Enthalpy 
   54000    2087.2073    1407.5346   -54522.663    -59824.36   -54270.057 
   54495    2062.2528   -321.83253   -54618.293   -59856.603   -54676.042 
Loop time of 90.8713 on 1 procs for 495 steps with 19652 atoms

Performance: 0.471 ns/day, 50.994 hours/ns, 5.447 timesteps/s
99.1% CPU use with 1 MPI tasks x no OpenMP threads

MPI task timing breakdown:
Section |  min time  |  avg time  |  max time  |%varavg| %total
---------------------------------------------------------------
Pair    | 49.643     | 49.643     | 49.643     |   0.0 | 54.63
Neigh   | 39.755     | 39.755     | 39.755     |   0.0 | 43.75
Comm    | 0.55572    | 0.55572    | 0.55572    |   0.0 |  0.61
Output  | 0.00015998 | 0.00015998 | 0.00015998 |   0.0 |  0.00
Modify  | 0.71835    | 0.71835    | 0.71835    |   0.0 |  0.79
Other   |            | 0.1995     |            |       |  0.22

Nlocal:    19652 ave 19652 max 19652 min
Histogram: 1 0 0 0 0 0 0 0 0 0
Nghost:    19536 ave 19536 max 19536 min
Histogram: 1 0 0 0 0 0 0 0 0 0
Neighs:    1.71292e+06 ave 1.71292e+06 max 1.71292e+06 min
Histogram: 1 0 0 0 0 0 0 0 0 0

Total # of neighbors = 1712920
Ave neighs/atom = 87.1626
Neighbor list builds = 495
Dangerous builds not checked
Setting up Verlet run ...
  Unit style    : metal
  Current step  : 54495
  Time step     : 0.001
Per MPI rank memory allocation (min/avg/max) = 19.34 | 19.34 | 19.34 Mbytes
Step Temp Press TotEng PotEng Enthalpy 
   54495    2062.2528   -321.83253   -54618.293   -59856.603   -54676.042 
   56000    2047.8783   -1468.2377   -54728.893   -59930.691   -54992.164 
Loop time of 277.298 on 1 procs for 1505 steps with 19652 atoms

Performance: 0.469 ns/day, 51.181 hours/ns, 5.427 timesteps/s
99.1% CPU use with 1 MPI tasks x no OpenMP threads

MPI task timing breakdown:
Section |  min time  |  avg time  |  max time  |%varavg| %total
---------------------------------------------------------------
Pair    | 152.88     | 152.88     | 152.88     |   0.0 | 55.13
Neigh   | 119.8      | 119.8      | 119.8      |   0.0 | 43.20
Comm    | 1.6872     | 1.6872     | 1.6872     |   0.0 |  0.61
Output  | 0.18013    | 0.18013    | 0.18013    |   0.0 |  0.06
Modify  | 2.1583     | 2.1583     | 2.1583     |   0.0 |  0.78
Other   |            | 0.595      |            |       |  0.21

Nlocal:    19652 ave 19652 max 19652 min
Histogram: 1 0 0 0 0 0 0 0 0 0
Nghost:    19424 ave 19424 max 19424 min
Histogram: 1 0 0 0 0 0 0 0 0 0
Neighs:    1.71321e+06 ave 1.71321e+06 max 1.71321e+06 min
Histogram: 1 0 0 0 0 0 0 0 0 0

Total # of neighbors = 1713212
Ave neighs/atom = 87.1775
Neighbor list builds = 1505
Dangerous builds not checked
Setting up Verlet run ...
  Unit style    : metal
  Current step  : 56000
  Time step     : 0.001
Per MPI rank memory allocation (min/avg/max) = 19.34 | 19.34 | 19.34 Mbytes
Step Temp Press TotEng PotEng Enthalpy 
   56000    2047.8783   -1468.2377   -54728.893   -59930.691   -54992.164 
   56495     2013.875    -729.8515   -54965.383   -60080.809   -55095.562 
Loop time of 81.4173 on 1 procs for 495 steps with 19652 atoms

Performance: 0.525 ns/day, 45.689 hours/ns, 6.080 timesteps/s
99.6% CPU use with 1 MPI tasks x no OpenMP threads

MPI task timing breakdown:
Section |  min time  |  avg time  |  max time  |%varavg| %total
---------------------------------------------------------------
Pair    | 44.498     | 44.498     | 44.498     |   0.0 | 54.65
Neigh   | 35.611     | 35.611     | 35.611     |   0.0 | 43.74
Comm    | 0.49247    | 0.49247    | 0.49247    |   0.0 |  0.60
Output  | 0.000144   | 0.000144   | 0.000144   |   0.0 |  0.00
Modify  | 0.63645    | 0.63645    | 0.63645    |   0.0 |  0.78
Other   |            | 0.1797     |            |       |  0.22

Nlocal:    19652 ave 19652 max 19652 min
Histogram: 1 0 0 0 0 0 0 0 0 0
Nghost:    19445 ave 19445 max 19445 min
Histogram: 1 0 0 0 0 0 0 0 0 0
Neighs:    1.72276e+06 ave 1.72276e+06 max 1.72276e+06 min
Histogram: 1 0 0 0 0 0 0 0 0 0

Total # of neighbors = 1722764
Ave neighs/atom = 87.6635
Neighbor list builds = 495
Dangerous builds not checked
Setting up Verlet run ...
  Unit style    : metal
  Current step  : 56495
  Time step     : 0.001
Per MPI rank memory allocation (min/avg/max) = 19.34 | 19.34 | 19.34 Mbytes
Step Temp Press TotEng PotEng Enthalpy 
   56495     2013.875    -729.8515   -54965.383   -60080.809   -55095.562 
   58000    2021.7712    2137.8283   -54965.419   -60100.902   -54585.355 
Loop time of 279.523 on 1 procs for 1505 steps with 19652 atoms

Performance: 0.465 ns/day, 51.591 hours/ns, 5.384 timesteps/s
98.8% CPU use with 1 MPI tasks x no OpenMP threads

MPI task timing breakdown:
Section |  min time  |  avg time  |  max time  |%varavg| %total
---------------------------------------------------------------
Pair    | 153.45     | 153.45     | 153.45     |   0.0 | 54.90
Neigh   | 120.79     | 120.79     | 120.79     |   0.0 | 43.21
Comm    | 1.718      | 1.718      | 1.718      |   0.0 |  0.61
Output  | 0.80635    | 0.80635    | 0.80635    |   0.0 |  0.29
Modify  | 2.1579     | 2.1579     | 2.1579     |   0.0 |  0.77
Other   |            | 0.6005     |            |       |  0.21

Nlocal:    19652 ave 19652 max 19652 min
Histogram: 1 0 0 0 0 0 0 0 0 0
Nghost:    19483 ave 19483 max 19483 min
Histogram: 1 0 0 0 0 0 0 0 0 0
Neighs:    1.72839e+06 ave 1.72839e+06 max 1.72839e+06 min
Histogram: 1 0 0 0 0 0 0 0 0 0

Total # of neighbors = 1728386
Ave neighs/atom = 87.9496
Neighbor list builds = 1505
Dangerous builds not checked
Setting up Verlet run ...
  Unit style    : metal
  Current step  : 58000
  Time step     : 0.001
Per MPI rank memory allocation (min/avg/max) = 19.34 | 19.34 | 19.34 Mbytes
Step Temp Press TotEng PotEng Enthalpy 
   58000    2021.7712    2137.8283   -54965.419   -60100.902   -54585.355 
   58495    1970.1656    977.05416   -55239.823   -60244.223   -55066.677 
Loop time of 76.8634 on 1 procs for 495 steps with 19652 atoms

Performance: 0.556 ns/day, 43.133 hours/ns, 6.440 timesteps/s
99.3% CPU use with 1 MPI tasks x no OpenMP threads

MPI task timing breakdown:
Section |  min time  |  avg time  |  max time  |%varavg| %total
---------------------------------------------------------------
Pair    | 41.786     | 41.786     | 41.786     |   0.0 | 54.36
Neigh   | 33.877     | 33.877     | 33.877     |   0.0 | 44.07
Comm    | 0.45523    | 0.45523    | 0.45523    |   0.0 |  0.59
Output  | 0.00014091 | 0.00014091 | 0.00014091 |   0.0 |  0.00
Modify  | 0.57956    | 0.57956    | 0.57956    |   0.0 |  0.75
Other   |            | 0.1653     |            |       |  0.22

Nlocal:    19652 ave 19652 max 19652 min
Histogram: 1 0 0 0 0 0 0 0 0 0
Nghost:    19565 ave 19565 max 19565 min
Histogram: 1 0 0 0 0 0 0 0 0 0
Neighs:    1.73347e+06 ave 1.73347e+06 max 1.73347e+06 min
Histogram: 1 0 0 0 0 0 0 0 0 0

Total # of neighbors = 1733468
Ave neighs/atom = 88.2082
Neighbor list builds = 495
Dangerous builds not checked
Setting up Verlet run ...
  Unit style    : metal
  Current step  : 58495
  Time step     : 0.001
Per MPI rank memory allocation (min/avg/max) = 19.34 | 19.34 | 19.34 Mbytes
Step Temp Press TotEng PotEng Enthalpy 
   58495    1970.1656    977.05416   -55239.823   -60244.223   -55066.677 
   60000    1929.3171    1317.5534   -55406.486   -60307.128   -55173.494 
Loop time of 265.228 on 1 procs for 1505 steps with 19652 atoms

Performance: 0.490 ns/day, 48.953 hours/ns, 5.674 timesteps/s
99.2% CPU use with 1 MPI tasks x no OpenMP threads

MPI task timing breakdown:
Section |  min time  |  avg time  |  max time  |%varavg| %total
---------------------------------------------------------------
Pair    | 146.04     | 146.04     | 146.04     |   0.0 | 55.06
Neigh   | 114.89     | 114.89     | 114.89     |   0.0 | 43.32
Comm    | 1.6102     | 1.6102     | 1.6102     |   0.0 |  0.61
Output  | 0.10181    | 0.10181    | 0.10181    |   0.0 |  0.04
Modify  | 2.011      | 2.011      | 2.011      |   0.0 |  0.76
Other   |            | 0.572      |            |       |  0.22

Nlocal:    19652 ave 19652 max 19652 min
Histogram: 1 0 0 0 0 0 0 0 0 0
Nghost:    19526 ave 19526 max 19526 min
Histogram: 1 0 0 0 0 0 0 0 0 0
Neighs:    1.73724e+06 ave 1.73724e+06 max 1.73724e+06 min
Histogram: 1 0 0 0 0 0 0 0 0 0

Total # of neighbors = 1737237
Ave neighs/atom = 88.4
Neighbor list builds = 1505
Dangerous builds not checked
Setting up Verlet run ...
  Unit style    : metal
  Current step  : 60000
  Time step     : 0.001
Per MPI rank memory allocation (min/avg/max) = 19.34 | 19.34 | 19.34 Mbytes
Step Temp Press TotEng PotEng Enthalpy 
   60000    1929.3171    1317.5534   -55406.486   -60307.128   -55173.494 
   60495    1917.5178     113.0406   -55548.763   -60419.433   -55528.807 
Loop time of 94.5697 on 1 procs for 495 steps with 19652 atoms

Performance: 0.452 ns/day, 53.069 hours/ns, 5.234 timesteps/s
99.7% CPU use with 1 MPI tasks x no OpenMP threads

MPI task timing breakdown:
Section |  min time  |  avg time  |  max time  |%varavg| %total
---------------------------------------------------------------
Pair    | 52.191     | 52.191     | 52.191     |   0.0 | 55.19
Neigh   | 40.853     | 40.853     | 40.853     |   0.0 | 43.20
Comm    | 0.57684    | 0.57684    | 0.57684    |   0.0 |  0.61
Output  | 0.000139   | 0.000139   | 0.000139   |   0.0 |  0.00
Modify  | 0.74439    | 0.74439    | 0.74439    |   0.0 |  0.79
Other   |            | 0.2042     |            |       |  0.22

Nlocal:    19652 ave 19652 max 19652 min
Histogram: 1 0 0 0 0 0 0 0 0 0
Nghost:    19531 ave 19531 max 19531 min
Histogram: 1 0 0 0 0 0 0 0 0 0
Neighs:    1.7399e+06 ave 1.7399e+06 max 1.7399e+06 min
Histogram: 1 0 0 0 0 0 0 0 0 0

Total # of neighbors = 1739895
Ave neighs/atom = 88.5353
Neighbor list builds = 495
Dangerous builds not checked
Setting up Verlet run ...
  Unit style    : metal
  Current step  : 60495
  Time step     : 0.001
Per MPI rank memory allocation (min/avg/max) = 19.34 | 19.34 | 19.34 Mbytes
Step Temp Press TotEng PotEng Enthalpy 
   60495    1917.5178     113.0406   -55548.763   -60419.433   -55528.807 
   62000    1896.7375    240.89201   -55648.349   -60466.235     -55605.9 
Loop time of 254.552 on 1 procs for 1505 steps with 19652 atoms

Performance: 0.511 ns/day, 46.983 hours/ns, 5.912 timesteps/s
98.1% CPU use with 1 MPI tasks x no OpenMP threads

MPI task timing breakdown:
Section |  min time  |  avg time  |  max time  |%varavg| %total
---------------------------------------------------------------
Pair    | 140.04     | 140.04     | 140.04     |   0.0 | 55.01
Neigh   | 110.35     | 110.35     | 110.35     |   0.0 | 43.35
Comm    | 1.5117     | 1.5117     | 1.5117     |   0.0 |  0.59
Output  | 0.17561    | 0.17561    | 0.17561    |   0.0 |  0.07
Modify  | 1.9365     | 1.9365     | 1.9365     |   0.0 |  0.76
Other   |            | 0.5416     |            |       |  0.21

Nlocal:    19652 ave 19652 max 19652 min
Histogram: 1 0 0 0 0 0 0 0 0 0
Nghost:    19528 ave 19528 max 19528 min
Histogram: 1 0 0 0 0 0 0 0 0 0
Neighs:    1.74326e+06 ave 1.74326e+06 max 1.74326e+06 min
Histogram: 1 0 0 0 0 0 0 0 0 0

Total # of neighbors = 1743258
Ave neighs/atom = 88.7064
Neighbor list builds = 1505
Dangerous builds not checked
Setting up Verlet run ...
  Unit style    : metal
  Current step  : 62000
  Time step     : 0.001
Per MPI rank memory allocation (min/avg/max) = 19.34 | 19.34 | 19.34 Mbytes
Step Temp Press TotEng PotEng Enthalpy 
   62000    1896.7375    240.89201   -55648.349   -60466.235     -55605.9 
   62495    1854.7015    1322.3921   -55844.646   -60555.757   -55612.435 
Loop time of 72.2683 on 1 procs for 495 steps with 19652 atoms

Performance: 0.592 ns/day, 40.555 hours/ns, 6.849 timesteps/s
97.8% CPU use with 1 MPI tasks x no OpenMP threads

MPI task timing breakdown:
Section |  min time  |  avg time  |  max time  |%varavg| %total
---------------------------------------------------------------
Pair    | 38.871     | 38.871     | 38.871     |   0.0 | 53.79
Neigh   | 32.249     | 32.249     | 32.249     |   0.0 | 44.62
Comm    | 0.44112    | 0.44112    | 0.44112    |   0.0 |  0.61
Output  | 0.00011396 | 0.00011396 | 0.00011396 |   0.0 |  0.00
Modify  | 0.55428    | 0.55428    | 0.55428    |   0.0 |  0.77
Other   |            | 0.1532     |            |       |  0.21

Nlocal:    19652 ave 19652 max 19652 min
Histogram: 1 0 0 0 0 0 0 0 0 0
Nghost:    19568 ave 19568 max 19568 min
Histogram: 1 0 0 0 0 0 0 0 0 0
Neighs:    1.74867e+06 ave 1.74867e+06 max 1.74867e+06 min
Histogram: 1 0 0 0 0 0 0 0 0 0

Total # of neighbors = 1748666
Ave neighs/atom = 88.9816
Neighbor list builds = 495
Dangerous builds not checked
Setting up Verlet run ...
  Unit style    : metal
  Current step  : 62495
  Time step     : 0.001
Per MPI rank memory allocation (min/avg/max) = 19.34 | 19.34 | 19.34 Mbytes
Step Temp Press TotEng PotEng Enthalpy 
   62495    1854.7015    1322.3921   -55844.646   -60555.757   -55612.435 
   64000    1837.5425   -592.00925   -55977.235   -60644.761   -56081.105 
Loop time of 268.078 on 1 procs for 1505 steps with 19652 atoms

Performance: 0.485 ns/day, 49.479 hours/ns, 5.614 timesteps/s
99.0% CPU use with 1 MPI tasks x no OpenMP threads

MPI task timing breakdown:
Section |  min time  |  avg time  |  max time  |%varavg| %total
---------------------------------------------------------------
Pair    | 147.48     | 147.48     | 147.48     |   0.0 | 55.01
Neigh   | 116.25     | 116.25     | 116.25     |   0.0 | 43.36
Comm    | 1.63       | 1.63       | 1.63       |   0.0 |  0.61
Output  | 0.067257   | 0.067257   | 0.067257   |   0.0 |  0.03
Modify  | 2.0636     | 2.0636     | 2.0636     |   0.0 |  0.77
Other   |            | 0.5902     |            |       |  0.22

Nlocal:    19652 ave 19652 max 19652 min
Histogram: 1 0 0 0 0 0 0 0 0 0
Nghost:    19563 ave 19563 max 19563 min
Histogram: 1 0 0 0 0 0 0 0 0 0
Neighs:    1.74945e+06 ave 1.74945e+06 max 1.74945e+06 min
Histogram: 1 0 0 0 0 0 0 0 0 0

Total # of neighbors = 1749446
Ave neighs/atom = 89.0213
Neighbor list builds = 1505
Dangerous builds not checked
Setting up Verlet run ...
  Unit style    : metal
  Current step  : 64000
  Time step     : 0.001
Per MPI rank memory allocation (min/avg/max) = 19.34 | 19.34 | 19.34 Mbytes
Step Temp Press TotEng PotEng Enthalpy 
   64000    1837.5425   -592.00925   -55977.235   -60644.761   -56081.105 
   64495    1802.1064   -159.65233   -56131.505    -60709.02   -56159.444 
Loop time of 95.3833 on 1 procs for 495 steps with 19652 atoms

Performance: 0.448 ns/day, 53.526 hours/ns, 5.190 timesteps/s
99.4% CPU use with 1 MPI tasks x no OpenMP threads

MPI task timing breakdown:
Section |  min time  |  avg time  |  max time  |%varavg| %total
---------------------------------------------------------------
Pair    | 52.731     | 52.731     | 52.731     |   0.0 | 55.28
Neigh   | 41.114     | 41.114     | 41.114     |   0.0 | 43.10
Comm    | 0.57991    | 0.57991    | 0.57991    |   0.0 |  0.61
Output  | 0.00013685 | 0.00013685 | 0.00013685 |   0.0 |  0.00
Modify  | 0.74729    | 0.74729    | 0.74729    |   0.0 |  0.78
Other   |            | 0.2114     |            |       |  0.22

Nlocal:    19652 ave 19652 max 19652 min
Histogram: 1 0 0 0 0 0 0 0 0 0
Nghost:    19572 ave 19572 max 19572 min
Histogram: 1 0 0 0 0 0 0 0 0 0
Neighs:    1.75431e+06 ave 1.75431e+06 max 1.75431e+06 min
Histogram: 1 0 0 0 0 0 0 0 0 0

Total # of neighbors = 1754314
Ave neighs/atom = 89.269
Neighbor list builds = 495
Dangerous builds not checked
Setting up Verlet run ...
  Unit style    : metal
  Current step  : 64495
  Time step     : 0.001
Per MPI rank memory allocation (min/avg/max) = 19.34 | 19.34 | 19.34 Mbytes
Step Temp Press TotEng PotEng Enthalpy 
   64495    1802.1064   -159.65233   -56131.505    -60709.02   -56159.444 
   66000    1808.5488   -1001.9847   -56152.899   -60746.777   -56328.257 
Loop time of 289.568 on 1 procs for 1505 steps with 19652 atoms

Performance: 0.449 ns/day, 53.446 hours/ns, 5.197 timesteps/s
99.1% CPU use with 1 MPI tasks x no OpenMP threads

MPI task timing breakdown:
Section |  min time  |  avg time  |  max time  |%varavg| %total
---------------------------------------------------------------
Pair    | 161.25     | 161.25     | 161.25     |   0.0 | 55.69
Neigh   | 123.61     | 123.61     | 123.61     |   0.0 | 42.69
Comm    | 1.7605     | 1.7605     | 1.7605     |   0.0 |  0.61
Output  | 0.14224    | 0.14224    | 0.14224    |   0.0 |  0.05
Modify  | 2.1824     | 2.1824     | 2.1824     |   0.0 |  0.75
Other   |            | 0.6196     |            |       |  0.21

Nlocal:    19652 ave 19652 max 19652 min
Histogram: 1 0 0 0 0 0 0 0 0 0
Nghost:    19657 ave 19657 max 19657 min
Histogram: 1 0 0 0 0 0 0 0 0 0
Neighs:    1.7544e+06 ave 1.7544e+06 max 1.7544e+06 min
Histogram: 1 0 0 0 0 0 0 0 0 0

Total # of neighbors = 1754405
Ave neighs/atom = 89.2736
Neighbor list builds = 1505
Dangerous builds not checked
Setting up Verlet run ...
  Unit style    : metal
  Current step  : 66000
  Time step     : 0.001
Per MPI rank memory allocation (min/avg/max) = 19.34 | 19.34 | 19.34 Mbytes
Step Temp Press TotEng PotEng Enthalpy 
   66000    1808.5488   -1001.9847   -56152.899   -60746.777   -56328.257 
   66495    1771.6905   -732.71805   -56408.334   -60908.589   -56535.988 
Loop time of 86.1274 on 1 procs for 495 steps with 19652 atoms

Performance: 0.497 ns/day, 48.332 hours/ns, 5.747 timesteps/s
99.4% CPU use with 1 MPI tasks x no OpenMP threads

MPI task timing breakdown:
Section |  min time  |  avg time  |  max time  |%varavg| %total
---------------------------------------------------------------
Pair    | 47.065     | 47.065     | 47.065     |   0.0 | 54.65
Neigh   | 37.637     | 37.637     | 37.637     |   0.0 | 43.70
Comm    | 0.52905    | 0.52905    | 0.52905    |   0.0 |  0.61
Output  | 0.00015211 | 0.00015211 | 0.00015211 |   0.0 |  0.00
Modify  | 0.69823    | 0.69823    | 0.69823    |   0.0 |  0.81
Other   |            | 0.1979     |            |       |  0.23

Nlocal:    19652 ave 19652 max 19652 min
Histogram: 1 0 0 0 0 0 0 0 0 0
Nghost:    19607 ave 19607 max 19607 min
Histogram: 1 0 0 0 0 0 0 0 0 0
Neighs:    1.76189e+06 ave 1.76189e+06 max 1.76189e+06 min
Histogram: 1 0 0 0 0 0 0 0 0 0

Total # of neighbors = 1761892
Ave neighs/atom = 89.6546
Neighbor list builds = 495
Dangerous builds not checked
Setting up Verlet run ...
  Unit style    : metal
  Current step  : 66495
  Time step     : 0.001
Per MPI rank memory allocation (min/avg/max) = 19.34 | 19.34 | 19.34 Mbytes
Step Temp Press TotEng PotEng Enthalpy 
   66495    1771.6905   -732.71805   -56408.334   -60908.589   -56535.988 
   68000    1751.4468    -182.7827   -56527.719   -60976.553    -56559.47 
Loop time of 251.712 on 1 procs for 1505 steps with 19652 atoms

Performance: 0.517 ns/day, 46.459 hours/ns, 5.979 timesteps/s
96.7% CPU use with 1 MPI tasks x no OpenMP threads

MPI task timing breakdown:
Section |  min time  |  avg time  |  max time  |%varavg| %total
---------------------------------------------------------------
Pair    | 138.22     | 138.22     | 138.22     |   0.0 | 54.91
Neigh   | 109.31     | 109.31     | 109.31     |   0.0 | 43.43
Comm    | 1.518      | 1.518      | 1.518      |   0.0 |  0.60
Output  | 0.2146     | 0.2146     | 0.2146     |   0.0 |  0.09
Modify  | 1.9301     | 1.9301     | 1.9301     |   0.0 |  0.77
Other   |            | 0.5255     |            |       |  0.21

Nlocal:    19652 ave 19652 max 19652 min
Histogram: 1 0 0 0 0 0 0 0 0 0
Nghost:    19651 ave 19651 max 19651 min
Histogram: 1 0 0 0 0 0 0 0 0 0
Neighs:    1.76671e+06 ave 1.76671e+06 max 1.76671e+06 min
Histogram: 1 0 0 0 0 0 0 0 0 0

Total # of neighbors = 1766713
Ave neighs/atom = 89.8999
Neighbor list builds = 1505
Dangerous builds not checked
Setting up Verlet run ...
  Unit style    : metal
  Current step  : 68000
  Time step     : 0.001
Per MPI rank memory allocation (min/avg/max) = 19.34 | 19.34 | 19.34 Mbytes
Step Temp Press TotEng PotEng Enthalpy 
   68000    1751.4468    -182.7827   -56527.719   -60976.553    -56559.47 
   68495    1704.0592    1088.4755   -56723.664   -61052.129   -56535.219 
Loop time of 101.566 on 1 procs for 495 steps with 19652 atoms

Performance: 0.421 ns/day, 56.995 hours/ns, 4.874 timesteps/s
92.5% CPU use with 1 MPI tasks x no OpenMP threads

MPI task timing breakdown:
Section |  min time  |  avg time  |  max time  |%varavg| %total
---------------------------------------------------------------
Pair    | 56.529     | 56.529     | 56.529     |   0.0 | 55.66
Neigh   | 43.401     | 43.401     | 43.401     |   0.0 | 42.73
Comm    | 0.63779    | 0.63779    | 0.63779    |   0.0 |  0.63
Output  | 0.000144   | 0.000144   | 0.000144   |   0.0 |  0.00
Modify  | 0.77662    | 0.77662    | 0.77662    |   0.0 |  0.76
Other   |            | 0.2209     |            |       |  0.22

Nlocal:    19652 ave 19652 max 19652 min
Histogram: 1 0 0 0 0 0 0 0 0 0
Nghost:    19647 ave 19647 max 19647 min
Histogram: 1 0 0 0 0 0 0 0 0 0
Neighs:    1.7736e+06 ave 1.7736e+06 max 1.7736e+06 min
Histogram: 1 0 0 0 0 0 0 0 0 0

Total # of neighbors = 1773603
Ave neighs/atom = 90.2505
Neighbor list builds = 495
Dangerous builds not checked
Setting up Verlet run ...
  Unit style    : metal
  Current step  : 68495
  Time step     : 0.001
Per MPI rank memory allocation (min/avg/max) = 19.34 | 19.34 | 19.34 Mbytes
Step Temp Press TotEng PotEng Enthalpy 
   68495    1704.0592    1088.4755   -56723.664   -61052.129   -56535.219 
   70000    1702.9968    1770.5338   -56811.018   -61136.785   -56505.514 
Loop time of 288.393 on 1 procs for 1505 steps with 19652 atoms

Performance: 0.451 ns/day, 53.229 hours/ns, 5.219 timesteps/s
95.5% CPU use with 1 MPI tasks x no OpenMP threads

MPI task timing breakdown:
Section |  min time  |  avg time  |  max time  |%varavg| %total
---------------------------------------------------------------
Pair    | 160.13     | 160.13     | 160.13     |   0.0 | 55.52
Neigh   | 123.65     | 123.65     | 123.65     |   0.0 | 42.87
Comm    | 1.717      | 1.717      | 1.717      |   0.0 |  0.60
Output  | 0.091674   | 0.091674   | 0.091674   |   0.0 |  0.03
Modify  | 2.2028     | 2.2028     | 2.2028     |   0.0 |  0.76
Other   |            | 0.6039     |            |       |  0.21

Nlocal:    19652 ave 19652 max 19652 min
Histogram: 1 0 0 0 0 0 0 0 0 0
Nghost:    19802 ave 19802 max 19802 min
Histogram: 1 0 0 0 0 0 0 0 0 0
Neighs:    1.77859e+06 ave 1.77859e+06 max 1.77859e+06 min
Histogram: 1 0 0 0 0 0 0 0 0 0

Total # of neighbors = 1778587
Ave neighs/atom = 90.5041
Neighbor list builds = 1505
Dangerous builds not checked
Setting up Verlet run ...
  Unit style    : metal
  Current step  : 70000
  Time step     : 0.001
Per MPI rank memory allocation (min/avg/max) = 19.34 | 19.34 | 19.34 Mbytes
Step Temp Press TotEng PotEng Enthalpy 
   70000    1702.9968    1770.5338   -56811.018   -61136.785   -56505.514 
   70495    1653.0933    2650.0134   -57019.358   -61218.366   -56563.544 
Loop time of 101.165 on 1 procs for 495 steps with 19652 atoms

Performance: 0.423 ns/day, 56.771 hours/ns, 4.893 timesteps/s
99.1% CPU use with 1 MPI tasks x no OpenMP threads

MPI task timing breakdown:
Section |  min time  |  avg time  |  max time  |%varavg| %total
---------------------------------------------------------------
Pair    | 56.96      | 56.96      | 56.96      |   0.0 | 56.30
Neigh   | 42.527     | 42.527     | 42.527     |   0.0 | 42.04
Comm    | 0.65894    | 0.65894    | 0.65894    |   0.0 |  0.65
Output  | 0.00016403 | 0.00016403 | 0.00016403 |   0.0 |  0.00
Modify  | 0.79587    | 0.79587    | 0.79587    |   0.0 |  0.79
Other   |            | 0.224      |            |       |  0.22

Nlocal:    19652 ave 19652 max 19652 min
Histogram: 1 0 0 0 0 0 0 0 0 0
Nghost:    19772 ave 19772 max 19772 min
Histogram: 1 0 0 0 0 0 0 0 0 0
Neighs:    1.78383e+06 ave 1.78383e+06 max 1.78383e+06 min
Histogram: 1 0 0 0 0 0 0 0 0 0

Total # of neighbors = 1783826
Ave neighs/atom = 90.7707
Neighbor list builds = 495
Dangerous builds not checked
Setting up Verlet run ...
  Unit style    : metal
  Current step  : 70495
  Time step     : 0.001
Per MPI rank memory allocation (min/avg/max) = 19.34 | 19.34 | 19.34 Mbytes
Step Temp Press TotEng PotEng Enthalpy 
   70495    1653.0933    2650.0134   -57019.358   -61218.366   -56563.544 
   72000    1634.2411   -459.78019   -57149.552   -61300.673   -57228.707 
Loop time of 254.838 on 1 procs for 1505 steps with 19652 atoms

Performance: 0.510 ns/day, 47.035 hours/ns, 5.906 timesteps/s
97.2% CPU use with 1 MPI tasks x no OpenMP threads

MPI task timing breakdown:
Section |  min time  |  avg time  |  max time  |%varavg| %total
---------------------------------------------------------------
Pair    | 141.1      | 141.1      | 141.1      |   0.0 | 55.37
Neigh   | 109.61     | 109.61     | 109.61     |   0.0 | 43.01
Comm    | 1.5574     | 1.5574     | 1.5574     |   0.0 |  0.61
Output  | 0.094482   | 0.094482   | 0.094482   |   0.0 |  0.04
Modify  | 1.9427     | 1.9427     | 1.9427     |   0.0 |  0.76
Other   |            | 0.5285     |            |       |  0.21

Nlocal:    19652 ave 19652 max 19652 min
Histogram: 1 0 0 0 0 0 0 0 0 0
Nghost:    19729 ave 19729 max 19729 min
Histogram: 1 0 0 0 0 0 0 0 0 0
Neighs:    1.78204e+06 ave 1.78204e+06 max 1.78204e+06 min
Histogram: 1 0 0 0 0 0 0 0 0 0

Total # of neighbors = 1782041
Ave neighs/atom = 90.6799
Neighbor list builds = 1505
Dangerous builds not checked
Setting up Verlet run ...
  Unit style    : metal
  Current step  : 72000
  Time step     : 0.001
Per MPI rank memory allocation (min/avg/max) = 19.34 | 19.34 | 19.34 Mbytes
Step Temp Press TotEng PotEng Enthalpy 
   72000    1634.2411   -459.78019   -57149.552   -61300.673   -57228.707 
   72495    1601.5432    520.75059   -57320.542   -61388.607   -57231.218 
Loop time of 86.6488 on 1 procs for 495 steps with 19652 atoms

Performance: 0.494 ns/day, 48.624 hours/ns, 5.713 timesteps/s
99.7% CPU use with 1 MPI tasks x no OpenMP threads

MPI task timing breakdown:
Section |  min time  |  avg time  |  max time  |%varavg| %total
---------------------------------------------------------------
Pair    | 47.858     | 47.858     | 47.858     |   0.0 | 55.23
Neigh   | 37.374     | 37.374     | 37.374     |   0.0 | 43.13
Comm    | 0.53367    | 0.53367    | 0.53367    |   0.0 |  0.62
Output  | 0.00016189 | 0.00016189 | 0.00016189 |   0.0 |  0.00
Modify  | 0.68492    | 0.68492    | 0.68492    |   0.0 |  0.79
Other   |            | 0.1977     |            |       |  0.23

Nlocal:    19652 ave 19652 max 19652 min
Histogram: 1 0 0 0 0 0 0 0 0 0
Nghost:    19741 ave 19741 max 19741 min
Histogram: 1 0 0 0 0 0 0 0 0 0
Neighs:    1.78893e+06 ave 1.78893e+06 max 1.78893e+06 min
Histogram: 1 0 0 0 0 0 0 0 0 0

Total # of neighbors = 1788929
Ave neighs/atom = 91.0304
Neighbor list builds = 495
Dangerous builds not checked
Setting up Verlet run ...
  Unit style    : metal
  Current step  : 72495
  Time step     : 0.001
Per MPI rank memory allocation (min/avg/max) = 19.34 | 19.34 | 19.34 Mbytes
Step Temp Press TotEng PotEng Enthalpy 
   72495    1601.5432    520.75059   -57320.542   -61388.607   -57231.218 
   74000    1586.9785   -709.68011   -57444.147   -61475.217   -57565.738 
Loop time of 319.994 on 1 procs for 1505 steps with 19652 atoms

Performance: 0.406 ns/day, 59.061 hours/ns, 4.703 timesteps/s
94.1% CPU use with 1 MPI tasks x no OpenMP threads

MPI task timing breakdown:
Section |  min time  |  avg time  |  max time  |%varavg| %total
---------------------------------------------------------------
Pair    | 178.04     | 178.04     | 178.04     |   0.0 | 55.64
Neigh   | 134.54     | 134.54     | 134.54     |   0.0 | 42.04
Comm    | 1.8864     | 1.8864     | 1.8864     |   0.0 |  0.59
Output  | 2.3851     | 2.3851     | 2.3851     |   0.0 |  0.75
Modify  | 2.4618     | 2.4618     | 2.4618     |   0.0 |  0.77
Other   |            | 0.686      |            |       |  0.21

Nlocal:    19652 ave 19652 max 19652 min
Histogram: 1 0 0 0 0 0 0 0 0 0
Nghost:    19754 ave 19754 max 19754 min
Histogram: 1 0 0 0 0 0 0 0 0 0
Neighs:    1.79097e+06 ave 1.79097e+06 max 1.79097e+06 min
Histogram: 1 0 0 0 0 0 0 0 0 0

Total # of neighbors = 1790969
Ave neighs/atom = 91.1342
Neighbor list builds = 1505
Dangerous builds not checked
Setting up Verlet run ...
  Unit style    : metal
  Current step  : 74000
  Time step     : 0.001
Per MPI rank memory allocation (min/avg/max) = 19.34 | 19.34 | 19.34 Mbytes
Step Temp Press TotEng PotEng Enthalpy 
   74000    1586.9785   -709.68011   -57444.147   -61475.217   -57565.738 
   74495    1551.1912    1298.6693   -57628.908   -61569.075   -57407.398 
Loop time of 88.3922 on 1 procs for 495 steps with 19652 atoms

Performance: 0.484 ns/day, 49.603 hours/ns, 5.600 timesteps/s
95.4% CPU use with 1 MPI tasks x no OpenMP threads

MPI task timing breakdown:
Section |  min time  |  avg time  |  max time  |%varavg| %total
---------------------------------------------------------------
Pair    | 48.957     | 48.957     | 48.957     |   0.0 | 55.39
Neigh   | 38.056     | 38.056     | 38.056     |   0.0 | 43.05
Comm    | 0.52828    | 0.52828    | 0.52828    |   0.0 |  0.60
Output  | 0.00012302 | 0.00012302 | 0.00012302 |   0.0 |  0.00
Modify  | 0.65406    | 0.65406    | 0.65406    |   0.0 |  0.74
Other   |            | 0.196      |            |       |  0.22

Nlocal:    19652 ave 19652 max 19652 min
Histogram: 1 0 0 0 0 0 0 0 0 0
Nghost:    19858 ave 19858 max 19858 min
Histogram: 1 0 0 0 0 0 0 0 0 0
Neighs:    1.79801e+06 ave 1.79801e+06 max 1.79801e+06 min
Histogram: 1 0 0 0 0 0 0 0 0 0

Total # of neighbors = 1798009
Ave neighs/atom = 91.4924
Neighbor list builds = 495
Dangerous builds not checked
Setting up Verlet run ...
  Unit style    : metal
  Current step  : 74495
  Time step     : 0.001
Per MPI rank memory allocation (min/avg/max) = 19.34 | 19.34 | 19.34 Mbytes
Step Temp Press TotEng PotEng Enthalpy 
   74495    1551.1912    1298.6693   -57628.908   -61569.075   -57407.398 
   76000    1547.8022   -927.12667   -57722.428   -61653.987   -57880.504 
Loop time of 264.466 on 1 procs for 1505 steps with 19652 atoms

Performance: 0.492 ns/day, 48.812 hours/ns, 5.691 timesteps/s
97.4% CPU use with 1 MPI tasks x no OpenMP threads

MPI task timing breakdown:
Section |  min time  |  avg time  |  max time  |%varavg| %total
---------------------------------------------------------------
Pair    | 146.56     | 146.56     | 146.56     |   0.0 | 55.42
Neigh   | 113.44     | 113.44     | 113.44     |   0.0 | 42.90
Comm    | 1.6663     | 1.6663     | 1.6663     |   0.0 |  0.63
Output  | 0.21203    | 0.21203    | 0.21203    |   0.0 |  0.08
Modify  | 2.0141     | 2.0141     | 2.0141     |   0.0 |  0.76
Other   |            | 0.5713     |            |       |  0.22

Nlocal:    19652 ave 19652 max 19652 min
Histogram: 1 0 0 0 0 0 0 0 0 0
Nghost:    19881 ave 19881 max 19881 min
Histogram: 1 0 0 0 0 0 0 0 0 0
Neighs:    1.79857e+06 ave 1.79857e+06 max 1.79857e+06 min
Histogram: 1 0 0 0 0 0 0 0 0 0

Total # of neighbors = 1798571
Ave neighs/atom = 91.521
Neighbor list builds = 1505
Dangerous builds not checked
Setting up Verlet run ...
  Unit style    : metal
  Current step  : 76000
  Time step     : 0.001
Per MPI rank memory allocation (min/avg/max) = 19.34 | 19.34 | 19.34 Mbytes
Step Temp Press TotEng PotEng Enthalpy 
   76000    1547.8022   -927.12667   -57722.428   -61653.987   -57880.504 
   76495    1506.6075   -1179.6715   -57925.446   -61752.366   -58126.074 
Loop time of 91.8505 on 1 procs for 495 steps with 19652 atoms

Performance: 0.466 ns/day, 51.543 hours/ns, 5.389 timesteps/s
97.8% CPU use with 1 MPI tasks x no OpenMP threads

MPI task timing breakdown:
Section |  min time  |  avg time  |  max time  |%varavg| %total
---------------------------------------------------------------
Pair    | 50.989     | 50.989     | 50.989     |   0.0 | 55.51
Neigh   | 39.42      | 39.42      | 39.42      |   0.0 | 42.92
Comm    | 0.53454    | 0.53454    | 0.53454    |   0.0 |  0.58
Output  | 0.00013494 | 0.00013494 | 0.00013494 |   0.0 |  0.00
Modify  | 0.7181     | 0.7181     | 0.7181     |   0.0 |  0.78
Other   |            | 0.1895     |            |       |  0.21

Nlocal:    19652 ave 19652 max 19652 min
Histogram: 1 0 0 0 0 0 0 0 0 0
Nghost:    19906 ave 19906 max 19906 min
Histogram: 1 0 0 0 0 0 0 0 0 0
Neighs:    1.80304e+06 ave 1.80304e+06 max 1.80304e+06 min
Histogram: 1 0 0 0 0 0 0 0 0 0

Total # of neighbors = 1803036
Ave neighs/atom = 91.7482
Neighbor list builds = 495
Dangerous builds not checked
Setting up Verlet run ...
  Unit style    : metal
  Current step  : 76495
  Time step     : 0.001
Per MPI rank memory allocation (min/avg/max) = 19.34 | 19.34 | 19.34 Mbytes
Step Temp Press TotEng PotEng Enthalpy 
   76495    1506.6075   -1179.6715   -57925.446   -61752.366   -58126.074 
   78000    1499.2014   -1594.9304   -58062.319   -61870.427    -58332.88 
Loop time of 255.291 on 1 procs for 1505 steps with 19652 atoms

Performance: 0.509 ns/day, 47.119 hours/ns, 5.895 timesteps/s
98.4% CPU use with 1 MPI tasks x no OpenMP threads

MPI task timing breakdown:
Section |  min time  |  avg time  |  max time  |%varavg| %total
---------------------------------------------------------------
Pair    | 141.3      | 141.3      | 141.3      |   0.0 | 55.35
Neigh   | 109.38     | 109.38     | 109.38     |   0.0 | 42.85
Comm    | 1.5124     | 1.5124     | 1.5124     |   0.0 |  0.59
Output  | 0.62793    | 0.62793    | 0.62793    |   0.0 |  0.25
Modify  | 1.9244     | 1.9244     | 1.9244     |   0.0 |  0.75
Other   |            | 0.5397     |            |       |  0.21

Nlocal:    19652 ave 19652 max 19652 min
Histogram: 1 0 0 0 0 0 0 0 0 0
Nghost:    19887 ave 19887 max 19887 min
Histogram: 1 0 0 0 0 0 0 0 0 0
Neighs:    1.80735e+06 ave 1.80735e+06 max 1.80735e+06 min
Histogram: 1 0 0 0 0 0 0 0 0 0

Total # of neighbors = 1807350
Ave neighs/atom = 91.9677
Neighbor list builds = 1505
Dangerous builds not checked
Setting up Verlet run ...
  Unit style    : metal
  Current step  : 78000
  Time step     : 0.001
Per MPI rank memory allocation (min/avg/max) = 19.34 | 19.34 | 19.34 Mbytes
Step Temp Press TotEng PotEng Enthalpy 
   78000    1499.2014   -1594.9304   -58062.319   -61870.427    -58332.88 
   78495    1462.8285    363.46503   -58246.859   -61962.576   -58185.468 
Loop time of 89.6391 on 1 procs for 495 steps with 19652 atoms

Performance: 0.477 ns/day, 50.303 hours/ns, 5.522 timesteps/s
96.3% CPU use with 1 MPI tasks x no OpenMP threads

MPI task timing breakdown:
Section |  min time  |  avg time  |  max time  |%varavg| %total
---------------------------------------------------------------
Pair    | 49.89      | 49.89      | 49.89      |   0.0 | 55.66
Neigh   | 38.327     | 38.327     | 38.327     |   0.0 | 42.76
Comm    | 0.51974    | 0.51974    | 0.51974    |   0.0 |  0.58
Output  | 0.00011802 | 0.00011802 | 0.00011802 |   0.0 |  0.00
Modify  | 0.70331    | 0.70331    | 0.70331    |   0.0 |  0.78
Other   |            | 0.1998     |            |       |  0.22

Nlocal:    19652 ave 19652 max 19652 min
Histogram: 1 0 0 0 0 0 0 0 0 0
Nghost:    19923 ave 19923 max 19923 min
Histogram: 1 0 0 0 0 0 0 0 0 0
Neighs:    1.81503e+06 ave 1.81503e+06 max 1.81503e+06 min
Histogram: 1 0 0 0 0 0 0 0 0 0

Total # of neighbors = 1815030
Ave neighs/atom = 92.3585
Neighbor list builds = 495
Dangerous builds not checked
Setting up Verlet run ...
  Unit style    : metal
  Current step  : 78495
  Time step     : 0.001
Per MPI rank memory allocation (min/avg/max) = 19.34 | 19.34 | 19.34 Mbytes
Step Temp Press TotEng PotEng Enthalpy 
   78495    1462.8285    363.46503   -58246.859   -61962.576   -58185.468 
   80000    1448.0138   -2083.4278   -58353.545   -62031.632   -58705.606 
Loop time of 288.969 on 1 procs for 1505 steps with 19652 atoms

Performance: 0.450 ns/day, 53.335 hours/ns, 5.208 timesteps/s
99.2% CPU use with 1 MPI tasks x no OpenMP threads

MPI task timing breakdown:
Section |  min time  |  avg time  |  max time  |%varavg| %total
---------------------------------------------------------------
Pair    | 160.65     | 160.65     | 160.65     |   0.0 | 55.59
Neigh   | 123.59     | 123.59     | 123.59     |   0.0 | 42.77
Comm    | 1.7278     | 1.7278     | 1.7278     |   0.0 |  0.60
Output  | 0.17113    | 0.17113    | 0.17113    |   0.0 |  0.06
Modify  | 2.2357     | 2.2357     | 2.2357     |   0.0 |  0.77
Other   |            | 0.5991     |            |       |  0.21

Nlocal:    19652 ave 19652 max 19652 min
Histogram: 1 0 0 0 0 0 0 0 0 0
Nghost:    19993 ave 19993 max 19993 min
Histogram: 1 0 0 0 0 0 0 0 0 0
Neighs:    1.81408e+06 ave 1.81408e+06 max 1.81408e+06 min
Histogram: 1 0 0 0 0 0 0 0 0 0

Total # of neighbors = 1814076
Ave neighs/atom = 92.31
Neighbor list builds = 1505
Dangerous builds not checked
Setting up Verlet run ...
  Unit style    : metal
  Current step  : 80000
  Time step     : 0.001
Per MPI rank memory allocation (min/avg/max) = 19.34 | 19.34 | 19.34 Mbytes
Step Temp Press TotEng PotEng Enthalpy 
   80000    1448.0138   -2083.4278   -58353.545   -62031.632   -58705.606 
   80495    1416.4032   -1372.2901   -58556.785   -62154.578   -58787.794 
Loop time of 87.778 on 1 procs for 495 steps with 19652 atoms

Performance: 0.487 ns/day, 49.258 hours/ns, 5.639 timesteps/s
97.9% CPU use with 1 MPI tasks x no OpenMP threads

MPI task timing breakdown:
Section |  min time  |  avg time  |  max time  |%varavg| %total
---------------------------------------------------------------
Pair    | 48.7       | 48.7       | 48.7       |   0.0 | 55.48
Neigh   | 37.662     | 37.662     | 37.662     |   0.0 | 42.91
Comm    | 0.53881    | 0.53881    | 0.53881    |   0.0 |  0.61
Output  | 0.00016499 | 0.00016499 | 0.00016499 |   0.0 |  0.00
Modify  | 0.68773    | 0.68773    | 0.68773    |   0.0 |  0.78
Other   |            | 0.1892     |            |       |  0.22

Nlocal:    19652 ave 19652 max 19652 min
Histogram: 1 0 0 0 0 0 0 0 0 0
Nghost:    19977 ave 19977 max 19977 min
Histogram: 1 0 0 0 0 0 0 0 0 0
Neighs:    1.82018e+06 ave 1.82018e+06 max 1.82018e+06 min
Histogram: 1 0 0 0 0 0 0 0 0 0

Total # of neighbors = 1820179
Ave neighs/atom = 92.6205
Neighbor list builds = 495
Dangerous builds not checked
Setting up Verlet run ...
  Unit style    : metal
  Current step  : 80495
  Time step     : 0.001
Per MPI rank memory allocation (min/avg/max) = 19.34 | 19.34 | 19.34 Mbytes
Step Temp Press TotEng PotEng Enthalpy 
   80495    1416.4032   -1372.2901   -58556.785   -62154.578   -58787.794 
   82000    1397.1602    353.55573    -58708.24   -62257.154   -58648.996 
Loop time of 286.1 on 1 procs for 1505 steps with 19652 atoms

Performance: 0.454 ns/day, 52.805 hours/ns, 5.260 timesteps/s
98.9% CPU use with 1 MPI tasks x no OpenMP threads

MPI task timing breakdown:
Section |  min time  |  avg time  |  max time  |%varavg| %total
---------------------------------------------------------------
Pair    | 158.62     | 158.62     | 158.62     |   0.0 | 55.44
Neigh   | 122.09     | 122.09     | 122.09     |   0.0 | 42.67
Comm    | 1.7198     | 1.7198     | 1.7198     |   0.0 |  0.60
Output  | 0.83063    | 0.83063    | 0.83063    |   0.0 |  0.29
Modify  | 2.2382     | 2.2382     | 2.2382     |   0.0 |  0.78
Other   |            | 0.6012     |            |       |  0.21

Nlocal:    19652 ave 19652 max 19652 min
Histogram: 1 0 0 0 0 0 0 0 0 0
Nghost:    20070 ave 20070 max 20070 min
Histogram: 1 0 0 0 0 0 0 0 0 0
Neighs:    1.82942e+06 ave 1.82942e+06 max 1.82942e+06 min
Histogram: 1 0 0 0 0 0 0 0 0 0

Total # of neighbors = 1829416
Ave neighs/atom = 93.0906
Neighbor list builds = 1505
Dangerous builds not checked
Setting up Verlet run ...
  Unit style    : metal
  Current step  : 82000
  Time step     : 0.001
Per MPI rank memory allocation (min/avg/max) = 19.34 | 19.34 | 19.34 Mbytes
Step Temp Press TotEng PotEng Enthalpy 
   82000    1397.1602    353.55573    -58708.24   -62257.154   -58648.996 
   82495    1369.7445    824.94063   -58862.296   -62341.572   -58724.481 
Loop time of 91.9947 on 1 procs for 495 steps with 19652 atoms

Performance: 0.465 ns/day, 51.624 hours/ns, 5.381 timesteps/s
94.3% CPU use with 1 MPI tasks x no OpenMP threads

MPI task timing breakdown:
Section |  min time  |  avg time  |  max time  |%varavg| %total
---------------------------------------------------------------
Pair    | 51.446     | 51.446     | 51.446     |   0.0 | 55.92
Neigh   | 39.112     | 39.112     | 39.112     |   0.0 | 42.52
Comm    | 0.55671    | 0.55671    | 0.55671    |   0.0 |  0.61
Output  | 0.00018501 | 0.00018501 | 0.00018501 |   0.0 |  0.00
Modify  | 0.67737    | 0.67737    | 0.67737    |   0.0 |  0.74
Other   |            | 0.2018     |            |       |  0.22

Nlocal:    19652 ave 19652 max 19652 min
Histogram: 1 0 0 0 0 0 0 0 0 0
Nghost:    20027 ave 20027 max 20027 min
Histogram: 1 0 0 0 0 0 0 0 0 0
Neighs:    1.83461e+06 ave 1.83461e+06 max 1.83461e+06 min
Histogram: 1 0 0 0 0 0 0 0 0 0

Total # of neighbors = 1834614
Ave neighs/atom = 93.3551
Neighbor list builds = 495
Dangerous builds not checked
Setting up Verlet run ...
  Unit style    : metal
  Current step  : 82495
  Time step     : 0.001
Per MPI rank memory allocation (min/avg/max) = 19.34 | 19.34 | 19.34 Mbytes
Step Temp Press TotEng PotEng Enthalpy 
   82495    1369.7445    824.94063   -58862.296   -62341.572   -58724.481 
   84000    1361.3496    595.91322   -58954.844   -62412.796   -58855.464 
Loop time of 300.777 on 1 procs for 1505 steps with 19652 atoms

Performance: 0.432 ns/day, 55.514 hours/ns, 5.004 timesteps/s
96.8% CPU use with 1 MPI tasks x no OpenMP threads

MPI task timing breakdown:
Section |  min time  |  avg time  |  max time  |%varavg| %total
---------------------------------------------------------------
Pair    | 169.31     | 169.31     | 169.31     |   0.0 | 56.29
Neigh   | 126.61     | 126.61     | 126.61     |   0.0 | 42.09
Comm    | 1.8262     | 1.8262     | 1.8262     |   0.0 |  0.61
Output  | 0.083302   | 0.083302   | 0.083302   |   0.0 |  0.03
Modify  | 2.3307     | 2.3307     | 2.3307     |   0.0 |  0.77
Other   |            | 0.6234     |            |       |  0.21

Nlocal:    19652 ave 19652 max 19652 min
Histogram: 1 0 0 0 0 0 0 0 0 0
Nghost:    20016 ave 20016 max 20016 min
Histogram: 1 0 0 0 0 0 0 0 0 0
Neighs:    1.83687e+06 ave 1.83687e+06 max 1.83687e+06 min
Histogram: 1 0 0 0 0 0 0 0 0 0

Total # of neighbors = 1836870
Ave neighs/atom = 93.4699
Neighbor list builds = 1505
Dangerous builds not checked
Setting up Verlet run ...
  Unit style    : metal
  Current step  : 84000
  Time step     : 0.001
Per MPI rank memory allocation (min/avg/max) = 19.34 | 19.34 | 19.34 Mbytes
Step Temp Press TotEng PotEng Enthalpy 
   84000    1361.3496    595.91322   -58954.844   -62412.796   -58855.464 
   84495    1326.1218   -590.30972   -59176.126   -62544.597   -59274.362 
Loop time of 100.188 on 1 procs for 495 steps with 19652 atoms

Performance: 0.427 ns/day, 56.222 hours/ns, 4.941 timesteps/s
95.8% CPU use with 1 MPI tasks x no OpenMP threads

MPI task timing breakdown:
Section |  min time  |  avg time  |  max time  |%varavg| %total
---------------------------------------------------------------
Pair    | 56.348     | 56.348     | 56.348     |   0.0 | 56.24
Neigh   | 42.241     | 42.241     | 42.241     |   0.0 | 42.16
Comm    | 0.59088    | 0.59088    | 0.59088    |   0.0 |  0.59
Output  | 0.00011611 | 0.00011611 | 0.00011611 |   0.0 |  0.00
Modify  | 0.80763    | 0.80763    | 0.80763    |   0.0 |  0.81
Other   |            | 0.2011     |            |       |  0.20

Nlocal:    19652 ave 19652 max 19652 min
Histogram: 1 0 0 0 0 0 0 0 0 0
Nghost:    20105 ave 20105 max 20105 min
Histogram: 1 0 0 0 0 0 0 0 0 0
Neighs:    1.84078e+06 ave 1.84078e+06 max 1.84078e+06 min
Histogram: 1 0 0 0 0 0 0 0 0 0

Total # of neighbors = 1840781
Ave neighs/atom = 93.6689
Neighbor list builds = 495
Dangerous builds not checked
Setting up Verlet run ...
  Unit style    : metal
  Current step  : 84495
  Time step     : 0.001
Per MPI rank memory allocation (min/avg/max) = 19.34 | 19.34 | 19.34 Mbytes
Step Temp Press TotEng PotEng Enthalpy 
   84495    1326.1218   -590.30972   -59176.126   -62544.597   -59274.362 
   86000    1306.3729    91.064632   -59296.304    -62614.61   -59281.184 
Loop time of 242.762 on 1 procs for 1505 steps with 19652 atoms

Performance: 0.536 ns/day, 44.807 hours/ns, 6.199 timesteps/s
96.4% CPU use with 1 MPI tasks x no OpenMP threads

MPI task timing breakdown:
Section |  min time  |  avg time  |  max time  |%varavg| %total
---------------------------------------------------------------
Pair    | 134.4      | 134.4      | 134.4      |   0.0 | 55.36
Neigh   | 104.5      | 104.5      | 104.5      |   0.0 | 43.05
Comm    | 1.4721     | 1.4721     | 1.4721     |   0.0 |  0.61
Output  | 0.056056   | 0.056056   | 0.056056   |   0.0 |  0.02
Modify  | 1.7994     | 1.7994     | 1.7994     |   0.0 |  0.74
Other   |            | 0.5351     |            |       |  0.22

Nlocal:    19652 ave 19652 max 19652 min
Histogram: 1 0 0 0 0 0 0 0 0 0
Nghost:    20067 ave 20067 max 20067 min
Histogram: 1 0 0 0 0 0 0 0 0 0
Neighs:    1.84504e+06 ave 1.84504e+06 max 1.84504e+06 min
Histogram: 1 0 0 0 0 0 0 0 0 0

Total # of neighbors = 1845036
Ave neighs/atom = 93.8854
Neighbor list builds = 1505
Dangerous builds not checked
Setting up Verlet run ...
  Unit style    : metal
  Current step  : 86000
  Time step     : 0.001
Per MPI rank memory allocation (min/avg/max) = 19.34 | 19.34 | 19.34 Mbytes
Step Temp Press TotEng PotEng Enthalpy 
   86000    1306.3729    91.064632   -59296.304    -62614.61   -59281.184 
   86495    1270.7455    236.32782    -59503.95   -62731.759   -59464.835 
Loop time of 83.8343 on 1 procs for 495 steps with 19652 atoms

Performance: 0.510 ns/day, 47.045 hours/ns, 5.905 timesteps/s
99.5% CPU use with 1 MPI tasks x no OpenMP threads

MPI task timing breakdown:
Section |  min time  |  avg time  |  max time  |%varavg| %total
---------------------------------------------------------------
Pair    | 46.628     | 46.628     | 46.628     |   0.0 | 55.62
Neigh   | 35.892     | 35.892     | 35.892     |   0.0 | 42.81
Comm    | 0.48917    | 0.48917    | 0.48917    |   0.0 |  0.58
Output  | 0.00014591 | 0.00014591 | 0.00014591 |   0.0 |  0.00
Modify  | 0.64675    | 0.64675    | 0.64675    |   0.0 |  0.77
Other   |            | 0.1777     |            |       |  0.21

Nlocal:    19652 ave 19652 max 19652 min
Histogram: 1 0 0 0 0 0 0 0 0 0
Nghost:    19994 ave 19994 max 19994 min
Histogram: 1 0 0 0 0 0 0 0 0 0
Neighs:    1.85074e+06 ave 1.85074e+06 max 1.85074e+06 min
Histogram: 1 0 0 0 0 0 0 0 0 0

Total # of neighbors = 1850744
Ave neighs/atom = 94.1759
Neighbor list builds = 495
Dangerous builds not checked
Setting up Verlet run ...
  Unit style    : metal
  Current step  : 86495
  Time step     : 0.001
Per MPI rank memory allocation (min/avg/max) = 19.34 | 19.34 | 19.34 Mbytes
Step Temp Press TotEng PotEng Enthalpy 
   86495    1270.7455    236.32782    -59503.95   -62731.759   -59464.835 
   88000    1260.1572    -389.8855   -59605.379   -62806.293   -59669.853 
Loop time of 262.72 on 1 procs for 1505 steps with 19652 atoms

Performance: 0.495 ns/day, 48.490 hours/ns, 5.729 timesteps/s
99.9% CPU use with 1 MPI tasks x no OpenMP threads

MPI task timing breakdown:
Section |  min time  |  avg time  |  max time  |%varavg| %total
---------------------------------------------------------------
Pair    | 146.53     | 146.53     | 146.53     |   0.0 | 55.78
Neigh   | 111.99     | 111.99     | 111.99     |   0.0 | 42.63
Comm    | 1.5618     | 1.5618     | 1.5618     |   0.0 |  0.59
Output  | 0.10066    | 0.10066    | 0.10066    |   0.0 |  0.04
Modify  | 1.9986     | 1.9986     | 1.9986     |   0.0 |  0.76
Other   |            | 0.5342     |            |       |  0.20

Nlocal:    19652 ave 19652 max 19652 min
Histogram: 1 0 0 0 0 0 0 0 0 0
Nghost:    20046 ave 20046 max 20046 min
Histogram: 1 0 0 0 0 0 0 0 0 0
Neighs:    1.85128e+06 ave 1.85128e+06 max 1.85128e+06 min
Histogram: 1 0 0 0 0 0 0 0 0 0

Total # of neighbors = 1851280
Ave neighs/atom = 94.2031
Neighbor list builds = 1505
Dangerous builds not checked
Setting up Verlet run ...
  Unit style    : metal
  Current step  : 88000
  Time step     : 0.001
Per MPI rank memory allocation (min/avg/max) = 19.34 | 19.34 | 19.34 Mbytes
Step Temp Press TotEng PotEng Enthalpy 
   88000    1260.1572    -389.8855   -59605.379   -62806.293   -59669.853 
   88495    1210.7997   -962.56069   -59832.778    -62908.32   -59991.508 
Loop time of 86.6783 on 1 procs for 495 steps with 19652 atoms

Performance: 0.493 ns/day, 48.641 hours/ns, 5.711 timesteps/s
99.9% CPU use with 1 MPI tasks x no OpenMP threads

MPI task timing breakdown:
Section |  min time  |  avg time  |  max time  |%varavg| %total
---------------------------------------------------------------
Pair    | 48.44      | 48.44      | 48.44      |   0.0 | 55.88
Neigh   | 36.884     | 36.884     | 36.884     |   0.0 | 42.55
Comm    | 0.50493    | 0.50493    | 0.50493    |   0.0 |  0.58
Output  | 0.00013399 | 0.00013399 | 0.00013399 |   0.0 |  0.00
Modify  | 0.66961    | 0.66961    | 0.66961    |   0.0 |  0.77
Other   |            | 0.1791     |            |       |  0.21

Nlocal:    19652 ave 19652 max 19652 min
Histogram: 1 0 0 0 0 0 0 0 0 0
Nghost:    20062 ave 20062 max 20062 min
Histogram: 1 0 0 0 0 0 0 0 0 0
Neighs:    1.85628e+06 ave 1.85628e+06 max 1.85628e+06 min
Histogram: 1 0 0 0 0 0 0 0 0 0

Total # of neighbors = 1856279
Ave neighs/atom = 94.4575
Neighbor list builds = 495
Dangerous builds not checked
Setting up Verlet run ...
  Unit style    : metal
  Current step  : 88495
  Time step     : 0.001
Per MPI rank memory allocation (min/avg/max) = 19.34 | 19.34 | 19.34 Mbytes
Step Temp Press TotEng PotEng Enthalpy 
   88495    1210.7997   -962.56069   -59832.778    -62908.32   -59991.508 
   90000    1205.8789    1093.1329   -59934.965   -62998.007   -59755.413 
Loop time of 256.125 on 1 procs for 1505 steps with 19652 atoms

Performance: 0.508 ns/day, 47.273 hours/ns, 5.876 timesteps/s
99.9% CPU use with 1 MPI tasks x no OpenMP threads

MPI task timing breakdown:
Section |  min time  |  avg time  |  max time  |%varavg| %total
---------------------------------------------------------------
Pair    | 143.69     | 143.69     | 143.69     |   0.0 | 56.10
Neigh   | 108.39     | 108.39     | 108.39     |   0.0 | 42.32
Comm    | 1.5165     | 1.5165     | 1.5165     |   0.0 |  0.59
Output  | 0.076513   | 0.076513   | 0.076513   |   0.0 |  0.03
Modify  | 1.9282     | 1.9282     | 1.9282     |   0.0 |  0.75
Other   |            | 0.5165     |            |       |  0.20

Nlocal:    19652 ave 19652 max 19652 min
Histogram: 1 0 0 0 0 0 0 0 0 0
Nghost:    20078 ave 20078 max 20078 min
Histogram: 1 0 0 0 0 0 0 0 0 0
Neighs:    1.86339e+06 ave 1.86339e+06 max 1.86339e+06 min
Histogram: 1 0 0 0 0 0 0 0 0 0

Total # of neighbors = 1863387
Ave neighs/atom = 94.8192
Neighbor list builds = 1505
Dangerous builds not checked
Setting up Verlet run ...
  Unit style    : metal
  Current step  : 90000
  Time step     : 0.001
Per MPI rank memory allocation (min/avg/max) = 19.34 | 19.34 | 19.34 Mbytes
Step Temp Press TotEng PotEng Enthalpy 
   90000    1205.8789    1093.1329   -59934.965   -62998.007   -59755.413 
   90495    1169.7737    378.29548   -60147.685   -63119.017   -60085.721 
Loop time of 82.8693 on 1 procs for 495 steps with 19652 atoms

Performance: 0.516 ns/day, 46.504 hours/ns, 5.973 timesteps/s
100.0% CPU use with 1 MPI tasks x no OpenMP threads

MPI task timing breakdown:
Section |  min time  |  avg time  |  max time  |%varavg| %total
---------------------------------------------------------------
Pair    | 46.323     | 46.323     | 46.323     |   0.0 | 55.90
Neigh   | 35.245     | 35.245     | 35.245     |   0.0 | 42.53
Comm    | 0.49403    | 0.49403    | 0.49403    |   0.0 |  0.60
Output  | 0.000144   | 0.000144   | 0.000144   |   0.0 |  0.00
Modify  | 0.63572    | 0.63572    | 0.63572    |   0.0 |  0.77
Other   |            | 0.1711     |            |       |  0.21

Nlocal:    19652 ave 19652 max 19652 min
[...]
Setting up Verlet run ...
  Unit style    : metal
  Current step  : 120000
  Time step     : 0.001
Per MPI rank memory allocation (min/avg/max) = 19.35 | 19.35 | 19.35 Mbytes
Step Temp Press TotEng PotEng Enthalpy 
  120000    449.40295    346.06513    -64983.86   -66125.385   -64931.123 
  120495    422.08252    181.92225    -65149.89   -66222.018   -65122.228 
Loop time of 86.706 on 1 procs for 495 steps with 19652 atoms

Performance: 0.493 ns/day, 48.657 hours/ns, 5.709 timesteps/s
99.5% CPU use with 1 MPI tasks x no OpenMP threads

MPI task timing breakdown:
Section |  min time  |  avg time  |  max time  |%varavg| %total
---------------------------------------------------------------
Pair    | 47.55      | 47.55      | 47.55      |   0.0 | 54.84
Neigh   | 37.893     | 37.893     | 37.893     |   0.0 | 43.70
Comm    | 0.48589    | 0.48589    | 0.48589    |   0.0 |  0.56
Output  | 0.00012493 | 0.00012493 | 0.00012493 |   0.0 |  0.00
Modify  | 0.59984    | 0.59984    | 0.59984    |   0.0 |  0.69
Other   |            | 0.177      |            |       |  0.20

Nlocal:    19652 ave 19652 max 19652 min
Histogram: 1 0 0 0 0 0 0 0 0 0
Nghost:    20830 ave 20830 max 20830 min
Histogram: 1 0 0 0 0 0 0 0 0 0
Neighs:    2.00607e+06 ave 2.00607e+06 max 2.00607e+06 min
Histogram: 1 0 0 0 0 0 0 0 0 0

Total # of neighbors = 2006068
Ave neighs/atom = 102.08
Neighbor list builds = 495
Dangerous builds not checked
Setting up Verlet run ...
  Unit style    : metal
  Current step  : 120495
  Time step     : 0.001
Per MPI rank memory allocation (min/avg/max) = 19.35 | 19.35 | 19.35 Mbytes
Step Temp Press TotEng PotEng Enthalpy 
  120495    422.08252    181.92225    -65149.89   -66222.018   -65122.228 
  122000    398.61065    1317.8789   -65291.393     -66303.9   -65091.509 
Loop time of 259.856 on 1 procs for 1505 steps with 19652 atoms

Performance: 0.500 ns/day, 47.962 hours/ns, 5.792 timesteps/s
99.5% CPU use with 1 MPI tasks x no OpenMP threads

MPI task timing breakdown:
Section |  min time  |  avg time  |  max time  |%varavg| %total
---------------------------------------------------------------
Pair    | 142.3      | 142.3      | 142.3      |   0.0 | 54.76
Neigh   | 113.66     | 113.66     | 113.66     |   0.0 | 43.74
Comm    | 1.4926     | 1.4926     | 1.4926     |   0.0 |  0.57
Output  | 0.056542   | 0.056542   | 0.056542   |   0.0 |  0.02
Modify  | 1.8031     | 1.8031     | 1.8031     |   0.0 |  0.69
Other   |            | 0.5424     |            |       |  0.21

Nlocal:    19652 ave 19652 max 19652 min
Histogram: 1 0 0 0 0 0 0 0 0 0
Nghost:    20795 ave 20795 max 20795 min
Histogram: 1 0 0 0 0 0 0 0 0 0
Neighs:    2.01177e+06 ave 2.01177e+06 max 2.01177e+06 min
Histogram: 1 0 0 0 0 0 0 0 0 0

Total # of neighbors = 2011770
Ave neighs/atom = 102.37
Neighbor list builds = 1505
Dangerous builds not checked
Setting up Verlet run ...
  Unit style    : metal
  Current step  : 122000
  Time step     : 0.001
Per MPI rank memory allocation (min/avg/max) = 19.35 | 19.35 | 19.35 Mbytes
Step Temp Press TotEng PotEng Enthalpy 
  122000    398.61065    1317.8789   -65291.393     -66303.9   -65091.509 
  122495    374.90595     519.5054   -65441.178   -66393.474   -65362.485 
Loop time of 89.1964 on 1 procs for 495 steps with 19652 atoms

Performance: 0.479 ns/day, 50.054 hours/ns, 5.550 timesteps/s
100.0% CPU use with 1 MPI tasks x no OpenMP threads

MPI task timing breakdown:
Section |  min time  |  avg time  |  max time  |%varavg| %total
---------------------------------------------------------------
Pair    | 49.168     | 49.168     | 49.168     |   0.0 | 55.12
Neigh   | 38.695     | 38.695     | 38.695     |   0.0 | 43.38
Comm    | 0.51221    | 0.51221    | 0.51221    |   0.0 |  0.57
Output  | 0.00015616 | 0.00015616 | 0.00015616 |   0.0 |  0.00
Modify  | 0.6314     | 0.6314     | 0.6314     |   0.0 |  0.71
Other   |            | 0.1899     |            |       |  0.21

Nlocal:    19652 ave 19652 max 19652 min
Histogram: 1 0 0 0 0 0 0 0 0 0
Nghost:    20846 ave 20846 max 20846 min
Histogram: 1 0 0 0 0 0 0 0 0 0
Neighs:    2.01429e+06 ave 2.01429e+06 max 2.01429e+06 min
Histogram: 1 0 0 0 0 0 0 0 0 0

Total # of neighbors = 2014294
Ave neighs/atom = 102.498
Neighbor list builds = 495
Dangerous builds not checked
Setting up Verlet run ...
  Unit style    : metal
  Current step  : 122495
  Time step     : 0.001
Per MPI rank memory allocation (min/avg/max) = 19.35 | 19.35 | 19.35 Mbytes
Step Temp Press TotEng PotEng Enthalpy 
  122495    374.90595     519.5054   -65441.178   -66393.474   -65362.485 
  124000    351.98947    1206.8689    -65573.28   -66467.365   -65390.848 
Loop time of 266.622 on 1 procs for 1505 steps with 19652 atoms

Performance: 0.488 ns/day, 49.210 hours/ns, 5.645 timesteps/s
99.0% CPU use with 1 MPI tasks x no OpenMP threads

MPI task timing breakdown:
Section |  min time  |  avg time  |  max time  |%varavg| %total
---------------------------------------------------------------
Pair    | 145.96     | 145.96     | 145.96     |   0.0 | 54.74
Neigh   | 116.65     | 116.65     | 116.65     |   0.0 | 43.75
Comm    | 1.5222     | 1.5222     | 1.5222     |   0.0 |  0.57
Output  | 0.076923   | 0.076923   | 0.076923   |   0.0 |  0.03
Modify  | 1.8506     | 1.8506     | 1.8506     |   0.0 |  0.69
Other   |            | 0.562      |            |       |  0.21

Nlocal:    19652 ave 19652 max 19652 min
Histogram: 1 0 0 0 0 0 0 0 0 0
Nghost:    20866 ave 20866 max 20866 min
Histogram: 1 0 0 0 0 0 0 0 0 0
Neighs:    2.01898e+06 ave 2.01898e+06 max 2.01898e+06 min
Histogram: 1 0 0 0 0 0 0 0 0 0

Total # of neighbors = 2018978
Ave neighs/atom = 102.737
Neighbor list builds = 1505
Dangerous builds not checked
Setting up Verlet run ...
  Unit style    : metal
  Current step  : 124000
  Time step     : 0.001
Per MPI rank memory allocation (min/avg/max) = 19.35 | 19.35 | 19.35 Mbytes
Step Temp Press TotEng PotEng Enthalpy 
  124000    351.98947    1206.8689    -65573.28   -66467.365   -65390.848 
  124495     323.6867   -1094.6412   -65719.331   -66541.524   -65884.827 
Loop time of 91.5293 on 1 procs for 495 steps with 19652 atoms

Performance: 0.467 ns/day, 51.363 hours/ns, 5.408 timesteps/s
99.9% CPU use with 1 MPI tasks x no OpenMP threads

MPI task timing breakdown:
Section |  min time  |  avg time  |  max time  |%varavg| %total
---------------------------------------------------------------
Pair    | 50.673     | 50.673     | 50.673     |   0.0 | 55.36
Neigh   | 39.499     | 39.499     | 39.499     |   0.0 | 43.15
Comm    | 0.52516    | 0.52516    | 0.52516    |   0.0 |  0.57
Output  | 0.00014496 | 0.00014496 | 0.00014496 |   0.0 |  0.00
Modify  | 0.63991    | 0.63991    | 0.63991    |   0.0 |  0.70
Other   |            | 0.1919     |            |       |  0.21

Nlocal:    19652 ave 19652 max 19652 min
Histogram: 1 0 0 0 0 0 0 0 0 0
Nghost:    20845 ave 20845 max 20845 min
Histogram: 1 0 0 0 0 0 0 0 0 0
Neighs:    2.01854e+06 ave 2.01854e+06 max 2.01854e+06 min
Histogram: 1 0 0 0 0 0 0 0 0 0

Total # of neighbors = 2018536
Ave neighs/atom = 102.714
Neighbor list builds = 495
Dangerous builds not checked
Setting up Verlet run ...
  Unit style    : metal
  Current step  : 124495
  Time step     : 0.001
Per MPI rank memory allocation (min/avg/max) = 19.35 | 19.35 | 19.35 Mbytes
Step Temp Press TotEng PotEng Enthalpy 
  124495     323.6867   -1094.6412   -65719.331   -66541.524   -65884.827 
  126000     302.5618    -330.4043   -65850.361   -66618.895   -65900.203 
Loop time of 252.964 on 1 procs for 1505 steps with 19652 atoms

Performance: 0.514 ns/day, 46.690 hours/ns, 5.949 timesteps/s
99.8% CPU use with 1 MPI tasks x no OpenMP threads

MPI task timing breakdown:
Section |  min time  |  avg time  |  max time  |%varavg| %total
---------------------------------------------------------------
Pair    | 139.11     | 139.11     | 139.11     |   0.0 | 54.99
Neigh   | 110.06     | 110.06     | 110.06     |   0.0 | 43.51
Comm    | 1.4236     | 1.4236     | 1.4236     |   0.0 |  0.56
Output  | 0.10715    | 0.10715    | 0.10715    |   0.0 |  0.04
Modify  | 1.7292     | 1.7292     | 1.7292     |   0.0 |  0.68
Other   |            | 0.5303     |            |       |  0.21

Nlocal:    19652 ave 19652 max 19652 min
Histogram: 1 0 0 0 0 0 0 0 0 0
Nghost:    20883 ave 20883 max 20883 min
Histogram: 1 0 0 0 0 0 0 0 0 0
Neighs:    2.0233e+06 ave 2.0233e+06 max 2.0233e+06 min
Histogram: 1 0 0 0 0 0 0 0 0 0

Total # of neighbors = 2023299
Ave neighs/atom = 102.956
Neighbor list builds = 1505
Dangerous builds not checked
Setting up Verlet run ...
  Unit style    : metal
  Current step  : 126000
  Time step     : 0.001
Per MPI rank memory allocation (min/avg/max) = 19.35 | 19.35 | 19.35 Mbytes
Step Temp Press TotEng PotEng Enthalpy 
  126000     302.5618    -330.4043   -65850.361   -66618.895   -65900.203 
  126495    274.55008   -10.479506    -65993.73   -66691.113   -65995.308 
Loop time of 94.8592 on 1 procs for 495 steps with 19652 atoms

Performance: 0.451 ns/day, 53.232 hours/ns, 5.218 timesteps/s
99.8% CPU use with 1 MPI tasks x no OpenMP threads

MPI task timing breakdown:
Section |  min time  |  avg time  |  max time  |%varavg| %total
---------------------------------------------------------------
Pair    | 52.731     | 52.731     | 52.731     |   0.0 | 55.59
Neigh   | 40.722     | 40.722     | 40.722     |   0.0 | 42.93
Comm    | 0.54143    | 0.54143    | 0.54143    |   0.0 |  0.57
Output  | 0.00015092 | 0.00015092 | 0.00015092 |   0.0 |  0.00
Modify  | 0.66684    | 0.66684    | 0.66684    |   0.0 |  0.70
Other   |            | 0.1975     |            |       |  0.21

Nlocal:    19652 ave 19652 max 19652 min
Histogram: 1 0 0 0 0 0 0 0 0 0
Nghost:    20929 ave 20929 max 20929 min
Histogram: 1 0 0 0 0 0 0 0 0 0
Neighs:    2.02765e+06 ave 2.02765e+06 max 2.02765e+06 min
Histogram: 1 0 0 0 0 0 0 0 0 0

Total # of neighbors = 2027652
Ave neighs/atom = 103.178
Neighbor list builds = 495
Dangerous builds not checked
Setting up Verlet run ...
  Unit style    : metal
  Current step  : 126495
  Time step     : 0.001
Per MPI rank memory allocation (min/avg/max) = 19.35 | 19.35 | 19.35 Mbytes
Step Temp Press TotEng PotEng Enthalpy 
  126495    274.55008   -10.479506    -65993.73   -66691.113   -65995.308 
  128000    250.39962   -643.91575   -66130.526   -66766.564   -66227.366 
Loop time of 261.611 on 1 procs for 1505 steps with 19652 atoms

Performance: 0.497 ns/day, 48.286 hours/ns, 5.753 timesteps/s
99.3% CPU use with 1 MPI tasks x no OpenMP threads

MPI task timing breakdown:
Section |  min time  |  avg time  |  max time  |%varavg| %total
---------------------------------------------------------------
Pair    | 143.7      | 143.7      | 143.7      |   0.0 | 54.93
Neigh   | 113.47     | 113.47     | 113.47     |   0.0 | 43.37
Comm    | 1.4869     | 1.4869     | 1.4869     |   0.0 |  0.57
Output  | 0.61007    | 0.61007    | 0.61007    |   0.0 |  0.23
Modify  | 1.8005     | 1.8005     | 1.8005     |   0.0 |  0.69
Other   |            | 0.5485     |            |       |  0.21

Nlocal:    19652 ave 19652 max 19652 min
Histogram: 1 0 0 0 0 0 0 0 0 0
Nghost:    20934 ave 20934 max 20934 min
Histogram: 1 0 0 0 0 0 0 0 0 0
Neighs:    2.03026e+06 ave 2.03026e+06 max 2.03026e+06 min
Histogram: 1 0 0 0 0 0 0 0 0 0

Total # of neighbors = 2030264
Ave neighs/atom = 103.311
Neighbor list builds = 1505
Dangerous builds not checked
Setting up Verlet run ...
  Unit style    : metal
  Current step  : 128000
  Time step     : 0.001
Per MPI rank memory allocation (min/avg/max) = 19.35 | 19.35 | 19.35 Mbytes
Step Temp Press TotEng PotEng Enthalpy 
  128000    250.39962   -643.91575   -66130.526   -66766.564   -66227.366 
  128495    224.42889   -337.81457   -66263.946   -66834.016   -66314.673 
Loop time of 76.3011 on 1 procs for 495 steps with 19652 atoms

Performance: 0.561 ns/day, 42.818 hours/ns, 6.487 timesteps/s
99.4% CPU use with 1 MPI tasks x no OpenMP threads

MPI task timing breakdown:
Section |  min time  |  avg time  |  max time  |%varavg| %total
---------------------------------------------------------------
Pair    | 41.854     | 41.854     | 41.854     |   0.0 | 54.85
Neigh   | 33.347     | 33.347     | 33.347     |   0.0 | 43.70
Comm    | 0.42805    | 0.42805    | 0.42805    |   0.0 |  0.56
Output  | 0.00016189 | 0.00016189 | 0.00016189 |   0.0 |  0.00
Modify  | 0.51406    | 0.51406    | 0.51406    |   0.0 |  0.67
Other   |            | 0.1585     |            |       |  0.21

Nlocal:    19652 ave 19652 max 19652 min
Histogram: 1 0 0 0 0 0 0 0 0 0
Nghost:    20909 ave 20909 max 20909 min
Histogram: 1 0 0 0 0 0 0 0 0 0
Neighs:    2.03416e+06 ave 2.03416e+06 max 2.03416e+06 min
Histogram: 1 0 0 0 0 0 0 0 0 0

Total # of neighbors = 2034161
Ave neighs/atom = 103.509
Neighbor list builds = 495
Dangerous builds not checked
Setting up Verlet run ...
  Unit style    : metal
  Current step  : 128495
  Time step     : 0.001
Per MPI rank memory allocation (min/avg/max) = 19.35 | 19.35 | 19.35 Mbytes
Step Temp Press TotEng PotEng Enthalpy 
  128495    224.42889   -337.81457   -66263.946   -66834.016   -66314.673 
  130000    200.75422     328.2336   -66397.372   -66907.306   -66348.182 
Loop time of 248.163 on 1 procs for 1505 steps with 19652 atoms

Performance: 0.524 ns/day, 45.804 hours/ns, 6.065 timesteps/s
99.7% CPU use with 1 MPI tasks x no OpenMP threads

MPI task timing breakdown:
Section |  min time  |  avg time  |  max time  |%varavg| %total
---------------------------------------------------------------
Pair    | 136.58     | 136.58     | 136.58     |   0.0 | 55.04
Neigh   | 107.77     | 107.77     | 107.77     |   0.0 | 43.43
Comm    | 1.3862     | 1.3862     | 1.3862     |   0.0 |  0.56
Output  | 0.22122    | 0.22122    | 0.22122    |   0.0 |  0.09
Modify  | 1.685      | 1.685      | 1.685      |   0.0 |  0.68
Other   |            | 0.5145     |            |       |  0.21

Nlocal:    19652 ave 19652 max 19652 min
Histogram: 1 0 0 0 0 0 0 0 0 0
Nghost:    20967 ave 20967 max 20967 min
Histogram: 1 0 0 0 0 0 0 0 0 0
Neighs:    2.03844e+06 ave 2.03844e+06 max 2.03844e+06 min
Histogram: 1 0 0 0 0 0 0 0 0 0

Total # of neighbors = 2038441
Ave neighs/atom = 103.727
Neighbor list builds = 1505
Dangerous builds not checked
Setting up Verlet run ...
  Unit style    : metal
  Current step  : 130000
  Time step     : 0.001
Per MPI rank memory allocation (min/avg/max) = 19.35 | 19.35 | 19.35 Mbytes
Step Temp Press TotEng PotEng Enthalpy 
  130000    200.75422     328.2336   -66397.372   -66907.306   -66348.182 
  130495    176.08166   -44.278895   -66526.655   -66973.919   -66533.283 
Loop time of 76.878 on 1 procs for 495 steps with 19652 atoms

Performance: 0.556 ns/day, 43.141 hours/ns, 6.439 timesteps/s
99.7% CPU use with 1 MPI tasks x no OpenMP threads

MPI task timing breakdown:
Section |  min time  |  avg time  |  max time  |%varavg| %total
---------------------------------------------------------------
Pair    | 42.014     | 42.014     | 42.014     |   0.0 | 54.65
Neigh   | 33.752     | 33.752     | 33.752     |   0.0 | 43.90
Comm    | 0.42815    | 0.42815    | 0.42815    |   0.0 |  0.56
Output  | 0.00011897 | 0.00011897 | 0.00011897 |   0.0 |  0.00
Modify  | 0.52249    | 0.52249    | 0.52249    |   0.0 |  0.68
Other   |            | 0.1611     |            |       |  0.21

Nlocal:    19652 ave 19652 max 19652 min
Histogram: 1 0 0 0 0 0 0 0 0 0
Nghost:    20918 ave 20918 max 20918 min
Histogram: 1 0 0 0 0 0 0 0 0 0
Neighs:    2.04149e+06 ave 2.04149e+06 max 2.04149e+06 min
Histogram: 1 0 0 0 0 0 0 0 0 0

Total # of neighbors = 2041489
Ave neighs/atom = 103.882
Neighbor list builds = 495
Dangerous builds not checked
Setting up Verlet run ...
  Unit style    : metal
  Current step  : 130495
  Time step     : 0.001
Per MPI rank memory allocation (min/avg/max) = 19.35 | 19.35 | 19.35 Mbytes
Step Temp Press TotEng PotEng Enthalpy 
  130495    176.08166   -44.278895   -66526.655   -66973.919   -66533.283 
  132000    148.24699    410.65646   -66665.464   -67042.025   -66604.109 
Loop time of 265.314 on 1 procs for 1505 steps with 19652 atoms

Performance: 0.490 ns/day, 48.969 hours/ns, 5.673 timesteps/s
99.5% CPU use with 1 MPI tasks x no OpenMP threads

MPI task timing breakdown:
Section |  min time  |  avg time  |  max time  |%varavg| %total
---------------------------------------------------------------
Pair    | 146.37     | 146.37     | 146.37     |   0.0 | 55.17
Neigh   | 114.95     | 114.95     | 114.95     |   0.0 | 43.33
Comm    | 1.4841     | 1.4841     | 1.4841     |   0.0 |  0.56
Output  | 0.097758   | 0.097758   | 0.097758   |   0.0 |  0.04
Modify  | 1.8539     | 1.8539     | 1.8539     |   0.0 |  0.70
Other   |            | 0.5581     |            |       |  0.21

Nlocal:    19652 ave 19652 max 19652 min
Histogram: 1 0 0 0 0 0 0 0 0 0
Nghost:    20979 ave 20979 max 20979 min
Histogram: 1 0 0 0 0 0 0 0 0 0
Neighs:    2.04593e+06 ave 2.04593e+06 max 2.04593e+06 min
Histogram: 1 0 0 0 0 0 0 0 0 0

Total # of neighbors = 2045926
Ave neighs/atom = 104.108
Neighbor list builds = 1505
Dangerous builds not checked
Setting up Verlet run ...
  Unit style    : metal
  Current step  : 132000
  Time step     : 0.001
Per MPI rank memory allocation (min/avg/max) = 19.35 | 19.35 | 19.35 Mbytes
Step Temp Press TotEng PotEng Enthalpy 
  132000    148.24699    410.65646   -66665.464   -67042.025   -66604.109 
  132495    127.61323    63.447729   -66785.323   -67109.472   -66775.853 
Loop time of 90.6747 on 1 procs for 495 steps with 19652 atoms

Performance: 0.472 ns/day, 50.884 hours/ns, 5.459 timesteps/s
99.4% CPU use with 1 MPI tasks x no OpenMP threads

MPI task timing breakdown:
Section |  min time  |  avg time  |  max time  |%varavg| %total
---------------------------------------------------------------
Pair    | 49.784     | 49.784     | 49.784     |   0.0 | 54.90
Neigh   | 39.577     | 39.577     | 39.577     |   0.0 | 43.65
Comm    | 0.49953    | 0.49953    | 0.49953    |   0.0 |  0.55
Output  | 0.00012994 | 0.00012994 | 0.00012994 |   0.0 |  0.00
Modify  | 0.63933    | 0.63933    | 0.63933    |   0.0 |  0.71
Other   |            | 0.1745     |            |       |  0.19

Nlocal:    19652 ave 19652 max 19652 min
Histogram: 1 0 0 0 0 0 0 0 0 0
Nghost:    20997 ave 20997 max 20997 min
Histogram: 1 0 0 0 0 0 0 0 0 0
Neighs:    2.04778e+06 ave 2.04778e+06 max 2.04778e+06 min
Histogram: 1 0 0 0 0 0 0 0 0 0

Total # of neighbors = 2047782
Ave neighs/atom = 104.202
Neighbor list builds = 495
Dangerous builds not checked
Setting up Verlet run ...
  Unit style    : metal
  Current step  : 132495
  Time step     : 0.001
Per MPI rank memory allocation (min/avg/max) = 19.35 | 19.35 | 19.35 Mbytes
Step Temp Press TotEng PotEng Enthalpy 
  132495    127.61323    63.447729   -66785.323   -67109.472   -66775.853 
  134000    98.773134    301.25688   -66932.298    -67183.19   -66887.413 
Loop time of 241.396 on 1 procs for 1505 steps with 19652 atoms

Performance: 0.539 ns/day, 44.554 hours/ns, 6.235 timesteps/s
99.7% CPU use with 1 MPI tasks x no OpenMP threads

MPI task timing breakdown:
Section |  min time  |  avg time  |  max time  |%varavg| %total
---------------------------------------------------------------
Pair    | 132.1      | 132.1      | 132.1      |   0.0 | 54.72
Neigh   | 105.62     | 105.62     | 105.62     |   0.0 | 43.75
Comm    | 1.309      | 1.309      | 1.309      |   0.0 |  0.54
Output  | 0.27044    | 0.27044    | 0.27044    |   0.0 |  0.11
Modify  | 1.6391     | 1.6391     | 1.6391     |   0.0 |  0.68
Other   |            | 0.4641     |            |       |  0.19

Nlocal:    19652 ave 19652 max 19652 min
Histogram: 1 0 0 0 0 0 0 0 0 0
Nghost:    21000 ave 21000 max 21000 min
Histogram: 1 0 0 0 0 0 0 0 0 0
Neighs:    2.05244e+06 ave 2.05244e+06 max 2.05244e+06 min
Histogram: 1 0 0 0 0 0 0 0 0 0

Total # of neighbors = 2052441
Ave neighs/atom = 104.439
Neighbor list builds = 1505
Dangerous builds not checked
Total wall time: 6:43:34
