LAMMPS (12 Dec 2018)
Lattice spacing in x,y,z = 4 4 4
Created orthogonal box = (0 0 0) to (68 68 68)
  1 by 1 by 2 MPI processor grid
Created 19652 atoms
  Time spent = 0.00156879 secs
Setting atom values ...
  206 settings made for type/fraction
Neighbor list info ...
  update every 1 steps, delay 0 steps, check no
  max neighbors/atom: 2000, page size: 100000
  master list distance cutoff = 10
  ghost atom cutoff = 10
  binsize = 5, bins = 14 14 14
  1 neighbor lists, perpetual/occasional/extra = 1 0 0
  (1) pair eam/fs, perpetual
      attributes: half, newton on
      pair build: half/bin/atomonly/newton
      stencil: half/bin/3d/newton
      bin: standard
Setting up Verlet run ...
  Unit style    : metal
  Current step  : 0
  Time step     : 0.001
Per MPI rank memory allocation (min/avg/max) = 12.91 | 12.92 | 12.92 Mbytes
Step Temp Press TotEng PotEng Enthalpy Volume 
       0          300    42702.571   -75848.808   -76610.835   -67468.298       314432 
    1000    192.86469    49610.516   -75848.707   -76338.601   -66112.493       314432 
Loop time of 162.289 on 2 procs for 1000 steps with 19652 atoms

Performance: 0.532 ns/day, 45.080 hours/ns, 6.162 timesteps/s
98.9% CPU use with 2 MPI tasks x no OpenMP threads

MPI task timing breakdown:
Section |  min time  |  avg time  |  max time  |%varavg| %total
---------------------------------------------------------------
Pair    | 103.37     | 103.9      | 104.44     |   5.2 | 64.02
Neigh   | 52.023     | 52.405     | 52.787     |   5.3 | 32.29
Comm    | 5.4039     | 5.5527     | 5.7014     |   6.3 |  3.42
Output  | 0.021971   | 0.021976   | 0.021981   |   0.0 |  0.01
Modify  | 0.19676    | 0.20003    | 0.20331    |   0.7 |  0.12
Other   |            | 0.2063     |            |       |  0.13

Nlocal:    9826 ave 9833 max 9819 min
Histogram: 1 0 0 0 0 0 0 0 0 1
Nghost:    16348.5 ave 16434 max 16263 min
Histogram: 1 0 0 0 0 0 0 0 0 1
Neighs:    1.22813e+06 ave 1.24903e+06 max 1.20722e+06 min
Histogram: 1 0 0 0 0 0 0 0 0 1

Total # of neighbors = 2456251
Ave neighs/atom = 124.987
Neighbor list builds = 1000
Dangerous builds not checked
Setting up Verlet run ...
  Unit style    : metal
  Current step  : 1000
  Time step     : 0.001
Per MPI rank memory allocation (min/avg/max) = 12.93 | 12.93 | 12.94 Mbytes
Step Temp Press TotEng PotEng Enthalpy Volume 
    1000    192.86469    49610.516   -75848.707   -76338.601   -66112.493       314432 
    2000    305.67915   -47.436919   -75416.039   -76192.492   -75425.954    334889.44 
Loop time of 157.881 on 2 procs for 1000 steps with 19652 atoms

Performance: 0.547 ns/day, 43.856 hours/ns, 6.334 timesteps/s
98.9% CPU use with 2 MPI tasks x no OpenMP threads

MPI task timing breakdown:
Section |  min time  |  avg time  |  max time  |%varavg| %total
---------------------------------------------------------------
Pair    | 100.91     | 101.48     | 102.05     |   5.7 | 64.27
Neigh   | 50.464     | 50.705     | 50.947     |   3.4 | 32.12
Comm    | 4.4146     | 4.7381     | 5.0617     |  14.9 |  3.00
Output  | 0.033391   | 0.033421   | 0.03345    |   0.0 |  0.02
Modify  | 0.7273     | 0.72937    | 0.73144    |   0.2 |  0.46
Other   |            | 0.1984     |            |       |  0.13

Nlocal:    9826 ave 9827 max 9825 min
Histogram: 1 0 0 0 0 0 0 0 0 1
Nghost:    14328.5 ave 14336 max 14321 min
Histogram: 1 0 0 0 0 0 0 0 0 1
Neighs:    1.15823e+06 ave 1.17738e+06 max 1.13909e+06 min
Histogram: 1 0 0 0 0 0 0 0 0 1

Total # of neighbors = 2316465
Ave neighs/atom = 117.874
Neighbor list builds = 1000
Dangerous builds not checked
Setting up Verlet run ...
  Unit style    : metal
  Current step  : 2000
  Time step     : 0.001
Per MPI rank memory allocation (min/avg/max) = 12.93 | 12.93 | 12.94 Mbytes
Step Temp Press TotEng PotEng Enthalpy Volume 
    2000    305.67915   -47.436919   -75416.039   -76192.492   -75425.954    334889.44 
    3000    471.33565    155.35261   -74533.337   -75730.573   -74500.472    338950.34 
    4000    789.29217    396.44846   -72662.057   -74666.931   -72575.713    348940.76 
    5000     1074.225    612.53507   -70663.017   -73391.646   -70524.742    361678.48 
    6000    1300.6114    8.5827846   -68240.343   -71544.014   -68238.299    381537.16 
    7000    1646.2701    288.83292   -65798.209   -69979.885   -65726.389    398389.39 
    8000    1896.7714   -24.944312   -64311.007   -69128.979   -64317.356    407811.12 
    9000    2190.5235   -1029.3289   -62804.936   -68369.065   -63072.946    417163.34 
   10000    2446.3502     637.4059    -61366.95   -67580.902    -61197.74    425322.23 
Loop time of 1185.61 on 2 procs for 8000 steps with 19652 atoms

Performance: 0.583 ns/day, 41.167 hours/ns, 6.748 timesteps/s
99.0% CPU use with 2 MPI tasks x no OpenMP threads

MPI task timing breakdown:
Section |  min time  |  avg time  |  max time  |%varavg| %total
---------------------------------------------------------------
Pair    | 753.75     | 754.29     | 754.82     |   2.0 | 63.62
Neigh   | 384.14     | 385.3      | 386.45     |   5.9 | 32.50
Comm    | 37.352     | 37.935     | 38.518     |   9.5 |  3.20
Output  | 0.37238    | 0.3726     | 0.37282    |   0.0 |  0.03
Modify  | 6.056      | 6.095      | 6.1341     |   1.6 |  0.51
Other   |            | 1.63       |            |       |  0.14

Nlocal:    9826 ave 9830 max 9822 min
Histogram: 1 0 0 0 0 0 0 0 0 1
Nghost:    14304 ave 14305 max 14303 min
Histogram: 1 0 0 0 0 0 0 0 0 1
Neighs:    945954 ave 954163 max 937745 min
Histogram: 1 0 0 0 0 0 0 0 0 1

Total # of neighbors = 1891908
Ave neighs/atom = 96.2705
Neighbor list builds = 8000
Dangerous builds not checked
Setting up Verlet run ...
  Unit style    : metal
  Current step  : 10000
  Time step     : 0.001
Per MPI rank memory allocation (min/avg/max) = 12.96 | 12.97 | 12.97 Mbytes
Step Temp Press TotEng PotEng Enthalpy Volume 
   10000    2446.3502     637.4059    -61366.95   -67580.902    -61197.74    425322.23 
   11000    2443.0596    384.07307   -61422.566    -67628.16   -61320.773    424633.77 
   12000    2451.3619    489.53258   -61334.288   -67560.971   -61204.312    425395.42 
   13000    2446.3667   -532.77011   -61315.153   -67529.147   -61457.001    426575.03 
   14000    2442.5742   -570.59865   -61291.235   -67495.596   -61443.292    426961.53 
   15000     2415.888   -315.28361   -61429.146   -67565.721   -61512.958    425909.19 
   16000    2447.0219    463.43313   -61375.489   -67591.147   -61252.498    425203.55 
   17000    2450.9656     1279.369   -61388.199   -67613.875    -61049.33    424372.35 
   18000    2443.3036     5.072402   -61370.497   -67576.711    -61369.15     425656.7 
   19000    2460.1578   -1616.6554   -61293.567   -67542.592   -61724.598     427171.4 
   20000    2453.8301   -206.20396   -61269.789   -67502.741   -61324.715    426770.81 
   21000    2441.8366    1509.9115   -61308.467   -67510.955   -60907.674    425284.41 
   22000     2429.174    1053.4916   -61385.264   -67555.587   -61105.697    425172.37 
   23000    2436.7252   -1301.9573   -61302.898   -67492.402    -61650.27    427473.46 
   24000    2467.9908    70.859164   -61296.421   -67565.342   -61277.575    426116.83 
   25000    2465.5612    1153.9426    -61394.77    -67657.52   -61089.433    423941.43 
   26000    2447.2426    963.45403   -61363.159   -67579.378     -61107.7    424814.91 
   27000    2455.1265    501.54892   -61368.344   -67604.589   -61235.323    424932.27 
   28000    2457.6004   -132.26227   -61340.138   -67582.667   -61375.271    425590.42 
   29000    2461.7382    530.22536   -61283.589   -67536.628   -61142.632    425928.79 
   30000    2452.6789    355.30523   -61423.152   -67653.179   -61328.951    424777.11 
   31000    2438.2648    386.24825   -61370.917   -67564.332   -61268.387    425299.82 
   32000    2441.8494   -128.56176   -61256.465   -67458.985   -61290.736    427096.58 
   33000    2450.9832     533.8067   -61270.436   -67496.157   -61128.439    426191.76 
   34000    2495.9875     1495.082   -61192.315   -67532.351   -60795.351    425399.89 
   35000    2436.1914     377.7857   -61348.835   -67536.983   -61248.509    425479.25 
   36000    2467.8703   -427.48867   -61298.381   -67566.996   -61412.046    426003.44 
   37000      2470.51    853.49922   -61238.988   -67514.309    -61012.07    425967.22 
   38000    2463.9983    885.38085   -61312.386   -67571.167   -61077.386    425253.84 
   39000    2440.1224     373.6089   -61401.284   -67599.417   -61302.127     425219.6 
   40000    2439.3838    428.11986   -61402.373    -67598.63   -61288.696    425419.34 
Loop time of 4037.51 on 2 procs for 30000 steps with 19652 atoms

Performance: 0.642 ns/day, 37.384 hours/ns, 7.430 timesteps/s
98.9% CPU use with 2 MPI tasks x no OpenMP threads

MPI task timing breakdown:
Section |  min time  |  avg time  |  max time  |%varavg| %total
---------------------------------------------------------------
Pair    | 2565.9     | 2578.5     | 2591.1     |  24.8 | 63.86
Neigh   | 1287.4     | 1293.9     | 1300.4     |  18.1 | 32.05
Comm    | 114.58     | 133.68     | 152.78     | 165.2 |  3.31
Output  | 1.8646     | 1.8657     | 1.8669     |   0.1 |  0.05
Modify  | 23.398     | 23.421     | 23.444     |   0.5 |  0.58
Other   |            | 6.143      |            |       |  0.15

Nlocal:    9826 ave 9826 max 9826 min
Histogram: 2 0 0 0 0 0 0 0 0 0
Nghost:    14362 ave 14388 max 14336 min
Histogram: 1 0 0 0 0 0 0 0 0 1
Neighs:    945849 ave 957931 max 933767 min
Histogram: 1 0 0 0 0 0 0 0 0 1

Total # of neighbors = 1891698
Ave neighs/atom = 96.2598
Neighbor list builds = 30000
Dangerous builds not checked
Setting up Verlet run ...
  Unit style    : metal
  Current step  : 40000
  Time step     : 0.001
Per MPI rank memory allocation (min/avg/max) = 13.05 | 13.05 | 13.06 Mbytes
Step Temp Press TotEng PotEng Enthalpy Volume 
   40000    2439.3838    428.11986   -61402.373    -67598.63   -61288.696    425419.34 
   40495    2414.9217    650.83495   -61550.392   -67684.513   -61378.169    423965.31 
Loop time of 65.9902 on 2 procs for 495 steps with 19652 atoms

Performance: 0.648 ns/day, 37.032 hours/ns, 7.501 timesteps/s
98.2% CPU use with 2 MPI tasks x no OpenMP threads

MPI task timing breakdown:
Section |  min time  |  avg time  |  max time  |%varavg| %total
---------------------------------------------------------------
Pair    | 42.263     | 42.522     | 42.782     |   4.0 | 64.44
Neigh   | 20.597     | 20.686     | 20.775     |   2.0 | 31.35
Comm    | 1.9424     | 2.2916     | 2.6409     |  23.1 |  3.47
Output  | 7.987e-05  | 0.00012243 | 0.00016499 |   0.0 |  0.00
Modify  | 0.38459    | 0.38607    | 0.38755    |   0.2 |  0.59
Other   |            | 0.1041     |            |       |  0.16

Nlocal:    9826 ave 9827 max 9825 min
Histogram: 1 0 0 0 0 0 0 0 0 1
Nghost:    14314.5 ave 14325 max 14304 min
Histogram: 1 0 0 0 0 0 0 0 0 1
Neighs:    948848 ave 958481 max 939215 min
Histogram: 1 0 0 0 0 0 0 0 0 1

Total # of neighbors = 1897696
Ave neighs/atom = 96.565
Neighbor list builds = 495
Dangerous builds not checked
Setting up Verlet run ...
  Unit style    : metal
  Current step  : 40495
  Time step     : 0.001
Per MPI rank memory allocation (min/avg/max) = 13.05 | 13.05 | 13.06 Mbytes
Step Temp Press TotEng PotEng Enthalpy Volume 
   40495    2414.9217    650.83495   -61550.392   -67684.513   -61378.169    423965.31 
   41000    2400.2371    642.18832    -61645.01   -67741.831   -61475.359    423259.04 
Loop time of 66.7243 on 2 procs for 505 steps with 19652 atoms

Performance: 0.654 ns/day, 36.702 hours/ns, 7.568 timesteps/s
98.2% CPU use with 2 MPI tasks x no OpenMP threads

MPI task timing breakdown:
Section |  min time  |  avg time  |  max time  |%varavg| %total
---------------------------------------------------------------
Pair    | 42.201     | 42.439     | 42.677     |   3.6 | 63.60
Neigh   | 20.838     | 20.981     | 21.123     |   3.1 | 31.44
Comm    | 2.4019     | 2.7842     | 3.1664     |  22.9 |  4.17
Output  | 0.032988   | 0.03301    | 0.033032   |   0.0 |  0.05
Modify  | 0.38214    | 0.38326    | 0.38438    |   0.2 |  0.57
Other   |            | 0.1045     |            |       |  0.16

Nlocal:    9826 ave 9839 max 9813 min
Histogram: 1 0 0 0 0 0 0 0 0 1
Nghost:    14362.5 ave 14370 max 14355 min
Histogram: 1 0 0 0 0 0 0 0 0 1
Neighs:    950890 ave 958831 max 942950 min
Histogram: 1 0 0 0 0 0 0 0 0 1

Total # of neighbors = 1901781
Ave neighs/atom = 96.7729
Neighbor list builds = 505
Dangerous builds not checked
Setting up Verlet run ...
  Unit style    : metal
  Current step  : 41000
  Time step     : 0.001
Per MPI rank memory allocation (min/avg/max) = 13.05 | 13.05 | 13.06 Mbytes
Step Temp Press TotEng PotEng Enthalpy Volume 
   41000    2400.2371    642.18832    -61645.01   -67741.831   -61475.359    423259.04 
   41495    2374.7037    1625.6669   -61747.844   -67779.808   -61319.445    422208.48 
Loop time of 60.49 on 2 procs for 495 steps with 19652 atoms

Performance: 0.707 ns/day, 33.945 hours/ns, 8.183 timesteps/s
99.4% CPU use with 2 MPI tasks x no OpenMP threads

MPI task timing breakdown:
Section |  min time  |  avg time  |  max time  |%varavg| %total
---------------------------------------------------------------
Pair    | 38.457     | 38.579     | 38.702     |   2.0 | 63.78
Neigh   | 19.22      | 19.356     | 19.493     |   3.1 | 32.00
Comm    | 1.841      | 2.1013     | 2.3617     |  18.0 |  3.47
Output  | 8.297e-05  | 0.00016952 | 0.00025606 |   0.0 |  0.00
Modify  | 0.35668    | 0.35765    | 0.35863    |   0.2 |  0.59
Other   |            | 0.09537    |            |       |  0.16

Nlocal:    9826 ave 9856 max 9796 min
Histogram: 1 0 0 0 0 0 0 0 0 1
Nghost:    14371 ave 14411 max 14331 min
Histogram: 1 0 0 0 0 0 0 0 0 1
Neighs:    953266 ave 960295 max 946238 min
Histogram: 1 0 0 0 0 0 0 0 0 1

Total # of neighbors = 1906533
Ave neighs/atom = 97.0147
Neighbor list builds = 495
Dangerous builds not checked
Setting up Verlet run ...
  Unit style    : metal
  Current step  : 41495
  Time step     : 0.001
Per MPI rank memory allocation (min/avg/max) = 13.05 | 13.05 | 13.06 Mbytes
Step Temp Press TotEng PotEng Enthalpy Volume 
   41495    2374.7037    1625.6669   -61747.844   -67779.808   -61319.445    422208.48 
   42000    2374.0929    273.26678   -61803.342   -67833.754   -61731.295    422415.52 
Loop time of 64.6538 on 2 procs for 505 steps with 19652 atoms

Performance: 0.675 ns/day, 35.563 hours/ns, 7.811 timesteps/s
99.7% CPU use with 2 MPI tasks x no OpenMP threads

MPI task timing breakdown:
Section |  min time  |  avg time  |  max time  |%varavg| %total
---------------------------------------------------------------
Pair    | 41.661     | 41.748     | 41.834     |   1.3 | 64.57
Neigh   | 19.928     | 20.376     | 20.823     |   9.9 | 31.51
Comm    | 1.6557     | 2.0217     | 2.3877     |  25.7 |  3.13
Output  | 0.034602   | 0.03462    | 0.034637   |   0.0 |  0.05
Modify  | 0.36882    | 0.37301    | 0.37719    |   0.7 |  0.58
Other   |            | 0.1012     |            |       |  0.16

Nlocal:    9826 ave 9842 max 9810 min
Histogram: 1 0 0 0 0 0 0 0 0 1
Nghost:    14346 ave 14361 max 14331 min
Histogram: 1 0 0 0 0 0 0 0 0 1
Neighs:    952890 ave 965174 max 940605 min
Histogram: 1 0 0 0 0 0 0 0 0 1

Total # of neighbors = 1905779
Ave neighs/atom = 96.9763
Neighbor list builds = 505
Dangerous builds not checked
Setting up Verlet run ...
  Unit style    : metal
  Current step  : 42000
  Time step     : 0.001
Per MPI rank memory allocation (min/avg/max) = 13.05 | 13.05 | 13.06 Mbytes
Step Temp Press TotEng PotEng Enthalpy Volume 
   42000    2374.0929    273.26678   -61803.342   -67833.754   -61731.295    422415.52 
   42495    2310.5738    727.56696    -62077.05   -67946.118   -61885.978    420759.99 
Loop time of 67.5034 on 2 procs for 495 steps with 19652 atoms

Performance: 0.634 ns/day, 37.881 hours/ns, 7.333 timesteps/s
98.4% CPU use with 2 MPI tasks x no OpenMP threads

MPI task timing breakdown:
Section |  min time  |  avg time  |  max time  |%varavg| %total
---------------------------------------------------------------
Pair    | 42.915     | 43.208     | 43.501     |   4.5 | 64.01
Neigh   | 20.322     | 21.3       | 22.278     |  21.2 | 31.55
Comm    | 1.1402     | 2.407      | 3.6738     |  81.7 |  3.57
Output  | 9.203e-05  | 0.00011253 | 0.00013304 |   0.0 |  0.00
Modify  | 0.47839    | 0.48637    | 0.49435    |   1.1 |  0.72
Other   |            | 0.1024     |            |       |  0.15

Nlocal:    9826 ave 9861 max 9791 min
Histogram: 1 0 0 0 0 0 0 0 0 1
Nghost:    14425 ave 14490 max 14360 min
Histogram: 1 0 0 0 0 0 0 0 0 1
Neighs:    956518 ave 960734 max 952302 min
Histogram: 1 0 0 0 0 0 0 0 0 1

Total # of neighbors = 1913036
Ave neighs/atom = 97.3456
Neighbor list builds = 495
Dangerous builds not checked
Setting up Verlet run ...
  Unit style    : metal
  Current step  : 42495
  Time step     : 0.001
Per MPI rank memory allocation (min/avg/max) = 13.05 | 13.05 | 13.06 Mbytes
Step Temp Press TotEng PotEng Enthalpy Volume 
   42495    2310.5738    727.56696    -62077.05   -67946.118   -61885.978    420759.99 
   43000    2294.5324    406.25703   -62130.298    -67958.62   -62023.619    420717.43 
Loop time of 69.1585 on 2 procs for 505 steps with 19652 atoms

Performance: 0.631 ns/day, 38.041 hours/ns, 7.302 timesteps/s
98.0% CPU use with 2 MPI tasks x no OpenMP threads

MPI task timing breakdown:
Section |  min time  |  avg time  |  max time  |%varavg| %total
---------------------------------------------------------------
Pair    | 42.281     | 42.36      | 42.439     |   1.2 | 61.25
Neigh   | 23.226     | 23.468     | 23.71      |   5.0 | 33.93
Comm    | 2.5979     | 2.6105     | 2.6231     |   0.8 |  3.77
Output  | 0.027092   | 0.027116   | 0.027141   |   0.0 |  0.04
Modify  | 0.41219    | 0.59       | 0.76782    |  23.1 |  0.85
Other   |            | 0.1029     |            |       |  0.15

Nlocal:    9826 ave 9835 max 9817 min
Histogram: 1 0 0 0 0 0 0 0 0 1
Nghost:    14395.5 ave 14410 max 14381 min
Histogram: 1 0 0 0 0 0 0 0 0 1
Neighs:    956241 ave 958271 max 954211 min
Histogram: 1 0 0 0 0 0 0 0 0 1

Total # of neighbors = 1912482
Ave neighs/atom = 97.3174
Neighbor list builds = 505
Dangerous builds not checked
Setting up Verlet run ...
  Unit style    : metal
  Current step  : 43000
  Time step     : 0.001
Per MPI rank memory allocation (min/avg/max) = 13.05 | 13.06 | 13.06 Mbytes
Step Temp Press TotEng PotEng Enthalpy Volume 
   43000    2294.5324    406.25703   -62130.298    -67958.62   -62023.619    420717.43 
   43495    2260.2931    497.06222     -62358.7    -68100.05   -62228.643     419211.7 
Loop time of 64.8961 on 2 procs for 495 steps with 19652 atoms

Performance: 0.659 ns/day, 36.418 hours/ns, 7.628 timesteps/s
99.1% CPU use with 2 MPI tasks x no OpenMP threads

MPI task timing breakdown:
Section |  min time  |  avg time  |  max time  |%varavg| %total
---------------------------------------------------------------
Pair    | 39.743     | 39.804     | 39.865     |   1.0 | 61.33
Neigh   | 22.016     | 22.126     | 22.235     |   2.3 | 34.09
Comm    | 2.3337     | 2.5069     | 2.6801     |  10.9 |  3.86
Output  | 8.297e-05  | 0.00011408 | 0.0001452  |   0.0 |  0.00
Modify  | 0.36016    | 0.36203    | 0.3639     |   0.3 |  0.56
Other   |            | 0.09747    |            |       |  0.15

Nlocal:    9826 ave 9832 max 9820 min
Histogram: 1 0 0 0 0 0 0 0 0 1
Nghost:    14393.5 ave 14430 max 14357 min
Histogram: 1 0 0 0 0 0 0 0 0 1
Neighs:    959798 ave 960352 max 959243 min
Histogram: 1 0 0 0 0 0 0 0 0 1

Total # of neighbors = 1919595
Ave neighs/atom = 97.6794
Neighbor list builds = 495
Dangerous builds not checked
Setting up Verlet run ...
  Unit style    : metal
  Current step  : 43495
  Time step     : 0.001
Per MPI rank memory allocation (min/avg/max) = 13.05 | 13.06 | 13.06 Mbytes
Step Temp Press TotEng PotEng Enthalpy Volume 
   43495    2260.2931    497.06222     -62358.7    -68100.05   -62228.643     419211.7 
   44000    2256.8134    952.88655   -62432.702   -68165.213   -62184.132    417943.14 
Loop time of 69.3564 on 2 procs for 505 steps with 19652 atoms

Performance: 0.629 ns/day, 38.150 hours/ns, 7.281 timesteps/s
97.7% CPU use with 2 MPI tasks x no OpenMP threads

MPI task timing breakdown:
Section |  min time  |  avg time  |  max time  |%varavg| %total
---------------------------------------------------------------
Pair    | 42.72      | 42.894     | 43.068     |   2.7 | 61.85
Neigh   | 22.917     | 23.322     | 23.727     |   8.4 | 33.63
Comm    | 2.3867     | 2.6223     | 2.8579     |  14.6 |  3.78
Output  | 0.036071   | 0.036147   | 0.036224   |   0.0 |  0.05
Modify  | 0.37579    | 0.3792     | 0.3826     |   0.6 |  0.55
Other   |            | 0.1028     |            |       |  0.15

Nlocal:    9826 ave 9847 max 9805 min
Histogram: 1 0 0 0 0 0 0 0 0 1
Nghost:    14378 ave 14394 max 14362 min
Histogram: 1 0 0 0 0 0 0 0 0 1
Neighs:    962620 ave 965308 max 959931 min
Histogram: 1 0 0 0 0 0 0 0 0 1

Total # of neighbors = 1925239
Ave neighs/atom = 97.9666
Neighbor list builds = 505
Dangerous builds not checked
Setting up Verlet run ...
  Unit style    : metal
  Current step  : 44000
  Time step     : 0.001
Per MPI rank memory allocation (min/avg/max) = 13.05 | 13.06 | 13.06 Mbytes
Step Temp Press TotEng PotEng Enthalpy Volume 
   44000    2256.8134    952.88655   -62432.702   -68165.213   -62184.132    417943.14 
   44495    2248.9248    699.53842    -62492.21   -68204.684   -62309.731    417937.52 
Loop time of 67.0315 on 2 procs for 495 steps with 19652 atoms

Performance: 0.638 ns/day, 37.616 hours/ns, 7.385 timesteps/s
99.0% CPU use with 2 MPI tasks x no OpenMP threads

MPI task timing breakdown:
Section |  min time  |  avg time  |  max time  |%varavg| %total
---------------------------------------------------------------
Pair    | 40.983     | 41.119     | 41.256     |   2.1 | 61.34
Neigh   | 22.706     | 22.789     | 22.872     |   1.7 | 34.00
Comm    | 2.4237     | 2.6464     | 2.8691     |  13.7 |  3.95
Output  | 8.9169e-05 | 0.00012314 | 0.00015712 |   0.0 |  0.00
Modify  | 0.37025    | 0.374      | 0.37775    |   0.6 |  0.56
Other   |            | 0.1025     |            |       |  0.15

Nlocal:    9826 ave 9833 max 9819 min
Histogram: 1 0 0 0 0 0 0 0 0 1
Nghost:    14434 ave 14453 max 14415 min
Histogram: 1 0 0 0 0 0 0 0 0 1
Neighs:    962796 ave 964394 max 961197 min
Histogram: 1 0 0 0 0 0 0 0 0 1

Total # of neighbors = 1925591
Ave neighs/atom = 97.9845
Neighbor list builds = 495
Dangerous builds not checked
Setting up Verlet run ...
  Unit style    : metal
  Current step  : 44495
  Time step     : 0.001
Per MPI rank memory allocation (min/avg/max) = 13.05 | 13.06 | 13.06 Mbytes
Step Temp Press TotEng PotEng Enthalpy Volume 
   44495    2248.9248    699.53842    -62492.21   -68204.684   -62309.731    417937.52 
   45000    2201.9224    594.50934   -62750.294   -68343.377   -62595.836    416257.51 
Loop time of 69.2731 on 2 procs for 505 steps with 19652 atoms

Performance: 0.630 ns/day, 38.104 hours/ns, 7.290 timesteps/s
99.2% CPU use with 2 MPI tasks x no OpenMP threads

MPI task timing breakdown:
Section |  min time  |  avg time  |  max time  |%varavg| %total
---------------------------------------------------------------
Pair    | 43.133     | 43.133     | 43.134     |   0.0 | 62.27
Neigh   | 23.152     | 23.427     | 23.701     |   5.7 | 33.82
Comm    | 1.9128     | 2.1925     | 2.4721     |  18.9 |  3.16
Output  | 0.034537   | 0.034551   | 0.034565   |   0.0 |  0.05
Modify  | 0.38008    | 0.38324    | 0.3864     |   0.5 |  0.55
Other   |            | 0.1028     |            |       |  0.15

Nlocal:    9826 ave 9852 max 9800 min
Histogram: 1 0 0 0 0 0 0 0 0 1
Nghost:    14385.5 ave 14388 max 14383 min
Histogram: 1 0 0 0 0 0 0 0 0 1
Neighs:    966550 ave 970752 max 962347 min
Histogram: 1 0 0 0 0 0 0 0 0 1

Total # of neighbors = 1933099
Ave neighs/atom = 98.3665
Neighbor list builds = 505
Dangerous builds not checked
Setting up Verlet run ...
  Unit style    : metal
  Current step  : 45000
  Time step     : 0.001
Per MPI rank memory allocation (min/avg/max) = 13.05 | 13.06 | 13.06 Mbytes
Step Temp Press TotEng PotEng Enthalpy Volume 
   45000    2201.9224    594.50934   -62750.294   -68343.377   -62595.836    416257.51 
   45495    2162.0654    996.10783   -62898.265   -68390.108       -62640    415402.71 
Loop time of 64.7444 on 2 procs for 495 steps with 19652 atoms

Performance: 0.661 ns/day, 36.332 hours/ns, 7.645 timesteps/s
99.1% CPU use with 2 MPI tasks x no OpenMP threads

MPI task timing breakdown:
Section |  min time  |  avg time  |  max time  |%varavg| %total
---------------------------------------------------------------
Pair    | 40.078     | 40.236     | 40.394     |   2.5 | 62.15
Neigh   | 21.698     | 22.144     | 22.589     |   9.5 | 34.20
Comm    | 1.6114     | 1.9024     | 2.1934     |  21.1 |  2.94
Output  | 5.8174e-05 | 7.7009e-05 | 9.5844e-05 |   0.0 |  0.00
Modify  | 0.35994    | 0.36357    | 0.36721    |   0.6 |  0.56
Other   |            | 0.09886    |            |       |  0.15

Nlocal:    9826 ave 9838 max 9814 min
Histogram: 1 0 0 0 0 0 0 0 0 1
Nghost:    14436 ave 14437 max 14435 min
Histogram: 1 0 0 0 0 0 0 0 0 1
Neighs:    968484 ave 970167 max 966801 min
Histogram: 1 0 0 0 0 0 0 0 0 1

Total # of neighbors = 1936968
Ave neighs/atom = 98.5634
Neighbor list builds = 495
Dangerous builds not checked
Setting up Verlet run ...
  Unit style    : metal
  Current step  : 45495
  Time step     : 0.001
Per MPI rank memory allocation (min/avg/max) = 13.05 | 13.06 | 13.06 Mbytes
Step Temp Press TotEng PotEng Enthalpy Volume 
   45495    2162.0654    996.10783   -62898.265   -68390.108       -62640    415402.71 
   46000    2163.3158    653.26318    -62949.69   -68444.709   -62780.425    415134.62 
Loop time of 66.6678 on 2 procs for 505 steps with 19652 atoms

Performance: 0.654 ns/day, 36.671 hours/ns, 7.575 timesteps/s
99.3% CPU use with 2 MPI tasks x no OpenMP threads

MPI task timing breakdown:
Section |  min time  |  avg time  |  max time  |%varavg| %total
---------------------------------------------------------------
Pair    | 41.233     | 41.506     | 41.78      |   4.2 | 62.26
Neigh   | 22.464     | 22.628     | 22.792     |   3.4 | 33.94
Comm    | 1.5851     | 2.0243     | 2.4635     |  30.9 |  3.04
Output  | 0.036643   | 0.036671   | 0.036699   |   0.0 |  0.06
Modify  | 0.37112    | 0.37231    | 0.3735     |   0.2 |  0.56
Other   |            | 0.1004     |            |       |  0.15

Nlocal:    9826 ave 9843 max 9809 min
Histogram: 1 0 0 0 0 0 0 0 0 1
Nghost:    14415 ave 14427 max 14403 min
Histogram: 1 0 0 0 0 0 0 0 0 1
Neighs:    969339 ave 971418 max 967260 min
Histogram: 1 0 0 0 0 0 0 0 0 1

Total # of neighbors = 1938678
Ave neighs/atom = 98.6504
Neighbor list builds = 505
Dangerous builds not checked
Setting up Verlet run ...
  Unit style    : metal
  Current step  : 46000
  Time step     : 0.001
Per MPI rank memory allocation (min/avg/max) = 13.05 | 13.06 | 13.06 Mbytes
Step Temp Press TotEng PotEng Enthalpy Volume 
   46000    2163.3158    653.26318    -62949.69   -68444.709   -62780.425    415134.62 
   46495    2110.8119    1340.4072   -63129.111   -68490.765   -62782.754    413996.97 
Loop time of 65.9408 on 2 procs for 495 steps with 19652 atoms

Performance: 0.649 ns/day, 37.004 hours/ns, 7.507 timesteps/s
99.2% CPU use with 2 MPI tasks x no OpenMP threads

MPI task timing breakdown:
Section |  min time  |  avg time  |  max time  |%varavg| %total
---------------------------------------------------------------
Pair    | 40.634     | 40.8       | 40.966     |   2.6 | 61.87
Neigh   | 21.402     | 22.156     | 22.91      |  16.0 | 33.60
Comm    | 1.5882     | 2.5201     | 3.4519     |  58.7 |  3.82
Output  | 9.6083e-05 | 0.00011551 | 0.00013494 |   0.0 |  0.00
Modify  | 0.35773    | 0.36617    | 0.3746     |   1.4 |  0.56
Other   |            | 0.09853    |            |       |  0.15

Nlocal:    9826 ave 9830 max 9822 min
Histogram: 1 0 0 0 0 0 0 0 0 1
Nghost:    14442.5 ave 14455 max 14430 min
Histogram: 1 0 0 0 0 0 0 0 0 1
Neighs:    972077 ave 972621 max 971533 min
Histogram: 1 0 0 0 0 0 0 0 0 1

Total # of neighbors = 1944154
Ave neighs/atom = 98.9291
Neighbor list builds = 495
Dangerous builds not checked
Setting up Verlet run ...
  Unit style    : metal
  Current step  : 46495
  Time step     : 0.001
Per MPI rank memory allocation (min/avg/max) = 13.05 | 13.06 | 13.06 Mbytes
Step Temp Press TotEng PotEng Enthalpy Volume 
   46495    2110.8119    1340.4072   -63129.111   -68490.765   -62782.754    413996.97 
   47000    2104.4492    655.92428   -63244.377   -68589.869   -63075.074    413542.01 
Loop time of 70.4498 on 2 procs for 505 steps with 19652 atoms

Performance: 0.619 ns/day, 38.751 hours/ns, 7.168 timesteps/s
99.1% CPU use with 2 MPI tasks x no OpenMP threads

MPI task timing breakdown:
Section |  min time  |  avg time  |  max time  |%varavg| %total
---------------------------------------------------------------
Pair    | 43.914     | 44.019     | 44.125     |   1.6 | 62.48
Neigh   | 24.094     | 24.112     | 24.13      |   0.4 | 34.23
Comm    | 1.6311     | 1.7601     | 1.8892     |   9.7 |  2.50
Output  | 0.031613   | 0.031618   | 0.031623   |   0.0 |  0.04
Modify  | 0.41553    | 0.42055    | 0.42557    |   0.8 |  0.60
Other   |            | 0.1062     |            |       |  0.15

Nlocal:    9826 ave 9834 max 9818 min
Histogram: 1 0 0 0 0 0 0 0 0 1
Nghost:    14486 ave 14513 max 14459 min
Histogram: 1 0 0 0 0 0 0 0 0 1
Neighs:    972958 ave 973450 max 972467 min
Histogram: 1 0 0 0 0 0 0 0 0 1

Total # of neighbors = 1945917
Ave neighs/atom = 99.0188
Neighbor list builds = 505
Dangerous builds not checked
Setting up Verlet run ...
  Unit style    : metal
  Current step  : 47000
  Time step     : 0.001
Per MPI rank memory allocation (min/avg/max) = 13.05 | 13.06 | 13.06 Mbytes
Step Temp Press TotEng PotEng Enthalpy Volume 
   47000    2104.4492    655.92428   -63244.377   -68589.869   -63075.074    413542.01 
   47495    2080.0549    844.04935   -63404.278   -68687.807   -63187.046    412350.28 
Loop time of 68.0577 on 2 procs for 495 steps with 19652 atoms

Performance: 0.628 ns/day, 38.192 hours/ns, 7.273 timesteps/s
98.1% CPU use with 2 MPI tasks x no OpenMP threads

MPI task timing breakdown:
Section |  min time  |  avg time  |  max time  |%varavg| %total
---------------------------------------------------------------
Pair    | 42.982     | 43.074     | 43.165     |   1.4 | 63.29
Neigh   | 23.142     | 23.299     | 23.456     |   3.2 | 34.23
Comm    | 0.95718    | 1.2067     | 1.4563     |  22.7 |  1.77
Output  | 7.391e-05  | 0.0001564  | 0.0002389  |   0.0 |  0.00
Modify  | 0.37514    | 0.37587    | 0.37659    |   0.1 |  0.55
Other   |            | 0.1025     |            |       |  0.15

Nlocal:    9826 ave 9872 max 9780 min
Histogram: 1 0 0 0 0 0 0 0 0 1
Nghost:    14485 ave 14509 max 14461 min
Histogram: 1 0 0 0 0 0 0 0 0 1
Neighs:    975833 ave 983179 max 968487 min
Histogram: 1 0 0 0 0 0 0 0 0 1

Total # of neighbors = 1951666
Ave neighs/atom = 99.3113
Neighbor list builds = 495
Dangerous builds not checked
Setting up Verlet run ...
  Unit style    : metal
  Current step  : 47495
  Time step     : 0.001
Per MPI rank memory allocation (min/avg/max) = 13.05 | 13.06 | 13.06 Mbytes
Step Temp Press TotEng PotEng Enthalpy Volume 
   47495    2080.0549    844.04935   -63404.278   -68687.807   -63187.046    412350.28 
   48000    2044.0485    1035.0439   -63479.874   -68671.943   -63213.511    412311.87 
Loop time of 70.2459 on 2 procs for 505 steps with 19652 atoms

Performance: 0.621 ns/day, 38.639 hours/ns, 7.189 timesteps/s
98.1% CPU use with 2 MPI tasks x no OpenMP threads

MPI task timing breakdown:
Section |  min time  |  avg time  |  max time  |%varavg| %total
---------------------------------------------------------------
Pair    | 43.666     | 43.816     | 43.966     |   2.3 | 62.37
Neigh   | 22.584     | 23.506     | 24.427     |  19.0 | 33.46
Comm    | 1.6027     | 2.3941     | 3.1855     |  51.1 |  3.41
Output  | 0.032937   | 0.03295    | 0.032964   |   0.0 |  0.05
Modify  | 0.37347    | 0.39245    | 0.41142    |   3.0 |  0.56
Other   |            | 0.1049     |            |       |  0.15

Nlocal:    9826 ave 9853 max 9799 min
Histogram: 1 0 0 0 0 0 0 0 0 1
Nghost:    14482.5 ave 14492 max 14473 min
Histogram: 1 0 0 0 0 0 0 0 0 1
Neighs:    975872 ave 980193 max 971550 min
Histogram: 1 0 0 0 0 0 0 0 0 1

Total # of neighbors = 1951743
Ave neighs/atom = 99.3152
Neighbor list builds = 505
Dangerous builds not checked
Setting up Verlet run ...
  Unit style    : metal
  Current step  : 48000
  Time step     : 0.001
Per MPI rank memory allocation (min/avg/max) = 13.06 | 13.06 | 13.07 Mbytes
Step Temp Press TotEng PotEng Enthalpy Volume 
   48000    2044.0485    1035.0439   -63479.874   -68671.943   -63213.511    412311.87 
   48495    2023.7983    503.38179    -63698.98   -68839.612   -63569.879    410905.32 
Loop time of 65.3602 on 2 procs for 495 steps with 19652 atoms

Performance: 0.654 ns/day, 36.678 hours/ns, 7.573 timesteps/s
98.4% CPU use with 2 MPI tasks x no OpenMP threads

MPI task timing breakdown:
Section |  min time  |  avg time  |  max time  |%varavg| %total
---------------------------------------------------------------
Pair    | 39.835     | 39.913     | 39.991     |   1.2 | 61.07
Neigh   | 20.956     | 21.541     | 22.125     |  12.6 | 32.96
Comm    | 2.9103     | 3.4406     | 3.9708     |  28.6 |  5.26
Output  | 8.5115e-05 | 0.00012505 | 0.00016499 |   0.0 |  0.00
Modify  | 0.34661    | 0.36958    | 0.39255    |   3.8 |  0.57
Other   |            | 0.0959     |            |       |  0.15

Nlocal:    9826 ave 9844 max 9808 min
Histogram: 1 0 0 0 0 0 0 0 0 1
Nghost:    14486 ave 14510 max 14462 min
Histogram: 1 0 0 0 0 0 0 0 0 1
Neighs:    979421 ave 980253 max 978589 min
Histogram: 1 0 0 0 0 0 0 0 0 1

Total # of neighbors = 1958842
Ave neighs/atom = 99.6765
Neighbor list builds = 495
Dangerous builds not checked
Setting up Verlet run ...
  Unit style    : metal
  Current step  : 48495
  Time step     : 0.001
Per MPI rank memory allocation (min/avg/max) = 13.06 | 13.06 | 13.07 Mbytes
Step Temp Press TotEng PotEng Enthalpy Volume 
   48495    2023.7983    503.38179    -63698.98   -68839.612   -63569.879    410905.32 
   49000    2017.1367    889.76757   -63725.103   -68848.814   -63497.206    410367.48 
Loop time of 71.5133 on 2 procs for 505 steps with 19652 atoms

Performance: 0.610 ns/day, 39.336 hours/ns, 7.062 timesteps/s
97.4% CPU use with 2 MPI tasks x no OpenMP threads

MPI task timing breakdown:
Section |  min time  |  avg time  |  max time  |%varavg| %total
---------------------------------------------------------------
Pair    | 44.761     | 44.821     | 44.881     |   0.9 | 62.67
Neigh   | 22.969     | 23.732     | 24.496     |  15.7 | 33.19
Comm    | 1.7158     | 2.4297     | 3.1435     |  45.8 |  3.40
Output  | 0.037101   | 0.037172   | 0.037243   |   0.0 |  0.05
Modify  | 0.38033    | 0.38831    | 0.39628    |   1.3 |  0.54
Other   |            | 0.105      |            |       |  0.15

Nlocal:    9826 ave 9853 max 9799 min
Histogram: 1 0 0 0 0 0 0 0 0 1
Nghost:    14530.5 ave 14545 max 14516 min
Histogram: 1 0 0 0 0 0 0 0 0 1
Neighs:    980251 ave 985045 max 975457 min
Histogram: 1 0 0 0 0 0 0 0 0 1

Total # of neighbors = 1960502
Ave neighs/atom = 99.7609
Neighbor list builds = 505
Dangerous builds not checked
Setting up Verlet run ...
  Unit style    : metal
  Current step  : 49000
  Time step     : 0.001
Per MPI rank memory allocation (min/avg/max) = 13.06 | 13.06 | 13.07 Mbytes
Step Temp Press TotEng PotEng Enthalpy Volume 
   49000    2017.1367    889.76757   -63725.103   -68848.814   -63497.206    410367.48 
   49495    1969.1479    742.94473    -63976.61   -68978.425   -63786.875    409168.34 
Loop time of 64.8041 on 2 procs for 495 steps with 19652 atoms

Performance: 0.660 ns/day, 36.366 hours/ns, 7.638 timesteps/s
98.6% CPU use with 2 MPI tasks x no OpenMP threads

MPI task timing breakdown:
Section |  min time  |  avg time  |  max time  |%varavg| %total
---------------------------------------------------------------
Pair    | 40.653     | 40.677     | 40.701     |   0.4 | 62.77
Neigh   | 20.891     | 21.821     | 22.752     |  19.9 | 33.67
Comm    | 0.88534    | 1.8518     | 2.8182     |  71.0 |  2.86
Output  | 7.3195e-05 | 0.00011659 | 0.00015998 |   0.0 |  0.00
Modify  | 0.34836    | 0.35688    | 0.3654     |   1.4 |  0.55
Other   |            | 0.09707    |            |       |  0.15

Nlocal:    9826 ave 9861 max 9791 min
Histogram: 1 0 0 0 0 0 0 0 0 1
Nghost:    14527.5 ave 14535 max 14520 min
Histogram: 1 0 0 0 0 0 0 0 0 1
Neighs:    983228 ave 989766 max 976690 min
Histogram: 1 0 0 0 0 0 0 0 0 1

Total # of neighbors = 1966456
Ave neighs/atom = 100.064
Neighbor list builds = 495
Dangerous builds not checked
Setting up Verlet run ...
  Unit style    : metal
  Current step  : 49495
  Time step     : 0.001
Per MPI rank memory allocation (min/avg/max) = 13.06 | 13.06 | 13.07 Mbytes
Step Temp Press TotEng PotEng Enthalpy Volume 
   49495    1969.1479    742.94473    -63976.61   -68978.425   -63786.875    409168.34 
   50000    1951.5838    679.35352   -64057.856   -69015.057   -63884.631    408531.33 
Loop time of 66.8217 on 2 procs for 505 steps with 19652 atoms

Performance: 0.653 ns/day, 36.756 hours/ns, 7.557 timesteps/s
98.8% CPU use with 2 MPI tasks x no OpenMP threads

MPI task timing breakdown:
Section |  min time  |  avg time  |  max time  |%varavg| %total
---------------------------------------------------------------
Pair    | 41.886     | 41.936     | 41.985     |   0.8 | 62.76
Neigh   | 22.284     | 22.491     | 22.699     |   4.4 | 33.66
Comm    | 1.6445     | 1.9029     | 2.1612     |  18.7 |  2.85
Output  | 0.026176   | 0.026193   | 0.02621    |   0.0 |  0.04
Modify  | 0.36467    | 0.36588    | 0.36709    |   0.2 |  0.55
Other   |            | 0.0998     |            |       |  0.15

Nlocal:    9826 ave 9828 max 9824 min
Histogram: 1 0 0 0 0 0 0 0 0 1
Nghost:    14515 ave 14529 max 14501 min
Histogram: 1 0 0 0 0 0 0 0 0 1
Neighs:    985090 ave 986637 max 983544 min
Histogram: 1 0 0 0 0 0 0 0 0 1

Total # of neighbors = 1970181
Ave neighs/atom = 100.253
Neighbor list builds = 505
Dangerous builds not checked
Setting up Verlet run ...
  Unit style    : metal
  Current step  : 50000
  Time step     : 0.001
Per MPI rank memory allocation (min/avg/max) = 13.06 | 13.06 | 13.07 Mbytes
Step Temp Press TotEng PotEng Enthalpy Volume 
   50000    1951.5838    679.35352   -64057.856   -69015.057   -63884.631    408531.33 
   50495    1900.7148    1421.1541   -64278.799   -69106.788   -63917.684    407112.92 
Loop time of 67.9447 on 2 procs for 495 steps with 19652 atoms

Performance: 0.629 ns/day, 38.128 hours/ns, 7.285 timesteps/s
98.5% CPU use with 2 MPI tasks x no OpenMP threads

MPI task timing breakdown:
Section |  min time  |  avg time  |  max time  |%varavg| %total
---------------------------------------------------------------
Pair    | 42.791     | 42.848     | 42.906     |   0.9 | 63.06
Neigh   | 21.85      | 22.501     | 23.151     |  13.7 | 33.12
Comm    | 1.4081     | 2.1255     | 2.8429     |  49.2 |  3.13
Output  | 8.4877e-05 | 0.00011599 | 0.0001471  |   0.0 |  0.00
Modify  | 0.36257    | 0.36974    | 0.37692    |   1.2 |  0.54
Other   |            | 0.1006     |            |       |  0.15

Nlocal:    9826 ave 9857 max 9795 min
Histogram: 1 0 0 0 0 0 0 0 0 1
Nghost:    14536.5 ave 14550 max 14523 min
Histogram: 1 0 0 0 0 0 0 0 0 1
Neighs:    988266 ave 992965 max 983566 min
Histogram: 1 0 0 0 0 0 0 0 0 1

Total # of neighbors = 1976531
Ave neighs/atom = 100.577
Neighbor list builds = 495
Dangerous builds not checked
Setting up Verlet run ...
  Unit style    : metal
  Current step  : 50495
  Time step     : 0.001
Per MPI rank memory allocation (min/avg/max) = 13.06 | 13.06 | 13.07 Mbytes
Step Temp Press TotEng PotEng Enthalpy Volume 
   50495    1900.7148    1421.1541   -64278.799   -69106.788   -63917.684    407112.92 
   51000    1902.2565    1344.6164   -64339.012   -69170.917   -63997.774    406602.24 
Loop time of 68.7892 on 2 procs for 505 steps with 19652 atoms

Performance: 0.634 ns/day, 37.838 hours/ns, 7.341 timesteps/s
99.5% CPU use with 2 MPI tasks x no OpenMP threads

MPI task timing breakdown:
Section |  min time  |  avg time  |  max time  |%varavg| %total
---------------------------------------------------------------
Pair    | 43.167     | 43.18      | 43.193     |   0.2 | 62.77
Neigh   | 22.675     | 22.921     | 23.166     |   5.1 | 33.32
Comm    | 1.8698     | 2.1036     | 2.3374     |  16.1 |  3.06
Output  | 0.036094   | 0.03611    | 0.036126   |   0.0 |  0.05
Modify  | 0.44583    | 0.44736    | 0.44889    |   0.2 |  0.65
Other   |            | 0.1008     |            |       |  0.15

Nlocal:    9826 ave 9857 max 9795 min
Histogram: 1 0 0 0 0 0 0 0 0 1
Nghost:    14618 ave 14619 max 14617 min
Histogram: 1 0 0 0 0 0 0 0 0 1
Neighs:    989896 ave 997524 max 982269 min
Histogram: 1 0 0 0 0 0 0 0 0 1

Total # of neighbors = 1979793
Ave neighs/atom = 100.743
Neighbor list builds = 505
Dangerous builds not checked
Setting up Verlet run ...
  Unit style    : metal
  Current step  : 51000
  Time step     : 0.001
Per MPI rank memory allocation (min/avg/max) = 13.06 | 13.06 | 13.07 Mbytes
Step Temp Press TotEng PotEng Enthalpy Volume 
   51000    1902.2565    1344.6164   -64339.012   -69170.917   -63997.774    406602.24 
   51495    1879.4722    1248.9689   -64525.145   -69299.176   -64209.236    405248.78 
Loop time of 62.8805 on 2 procs for 495 steps with 19652 atoms

Performance: 0.680 ns/day, 35.286 hours/ns, 7.872 timesteps/s
99.3% CPU use with 2 MPI tasks x no OpenMP threads

MPI task timing breakdown:
Section |  min time  |  avg time  |  max time  |%varavg| %total
---------------------------------------------------------------
Pair    | 39.269     | 39.379     | 39.488     |   1.7 | 62.62
Neigh   | 20.944     | 21.291     | 21.638     |   7.5 | 33.86
Comm    | 1.3044     | 1.7654     | 2.2265     |  34.7 |  2.81
Output  | 9.5844e-05 | 0.0001204  | 0.00014496 |   0.0 |  0.00
Modify  | 0.34734    | 0.35079    | 0.35423    |   0.6 |  0.56
Other   |            | 0.09461    |            |       |  0.15

Nlocal:    9826 ave 9842 max 9810 min
Histogram: 1 0 0 0 0 0 0 0 0 1
Nghost:    14552 ave 14556 max 14548 min
Histogram: 1 0 0 0 0 0 0 0 0 1
Neighs:    993117 ave 994721 max 991513 min
Histogram: 1 0 0 0 0 0 0 0 0 1

Total # of neighbors = 1986234
Ave neighs/atom = 101.07
Neighbor list builds = 495
Dangerous builds not checked
Setting up Verlet run ...
  Unit style    : metal
  Current step  : 51495
  Time step     : 0.001
Per MPI rank memory allocation (min/avg/max) = 13.06 | 13.06 | 13.07 Mbytes
Step Temp Press TotEng PotEng Enthalpy Volume 
   51495    1879.4722    1248.9689   -64525.145   -69299.176   -64209.236    405248.78 
   52000    1858.7175    751.71151   -64545.311   -69266.623   -64354.878    405883.73 
Loop time of 61.7427 on 2 procs for 505 steps with 19652 atoms

Performance: 0.707 ns/day, 33.962 hours/ns, 8.179 timesteps/s
99.9% CPU use with 2 MPI tasks x no OpenMP threads

MPI task timing breakdown:
Section |  min time  |  avg time  |  max time  |%varavg| %total
---------------------------------------------------------------
Pair    | 38.318     | 38.47      | 38.623     |   2.5 | 62.31
Neigh   | 20.175     | 20.861     | 21.548     |  15.0 | 33.79
Comm    | 1.0946     | 1.9436     | 2.7927     |  60.9 |  3.15
Output  | 0.028319   | 0.028328   | 0.028337   |   0.0 |  0.05
Modify  | 0.33843    | 0.34582    | 0.35321    |   1.3 |  0.56
Other   |            | 0.09331    |            |       |  0.15

Nlocal:    9826 ave 9830 max 9822 min
Histogram: 1 0 0 0 0 0 0 0 0 1
Nghost:    14547.5 ave 14557 max 14538 min
Histogram: 1 0 0 0 0 0 0 0 0 1
Neighs:    991290 ave 992659 max 989921 min
Histogram: 1 0 0 0 0 0 0 0 0 1

Total # of neighbors = 1982580
Ave neighs/atom = 100.884
Neighbor list builds = 505
Dangerous builds not checked
Setting up Verlet run ...
  Unit style    : metal
  Current step  : 52000
  Time step     : 0.001
Per MPI rank memory allocation (min/avg/max) = 13.06 | 13.06 | 13.07 Mbytes
Step Temp Press TotEng PotEng Enthalpy Volume 
   52000    1858.7175    751.71151   -64545.311   -69266.623   -64354.878    405883.73 
   52495    1820.6388   -220.58795   -64787.815   -69412.404    -64843.54    404744.61 
Loop time of 66.9242 on 2 procs for 495 steps with 19652 atoms

Performance: 0.639 ns/day, 37.556 hours/ns, 7.396 timesteps/s
98.1% CPU use with 2 MPI tasks x no OpenMP threads

MPI task timing breakdown:
Section |  min time  |  avg time  |  max time  |%varavg| %total
---------------------------------------------------------------
Pair    | 41.374     | 41.453     | 41.531     |   1.2 | 61.94
Neigh   | 21.569     | 21.924     | 22.279     |   7.6 | 32.76
Comm    | 2.8104     | 3.0848     | 3.3592     |  15.6 |  4.61
Output  | 7.9155e-05 | 0.00010562 | 0.00013208 |   0.0 |  0.00
Modify  | 0.36193    | 0.36386    | 0.3658     |   0.3 |  0.54
Other   |            | 0.09921    |            |       |  0.15

Nlocal:    9826 ave 9841 max 9811 min
Histogram: 1 0 0 0 0 0 0 0 0 1
Nghost:    14607.5 ave 14623 max 14592 min
Histogram: 1 0 0 0 0 0 0 0 0 1
Neighs:    994154 ave 997713 max 990596 min
Histogram: 1 0 0 0 0 0 0 0 0 1

Total # of neighbors = 1988309
Ave neighs/atom = 101.176
Neighbor list builds = 495
Dangerous builds not checked
Setting up Verlet run ...
  Unit style    : metal
  Current step  : 52495
  Time step     : 0.001
Per MPI rank memory allocation (min/avg/max) = 13.06 | 13.06 | 13.07 Mbytes
Step Temp Press TotEng PotEng Enthalpy Volume 
   52495    1820.6388   -220.58795   -64787.815   -69412.404    -64843.54    404744.61 
   53000     1804.234   -34.193878   -64869.477   -69452.396   -64878.103    404176.76 
Loop time of 67.0075 on 2 procs for 505 steps with 19652 atoms

Performance: 0.651 ns/day, 36.858 hours/ns, 7.536 timesteps/s
97.4% CPU use with 2 MPI tasks x no OpenMP threads

MPI task timing breakdown:
Section |  min time  |  avg time  |  max time  |%varavg| %total
---------------------------------------------------------------
Pair    | 41.801     | 42.002     | 42.204     |   3.1 | 62.68
Neigh   | 21.917     | 21.939     | 21.961     |   0.5 | 32.74
Comm    | 2.3407     | 2.5656     | 2.7905     |  14.0 |  3.83
Output  | 0.029829   | 0.029855   | 0.029882   |   0.0 |  0.04
Modify  | 0.37272    | 0.37283    | 0.37294    |   0.0 |  0.56
Other   |            | 0.0975     |            |       |  0.15

Nlocal:    9826 ave 9830 max 9822 min
Histogram: 1 0 0 0 0 0 0 0 0 1
Nghost:    14583.5 ave 14588 max 14579 min
Histogram: 1 0 0 0 0 0 0 0 0 1
Neighs:    995693 ave 997100 max 994286 min
Histogram: 1 0 0 0 0 0 0 0 0 1

Total # of neighbors = 1991386
Ave neighs/atom = 101.332
Neighbor list builds = 505
Dangerous builds not checked
Setting up Verlet run ...
  Unit style    : metal
  Current step  : 53000
  Time step     : 0.001
Per MPI rank memory allocation (min/avg/max) = 13.06 | 13.07 | 13.07 Mbytes
Step Temp Press TotEng PotEng Enthalpy Volume 
   53000     1804.234   -34.193878   -64869.477   -69452.396   -64878.103    404176.76 
   53495    1766.4357    650.16325   -65083.519   -69570.426   -64920.151    402580.54 
Loop time of 68.1802 on 2 procs for 495 steps with 19652 atoms

Performance: 0.627 ns/day, 38.261 hours/ns, 7.260 timesteps/s
98.5% CPU use with 2 MPI tasks x no OpenMP threads

MPI task timing breakdown:
Section |  min time  |  avg time  |  max time  |%varavg| %total
---------------------------------------------------------------
Pair    | 42.844     | 42.873     | 42.902     |   0.4 | 62.88
Neigh   | 22.186     | 22.304     | 22.423     |   2.5 | 32.71
Comm    | 2.3911     | 2.541      | 2.691      |   9.4 |  3.73
Output  | 8.2016e-05 | 0.00011301 | 0.000144   |   0.0 |  0.00
Modify  | 0.36209    | 0.3635     | 0.36491    |   0.2 |  0.53
Other   |            | 0.09849    |            |       |  0.14

Nlocal:    9826 ave 9835 max 9817 min
Histogram: 1 0 0 0 0 0 0 0 0 1
Nghost:    14663.5 ave 14665 max 14662 min
Histogram: 1 0 0 0 0 0 0 0 0 1
Neighs:    999264 ave 1.00122e+06 max 997307 min
Histogram: 1 0 0 0 0 0 0 0 0 1

Total # of neighbors = 1998527
Ave neighs/atom = 101.696
Neighbor list builds = 495
Dangerous builds not checked
Setting up Verlet run ...
  Unit style    : metal
  Current step  : 53495
  Time step     : 0.001
Per MPI rank memory allocation (min/avg/max) = 13.06 | 13.07 | 13.07 Mbytes
Step Temp Press TotEng PotEng Enthalpy Volume 
   53495    1766.4357    650.16325   -65083.519   -69570.426   -64920.151    402580.54 
   54000    1755.7034    174.20652   -65122.956   -69582.602   -65079.171    402685.86 
Loop time of 66.8715 on 2 procs for 505 steps with 19652 atoms

Performance: 0.652 ns/day, 36.783 hours/ns, 7.552 timesteps/s
99.6% CPU use with 2 MPI tasks x no OpenMP threads

MPI task timing breakdown:
Section |  min time  |  avg time  |  max time  |%varavg| %total
---------------------------------------------------------------
Pair    | 41.755     | 41.831     | 41.908     |   1.2 | 62.55
Neigh   | 20.798     | 21.967     | 23.136     |  24.9 | 32.85
Comm    | 1.3144     | 2.5761     | 3.8378     |  78.6 |  3.85
Output  | 0.036068   | 0.036088   | 0.036108   |   0.0 |  0.05
Modify  | 0.35114    | 0.36313    | 0.37511    |   2.0 |  0.54
Other   |            | 0.09811    |            |       |  0.15

Nlocal:    9826 ave 9845 max 9807 min
Histogram: 1 0 0 0 0 0 0 0 0 1
Nghost:    14644.5 ave 14673 max 14616 min
Histogram: 1 0 0 0 0 0 0 0 0 1
Neighs:    999164 ave 1.00429e+06 max 994040 min
Histogram: 1 0 0 0 0 0 0 0 0 1

Total # of neighbors = 1998329
Ave neighs/atom = 101.686
Neighbor list builds = 505
Dangerous builds not checked
Setting up Verlet run ...
  Unit style    : metal
  Current step  : 54000
  Time step     : 0.001
Per MPI rank memory allocation (min/avg/max) = 13.06 | 13.07 | 13.07 Mbytes
Step Temp Press TotEng PotEng Enthalpy Volume 
   54000    1755.7034    174.20652   -65122.956   -69582.602   -65079.171    402685.86 
   54495    1716.8692    369.37337   -65333.768   -69694.772   -65241.223    401417.17 
Loop time of 63.2515 on 2 procs for 495 steps with 19652 atoms

Performance: 0.676 ns/day, 35.495 hours/ns, 7.826 timesteps/s
99.8% CPU use with 2 MPI tasks x no OpenMP threads

MPI task timing breakdown:
Section |  min time  |  avg time  |  max time  |%varavg| %total
---------------------------------------------------------------
Pair    | 39.478     | 39.499     | 39.52      |   0.3 | 62.45
Neigh   | 21.113     | 21.122     | 21.131     |   0.2 | 33.39
Comm    | 2.1826     | 2.1952     | 2.2078     |   0.9 |  3.47
Output  | 8.1062e-05 | 0.00012147 | 0.00016189 |   0.0 |  0.00
Modify  | 0.34041    | 0.3412     | 0.34198    |   0.1 |  0.54
Other   |            | 0.09427    |            |       |  0.15

Nlocal:    9826 ave 9848 max 9804 min
Histogram: 1 0 0 0 0 0 0 0 0 1
Nghost:    14661.5 ave 14690 max 14633 min
Histogram: 1 0 0 0 0 0 0 0 0 1
Neighs:    1.00206e+06 ave 1.00716e+06 max 996960 min
Histogram: 1 0 0 0 0 0 0 0 0 1

Total # of neighbors = 2004124
Ave neighs/atom = 101.981
Neighbor list builds = 495
Dangerous builds not checked
Setting up Verlet run ...
  Unit style    : metal
  Current step  : 54495
  Time step     : 0.001
Per MPI rank memory allocation (min/avg/max) = 13.06 | 13.07 | 13.07 Mbytes
Step Temp Press TotEng PotEng Enthalpy Volume 
   54495    1716.8692    369.37337   -65333.768   -69694.772   -65241.223    401417.17 
   55000    1689.1344    363.49397   -65453.656   -69744.212   -65362.717    400833.77 
Loop time of 62.7424 on 2 procs for 505 steps with 19652 atoms

Performance: 0.695 ns/day, 34.512 hours/ns, 8.049 timesteps/s
99.3% CPU use with 2 MPI tasks x no OpenMP threads

MPI task timing breakdown:
Section |  min time  |  avg time  |  max time  |%varavg| %total
---------------------------------------------------------------
Pair    | 38.652     | 38.871     | 39.09      |   3.5 | 61.95
Neigh   | 20.737     | 21.121     | 21.505     |   8.4 | 33.66
Comm    | 1.6699     | 2.2799     | 2.89       |  40.4 |  3.63
Output  | 0.034488   | 0.034503   | 0.034518   |   0.0 |  0.05
Modify  | 0.33642    | 0.34139    | 0.34637    |   0.9 |  0.54
Other   |            | 0.09411    |            |       |  0.15

Nlocal:    9826 ave 9847 max 9805 min
Histogram: 1 0 0 0 0 0 0 0 0 1
Nghost:    14628 ave 14633 max 14623 min
Histogram: 1 0 0 0 0 0 0 0 0 1
Neighs:    1.00383e+06 ave 1.00619e+06 max 1.00147e+06 min
Histogram: 1 0 0 0 0 0 0 0 0 1

Total # of neighbors = 2007664
Ave neighs/atom = 102.161
Neighbor list builds = 505
Dangerous builds not checked
Setting up Verlet run ...
  Unit style    : metal
  Current step  : 55000
  Time step     : 0.001
Per MPI rank memory allocation (min/avg/max) = 13.06 | 13.07 | 13.07 Mbytes
Step Temp Press TotEng PotEng Enthalpy Volume 
   55000    1689.1344    363.49397   -65453.656   -69744.212   -65362.717    400833.77 
   55495    1660.5672    892.03652   -65626.071   -69844.063   -65403.667    399457.35 
Loop time of 61.6475 on 2 procs for 495 steps with 19652 atoms

Performance: 0.694 ns/day, 34.595 hours/ns, 8.030 timesteps/s
98.9% CPU use with 2 MPI tasks x no OpenMP threads

MPI task timing breakdown:
Section |  min time  |  avg time  |  max time  |%varavg| %total
---------------------------------------------------------------
Pair    | 38.3       | 38.497     | 38.693     |   3.2 | 62.45
Neigh   | 20.425     | 20.629     | 20.833     |   4.5 | 33.46
Comm    | 2.0861     | 2.0943     | 2.1026     |   0.6 |  3.40
Output  | 7.7009e-05 | 0.00011003 | 0.00014305 |   0.0 |  0.00
Modify  | 0.33394    | 0.33435    | 0.33476    |   0.1 |  0.54
Other   |            | 0.09338    |            |       |  0.15

Nlocal:    9826 ave 9828 max 9824 min
Histogram: 1 0 0 0 0 0 0 0 0 1
Nghost:    14717 ave 14746 max 14688 min
Histogram: 1 0 0 0 0 0 0 0 0 1
Neighs:    1.00726e+06 ave 1.00837e+06 max 1.00615e+06 min
Histogram: 1 0 0 0 0 0 0 0 0 1

Total # of neighbors = 2014514
Ave neighs/atom = 102.509
Neighbor list builds = 495
Dangerous builds not checked
Setting up Verlet run ...
  Unit style    : metal
  Current step  : 55495
  Time step     : 0.001
Per MPI rank memory allocation (min/avg/max) = 13.06 | 13.07 | 13.07 Mbytes
Step Temp Press TotEng PotEng Enthalpy Volume 
   55495    1660.5672    892.03652   -65626.071   -69844.063   -65403.667    399457.35 
   56000    1626.8342    796.57063   -65789.604   -69921.911   -65591.378    398701.03 
Loop time of 66.4834 on 2 procs for 505 steps with 19652 atoms

Performance: 0.656 ns/day, 36.570 hours/ns, 7.596 timesteps/s
99.4% CPU use with 2 MPI tasks x no OpenMP threads

MPI task timing breakdown:
Section |  min time  |  avg time  |  max time  |%varavg| %total
---------------------------------------------------------------
Pair    | 41.755     | 41.911     | 42.068     |   2.4 | 63.04
Neigh   | 21.964     | 22.222     | 22.48      |   5.5 | 33.42
Comm    | 1.7526     | 1.8544     | 1.9562     |   7.5 |  2.79
Output  | 0.032597   | 0.032625   | 0.032653   |   0.0 |  0.05
Modify  | 0.36431    | 0.36457    | 0.36483    |   0.0 |  0.55
Other   |            | 0.09886    |            |       |  0.15

Nlocal:    9826 ave 9840 max 9812 min
Histogram: 1 0 0 0 0 0 0 0 0 1
Nghost:    14683.5 ave 14704 max 14663 min
Histogram: 1 0 0 0 0 0 0 0 0 1
Neighs:    1.00924e+06 ave 1.01177e+06 max 1.0067e+06 min
Histogram: 1 0 0 0 0 0 0 0 0 1

Total # of neighbors = 2018476
Ave neighs/atom = 102.711
Neighbor list builds = 505
Dangerous builds not checked
Setting up Verlet run ...
  Unit style    : metal
  Current step  : 56000
  Time step     : 0.001
Per MPI rank memory allocation (min/avg/max) = 13.06 | 13.07 | 13.07 Mbytes
Step Temp Press TotEng PotEng Enthalpy Volume 
   56000    1626.8342    796.57063   -65789.604   -69921.911   -65591.378    398701.03 
   56495    1601.3238    1175.9168    -65892.57   -69960.078   -65600.334       398169 
Loop time of 68.9845 on 2 procs for 495 steps with 19652 atoms

Performance: 0.620 ns/day, 38.712 hours/ns, 7.176 timesteps/s
98.2% CPU use with 2 MPI tasks x no OpenMP threads

MPI task timing breakdown:
Section |  min time  |  avg time  |  max time  |%varavg| %total
---------------------------------------------------------------
Pair    | 43.152     | 43.27      | 43.388     |   1.8 | 62.72
Neigh   | 22.234     | 22.322     | 22.41      |   1.9 | 32.36
Comm    | 2.7208     | 2.9295     | 3.1383     |  12.2 |  4.25
Output  | 8.3923e-05 | 0.00011301 | 0.0001421  |   0.0 |  0.00
Modify  | 0.36183    | 0.364      | 0.36618    |   0.4 |  0.53
Other   |            | 0.09865    |            |       |  0.14

Nlocal:    9826 ave 9839 max 9813 min
Histogram: 1 0 0 0 0 0 0 0 0 1
Nghost:    14713 ave 14732 max 14694 min
Histogram: 1 0 0 0 0 0 0 0 0 1
Neighs:    1.01056e+06 ave 1.01209e+06 max 1.00904e+06 min
Histogram: 1 0 0 0 0 0 0 0 0 1

Total # of neighbors = 2021125
Ave neighs/atom = 102.846
Neighbor list builds = 495
Dangerous builds not checked
Setting up Verlet run ...
  Unit style    : metal
  Current step  : 56495
  Time step     : 0.001
Per MPI rank memory allocation (min/avg/max) = 13.06 | 13.07 | 13.07 Mbytes
Step Temp Press TotEng PotEng Enthalpy Volume 
   56495    1601.3238    1175.9168    -65892.57   -69960.078   -65600.334       398169 
   57000    1589.5381   -23.231498   -66011.725   -70049.297   -66017.492     397733.4 
Loop time of 70.2622 on 2 procs for 505 steps with 19652 atoms

Performance: 0.621 ns/day, 38.648 hours/ns, 7.187 timesteps/s
99.1% CPU use with 2 MPI tasks x no OpenMP threads

MPI task timing breakdown:
Section |  min time  |  avg time  |  max time  |%varavg| %total
---------------------------------------------------------------
Pair    | 44.286     | 44.449     | 44.613     |   2.5 | 63.26
Neigh   | 22.944     | 22.973     | 23.002     |   0.6 | 32.70
Comm    | 2.1815     | 2.318      | 2.4545     |   9.0 |  3.30
Output  | 0.037287   | 0.037298   | 0.037309   |   0.0 |  0.05
Modify  | 0.37923    | 0.37962    | 0.38       |   0.1 |  0.54
Other   |            | 0.1045     |            |       |  0.15

Nlocal:    9826 ave 9833 max 9819 min
Histogram: 1 0 0 0 0 0 0 0 0 1
Nghost:    14740.5 ave 14763 max 14718 min
Histogram: 1 0 0 0 0 0 0 0 0 1
Neighs:    1.01147e+06 ave 1.01325e+06 max 1.00969e+06 min
Histogram: 1 0 0 0 0 0 0 0 0 1

Total # of neighbors = 2022937
Ave neighs/atom = 102.938
Neighbor list builds = 505
Dangerous builds not checked
Setting up Verlet run ...
  Unit style    : metal
  Current step  : 57000
  Time step     : 0.001
Per MPI rank memory allocation (min/avg/max) = 13.06 | 13.07 | 13.07 Mbytes
Step Temp Press TotEng PotEng Enthalpy Volume 
   57000    1589.5381   -23.231498   -66011.725   -70049.297   -66017.492     397733.4 
   57495    1563.6265    1201.4696   -66189.074   -70160.827   -65892.069    396059.15 
Loop time of 66.438 on 2 procs for 495 steps with 19652 atoms

Performance: 0.644 ns/day, 37.283 hours/ns, 7.451 timesteps/s
99.1% CPU use with 2 MPI tasks x no OpenMP threads

MPI task timing breakdown:
Section |  min time  |  avg time  |  max time  |%varavg| %total
---------------------------------------------------------------
Pair    | 41.664     | 41.87      | 42.077     |   3.2 | 63.02
Neigh   | 20.87      | 21.766     | 22.662     |  19.2 | 32.76
Comm    | 1.2185     | 2.3421     | 3.4657     |  73.4 |  3.53
Output  | 8.893e-05  | 0.00011194 | 0.00013494 |   0.0 |  0.00
Modify  | 0.34589    | 0.36266    | 0.37943    |   2.8 |  0.55
Other   |            | 0.09698    |            |       |  0.15

Nlocal:    9826 ave 9827 max 9825 min
Histogram: 1 0 0 0 0 0 0 0 0 1
Nghost:    14722.5 ave 14750 max 14695 min
Histogram: 1 0 0 0 0 0 0 0 0 1
Neighs:    1.01612e+06 ave 1.01643e+06 max 1.01582e+06 min
Histogram: 1 0 0 0 0 0 0 0 0 1

Total # of neighbors = 2032249
Ave neighs/atom = 103.412
Neighbor list builds = 495
Dangerous builds not checked
Setting up Verlet run ...
  Unit style    : metal
  Current step  : 57495
  Time step     : 0.001
Per MPI rank memory allocation (min/avg/max) = 13.06 | 13.07 | 13.07 Mbytes
Step Temp Press TotEng PotEng Enthalpy Volume 
   57495    1563.6265    1201.4696   -66189.074   -70160.827   -65892.069    396059.15 
   58000    1533.9808    179.53084   -66332.269    -70228.72   -66287.939    395607.19 
Loop time of 71.6194 on 2 procs for 505 steps with 19652 atoms

Performance: 0.609 ns/day, 39.395 hours/ns, 7.051 timesteps/s
97.3% CPU use with 2 MPI tasks x no OpenMP threads

MPI task timing breakdown:
Section |  min time  |  avg time  |  max time  |%varavg| %total
---------------------------------------------------------------
Pair    | 45.743     | 45.877     | 46.01      |   2.0 | 64.06
Neigh   | 22.738     | 23.163     | 23.588     |   8.8 | 32.34
Comm    | 1.4966     | 2.0626     | 2.6286     |  39.4 |  2.88
Output  | 0.034169   | 0.034226   | 0.034284   |   0.0 |  0.05
Modify  | 0.37328    | 0.37853    | 0.38378    |   0.9 |  0.53
Other   |            | 0.1045     |            |       |  0.15

Nlocal:    9826 ave 9834 max 9818 min
Histogram: 1 0 0 0 0 0 0 0 0 1
Nghost:    14760.5 ave 14766 max 14755 min
Histogram: 1 0 0 0 0 0 0 0 0 1
Neighs:    1.01748e+06 ave 1.01906e+06 max 1.0159e+06 min
Histogram: 1 0 0 0 0 0 0 0 0 1

Total # of neighbors = 2034961
Ave neighs/atom = 103.55
Neighbor list builds = 505
Dangerous builds not checked
Setting up Verlet run ...
  Unit style    : metal
  Current step  : 58000
  Time step     : 0.001
Per MPI rank memory allocation (min/avg/max) = 13.06 | 13.07 | 13.07 Mbytes
Step Temp Press TotEng PotEng Enthalpy Volume 
   58000    1533.9808    179.53084   -66332.269    -70228.72   -66287.939    395607.19 
   58495    1509.8663     849.7434   -66480.845   -70316.043   -66271.561    394600.95 
Loop time of 70.1597 on 2 procs for 495 steps with 19652 atoms

Performance: 0.610 ns/day, 39.371 hours/ns, 7.055 timesteps/s
99.4% CPU use with 2 MPI tasks x no OpenMP threads

MPI task timing breakdown:
Section |  min time  |  avg time  |  max time  |%varavg| %total
---------------------------------------------------------------
Pair    | 44.45      | 44.574     | 44.697     |   1.9 | 63.53
Neigh   | 23.083     | 23.25      | 23.417     |   3.5 | 33.14
Comm    | 1.8111     | 1.8569     | 1.9026     |   3.4 |  2.65
Output  | 7.8201e-05 | 9.8586e-05 | 0.00011897 |   0.0 |  0.00
Modify  | 0.37353    | 0.37523    | 0.37693    |   0.3 |  0.53
Other   |            | 0.1039     |            |       |  0.15

Nlocal:    9826 ave 9833 max 9819 min
Histogram: 1 0 0 0 0 0 0 0 0 1
Nghost:    14757.5 ave 14774 max 14741 min
Histogram: 1 0 0 0 0 0 0 0 0 1
Neighs:    1.01971e+06 ave 1.01984e+06 max 1.01958e+06 min
Histogram: 1 0 0 0 0 0 0 0 0 1

Total # of neighbors = 2039415
Ave neighs/atom = 103.776
Neighbor list builds = 495
Dangerous builds not checked
Setting up Verlet run ...
  Unit style    : metal
  Current step  : 58495
  Time step     : 0.001
Per MPI rank memory allocation (min/avg/max) = 13.06 | 13.07 | 13.07 Mbytes
Step Temp Press TotEng PotEng Enthalpy Volume 
   58495    1509.8663     849.7434   -66480.845   -70316.043   -66271.561    394600.95 
   59000    1489.0863    228.51294   -66593.472   -70375.887   -66537.261    394117.34 
Loop time of 71.6305 on 2 procs for 505 steps with 19652 atoms

Performance: 0.609 ns/day, 39.401 hours/ns, 7.050 timesteps/s
98.7% CPU use with 2 MPI tasks x no OpenMP threads

MPI task timing breakdown:
Section |  min time  |  avg time  |  max time  |%varavg| %total
---------------------------------------------------------------
Pair    | 45.363     | 45.384     | 45.405     |   0.3 | 63.36
Neigh   | 23.452     | 23.523     | 23.594     |   1.5 | 32.84
Comm    | 2.0985     | 2.1881     | 2.2777     |   6.1 |  3.05
Output  | 0.034708   | 0.03472    | 0.034732   |   0.0 |  0.05
Modify  | 0.39129    | 0.39463    | 0.39798    |   0.5 |  0.55
Other   |            | 0.1058     |            |       |  0.15

Nlocal:    9826 ave 9840 max 9812 min
Histogram: 1 0 0 0 0 0 0 0 0 1
Nghost:    14732 ave 14762 max 14702 min
Histogram: 1 0 0 0 0 0 0 0 0 1
Neighs:    1.02163e+06 ave 1.02327e+06 max 1.01999e+06 min
Histogram: 1 0 0 0 0 0 0 0 0 1

Total # of neighbors = 2043260
Ave neighs/atom = 103.972
Neighbor list builds = 505
Dangerous builds not checked
Setting up Verlet run ...
  Unit style    : metal
  Current step  : 59000
  Time step     : 0.001
Per MPI rank memory allocation (min/avg/max) = 13.06 | 13.07 | 13.07 Mbytes
Step Temp Press TotEng PotEng Enthalpy Volume 
   59000    1489.0863    228.51294   -66593.472   -70375.887   -66537.261    394117.34 
   59495    1476.3175    129.34192   -66758.359    -70508.34   -66726.631    393015.75 
Loop time of 68.0102 on 2 procs for 495 steps with 19652 atoms

Performance: 0.629 ns/day, 38.165 hours/ns, 7.278 timesteps/s
99.3% CPU use with 2 MPI tasks x no OpenMP threads

MPI task timing breakdown:
Section |  min time  |  avg time  |  max time  |%varavg| %total
---------------------------------------------------------------
Pair    | 42.802     | 42.948     | 43.093     |   2.2 | 63.15
Neigh   | 21.905     | 22.328     | 22.75      |   8.9 | 32.83
Comm    | 1.6927     | 2.2652     | 2.8377     |  38.0 |  3.33
Output  | 8.3923e-05 | 0.00011992 | 0.00015593 |   0.0 |  0.00
Modify  | 0.36558    | 0.36838    | 0.37118    |   0.5 |  0.54
Other   |            | 0.1011     |            |       |  0.15

Nlocal:    9826 ave 9835 max 9817 min
Histogram: 1 0 0 0 0 0 0 0 0 1
Nghost:    14807 ave 14807 max 14807 min
Histogram: 2 0 0 0 0 0 0 0 0 0
Neighs:    1.02403e+06 ave 1.02432e+06 max 1.02374e+06 min
Histogram: 1 0 0 0 0 0 0 0 0 1

Total # of neighbors = 2048062
Ave neighs/atom = 104.216
Neighbor list builds = 495
Dangerous builds not checked
Setting up Verlet run ...
  Unit style    : metal
  Current step  : 59495
  Time step     : 0.001
Per MPI rank memory allocation (min/avg/max) = 13.06 | 13.07 | 13.07 Mbytes
Step Temp Press TotEng PotEng Enthalpy Volume 
   59495    1476.3175    129.34192   -66758.359    -70508.34   -66726.631    393015.75 
   60000    1447.4971     217.9438    -66874.71   -70551.485   -66821.315    392527.28 
Loop time of 70.0747 on 2 procs for 505 steps with 19652 atoms

Performance: 0.623 ns/day, 38.545 hours/ns, 7.207 timesteps/s
98.8% CPU use with 2 MPI tasks x no OpenMP threads

MPI task timing breakdown:
Section |  min time  |  avg time  |  max time  |%varavg| %total
---------------------------------------------------------------
Pair    | 44.422     | 44.535     | 44.648     |   1.7 | 63.55
Neigh   | 22.284     | 22.423     | 22.562     |   2.9 | 32.00
Comm    | 2.3507     | 2.6086     | 2.8665     |  16.0 |  3.72
Output  | 0.036297   | 0.036318   | 0.036339   |   0.0 |  0.05
Modify  | 0.36592    | 0.36893    | 0.37193    |   0.5 |  0.53
Other   |            | 0.1025     |            |       |  0.15

Nlocal:    9826 ave 9826 max 9826 min
Histogram: 2 0 0 0 0 0 0 0 0 0
Nghost:    14808 ave 14810 max 14806 min
Histogram: 1 0 0 0 0 0 0 0 0 1
Neighs:    1.02545e+06 ave 1.02579e+06 max 1.02512e+06 min
Histogram: 1 0 0 0 0 0 0 0 0 1

Total # of neighbors = 2050906
Ave neighs/atom = 104.361
Neighbor list builds = 505
Dangerous builds not checked
Setting up Verlet run ...
  Unit style    : metal
  Current step  : 60000
  Time step     : 0.001
Per MPI rank memory allocation (min/avg/max) = 13.06 | 13.07 | 13.07 Mbytes
Step Temp Press TotEng PotEng Enthalpy Volume 
   60000    1447.4971     217.9438    -66874.71   -70551.485   -66821.315    392527.28 
   60495    1421.3505     720.3123   -67054.739   -70665.098   -66878.918    391073.69 
Loop time of 65.3882 on 2 procs for 495 steps with 19652 atoms

Performance: 0.654 ns/day, 36.694 hours/ns, 7.570 timesteps/s
97.0% CPU use with 2 MPI tasks x no OpenMP threads

MPI task timing breakdown:
Section |  min time  |  avg time  |  max time  |%varavg| %total
---------------------------------------------------------------
Pair    | 40.904     | 41.102     | 41.3       |   3.1 | 62.86
Neigh   | 20.852     | 21.394     | 21.936     |  11.7 | 32.72
Comm    | 1.6817     | 2.434      | 3.1862     |  48.2 |  3.72
Output  | 9.5129e-05 | 0.00011504 | 0.00013494 |   0.0 |  0.00
Modify  | 0.35432    | 0.36128    | 0.36825    |   1.2 |  0.55
Other   |            | 0.09657    |            |       |  0.15

Nlocal:    9826 ave 9839 max 9813 min
Histogram: 1 0 0 0 0 0 0 0 0 1
Nghost:    14800 ave 14815 max 14785 min
Histogram: 1 0 0 0 0 0 0 0 0 1
Neighs:    1.02913e+06 ave 1.0311e+06 max 1.02715e+06 min
Histogram: 1 0 0 0 0 0 0 0 0 1

Total # of neighbors = 2058259
Ave neighs/atom = 104.735
Neighbor list builds = 495
Dangerous builds not checked
Setting up Verlet run ...
  Unit style    : metal
  Current step  : 60495
  Time step     : 0.001
Per MPI rank memory allocation (min/avg/max) = 13.06 | 13.07 | 13.07 Mbytes
Step Temp Press TotEng PotEng Enthalpy Volume 
   60495    1421.3505     720.3123   -67054.739   -70665.098   -66878.918    391073.69 
   61000    1390.9628    476.16323    -67177.65   -70710.822   -67061.552    390641.23 
Loop time of 69.4841 on 2 procs for 505 steps with 19652 atoms

Performance: 0.628 ns/day, 38.220 hours/ns, 7.268 timesteps/s
98.7% CPU use with 2 MPI tasks x no OpenMP threads

MPI task timing breakdown:
Section |  min time  |  avg time  |  max time  |%varavg| %total
---------------------------------------------------------------
Pair    | 43.405     | 43.658     | 43.911     |   3.8 | 62.83
Neigh   | 21.124     | 21.572     | 22.019     |   9.6 | 31.05
Comm    | 3.0618     | 3.7698     | 4.4778     |  36.5 |  5.43
Output  | 0.036312   | 0.036325   | 0.036339   |   0.0 |  0.05
Modify  | 0.34453    | 0.35035    | 0.35618    |   1.0 |  0.50
Other   |            | 0.09768    |            |       |  0.14

Nlocal:    9826 ave 9864 max 9788 min
Histogram: 1 0 0 0 0 0 0 0 0 1
Nghost:    14807.5 ave 14814 max 14801 min
Histogram: 1 0 0 0 0 0 0 0 0 1
Neighs:    1.03009e+06 ave 1.03571e+06 max 1.02447e+06 min
Histogram: 1 0 0 0 0 0 0 0 0 1

Total # of neighbors = 2060182
Ave neighs/atom = 104.833
Neighbor list builds = 505
Dangerous builds not checked
Setting up Verlet run ...
  Unit style    : metal
  Current step  : 61000
  Time step     : 0.001
Per MPI rank memory allocation (min/avg/max) = 13.07 | 13.07 | 13.07 Mbytes
Step Temp Press TotEng PotEng Enthalpy Volume 
   61000    1390.9628    476.16323    -67177.65   -70710.822   -67061.552    390641.23 
   61495    1373.2596   -289.52888    -67354.34   -70842.545    -67424.78    389795.25 
Loop time of 71.9694 on 2 procs for 495 steps with 19652 atoms

Performance: 0.594 ns/day, 40.387 hours/ns, 6.878 timesteps/s
96.1% CPU use with 2 MPI tasks x no OpenMP threads

MPI task timing breakdown:
Section |  min time  |  avg time  |  max time  |%varavg| %total
---------------------------------------------------------------
Pair    | 45.294     | 45.777     | 46.26      |   7.1 | 63.61
Neigh   | 22.252     | 22.432     | 22.613     |   3.8 | 31.17
Comm    | 2.5062     | 3.175      | 3.8439     |  37.5 |  4.41
Output  | 8.2016e-05 | 0.00011098 | 0.00013995 |   0.0 |  0.00
Modify  | 0.47925    | 0.48185    | 0.48446    |   0.4 |  0.67
Other   |            | 0.1025     |            |       |  0.14

Nlocal:    9826 ave 9842 max 9810 min
Histogram: 1 0 0 0 0 0 0 0 0 1
Nghost:    14803.5 ave 14805 max 14802 min
Histogram: 1 0 0 0 0 0 0 0 0 1
Neighs:    1.03268e+06 ave 1.03479e+06 max 1.03058e+06 min
Histogram: 1 0 0 0 0 0 0 0 0 1

Total # of neighbors = 2065369
Ave neighs/atom = 105.097
Neighbor list builds = 495
Dangerous builds not checked
Setting up Verlet run ...
  Unit style    : metal
  Current step  : 61495
  Time step     : 0.001
Per MPI rank memory allocation (min/avg/max) = 13.07 | 13.07 | 13.07 Mbytes
Step Temp Press TotEng PotEng Enthalpy Volume 
   61495    1373.2596   -289.52888    -67354.34   -70842.545    -67424.78    389795.25 
   62000    1356.7325    262.71215   -67388.847   -70835.071   -67324.967    389575.04 
Loop time of 65.9653 on 2 procs for 505 steps with 19652 atoms

Performance: 0.661 ns/day, 36.285 hours/ns, 7.656 timesteps/s
98.4% CPU use with 2 MPI tasks x no OpenMP threads

MPI task timing breakdown:
Section |  min time  |  avg time  |  max time  |%varavg| %total
---------------------------------------------------------------
Pair    | 41.539     | 41.61      | 41.68      |   1.1 | 63.08
Neigh   | 20.685     | 20.921     | 21.157     |   5.2 | 31.72
Comm    | 2.6451     | 2.9537     | 3.2624     |  18.0 |  4.48
Output  | 0.036292   | 0.036306   | 0.036319   |   0.0 |  0.06
Modify  | 0.34738    | 0.34945    | 0.35151    |   0.3 |  0.53
Other   |            | 0.09484    |            |       |  0.14

Nlocal:    9826 ave 9829 max 9823 min
Histogram: 1 0 0 0 0 0 0 0 0 1
Nghost:    14838 ave 14861 max 14815 min
Histogram: 1 0 0 0 0 0 0 0 0 1
Neighs:    1.03317e+06 ave 1.03332e+06 max 1.03301e+06 min
Histogram: 1 0 0 0 0 0 0 0 0 1

Total # of neighbors = 2066331
Ave neighs/atom = 105.146
Neighbor list builds = 505
Dangerous builds not checked
Setting up Verlet run ...
  Unit style    : metal
  Current step  : 62000
  Time step     : 0.001
Per MPI rank memory allocation (min/avg/max) = 13.07 | 13.07 | 13.08 Mbytes
Step Temp Press TotEng PotEng Enthalpy Volume 
   62000    1356.7325    262.71215   -67388.847   -70835.071   -67324.967    389575.04 
   62495    1308.0302    471.45549   -67607.452   -70929.968   -67493.188    388311.41 
Loop time of 63.5214 on 2 procs for 495 steps with 19652 atoms

Performance: 0.673 ns/day, 35.646 hours/ns, 7.793 timesteps/s
99.1% CPU use with 2 MPI tasks x no OpenMP threads

MPI task timing breakdown:
Section |  min time  |  avg time  |  max time  |%varavg| %total
---------------------------------------------------------------
Pair    | 39.98      | 40.006     | 40.032     |   0.4 | 62.98
Neigh   | 19.934     | 20.651     | 21.368     |  15.8 | 32.51
Comm    | 1.6804     | 2.4322     | 3.184      |  48.2 |  3.83
Output  | 8.4877e-05 | 0.00010443 | 0.00012398 |   0.0 |  0.00
Modify  | 0.33217    | 0.33831    | 0.34444    |   1.1 |  0.53
Other   |            | 0.09351    |            |       |  0.15

Nlocal:    9826 ave 9860 max 9792 min
Histogram: 1 0 0 0 0 0 0 0 0 1
Nghost:    14864 ave 14906 max 14822 min
Histogram: 1 0 0 0 0 0 0 0 0 1
Neighs:    1.03629e+06 ave 1.04126e+06 max 1.03131e+06 min
Histogram: 1 0 0 0 0 0 0 0 0 1

Total # of neighbors = 2072574
Ave neighs/atom = 105.464
Neighbor list builds = 495
Dangerous builds not checked
Setting up Verlet run ...
  Unit style    : metal
  Current step  : 62495
  Time step     : 0.001
Per MPI rank memory allocation (min/avg/max) = 13.07 | 13.07 | 13.08 Mbytes
Step Temp Press TotEng PotEng Enthalpy Volume 
   62495    1308.0302    471.45549   -67607.452   -70929.968   -67493.188    388311.41 
   63000    1284.5591     645.8686   -67763.786   -71026.683   -67607.625    387379.58 
Loop time of 71.1403 on 2 procs for 505 steps with 19652 atoms

Performance: 0.613 ns/day, 39.131 hours/ns, 7.099 timesteps/s
97.7% CPU use with 2 MPI tasks x no OpenMP threads

MPI task timing breakdown:
Section |  min time  |  avg time  |  max time  |%varavg| %total
---------------------------------------------------------------
Pair    | 45.12      | 45.396     | 45.672     |   4.1 | 63.81
Neigh   | 22.372     | 22.532     | 22.691     |   3.4 | 31.67
Comm    | 2.2674     | 2.7046     | 3.1419     |  26.6 |  3.80
Output  | 0.035604   | 0.035622   | 0.035641   |   0.0 |  0.05
Modify  | 0.36743    | 0.36865    | 0.36986    |   0.2 |  0.52
Other   |            | 0.1034     |            |       |  0.15

Nlocal:    9826 ave 9851 max 9801 min
Histogram: 1 0 0 0 0 0 0 0 0 1
Nghost:    14876 ave 14886 max 14866 min
Histogram: 1 0 0 0 0 0 0 0 0 1
Neighs:    1.03909e+06 ave 1.04302e+06 max 1.03515e+06 min
Histogram: 1 0 0 0 0 0 0 0 0 1

Total # of neighbors = 2078176
Ave neighs/atom = 105.749
Neighbor list builds = 505
Dangerous builds not checked
Setting up Verlet run ...
  Unit style    : metal
  Current step  : 63000
  Time step     : 0.001
Per MPI rank memory allocation (min/avg/max) = 13.07 | 13.07 | 13.08 Mbytes
Step Temp Press TotEng PotEng Enthalpy Volume 
   63000    1284.5591     645.8686   -67763.786   -71026.683   -67607.625    387379.58 
   63495    1273.0759    387.74363   -67920.539   -71154.268   -67827.054     386285.3 
Loop time of 66.7107 on 2 procs for 495 steps with 19652 atoms

Performance: 0.641 ns/day, 37.436 hours/ns, 7.420 timesteps/s
98.6% CPU use with 2 MPI tasks x no OpenMP threads

MPI task timing breakdown:
Section |  min time  |  avg time  |  max time  |%varavg| %total
---------------------------------------------------------------
Pair    | 42.517     | 42.627     | 42.737     |   1.7 | 63.90
Neigh   | 21.115     | 21.5       | 21.886     |   8.3 | 32.23
Comm    | 1.6352     | 2.138      | 2.6408     |  34.4 |  3.20
Output  | 7.7963e-05 | 0.00010049 | 0.00012302 |   0.0 |  0.00
Modify  | 0.33998    | 0.34328    | 0.34658    |   0.6 |  0.51
Other   |            | 0.1021     |            |       |  0.15

Nlocal:    9826 ave 9848 max 9804 min
Histogram: 1 0 0 0 0 0 0 0 0 1
Nghost:    14888.5 ave 14931 max 14846 min
Histogram: 1 0 0 0 0 0 0 0 0 1
Neighs:    1.04215e+06 ave 1.04548e+06 max 1.03883e+06 min
Histogram: 1 0 0 0 0 0 0 0 0 1

Total # of neighbors = 2084309
Ave neighs/atom = 106.061
Neighbor list builds = 495
Dangerous builds not checked
Setting up Verlet run ...
  Unit style    : metal
  Current step  : 63495
  Time step     : 0.001
Per MPI rank memory allocation (min/avg/max) = 13.07 | 13.07 | 13.08 Mbytes
Step Temp Press TotEng PotEng Enthalpy Volume 
   63495    1273.0759    387.74363   -67920.539   -71154.268   -67827.054     386285.3 
   64000    1255.1907   -265.50036   -68031.358   -71219.657   -68095.318    385969.64 
Loop time of 72.2596 on 2 procs for 505 steps with 19652 atoms

Performance: 0.604 ns/day, 39.747 hours/ns, 6.989 timesteps/s
96.9% CPU use with 2 MPI tasks x no OpenMP threads

MPI task timing breakdown:
Section |  min time  |  avg time  |  max time  |%varavg| %total
---------------------------------------------------------------
Pair    | 45.488     | 45.504     | 45.52      |   0.2 | 62.97
Neigh   | 21.642     | 22.286     | 22.931     |  13.7 | 30.84
Comm    | 3.3319     | 3.9649     | 4.598      |  31.8 |  5.49
Output  | 0.040349   | 0.040364   | 0.040379   |   0.0 |  0.06
Modify  | 0.35773    | 0.36125    | 0.36477    |   0.6 |  0.50
Other   |            | 0.103      |            |       |  0.14

Nlocal:    9826 ave 9840 max 9812 min
Histogram: 1 0 0 0 0 0 0 0 0 1
Nghost:    14874 ave 14878 max 14870 min
Histogram: 1 0 0 0 0 0 0 0 0 1
Neighs:    1.04291e+06 ave 1.04456e+06 max 1.04126e+06 min
Histogram: 1 0 0 0 0 0 0 0 0 1

Total # of neighbors = 2085820
Ave neighs/atom = 106.138
Neighbor list builds = 505
Dangerous builds not checked
Setting up Verlet run ...
  Unit style    : metal
  Current step  : 64000
  Time step     : 0.001
Per MPI rank memory allocation (min/avg/max) = 13.07 | 13.07 | 13.08 Mbytes
Step Temp Press TotEng PotEng Enthalpy Volume 
   64000    1255.1907   -265.50036   -68031.358   -71219.657   -68095.318    385969.64 
   64495    1219.5897    73.433161   -68202.308   -71300.177   -68184.671    384795.45 
Loop time of 70.9824 on 2 procs for 495 steps with 19652 atoms

Performance: 0.603 ns/day, 39.833 hours/ns, 6.974 timesteps/s
97.3% CPU use with 2 MPI tasks x no OpenMP threads

MPI task timing breakdown:
Section |  min time  |  avg time  |  max time  |%varavg| %total
---------------------------------------------------------------
Pair    | 44.804     | 44.931     | 45.057     |   1.9 | 63.30
Neigh   | 20.531     | 21.012     | 21.492     |  10.5 | 29.60
Comm    | 3.9815     | 4.5944     | 5.2073     |  28.6 |  6.47
[...]
Loop time of 72.1583 on 2 procs for 495 steps with 19652 atoms

Performance: 0.593 ns/day, 40.493 hours/ns, 6.860 timesteps/s
95.0% CPU use with 2 MPI tasks x no OpenMP threads

MPI task timing breakdown:
Section |  min time  |  avg time  |  max time  |%varavg| %total
---------------------------------------------------------------
Pair    | 44.779     | 44.949     | 45.118     |   2.5 | 62.29
Neigh   | 19.97      | 20.539     | 21.108     |  12.6 | 28.46
Comm    | 5.4826     | 6.2284     | 6.9743     |  29.9 |  8.63
Output  | 9.203e-05  | 0.00010443 | 0.00011683 |   0.0 |  0.00
Modify  | 0.34203    | 0.34726    | 0.35249    |   0.9 |  0.48
Other   |            | 0.0951     |            |       |  0.13

Nlocal:    9826 ave 9833 max 9819 min
Histogram: 1 0 0 0 0 0 0 0 0 1
Nghost:    15438.5 ave 15441 max 15436 min
Histogram: 1 0 0 0 0 0 0 0 0 1
Neighs:    1.14629e+06 ave 1.14747e+06 max 1.14512e+06 min
Histogram: 1 0 0 0 0 0 0 0 0 1

Total # of neighbors = 2292583
Ave neighs/atom = 116.659
Neighbor list builds = 495
Dangerous builds not checked
Setting up Verlet run ...
  Unit style    : metal
  Current step  : 80495
  Time step     : 0.001
Per MPI rank memory allocation (min/avg/max) = 13.07 | 13.08 | 13.08 Mbytes
Step Temp Press TotEng PotEng Enthalpy Volume 
   80495    425.50034    115.55827   -73407.084   -74487.894   -73381.568    353773.65 
   81000    400.92796    14.157254   -73560.246   -74578.639   -73557.126     353048.3 
Loop time of 76.8739 on 2 procs for 505 steps with 19652 atoms

Performance: 0.568 ns/day, 42.285 hours/ns, 6.569 timesteps/s
95.3% CPU use with 2 MPI tasks x no OpenMP threads

MPI task timing breakdown:
Section |  min time  |  avg time  |  max time  |%varavg| %total
---------------------------------------------------------------
Pair    | 46.308     | 46.405     | 46.502     |   1.4 | 60.36
Neigh   | 20.839     | 21.022     | 21.205     |   4.0 | 27.35
Comm    | 8.8659     | 8.9576     | 9.0493     |   3.1 | 11.65
Output  | 0.035982   | 0.035996   | 0.03601    |   0.0 |  0.05
Modify  | 0.35102    | 0.35503    | 0.35904    |   0.7 |  0.46
Other   |            | 0.09808    |            |       |  0.13

Nlocal:    9826 ave 9833 max 9819 min
Histogram: 1 0 0 0 0 0 0 0 0 1
Nghost:    15480 ave 15501 max 15459 min
Histogram: 1 0 0 0 0 0 0 0 0 1
Neighs:    1.14884e+06 ave 1.14972e+06 max 1.14796e+06 min
Histogram: 1 0 0 0 0 0 0 0 0 1

Total # of neighbors = 2297681
Ave neighs/atom = 116.918
Neighbor list builds = 505
Dangerous builds not checked
Setting up Verlet run ...
  Unit style    : metal
  Current step  : 81000
  Time step     : 0.001
Per MPI rank memory allocation (min/avg/max) = 13.07 | 13.08 | 13.08 Mbytes
Step Temp Press TotEng PotEng Enthalpy Volume 
   81000    400.92796    14.157254   -73560.246   -74578.639   -73557.126     353048.3 
   81495    371.31064    78.121035   -73711.992   -74655.155   -73694.808    352413.25 
Loop time of 64.128 on 2 procs for 495 steps with 19652 atoms

Performance: 0.667 ns/day, 35.987 hours/ns, 7.719 timesteps/s
97.7% CPU use with 2 MPI tasks x no OpenMP threads

MPI task timing breakdown:
Section |  min time  |  avg time  |  max time  |%varavg| %total
---------------------------------------------------------------
Pair    | 41.549     | 41.792     | 42.036     |   3.8 | 65.17
Neigh   | 19.071     | 19.573     | 20.074     |  11.3 | 30.52
Comm    | 1.589      | 2.3458     | 3.1026     |  49.4 |  3.66
Output  | 6.6996e-05 | 9.0957e-05 | 0.00011492 |   0.0 |  0.00
Modify  | 0.31774    | 0.32545    | 0.33317    |   1.4 |  0.51
Other   |            | 0.09188    |            |       |  0.14

Nlocal:    9826 ave 9828 max 9824 min
Histogram: 1 0 0 0 0 0 0 0 0 1
Nghost:    15499 ave 15512 max 15486 min
Histogram: 1 0 0 0 0 0 0 0 0 1
Neighs:    1.15125e+06 ave 1.15243e+06 max 1.15007e+06 min
Histogram: 1 0 0 0 0 0 0 0 0 1

Total # of neighbors = 2302497
Ave neighs/atom = 117.163
Neighbor list builds = 495
Dangerous builds not checked
Setting up Verlet run ...
  Unit style    : metal
  Current step  : 81495
  Time step     : 0.001
Per MPI rank memory allocation (min/avg/max) = 13.07 | 13.08 | 13.08 Mbytes
Step Temp Press TotEng PotEng Enthalpy Volume 
   81495    371.31064    78.121035   -73711.992   -74655.155   -73694.808    352413.25 
   82000    349.83269    -204.2581   -73862.308   -74750.915   -73907.144     351687.1 
Loop time of 69.3563 on 2 procs for 505 steps with 19652 atoms

Performance: 0.629 ns/day, 38.150 hours/ns, 7.281 timesteps/s
98.3% CPU use with 2 MPI tasks x no OpenMP threads

MPI task timing breakdown:
Section |  min time  |  avg time  |  max time  |%varavg| %total
---------------------------------------------------------------
Pair    | 45.017     | 45.211     | 45.405     |   2.9 | 65.19
Neigh   | 20.669     | 20.694     | 20.719     |   0.5 | 29.84
Comm    | 2.8106     | 2.9819     | 3.1532     |   9.9 |  4.30
Output  | 0.023943   | 0.023962   | 0.02398    |   0.0 |  0.03
Modify  | 0.34744    | 0.34864    | 0.34984    |   0.2 |  0.50
Other   |            | 0.09675    |            |       |  0.14

Nlocal:    9826 ave 9835 max 9817 min
Histogram: 1 0 0 0 0 0 0 0 0 1
Nghost:    15496.5 ave 15509 max 15484 min
Histogram: 1 0 0 0 0 0 0 0 0 1
Neighs:    1.15394e+06 ave 1.15548e+06 max 1.1524e+06 min
Histogram: 1 0 0 0 0 0 0 0 0 1

Total # of neighbors = 2307881
Ave neighs/atom = 117.437
Neighbor list builds = 505
Dangerous builds not checked
Setting up Verlet run ...
  Unit style    : metal
  Current step  : 82000
  Time step     : 0.001
Per MPI rank memory allocation (min/avg/max) = 13.07 | 13.08 | 13.08 Mbytes
Step Temp Press TotEng PotEng Enthalpy Volume 
   82000    349.83269    -204.2581   -73862.308   -74750.915   -73907.144     351687.1 
   82495    323.04636    105.15146   -74002.733   -74823.301    -73979.71    350808.57 
Loop time of 64.9861 on 2 procs for 495 steps with 19652 atoms

Performance: 0.658 ns/day, 36.468 hours/ns, 7.617 timesteps/s
99.8% CPU use with 2 MPI tasks x no OpenMP threads

MPI task timing breakdown:
Section |  min time  |  avg time  |  max time  |%varavg| %total
---------------------------------------------------------------
Pair    | 42.007     | 42.108     | 42.209     |   1.5 | 64.80
Neigh   | 19.702     | 20.267     | 20.831     |  12.5 | 31.19
Comm    | 1.5056     | 2.1785     | 2.8514     |  45.6 |  3.35
Output  | 8.297e-05  | 0.00011396 | 0.00014496 |   0.0 |  0.00
Modify  | 0.33218    | 0.33769    | 0.3432     |   0.9 |  0.52
Other   |            | 0.09535    |            |       |  0.15

Nlocal:    9826 ave 9841 max 9811 min
Histogram: 1 0 0 0 0 0 0 0 0 1
Nghost:    15529 ave 15540 max 15518 min
Histogram: 1 0 0 0 0 0 0 0 0 1
Neighs:    1.15703e+06 ave 1.16103e+06 max 1.15303e+06 min
Histogram: 1 0 0 0 0 0 0 0 0 1

Total # of neighbors = 2314067
Ave neighs/atom = 117.752
Neighbor list builds = 495
Dangerous builds not checked
Setting up Verlet run ...
  Unit style    : metal
  Current step  : 82495
  Time step     : 0.001
Per MPI rank memory allocation (min/avg/max) = 13.07 | 13.08 | 13.08 Mbytes
Step Temp Press TotEng PotEng Enthalpy Volume 
   82495    323.04636    105.15146   -74002.733   -74823.301    -73979.71    350808.57 
   83000    300.51128    219.65877   -74145.555   -74908.881   -74097.567    350021.01 
Loop time of 70.6001 on 2 procs for 505 steps with 19652 atoms

Performance: 0.618 ns/day, 38.834 hours/ns, 7.153 timesteps/s
99.3% CPU use with 2 MPI tasks x no OpenMP threads

MPI task timing breakdown:
Section |  min time  |  avg time  |  max time  |%varavg| %total
---------------------------------------------------------------
Pair    | 45.969     | 45.969     | 45.97      |   0.0 | 65.11
Neigh   | 20.849     | 21.268     | 21.688     |   9.1 | 30.13
Comm    | 2.4516     | 2.8806     | 3.3096     |  25.3 |  4.08
Output  | 0.024132   | 0.024146   | 0.024161   |   0.0 |  0.03
Modify  | 0.35062    | 0.35842    | 0.36623    |   1.3 |  0.51
Other   |            | 0.09908    |            |       |  0.14

Nlocal:    9826 ave 9829 max 9823 min
Histogram: 1 0 0 0 0 0 0 0 0 1
Nghost:    15536 ave 15559 max 15513 min
Histogram: 1 0 0 0 0 0 0 0 0 1
Neighs:    1.16015e+06 ave 1.16108e+06 max 1.15923e+06 min
Histogram: 1 0 0 0 0 0 0 0 0 1

Total # of neighbors = 2320306
Ave neighs/atom = 118.07
Neighbor list builds = 505
Dangerous builds not checked
Setting up Verlet run ...
  Unit style    : metal
  Current step  : 83000
  Time step     : 0.001
Per MPI rank memory allocation (min/avg/max) = 13.07 | 13.08 | 13.08 Mbytes
Step Temp Press TotEng PotEng Enthalpy Volume 
   83000    300.51128    219.65877   -74145.555   -74908.881   -74097.567    350021.01 
   83495    274.27181   -163.88437   -74286.781   -74983.457    -74322.54    349586.97 
Loop time of 66.823 on 2 procs for 495 steps with 19652 atoms

Performance: 0.640 ns/day, 37.499 hours/ns, 7.408 timesteps/s
99.8% CPU use with 2 MPI tasks x no OpenMP threads

MPI task timing breakdown:
Section |  min time  |  avg time  |  max time  |%varavg| %total
---------------------------------------------------------------
Pair    | 43.346     | 43.511     | 43.677     |   2.5 | 65.11
Neigh   | 19.816     | 20.559     | 21.302     |  16.4 | 30.77
Comm    | 1.3956     | 2.3156     | 3.2356     |  60.5 |  3.47
Output  | 8.7976e-05 | 0.00011492 | 0.00014186 |   0.0 |  0.00
Modify  | 0.33392    | 0.34217    | 0.35042    |   1.4 |  0.51
Other   |            | 0.09496    |            |       |  0.14

Nlocal:    9826 ave 9829 max 9823 min
Histogram: 1 0 0 0 0 0 0 0 0 1
Nghost:    15559.5 ave 15582 max 15537 min
Histogram: 1 0 0 0 0 0 0 0 0 1
Neighs:    1.16187e+06 ave 1.16266e+06 max 1.16108e+06 min
Histogram: 1 0 0 0 0 0 0 0 0 1

Total # of neighbors = 2323747
Ave neighs/atom = 118.245
Neighbor list builds = 495
Dangerous builds not checked
Setting up Verlet run ...
  Unit style    : metal
  Current step  : 83495
  Time step     : 0.001
Per MPI rank memory allocation (min/avg/max) = 13.07 | 13.08 | 13.08 Mbytes
Step Temp Press TotEng PotEng Enthalpy Volume 
   83495    274.27181   -163.88437   -74286.781   -74983.457    -74322.54    349586.97 
   84000    249.69415   -187.29841    -74428.85   -75063.096   -74469.639    348912.75 
Loop time of 62.2577 on 2 procs for 505 steps with 19652 atoms

Performance: 0.701 ns/day, 34.245 hours/ns, 8.111 timesteps/s
99.2% CPU use with 2 MPI tasks x no OpenMP threads

MPI task timing breakdown:
Section |  min time  |  avg time  |  max time  |%varavg| %total
---------------------------------------------------------------
Pair    | 40.121     | 40.242     | 40.364     |   1.9 | 64.64
Neigh   | 19.103     | 19.432     | 19.76      |   7.4 | 31.21
Comm    | 1.6882     | 2.1376     | 2.587      |  30.7 |  3.43
Output  | 0.031875   | 0.031888   | 0.0319     |   0.0 |  0.05
Modify  | 0.32441    | 0.32455    | 0.32469    |   0.0 |  0.52
Other   |            | 0.08977    |            |       |  0.14

Nlocal:    9826 ave 9838 max 9814 min
Histogram: 1 0 0 0 0 0 0 0 0 1
Nghost:    15579.5 ave 15581 max 15578 min
Histogram: 1 0 0 0 0 0 0 0 0 1
Neighs:    1.16459e+06 ave 1.16704e+06 max 1.16213e+06 min
Histogram: 1 0 0 0 0 0 0 0 0 1

Total # of neighbors = 2329175
Ave neighs/atom = 118.521
Neighbor list builds = 505
Dangerous builds not checked
Setting up Verlet run ...
  Unit style    : metal
  Current step  : 84000
  Time step     : 0.001
Per MPI rank memory allocation (min/avg/max) = 13.07 | 13.08 | 13.08 Mbytes
Step Temp Press TotEng PotEng Enthalpy Volume 
   84000    249.69415   -187.29841    -74428.85   -75063.096   -74469.639    348912.75 
   84495    226.38434   -13.710831   -74562.581   -75137.618   -74565.561    348225.25 
Loop time of 59.2303 on 2 procs for 495 steps with 19652 atoms

Performance: 0.722 ns/day, 33.238 hours/ns, 8.357 timesteps/s
100.0% CPU use with 2 MPI tasks x no OpenMP threads

MPI task timing breakdown:
Section |  min time  |  avg time  |  max time  |%varavg| %total
---------------------------------------------------------------
Pair    | 38.382     | 38.411     | 38.441     |   0.5 | 64.85
Neigh   | 18.518     | 18.704     | 18.891     |   4.3 | 31.58
Comm    | 1.4936     | 1.7152     | 1.9369     |  16.9 |  2.90
Output  | 9.0122e-05 | 0.00011456 | 0.000139   |   0.0 |  0.00
Modify  | 0.30819    | 0.31182    | 0.31545    |   0.6 |  0.53
Other   |            | 0.08736    |            |       |  0.15

Nlocal:    9826 ave 9828 max 9824 min
Histogram: 1 0 0 0 0 0 0 0 0 1
Nghost:    15578.5 ave 15579 max 15578 min
Histogram: 1 0 0 0 0 0 0 0 0 1
Neighs:    1.16703e+06 ave 1.16786e+06 max 1.1662e+06 min
Histogram: 1 0 0 0 0 0 0 0 0 1

Total # of neighbors = 2334064
Ave neighs/atom = 118.77
Neighbor list builds = 495
Dangerous builds not checked
Setting up Verlet run ...
  Unit style    : metal
  Current step  : 84495
  Time step     : 0.001
Per MPI rank memory allocation (min/avg/max) = 13.07 | 13.08 | 13.08 Mbytes
Step Temp Press TotEng PotEng Enthalpy Volume 
   84495    226.38434   -13.710831   -74562.581   -75137.618   -74565.561    348225.25 
   85000    200.28267    13.120001   -74700.661   -75209.397   -74697.814    347611.85 
Loop time of 65.2903 on 2 procs for 505 steps with 19652 atoms

Performance: 0.668 ns/day, 35.913 hours/ns, 7.735 timesteps/s
99.6% CPU use with 2 MPI tasks x no OpenMP threads

MPI task timing breakdown:
Section |  min time  |  avg time  |  max time  |%varavg| %total
---------------------------------------------------------------
Pair    | 42.294     | 42.356     | 42.417     |   0.9 | 64.87
Neigh   | 19.581     | 19.968     | 20.356     |   8.7 | 30.58
Comm    | 2.0557     | 2.5097     | 2.9637     |  28.7 |  3.84
Output  | 0.028993   | 0.029001   | 0.02901    |   0.0 |  0.04
Modify  | 0.33068    | 0.33423    | 0.33778    |   0.6 |  0.51
Other   |            | 0.09318    |            |       |  0.14

Nlocal:    9826 ave 9827 max 9825 min
Histogram: 1 0 0 0 0 0 0 0 0 1
Nghost:    15626 ave 15648 max 15604 min
Histogram: 1 0 0 0 0 0 0 0 0 1
Neighs:    1.16945e+06 ave 1.17118e+06 max 1.16772e+06 min
Histogram: 1 0 0 0 0 0 0 0 0 1

Total # of neighbors = 2338898
Ave neighs/atom = 119.016
Neighbor list builds = 505
Dangerous builds not checked
Setting up Verlet run ...
  Unit style    : metal
  Current step  : 85000
  Time step     : 0.001
Per MPI rank memory allocation (min/avg/max) = 13.07 | 13.08 | 13.08 Mbytes
Step Temp Press TotEng PotEng Enthalpy Volume 
   85000    200.28267    13.120001   -74700.661   -75209.397   -74697.814    347611.85 
   85495    176.17669    -190.1489   -74829.648   -75277.153   -74870.841    347085.68 
Loop time of 59.3757 on 2 procs for 495 steps with 19652 atoms

Performance: 0.720 ns/day, 33.320 hours/ns, 8.337 timesteps/s
99.9% CPU use with 2 MPI tasks x no OpenMP threads

MPI task timing breakdown:
Section |  min time  |  avg time  |  max time  |%varavg| %total
---------------------------------------------------------------
Pair    | 37.993     | 38.309     | 38.625     |   5.1 | 64.52
Neigh   | 18.425     | 18.733     | 19.041     |   7.1 | 31.55
Comm    | 1.2975     | 1.93       | 2.5624     |  45.5 |  3.25
Output  | 6.1035e-05 | 8.6069e-05 | 0.0001111  |   0.0 |  0.00
Modify  | 0.30892    | 0.31621    | 0.32351    |   1.3 |  0.53
Other   |            | 0.08733    |            |       |  0.15

Nlocal:    9826 ave 9828 max 9824 min
Histogram: 1 0 0 0 0 0 0 0 0 1
Nghost:    15589 ave 15607 max 15571 min
Histogram: 1 0 0 0 0 0 0 0 0 1
Neighs:    1.1717e+06 ave 1.17283e+06 max 1.17057e+06 min
Histogram: 1 0 0 0 0 0 0 0 0 1

Total # of neighbors = 2343400
Ave neighs/atom = 119.245
Neighbor list builds = 495
Dangerous builds not checked
Setting up Verlet run ...
  Unit style    : metal
  Current step  : 85495
  Time step     : 0.001
Per MPI rank memory allocation (min/avg/max) = 13.07 | 13.08 | 13.08 Mbytes
Step Temp Press TotEng PotEng Enthalpy Volume 
   85495    176.17669    -190.1489   -74829.648   -75277.153   -74870.841    347085.68 
   86000    151.50115    500.25216   -74963.105   -75347.932   -74854.996    346243.73 
Loop time of 60.3382 on 2 procs for 505 steps with 19652 atoms

Performance: 0.723 ns/day, 33.189 hours/ns, 8.369 timesteps/s
100.0% CPU use with 2 MPI tasks x no OpenMP threads

MPI task timing breakdown:
Section |  min time  |  avg time  |  max time  |%varavg| %total
---------------------------------------------------------------
Pair    | 39.162     | 39.177     | 39.193     |   0.3 | 64.93
Neigh   | 18.975     | 19.111     | 19.248     |   3.1 | 31.67
Comm    | 1.4898     | 1.611      | 1.7323     |   9.6 |  2.67
Output  | 0.034279   | 0.034352   | 0.034425   |   0.0 |  0.06
Modify  | 0.31458    | 0.31497    | 0.31536    |   0.1 |  0.52
Other   |            | 0.08894    |            |       |  0.15

Nlocal:    9826 ave 9835 max 9817 min
Histogram: 1 0 0 0 0 0 0 0 0 1
Nghost:    15620 ave 15641 max 15599 min
Histogram: 1 0 0 0 0 0 0 0 0 1
Neighs:    1.17473e+06 ave 1.17698e+06 max 1.17248e+06 min
Histogram: 1 0 0 0 0 0 0 0 0 1

Total # of neighbors = 2349455
Ave neighs/atom = 119.553
Neighbor list builds = 505
Dangerous builds not checked
Setting up Verlet run ...
  Unit style    : metal
  Current step  : 86000
  Time step     : 0.001
Per MPI rank memory allocation (min/avg/max) = 13.07 | 13.08 | 13.08 Mbytes
Step Temp Press TotEng PotEng Enthalpy Volume 
   86000    151.50115    500.25216   -74963.105   -75347.932   -74854.996    346243.73 
   86495    127.71285    -451.8258   -75088.968    -75413.37   -75186.569    346092.68 
Loop time of 67.3841 on 2 procs for 495 steps with 19652 atoms

Performance: 0.635 ns/day, 37.814 hours/ns, 7.346 timesteps/s
99.8% CPU use with 2 MPI tasks x no OpenMP threads

MPI task timing breakdown:
Section |  min time  |  avg time  |  max time  |%varavg| %total
---------------------------------------------------------------
Pair    | 43.489     | 43.912     | 44.336     |   6.4 | 65.17
Neigh   | 19.576     | 20.239     | 20.901     |  14.7 | 30.03
Comm    | 1.7002     | 2.7952     | 3.8902     |  65.5 |  4.15
Output  | 8.4877e-05 | 0.00011647 | 0.00014806 |   0.0 |  0.00
Modify  | 0.33578    | 0.34249    | 0.34921    |   1.1 |  0.51
Other   |            | 0.0953     |            |       |  0.14

Nlocal:    9826 ave 9835 max 9817 min
Histogram: 1 0 0 0 0 0 0 0 0 1
Nghost:    15631.5 ave 15657 max 15606 min
Histogram: 1 0 0 0 0 0 0 0 0 1
Neighs:    1.17541e+06 ave 1.17742e+06 max 1.1734e+06 min
Histogram: 1 0 0 0 0 0 0 0 0 1

Total # of neighbors = 2350819
Ave neighs/atom = 119.622
Neighbor list builds = 495
Dangerous builds not checked
Setting up Verlet run ...
  Unit style    : metal
  Current step  : 86495
  Time step     : 0.001
Per MPI rank memory allocation (min/avg/max) = 13.07 | 13.08 | 13.08 Mbytes
Step Temp Press TotEng PotEng Enthalpy Volume 
   86495    127.71285    -451.8258   -75088.968    -75413.37   -75186.569    346092.68 
   87000    103.33928    101.79687    -75219.29   -75481.782   -75197.351    345301.82 
Loop time of 65.5549 on 2 procs for 505 steps with 19652 atoms

Performance: 0.666 ns/day, 36.059 hours/ns, 7.703 timesteps/s
99.7% CPU use with 2 MPI tasks x no OpenMP threads

MPI task timing breakdown:
Section |  min time  |  avg time  |  max time  |%varavg| %total
---------------------------------------------------------------
Pair    | 42.567     | 42.587     | 42.607     |   0.3 | 64.96
Neigh   | 19.765     | 19.858     | 19.95      |   2.1 | 30.29
Comm    | 2.5772     | 2.6505     | 2.7238     |   4.5 |  4.04
Output  | 0.034584   | 0.0346     | 0.034617   |   0.0 |  0.05
Modify  | 0.33153    | 0.33217    | 0.33282    |   0.1 |  0.51
Other   |            | 0.09273    |            |       |  0.14

Nlocal:    9826 ave 9837 max 9815 min
Histogram: 1 0 0 0 0 0 0 0 0 1
Nghost:    15636.5 ave 15663 max 15610 min
Histogram: 1 0 0 0 0 0 0 0 0 1
Neighs:    1.17812e+06 ave 1.18075e+06 max 1.17549e+06 min
Histogram: 1 0 0 0 0 0 0 0 0 1

Total # of neighbors = 2356241
Ave neighs/atom = 119.898
Neighbor list builds = 505
Dangerous builds not checked
Total wall time: 3:17:42
