LAMMPS (12 Dec 2018)
Lattice spacing in x,y,z = 4 4 4
Created orthogonal box = (0 0 0) to (68 68 68)
  1 by 1 by 1 MPI processor grid
Created 19652 atoms
  Time spent = 0.0030508 secs
Setting atom values ...
  19652 settings made for type/fraction
Neighbor list info ...
  update every 1 steps, delay 0 steps, check no
  max neighbors/atom: 2000, page size: 100000
  master list distance cutoff = 8.2
  ghost atom cutoff = 8.2
  binsize = 4.1, bins = 17 17 17
  1 neighbor lists, perpetual/occasional/extra = 1 0 0
  (1) pair eam/alloy, perpetual
      attributes: half, newton on
      pair build: half/bin/atomonly/newton
      stencil: half/bin/3d/newton
      bin: standard
Setting up Verlet run ...
  Unit style    : metal
  Current step  : 0
  Time step     : 0.001
Per MPI rank memory allocation (min/avg/max) = 17.03 | 17.03 | 17.03 Mbytes
Step Temp Press TotEng PotEng Enthalpy 
       0          300   -363464.88   -69534.083    -70296.11   -140865.17 
    1000    1452.4444   -77372.688   -69534.447   -73223.788   -84719.072 
Loop time of 155.624 on 1 procs for 1000 steps with 19652 atoms

Performance: 0.555 ns/day, 43.229 hours/ns, 6.426 timesteps/s
98.5% CPU use with 1 MPI tasks x no OpenMP threads

MPI task timing breakdown:
Section |  min time  |  avg time  |  max time  |%varavg| %total
---------------------------------------------------------------
Pair    | 80.678     | 80.678     | 80.678     |   0.0 | 51.84
Neigh   | 72.935     | 72.935     | 72.935     |   0.0 | 46.87
Comm    | 1.1615     | 1.1615     | 1.1615     |   0.0 |  0.75
Output  | 0.00024796 | 0.00024796 | 0.00024796 |   0.0 |  0.00
Modify  | 0.43803    | 0.43803    | 0.43803    |   0.0 |  0.28
Other   |            | 0.4106     |            |       |  0.26

Nlocal:    19652 ave 19652 max 19652 min
Histogram: 1 0 0 0 0 0 0 0 0 0
Nghost:    17605 ave 17605 max 17605 min
Histogram: 1 0 0 0 0 0 0 0 0 0
Neighs:    1.45019e+06 ave 1.45019e+06 max 1.45019e+06 min
Histogram: 1 0 0 0 0 0 0 0 0 0

Total # of neighbors = 1450193
Ave neighs/atom = 73.7937
Neighbor list builds = 1000
Dangerous builds not checked
Setting up Verlet run ...
  Unit style    : metal
  Current step  : 1000
  Time step     : 0.001
Per MPI rank memory allocation (min/avg/max) = 17.03 | 17.03 | 17.03 Mbytes
Step Temp Press TotEng PotEng Enthalpy 
    1000    1452.4444   -77372.688   -69534.447   -73223.788   -84719.072 
    2000    421.32887   -3136.2267   -80689.663   -81759.877   -81152.865 
Loop time of 183.821 on 1 procs for 1000 steps with 19652 atoms

Performance: 0.470 ns/day, 51.061 hours/ns, 5.440 timesteps/s
98.5% CPU use with 1 MPI tasks x no OpenMP threads

MPI task timing breakdown:
Section |  min time  |  avg time  |  max time  |%varavg| %total
---------------------------------------------------------------
Pair    | 98.951     | 98.951     | 98.951     |   0.0 | 53.83
Neigh   | 81.768     | 81.768     | 81.768     |   0.0 | 44.48
Comm    | 1.1338     | 1.1338     | 1.1338     |   0.0 |  0.62
Output  | 0.00019097 | 0.00019097 | 0.00019097 |   0.0 |  0.00
Modify  | 1.5603     | 1.5603     | 1.5603     |   0.0 |  0.85
Other   |            | 0.4082     |            |       |  0.22

Nlocal:    19652 ave 19652 max 19652 min
Histogram: 1 0 0 0 0 0 0 0 0 0
Nghost:    19801 ave 19801 max 19801 min
Histogram: 1 0 0 0 0 0 0 0 0 0
Neighs:    1.87466e+06 ave 1.87466e+06 max 1.87466e+06 min
Histogram: 1 0 0 0 0 0 0 0 0 0

Total # of neighbors = 1874660
Ave neighs/atom = 95.3928
Neighbor list builds = 1000
Dangerous builds not checked
Setting up Verlet run ...
  Unit style    : metal
  Current step  : 2000
  Time step     : 0.001
Per MPI rank memory allocation (min/avg/max) = 18.94 | 18.94 | 18.94 Mbytes
Step Temp Press TotEng PotEng Enthalpy 
    2000    421.32887   -3136.2267   -80689.663   -81759.877   -81152.865 
    6667    1538.6136   -2010.1702   -75948.015   -79856.233   -76243.537 
   10000    2436.8366    2376.6275   -69543.467   -75733.254   -69172.457 
Loop time of 1571.52 on 1 procs for 8000 steps with 19652 atoms

Performance: 0.440 ns/day, 54.567 hours/ns, 5.091 timesteps/s
99.2% CPU use with 1 MPI tasks x no OpenMP threads

MPI task timing breakdown:
Section |  min time  |  avg time  |  max time  |%varavg| %total
---------------------------------------------------------------
Pair    | 842.24     | 842.24     | 842.24     |   0.0 | 53.59
Neigh   | 704.18     | 704.18     | 704.18     |   0.0 | 44.81
Comm    | 9.2434     | 9.2434     | 9.2434     |   0.0 |  0.59
Output  | 0.066462   | 0.066462   | 0.066462   |   0.0 |  0.00
Modify  | 12.498     | 12.498     | 12.498     |   0.0 |  0.80
Other   |            | 3.298      |            |       |  0.21

Nlocal:    19652 ave 19652 max 19652 min
Histogram: 1 0 0 0 0 0 0 0 0 0
Nghost:    19752 ave 19752 max 19752 min
Histogram: 1 0 0 0 0 0 0 0 0 0
Neighs:    1.76453e+06 ave 1.76453e+06 max 1.76453e+06 min
Histogram: 1 0 0 0 0 0 0 0 0 0

Total # of neighbors = 1764530
Ave neighs/atom = 89.7888
Neighbor list builds = 8000
Dangerous builds not checked
Setting up Verlet run ...
  Unit style    : metal
  Current step  : 10000
  Time step     : 0.001
Per MPI rank memory allocation (min/avg/max) = 18.95 | 18.95 | 18.95 Mbytes
Step Temp Press TotEng PotEng Enthalpy 
   10000    2436.8366    2376.6275   -69543.467   -75733.254   -69172.457 
   13334    2449.1226    2266.8625   -69439.925   -75660.919   -69085.598 
   20001    2424.7242   -1000.0558   -69533.197   -75692.217   -69689.704 
   26668    2460.0549    2921.3618   -69410.615   -75659.378   -68954.161 
   33335    2439.6286   -464.14849   -69478.081    -75674.96   -69550.716 
   40000    2457.8907     987.1515    -69450.67   -75693.937    -69296.34 
Loop time of 5730.66 on 1 procs for 30000 steps with 19652 atoms

Performance: 0.452 ns/day, 53.062 hours/ns, 5.235 timesteps/s
99.3% CPU use with 1 MPI tasks x no OpenMP threads

MPI task timing breakdown:
Section |  min time  |  avg time  |  max time  |%varavg| %total
---------------------------------------------------------------
Pair    | 3072.1     | 3072.1     | 3072.1     |   0.0 | 53.61
Neigh   | 2563.7     | 2563.7     | 2563.7     |   0.0 | 44.74
Comm    | 34.876     | 34.876     | 34.876     |   0.0 |  0.61
Output  | 0.26015    | 0.26015    | 0.26015    |   0.0 |  0.00
Modify  | 47.352     | 47.352     | 47.352     |   0.0 |  0.83
Other   |            | 12.37      |            |       |  0.22

Nlocal:    19652 ave 19652 max 19652 min
Histogram: 1 0 0 0 0 0 0 0 0 0
Nghost:    19654 ave 19654 max 19654 min
Histogram: 1 0 0 0 0 0 0 0 0 0
Neighs:    1.76204e+06 ave 1.76204e+06 max 1.76204e+06 min
Histogram: 1 0 0 0 0 0 0 0 0 0

Total # of neighbors = 1762040
Ave neighs/atom = 89.6621
Neighbor list builds = 30000
Dangerous builds not checked
Setting up Verlet run ...
  Unit style    : metal
  Current step  : 40000
  Time step     : 0.001
Per MPI rank memory allocation (min/avg/max) = 18.95 | 18.95 | 18.95 Mbytes
Step Temp Press TotEng PotEng Enthalpy 
   40000    2457.8907     987.1515    -69450.67   -75693.937    -69296.34 
   40002    2458.1368     959.7847   -69450.679   -75694.571   -69300.627 
   40495    2407.5244    1772.5051   -69692.392   -75807.724   -69415.917 
Loop time of 92.3023 on 1 procs for 495 steps with 19652 atoms

Performance: 0.463 ns/day, 51.797 hours/ns, 5.363 timesteps/s
99.7% CPU use with 1 MPI tasks x no OpenMP threads

MPI task timing breakdown:
Section |  min time  |  avg time  |  max time  |%varavg| %total
---------------------------------------------------------------
Pair    | 49.683     | 49.683     | 49.683     |   0.0 | 53.83
Neigh   | 41.025     | 41.025     | 41.025     |   0.0 | 44.45
Comm    | 0.55763    | 0.55763    | 0.55763    |   0.0 |  0.60
Output  | 0.065249   | 0.065249   | 0.065249   |   0.0 |  0.07
Modify  | 0.77209    | 0.77209    | 0.77209    |   0.0 |  0.84
Other   |            | 0.1992     |            |       |  0.22

Nlocal:    19652 ave 19652 max 19652 min
Histogram: 1 0 0 0 0 0 0 0 0 0
Nghost:    19742 ave 19742 max 19742 min
Histogram: 1 0 0 0 0 0 0 0 0 0
Neighs:    1.76557e+06 ave 1.76557e+06 max 1.76557e+06 min
Histogram: 1 0 0 0 0 0 0 0 0 0

Total # of neighbors = 1765573
Ave neighs/atom = 89.8419
Neighbor list builds = 495
Dangerous builds not checked
Setting up Verlet run ...
  Unit style    : metal
  Current step  : 40495
  Time step     : 0.001
Per MPI rank memory allocation (min/avg/max) = 18.95 | 18.95 | 18.95 Mbytes
Step Temp Press TotEng PotEng Enthalpy 
   40495    2407.5244    1772.5051   -69692.392   -75807.724   -69415.917 
   46667    2412.8323   -2060.1338     -69701.2   -75830.014   -70023.076 
Loop time of 1206.68 on 1 procs for 6172 steps with 19652 atoms

Performance: 0.442 ns/day, 54.308 hours/ns, 5.115 timesteps/s
98.2% CPU use with 1 MPI tasks x no OpenMP threads

MPI task timing breakdown:
Section |  min time  |  avg time  |  max time  |%varavg| %total
---------------------------------------------------------------
Pair    | 651.51     | 651.51     | 651.51     |   0.0 | 53.99
Neigh   | 535.27     | 535.27     | 535.27     |   0.0 | 44.36
Comm    | 7.3709     | 7.3709     | 7.3709     |   0.0 |  0.61
Output  | 0.00018692 | 0.00018692 | 0.00018692 |   0.0 |  0.00
Modify  | 9.8909     | 9.8909     | 9.8909     |   0.0 |  0.82
Other   |            | 2.64       |            |       |  0.22

Nlocal:    19652 ave 19652 max 19652 min
Histogram: 1 0 0 0 0 0 0 0 0 0
Nghost:    19709 ave 19709 max 19709 min
Histogram: 1 0 0 0 0 0 0 0 0 0
Neighs:    1.76232e+06 ave 1.76232e+06 max 1.76232e+06 min
Histogram: 1 0 0 0 0 0 0 0 0 0

Total # of neighbors = 1762319
Ave neighs/atom = 89.6763
Neighbor list builds = 6172
Dangerous builds not checked
Setting up Verlet run ...
  Unit style    : metal
  Current step  : 46667
  Time step     : 0.001
Per MPI rank memory allocation (min/avg/max) = 18.95 | 18.95 | 18.95 Mbytes
Step Temp Press TotEng PotEng Enthalpy 
   46667    2412.8323   -2060.1338     -69701.2   -75830.014   -70023.076 
   46669    2414.6488   -2127.5929   -69701.219   -75834.647   -70033.636 
   47162    2352.9478   -1376.4959   -69976.417   -75953.119   -70190.996 
Loop time of 97.2515 on 1 procs for 495 steps with 19652 atoms

Performance: 0.440 ns/day, 54.574 hours/ns, 5.090 timesteps/s
97.6% CPU use with 1 MPI tasks x no OpenMP threads

MPI task timing breakdown:
Section |  min time  |  avg time  |  max time  |%varavg| %total
---------------------------------------------------------------
Pair    | 52.532     | 52.532     | 52.532     |   0.0 | 54.02
Neigh   | 43.016     | 43.016     | 43.016     |   0.0 | 44.23
Comm    | 0.60719    | 0.60719    | 0.60719    |   0.0 |  0.62
Output  | 0.06585    | 0.06585    | 0.06585    |   0.0 |  0.07
Modify  | 0.81061    | 0.81061    | 0.81061    |   0.0 |  0.83
Other   |            | 0.2194     |            |       |  0.23

Nlocal:    19652 ave 19652 max 19652 min
Histogram: 1 0 0 0 0 0 0 0 0 0
Nghost:    19706 ave 19706 max 19706 min
Histogram: 1 0 0 0 0 0 0 0 0 0
Neighs:    1.76635e+06 ave 1.76635e+06 max 1.76635e+06 min
Histogram: 1 0 0 0 0 0 0 0 0 0

Total # of neighbors = 1766349
Ave neighs/atom = 89.8814
Neighbor list builds = 495
Dangerous builds not checked
Setting up Verlet run ...
  Unit style    : metal
  Current step  : 47162
  Time step     : 0.001
Per MPI rank memory allocation (min/avg/max) = 18.95 | 18.95 | 18.95 Mbytes
Step Temp Press TotEng PotEng Enthalpy 
   47162    2352.9478   -1376.4959   -69976.417   -75953.119   -70190.996 
   53334    2382.1511    2560.4675   -70090.387   -76141.268    -69693.05 
Loop time of 1161.86 on 1 procs for 6172 steps with 19652 atoms

Performance: 0.459 ns/day, 52.291 hours/ns, 5.312 timesteps/s
97.7% CPU use with 1 MPI tasks x no OpenMP threads

MPI task timing breakdown:
Section |  min time  |  avg time  |  max time  |%varavg| %total
---------------------------------------------------------------
Pair    | 623.42     | 623.42     | 623.42     |   0.0 | 53.66
Neigh   | 519.2      | 519.2      | 519.2      |   0.0 | 44.69
Comm    | 7.1546     | 7.1546     | 7.1546     |   0.0 |  0.62
Output  | 0.00018287 | 0.00018287 | 0.00018287 |   0.0 |  0.00
Modify  | 9.5673     | 9.5673     | 9.5673     |   0.0 |  0.82
Other   |            | 2.519      |            |       |  0.22

Nlocal:    19652 ave 19652 max 19652 min
Histogram: 1 0 0 0 0 0 0 0 0 0
Nghost:    19712 ave 19712 max 19712 min
Histogram: 1 0 0 0 0 0 0 0 0 0
Neighs:    1.77414e+06 ave 1.77414e+06 max 1.77414e+06 min
Histogram: 1 0 0 0 0 0 0 0 0 0

Total # of neighbors = 1774145
Ave neighs/atom = 90.2781
Neighbor list builds = 6172
Dangerous builds not checked
Setting up Verlet run ...
  Unit style    : metal
  Current step  : 53334
  Time step     : 0.001
Per MPI rank memory allocation (min/avg/max) = 18.95 | 18.95 | 18.95 Mbytes
Step Temp Press TotEng PotEng Enthalpy 
   53334    2382.1511    2560.4675   -70090.387   -76141.268    -69693.05 
   53336    2377.8732    2719.2504   -70090.412   -76130.426   -69668.434 
   53829    2312.2828    2604.7341    -70326.49   -76199.899    -69922.88 
Loop time of 82.7697 on 1 procs for 495 steps with 19652 atoms

Performance: 0.517 ns/day, 46.448 hours/ns, 5.980 timesteps/s
100.0% CPU use with 1 MPI tasks x no OpenMP threads

MPI task timing breakdown:
Section |  min time  |  avg time  |  max time  |%varavg| %total
---------------------------------------------------------------
Pair    | 43.97      | 43.97      | 43.97      |   0.0 | 53.12
Neigh   | 37.364     | 37.364     | 37.364     |   0.0 | 45.14
Comm    | 0.50519    | 0.50519    | 0.50519    |   0.0 |  0.61
Output  | 0.051923   | 0.051923   | 0.051923   |   0.0 |  0.06
Modify  | 0.69429    | 0.69429    | 0.69429    |   0.0 |  0.84
Other   |            | 0.1844     |            |       |  0.22

Nlocal:    19652 ave 19652 max 19652 min
Histogram: 1 0 0 0 0 0 0 0 0 0
Nghost:    19711 ave 19711 max 19711 min
Histogram: 1 0 0 0 0 0 0 0 0 0
Neighs:    1.77648e+06 ave 1.77648e+06 max 1.77648e+06 min
Histogram: 1 0 0 0 0 0 0 0 0 0

Total # of neighbors = 1776480
Ave neighs/atom = 90.3969
Neighbor list builds = 495
Dangerous builds not checked
Setting up Verlet run ...
  Unit style    : metal
  Current step  : 53829
  Time step     : 0.001
Per MPI rank memory allocation (min/avg/max) = 18.95 | 18.95 | 18.95 Mbytes
Step Temp Press TotEng PotEng Enthalpy 
   53829    2312.2828    2604.7341    -70326.49   -76199.899    -69922.88 
   60001    2306.9382    418.51477   -70337.534   -76197.367   -70272.613 
Loop time of 1072.24 on 1 procs for 6172 steps with 19652 atoms

Performance: 0.497 ns/day, 48.257 hours/ns, 5.756 timesteps/s
95.4% CPU use with 1 MPI tasks x no OpenMP threads

MPI task timing breakdown:
Section |  min time  |  avg time  |  max time  |%varavg| %total
---------------------------------------------------------------
Pair    | 575.33     | 575.33     | 575.33     |   0.0 | 53.66
Neigh   | 479.54     | 479.54     | 479.54     |   0.0 | 44.72
Comm    | 6.4718     | 6.4718     | 6.4718     |   0.0 |  0.60
Output  | 0.00018597 | 0.00018597 | 0.00018597 |   0.0 |  0.00
Modify  | 8.6163     | 8.6163     | 8.6163     |   0.0 |  0.80
Other   |            | 2.282      |            |       |  0.21

Nlocal:    19652 ave 19652 max 19652 min
Histogram: 1 0 0 0 0 0 0 0 0 0
Nghost:    19815 ave 19815 max 19815 min
Histogram: 1 0 0 0 0 0 0 0 0 0
Neighs:    1.77447e+06 ave 1.77447e+06 max 1.77447e+06 min
Histogram: 1 0 0 0 0 0 0 0 0 0

Total # of neighbors = 1774472
Ave neighs/atom = 90.2947
Neighbor list builds = 6172
Dangerous builds not checked
Setting up Verlet run ...
  Unit style    : metal
  Current step  : 60001
  Time step     : 0.001
Per MPI rank memory allocation (min/avg/max) = 18.95 | 18.95 | 18.95 Mbytes
Step Temp Press TotEng PotEng Enthalpy 
   60001    2306.9382    418.51477   -70337.534   -76197.367   -70272.613 
   60003    2308.0475    350.14153   -70337.542   -76200.193   -70283.227 
   60496    2285.4149    1460.2338   -70651.294   -76456.456   -70425.714 
Loop time of 77.1993 on 1 procs for 495 steps with 19652 atoms

Performance: 0.554 ns/day, 43.322 hours/ns, 6.412 timesteps/s
100.0% CPU use with 1 MPI tasks x no OpenMP threads

MPI task timing breakdown:
Section |  min time  |  avg time  |  max time  |%varavg| %total
---------------------------------------------------------------
Pair    | 41.22      | 41.22      | 41.22      |   0.0 | 53.39
Neigh   | 34.659     | 34.659     | 34.659     |   0.0 | 44.90
Comm    | 0.46539    | 0.46539    | 0.46539    |   0.0 |  0.60
Output  | 0.053431   | 0.053431   | 0.053431   |   0.0 |  0.07
Modify  | 0.63256    | 0.63256    | 0.63256    |   0.0 |  0.82
Other   |            | 0.1688     |            |       |  0.22

Nlocal:    19652 ave 19652 max 19652 min
Histogram: 1 0 0 0 0 0 0 0 0 0
Nghost:    19788 ave 19788 max 19788 min
Histogram: 1 0 0 0 0 0 0 0 0 0
Neighs:    1.78177e+06 ave 1.78177e+06 max 1.78177e+06 min
Histogram: 1 0 0 0 0 0 0 0 0 0

Total # of neighbors = 1781772
Ave neighs/atom = 90.6662
Neighbor list builds = 495
Dangerous builds not checked
Setting up Verlet run ...
  Unit style    : metal
  Current step  : 60496
  Time step     : 0.001
Per MPI rank memory allocation (min/avg/max) = 18.95 | 18.95 | 18.95 Mbytes
Step Temp Press TotEng PotEng Enthalpy 
   60496    2285.4149    1460.2338   -70651.294   -76456.456   -70425.714 
   66668    2242.6655   -3244.1288   -70805.566   -76502.141   -71307.895 
Loop time of 1095.98 on 1 procs for 6172 steps with 19652 atoms

Performance: 0.487 ns/day, 49.326 hours/ns, 5.632 timesteps/s
99.9% CPU use with 1 MPI tasks x no OpenMP threads

MPI task timing breakdown:
Section |  min time  |  avg time  |  max time  |%varavg| %total
---------------------------------------------------------------
Pair    | 587.72     | 587.72     | 587.72     |   0.0 | 53.63
Neigh   | 490.32     | 490.32     | 490.32     |   0.0 | 44.74
Comm    | 6.6208     | 6.6208     | 6.6208     |   0.0 |  0.60
Output  | 0.00020099 | 0.00020099 | 0.00020099 |   0.0 |  0.00
Modify  | 8.9684     | 8.9684     | 8.9684     |   0.0 |  0.82
Other   |            | 2.346      |            |       |  0.21

Nlocal:    19652 ave 19652 max 19652 min
Histogram: 1 0 0 0 0 0 0 0 0 0
Nghost:    19745 ave 19745 max 19745 min
Histogram: 1 0 0 0 0 0 0 0 0 0
Neighs:    1.77725e+06 ave 1.77725e+06 max 1.77725e+06 min
Histogram: 1 0 0 0 0 0 0 0 0 0

Total # of neighbors = 1777253
Ave neighs/atom = 90.4362
Neighbor list builds = 6172
Dangerous builds not checked
Setting up Verlet run ...
  Unit style    : metal
  Current step  : 66668
  Time step     : 0.001
Per MPI rank memory allocation (min/avg/max) = 18.95 | 18.95 | 18.95 Mbytes
Step Temp Press TotEng PotEng Enthalpy 
   66668    2242.6655   -3244.1288   -70805.566   -76502.141   -71307.895 
   66670    2240.9457   -3153.7507   -70805.556   -76497.762    -71293.89 
   67163    2207.3741   -1130.0842   -70986.121   -76593.053   -71160.598 
Loop time of 91.3813 on 1 procs for 495 steps with 19652 atoms

Performance: 0.468 ns/day, 51.280 hours/ns, 5.417 timesteps/s
99.8% CPU use with 1 MPI tasks x no OpenMP threads

MPI task timing breakdown:
Section |  min time  |  avg time  |  max time  |%varavg| %total
---------------------------------------------------------------
Pair    | 49.242     | 49.242     | 49.242     |   0.0 | 53.89
Neigh   | 40.548     | 40.548     | 40.548     |   0.0 | 44.37
Comm    | 0.55337    | 0.55337    | 0.55337    |   0.0 |  0.61
Output  | 0.065943   | 0.065943   | 0.065943   |   0.0 |  0.07
Modify  | 0.77201    | 0.77201    | 0.77201    |   0.0 |  0.84
Other   |            | 0.1997     |            |       |  0.22

Nlocal:    19652 ave 19652 max 19652 min
Histogram: 1 0 0 0 0 0 0 0 0 0
Nghost:    19712 ave 19712 max 19712 min
Histogram: 1 0 0 0 0 0 0 0 0 0
Neighs:    1.78223e+06 ave 1.78223e+06 max 1.78223e+06 min
Histogram: 1 0 0 0 0 0 0 0 0 0

Total # of neighbors = 1782226
Ave neighs/atom = 90.6893
Neighbor list builds = 495
Dangerous builds not checked
Setting up Verlet run ...
  Unit style    : metal
  Current step  : 67163
  Time step     : 0.001
Per MPI rank memory allocation (min/avg/max) = 18.95 | 18.95 | 18.95 Mbytes
Step Temp Press TotEng PotEng Enthalpy 
   67163    2207.3741   -1130.0842   -70986.121   -76593.053   -71160.598 
   73335    2186.6099   -2852.0694   -71110.565   -76664.753   -71550.904 
Loop time of 1170.02 on 1 procs for 6172 steps with 19652 atoms

Performance: 0.456 ns/day, 52.658 hours/ns, 5.275 timesteps/s
99.8% CPU use with 1 MPI tasks x no OpenMP threads

MPI task timing breakdown:
Section |  min time  |  avg time  |  max time  |%varavg| %total
---------------------------------------------------------------
Pair    | 630.47     | 630.47     | 630.47     |   0.0 | 53.88
Neigh   | 520.29     | 520.29     | 520.29     |   0.0 | 44.47
Comm    | 7.0896     | 7.0896     | 7.0896     |   0.0 |  0.61
Output  | 0.00030589 | 0.00030589 | 0.00030589 |   0.0 |  0.00
Modify  | 9.6761     | 9.6761     | 9.6761     |   0.0 |  0.83
Other   |            | 2.507      |            |       |  0.21

Nlocal:    19652 ave 19652 max 19652 min
Histogram: 1 0 0 0 0 0 0 0 0 0
Nghost:    19770 ave 19770 max 19770 min
Histogram: 1 0 0 0 0 0 0 0 0 0
Neighs:    1.78205e+06 ave 1.78205e+06 max 1.78205e+06 min
Histogram: 1 0 0 0 0 0 0 0 0 0

Total # of neighbors = 1782046
Ave neighs/atom = 90.6801
Neighbor list builds = 6172
Dangerous builds not checked
Setting up Verlet run ...
  Unit style    : metal
  Current step  : 73335
  Time step     : 0.001
Per MPI rank memory allocation (min/avg/max) = 18.95 | 18.95 | 18.95 Mbytes
Step Temp Press TotEng PotEng Enthalpy 
   73335    2186.6099   -2852.0694   -71110.565   -76664.753   -71550.904 
   73337    2188.1017   -2896.0023   -71110.558   -76668.535    -71557.68 
   73830    2160.2049   -2021.3711   -71324.698   -76811.816   -71635.718 
Loop time of 91.8233 on 1 procs for 495 steps with 19652 atoms

Performance: 0.466 ns/day, 51.528 hours/ns, 5.391 timesteps/s
99.9% CPU use with 1 MPI tasks x no OpenMP threads

MPI task timing breakdown:
Section |  min time  |  avg time  |  max time  |%varavg| %total
---------------------------------------------------------------
Pair    | 49.553     | 49.553     | 49.553     |   0.0 | 53.97
Neigh   | 40.673     | 40.673     | 40.673     |   0.0 | 44.29
Comm    | 0.56135    | 0.56135    | 0.56135    |   0.0 |  0.61
Output  | 0.064819   | 0.064819   | 0.064819   |   0.0 |  0.07
Modify  | 0.77002    | 0.77002    | 0.77002    |   0.0 |  0.84
Other   |            | 0.2015     |            |       |  0.22

Nlocal:    19652 ave 19652 max 19652 min
Histogram: 1 0 0 0 0 0 0 0 0 0
Nghost:    19778 ave 19778 max 19778 min
Histogram: 1 0 0 0 0 0 0 0 0 0
Neighs:    1.78856e+06 ave 1.78856e+06 max 1.78856e+06 min
Histogram: 1 0 0 0 0 0 0 0 0 0

Total # of neighbors = 1788561
Ave neighs/atom = 91.0117
Neighbor list builds = 495
Dangerous builds not checked
Setting up Verlet run ...
  Unit style    : metal
  Current step  : 73830
  Time step     : 0.001
Per MPI rank memory allocation (min/avg/max) = 18.95 | 18.95 | 18.95 Mbytes
Step Temp Press TotEng PotEng Enthalpy 
   73830    2160.2049   -2021.3711   -71324.698   -76811.816   -71635.718 
   80002    2147.8938   -4694.0634   -71415.492   -76871.338   -72137.792 
Loop time of 1176.26 on 1 procs for 6172 steps with 19652 atoms

Performance: 0.453 ns/day, 52.939 hours/ns, 5.247 timesteps/s
99.8% CPU use with 1 MPI tasks x no OpenMP threads

MPI task timing breakdown:
Section |  min time  |  avg time  |  max time  |%varavg| %total
---------------------------------------------------------------
Pair    | 637.74     | 637.74     | 637.74     |   0.0 | 54.22
Neigh   | 519.28     | 519.28     | 519.28     |   0.0 | 44.15
Comm    | 7.1013     | 7.1013     | 7.1013     |   0.0 |  0.60
Output  | 0.00019503 | 0.00019503 | 0.00019503 |   0.0 |  0.00
Modify  | 9.6181     | 9.6181     | 9.6181     |   0.0 |  0.82
Other   |            | 2.521      |            |       |  0.21

Nlocal:    19652 ave 19652 max 19652 min
Histogram: 1 0 0 0 0 0 0 0 0 0
Nghost:    19766 ave 19766 max 19766 min
Histogram: 1 0 0 0 0 0 0 0 0 0
Neighs:    1.78737e+06 ave 1.78737e+06 max 1.78737e+06 min
Histogram: 1 0 0 0 0 0 0 0 0 0

Total # of neighbors = 1787368
Ave neighs/atom = 90.9509
Neighbor list builds = 6172
Dangerous builds not checked
Setting up Verlet run ...
  Unit style    : metal
  Current step  : 80002
  Time step     : 0.001
Per MPI rank memory allocation (min/avg/max) = 18.95 | 18.95 | 18.95 Mbytes
Step Temp Press TotEng PotEng Enthalpy 
   80002    2147.8938   -4694.0634   -71415.492   -76871.338   -72137.792 
   80004    2147.6465   -4620.3203   -71415.494   -76870.712   -72126.446 
   80497    2085.6431   -1511.3591   -71653.488   -76951.211   -71885.448 
Loop time of 99.7397 on 1 procs for 495 steps with 19652 atoms

Performance: 0.429 ns/day, 55.971 hours/ns, 4.963 timesteps/s
99.9% CPU use with 1 MPI tasks x no OpenMP threads

MPI task timing breakdown:
Section |  min time  |  avg time  |  max time  |%varavg| %total
---------------------------------------------------------------
Pair    | 54.154     | 54.154     | 54.154     |   0.0 | 54.30
Neigh   | 43.915     | 43.915     | 43.915     |   0.0 | 44.03
Comm    | 0.5845     | 0.5845     | 0.5845     |   0.0 |  0.59
Output  | 0.061026   | 0.061026   | 0.061026   |   0.0 |  0.06
Modify  | 0.81992    | 0.81992    | 0.81992    |   0.0 |  0.82
Other   |            | 0.2048     |            |       |  0.21

Nlocal:    19652 ave 19652 max 19652 min
Histogram: 1 0 0 0 0 0 0 0 0 0
Nghost:    19794 ave 19794 max 19794 min
Histogram: 1 0 0 0 0 0 0 0 0 0
Neighs:    1.79221e+06 ave 1.79221e+06 max 1.79221e+06 min
Histogram: 1 0 0 0 0 0 0 0 0 0

Total # of neighbors = 1792206
Ave neighs/atom = 91.1971
Neighbor list builds = 495
Dangerous builds not checked
Setting up Verlet run ...
  Unit style    : metal
  Current step  : 80497
  Time step     : 0.001
Per MPI rank memory allocation (min/avg/max) = 18.95 | 18.95 | 18.95 Mbytes
Step Temp Press TotEng PotEng Enthalpy 
   80497    2085.6431   -1511.3591   -71653.488   -76951.211   -71885.448 
   86669    2101.7905   -847.50373   -71796.062   -77134.802    -71925.78 
Loop time of 1161.28 on 1 procs for 6172 steps with 19652 atoms

Performance: 0.459 ns/day, 52.265 hours/ns, 5.315 timesteps/s
99.9% CPU use with 1 MPI tasks x no OpenMP threads

MPI task timing breakdown:
Section |  min time  |  avg time  |  max time  |%varavg| %total
---------------------------------------------------------------
Pair    | 626.51     | 626.51     | 626.51     |   0.0 | 53.95
Neigh   | 515.64     | 515.64     | 515.64     |   0.0 | 44.40
Comm    | 7.0471     | 7.0471     | 7.0471     |   0.0 |  0.61
Output  | 0.00027299 | 0.00027299 | 0.00027299 |   0.0 |  0.00
Modify  | 9.5772     | 9.5772     | 9.5772     |   0.0 |  0.82
Other   |            | 2.506      |            |       |  0.22

Nlocal:    19652 ave 19652 max 19652 min
Histogram: 1 0 0 0 0 0 0 0 0 0
Nghost:    19924 ave 19924 max 19924 min
Histogram: 1 0 0 0 0 0 0 0 0 0
Neighs:    1.79628e+06 ave 1.79628e+06 max 1.79628e+06 min
Histogram: 1 0 0 0 0 0 0 0 0 0

Total # of neighbors = 1796278
Ave neighs/atom = 91.4043
Neighbor list builds = 6172
Dangerous builds not checked
Setting up Verlet run ...
  Unit style    : metal
  Current step  : 86669
  Time step     : 0.001
Per MPI rank memory allocation (min/avg/max) = 18.95 | 18.95 | 18.95 Mbytes
Step Temp Press TotEng PotEng Enthalpy 
   86669    2101.7905   -847.50373   -71796.062   -77134.802    -71925.78 
   86671    2101.4182   -843.18642   -71796.061   -77133.854   -71925.118 
   87164    2069.0283     891.2969   -71993.472   -77248.993   -71857.449 
Loop time of 91.688 on 1 procs for 495 steps with 19652 atoms

Performance: 0.466 ns/day, 51.452 hours/ns, 5.399 timesteps/s
99.1% CPU use with 1 MPI tasks x no OpenMP threads

MPI task timing breakdown:
Section |  min time  |  avg time  |  max time  |%varavg| %total
---------------------------------------------------------------
Pair    | 49.576     | 49.576     | 49.576     |   0.0 | 54.07
Neigh   | 40.52      | 40.52      | 40.52      |   0.0 | 44.19
Comm    | 0.55605    | 0.55605    | 0.55605    |   0.0 |  0.61
Output  | 0.066021   | 0.066021   | 0.066021   |   0.0 |  0.07
Modify  | 0.76873    | 0.76873    | 0.76873    |   0.0 |  0.84
Other   |            | 0.2006     |            |       |  0.22

Nlocal:    19652 ave 19652 max 19652 min
Histogram: 1 0 0 0 0 0 0 0 0 0
Nghost:    19901 ave 19901 max 19901 min
Histogram: 1 0 0 0 0 0 0 0 0 0
Neighs:    1.80218e+06 ave 1.80218e+06 max 1.80218e+06 min
Histogram: 1 0 0 0 0 0 0 0 0 0

Total # of neighbors = 1802184
Ave neighs/atom = 91.7049
Neighbor list builds = 495
Dangerous builds not checked
Setting up Verlet run ...
  Unit style    : metal
  Current step  : 87164
  Time step     : 0.001
Per MPI rank memory allocation (min/avg/max) = 18.95 | 18.95 | 18.95 Mbytes
Step Temp Press TotEng PotEng Enthalpy 
   87164    2069.0283     891.2969   -71993.472   -77248.993   -71857.449 
   93336    2082.0962    448.26737   -72079.481   -77368.195   -72011.142 
Loop time of 1172.24 on 1 procs for 6172 steps with 19652 atoms

Performance: 0.455 ns/day, 52.758 hours/ns, 5.265 timesteps/s
99.8% CPU use with 1 MPI tasks x no OpenMP threads

MPI task timing breakdown:
Section |  min time  |  avg time  |  max time  |%varavg| %total
---------------------------------------------------------------
Pair    | 634.79     | 634.79     | 634.79     |   0.0 | 54.15
Neigh   | 518.21     | 518.21     | 518.21     |   0.0 | 44.21
Comm    | 7.0803     | 7.0803     | 7.0803     |   0.0 |  0.60
Output  | 0.00018311 | 0.00018311 | 0.00018311 |   0.0 |  0.00
Modify  | 9.6344     | 9.6344     | 9.6344     |   0.0 |  0.82
Other   |            | 2.523      |            |       |  0.22

Nlocal:    19652 ave 19652 max 19652 min
Histogram: 1 0 0 0 0 0 0 0 0 0
Nghost:    19828 ave 19828 max 19828 min
Histogram: 1 0 0 0 0 0 0 0 0 0
Neighs:    1.80345e+06 ave 1.80345e+06 max 1.80345e+06 min
Histogram: 1 0 0 0 0 0 0 0 0 0

Total # of neighbors = 1803449
Ave neighs/atom = 91.7692
Neighbor list builds = 6172
Dangerous builds not checked
Setting up Verlet run ...
  Unit style    : metal
  Current step  : 93336
  Time step     : 0.001
Per MPI rank memory allocation (min/avg/max) = 18.95 | 18.95 | 18.95 Mbytes
Step Temp Press TotEng PotEng Enthalpy 
   93336    2082.0962    448.26737   -72079.481   -77368.195   -72011.142 
   93338    2082.3734    445.14127   -72079.518   -77368.936   -72011.655 
   93831    2009.7812   -416.78031   -72327.033    -77432.06   -72390.516 
Loop time of 92.4197 on 1 procs for 495 steps with 19652 atoms

Performance: 0.463 ns/day, 51.863 hours/ns, 5.356 timesteps/s
98.9% CPU use with 1 MPI tasks x no OpenMP threads

MPI task timing breakdown:
Section |  min time  |  avg time  |  max time  |%varavg| %total
---------------------------------------------------------------
Pair    | 50.106     | 50.106     | 50.106     |   0.0 | 54.22
Neigh   | 40.709     | 40.709     | 40.709     |   0.0 | 44.05
Comm    | 0.55977    | 0.55977    | 0.55977    |   0.0 |  0.61
Output  | 0.076106   | 0.076106   | 0.076106   |   0.0 |  0.08
Modify  | 0.7691     | 0.7691     | 0.7691     |   0.0 |  0.83
Other   |            | 0.2002     |            |       |  0.22

Nlocal:    19652 ave 19652 max 19652 min
Histogram: 1 0 0 0 0 0 0 0 0 0
Nghost:    19866 ave 19866 max 19866 min
Histogram: 1 0 0 0 0 0 0 0 0 0
Neighs:    1.80511e+06 ave 1.80511e+06 max 1.80511e+06 min
Histogram: 1 0 0 0 0 0 0 0 0 0

Total # of neighbors = 1805106
Ave neighs/atom = 91.8536
Neighbor list builds = 495
Dangerous builds not checked
Setting up Verlet run ...
  Unit style    : metal
  Current step  : 93831
  Time step     : 0.001
Per MPI rank memory allocation (min/avg/max) = 18.95 | 18.95 | 18.95 Mbytes
Step Temp Press TotEng PotEng Enthalpy 
   93831    2009.7812   -416.78031   -72327.033    -77432.06   -72390.516 
  100003    1996.0281   -2377.0814   -72492.781   -77562.874   -72854.779 
Loop time of 1198.16 on 1 procs for 6172 steps with 19652 atoms

Performance: 0.445 ns/day, 53.924 hours/ns, 5.151 timesteps/s
99.8% CPU use with 1 MPI tasks x no OpenMP threads

MPI task timing breakdown:
Section |  min time  |  avg time  |  max time  |%varavg| %total
---------------------------------------------------------------
Pair    | 651.35     | 651.35     | 651.35     |   0.0 | 54.36
Neigh   | 527.11     | 527.11     | 527.11     |   0.0 | 43.99
Comm    | 7.2923     | 7.2923     | 7.2923     |   0.0 |  0.61
Output  | 0.00033593 | 0.00033593 | 0.00033593 |   0.0 |  0.00
Modify  | 9.8461     | 9.8461     | 9.8461     |   0.0 |  0.82
Other   |            | 2.561      |            |       |  0.21

Nlocal:    19652 ave 19652 max 19652 min
Histogram: 1 0 0 0 0 0 0 0 0 0
Nghost:    19900 ave 19900 max 19900 min
Histogram: 1 0 0 0 0 0 0 0 0 0
Neighs:    1.80444e+06 ave 1.80444e+06 max 1.80444e+06 min
Histogram: 1 0 0 0 0 0 0 0 0 0

Total # of neighbors = 1804437
Ave neighs/atom = 91.8195
Neighbor list builds = 6172
Dangerous builds not checked
Setting up Verlet run ...
  Unit style    : metal
  Current step  : 100003
  Time step     : 0.001
Per MPI rank memory allocation (min/avg/max) = 18.95 | 18.95 | 18.95 Mbytes
Step Temp Press TotEng PotEng Enthalpy 
  100003    1996.0281   -2377.0814   -72492.781   -77562.874   -72854.779 
  100005    1997.0668   -2417.5655   -72492.782   -77565.513   -72860.945 
  100498    1956.7448    280.68109   -72615.603   -77585.913   -72572.969 
Loop time of 95.9888 on 1 procs for 495 steps with 19652 atoms

Performance: 0.446 ns/day, 53.866 hours/ns, 5.157 timesteps/s
99.8% CPU use with 1 MPI tasks x no OpenMP threads

MPI task timing breakdown:
Section |  min time  |  avg time  |  max time  |%varavg| %total
---------------------------------------------------------------
Pair    | 52.682     | 52.682     | 52.682     |   0.0 | 54.88
Neigh   | 41.62      | 41.62      | 41.62      |   0.0 | 43.36
Comm    | 0.60537    | 0.60537    | 0.60537    |   0.0 |  0.63
Output  | 0.06115    | 0.06115    | 0.06115    |   0.0 |  0.06
Modify  | 0.80902    | 0.80902    | 0.80902    |   0.0 |  0.84
Other   |            | 0.2116     |            |       |  0.22

Nlocal:    19652 ave 19652 max 19652 min
Histogram: 1 0 0 0 0 0 0 0 0 0
Nghost:    19927 ave 19927 max 19927 min
Histogram: 1 0 0 0 0 0 0 0 0 0
Neighs:    1.8093e+06 ave 1.8093e+06 max 1.8093e+06 min
Histogram: 1 0 0 0 0 0 0 0 0 0

Total # of neighbors = 1809302
Ave neighs/atom = 92.0671
Neighbor list builds = 495
Dangerous builds not checked
Setting up Verlet run ...
  Unit style    : metal
  Current step  : 100498
  Time step     : 0.001
Per MPI rank memory allocation (min/avg/max) = 18.95 | 18.95 | 18.95 Mbytes
Step Temp Press TotEng PotEng Enthalpy 
  100498    1956.7448    280.68109   -72615.603   -77585.913   -72572.969 
  106670    1962.7424    1757.8136   -72661.284   -77646.829   -72394.773 
Loop time of 1196.25 on 1 procs for 6172 steps with 19652 atoms

Performance: 0.446 ns/day, 53.839 hours/ns, 5.159 timesteps/s
99.8% CPU use with 1 MPI tasks x no OpenMP threads

MPI task timing breakdown:
Section |  min time  |  avg time  |  max time  |%varavg| %total
---------------------------------------------------------------
Pair    | 650.63     | 650.63     | 650.63     |   0.0 | 54.39
Neigh   | 525.85     | 525.85     | 525.85     |   0.0 | 43.96
Comm    | 7.3063     | 7.3063     | 7.3063     |   0.0 |  0.61
Output  | 0.00018907 | 0.00018907 | 0.00018907 |   0.0 |  0.00
Modify  | 9.8715     | 9.8715     | 9.8715     |   0.0 |  0.83
Other   |            | 2.6        |            |       |  0.22

Nlocal:    19652 ave 19652 max 19652 min
Histogram: 1 0 0 0 0 0 0 0 0 0
Nghost:    19924 ave 19924 max 19924 min
Histogram: 1 0 0 0 0 0 0 0 0 0
Neighs:    1.81252e+06 ave 1.81252e+06 max 1.81252e+06 min
Histogram: 1 0 0 0 0 0 0 0 0 0

Total # of neighbors = 1812516
Ave neighs/atom = 92.2306
Neighbor list builds = 6172
Dangerous builds not checked
Setting up Verlet run ...
  Unit style    : metal
  Current step  : 106670
  Time step     : 0.001
Per MPI rank memory allocation (min/avg/max) = 18.95 | 18.95 | 18.95 Mbytes
Step Temp Press TotEng PotEng Enthalpy 
  106670    1962.7424    1757.8136   -72661.284   -77646.829   -72394.773 
  106672    1961.5025    1817.8875    -72661.29   -77643.685    -72385.67 
  107165    1910.7575    687.02148   -72962.339   -77815.837   -72858.316 
Loop time of 84.5565 on 1 procs for 495 steps with 19652 atoms

Performance: 0.506 ns/day, 47.450 hours/ns, 5.854 timesteps/s
99.9% CPU use with 1 MPI tasks x no OpenMP threads

MPI task timing breakdown:
Section |  min time  |  avg time  |  max time  |%varavg| %total
---------------------------------------------------------------
Pair    | 46.035     | 46.035     | 46.035     |   0.0 | 54.44
Neigh   | 37.093     | 37.093     | 37.093     |   0.0 | 43.87
Comm    | 0.50803    | 0.50803    | 0.50803    |   0.0 |  0.60
Output  | 0.056707   | 0.056707   | 0.056707   |   0.0 |  0.07
Modify  | 0.67984    | 0.67984    | 0.67984    |   0.0 |  0.80
Other   |            | 0.1836     |            |       |  0.22

Nlocal:    19652 ave 19652 max 19652 min
Histogram: 1 0 0 0 0 0 0 0 0 0
Nghost:    19905 ave 19905 max 19905 min
Histogram: 1 0 0 0 0 0 0 0 0 0
Neighs:    1.81491e+06 ave 1.81491e+06 max 1.81491e+06 min
Histogram: 1 0 0 0 0 0 0 0 0 0

Total # of neighbors = 1814907
Ave neighs/atom = 92.3523
Neighbor list builds = 495
Dangerous builds not checked
Setting up Verlet run ...
  Unit style    : metal
  Current step  : 107165
  Time step     : 0.001
Per MPI rank memory allocation (min/avg/max) = 18.95 | 18.95 | 18.95 Mbytes
Step Temp Press TotEng PotEng Enthalpy 
  107165    1910.7575    687.02148   -72962.339   -77815.837   -72858.316 
  113337    1915.2604     1783.035    -73044.37   -77909.306   -72774.955 
Loop time of 1229.31 on 1 procs for 6172 steps with 19652 atoms

Performance: 0.434 ns/day, 55.326 hours/ns, 5.021 timesteps/s
99.7% CPU use with 1 MPI tasks x no OpenMP threads

MPI task timing breakdown:
Section |  min time  |  avg time  |  max time  |%varavg| %total
---------------------------------------------------------------
Pair    | 679.26     | 679.26     | 679.26     |   0.0 | 55.26
Neigh   | 529.61     | 529.61     | 529.61     |   0.0 | 43.08
Comm    | 7.792      | 7.792      | 7.792      |   0.0 |  0.63
Output  | 0.00022697 | 0.00022697 | 0.00022697 |   0.0 |  0.00
Modify  | 9.9734     | 9.9734     | 9.9734     |   0.0 |  0.81
Other   |            | 2.673      |            |       |  0.22

Nlocal:    19652 ave 19652 max 19652 min
Histogram: 1 0 0 0 0 0 0 0 0 0
Nghost:    19931 ave 19931 max 19931 min
Histogram: 1 0 0 0 0 0 0 0 0 0
Neighs:    1.81828e+06 ave 1.81828e+06 max 1.81828e+06 min
Histogram: 1 0 0 0 0 0 0 0 0 0

Total # of neighbors = 1818277
Ave neighs/atom = 92.5238
Neighbor list builds = 6172
Dangerous builds not checked
Setting up Verlet run ...
  Unit style    : metal
  Current step  : 113337
  Time step     : 0.001
Per MPI rank memory allocation (min/avg/max) = 18.95 | 18.95 | 18.95 Mbytes
Step Temp Press TotEng PotEng Enthalpy 
  113337    1915.2604     1783.035    -73044.37   -77909.306   -72774.955 
  113339    1915.0019     1769.968   -73044.385   -77908.664   -72776.944 
  113832    1874.9847   -414.79291   -73271.652   -78034.284   -73334.285 
Loop time of 95.0359 on 1 procs for 495 steps with 19652 atoms

Performance: 0.450 ns/day, 53.331 hours/ns, 5.209 timesteps/s
99.8% CPU use with 1 MPI tasks x no OpenMP threads

MPI task timing breakdown:
Section |  min time  |  avg time  |  max time  |%varavg| %total
---------------------------------------------------------------
Pair    | 51.729     | 51.729     | 51.729     |   0.0 | 54.43
Neigh   | 41.61      | 41.61      | 41.61      |   0.0 | 43.78
Comm    | 0.59967    | 0.59967    | 0.59967    |   0.0 |  0.63
Output  | 0.067035   | 0.067035   | 0.067035   |   0.0 |  0.07
Modify  | 0.81001    | 0.81001    | 0.81001    |   0.0 |  0.85
Other   |            | 0.2211     |            |       |  0.23

Nlocal:    19652 ave 19652 max 19652 min
Histogram: 1 0 0 0 0 0 0 0 0 0
Nghost:    19961 ave 19961 max 19961 min
Histogram: 1 0 0 0 0 0 0 0 0 0
Neighs:    1.81979e+06 ave 1.81979e+06 max 1.81979e+06 min
Histogram: 1 0 0 0 0 0 0 0 0 0

Total # of neighbors = 1819787
Ave neighs/atom = 92.6006
Neighbor list builds = 495
Dangerous builds not checked
Setting up Verlet run ...
  Unit style    : metal
  Current step  : 113832
  Time step     : 0.001
Per MPI rank memory allocation (min/avg/max) = 18.95 | 18.95 | 18.95 Mbytes
Step Temp Press TotEng PotEng Enthalpy 
  113832    1874.9847   -414.79291   -73271.652   -78034.284   -73334.285 
  120004    1851.1316    3155.5269   -73446.455   -78148.498   -72971.809 
Loop time of 1241.59 on 1 procs for 6172 steps with 19652 atoms

Performance: 0.429 ns/day, 55.879 hours/ns, 4.971 timesteps/s
99.6% CPU use with 1 MPI tasks x no OpenMP threads

MPI task timing breakdown:
Section |  min time  |  avg time  |  max time  |%varavg| %total
---------------------------------------------------------------
Pair    | 680.83     | 680.83     | 680.83     |   0.0 | 54.84
Neigh   | 540.08     | 540.08     | 540.08     |   0.0 | 43.50
Comm    | 7.7226     | 7.7226     | 7.7226     |   0.0 |  0.62
Output  | 0.00035691 | 0.00035691 | 0.00035691 |   0.0 |  0.00
Modify  | 10.205     | 10.205     | 10.205     |   0.0 |  0.82
Other   |            | 2.744      |            |       |  0.22

Nlocal:    19652 ave 19652 max 19652 min
Histogram: 1 0 0 0 0 0 0 0 0 0
Nghost:    19976 ave 19976 max 19976 min
Histogram: 1 0 0 0 0 0 0 0 0 0
Neighs:    1.82607e+06 ave 1.82607e+06 max 1.82607e+06 min
Histogram: 1 0 0 0 0 0 0 0 0 0

Total # of neighbors = 1826068
Ave neighs/atom = 92.9202
Neighbor list builds = 6172
Dangerous builds not checked
Setting up Verlet run ...
  Unit style    : metal
  Current step  : 120004
  Time step     : 0.001
Per MPI rank memory allocation (min/avg/max) = 18.95 | 18.95 | 18.95 Mbytes
Step Temp Press TotEng PotEng Enthalpy 
  120004    1851.1316    3155.5269   -73446.455   -78148.498   -72971.809 
  120006       1850.9    3158.1365   -73446.456    -78147.91   -72971.417 
  120499      1819.43   -628.73779   -73653.829   -78275.347   -73748.394 
Loop time of 96.6659 on 1 procs for 495 steps with 19652 atoms

Performance: 0.442 ns/day, 54.246 hours/ns, 5.121 timesteps/s
99.8% CPU use with 1 MPI tasks x no OpenMP threads

MPI task timing breakdown:
Section |  min time  |  avg time  |  max time  |%varavg| %total
---------------------------------------------------------------
Pair    | 52.907     | 52.907     | 52.907     |   0.0 | 54.73
Neigh   | 42.062     | 42.062     | 42.062     |   0.0 | 43.51
Comm    | 0.60311    | 0.60311    | 0.60311    |   0.0 |  0.62
Output  | 0.068168   | 0.068168   | 0.068168   |   0.0 |  0.07
Modify  | 0.80961    | 0.80961    | 0.80961    |   0.0 |  0.84
Other   |            | 0.2164     |            |       |  0.22

Nlocal:    19652 ave 19652 max 19652 min
Histogram: 1 0 0 0 0 0 0 0 0 0
Nghost:    20001 ave 20001 max 20001 min
Histogram: 1 0 0 0 0 0 0 0 0 0
Neighs:    1.82566e+06 ave 1.82566e+06 max 1.82566e+06 min
Histogram: 1 0 0 0 0 0 0 0 0 0

Total # of neighbors = 1825659
Ave neighs/atom = 92.8994
Neighbor list builds = 495
Dangerous builds not checked
Setting up Verlet run ...
  Unit style    : metal
  Current step  : 120499
  Time step     : 0.001
Per MPI rank memory allocation (min/avg/max) = 18.95 | 18.95 | 18.95 Mbytes
Step Temp Press TotEng PotEng Enthalpy 
  120499      1819.43   -628.73779   -73653.829   -78275.347   -73748.394 
  126671    1804.1489    -1515.685    -73761.94   -78344.642   -73989.818 
Loop time of 1263.7 on 1 procs for 6172 steps with 19652 atoms

Performance: 0.422 ns/day, 56.874 hours/ns, 4.884 timesteps/s
99.6% CPU use with 1 MPI tasks x no OpenMP threads

MPI task timing breakdown:
Section |  min time  |  avg time  |  max time  |%varavg| %total
---------------------------------------------------------------
Pair    | 695.87     | 695.87     | 695.87     |   0.0 | 55.07
Neigh   | 547.05     | 547.05     | 547.05     |   0.0 | 43.29
Comm    | 7.7572     | 7.7572     | 7.7572     |   0.0 |  0.61
Output  | 0.00022006 | 0.00022006 | 0.00022006 |   0.0 |  0.00
Modify  | 10.282     | 10.282     | 10.282     |   0.0 |  0.81
Other   |            | 2.732      |            |       |  0.22

Nlocal:    19652 ave 19652 max 19652 min
Histogram: 1 0 0 0 0 0 0 0 0 0
Nghost:    19939 ave 19939 max 19939 min
Histogram: 1 0 0 0 0 0 0 0 0 0
Neighs:    1.82669e+06 ave 1.82669e+06 max 1.82669e+06 min
Histogram: 1 0 0 0 0 0 0 0 0 0

Total # of neighbors = 1826691
Ave neighs/atom = 92.9519
Neighbor list builds = 6172
Dangerous builds not checked
Setting up Verlet run ...
  Unit style    : metal
  Current step  : 126671
  Time step     : 0.001
Per MPI rank memory allocation (min/avg/max) = 18.95 | 18.95 | 18.95 Mbytes
Step Temp Press TotEng PotEng Enthalpy 
  126671    1804.1489    -1515.685    -73761.94   -78344.642   -73989.818 
  126673    1803.6964   -1490.4609   -73761.947     -78343.5   -73986.032 
  127166    1768.7289   -486.66508   -74004.676   -78497.408   -74077.647 
Loop time of 93.4731 on 1 procs for 495 steps with 19652 atoms

Performance: 0.458 ns/day, 52.454 hours/ns, 5.296 timesteps/s
99.9% CPU use with 1 MPI tasks x no OpenMP threads

MPI task timing breakdown:
Section |  min time  |  avg time  |  max time  |%varavg| %total
---------------------------------------------------------------
Pair    | 51.17      | 51.17      | 51.17      |   0.0 | 54.74
Neigh   | 40.646     | 40.646     | 40.646     |   0.0 | 43.48
Comm    | 0.58564    | 0.58564    | 0.58564    |   0.0 |  0.63
Output  | 0.067572   | 0.067572   | 0.067572   |   0.0 |  0.07
Modify  | 0.79024    | 0.79024    | 0.79024    |   0.0 |  0.85
Other   |            | 0.2137     |            |       |  0.23

Nlocal:    19652 ave 19652 max 19652 min
Histogram: 1 0 0 0 0 0 0 0 0 0
Nghost:    20030 ave 20030 max 20030 min
Histogram: 1 0 0 0 0 0 0 0 0 0
Neighs:    1.83029e+06 ave 1.83029e+06 max 1.83029e+06 min
Histogram: 1 0 0 0 0 0 0 0 0 0

Total # of neighbors = 1830291
Ave neighs/atom = 93.1351
Neighbor list builds = 495
Dangerous builds not checked
Setting up Verlet run ...
  Unit style    : metal
  Current step  : 127166
  Time step     : 0.001
Per MPI rank memory allocation (min/avg/max) = 18.95 | 18.95 | 18.95 Mbytes
Step Temp Press TotEng PotEng Enthalpy 
  127166    1768.7289   -486.66508   -74004.676   -78497.408   -74077.647 
  133338    1748.0726    2042.3421   -74178.451   -78618.715   -73873.229 
Loop time of 1199.21 on 1 procs for 6172 steps with 19652 atoms

Performance: 0.445 ns/day, 53.972 hours/ns, 5.147 timesteps/s
99.6% CPU use with 1 MPI tasks x no OpenMP threads

MPI task timing breakdown:
Section |  min time  |  avg time  |  max time  |%varavg| %total
---------------------------------------------------------------
Pair    | 657.47     | 657.47     | 657.47     |   0.0 | 54.83
Neigh   | 521.75     | 521.75     | 521.75     |   0.0 | 43.51
Comm    | 7.4936     | 7.4936     | 7.4936     |   0.0 |  0.62
Output  | 0.00029302 | 0.00029302 | 0.00029302 |   0.0 |  0.00
Modify  | 9.859      | 9.859      | 9.859      |   0.0 |  0.82
Other   |            | 2.645      |            |       |  0.22

Nlocal:    19652 ave 19652 max 19652 min
Histogram: 1 0 0 0 0 0 0 0 0 0
Nghost:    20043 ave 20043 max 20043 min
Histogram: 1 0 0 0 0 0 0 0 0 0
Neighs:    1.83646e+06 ave 1.83646e+06 max 1.83646e+06 min
Histogram: 1 0 0 0 0 0 0 0 0 0

Total # of neighbors = 1836456
Ave neighs/atom = 93.4488
Neighbor list builds = 6172
Dangerous builds not checked
Setting up Verlet run ...
  Unit style    : metal
  Current step  : 133338
  Time step     : 0.001
Per MPI rank memory allocation (min/avg/max) = 18.95 | 18.95 | 18.95 Mbytes
Step Temp Press TotEng PotEng Enthalpy 
  133338    1748.0726    2042.3421   -74178.451   -78618.715   -73873.229 
  133340    1746.8298    2085.3975   -74178.445   -78615.552   -73866.788 
  133833    1709.7868   -633.72128   -74330.533   -78673.548   -74425.302 
Loop time of 95.8971 on 1 procs for 495 steps with 19652 atoms

Performance: 0.446 ns/day, 53.814 hours/ns, 5.162 timesteps/s
99.7% CPU use with 1 MPI tasks x no OpenMP threads

MPI task timing breakdown:
Section |  min time  |  avg time  |  max time  |%varavg| %total
---------------------------------------------------------------
Pair    | 52.769     | 52.769     | 52.769     |   0.0 | 55.03
Neigh   | 41.454     | 41.454     | 41.454     |   0.0 | 43.23
Comm    | 0.61245    | 0.61245    | 0.61245    |   0.0 |  0.64
Output  | 0.04757    | 0.04757    | 0.04757    |   0.0 |  0.05
Modify  | 0.79811    | 0.79811    | 0.79811    |   0.0 |  0.83
Other   |            | 0.2158     |            |       |  0.23

Nlocal:    19652 ave 19652 max 19652 min
Histogram: 1 0 0 0 0 0 0 0 0 0
Nghost:    20031 ave 20031 max 20031 min
Histogram: 1 0 0 0 0 0 0 0 0 0
Neighs:    1.83498e+06 ave 1.83498e+06 max 1.83498e+06 min
Histogram: 1 0 0 0 0 0 0 0 0 0

Total # of neighbors = 1834975
Ave neighs/atom = 93.3734
Neighbor list builds = 495
Dangerous builds not checked
Setting up Verlet run ...
  Unit style    : metal
  Current step  : 133833
  Time step     : 0.001
Per MPI rank memory allocation (min/avg/max) = 18.95 | 18.95 | 18.95 Mbytes
Step Temp Press TotEng PotEng Enthalpy 
  133833    1709.7868   -633.72128   -74330.533   -78673.548   -74425.302 
  140005    1703.5208    1676.3026   -74467.847   -78794.945   -74217.976 
Loop time of 1211.06 on 1 procs for 6172 steps with 19652 atoms

Performance: 0.440 ns/day, 54.505 hours/ns, 5.096 timesteps/s
99.7% CPU use with 1 MPI tasks x no OpenMP threads

MPI task timing breakdown:
Section |  min time  |  avg time  |  max time  |%varavg| %total
---------------------------------------------------------------
Pair    | 666.59     | 666.59     | 666.59     |   0.0 | 55.04
Neigh   | 524.51     | 524.51     | 524.51     |   0.0 | 43.31
Comm    | 7.5337     | 7.5337     | 7.5337     |   0.0 |  0.62
Output  | 0.00025105 | 0.00025105 | 0.00025105 |   0.0 |  0.00
Modify  | 9.7785     | 9.7785     | 9.7785     |   0.0 |  0.81
Other   |            | 2.642      |            |       |  0.22

Nlocal:    19652 ave 19652 max 19652 min
Histogram: 1 0 0 0 0 0 0 0 0 0
Nghost:    20037 ave 20037 max 20037 min
Histogram: 1 0 0 0 0 0 0 0 0 0
Neighs:    1.84006e+06 ave 1.84006e+06 max 1.84006e+06 min
Histogram: 1 0 0 0 0 0 0 0 0 0

Total # of neighbors = 1840063
Ave neighs/atom = 93.6324
Neighbor list builds = 6172
Dangerous builds not checked
Setting up Verlet run ...
  Unit style    : metal
  Current step  : 140005
  Time step     : 0.001
Per MPI rank memory allocation (min/avg/max) = 18.95 | 18.95 | 18.95 Mbytes
Step Temp Press TotEng PotEng Enthalpy 
  140005    1703.5208    1676.3026   -74467.847   -78794.945   -74217.976 
  140007    1703.0301    1699.1775   -74467.849   -78793.701   -74214.568 
  140500    1662.9791   -680.02613   -74697.326   -78921.444   -74798.619 
Loop time of 96.0066 on 1 procs for 495 steps with 19652 atoms

Performance: 0.445 ns/day, 53.876 hours/ns, 5.156 timesteps/s
99.4% CPU use with 1 MPI tasks x no OpenMP threads

MPI task timing breakdown:
Section |  min time  |  avg time  |  max time  |%varavg| %total
---------------------------------------------------------------
Pair    | 52.542     | 52.542     | 52.542     |   0.0 | 54.73
Neigh   | 41.764     | 41.764     | 41.764     |   0.0 | 43.50
Comm    | 0.60983    | 0.60983    | 0.60983    |   0.0 |  0.64
Output  | 0.065218   | 0.065218   | 0.065218   |   0.0 |  0.07
Modify  | 0.80315    | 0.80315    | 0.80315    |   0.0 |  0.84
Other   |            | 0.2225     |            |       |  0.23

Nlocal:    19652 ave 19652 max 19652 min
Histogram: 1 0 0 0 0 0 0 0 0 0
Nghost:    20078 ave 20078 max 20078 min
Histogram: 1 0 0 0 0 0 0 0 0 0
Neighs:    1.8419e+06 ave 1.8419e+06 max 1.8419e+06 min
Histogram: 1 0 0 0 0 0 0 0 0 0

Total # of neighbors = 1841896
Ave neighs/atom = 93.7256
Neighbor list builds = 495
Dangerous builds not checked
Setting up Verlet run ...
  Unit style    : metal
  Current step  : 140500
  Time step     : 0.001
Per MPI rank memory allocation (min/avg/max) = 18.95 | 18.95 | 18.95 Mbytes
Step Temp Press TotEng PotEng Enthalpy 
  140500    1662.9791   -680.02613   -74697.326   -78921.444   -74798.619 
  146672    1650.7259    1129.4007   -74862.696    -79055.69   -74694.924 
Loop time of 1248.8 on 1 procs for 6172 steps with 19652 atoms

Performance: 0.427 ns/day, 56.204 hours/ns, 4.942 timesteps/s
99.4% CPU use with 1 MPI tasks x no OpenMP threads

MPI task timing breakdown:
Section |  min time  |  avg time  |  max time  |%varavg| %total
---------------------------------------------------------------
Pair    | 693.36     | 693.36     | 693.36     |   0.0 | 55.52
Neigh   | 534.72     | 534.72     | 534.72     |   0.0 | 42.82
Comm    | 7.895      | 7.895      | 7.895      |   0.0 |  0.63
Output  | 0.00035119 | 0.00035119 | 0.00035119 |   0.0 |  0.00
Modify  | 10.107     | 10.107     | 10.107     |   0.0 |  0.81
Other   |            | 2.719      |            |       |  0.22

Nlocal:    19652 ave 19652 max 19652 min
Histogram: 1 0 0 0 0 0 0 0 0 0
Nghost:    20137 ave 20137 max 20137 min
Histogram: 1 0 0 0 0 0 0 0 0 0
Neighs:    1.8466e+06 ave 1.8466e+06 max 1.8466e+06 min
Histogram: 1 0 0 0 0 0 0 0 0 0

Total # of neighbors = 1846602
Ave neighs/atom = 93.9651
Neighbor list builds = 6172
Dangerous builds not checked
Setting up Verlet run ...
  Unit style    : metal
  Current step  : 146672
  Time step     : 0.001
Per MPI rank memory allocation (min/avg/max) = 18.95 | 18.95 | 18.95 Mbytes
Step Temp Press TotEng PotEng Enthalpy 
  146672    1650.7259    1129.4007   -74862.696    -79055.69   -74694.924 
  146674    1649.8356    1180.1067   -74862.695   -79053.428   -74687.391 
  147167     1612.518   -158.12018   -75041.213   -79137.155    -75064.69 
Loop time of 106.49 on 1 procs for 495 steps with 19652 atoms

Performance: 0.402 ns/day, 59.759 hours/ns, 4.648 timesteps/s
99.5% CPU use with 1 MPI tasks x no OpenMP threads

MPI task timing breakdown:
Section |  min time  |  avg time  |  max time  |%varavg| %total
---------------------------------------------------------------
Pair    | 61.256     | 61.256     | 61.256     |   0.0 | 57.52
Neigh   | 43.372     | 43.372     | 43.372     |   0.0 | 40.73
Comm    | 0.71677    | 0.71677    | 0.71677    |   0.0 |  0.67
Output  | 0.059187   | 0.059187   | 0.059187   |   0.0 |  0.06
Modify  | 0.86387    | 0.86387    | 0.86387    |   0.0 |  0.81
Other   |            | 0.2219     |            |       |  0.21

Nlocal:    19652 ave 19652 max 19652 min
Histogram: 1 0 0 0 0 0 0 0 0 0
Nghost:    20092 ave 20092 max 20092 min
Histogram: 1 0 0 0 0 0 0 0 0 0
Neighs:    1.84661e+06 ave 1.84661e+06 max 1.84661e+06 min
Histogram: 1 0 0 0 0 0 0 0 0 0

Total # of neighbors = 1846614
Ave neighs/atom = 93.9657
Neighbor list builds = 495
Dangerous builds not checked
Setting up Verlet run ...
  Unit style    : metal
  Current step  : 147167
  Time step     : 0.001
Per MPI rank memory allocation (min/avg/max) = 18.95 | 18.95 | 18.95 Mbytes
Step Temp Press TotEng PotEng Enthalpy 
  147167     1612.518   -158.12018   -75041.213   -79137.155    -75064.69 
  153339    1605.3157    1811.2263    -75188.59   -79266.238   -74920.485 
Loop time of 1218.77 on 1 procs for 6172 steps with 19652 atoms

Performance: 0.438 ns/day, 54.852 hours/ns, 5.064 timesteps/s
99.7% CPU use with 1 MPI tasks x no OpenMP threads

MPI task timing breakdown:
Section |  min time  |  avg time  |  max time  |%varavg| %total
---------------------------------------------------------------
Pair    | 668.47     | 668.47     | 668.47     |   0.0 | 54.85
Neigh   | 529.89     | 529.89     | 529.89     |   0.0 | 43.48
Comm    | 7.5934     | 7.5934     | 7.5934     |   0.0 |  0.62
Output  | 0.00018692 | 0.00018692 | 0.00018692 |   0.0 |  0.00
Modify  | 10.098     | 10.098     | 10.098     |   0.0 |  0.83
Other   |            | 2.723      |            |       |  0.22

Nlocal:    19652 ave 19652 max 19652 min
Histogram: 1 0 0 0 0 0 0 0 0 0
Nghost:    20088 ave 20088 max 20088 min
Histogram: 1 0 0 0 0 0 0 0 0 0
Neighs:    1.85199e+06 ave 1.85199e+06 max 1.85199e+06 min
Histogram: 1 0 0 0 0 0 0 0 0 0

Total # of neighbors = 1851991
Ave neighs/atom = 94.2393
Neighbor list builds = 6172
Dangerous builds not checked
Setting up Verlet run ...
  Unit style    : metal
  Current step  : 153339
  Time step     : 0.001
Per MPI rank memory allocation (min/avg/max) = 18.95 | 18.95 | 18.95 Mbytes
Step Temp Press TotEng PotEng Enthalpy 
  153339    1605.3157    1811.2263    -75188.59   -79266.238   -74920.485 
  153341    1607.2551    1723.0316     -75188.6   -79271.175   -74933.551 
  153834    1570.5246   -2338.5681   -75418.025     -79407.3   -75764.234 
Loop time of 99.6024 on 1 procs for 495 steps with 19652 atoms

Performance: 0.429 ns/day, 55.894 hours/ns, 4.970 timesteps/s
97.1% CPU use with 1 MPI tasks x no OpenMP threads

MPI task timing breakdown:
Section |  min time  |  avg time  |  max time  |%varavg| %total
---------------------------------------------------------------
Pair    | 55.092     | 55.092     | 55.092     |   0.0 | 55.31
Neigh   | 42.779     | 42.779     | 42.779     |   0.0 | 42.95
Comm    | 0.62284    | 0.62284    | 0.62284    |   0.0 |  0.63
Output  | 0.067741   | 0.067741   | 0.067741   |   0.0 |  0.07
Modify  | 0.81476    | 0.81476    | 0.81476    |   0.0 |  0.82
Other   |            | 0.2261     |            |       |  0.23

Nlocal:    19652 ave 19652 max 19652 min
Histogram: 1 0 0 0 0 0 0 0 0 0
Nghost:    20110 ave 20110 max 20110 min
Histogram: 1 0 0 0 0 0 0 0 0 0
Neighs:    1.85139e+06 ave 1.85139e+06 max 1.85139e+06 min
Histogram: 1 0 0 0 0 0 0 0 0 0

Total # of neighbors = 1851386
Ave neighs/atom = 94.2085
Neighbor list builds = 495
Dangerous builds not checked
Setting up Verlet run ...
  Unit style    : metal
  Current step  : 153834
  Time step     : 0.001
Per MPI rank memory allocation (min/avg/max) = 18.95 | 18.95 | 18.95 Mbytes
Step Temp Press TotEng PotEng Enthalpy 
  153834    1570.5246   -2338.5681   -75418.025     -79407.3   -75764.234 
  160006    1561.7496    996.65074   -75448.575   -79415.561   -75301.292 
Loop time of 1282.3 on 1 procs for 6172 steps with 19652 atoms

Performance: 0.416 ns/day, 57.711 hours/ns, 4.813 timesteps/s
96.0% CPU use with 1 MPI tasks x no OpenMP threads

MPI task timing breakdown:
Section |  min time  |  avg time  |  max time  |%varavg| %total
---------------------------------------------------------------
Pair    | 710        | 710        | 710        |   0.0 | 55.37
Neigh   | 551.43     | 551.43     | 551.43     |   0.0 | 43.00
Comm    | 7.9673     | 7.9673     | 7.9673     |   0.0 |  0.62
Output  | 0.00021005 | 0.00021005 | 0.00021005 |   0.0 |  0.00
Modify  | 10.184     | 10.184     | 10.184     |   0.0 |  0.79
Other   |            | 2.712      |            |       |  0.21

Nlocal:    19652 ave 19652 max 19652 min
Histogram: 1 0 0 0 0 0 0 0 0 0
Nghost:    20183 ave 20183 max 20183 min
Histogram: 1 0 0 0 0 0 0 0 0 0
Neighs:    1.85486e+06 ave 1.85486e+06 max 1.85486e+06 min
Histogram: 1 0 0 0 0 0 0 0 0 0

Total # of neighbors = 1854865
Ave neighs/atom = 94.3856
Neighbor list builds = 6172
Dangerous builds not checked
Setting up Verlet run ...
  Unit style    : metal
  Current step  : 160006
  Time step     : 0.001
Per MPI rank memory allocation (min/avg/max) = 18.95 | 18.95 | 18.95 Mbytes
Step Temp Press TotEng PotEng Enthalpy 
  160006    1561.7496    996.65074   -75448.575   -79415.561   -75301.292 
  160008     1558.591    1157.3342   -75448.581   -79407.544   -75277.553 
  160501    1511.8542   -907.52684   -75734.286   -79574.534   -75868.188 
Loop time of 102.22 on 1 procs for 495 steps with 19652 atoms

Performance: 0.418 ns/day, 57.362 hours/ns, 4.843 timesteps/s
92.9% CPU use with 1 MPI tasks x no OpenMP threads

MPI task timing breakdown:
Section |  min time  |  avg time  |  max time  |%varavg| %total
---------------------------------------------------------------
Pair    | 56.011     | 56.011     | 56.011     |   0.0 | 54.79
Neigh   | 44.431     | 44.431     | 44.431     |   0.0 | 43.47
Comm    | 0.61658    | 0.61658    | 0.61658    |   0.0 |  0.60
Output  | 0.065415   | 0.065415   | 0.065415   |   0.0 |  0.06
Modify  | 0.86855    | 0.86855    | 0.86855    |   0.0 |  0.85
Other   |            | 0.2277     |            |       |  0.22

Nlocal:    19652 ave 19652 max 19652 min
Histogram: 1 0 0 0 0 0 0 0 0 0
Nghost:    20163 ave 20163 max 20163 min
Histogram: 1 0 0 0 0 0 0 0 0 0
Neighs:    1.85751e+06 ave 1.85751e+06 max 1.85751e+06 min
Histogram: 1 0 0 0 0 0 0 0 0 0

Total # of neighbors = 1857513
Ave neighs/atom = 94.5203
Neighbor list builds = 495
Dangerous builds not checked
Setting up Verlet run ...
  Unit style    : metal
  Current step  : 160501
  Time step     : 0.001
Per MPI rank memory allocation (min/avg/max) = 18.95 | 18.95 | 18.95 Mbytes
Step Temp Press TotEng PotEng Enthalpy 
  160501    1511.8542   -907.52684   -75734.286   -79574.534   -75868.188 
  166673    1488.5569   -31.979706    -75909.85    -79690.92   -75914.558 
Loop time of 1321.29 on 1 procs for 6172 steps with 19652 atoms

Performance: 0.404 ns/day, 59.466 hours/ns, 4.671 timesteps/s
92.7% CPU use with 1 MPI tasks x no OpenMP threads

MPI task timing breakdown:
Section |  min time  |  avg time  |  max time  |%varavg| %total
---------------------------------------------------------------
Pair    | 730.94     | 730.94     | 730.94     |   0.0 | 55.32
Neigh   | 568.62     | 568.62     | 568.62     |   0.0 | 43.04
Comm    | 8.2581     | 8.2581     | 8.2581     |   0.0 |  0.63
Output  | 0.00024605 | 0.00024605 | 0.00024605 |   0.0 |  0.00
Modify  | 10.586     | 10.586     | 10.586     |   0.0 |  0.80
Other   |            | 2.889      |            |       |  0.22

Nlocal:    19652 ave 19652 max 19652 min
Histogram: 1 0 0 0 0 0 0 0 0 0
Nghost:    20161 ave 20161 max 20161 min
Histogram: 1 0 0 0 0 0 0 0 0 0
Neighs:    1.86116e+06 ave 1.86116e+06 max 1.86116e+06 min
Histogram: 1 0 0 0 0 0 0 0 0 0

Total # of neighbors = 1861165
Ave neighs/atom = 94.7061
Neighbor list builds = 6172
Dangerous builds not checked
Setting up Verlet run ...
  Unit style    : metal
  Current step  : 166673
  Time step     : 0.001
Per MPI rank memory allocation (min/avg/max) = 18.95 | 18.95 | 18.95 Mbytes
Step Temp Press TotEng PotEng Enthalpy 
  166673    1488.5569   -31.979706    -75909.85    -79690.92   -75914.558 
  166675    1491.5905   -176.06715   -75909.847   -79698.623   -75935.765 
  167168    1469.4315   -235.50138   -76085.872   -79818.361   -76120.475 
Loop time of 104.582 on 1 procs for 495 steps with 19652 atoms

Performance: 0.409 ns/day, 58.688 hours/ns, 4.733 timesteps/s
92.2% CPU use with 1 MPI tasks x no OpenMP threads

MPI task timing breakdown:
Section |  min time  |  avg time  |  max time  |%varavg| %total
---------------------------------------------------------------
Pair    | 57.886     | 57.886     | 57.886     |   0.0 | 55.35
Neigh   | 44.928     | 44.928     | 44.928     |   0.0 | 42.96
Comm    | 0.63698    | 0.63698    | 0.63698    |   0.0 |  0.61
Output  | 0.065373   | 0.065373   | 0.065373   |   0.0 |  0.06
Modify  | 0.81206    | 0.81206    | 0.81206    |   0.0 |  0.78
Other   |            | 0.2537     |            |       |  0.24

Nlocal:    19652 ave 19652 max 19652 min
Histogram: 1 0 0 0 0 0 0 0 0 0
Nghost:    20222 ave 20222 max 20222 min
Histogram: 1 0 0 0 0 0 0 0 0 0
Neighs:    1.86425e+06 ave 1.86425e+06 max 1.86425e+06 min
Histogram: 1 0 0 0 0 0 0 0 0 0

Total # of neighbors = 1864250
Ave neighs/atom = 94.8631
Neighbor list builds = 495
Dangerous builds not checked
Setting up Verlet run ...
  Unit style    : metal
  Current step  : 167168
  Time step     : 0.001
Per MPI rank memory allocation (min/avg/max) = 18.95 | 18.95 | 18.95 Mbytes
Step Temp Press TotEng PotEng Enthalpy 
  167168    1469.4315   -235.50138   -76085.872   -79818.361   -76120.475 
  173340    1450.4177    3960.9732    -76282.62   -79966.813   -75703.033 
Loop time of 1377.75 on 1 procs for 6172 steps with 19652 atoms

Performance: 0.387 ns/day, 62.007 hours/ns, 4.480 timesteps/s
89.6% CPU use with 1 MPI tasks x no OpenMP threads

MPI task timing breakdown:
Section |  min time  |  avg time  |  max time  |%varavg| %total
---------------------------------------------------------------
Pair    | 764.84     | 764.84     | 764.84     |   0.0 | 55.51
Neigh   | 589.88     | 589.88     | 589.88     |   0.0 | 42.81
Comm    | 8.7949     | 8.7949     | 8.7949     |   0.0 |  0.64
Output  | 0.0042331  | 0.0042331  | 0.0042331  |   0.0 |  0.00
Modify  | 11.23      | 11.23      | 11.23      |   0.0 |  0.82
Other   |            | 3.006      |            |       |  0.22

Nlocal:    19652 ave 19652 max 19652 min
Histogram: 1 0 0 0 0 0 0 0 0 0
Nghost:    20282 ave 20282 max 20282 min
Histogram: 1 0 0 0 0 0 0 0 0 0
Neighs:    1.87138e+06 ave 1.87138e+06 max 1.87138e+06 min
Histogram: 1 0 0 0 0 0 0 0 0 0

Total # of neighbors = 1871380
Ave neighs/atom = 95.2259
Neighbor list builds = 6172
Dangerous builds not checked
Setting up Verlet run ...
  Unit style    : metal
  Current step  : 173340
  Time step     : 0.001
Per MPI rank memory allocation (min/avg/max) = 18.95 | 18.95 | 18.95 Mbytes
Step Temp Press TotEng PotEng Enthalpy 
  173340    1450.4177    3960.9732    -76282.62   -79966.813   -75703.033 
  173342    1451.2284    3911.1035   -76282.623   -79968.875   -75710.332 
  173835    1405.5651   -3022.7866   -76477.673   -80047.936    -76921.07 
Loop time of 106.761 on 1 procs for 495 steps with 19652 atoms

Performance: 0.401 ns/day, 59.911 hours/ns, 4.637 timesteps/s
91.9% CPU use with 1 MPI tasks x no OpenMP threads

MPI task timing breakdown:
Section |  min time  |  avg time  |  max time  |%varavg| %total
---------------------------------------------------------------
Pair    | 59.454     | 59.454     | 59.454     |   0.0 | 55.69
Neigh   | 45.471     | 45.471     | 45.471     |   0.0 | 42.59
Comm    | 0.67061    | 0.67061    | 0.67061    |   0.0 |  0.63
Output  | 0.06577    | 0.06577    | 0.06577    |   0.0 |  0.06
Modify  | 0.8608     | 0.8608     | 0.8608     |   0.0 |  0.81
Other   |            | 0.2389     |            |       |  0.22

Nlocal:    19652 ave 19652 max 19652 min
Histogram: 1 0 0 0 0 0 0 0 0 0
Nghost:    20206 ave 20206 max 20206 min
Histogram: 1 0 0 0 0 0 0 0 0 0
Neighs:    1.86706e+06 ave 1.86706e+06 max 1.86706e+06 min
Histogram: 1 0 0 0 0 0 0 0 0 0

Total # of neighbors = 1867064
Ave neighs/atom = 95.0063
Neighbor list builds = 495
Dangerous builds not checked
Setting up Verlet run ...
  Unit style    : metal
  Current step  : 173835
  Time step     : 0.001
Per MPI rank memory allocation (min/avg/max) = 18.95 | 18.95 | 18.95 Mbytes
Step Temp Press TotEng PotEng Enthalpy 
  173835    1405.5651   -3022.7866   -76477.673   -80047.936    -76921.07 
  180007    1401.6682    257.65152   -76582.058   -80142.423   -76544.378 
Loop time of 1288.64 on 1 procs for 6172 steps with 19652 atoms

Performance: 0.414 ns/day, 57.997 hours/ns, 4.790 timesteps/s
95.8% CPU use with 1 MPI tasks x no OpenMP threads

MPI task timing breakdown:
Section |  min time  |  avg time  |  max time  |%varavg| %total
---------------------------------------------------------------
Pair    | 716.74     | 716.74     | 716.74     |   0.0 | 55.62
Neigh   | 550.1      | 550.1      | 550.1      |   0.0 | 42.69
Comm    | 8.4252     | 8.4252     | 8.4252     |   0.0 |  0.65
Output  | 0.00019407 | 0.00019407 | 0.00019407 |   0.0 |  0.00
Modify  | 10.448     | 10.448     | 10.448     |   0.0 |  0.81
Other   |            | 2.929      |            |       |  0.23

Nlocal:    19652 ave 19652 max 19652 min
Histogram: 1 0 0 0 0 0 0 0 0 0
Nghost:    20220 ave 20220 max 20220 min
Histogram: 1 0 0 0 0 0 0 0 0 0
Neighs:    1.87169e+06 ave 1.87169e+06 max 1.87169e+06 min
Histogram: 1 0 0 0 0 0 0 0 0 0

Total # of neighbors = 1871690
Ave neighs/atom = 95.2417
Neighbor list builds = 6172
Dangerous builds not checked
Setting up Verlet run ...
  Unit style    : metal
  Current step  : 180007
  Time step     : 0.001
Per MPI rank memory allocation (min/avg/max) = 18.95 | 18.95 | 18.95 Mbytes
Step Temp Press TotEng PotEng Enthalpy 
  180007    1401.6682    257.65152   -76582.058   -80142.423   -76544.378 
  180009    1401.9502    268.29495    -76582.06   -80143.141   -76542.824 
  180502    1359.3962   -982.07524   -76819.591   -80272.581   -76963.024 
Loop time of 100.844 on 1 procs for 495 steps with 19652 atoms

Performance: 0.424 ns/day, 56.590 hours/ns, 4.909 timesteps/s
98.7% CPU use with 1 MPI tasks x no OpenMP threads

MPI task timing breakdown:
Section |  min time  |  avg time  |  max time  |%varavg| %total
---------------------------------------------------------------
Pair    | 56.747     | 56.747     | 56.747     |   0.0 | 56.27
Neigh   | 42.394     | 42.394     | 42.394     |   0.0 | 42.04
Comm    | 0.6419     | 0.6419     | 0.6419     |   0.0 |  0.64
Output  | 0.067619   | 0.067619   | 0.067619   |   0.0 |  0.07
Modify  | 0.7763     | 0.7763     | 0.7763     |   0.0 |  0.77
Other   |            | 0.2172     |            |       |  0.22

Nlocal:    19652 ave 19652 max 19652 min
Histogram: 1 0 0 0 0 0 0 0 0 0
Nghost:    20197 ave 20197 max 20197 min
Histogram: 1 0 0 0 0 0 0 0 0 0
Neighs:    1.87374e+06 ave 1.87374e+06 max 1.87374e+06 min
Histogram: 1 0 0 0 0 0 0 0 0 0

Total # of neighbors = 1873739
Ave neighs/atom = 95.346
Neighbor list builds = 495
Dangerous builds not checked
Setting up Verlet run ...
  Unit style    : metal
  Current step  : 180502
  Time step     : 0.001
Per MPI rank memory allocation (min/avg/max) = 18.95 | 18.95 | 18.95 Mbytes
Step Temp Press TotEng PotEng Enthalpy 
  180502    1359.3962   -982.07524   -76819.591   -80272.581   -76963.024 
  186674    1345.5889   -2531.7372   -76956.773   -80374.691   -77326.222 
Loop time of 1278.26 on 1 procs for 6172 steps with 19652 atoms

Performance: 0.417 ns/day, 57.530 hours/ns, 4.828 timesteps/s
98.5% CPU use with 1 MPI tasks x no OpenMP threads

MPI task timing breakdown:
Section |  min time  |  avg time  |  max time  |%varavg| %total
---------------------------------------------------------------
Pair    | 713.48     | 713.48     | 713.48     |   0.0 | 55.82
Neigh   | 543.07     | 543.07     | 543.07     |   0.0 | 42.48
Comm    | 8.3322     | 8.3322     | 8.3322     |   0.0 |  0.65
Output  | 0.00021195 | 0.00021195 | 0.00021195 |   0.0 |  0.00
Modify  | 10.49      | 10.49      | 10.49      |   0.0 |  0.82
Other   |            | 2.892      |            |       |  0.23

Nlocal:    19652 ave 19652 max 19652 min
Histogram: 1 0 0 0 0 0 0 0 0 0
Nghost:    20221 ave 20221 max 20221 min
Histogram: 1 0 0 0 0 0 0 0 0 0
Neighs:    1.87586e+06 ave 1.87586e+06 max 1.87586e+06 min
Histogram: 1 0 0 0 0 0 0 0 0 0

Total # of neighbors = 1875856
Ave neighs/atom = 95.4537
Neighbor list builds = 6172
Dangerous builds not checked
Setting up Verlet run ...
  Unit style    : metal
  Current step  : 186674
  Time step     : 0.001
Per MPI rank memory allocation (min/avg/max) = 18.95 | 18.95 | 18.95 Mbytes
Step Temp Press TotEng PotEng Enthalpy 
  186674    1345.5889   -2531.7372   -76956.773   -80374.691   -77326.222 
  186676    1344.8865   -2499.4206   -76956.767   -80372.901   -77321.499 
  187169    1317.8416    1412.8427   -77172.998   -80520.436   -76967.641 
Loop time of 98.2442 on 1 procs for 495 steps with 19652 atoms

Performance: 0.435 ns/day, 55.131 hours/ns, 5.038 timesteps/s
99.2% CPU use with 1 MPI tasks x no OpenMP threads

MPI task timing breakdown:
Section |  min time  |  avg time  |  max time  |%varavg| %total
---------------------------------------------------------------
Pair    | 54.581     | 54.581     | 54.581     |   0.0 | 55.56
Neigh   | 41.895     | 41.895     | 41.895     |   0.0 | 42.64
Comm    | 0.65091    | 0.65091    | 0.65091    |   0.0 |  0.66
Output  | 0.068284   | 0.068284   | 0.068284   |   0.0 |  0.07
Modify  | 0.82008    | 0.82008    | 0.82008    |   0.0 |  0.83
Other   |            | 0.229      |            |       |  0.23

Nlocal:    19652 ave 19652 max 19652 min
Histogram: 1 0 0 0 0 0 0 0 0 0
Nghost:    20188 ave 20188 max 20188 min
Histogram: 1 0 0 0 0 0 0 0 0 0
Neighs:    1.8826e+06 ave 1.8826e+06 max 1.8826e+06 min
Histogram: 1 0 0 0 0 0 0 0 0 0

Total # of neighbors = 1882605
Ave neighs/atom = 95.7971
Neighbor list builds = 495
Dangerous builds not checked
Setting up Verlet run ...
  Unit style    : metal
  Current step  : 187169
  Time step     : 0.001
Per MPI rank memory allocation (min/avg/max) = 18.95 | 18.95 | 18.95 Mbytes
Step Temp Press TotEng PotEng Enthalpy 
  187169    1317.8416    1412.8427   -77172.998   -80520.436   -76967.641 
  193341    1290.7688   -1643.2471   -77324.281   -80602.952   -77563.206 
Loop time of 1308.59 on 1 procs for 6172 steps with 19652 atoms

Performance: 0.408 ns/day, 58.894 hours/ns, 4.717 timesteps/s
97.6% CPU use with 1 MPI tasks x no OpenMP threads

MPI task timing breakdown:
Section |  min time  |  avg time  |  max time  |%varavg| %total
---------------------------------------------------------------
Pair    | 715.44     | 715.44     | 715.44     |   0.0 | 54.67
Neigh   | 571.67     | 571.67     | 571.67     |   0.0 | 43.69
Comm    | 8.2769     | 8.2769     | 8.2769     |   0.0 |  0.63
Output  | 0.00021195 | 0.00021195 | 0.00021195 |   0.0 |  0.00
Modify  | 10.328     | 10.328     | 10.328     |   0.0 |  0.79
Other   |            | 2.878      |            |       |  0.22

Nlocal:    19652 ave 19652 max 19652 min
Histogram: 1 0 0 0 0 0 0 0 0 0
Nghost:    20260 ave 20260 max 20260 min
Histogram: 1 0 0 0 0 0 0 0 0 0
Neighs:    1.88116e+06 ave 1.88116e+06 max 1.88116e+06 min
Histogram: 1 0 0 0 0 0 0 0 0 0

Total # of neighbors = 1881158
Ave neighs/atom = 95.7235
Neighbor list builds = 6172
Dangerous builds not checked
Setting up Verlet run ...
  Unit style    : metal
  Current step  : 193341
  Time step     : 0.001
Per MPI rank memory allocation (min/avg/max) = 18.95 | 18.95 | 18.95 Mbytes
Step Temp Press TotEng PotEng Enthalpy 
  193341    1290.7688   -1643.2471   -77324.281   -80602.952   -77563.206 
  193343    1291.4848    -1639.981   -77324.273   -80604.762   -77562.722 
  193836    1275.7306    1221.5212   -77546.934   -80787.406   -77370.072 
Loop time of 108.174 on 1 procs for 495 steps with 19652 atoms

Performance: 0.395 ns/day, 60.704 hours/ns, 4.576 timesteps/s
98.2% CPU use with 1 MPI tasks x no OpenMP threads

MPI task timing breakdown:
Section |  min time  |  avg time  |  max time  |%varavg| %total
---------------------------------------------------------------
Pair    | 57.899     | 57.899     | 57.899     |   0.0 | 53.52
Neigh   | 48.458     | 48.458     | 48.458     |   0.0 | 44.80
Comm    | 0.66494    | 0.66494    | 0.66494    |   0.0 |  0.61
Output  | 0.065489   | 0.065489   | 0.065489   |   0.0 |  0.06
Modify  | 0.84498    | 0.84498    | 0.84498    |   0.0 |  0.78
Other   |            | 0.2416     |            |       |  0.22

Nlocal:    19652 ave 19652 max 19652 min
Histogram: 1 0 0 0 0 0 0 0 0 0
Nghost:    20383 ave 20383 max 20383 min
Histogram: 1 0 0 0 0 0 0 0 0 0
Neighs:    1.88862e+06 ave 1.88862e+06 max 1.88862e+06 min
Histogram: 1 0 0 0 0 0 0 0 0 0

Total # of neighbors = 1888617
Ave neighs/atom = 96.103
Neighbor list builds = 495
Dangerous builds not checked
Setting up Verlet run ...
  Unit style    : metal
  Current step  : 193836
  Time step     : 0.001
Per MPI rank memory allocation (min/avg/max) = 18.95 | 18.95 | 18.95 Mbytes
Step Temp Press TotEng PotEng Enthalpy 
  193836    1275.7306    1221.5212   -77546.934   -80787.406   -77370.072 
  200008    1247.8732    -2793.102   -77706.951   -80876.663   -78111.684 
Loop time of 1362.79 on 1 procs for 6172 steps with 19652 atoms

Performance: 0.391 ns/day, 61.334 hours/ns, 4.529 timesteps/s
97.7% CPU use with 1 MPI tasks x no OpenMP threads

MPI task timing breakdown:
Section |  min time  |  avg time  |  max time  |%varavg| %total
---------------------------------------------------------------
Pair    | 723.38     | 723.38     | 723.38     |   0.0 | 53.08
Neigh   | 617.57     | 617.57     | 617.57     |   0.0 | 45.32
Comm    | 8.4292     | 8.4292     | 8.4292     |   0.0 |  0.62
Output  | 0.00021911 | 0.00021911 | 0.00021911 |   0.0 |  0.00
Modify  | 10.505     | 10.505     | 10.505     |   0.0 |  0.77
Other   |            | 2.907      |            |       |  0.21

Nlocal:    19652 ave 19652 max 19652 min
Histogram: 1 0 0 0 0 0 0 0 0 0
Nghost:    20332 ave 20332 max 20332 min
Histogram: 1 0 0 0 0 0 0 0 0 0
Neighs:    1.88635e+06 ave 1.88635e+06 max 1.88635e+06 min
Histogram: 1 0 0 0 0 0 0 0 0 0

Total # of neighbors = 1886346
Ave neighs/atom = 95.9875
Neighbor list builds = 6172
Dangerous builds not checked
Setting up Verlet run ...
  Unit style    : metal
  Current step  : 200008
  Time step     : 0.001
Per MPI rank memory allocation (min/avg/max) = 18.95 | 18.95 | 18.95 Mbytes
Step Temp Press TotEng PotEng Enthalpy 
  200008    1247.8732    -2793.102   -77706.951   -80876.663   -78111.684 
  200010    1248.2273   -2838.4701   -77706.949    -80877.56   -78118.256 
  200503    1224.5264    2212.2741   -77923.541   -81033.949   -77604.485 
Loop time of 102.272 on 1 procs for 495 steps with 19652 atoms

Performance: 0.418 ns/day, 57.392 hours/ns, 4.840 timesteps/s
99.5% CPU use with 1 MPI tasks x no OpenMP threads

MPI task timing breakdown:
Section |  min time  |  avg time  |  max time  |%varavg| %total
---------------------------------------------------------------
Pair    | 53.867     | 53.867     | 53.867     |   0.0 | 52.67
Neigh   | 46.73      | 46.73      | 46.73      |   0.0 | 45.69
Comm    | 0.61052    | 0.61052    | 0.61052    |   0.0 |  0.60
Output  | 0.067465   | 0.067465   | 0.067465   |   0.0 |  0.07
Modify  | 0.7825     | 0.7825     | 0.7825     |   0.0 |  0.77
Other   |            | 0.2149     |            |       |  0.21

Nlocal:    19652 ave 19652 max 19652 min
Histogram: 1 0 0 0 0 0 0 0 0 0
Nghost:    20380 ave 20380 max 20380 min
Histogram: 1 0 0 0 0 0 0 0 0 0
Neighs:    1.89483e+06 ave 1.89483e+06 max 1.89483e+06 min
Histogram: 1 0 0 0 0 0 0 0 0 0

Total # of neighbors = 1894826
Ave neighs/atom = 96.419
Neighbor list builds = 495
Dangerous builds not checked
Setting up Verlet run ...
  Unit style    : metal
  Current step  : 200503
  Time step     : 0.001
Per MPI rank memory allocation (min/avg/max) = 18.95 | 18.95 | 18.95 Mbytes
Step Temp Press TotEng PotEng Enthalpy 
  200503    1224.5264    2212.2741   -77923.541   -81033.949   -77604.485 
  206675    1193.9334    3661.0785       -78111     -81143.7    -77584.22 
Loop time of 1271.92 on 1 procs for 6172 steps with 19652 atoms

Performance: 0.419 ns/day, 57.244 hours/ns, 4.852 timesteps/s
99.8% CPU use with 1 MPI tasks x no OpenMP threads

MPI task timing breakdown:
Section |  min time  |  avg time  |  max time  |%varavg| %total
---------------------------------------------------------------
Pair    | 669.83     | 669.83     | 669.83     |   0.0 | 52.66
Neigh   | 581.73     | 581.73     | 581.73     |   0.0 | 45.74
Comm    | 7.7661     | 7.7661     | 7.7661     |   0.0 |  0.61
Output  | 0.00023103 | 0.00023103 | 0.00023103 |   0.0 |  0.00
Modify  | 9.8651     | 9.8651     | 9.8651     |   0.0 |  0.78
Other   |            | 2.728      |            |       |  0.21

Nlocal:    19652 ave 19652 max 19652 min
Histogram: 1 0 0 0 0 0 0 0 0 0
Nghost:    20392 ave 20392 max 20392 min
Histogram: 1 0 0 0 0 0 0 0 0 0
Neighs:    1.89886e+06 ave 1.89886e+06 max 1.89886e+06 min
Histogram: 1 0 0 0 0 0 0 0 0 0

Total # of neighbors = 1898862
Ave neighs/atom = 96.6244
Neighbor list builds = 6172
Dangerous builds not checked
Setting up Verlet run ...
  Unit style    : metal
  Current step  : 206675
  Time step     : 0.001
[...]
99.9% CPU use with 1 MPI tasks x no OpenMP threads

MPI task timing breakdown:
Section |  min time  |  avg time  |  max time  |%varavg| %total
---------------------------------------------------------------
Pair    | 56.031     | 56.031     | 56.031     |   0.0 | 53.59
Neigh   | 46.789     | 46.789     | 46.789     |   0.0 | 44.75
Comm    | 0.63919    | 0.63919    | 0.63919    |   0.0 |  0.61
Output  | 0.067401   | 0.067401   | 0.067401   |   0.0 |  0.06
Modify  | 0.8116     | 0.8116     | 0.8116     |   0.0 |  0.78
Other   |            | 0.2237     |            |       |  0.21

Nlocal:    19652 ave 19652 max 19652 min
Histogram: 1 0 0 0 0 0 0 0 0 0
Nghost:    20694 ave 20694 max 20694 min
Histogram: 1 0 0 0 0 0 0 0 0 0
Neighs:    1.98709e+06 ave 1.98709e+06 max 1.98709e+06 min
Histogram: 1 0 0 0 0 0 0 0 0 0

Total # of neighbors = 1987091
Ave neighs/atom = 101.114
Neighbor list builds = 495
Dangerous builds not checked
Setting up Verlet run ...
  Unit style    : metal
  Current step  : 307175
  Time step     : 0.001
Per MPI rank memory allocation (min/avg/max) = 19.34 | 19.34 | 19.34 Mbytes
Step Temp Press TotEng PotEng Enthalpy 
  307175    420.18033   -370.06965   -83532.122   -84599.418   -83583.024 
  313347    402.96087    79.779946   -83640.531   -84664.089   -83629.569 
Loop time of 1315.14 on 1 procs for 6172 steps with 19652 atoms

Performance: 0.405 ns/day, 59.189 hours/ns, 4.693 timesteps/s
99.8% CPU use with 1 MPI tasks x no OpenMP threads

MPI task timing breakdown:
Section |  min time  |  avg time  |  max time  |%varavg| %total
---------------------------------------------------------------
Pair    | 707.63     | 707.63     | 707.63     |   0.0 | 53.81
Neigh   | 586.33     | 586.33     | 586.33     |   0.0 | 44.58
Comm    | 8.0574     | 8.0574     | 8.0574     |   0.0 |  0.61
Output  | 0.00027204 | 0.00027204 | 0.00027204 |   0.0 |  0.00
Modify  | 10.294     | 10.294     | 10.294     |   0.0 |  0.78
Other   |            | 2.822      |            |       |  0.21

Nlocal:    19652 ave 19652 max 19652 min
Histogram: 1 0 0 0 0 0 0 0 0 0
Nghost:    20756 ave 20756 max 20756 min
Histogram: 1 0 0 0 0 0 0 0 0 0
Neighs:    1.98951e+06 ave 1.98951e+06 max 1.98951e+06 min
Histogram: 1 0 0 0 0 0 0 0 0 0

Total # of neighbors = 1989507
Ave neighs/atom = 101.237
Neighbor list builds = 6172
Dangerous builds not checked
Setting up Verlet run ...
  Unit style    : metal
  Current step  : 313347
  Time step     : 0.001
Per MPI rank memory allocation (min/avg/max) = 19.34 | 19.34 | 19.34 Mbytes
Step Temp Press TotEng PotEng Enthalpy 
  313347    402.96087    79.779946   -83640.531   -84664.089   -83629.569 
  313349    402.91838     74.19895   -83640.534   -84663.983   -83630.339 
  313842    367.76964    286.71767   -83797.345   -84731.513   -83757.991 
Loop time of 105.159 on 1 procs for 495 steps with 19652 atoms

Performance: 0.407 ns/day, 59.012 hours/ns, 4.707 timesteps/s
99.2% CPU use with 1 MPI tasks x no OpenMP threads

MPI task timing breakdown:
Section |  min time  |  avg time  |  max time  |%varavg| %total
---------------------------------------------------------------
Pair    | 56.145     | 56.145     | 56.145     |   0.0 | 53.39
Neigh   | 46.523     | 46.523     | 46.523     |   0.0 | 44.24
Comm    | 0.63229    | 0.63229    | 0.63229    |   0.0 |  0.60
Output  | 0.8302     | 0.8302     | 0.8302     |   0.0 |  0.79
Modify  | 0.80447    | 0.80447    | 0.80447    |   0.0 |  0.77
Other   |            | 0.2247     |            |       |  0.21

Nlocal:    19652 ave 19652 max 19652 min
Histogram: 1 0 0 0 0 0 0 0 0 0
Nghost:    20750 ave 20750 max 20750 min
Histogram: 1 0 0 0 0 0 0 0 0 0
Neighs:    1.99222e+06 ave 1.99222e+06 max 1.99222e+06 min
Histogram: 1 0 0 0 0 0 0 0 0 0

Total # of neighbors = 1992216
Ave neighs/atom = 101.375
Neighbor list builds = 495
Dangerous builds not checked
Setting up Verlet run ...
  Unit style    : metal
  Current step  : 313842
  Time step     : 0.001
Per MPI rank memory allocation (min/avg/max) = 19.34 | 19.34 | 19.34 Mbytes
Step Temp Press TotEng PotEng Enthalpy 
  313842    367.76964    286.71767   -83797.345   -84731.513   -83757.991 
  320014    351.74078    317.87551    -83903.14   -84796.593   -83859.548 
Loop time of 1307.37 on 1 procs for 6172 steps with 19652 atoms

Performance: 0.408 ns/day, 58.839 hours/ns, 4.721 timesteps/s
99.7% CPU use with 1 MPI tasks x no OpenMP threads

MPI task timing breakdown:
Section |  min time  |  avg time  |  max time  |%varavg| %total
---------------------------------------------------------------
Pair    | 702.21     | 702.21     | 702.21     |   0.0 | 53.71
Neigh   | 583.89     | 583.89     | 583.89     |   0.0 | 44.66
Comm    | 8.0791     | 8.0791     | 8.0791     |   0.0 |  0.62
Output  | 0.00033307 | 0.00033307 | 0.00033307 |   0.0 |  0.00
Modify  | 10.329     | 10.329     | 10.329     |   0.0 |  0.79
Other   |            | 2.851      |            |       |  0.22

Nlocal:    19652 ave 19652 max 19652 min
Histogram: 1 0 0 0 0 0 0 0 0 0
Nghost:    20836 ave 20836 max 20836 min
Histogram: 1 0 0 0 0 0 0 0 0 0
Neighs:    1.99376e+06 ave 1.99376e+06 max 1.99376e+06 min
Histogram: 1 0 0 0 0 0 0 0 0 0

Total # of neighbors = 1993755
Ave neighs/atom = 101.453
Neighbor list builds = 6172
Dangerous builds not checked
Setting up Verlet run ...
  Unit style    : metal
  Current step  : 320014
  Time step     : 0.001
Per MPI rank memory allocation (min/avg/max) = 19.34 | 19.34 | 19.34 Mbytes
Step Temp Press TotEng PotEng Enthalpy 
  320014    351.74078    317.87551    -83903.14   -84796.593   -83859.548 
  320016    351.53574    321.02302    -83903.14   -84796.073   -83859.117 
  320509    324.52972     606.7104    -84055.15   -84879.485    -83972.05 
Loop time of 105.564 on 1 procs for 495 steps with 19652 atoms

Performance: 0.405 ns/day, 59.239 hours/ns, 4.689 timesteps/s
99.9% CPU use with 1 MPI tasks x no OpenMP threads

MPI task timing breakdown:
Section |  min time  |  avg time  |  max time  |%varavg| %total
---------------------------------------------------------------
Pair    | 56.657     | 56.657     | 56.657     |   0.0 | 53.67
Neigh   | 47.138     | 47.138     | 47.138     |   0.0 | 44.65
Comm    | 0.64921    | 0.64921    | 0.64921    |   0.0 |  0.61
Output  | 0.063891   | 0.063891   | 0.063891   |   0.0 |  0.06
Modify  | 0.82842    | 0.82842    | 0.82842    |   0.0 |  0.78
Other   |            | 0.2271     |            |       |  0.22

Nlocal:    19652 ave 19652 max 19652 min
Histogram: 1 0 0 0 0 0 0 0 0 0
Nghost:    20776 ave 20776 max 20776 min
Histogram: 1 0 0 0 0 0 0 0 0 0
Neighs:    1.99646e+06 ave 1.99646e+06 max 1.99646e+06 min
Histogram: 1 0 0 0 0 0 0 0 0 0

Total # of neighbors = 1996461
Ave neighs/atom = 101.591
Neighbor list builds = 495
Dangerous builds not checked
Setting up Verlet run ...
  Unit style    : metal
  Current step  : 320509
  Time step     : 0.001
Per MPI rank memory allocation (min/avg/max) = 19.34 | 19.34 | 19.34 Mbytes
Step Temp Press TotEng PotEng Enthalpy 
  320509    324.52972     606.7104    -84055.15   -84879.485    -83972.05 
  326681     301.4455     1765.208   -84178.983   -84944.682   -83937.552 
Loop time of 1307.7 on 1 procs for 6172 steps with 19652 atoms

Performance: 0.408 ns/day, 58.855 hours/ns, 4.720 timesteps/s
99.6% CPU use with 1 MPI tasks x no OpenMP threads

MPI task timing breakdown:
Section |  min time  |  avg time  |  max time  |%varavg| %total
---------------------------------------------------------------
Pair    | 705.54     | 705.54     | 705.54     |   0.0 | 53.95
Neigh   | 580.87     | 580.87     | 580.87     |   0.0 | 44.42
Comm    | 8.1329     | 8.1329     | 8.1329     |   0.0 |  0.62
Output  | 0.00029588 | 0.00029588 | 0.00029588 |   0.0 |  0.00
Modify  | 10.318     | 10.318     | 10.318     |   0.0 |  0.79
Other   |            | 2.834      |            |       |  0.22

Nlocal:    19652 ave 19652 max 19652 min
Histogram: 1 0 0 0 0 0 0 0 0 0
Nghost:    20788 ave 20788 max 20788 min
Histogram: 1 0 0 0 0 0 0 0 0 0
Neighs:    1.9997e+06 ave 1.9997e+06 max 1.9997e+06 min
Histogram: 1 0 0 0 0 0 0 0 0 0

Total # of neighbors = 1999696
Ave neighs/atom = 101.755
Neighbor list builds = 6172
Dangerous builds not checked
Setting up Verlet run ...
  Unit style    : metal
  Current step  : 326681
  Time step     : 0.001
Per MPI rank memory allocation (min/avg/max) = 19.34 | 19.34 | 19.34 Mbytes
Step Temp Press TotEng PotEng Enthalpy 
  326681     301.4455     1765.208   -84178.983   -84944.682   -83937.552 
  326683    301.08254    1779.6438   -84178.985   -84943.762   -83935.578 
  327176    273.91484   -385.74014    -84319.64   -85015.409   -84372.395 
Loop time of 102.969 on 1 procs for 495 steps with 19652 atoms

Performance: 0.415 ns/day, 57.783 hours/ns, 4.807 timesteps/s
99.9% CPU use with 1 MPI tasks x no OpenMP threads

MPI task timing breakdown:
Section |  min time  |  avg time  |  max time  |%varavg| %total
---------------------------------------------------------------
Pair    | 55.536     | 55.536     | 55.536     |   0.0 | 53.93
Neigh   | 45.687     | 45.687     | 45.687     |   0.0 | 44.37
Comm    | 0.63658    | 0.63658    | 0.63658    |   0.0 |  0.62
Output  | 0.065725   | 0.065725   | 0.065725   |   0.0 |  0.06
Modify  | 0.81799    | 0.81799    | 0.81799    |   0.0 |  0.79
Other   |            | 0.2265     |            |       |  0.22

Nlocal:    19652 ave 19652 max 19652 min
Histogram: 1 0 0 0 0 0 0 0 0 0
Nghost:    20798 ave 20798 max 20798 min
Histogram: 1 0 0 0 0 0 0 0 0 0
Neighs:    2.00025e+06 ave 2.00025e+06 max 2.00025e+06 min
Histogram: 1 0 0 0 0 0 0 0 0 0

Total # of neighbors = 2000250
Ave neighs/atom = 101.784
Neighbor list builds = 495
Dangerous builds not checked
Setting up Verlet run ...
  Unit style    : metal
  Current step  : 327176
  Time step     : 0.001
Per MPI rank memory allocation (min/avg/max) = 19.34 | 19.34 | 19.34 Mbytes
Step Temp Press TotEng PotEng Enthalpy 
  327176    273.91484   -385.74014    -84319.64   -85015.409   -84372.395 
  333348    247.84875   -948.88752   -84455.607   -85085.165    -84585.29 
Loop time of 1220.53 on 1 procs for 6172 steps with 19652 atoms

Performance: 0.437 ns/day, 54.931 hours/ns, 5.057 timesteps/s
99.6% CPU use with 1 MPI tasks x no OpenMP threads

MPI task timing breakdown:
Section |  min time  |  avg time  |  max time  |%varavg| %total
---------------------------------------------------------------
Pair    | 657.47     | 657.47     | 657.47     |   0.0 | 53.87
Neigh   | 543.77     | 543.77     | 543.77     |   0.0 | 44.55
Comm    | 7.361      | 7.361      | 7.361      |   0.0 |  0.60
Output  | 0.0001471  | 0.0001471  | 0.0001471  |   0.0 |  0.00
Modify  | 9.376      | 9.376      | 9.376      |   0.0 |  0.77
Other   |            | 2.566      |            |       |  0.21

Nlocal:    19652 ave 19652 max 19652 min
Histogram: 1 0 0 0 0 0 0 0 0 0
Nghost:    20809 ave 20809 max 20809 min
Histogram: 1 0 0 0 0 0 0 0 0 0
Neighs:    2.00124e+06 ave 2.00124e+06 max 2.00124e+06 min
Histogram: 1 0 0 0 0 0 0 0 0 0

Total # of neighbors = 2001244
Ave neighs/atom = 101.834
Neighbor list builds = 6172
Dangerous builds not checked
Setting up Verlet run ...
  Unit style    : metal
  Current step  : 333348
  Time step     : 0.001
Per MPI rank memory allocation (min/avg/max) = 19.34 | 19.34 | 19.34 Mbytes
Step Temp Press TotEng PotEng Enthalpy 
  333348    247.84875   -948.88752   -84455.607   -85085.165    -84585.29 
  333350    248.11371   -955.04103   -84455.605   -85085.837    -84586.13 
  333843    224.22724    345.18342   -84579.707   -85149.265   -84532.606 
Loop time of 90.0073 on 1 procs for 495 steps with 19652 atoms

Performance: 0.475 ns/day, 50.509 hours/ns, 5.500 timesteps/s
99.1% CPU use with 1 MPI tasks x no OpenMP threads

MPI task timing breakdown:
Section |  min time  |  avg time  |  max time  |%varavg| %total
---------------------------------------------------------------
Pair    | 48.079     | 48.079     | 48.079     |   0.0 | 53.42
Neigh   | 40.474     | 40.474     | 40.474     |   0.0 | 44.97
Comm    | 0.53193    | 0.53193    | 0.53193    |   0.0 |  0.59
Output  | 0.062352   | 0.062352   | 0.062352   |   0.0 |  0.07
Modify  | 0.67757    | 0.67757    | 0.67757    |   0.0 |  0.75
Other   |            | 0.1824     |            |       |  0.20

Nlocal:    19652 ave 19652 max 19652 min
Histogram: 1 0 0 0 0 0 0 0 0 0
Nghost:    20805 ave 20805 max 20805 min
Histogram: 1 0 0 0 0 0 0 0 0 0
Neighs:    2.00466e+06 ave 2.00466e+06 max 2.00466e+06 min
Histogram: 1 0 0 0 0 0 0 0 0 0

Total # of neighbors = 2004659
Ave neighs/atom = 102.008
Neighbor list builds = 495
Dangerous builds not checked
Setting up Verlet run ...
  Unit style    : metal
  Current step  : 333843
  Time step     : 0.001
Per MPI rank memory allocation (min/avg/max) = 19.34 | 19.34 | 19.34 Mbytes
Step Temp Press TotEng PotEng Enthalpy 
  333843    224.22724    345.18342   -84579.707   -85149.265   -84532.606 
  340015    199.94308    695.69402   -84705.341   -85213.215   -84610.512 
Loop time of 1146.97 on 1 procs for 6172 steps with 19652 atoms

Performance: 0.465 ns/day, 51.621 hours/ns, 5.381 timesteps/s
99.7% CPU use with 1 MPI tasks x no OpenMP threads

MPI task timing breakdown:
Section |  min time  |  avg time  |  max time  |%varavg| %total
---------------------------------------------------------------
Pair    | 615.17     | 615.17     | 615.17     |   0.0 | 53.63
Neigh   | 514.14     | 514.14     | 514.14     |   0.0 | 44.83
Comm    | 6.7148     | 6.7148     | 6.7148     |   0.0 |  0.59
Output  | 0.00013995 | 0.00013995 | 0.00013995 |   0.0 |  0.00
Modify  | 8.6002     | 8.6002     | 8.6002     |   0.0 |  0.75
Other   |            | 2.349      |            |       |  0.20

Nlocal:    19652 ave 19652 max 19652 min
Histogram: 1 0 0 0 0 0 0 0 0 0
Nghost:    20814 ave 20814 max 20814 min
Histogram: 1 0 0 0 0 0 0 0 0 0
Neighs:    2.00723e+06 ave 2.00723e+06 max 2.00723e+06 min
Histogram: 1 0 0 0 0 0 0 0 0 0

Total # of neighbors = 2007234
Ave neighs/atom = 102.139
Neighbor list builds = 6172
Dangerous builds not checked
Setting up Verlet run ...
  Unit style    : metal
  Current step  : 340015
  Time step     : 0.001
Per MPI rank memory allocation (min/avg/max) = 19.34 | 19.34 | 19.34 Mbytes
Step Temp Press TotEng PotEng Enthalpy 
  340015    199.94308    695.69402   -84705.341   -85213.215   -84610.512 
  340017    200.01757    682.78827   -84705.342   -85213.405   -84612.271 
  340510    175.40575    1150.9273   -84832.154   -85277.701    -84675.45 
Loop time of 90.0316 on 1 procs for 495 steps with 19652 atoms

Performance: 0.475 ns/day, 50.523 hours/ns, 5.498 timesteps/s
99.8% CPU use with 1 MPI tasks x no OpenMP threads

MPI task timing breakdown:
Section |  min time  |  avg time  |  max time  |%varavg| %total
---------------------------------------------------------------
Pair    | 48.06      | 48.06      | 48.06      |   0.0 | 53.38
Neigh   | 40.516     | 40.516     | 40.516     |   0.0 | 45.00
Comm    | 0.53276    | 0.53276    | 0.53276    |   0.0 |  0.59
Output  | 0.052336   | 0.052336   | 0.052336   |   0.0 |  0.06
Modify  | 0.68247    | 0.68247    | 0.68247    |   0.0 |  0.76
Other   |            | 0.1874     |            |       |  0.21

Nlocal:    19652 ave 19652 max 19652 min
Histogram: 1 0 0 0 0 0 0 0 0 0
Nghost:    20835 ave 20835 max 20835 min
Histogram: 1 0 0 0 0 0 0 0 0 0
Neighs:    2.00997e+06 ave 2.00997e+06 max 2.00997e+06 min
Histogram: 1 0 0 0 0 0 0 0 0 0

Total # of neighbors = 2009967
Ave neighs/atom = 102.278
Neighbor list builds = 495
Dangerous builds not checked
Setting up Verlet run ...
  Unit style    : metal
  Current step  : 340510
  Time step     : 0.001
Per MPI rank memory allocation (min/avg/max) = 19.34 | 19.34 | 19.34 Mbytes
Step Temp Press TotEng PotEng Enthalpy 
  340510    175.40575    1150.9273   -84832.154   -85277.701    -84675.45 
  346682    150.47984    1060.0867   -84961.869   -85344.101    -84817.67 
Loop time of 1247.45 on 1 procs for 6172 steps with 19652 atoms

Performance: 0.427 ns/day, 56.143 hours/ns, 4.948 timesteps/s
99.1% CPU use with 1 MPI tasks x no OpenMP threads

MPI task timing breakdown:
Section |  min time  |  avg time  |  max time  |%varavg| %total
---------------------------------------------------------------
Pair    | 671.56     | 671.56     | 671.56     |   0.0 | 53.83
Neigh   | 556.52     | 556.52     | 556.52     |   0.0 | 44.61
Comm    | 7.2565     | 7.2565     | 7.2565     |   0.0 |  0.58
Output  | 0.00020194 | 0.00020194 | 0.00020194 |   0.0 |  0.00
Modify  | 9.5628     | 9.5628     | 9.5628     |   0.0 |  0.77
Other   |            | 2.544      |            |       |  0.20

Nlocal:    19652 ave 19652 max 19652 min
Histogram: 1 0 0 0 0 0 0 0 0 0
Nghost:    20814 ave 20814 max 20814 min
Histogram: 1 0 0 0 0 0 0 0 0 0
Neighs:    2.01197e+06 ave 2.01197e+06 max 2.01197e+06 min
Histogram: 1 0 0 0 0 0 0 0 0 0

Total # of neighbors = 2011967
Ave neighs/atom = 102.38
Neighbor list builds = 6172
Dangerous builds not checked
Setting up Verlet run ...
  Unit style    : metal
  Current step  : 346682
  Time step     : 0.001
Per MPI rank memory allocation (min/avg/max) = 19.34 | 19.34 | 19.34 Mbytes
Step Temp Press TotEng PotEng Enthalpy 
  346682    150.47984    1060.0867   -84961.869   -85344.101    -84817.67 
  346684     150.4467    1050.2742    -84961.87   -85344.018   -84819.005 
  347177    126.24208   -250.13538   -85082.189   -85402.856   -85116.206 
Loop time of 103.773 on 1 procs for 495 steps with 19652 atoms

Performance: 0.412 ns/day, 58.234 hours/ns, 4.770 timesteps/s
98.3% CPU use with 1 MPI tasks x no OpenMP threads

MPI task timing breakdown:
Section |  min time  |  avg time  |  max time  |%varavg| %total
---------------------------------------------------------------
Pair    | 56.158     | 56.158     | 56.158     |   0.0 | 54.12
Neigh   | 45.958     | 45.958     | 45.958     |   0.0 | 44.29
Comm    | 0.60568    | 0.60568    | 0.60568    |   0.0 |  0.58
Output  | 0.068084   | 0.068084   | 0.068084   |   0.0 |  0.07
Modify  | 0.77879    | 0.77879    | 0.77879    |   0.0 |  0.75
Other   |            | 0.2048     |            |       |  0.20

Nlocal:    19652 ave 19652 max 19652 min
Histogram: 1 0 0 0 0 0 0 0 0 0
Nghost:    20835 ave 20835 max 20835 min
Histogram: 1 0 0 0 0 0 0 0 0 0
Neighs:    2.01262e+06 ave 2.01262e+06 max 2.01262e+06 min
Histogram: 1 0 0 0 0 0 0 0 0 0

Total # of neighbors = 2012616
Ave neighs/atom = 102.413
Neighbor list builds = 495
Dangerous builds not checked
Setting up Verlet run ...
  Unit style    : metal
  Current step  : 347177
  Time step     : 0.001
Per MPI rank memory allocation (min/avg/max) = 19.34 | 19.34 | 19.34 Mbytes
Step Temp Press TotEng PotEng Enthalpy 
  347177    126.24208   -250.13538   -85082.189   -85402.856   -85116.206 
  353349     100.5096   -287.07507   -85218.892   -85474.195   -85257.892 
Loop time of 1291.43 on 1 procs for 6172 steps with 19652 atoms

Performance: 0.413 ns/day, 58.122 hours/ns, 4.779 timesteps/s
97.5% CPU use with 1 MPI tasks x no OpenMP threads

MPI task timing breakdown:
Section |  min time  |  avg time  |  max time  |%varavg| %total
---------------------------------------------------------------
Pair    | 694.5      | 694.5      | 694.5      |   0.0 | 53.78
Neigh   | 576.56     | 576.56     | 576.56     |   0.0 | 44.65
Comm    | 7.635      | 7.635      | 7.635      |   0.0 |  0.59
Output  | 0.00034809 | 0.00034809 | 0.00034809 |   0.0 |  0.00
Modify  | 10.053     | 10.053     | 10.053     |   0.0 |  0.78
Other   |            | 2.684      |            |       |  0.21

Nlocal:    19652 ave 19652 max 19652 min
Histogram: 1 0 0 0 0 0 0 0 0 0
Nghost:    20818 ave 20818 max 20818 min
Histogram: 1 0 0 0 0 0 0 0 0 0
Neighs:    2.01489e+06 ave 2.01489e+06 max 2.01489e+06 min
Histogram: 1 0 0 0 0 0 0 0 0 0

Total # of neighbors = 2014887
Ave neighs/atom = 102.528
Neighbor list builds = 6172
Dangerous builds not checked
Total wall time: 19:37:23
