LAMMPS (12 Dec 2018)
Lattice spacing in x,y,z = 4 4 4
Created orthogonal box = (0 0 0) to (68 68 68)
  1 by 1 by 2 MPI processor grid
Created 19652 atoms
  Time spent = 0.00110006 secs
Setting atom values ...
  19480 settings made for type/fraction
Neighbor list info ...
  update every 1 steps, delay 0 steps, check no
  max neighbors/atom: 2000, page size: 100000
  master list distance cutoff = 8.5
  ghost atom cutoff = 8.5
  binsize = 4.25, bins = 16 16 16
  1 neighbor lists, perpetual/occasional/extra = 1 0 0
  (1) pair eam/alloy, perpetual
      attributes: half, newton on
      pair build: half/bin/atomonly/newton
      stencil: half/bin/3d/newton
      bin: standard
Setting up Verlet run ...
  Unit style    : metal
  Current step  : 0
  Time step     : 0.001
Per MPI rank memory allocation (min/avg/max) = 11.15 | 11.15 | 11.15 Mbytes
Step Temp Press TotEng PotEng Enthalpy 
       0          300    15950.205   -65977.094   -66739.122   -62846.818 
    1000    154.87607    22619.157   -65976.914   -66370.313   -61537.836 
Loop time of 87.16 on 2 procs for 1000 steps with 19652 atoms

Performance: 0.991 ns/day, 24.211 hours/ns, 11.473 timesteps/s
98.9% CPU use with 2 MPI tasks x no OpenMP threads

MPI task timing breakdown:
Section |  min time  |  avg time  |  max time  |%varavg| %total
---------------------------------------------------------------
Pair    | 49.589     | 49.627     | 49.666     |   0.5 | 56.94
Neigh   | 33.983     | 34.014     | 34.045     |   0.5 | 39.02
Comm    | 3.0315     | 3.1055     | 3.1795     |   4.2 |  3.56
Output  | 0.000139   | 0.00019193 | 0.00024486 |   0.0 |  0.00
Modify  | 0.20367    | 0.20816    | 0.21265    |   1.0 |  0.24
Other   |            | 0.2046     |            |       |  0.23

Nlocal:    9826 ave 9836 max 9816 min
Histogram: 1 0 0 0 0 0 0 0 0 1
Nghost:    14211 ave 14221 max 14201 min
Histogram: 1 0 0 0 0 0 0 0 0 1
Neighs:    786722 ave 787797 max 785647 min
Histogram: 1 0 0 0 0 0 0 0 0 1

Total # of neighbors = 1573444
Ave neighs/atom = 80.0653
Neighbor list builds = 1000
Dangerous builds not checked
Setting up Verlet run ...
  Unit style    : metal
  Current step  : 1000
  Time step     : 0.001
Per MPI rank memory allocation (min/avg/max) = 11.15 | 11.15 | 11.15 Mbytes
Step Temp Press TotEng PotEng Enthalpy 
    1000    154.87607    22619.157   -65976.914   -66370.313   -61537.836 
    2000    296.95909   -38.947166   -65221.185   -65975.488   -65229.145 
Loop time of 85.9891 on 2 procs for 1000 steps with 19652 atoms

Performance: 1.005 ns/day, 23.886 hours/ns, 11.629 timesteps/s
97.6% CPU use with 2 MPI tasks x no OpenMP threads

MPI task timing breakdown:
Section |  min time  |  avg time  |  max time  |%varavg| %total
---------------------------------------------------------------
Pair    | 48.267     | 48.344     | 48.422     |   1.1 | 56.22
Neigh   | 33.688     | 33.838     | 33.989     |   2.6 | 39.35
Comm    | 2.7517     | 2.8257     | 2.8997     |   4.4 |  3.29
Output  | 0.00011706 | 0.00014603 | 0.000175   |   0.0 |  0.00
Modify  | 0.76544    | 0.76655    | 0.76766    |   0.1 |  0.89
Other   |            | 0.214      |            |       |  0.25

Nlocal:    9826 ave 9838 max 9814 min
Histogram: 1 0 0 0 0 0 0 0 0 1
Nghost:    14209 ave 14222 max 14196 min
Histogram: 1 0 0 0 0 0 0 0 0 1
Neighs:    729234 ave 730162 max 728306 min
Histogram: 1 0 0 0 0 0 0 0 0 1

Total # of neighbors = 1458468
Ave neighs/atom = 74.2147
Neighbor list builds = 1000
Dangerous builds not checked
Setting up Verlet run ...
  Unit style    : metal
  Current step  : 2000
  Time step     : 0.001
Per MPI rank memory allocation (min/avg/max) = 11.15 | 11.15 | 11.15 Mbytes
Step Temp Press TotEng PotEng Enthalpy 
    2000    296.95909   -38.947166   -65221.185   -65975.488   -65229.145 
   10000    2442.4607   -665.90082    -50977.09   -57181.163   -51163.345 
Loop time of 637.842 on 2 procs for 8000 steps with 19652 atoms

Performance: 1.084 ns/day, 22.147 hours/ns, 12.542 timesteps/s
97.4% CPU use with 2 MPI tasks x no OpenMP threads

MPI task timing breakdown:
Section |  min time  |  avg time  |  max time  |%varavg| %total
---------------------------------------------------------------
Pair    | 344.27     | 344.7      | 345.13     |   2.3 | 54.04
Neigh   | 257.5      | 260.38     | 263.26     |  17.9 | 40.82
Comm    | 21.381     | 24.777     | 28.173     |  68.2 |  3.88
Output  | 0.00012612 | 0.00015509 | 0.00018406 |   0.0 |  0.00
Modify  | 6.2917     | 6.371      | 6.4504     |   3.1 |  1.00
Other   |            | 1.614      |            |       |  0.25

Nlocal:    9826 ave 9831 max 9821 min
Histogram: 1 0 0 0 0 0 0 0 0 1
Nghost:    11315.5 ave 11360 max 11271 min
Histogram: 1 0 0 0 0 0 0 0 0 1
Neighs:    550458 ave 550652 max 550263 min
Histogram: 1 0 0 0 0 0 0 0 0 1

Total # of neighbors = 1100915
Ave neighs/atom = 56.0205
Neighbor list builds = 8000
Dangerous builds not checked
Setting up Verlet run ...
  Unit style    : metal
  Current step  : 10000
  Time step     : 0.001
Per MPI rank memory allocation (min/avg/max) = 11.16 | 11.16 | 11.16 Mbytes
Step Temp Press TotEng PotEng Enthalpy 
   10000    2442.4607   -665.90082    -50977.09   -57181.163   -51163.345 
   20000    2466.5642    744.57346   -51001.114   -57266.412   -50793.763 
   40000    2461.4553    30.180486   -50893.466   -57145.787   -50885.013 
Loop time of 2013.8 on 2 procs for 30000 steps with 19652 atoms

Performance: 1.287 ns/day, 18.646 hours/ns, 14.897 timesteps/s
98.4% CPU use with 2 MPI tasks x no OpenMP threads

MPI task timing breakdown:
Section |  min time  |  avg time  |  max time  |%varavg| %total
---------------------------------------------------------------
Pair    | 1066.4     | 1067.9     | 1069.3     |   4.4 | 53.03
Neigh   | 847.05     | 848.99     | 850.93     |   6.6 | 42.16
Comm    | 67.824     | 71.017     | 74.209     |  37.9 |  3.53
Output  | 0.059372   | 0.059402   | 0.059432   |   0.0 |  0.00
Modify  | 20.2       | 20.399     | 20.599     |   4.4 |  1.01
Other   |            | 5.469      |            |       |  0.27

Nlocal:    9826 ave 9851 max 9801 min
Histogram: 1 0 0 0 0 0 0 0 0 1
Nghost:    11389.5 ave 11414 max 11365 min
Histogram: 1 0 0 0 0 0 0 0 0 1
Neighs:    549800 ave 551884 max 547715 min
Histogram: 1 0 0 0 0 0 0 0 0 1

Total # of neighbors = 1099599
Ave neighs/atom = 55.9535
Neighbor list builds = 30000
Dangerous builds not checked
Setting up Verlet run ...
  Unit style    : metal
  Current step  : 40000
  Time step     : 0.001
Per MPI rank memory allocation (min/avg/max) = 11.29 | 11.29 | 11.29 Mbytes
Step Temp Press TotEng PotEng Enthalpy 
   40000    2461.4553    30.180486   -50893.466   -57145.787   -50885.013 
   40495    2417.8557    793.23781   -51077.682   -57219.256   -50856.364 
Loop time of 29.8903 on 2 procs for 495 steps with 19652 atoms

Performance: 1.431 ns/day, 16.773 hours/ns, 16.561 timesteps/s
95.4% CPU use with 2 MPI tasks x no OpenMP threads

MPI task timing breakdown:
Section |  min time  |  avg time  |  max time  |%varavg| %total
---------------------------------------------------------------
Pair    | 16.266     | 16.511     | 16.756     |   6.0 | 55.24
Neigh   | 11.408     | 11.96      | 12.512     |  16.0 | 40.01
Comm    | 0.72516    | 1.0437     | 1.3623     |  31.2 |  3.49
Output  | 7.7963e-05 | 0.00010753 | 0.00013709 |   0.0 |  0.00
Modify  | 0.28374    | 0.2931     | 0.30245    |   1.7 |  0.98
Other   |            | 0.08189    |            |       |  0.27

Nlocal:    9826 ave 9857 max 9795 min
Histogram: 1 0 0 0 0 0 0 0 0 1
Nghost:    11420.5 ave 11435 max 11406 min
Histogram: 1 0 0 0 0 0 0 0 0 1
Neighs:    552118 ave 554079 max 550157 min
Histogram: 1 0 0 0 0 0 0 0 0 1

Total # of neighbors = 1104236
Ave neighs/atom = 56.1895
Neighbor list builds = 495
Dangerous builds not checked
Setting up Verlet run ...
  Unit style    : metal
  Current step  : 40495
  Time step     : 0.001
Per MPI rank memory allocation (min/avg/max) = 11.29 | 11.29 | 11.29 Mbytes
Step Temp Press TotEng PotEng Enthalpy 
   40495    2417.8557    793.23781   -51077.682   -57219.256   -50856.364 
   60000    2382.3811   -708.77931     -51145.9   -57197.365   -51344.144 
Loop time of 1191.88 on 2 procs for 19505 steps with 19652 atoms

Performance: 1.414 ns/day, 16.974 hours/ns, 16.365 timesteps/s
98.9% CPU use with 2 MPI tasks x no OpenMP threads

MPI task timing breakdown:
Section |  min time  |  avg time  |  max time  |%varavg| %total
---------------------------------------------------------------
Pair    | 603.01     | 607.77     | 612.53     |  19.3 | 50.99
Neigh   | 526.72     | 528.67     | 530.61     |   8.5 | 44.36
Comm    | 33.808     | 40.57      | 47.332     | 106.2 |  3.40
Output  | 0.022482   | 0.022494   | 0.022505   |   0.0 |  0.00
Modify  | 11.622     | 11.663     | 11.704     |   1.2 |  0.98
Other   |            | 3.183      |            |       |  0.27

Nlocal:    9826 ave 9853 max 9799 min
Histogram: 1 0 0 0 0 0 0 0 0 1
Nghost:    11344.5 ave 11365 max 11324 min
Histogram: 1 0 0 0 0 0 0 0 0 1
Neighs:    550425 ave 552159 max 548691 min
Histogram: 1 0 0 0 0 0 0 0 0 1

Total # of neighbors = 1100850
Ave neighs/atom = 56.0172
Neighbor list builds = 19505
Dangerous builds not checked
Setting up Verlet run ...
  Unit style    : metal
  Current step  : 60000
  Time step     : 0.001
Per MPI rank memory allocation (min/avg/max) = 11.31 | 11.31 | 11.31 Mbytes
Step Temp Press TotEng PotEng Enthalpy 
   60000    2382.3811   -708.77931     -51145.9   -57197.365   -51344.144 
   60495    2362.7658   -214.10371   -51402.234   -57403.874   -51461.595 
Loop time of 29.8881 on 2 procs for 495 steps with 19652 atoms

Performance: 1.431 ns/day, 16.772 hours/ns, 16.562 timesteps/s
99.9% CPU use with 2 MPI tasks x no OpenMP threads

MPI task timing breakdown:
Section |  min time  |  avg time  |  max time  |%varavg| %total
---------------------------------------------------------------
Pair    | 15.192     | 15.382     | 15.572     |   4.9 | 51.47
Neigh   | 11.966     | 12.698     | 13.43      |  20.5 | 42.48
Comm    | 0.86712    | 1.4284     | 1.9896     |  47.0 |  4.78
Output  | 6.8903e-05 | 9.7394e-05 | 0.00012589 |   0.0 |  0.00
Modify  | 0.2891     | 0.3014     | 0.3137     |   2.2 |  1.01
Other   |            | 0.07842    |            |       |  0.26

Nlocal:    9826 ave 9848 max 9804 min
Histogram: 1 0 0 0 0 0 0 0 0 1
Nghost:    11428 ave 11440 max 11416 min
Histogram: 1 0 0 0 0 0 0 0 0 1
Neighs:    555398 ave 563104 max 547693 min
Histogram: 1 0 0 0 0 0 0 0 0 1

Total # of neighbors = 1110797
Ave neighs/atom = 56.5234
Neighbor list builds = 495
Dangerous builds not checked
Setting up Verlet run ...
  Unit style    : metal
  Current step  : 60495
  Time step     : 0.001
Per MPI rank memory allocation (min/avg/max) = 11.31 | 11.31 | 11.31 Mbytes
Step Temp Press TotEng PotEng Enthalpy 
   60495    2362.7658   -214.10371   -51402.234   -57403.874   -51461.595 
   80000    2375.7315   -250.22701   -51383.667   -57418.242   -51453.032 
Loop time of 1058.92 on 2 procs for 19505 steps with 19652 atoms

Performance: 1.591 ns/day, 15.080 hours/ns, 18.420 timesteps/s
98.4% CPU use with 2 MPI tasks x no OpenMP threads

MPI task timing breakdown:
Section |  min time  |  avg time  |  max time  |%varavg| %total
---------------------------------------------------------------
Pair    | 521.32     | 525.88     | 530.44     |  19.9 | 49.66
Neigh   | 484.52     | 484.98     | 485.43     |   2.1 | 45.80
Comm    | 30.945     | 35.04      | 39.134     |  69.2 |  3.31
Output  | 0.023069   | 0.023082   | 0.023095   |   0.0 |  0.00
Modify  | 10.211     | 10.214     | 10.217     |   0.1 |  0.96
Other   |            | 2.782      |            |       |  0.26

Nlocal:    9826 ave 9838 max 9814 min
Histogram: 1 0 0 0 0 0 0 0 0 1
Nghost:    11388 ave 11416 max 11360 min
Histogram: 1 0 0 0 0 0 0 0 0 1
Neighs:    555729 ave 560160 max 551298 min
Histogram: 1 0 0 0 0 0 0 0 0 1

Total # of neighbors = 1111458
Ave neighs/atom = 56.557
Neighbor list builds = 19505
Dangerous builds not checked
Setting up Verlet run ...
  Unit style    : metal
  Current step  : 80000
  Time step     : 0.001
Per MPI rank memory allocation (min/avg/max) = 11.33 | 11.33 | 11.33 Mbytes
Step Temp Press TotEng PotEng Enthalpy 
   80000    2375.7315   -250.22701   -51383.667   -57418.242   -51453.032 
   80495    2299.3594    922.63817    -51670.77   -57511.353   -51416.632 
Loop time of 26.4379 on 2 procs for 495 steps with 19652 atoms

Performance: 1.618 ns/day, 14.836 hours/ns, 18.723 timesteps/s
98.4% CPU use with 2 MPI tasks x no OpenMP threads

MPI task timing breakdown:
Section |  min time  |  avg time  |  max time  |%varavg| %total
---------------------------------------------------------------
Pair    | 13.182     | 13.316     | 13.449     |   3.7 | 50.37
Neigh   | 12.056     | 12.147     | 12.239     |   2.6 | 45.95
Comm    | 0.40961    | 0.63775    | 0.86589    |  28.6 |  2.41
Output  | 6.8903e-05 | 9.5963e-05 | 0.00012302 |   0.0 |  0.00
Modify  | 0.26168    | 0.26469    | 0.26769    |   0.6 |  1.00
Other   |            | 0.07234    |            |       |  0.27

Nlocal:    9826 ave 9829 max 9823 min
Histogram: 1 0 0 0 0 0 0 0 0 1
Nghost:    11430.5 ave 11458 max 11403 min
Histogram: 1 0 0 0 0 0 0 0 0 1
Neighs:    559147 ave 564767 max 553527 min
Histogram: 1 0 0 0 0 0 0 0 0 1

Total # of neighbors = 1118294
Ave neighs/atom = 56.9048
Neighbor list builds = 495
Dangerous builds not checked
Setting up Verlet run ...
  Unit style    : metal
  Current step  : 80495
  Time step     : 0.001
Per MPI rank memory allocation (min/avg/max) = 11.33 | 11.33 | 11.33 Mbytes
Step Temp Press TotEng PotEng Enthalpy 
   80495    2299.3594    922.63817    -51670.77   -57511.353   -51416.632 
  100000    2292.5605   -39.257091   -51661.359   -57484.672   -51672.204 
Loop time of 1112 on 2 procs for 19505 steps with 19652 atoms

Performance: 1.515 ns/day, 15.836 hours/ns, 17.540 timesteps/s
98.0% CPU use with 2 MPI tasks x no OpenMP threads

MPI task timing breakdown:
Section |  min time  |  avg time  |  max time  |%varavg| %total
---------------------------------------------------------------
Pair    | 558.09     | 562.52     | 566.96     |  18.7 | 50.59
Neigh   | 499.43     | 500.29     | 501.15     |   3.8 | 44.99
Comm    | 31.925     | 35.51      | 39.095     |  60.2 |  3.19
Output  | 0.022181   | 0.022192   | 0.022202   |   0.0 |  0.00
Modify  | 10.736     | 10.761     | 10.786     |   0.8 |  0.97
Other   |            | 2.891      |            |       |  0.26

Nlocal:    9826 ave 9851 max 9801 min
Histogram: 1 0 0 0 0 0 0 0 0 1
Nghost:    11451 ave 11493 max 11409 min
Histogram: 1 0 0 0 0 0 0 0 0 1
Neighs:    557866 ave 561467 max 554265 min
Histogram: 1 0 0 0 0 0 0 0 0 1

Total # of neighbors = 1115732
Ave neighs/atom = 56.7745
Neighbor list builds = 19505
Dangerous builds not checked
Setting up Verlet run ...
  Unit style    : metal
  Current step  : 100000
  Time step     : 0.001
Per MPI rank memory allocation (min/avg/max) = 11.33 | 11.33 | 11.33 Mbytes
Step Temp Press TotEng PotEng Enthalpy 
  100000    2292.5605   -39.257091   -51661.359   -57484.672   -51672.204 
  100495    2277.1046    250.46166   -51932.359   -57716.412   -51863.754 
Loop time of 25.161 on 2 procs for 495 steps with 19652 atoms

Performance: 1.700 ns/day, 14.120 hours/ns, 19.673 timesteps/s
97.8% CPU use with 2 MPI tasks x no OpenMP threads

MPI task timing breakdown:
Section |  min time  |  avg time  |  max time  |%varavg| %total
---------------------------------------------------------------
Pair    | 12.074     | 12.243     | 12.413     |   4.8 | 48.66
Neigh   | 11.442     | 11.639     | 11.836     |   5.8 | 46.26
Comm    | 0.92901    | 0.95913    | 0.98925    |   3.1 |  3.81
Output  | 6.3896e-05 | 8.3923e-05 | 0.00010395 |   0.0 |  0.00
Modify  | 0.24924    | 0.25147    | 0.2537     |   0.4 |  1.00
Other   |            | 0.06782    |            |       |  0.27

Nlocal:    9826 ave 9859 max 9793 min
Histogram: 1 0 0 0 0 0 0 0 0 1
Nghost:    11385 ave 11409 max 11361 min
Histogram: 1 0 0 0 0 0 0 0 0 1
Neighs:    562498 ave 565434 max 559563 min
Histogram: 1 0 0 0 0 0 0 0 0 1

Total # of neighbors = 1124997
Ave neighs/atom = 57.2459
Neighbor list builds = 495
Dangerous builds not checked
Setting up Verlet run ...
  Unit style    : metal
  Current step  : 100495
  Time step     : 0.001
Per MPI rank memory allocation (min/avg/max) = 11.33 | 11.33 | 11.33 Mbytes
Step Temp Press TotEng PotEng Enthalpy 
  100495    2277.1046    250.46166   -51932.359   -57716.412   -51863.754 
  120000    2248.8142    209.82797   -51978.353   -57690.546   -51920.875 
Loop time of 1086.59 on 2 procs for 19505 steps with 19652 atoms

Performance: 1.551 ns/day, 15.474 hours/ns, 17.951 timesteps/s
98.5% CPU use with 2 MPI tasks x no OpenMP threads

MPI task timing breakdown:
Section |  min time  |  avg time  |  max time  |%varavg| %total
---------------------------------------------------------------
Pair    | 543.45     | 546.89     | 550.32     |  14.7 | 50.33
Neigh   | 491.31     | 492.77     | 494.22     |   6.6 | 45.35
Comm    | 28.791     | 33.678     | 38.565     |  84.2 |  3.10
Output  | 0.022394   | 0.022405   | 0.022415   |   0.0 |  0.00
Modify  | 10.435     | 10.457     | 10.48      |   0.7 |  0.96
Other   |            | 2.775      |            |       |  0.26

Nlocal:    9826 ave 9828 max 9824 min
Histogram: 1 0 0 0 0 0 0 0 0 1
Nghost:    11456 ave 11501 max 11411 min
Histogram: 1 0 0 0 0 0 0 0 0 1
Neighs:    562561 ave 567394 max 557728 min
Histogram: 1 0 0 0 0 0 0 0 0 1

Total # of neighbors = 1125122
Ave neighs/atom = 57.2523
Neighbor list builds = 19505
Dangerous builds not checked
Setting up Verlet run ...
  Unit style    : metal
  Current step  : 120000
  Time step     : 0.001
Per MPI rank memory allocation (min/avg/max) = 11.34 | 11.34 | 11.34 Mbytes
Step Temp Press TotEng PotEng Enthalpy 
  120000    2248.8142    209.82797   -51978.353   -57690.546   -51920.875 
  120495    2214.9265    25.822989   -52218.389   -57844.504   -52211.354 
Loop time of 25.8502 on 2 procs for 495 steps with 19652 atoms

Performance: 1.654 ns/day, 14.506 hours/ns, 19.149 timesteps/s
96.6% CPU use with 2 MPI tasks x no OpenMP threads

MPI task timing breakdown:
Section |  min time  |  avg time  |  max time  |%varavg| %total
---------------------------------------------------------------
Pair    | 12.999     | 13.053     | 13.106     |   1.5 | 50.49
Neigh   | 11.466     | 11.573     | 11.681     |   3.2 | 44.77
Comm    | 0.75018    | 0.91377    | 1.0774     |  17.1 |  3.53
Output  | 7.1049e-05 | 8.4519e-05 | 9.799e-05  |   0.0 |  0.00
Modify  | 0.24423    | 0.24607    | 0.24791    |   0.4 |  0.95
Other   |            | 0.06435    |            |       |  0.25

Nlocal:    9826 ave 9845 max 9807 min
Histogram: 1 0 0 0 0 0 0 0 0 1
Nghost:    11457 ave 11463 max 11451 min
Histogram: 1 0 0 0 0 0 0 0 0 1
Neighs:    565632 ave 569243 max 562022 min
Histogram: 1 0 0 0 0 0 0 0 0 1

Total # of neighbors = 1131265
Ave neighs/atom = 57.5649
Neighbor list builds = 495
Dangerous builds not checked
Setting up Verlet run ...
  Unit style    : metal
  Current step  : 120495
  Time step     : 0.001
Per MPI rank memory allocation (min/avg/max) = 11.34 | 11.34 | 11.34 Mbytes
Step Temp Press TotEng PotEng Enthalpy 
  120495    2214.9265    25.822989   -52218.389   -57844.504   -52211.354 
  140000     2193.703    82.650135   -52340.779   -57912.984   -52318.308 
Loop time of 1111.17 on 2 procs for 19505 steps with 19652 atoms

Performance: 1.517 ns/day, 15.825 hours/ns, 17.554 timesteps/s
98.3% CPU use with 2 MPI tasks x no OpenMP threads

MPI task timing breakdown:
Section |  min time  |  avg time  |  max time  |%varavg| %total
---------------------------------------------------------------
Pair    | 552.6      | 556.39     | 560.17     |  16.0 | 50.07
Neigh   | 490.14     | 492.39     | 494.63     |  10.1 | 44.31
Comm    | 40.63      | 46.727     | 52.825     |  89.2 |  4.21
Output  | 0.038061   | 0.03809    | 0.03812    |   0.0 |  0.00
Modify  | 12.734     | 12.786     | 12.838     |   1.4 |  1.15
Other   |            | 2.84       |            |       |  0.26

Nlocal:    9826 ave 9837 max 9815 min
Histogram: 1 0 0 0 0 0 0 0 0 1
Nghost:    11537 ave 11549 max 11525 min
Histogram: 1 0 0 0 0 0 0 0 0 1
Neighs:    566628 ave 570634 max 562623 min
Histogram: 1 0 0 0 0 0 0 0 0 1

Total # of neighbors = 1133257
Ave neighs/atom = 57.6662
Neighbor list builds = 19505
Dangerous builds not checked
Setting up Verlet run ...
  Unit style    : metal
  Current step  : 140000
  Time step     : 0.001
Per MPI rank memory allocation (min/avg/max) = 11.34 | 11.34 | 11.34 Mbytes
Step Temp Press TotEng PotEng Enthalpy 
  140000     2193.703    82.650135   -52340.779   -57912.984   -52318.308 
  140495    2148.3501    72.830766   -52485.348   -57942.353   -52465.586 
Loop time of 35.9909 on 2 procs for 495 steps with 19652 atoms

Performance: 1.188 ns/day, 20.197 hours/ns, 13.753 timesteps/s
99.8% CPU use with 2 MPI tasks x no OpenMP threads

MPI task timing breakdown:
Section |  min time  |  avg time  |  max time  |%varavg| %total
---------------------------------------------------------------
Pair    | 18.905     | 19.092     | 19.279     |   4.3 | 53.05
Neigh   | 14.849     | 15.151     | 15.454     |   7.8 | 42.10
Comm    | 1.1918     | 1.31       | 1.4282     |  10.3 |  3.64
Output  | 0.00015092 | 0.00022042 | 0.00028992 |   0.0 |  0.00
Modify  | 0.34344    | 0.34376    | 0.34407    |   0.1 |  0.96
Other   |            | 0.09351    |            |       |  0.26

Nlocal:    9826 ave 9839 max 9813 min
Histogram: 1 0 0 0 0 0 0 0 0 1
Nghost:    11498.5 ave 11527 max 11470 min
Histogram: 1 0 0 0 0 0 0 0 0 1
Neighs:    567878 ave 575656 max 560101 min
Histogram: 1 0 0 0 0 0 0 0 0 1

Total # of neighbors = 1135757
Ave neighs/atom = 57.7935
Neighbor list builds = 495
Dangerous builds not checked
Setting up Verlet run ...
  Unit style    : metal
  Current step  : 140495
  Time step     : 0.001
Per MPI rank memory allocation (min/avg/max) = 11.34 | 11.34 | 11.34 Mbytes
Step Temp Press TotEng PotEng Enthalpy 
  140495    2148.3501    72.830766   -52485.348   -57942.353   -52465.586 
  160000     2149.178    734.03526   -52509.283   -57968.391   -52310.597 
Loop time of 1565.23 on 2 procs for 19505 steps with 19652 atoms

Performance: 1.077 ns/day, 22.291 hours/ns, 12.461 timesteps/s
97.2% CPU use with 2 MPI tasks x no OpenMP threads

MPI task timing breakdown:
Section |  min time  |  avg time  |  max time  |%varavg| %total
---------------------------------------------------------------
Pair    | 809.51     | 815.39     | 821.27     |  20.6 | 52.09
Neigh   | 624.23     | 624.81     | 625.4      |   2.3 | 39.92
Comm    | 96.801     | 99.996     | 103.19     |  31.9 |  6.39
Output  | 0.034916   | 0.034928   | 0.03494    |   0.0 |  0.00
Modify  | 19.03      | 21.126     | 23.223     |  45.6 |  1.35
Other   |            | 3.87       |            |       |  0.25

Nlocal:    9826 ave 9833 max 9819 min
Histogram: 1 0 0 0 0 0 0 0 0 1
Nghost:    11500.5 ave 11514 max 11487 min
Histogram: 1 0 0 0 0 0 0 0 0 1
Neighs:    569419 ave 574225 max 564613 min
Histogram: 1 0 0 0 0 0 0 0 0 1

Total # of neighbors = 1138838
Ave neighs/atom = 57.9502
Neighbor list builds = 19505
Dangerous builds not checked
Setting up Verlet run ...
  Unit style    : metal
  Current step  : 160000
  Time step     : 0.001
Per MPI rank memory allocation (min/avg/max) = 11.35 | 11.35 | 11.35 Mbytes
Step Temp Press TotEng PotEng Enthalpy 
  160000     2149.178    734.03526   -52509.283   -57968.391   -52310.597 
  160495    2111.8671    203.64982   -52759.353   -58123.688   -52704.514 
Loop time of 37.078 on 2 procs for 495 steps with 19652 atoms

Performance: 1.153 ns/day, 20.807 hours/ns, 13.350 timesteps/s
99.5% CPU use with 2 MPI tasks x no OpenMP threads

MPI task timing breakdown:
Section |  min time  |  avg time  |  max time  |%varavg| %total
---------------------------------------------------------------
Pair    | 19.603     | 19.713     | 19.824     |   2.5 | 53.17
Neigh   | 15.183     | 15.379     | 15.576     |   5.0 | 41.48
Comm    | 1.4344     | 1.5201     | 1.6057     |   6.9 |  4.10
Output  | 9.2983e-05 | 0.00013101 | 0.00016904 |   0.0 |  0.00
Modify  | 0.36635    | 0.3667     | 0.36706    |   0.1 |  0.99
Other   |            | 0.0987     |            |       |  0.27

Nlocal:    9826 ave 9841 max 9811 min
Histogram: 1 0 0 0 0 0 0 0 0 1
Nghost:    11569.5 ave 11576 max 11563 min
Histogram: 1 0 0 0 0 0 0 0 0 1
Neighs:    572198 ave 579688 max 564707 min
Histogram: 1 0 0 0 0 0 0 0 0 1

Total # of neighbors = 1144395
Ave neighs/atom = 58.233
Neighbor list builds = 495
Dangerous builds not checked
Setting up Verlet run ...
  Unit style    : metal
  Current step  : 160495
  Time step     : 0.001
Per MPI rank memory allocation (min/avg/max) = 11.35 | 11.35 | 11.35 Mbytes
Step Temp Press TotEng PotEng Enthalpy 
  160495    2111.8671    203.64982   -52759.353   -58123.688   -52704.514 
  180000    2083.5578     278.0128   -52854.912   -58147.338   -52780.161 
Loop time of 1582.06 on 2 procs for 19505 steps with 19652 atoms

Performance: 1.065 ns/day, 22.531 hours/ns, 12.329 timesteps/s
99.0% CPU use with 2 MPI tasks x no OpenMP threads

MPI task timing breakdown:
Section |  min time  |  avg time  |  max time  |%varavg| %total
---------------------------------------------------------------
Pair    | 839.95     | 848.14     | 856.33     |  28.1 | 53.61
Neigh   | 641.99     | 642.66     | 643.33     |   2.6 | 40.62
Comm    | 64.394     | 72.244     | 80.094     |  92.4 |  4.57
Output  | 0.031906   | 0.031941   | 0.031976   |   0.0 |  0.00
Modify  | 14.647     | 14.988     | 15.328     |   8.8 |  0.95
Other   |            | 3.996      |            |       |  0.25

Nlocal:    9826 ave 9838 max 9814 min
Histogram: 1 0 0 0 0 0 0 0 0 1
Nghost:    11569.5 ave 11592 max 11547 min
Histogram: 1 0 0 0 0 0 0 0 0 1
Neighs:    573426 ave 580686 max 566166 min
Histogram: 1 0 0 0 0 0 0 0 0 1

Total # of neighbors = 1146852
Ave neighs/atom = 58.358
Neighbor list builds = 19505
Dangerous builds not checked
Setting up Verlet run ...
  Unit style    : metal
  Current step  : 180000
  Time step     : 0.001
Per MPI rank memory allocation (min/avg/max) = 11.35 | 11.35 | 11.35 Mbytes
Step Temp Press TotEng PotEng Enthalpy 
  180000    2083.5578     278.0128   -52854.912   -58147.338   -52780.161 
  180495    2070.1252     154.5974    -53015.95   -58274.257    -52974.51 
Loop time of 34.6591 on 2 procs for 495 steps with 19652 atoms

Performance: 1.234 ns/day, 19.450 hours/ns, 14.282 timesteps/s
98.6% CPU use with 2 MPI tasks x no OpenMP threads

MPI task timing breakdown:
Section |  min time  |  avg time  |  max time  |%varavg| %total
---------------------------------------------------------------
Pair    | 18.11      | 18.137     | 18.164     |   0.6 | 52.33
Neigh   | 13.637     | 14.004     | 14.371     |   9.8 | 40.41
Comm    | 1.5862     | 2.0428     | 2.4993     |  31.9 |  5.89
Output  | 8.9169e-05 | 0.00012267 | 0.00015616 |   0.0 |  0.00
Modify  | 0.32481    | 0.38483    | 0.44485    |   9.7 |  1.11
Other   |            | 0.09023    |            |       |  0.26

Nlocal:    9826 ave 9848 max 9804 min
Histogram: 1 0 0 0 0 0 0 0 0 1
Nghost:    11568 ave 11591 max 11545 min
Histogram: 1 0 0 0 0 0 0 0 0 1
Neighs:    575060 ave 582448 max 567673 min
Histogram: 1 0 0 0 0 0 0 0 0 1

Total # of neighbors = 1150121
Ave neighs/atom = 58.5244
Neighbor list builds = 495
Dangerous builds not checked
Setting up Verlet run ...
  Unit style    : metal
  Current step  : 180495
  Time step     : 0.001
Per MPI rank memory allocation (min/avg/max) = 11.35 | 11.35 | 11.35 Mbytes
Step Temp Press TotEng PotEng Enthalpy 
  180495    2070.1252     154.5974    -53015.95   -58274.257    -52974.51 
  200000     2046.527   -625.12959   -53079.562   -58277.927   -53247.319 
Loop time of 1603.35 on 2 procs for 19505 steps with 19652 atoms

Performance: 1.051 ns/day, 22.834 hours/ns, 12.165 timesteps/s
98.9% CPU use with 2 MPI tasks x no OpenMP threads

MPI task timing breakdown:
Section |  min time  |  avg time  |  max time  |%varavg| %total
---------------------------------------------------------------
Pair    | 855.97     | 864.1      | 872.23     |  27.7 | 53.89
Neigh   | 643.45     | 644.31     | 645.17     |   3.4 | 40.19
Comm    | 67.812     | 75.02      | 82.229     |  83.2 |  4.68
Output  | 0.025317   | 0.025328   | 0.025339   |   0.0 |  0.00
Modify  | 15.843     | 15.9       | 15.956     |   1.4 |  0.99
Other   |            | 3.993      |            |       |  0.25

Nlocal:    9826 ave 9847 max 9805 min
Histogram: 1 0 0 0 0 0 0 0 0 1
Nghost:    11648.5 ave 11665 max 11632 min
Histogram: 1 0 0 0 0 0 0 0 0 1
Neighs:    574325 ave 582236 max 566414 min
Histogram: 1 0 0 0 0 0 0 0 0 1

Total # of neighbors = 1148650
Ave neighs/atom = 58.4495
Neighbor list builds = 19505
Dangerous builds not checked
Setting up Verlet run ...
  Unit style    : metal
  Current step  : 200000
  Time step     : 0.001
Per MPI rank memory allocation (min/avg/max) = 11.35 | 11.35 | 11.35 Mbytes
Step Temp Press TotEng PotEng Enthalpy 
  200000     2046.527   -625.12959   -53079.562   -58277.927   -53247.319 
  200495    2017.2133  -0.86829936   -53309.072   -58432.978   -53309.304 
Loop time of 40.0345 on 2 procs for 495 steps with 19652 atoms

Performance: 1.068 ns/day, 22.466 hours/ns, 12.364 timesteps/s
99.9% CPU use with 2 MPI tasks x no OpenMP threads

MPI task timing breakdown:
Section |  min time  |  avg time  |  max time  |%varavg| %total
---------------------------------------------------------------
Pair    | 21.734     | 21.865     | 21.996     |   2.8 | 54.62
Neigh   | 15.828     | 15.904     | 15.98      |   1.9 | 39.73
Comm    | 1.5587     | 1.7665     | 1.9743     |  15.6 |  4.41
Output  | 0.00011396 | 0.00015604 | 0.00019813 |   0.0 |  0.00
Modify  | 0.3864     | 0.38808    | 0.38975    |   0.3 |  0.97
Other   |            | 0.1104     |            |       |  0.28

Nlocal:    9826 ave 9845 max 9807 min
Histogram: 1 0 0 0 0 0 0 0 0 1
Nghost:    11611.5 ave 11631 max 11592 min
Histogram: 1 0 0 0 0 0 0 0 0 1
Neighs:    578746 ave 586542 max 570951 min
Histogram: 1 0 0 0 0 0 0 0 0 1

Total # of neighbors = 1157493
Ave neighs/atom = 58.8995
Neighbor list builds = 495
Dangerous builds not checked
Setting up Verlet run ...
  Unit style    : metal
  Current step  : 200495
  Time step     : 0.001
Per MPI rank memory allocation (min/avg/max) = 11.35 | 11.35 | 11.35 Mbytes
Step Temp Press TotEng PotEng Enthalpy 
  200495    2017.2133  -0.86829936   -53309.072   -58432.978   -53309.304 
  220000    1993.3969    1074.3812   -53386.107   -58449.517   -53100.893 
Loop time of 1516.49 on 2 procs for 19505 steps with 19652 atoms

Performance: 1.111 ns/day, 21.597 hours/ns, 12.862 timesteps/s
98.5% CPU use with 2 MPI tasks x no OpenMP threads

MPI task timing breakdown:
Section |  min time  |  avg time  |  max time  |%varavg| %total
---------------------------------------------------------------
Pair    | 806.06     | 811.47     | 816.89     |  19.0 | 53.51
Neigh   | 603.98     | 605.62     | 607.27     |   6.7 | 39.94
Comm    | 72.417     | 79.442     | 86.466     |  78.8 |  5.24
Output  | 0.03732    | 0.037331   | 0.037341   |   0.0 |  0.00
Modify  | 16.042     | 16.063     | 16.084     |   0.5 |  1.06
Other   |            | 3.851      |            |       |  0.25

Nlocal:    9826 ave 9840 max 9812 min
Histogram: 1 0 0 0 0 0 0 0 0 1
Nghost:    11656 ave 11660 max 11652 min
Histogram: 1 0 0 0 0 0 0 0 0 1
Neighs:    580643 ave 588252 max 573034 min
Histogram: 1 0 0 0 0 0 0 0 0 1

Total # of neighbors = 1161286
Ave neighs/atom = 59.0925
Neighbor list builds = 19505
Dangerous builds not checked
Setting up Verlet run ...
  Unit style    : metal
  Current step  : 220000
  Time step     : 0.001
Per MPI rank memory allocation (min/avg/max) = 11.35 | 11.35 | 11.35 Mbytes
Step Temp Press TotEng PotEng Enthalpy 
  220000    1993.3969    1074.3812   -53386.107   -58449.517   -53100.893 
  220495    1972.0923   -524.47839   -53542.762   -58552.056   -53681.879 
Loop time of 31.2097 on 2 procs for 495 steps with 19652 atoms

Performance: 1.370 ns/day, 17.514 hours/ns, 15.860 timesteps/s
98.9% CPU use with 2 MPI tasks x no OpenMP threads

MPI task timing breakdown:
Section |  min time  |  avg time  |  max time  |%varavg| %total
---------------------------------------------------------------
Pair    | 16.263     | 16.474     | 16.685     |   5.2 | 52.78
Neigh   | 12.381     | 12.835     | 13.29      |  12.7 | 41.13
Comm    | 1.2635     | 1.5134     | 1.7634     |  20.3 |  4.85
Output  | 0.00015116 | 0.00019157 | 0.00023198 |   0.0 |  0.00
Modify  | 0.29151    | 0.2967     | 0.30188    |   1.0 |  0.95
Other   |            | 0.09014    |            |       |  0.29

Nlocal:    9826 ave 9830 max 9822 min
Histogram: 1 0 0 0 0 0 0 0 0 1
Nghost:    11636.5 ave 11644 max 11629 min
Histogram: 1 0 0 0 0 0 0 0 0 1
Neighs:    581282 ave 586917 max 575648 min
Histogram: 1 0 0 0 0 0 0 0 0 1

Total # of neighbors = 1162565
Ave neighs/atom = 59.1576
Neighbor list builds = 495
Dangerous builds not checked
Setting up Verlet run ...
  Unit style    : metal
  Current step  : 220495
  Time step     : 0.001
Per MPI rank memory allocation (min/avg/max) = 11.35 | 11.35 | 11.35 Mbytes
Step Temp Press TotEng PotEng Enthalpy 
  220495    1972.0923   -524.47839   -53542.762   -58552.056   -53681.879 
  240000    1960.8113    563.42383    -53641.84   -58622.479   -53492.905 
Loop time of 1209.41 on 2 procs for 19505 steps with 19652 atoms

Performance: 1.393 ns/day, 17.224 hours/ns, 16.128 timesteps/s
99.1% CPU use with 2 MPI tasks x no OpenMP threads

MPI task timing breakdown:
Section |  min time  |  avg time  |  max time  |%varavg| %total
---------------------------------------------------------------
Pair    | 626.85     | 632.35     | 637.85     |  21.9 | 52.29
Neigh   | 507.34     | 511.03     | 514.71     |  16.3 | 42.25
Comm    | 40.333     | 50.638     | 60.943     | 144.8 |  4.19
Output  | 0.024945   | 0.024958   | 0.024971   |   0.0 |  0.00
Modify  | 11.149     | 12.235     | 13.321     |  31.1 |  1.01
Other   |            | 3.131      |            |       |  0.26

Nlocal:    9826 ave 9829 max 9823 min
Histogram: 1 0 0 0 0 0 0 0 0 1
Nghost:    11611.5 ave 11651 max 11572 min
Histogram: 1 0 0 0 0 0 0 0 0 1
Neighs:    583368 ave 589368 max 577368 min
Histogram: 1 0 0 0 0 0 0 0 0 1

Total # of neighbors = 1166736
Ave neighs/atom = 59.3698
Neighbor list builds = 19505
Dangerous builds not checked
Setting up Verlet run ...
  Unit style    : metal
  Current step  : 240000
  Time step     : 0.001
Per MPI rank memory allocation (min/avg/max) = 11.35 | 11.35 | 11.35 Mbytes
Step Temp Press TotEng PotEng Enthalpy 
  240000    1960.8113    563.42383    -53641.84   -58622.479   -53492.905 
  240495       1916.8    12.017024   -53816.847   -58685.693   -53813.678 
Loop time of 27.4636 on 2 procs for 495 steps with 19652 atoms

Performance: 1.557 ns/day, 15.412 hours/ns, 18.024 timesteps/s
99.9% CPU use with 2 MPI tasks x no OpenMP threads

MPI task timing breakdown:
Section |  min time  |  avg time  |  max time  |%varavg| %total
---------------------------------------------------------------
Pair    | 14.078     | 14.156     | 14.234     |   2.1 | 51.54
Neigh   | 12.172     | 12.244     | 12.316     |   2.0 | 44.58
Comm    | 0.71533    | 0.72042    | 0.72552    |   0.6 |  2.62
Output  | 6.6042e-05 | 0.00010109 | 0.00013614 |   0.0 |  0.00
Modify  | 0.26885    | 0.26958    | 0.27032    |   0.1 |  0.98
Other   |            | 0.07418    |            |       |  0.27

Nlocal:    9826 ave 9834 max 9818 min
Histogram: 1 0 0 0 0 0 0 0 0 1
Nghost:    11679 ave 11705 max 11653 min
Histogram: 1 0 0 0 0 0 0 0 0 1
Neighs:    584639 ave 589588 max 579690 min
Histogram: 1 0 0 0 0 0 0 0 0 1

Total # of neighbors = 1169278
Ave neighs/atom = 59.4992
Neighbor list builds = 495
Dangerous builds not checked
Setting up Verlet run ...
  Unit style    : metal
  Current step  : 240495
  Time step     : 0.001
Per MPI rank memory allocation (min/avg/max) = 11.35 | 11.35 | 11.35 Mbytes
Step Temp Press TotEng PotEng Enthalpy 
  240495       1916.8    12.017024   -53816.847   -58685.693   -53813.678 
  260000    1906.2551     281.9935   -53952.636   -58794.698   -53878.659 
Loop time of 1156.49 on 2 procs for 19505 steps with 19652 atoms

Performance: 1.457 ns/day, 16.470 hours/ns, 16.866 timesteps/s
99.2% CPU use with 2 MPI tasks x no OpenMP threads

MPI task timing breakdown:
Section |  min time  |  avg time  |  max time  |%varavg| %total
---------------------------------------------------------------
Pair    | 595.74     | 599.99     | 604.24     |  17.3 | 51.88
Neigh   | 498.81     | 499.99     | 501.16     |   5.3 | 43.23
Comm    | 36.107     | 41.59      | 47.073     |  85.0 |  3.60
Output  | 0.10748    | 0.10751    | 0.10754    |   0.0 |  0.01
Modify  | 11.805     | 11.853     | 11.902     |   1.4 |  1.02
Other   |            | 2.963      |            |       |  0.26

Nlocal:    9826 ave 9858 max 9794 min
Histogram: 1 0 0 0 0 0 0 0 0 1
Nghost:    11667.5 ave 11695 max 11640 min
Histogram: 1 0 0 0 0 0 0 0 0 1
Neighs:    587790 ave 590636 max 584944 min
Histogram: 1 0 0 0 0 0 0 0 0 1

Total # of neighbors = 1175580
Ave neighs/atom = 59.8199
Neighbor list builds = 19505
Dangerous builds not checked
Setting up Verlet run ...
  Unit style    : metal
  Current step  : 260000
  Time step     : 0.001
Per MPI rank memory allocation (min/avg/max) = 11.35 | 11.35 | 11.35 Mbytes
Step Temp Press TotEng PotEng Enthalpy 
  260000    1906.2551     281.9935   -53952.636   -58794.698   -53878.659 
  260495    1863.6105   -340.38737   -54125.151   -58858.892   -54214.416 
Loop time of 28.4144 on 2 procs for 495 steps with 19652 atoms

Performance: 1.505 ns/day, 15.945 hours/ns, 17.421 timesteps/s
99.5% CPU use with 2 MPI tasks x no OpenMP threads

MPI task timing breakdown:
Section |  min time  |  avg time  |  max time  |%varavg| %total
---------------------------------------------------------------
Pair    | 14.707     | 14.897     | 15.088     |   4.9 | 52.43
Neigh   | 12.001     | 12.405     | 12.809     |  11.5 | 43.66
Comm    | 0.53738    | 0.76018    | 0.98298    |  25.6 |  2.68
Output  | 0.00010681 | 0.00012243 | 0.00013804 |   0.0 |  0.00
Modify  | 0.26994    | 0.27669    | 0.28345    |   1.3 |  0.97
Other   |            | 0.0749     |            |       |  0.26

Nlocal:    9826 ave 9827 max 9825 min
Histogram: 1 0 0 0 0 0 0 0 0 1
Nghost:    11683 ave 11686 max 11680 min
Histogram: 1 0 0 0 0 0 0 0 0 1
Neighs:    588218 ave 594159 max 582276 min
Histogram: 1 0 0 0 0 0 0 0 0 1

Total # of neighbors = 1176435
Ave neighs/atom = 59.8634
Neighbor list builds = 495
Dangerous builds not checked
Setting up Verlet run ...
  Unit style    : metal
  Current step  : 260495
  Time step     : 0.001
Per MPI rank memory allocation (min/avg/max) = 11.35 | 11.35 | 11.35 Mbytes
Step Temp Press TotEng PotEng Enthalpy 
  260495    1863.6105   -340.38737   -54125.151   -58858.892   -54214.416 
  280000    1857.5584   -565.63217   -54186.145   -58904.512   -54334.351 
Loop time of 1229.05 on 2 procs for 19505 steps with 19652 atoms

Performance: 1.371 ns/day, 17.503 hours/ns, 15.870 timesteps/s
99.0% CPU use with 2 MPI tasks x no OpenMP threads

MPI task timing breakdown:
Section |  min time  |  avg time  |  max time  |%varavg| %total
---------------------------------------------------------------
Pair    | 636.85     | 642.69     | 648.53     |  23.0 | 52.29
Neigh   | 514.99     | 515.03     | 515.08     |   0.2 | 41.90
Comm    | 50.391     | 56.213     | 62.035     |  77.7 |  4.57
Output  | 0.024296   | 0.024311   | 0.024326   |   0.0 |  0.00
Modify  | 11.994     | 12.017     | 12.04      |   0.7 |  0.98
Other   |            | 3.077      |            |       |  0.25

Nlocal:    9826 ave 9832 max 9820 min
Histogram: 1 0 0 0 0 0 0 0 0 1
Nghost:    11666 ave 11693 max 11639 min
Histogram: 1 0 0 0 0 0 0 0 0 1
Neighs:    588752 ave 593854 max 583649 min
Histogram: 1 0 0 0 0 0 0 0 0 1

Total # of neighbors = 1177503
Ave neighs/atom = 59.9177
Neighbor list builds = 19505
Dangerous builds not checked
Setting up Verlet run ...
  Unit style    : metal
  Current step  : 280000
  Time step     : 0.001
Per MPI rank memory allocation (min/avg/max) = 11.35 | 11.35 | 11.35 Mbytes
Step Temp Press TotEng PotEng Enthalpy 
  280000    1857.5584   -565.63217   -54186.145   -58904.512   -54334.351 
  280495    1807.1246    347.08539   -54431.457   -59021.718   -54341.149 
Loop time of 33.5651 on 2 procs for 495 steps with 19652 atoms

Performance: 1.274 ns/day, 18.836 hours/ns, 14.747 timesteps/s
98.5% CPU use with 2 MPI tasks x no OpenMP threads

MPI task timing breakdown:
Section |  min time  |  avg time  |  max time  |%varavg| %total
---------------------------------------------------------------
Pair    | 17.344     | 17.388     | 17.432     |   1.1 | 51.81
Neigh   | 13.315     | 13.469     | 13.623     |   4.2 | 40.13
Comm    | 2.1104     | 2.3116     | 2.5129     |  13.2 |  6.89
Output  | 5.7936e-05 | 8.7023e-05 | 0.00011611 |   0.0 |  0.00
Modify  | 0.30996    | 0.31273    | 0.31549    |   0.5 |  0.93
Other   |            | 0.083      |            |       |  0.25

Nlocal:    9826 ave 9829 max 9823 min
Histogram: 1 0 0 0 0 0 0 0 0 1
Nghost:    11755 ave 11757 max 11753 min
Histogram: 1 0 0 0 0 0 0 0 0 1
Neighs:    593038 ave 598273 max 587802 min
Histogram: 1 0 0 0 0 0 0 0 0 1

Total # of neighbors = 1186075
Ave neighs/atom = 60.3539
Neighbor list builds = 495
Dangerous builds not checked
Setting up Verlet run ...
  Unit style    : metal
  Current step  : 280495
  Time step     : 0.001
Per MPI rank memory allocation (min/avg/max) = 11.35 | 11.35 | 11.35 Mbytes
Step Temp Press TotEng PotEng Enthalpy 
  280495    1807.1246    347.08539   -54431.457   -59021.718   -54341.149 
  300000    1802.2773   -458.74592   -54512.932   -59090.881   -54632.219 
Loop time of 1213.55 on 2 procs for 19505 steps with 19652 atoms

Performance: 1.389 ns/day, 17.283 hours/ns, 16.073 timesteps/s
98.9% CPU use with 2 MPI tasks x no OpenMP threads

MPI task timing breakdown:
Section |  min time  |  avg time  |  max time  |%varavg| %total
---------------------------------------------------------------
Pair    | 634.47     | 638.86     | 643.24     |  17.4 | 52.64
Neigh   | 507.97     | 511.34     | 514.71     |  14.9 | 42.14
Comm    | 40.968     | 48.808     | 56.648     | 112.2 |  4.02
Output  | 0.022902   | 0.022917   | 0.022932   |   0.0 |  0.00
Modify  | 11.394     | 11.458     | 11.523     |   1.9 |  0.94
Other   |            | 3.064      |            |       |  0.25

Nlocal:    9826 ave 9858 max 9794 min
Histogram: 1 0 0 0 0 0 0 0 0 1
Nghost:    11710 ave 11713 max 11707 min
Histogram: 1 0 0 0 0 0 0 0 0 1
Neighs:    593686 ave 603465 max 583908 min
Histogram: 1 0 0 0 0 0 0 0 0 1

Total # of neighbors = 1187373
Ave neighs/atom = 60.42
Neighbor list builds = 19505
Dangerous builds not checked
Setting up Verlet run ...
  Unit style    : metal
  Current step  : 300000
  Time step     : 0.001
Per MPI rank memory allocation (min/avg/max) = 11.35 | 11.35 | 11.35 Mbytes
Step Temp Press TotEng PotEng Enthalpy 
  300000    1802.2773   -458.74592   -54512.932   -59090.881   -54632.219 
  300495    1759.4506    550.59526     -54724.2   -59193.365   -54581.893 
Loop time of 35.8669 on 2 procs for 495 steps with 19652 atoms

Performance: 1.192 ns/day, 20.127 hours/ns, 13.801 timesteps/s
98.7% CPU use with 2 MPI tasks x no OpenMP threads

MPI task timing breakdown:
Section |  min time  |  avg time  |  max time  |%varavg| %total
---------------------------------------------------------------
Pair    | 19.064     | 19.231     | 19.397     |   3.8 | 53.62
Neigh   | 14.663     | 14.794     | 14.925     |   3.4 | 41.25
Comm    | 1.3649     | 1.399      | 1.4331     |   2.9 |  3.90
Output  | 0.00019217 | 0.00022209 | 0.00025201 |   0.0 |  0.00
Modify  | 0.35071    | 0.35198    | 0.35324    |   0.2 |  0.98
Other   |            | 0.09125    |            |       |  0.25

Nlocal:    9826 ave 9828 max 9824 min
Histogram: 1 0 0 0 0 0 0 0 0 1
Nghost:    11782 ave 11797 max 11767 min
Histogram: 1 0 0 0 0 0 0 0 0 1
Neighs:    596947 ave 603161 max 590733 min
Histogram: 1 0 0 0 0 0 0 0 0 1

Total # of neighbors = 1193894
Ave neighs/atom = 60.7518
Neighbor list builds = 495
Dangerous builds not checked
Setting up Verlet run ...
  Unit style    : metal
  Current step  : 300495
  Time step     : 0.001
Per MPI rank memory allocation (min/avg/max) = 11.35 | 11.35 | 11.35 Mbytes
Step Temp Press TotEng PotEng Enthalpy 
  300495    1759.4506    550.59526     -54724.2   -59193.365   -54581.893 
  320000    1752.3996   -1201.6162   -54776.307   -59227.561   -55087.497 
Loop time of 1256.1 on 2 procs for 19505 steps with 19652 atoms

Performance: 1.342 ns/day, 17.889 hours/ns, 15.528 timesteps/s
97.3% CPU use with 2 MPI tasks x no OpenMP threads

MPI task timing breakdown:
Section |  min time  |  avg time  |  max time  |%varavg| %total
---------------------------------------------------------------
Pair    | 651.93     | 657.76     | 663.59     |  22.7 | 52.37
Neigh   | 520.01     | 520.42     | 520.84     |   1.8 | 41.43
Comm    | 55.914     | 62.19      | 68.466     |  79.6 |  4.95
Output  | 0.022861   | 0.022873   | 0.022885   |   0.0 |  0.00
Modify  | 12.494     | 12.518     | 12.542     |   0.7 |  1.00
Other   |            | 3.185      |            |       |  0.25

Nlocal:    9826 ave 9830 max 9822 min
Histogram: 1 0 0 0 0 0 0 0 0 1
Nghost:    11722 ave 11732 max 11712 min
Histogram: 1 0 0 0 0 0 0 0 0 1
Neighs:    595858 ave 602689 max 589026 min
Histogram: 1 0 0 0 0 0 0 0 0 1

Total # of neighbors = 1191715
Ave neighs/atom = 60.6409
Neighbor list builds = 19505
Dangerous builds not checked
Setting up Verlet run ...
  Unit style    : metal
  Current step  : 320000
  Time step     : 0.001
Per MPI rank memory allocation (min/avg/max) = 11.35 | 11.35 | 11.35 Mbytes
Step Temp Press TotEng PotEng Enthalpy 
  320000    1752.3996   -1201.6162   -54776.307   -59227.561   -55087.497 
  320495    1713.5372   -394.47302   -55010.654   -59363.195   -55112.155 
Loop time of 30.1874 on 2 procs for 495 steps with 19652 atoms

Performance: 1.417 ns/day, 16.940 hours/ns, 16.398 timesteps/s
99.5% CPU use with 2 MPI tasks x no OpenMP threads

MPI task timing breakdown:
Section |  min time  |  avg time  |  max time  |%varavg| %total
---------------------------------------------------------------
Pair    | 15.671     | 15.739     | 15.808     |   1.7 | 52.14
Neigh   | 12.834     | 12.867     | 12.901     |   0.9 | 42.63
Comm    | 1.1109     | 1.2136     | 1.3163     |   9.3 |  4.02
Output  | 7.5102e-05 | 0.00010204 | 0.00012898 |   0.0 |  0.00
Modify  | 0.2863     | 0.28685    | 0.28741    |   0.1 |  0.95
Other   |            | 0.08012    |            |       |  0.27

Nlocal:    9826 ave 9834 max 9818 min
Histogram: 1 0 0 0 0 0 0 0 0 1
Nghost:    11786 ave 11788 max 11784 min
Histogram: 1 0 0 0 0 0 0 0 0 1
Neighs:    599578 ave 606439 max 592716 min
Histogram: 1 0 0 0 0 0 0 0 0 1

Total # of neighbors = 1199155
Ave neighs/atom = 61.0195
Neighbor list builds = 495
Dangerous builds not checked
Setting up Verlet run ...
  Unit style    : metal
  Current step  : 320495
  Time step     : 0.001
Per MPI rank memory allocation (min/avg/max) = 11.35 | 11.35 | 11.35 Mbytes
Step Temp Press TotEng PotEng Enthalpy 
  320495    1713.5372   -394.47302   -55010.654   -59363.195   -55112.155 
  340000    1698.7276    260.42455   -55106.282   -59421.205   -55039.511 
Loop time of 1167.43 on 2 procs for 19505 steps with 19652 atoms

Performance: 1.444 ns/day, 16.626 hours/ns, 16.708 timesteps/s
99.0% CPU use with 2 MPI tasks x no OpenMP threads

MPI task timing breakdown:
Section |  min time  |  avg time  |  max time  |%varavg| %total
---------------------------------------------------------------
Pair    | 604.6      | 608.14     | 611.67     |  14.3 | 52.09
Neigh   | 504.32     | 504.61     | 504.9      |   1.3 | 43.22
Comm    | 37.032     | 40.275     | 43.518     |  51.1 |  3.45
Output  | 0.022217   | 0.022228   | 0.022239   |   0.0 |  0.00
Modify  | 11.356     | 11.358     | 11.36      |   0.1 |  0.97
Other   |            | 3.022      |            |       |  0.26

Nlocal:    9826 ave 9841 max 9811 min
Histogram: 1 0 0 0 0 0 0 0 0 1
Nghost:    11733.5 ave 11760 max 11707 min
Histogram: 1 0 0 0 0 0 0 0 0 1
Neighs:    601943 ave 608272 max 595614 min
Histogram: 1 0 0 0 0 0 0 0 0 1

Total # of neighbors = 1203886
Ave neighs/atom = 61.2602
Neighbor list builds = 19505
Dangerous builds not checked
Setting up Verlet run ...
  Unit style    : metal
  Current step  : 340000
  Time step     : 0.001
Per MPI rank memory allocation (min/avg/max) = 11.35 | 11.35 | 11.35 Mbytes
Step Temp Press TotEng PotEng Enthalpy 
  340000    1698.7276    260.42455   -55106.282   -59421.205   -55039.511 
  340495    1667.9248     326.1636   -55270.975   -59507.656   -55187.604 
Loop time of 25.4947 on 2 procs for 495 steps with 19652 atoms

Performance: 1.678 ns/day, 14.307 hours/ns, 19.416 timesteps/s
99.4% CPU use with 2 MPI tasks x no OpenMP threads

MPI task timing breakdown:
Section |  min time  |  avg time  |  max time  |%varavg| %total
---------------------------------------------------------------
Pair    | 12.978     | 13.063     | 13.147     |   2.3 | 51.24
Neigh   | 11.66      | 11.663     | 11.667     |   0.1 | 45.75
Comm    | 0.36732    | 0.44866    | 0.53001    |  12.1 |  1.76
Output  | 6.6042e-05 | 9.2983e-05 | 0.00011992 |   0.0 |  0.00
Modify  | 0.24958    | 0.24978    | 0.24998    |   0.0 |  0.98
Other   |            | 0.07044    |            |       |  0.28

Nlocal:    9826 ave 9846 max 9806 min
Histogram: 1 0 0 0 0 0 0 0 0 1
Nghost:    11800 ave 11805 max 11795 min
Histogram: 1 0 0 0 0 0 0 0 0 1
Neighs:    603920 ave 607860 max 599979 min
Histogram: 1 0 0 0 0 0 0 0 0 1

Total # of neighbors = 1207839
Ave neighs/atom = 61.4614
Neighbor list builds = 495
Dangerous builds not checked
Setting up Verlet run ...
  Unit style    : metal
  Current step  : 340495
  Time step     : 0.001
Per MPI rank memory allocation (min/avg/max) = 11.35 | 11.35 | 11.35 Mbytes
Step Temp Press TotEng PotEng Enthalpy 
  340495    1667.9248     326.1636   -55270.975   -59507.656   -55187.604 
  360000    1663.0483   -385.85994   -55353.456    -59577.75    -55451.95 
Loop time of 1582.1 on 2 procs for 19505 steps with 19652 atoms

Performance: 1.065 ns/day, 22.531 hours/ns, 12.329 timesteps/s
98.7% CPU use with 2 MPI tasks x no OpenMP threads

MPI task timing breakdown:
Section |  min time  |  avg time  |  max time  |%varavg| %total
---------------------------------------------------------------
Pair    | 850.08     | 857.86     | 865.65     |  26.6 | 54.22
Neigh   | 629.82     | 630.71     | 631.6      |   3.5 | 39.87
Comm    | 63.91      | 72.912     | 81.913     | 105.4 |  4.61
Output  | 0.036422   | 0.036456   | 0.03649    |   0.0 |  0.00
Modify  | 16.334     | 16.63      | 16.926     |   7.3 |  1.05
Other   |            | 3.948      |            |       |  0.25

Nlocal:    9826 ave 9851 max 9801 min
Histogram: 1 0 0 0 0 0 0 0 0 1
Nghost:    11774 ave 11792 max 11756 min
Histogram: 1 0 0 0 0 0 0 0 0 1
Neighs:    604904 ave 609440 max 600367 min
Histogram: 1 0 0 0 0 0 0 0 0 1

Total # of neighbors = 1209807
Ave neighs/atom = 61.5615
Neighbor list builds = 19505
Dangerous builds not checked
Setting up Verlet run ...
  Unit style    : metal
  Current step  : 360000
  Time step     : 0.001
Per MPI rank memory allocation (min/avg/max) = 11.35 | 11.35 | 11.35 Mbytes
Step Temp Press TotEng PotEng Enthalpy 
  360000    1663.0483   -385.85994   -55353.456    -59577.75    -55451.95 
  360495    1604.7855    450.27413    -55563.74   -59640.041   -55449.295 
Loop time of 47.7092 on 2 procs for 495 steps with 19652 atoms

Performance: 0.896 ns/day, 26.773 hours/ns, 10.375 timesteps/s
100.0% CPU use with 2 MPI tasks x no OpenMP threads

MPI task timing breakdown:
Section |  min time  |  avg time  |  max time  |%varavg| %total
---------------------------------------------------------------
Pair    | 25.753     | 26.585     | 27.418     |  16.1 | 55.72
Neigh   | 18.166     | 18.424     | 18.682     |   6.0 | 38.62
Comm    | 0.99467    | 2.101      | 3.2074     |  76.3 |  4.40
Output  | 0.00013399 | 0.00017142 | 0.00020885 |   0.0 |  0.00
Modify  | 0.4571     | 0.47058    | 0.48406    |   2.0 |  0.99
Other   |            | 0.1283     |            |       |  0.27

Nlocal:    9826 ave 9826 max 9826 min
Histogram: 2 0 0 0 0 0 0 0 0 0
Nghost:    11829.5 ave 11831 max 11828 min
Histogram: 1 0 0 0 0 0 0 0 0 1
Neighs:    607271 ave 612851 max 601691 min
Histogram: 1 0 0 0 0 0 0 0 0 1

Total # of neighbors = 1214542
Ave neighs/atom = 61.8025
Neighbor list builds = 495
Dangerous builds not checked
Setting up Verlet run ...
  Unit style    : metal
  Current step  : 360495
  Time step     : 0.001
Per MPI rank memory allocation (min/avg/max) = 11.35 | 11.35 | 11.35 Mbytes
Step Temp Press TotEng PotEng Enthalpy 
  360495    1604.7855    450.27413    -55563.74   -59640.041   -55449.295 
  380000    1592.9167    590.12933   -55659.338   -59705.491   -55509.694 
Loop time of 1931.69 on 2 procs for 19505 steps with 19652 atoms

Performance: 0.872 ns/day, 27.510 hours/ns, 10.097 timesteps/s
99.1% CPU use with 2 MPI tasks x no OpenMP threads

MPI task timing breakdown:
Section |  min time  |  avg time  |  max time  |%varavg| %total
---------------------------------------------------------------
Pair    | 1078.7     | 1087.7     | 1096.7     |  27.2 | 56.31
Neigh   | 732.53     | 736.85     | 741.16     |  15.9 | 38.15
Comm    | 70.466     | 83.886     | 97.306     | 146.5 |  4.34
Output  | 0.045181   | 0.04523    | 0.045279   |   0.0 |  0.00
Modify  | 18.099     | 18.215     | 18.331     |   2.7 |  0.94
Other   |            | 5.022      |            |       |  0.26

Nlocal:    9826 ave 9831 max 9821 min
Histogram: 1 0 0 0 0 0 0 0 0 1
Nghost:    11903.5 ave 11916 max 11891 min
Histogram: 1 0 0 0 0 0 0 0 0 1
Neighs:    608986 ave 614620 max 603353 min
Histogram: 1 0 0 0 0 0 0 0 0 1

Total # of neighbors = 1217973
Ave neighs/atom = 61.9771
Neighbor list builds = 19505
Dangerous builds not checked
Setting up Verlet run ...
  Unit style    : metal
  Current step  : 380000
  Time step     : 0.001
Per MPI rank memory allocation (min/avg/max) = 11.35 | 11.35 | 11.35 Mbytes
Step Temp Press TotEng PotEng Enthalpy 
  380000    1592.9167    590.12933   -55659.338   -59705.491   -55509.694 
  380495     1567.104    671.22791    -55844.25   -59824.837   -55674.725 
Loop time of 47.2418 on 2 procs for 495 steps with 19652 atoms

Performance: 0.905 ns/day, 26.511 hours/ns, 10.478 timesteps/s
98.8% CPU use with 2 MPI tasks x no OpenMP threads

MPI task timing breakdown:
Section |  min time  |  avg time  |  max time  |%varavg| %total
---------------------------------------------------------------
Pair    | 26.672     | 26.699     | 26.727     |   0.5 | 56.52
Neigh   | 18.069     | 18.287     | 18.505     |   5.1 | 38.71
Comm    | 1.3919     | 1.6433     | 1.8946     |  19.6 |  3.48
Output  | 0.000103   | 0.00014949 | 0.00019598 |   0.0 |  0.00
Modify  | 0.47308    | 0.47738    | 0.48167    |   0.6 |  1.01
Other   |            | 0.1349     |            |       |  0.29

Nlocal:    9826 ave 9836 max 9816 min
Histogram: 1 0 0 0 0 0 0 0 0 1
Nghost:    11848.5 ave 11874 max 11823 min
Histogram: 1 0 0 0 0 0 0 0 0 1
Neighs:    611464 ave 617047 max 605882 min
Histogram: 1 0 0 0 0 0 0 0 0 1

Total # of neighbors = 1222929
Ave neighs/atom = 62.2292
Neighbor list builds = 495
Dangerous builds not checked
Setting up Verlet run ...
  Unit style    : metal
  Current step  : 380495
  Time step     : 0.001
Per MPI rank memory allocation (min/avg/max) = 11.35 | 11.35 | 11.35 Mbytes
Step Temp Press TotEng PotEng Enthalpy 
  380495     1567.104    671.22791    -55844.25   -59824.837   -55674.725 
  400000    1554.9998    41.083937   -55878.656   -59828.497   -55868.273 
Loop time of 1961.93 on 2 procs for 19505 steps with 19652 atoms

Performance: 0.859 ns/day, 27.941 hours/ns, 9.942 timesteps/s
98.9% CPU use with 2 MPI tasks x no OpenMP threads

MPI task timing breakdown:
Section |  min time  |  avg time  |  max time  |%varavg| %total
---------------------------------------------------------------
Pair    | 1100.8     | 1111.1     | 1121.4     |  30.9 | 56.63
Neigh   | 743.64     | 744.44     | 745.23     |   2.9 | 37.94
Comm    | 71.46      | 82.504     | 93.548     | 121.6 |  4.21
Output  | 0.03706    | 0.037085   | 0.03711    |   0.0 |  0.00
Modify  | 18.734     | 18.772     | 18.811     |   0.9 |  0.96
Other   |            | 5.115      |            |       |  0.26

Nlocal:    9826 ave 9838 max 9814 min
Histogram: 1 0 0 0 0 0 0 0 0 1
Nghost:    11870 ave 11898 max 11842 min
Histogram: 1 0 0 0 0 0 0 0 0 1
Neighs:    610950 ave 616793 max 605106 min
Histogram: 1 0 0 0 0 0 0 0 0 1

Total # of neighbors = 1221899
Ave neighs/atom = 62.1768
Neighbor list builds = 19505
Dangerous builds not checked
Setting up Verlet run ...
  Unit style    : metal
  Current step  : 400000
  Time step     : 0.001
Per MPI rank memory allocation (min/avg/max) = 11.35 | 11.35 | 11.35 Mbytes
Step Temp Press TotEng PotEng Enthalpy 
  400000    1554.9998    41.083937   -55878.656   -59828.497   -55868.273 
  400495    1514.2083   -122.59414    -56144.62   -59990.847   -56175.406 
Loop time of 46.2244 on 2 procs for 495 steps with 19652 atoms

Performance: 0.925 ns/day, 25.940 hours/ns, 10.709 timesteps/s
100.0% CPU use with 2 MPI tasks x no OpenMP threads

MPI task timing breakdown:
Section |  min time  |  avg time  |  max time  |%varavg| %total
---------------------------------------------------------------
Pair    | 25.584     | 25.892     | 26.2       |   6.0 | 56.01
Neigh   | 17.675     | 17.865     | 18.055     |   4.5 | 38.65
Comm    | 1.763      | 1.8774     | 1.9917     |   8.3 |  4.06
Output  | 0.0001049  | 0.00014794 | 0.00019097 |   0.0 |  0.00
Modify  | 0.45553    | 0.45836    | 0.4612     |   0.4 |  0.99
Other   |            | 0.1314     |            |       |  0.28

Nlocal:    9826 ave 9827 max 9825 min
Histogram: 1 0 0 0 0 0 0 0 0 1
Nghost:    11925.5 ave 11928 max 11923 min
Histogram: 1 0 0 0 0 0 0 0 0 1
Neighs:    615243 ave 621104 max 609382 min
Histogram: 1 0 0 0 0 0 0 0 0 1

Total # of neighbors = 1230486
Ave neighs/atom = 62.6138
Neighbor list builds = 495
Dangerous builds not checked
Setting up Verlet run ...
  Unit style    : metal
  Current step  : 400495
  Time step     : 0.001
Per MPI rank memory allocation (min/avg/max) = 11.35 | 11.35 | 11.35 Mbytes
Step Temp Press TotEng PotEng Enthalpy 
  400495    1514.2083   -122.59414    -56144.62   -59990.847   -56175.406 
  420000    1499.1865   -1233.0297   -56238.445   -60046.515    -56548.28 
Loop time of 1944.71 on 2 procs for 19505 steps with 19652 atoms

Performance: 0.867 ns/day, 27.695 hours/ns, 10.030 timesteps/s
98.5% CPU use with 2 MPI tasks x no OpenMP threads

MPI task timing breakdown:
Section |  min time  |  avg time  |  max time  |%varavg| %total
---------------------------------------------------------------
Pair    | 1080.5     | 1089.3     | 1098.1     |  26.7 | 56.01
Neigh   | 727.59     | 730.79     | 733.99     |  11.8 | 37.58
Comm    | 87.727     | 99.638     | 111.55     | 119.3 |  5.12
Output  | 0.035951   | 0.036003   | 0.036055   |   0.0 |  0.00
Modify  | 19.766     | 19.878     | 19.989     |   2.5 |  1.02
Other   |            | 5.073      |            |       |  0.26

Nlocal:    9826 ave 9838 max 9814 min
Histogram: 1 0 0 0 0 0 0 0 0 1
Nghost:    11835 ave 11856 max 11814 min
Histogram: 1 0 0 0 0 0 0 0 0 1
Neighs:    614573 ave 622050 max 607096 min
Histogram: 1 0 0 0 0 0 0 0 0 1

Total # of neighbors = 1229146
Ave neighs/atom = 62.5456
Neighbor list builds = 19505
Dangerous builds not checked
Setting up Verlet run ...
  Unit style    : metal
  Current step  : 420000
  Time step     : 0.001
Per MPI rank memory allocation (min/avg/max) = 11.35 | 11.35 | 11.35 Mbytes
Step Temp Press TotEng PotEng Enthalpy 
  420000    1499.1865   -1233.0297   -56238.445   -60046.515    -56548.28 
  420495    1461.4652   -465.28536   -56412.371   -60124.626   -56528.747 
Loop time of 47.3827 on 2 procs for 495 steps with 19652 atoms

Performance: 0.903 ns/day, 26.590 hours/ns, 10.447 timesteps/s
100.0% CPU use with 2 MPI tasks x no OpenMP threads

MPI task timing breakdown:
Section |  min time  |  avg time  |  max time  |%varavg| %total
---------------------------------------------------------------
Pair    | 26.182     | 26.608     | 27.035     |   8.3 | 56.16
Neigh   | 17.704     | 17.999     | 18.293     |   6.9 | 37.99
Comm    | 1.4493     | 2.1763     | 2.9034     |  49.3 |  4.59
Output  | 0.00011396 | 0.00017595 | 0.00023794 |   0.0 |  0.00
Modify  | 0.45975    | 0.46496    | 0.47016    |   0.8 |  0.98
Other   |            | 0.1342     |            |       |  0.28

Nlocal:    9826 ave 9859 max 9793 min
Histogram: 1 0 0 0 0 0 0 0 0 1
Nghost:    11918 ave 11919 max 11917 min
Histogram: 1 0 0 0 0 0 0 0 0 1
Neighs:    617972 ave 627397 max 608547 min
Histogram: 1 0 0 0 0 0 0 0 0 1

Total # of neighbors = 1235944
Ave neighs/atom = 62.8915
Neighbor list builds = 495
Dangerous builds not checked
Setting up Verlet run ...
  Unit style    : metal
  Current step  : 420495
  Time step     : 0.001
Per MPI rank memory allocation (min/avg/max) = 11.35 | 11.35 | 11.35 Mbytes
Step Temp Press TotEng PotEng Enthalpy 
  420495    1461.4652   -465.28536   -56412.371   -60124.626   -56528.747 
  440000    1447.9183   -337.33183   -56568.321   -60246.166   -56652.313 
Loop time of 1639.73 on 2 procs for 19505 steps with 19652 atoms

Performance: 1.028 ns/day, 23.352 hours/ns, 11.895 timesteps/s
98.5% CPU use with 2 MPI tasks x no OpenMP threads

MPI task timing breakdown:
Section |  min time  |  avg time  |  max time  |%varavg| %total
---------------------------------------------------------------
Pair    | 890.09     | 897.17     | 904.26     |  23.7 | 54.71
Neigh   | 631.52     | 632.69     | 633.87     |   4.7 | 38.59
Comm    | 77.559     | 86.72      | 95.881     |  98.4 |  5.29
Output  | 0.032796   | 0.032803   | 0.03281    |   0.0 |  0.00
Modify  | 17.88      | 18.784     | 19.688     |  20.9 |  1.15
Other   |            | 4.325      |            |       |  0.26

Nlocal:    9826 ave 9836 max 9816 min
Histogram: 1 0 0 0 0 0 0 0 0 1
Nghost:    11947.5 ave 11952 max 11943 min
Histogram: 1 0 0 0 0 0 0 0 0 1
Neighs:    620689 ave 625632 max 615746 min
Histogram: 1 0 0 0 0 0 0 0 0 1

Total # of neighbors = 1241378
Ave neighs/atom = 63.168
Neighbor list builds = 19505
Dangerous builds not checked
Setting up Verlet run ...
  Unit style    : metal
  Current step  : 440000
  Time step     : 0.001
Per MPI rank memory allocation (min/avg/max) = 11.35 | 11.35 | 11.35 Mbytes
Step Temp Press TotEng PotEng Enthalpy 
  440000    1447.9183   -337.33183   -56568.321   -60246.166   -56652.313 
  440495    1416.3359    571.61901   -56741.517   -60339.139   -56599.909 
Loop time of 30.389 on 2 procs for 495 steps with 19652 atoms

Performance: 1.407 ns/day, 17.053 hours/ns, 16.289 timesteps/s
100.0% CPU use with 2 MPI tasks x no OpenMP threads

MPI task timing breakdown:
Section |  min time  |  avg time  |  max time  |%varavg| %total
---------------------------------------------------------------
Pair    | 15.754     | 15.872     | 15.991     |   3.0 | 52.23
Neigh   | 12.917     | 12.937     | 12.958     |   0.6 | 42.57
Comm    | 1.0441     | 1.185      | 1.326      |  12.9 |  3.90
Output  | 0.00010681 | 0.00013387 | 0.00016093 |   0.0 |  0.00
Modify  | 0.31019    | 0.31141    | 0.31262    |   0.2 |  1.02
Other   |            | 0.08256    |            |       |  0.27

Nlocal:    9826 ave 9841 max 9811 min
Histogram: 1 0 0 0 0 0 0 0 0 1
Nghost:    11945.5 ave 11962 max 11929 min
Histogram: 1 0 0 0 0 0 0 0 0 1
Neighs:    623715 ave 630946 max 616484 min
Histogram: 1 0 0 0 0 0 0 0 0 1

Total # of neighbors = 1247430
Ave neighs/atom = 63.476
Neighbor list builds = 495
Dangerous builds not checked
Setting up Verlet run ...
  Unit style    : metal
  Current step  : 440495
  Time step     : 0.001
Per MPI rank memory allocation (min/avg/max) = 11.35 | 11.35 | 11.35 Mbytes
Step Temp Press TotEng PotEng Enthalpy 
  440495    1416.3359    571.61901   -56741.517   -60339.139   -56599.909 
  460000    1419.8089   -516.15303   -56793.191   -60399.635    -56921.01 
Loop time of 1335.29 on 2 procs for 19505 steps with 19652 atoms

Performance: 1.262 ns/day, 19.016 hours/ns, 14.607 timesteps/s
99.4% CPU use with 2 MPI tasks x no OpenMP threads

MPI task timing breakdown:
Section |  min time  |  avg time  |  max time  |%varavg| %total
---------------------------------------------------------------
Pair    | 707.19     | 711.85     | 716.51     |  17.5 | 53.31
Neigh   | 543.55     | 546.09     | 548.63     |  10.9 | 40.90
Comm    | 52.152     | 59.63      | 67.108     |  96.8 |  4.47
Output  | 0.030921   | 0.030944   | 0.030967   |   0.0 |  0.00
Modify  | 13.933     | 14.199     | 14.465     |   7.1 |  1.06
Other   |            | 3.496      |            |       |  0.26

Nlocal:    9826 ave 9829 max 9823 min
Histogram: 1 0 0 0 0 0 0 0 0 1
Nghost:    11969.5 ave 11978 max 11961 min
Histogram: 1 0 0 0 0 0 0 0 0 1
Neighs:    624240 ave 629769 max 618710 min
Histogram: 1 0 0 0 0 0 0 0 0 1

Total # of neighbors = 1248479
Ave neighs/atom = 63.5294
Neighbor list builds = 19505
Dangerous builds not checked
Setting up Verlet run ...
  Unit style    : metal
  Current step  : 460000
  Time step     : 0.001
Per MPI rank memory allocation (min/avg/max) = 11.35 | 11.35 | 11.35 Mbytes
Step Temp Press TotEng PotEng Enthalpy 
  460000    1419.8089   -516.15303   -56793.191   -60399.635    -56921.01 
  460495    1367.3031    595.96943   -57015.566   -60488.641   -56868.755 
Loop time of 32.5556 on 2 procs for 495 steps with 19652 atoms

Performance: 1.314 ns/day, 18.269 hours/ns, 15.205 timesteps/s
99.8% CPU use with 2 MPI tasks x no OpenMP threads

MPI task timing breakdown:
Section |  min time  |  avg time  |  max time  |%varavg| %total
---------------------------------------------------------------
Pair    | 17.065     | 17.287     | 17.51      |   5.3 | 53.10
Neigh   | 13.281     | 13.527     | 13.773     |   6.7 | 41.55
Comm    | 1.2925     | 1.3197     | 1.3469     |   2.4 |  4.05
Output  | 9.3222e-05 | 0.0001291  | 0.00016499 |   0.0 |  0.00
Modify  | 0.33018    | 0.33226    | 0.33435    |   0.4 |  1.02
Other   |            | 0.08921    |            |       |  0.27

Nlocal:    9826 ave 9829 max 9823 min
Histogram: 1 0 0 0 0 0 0 0 0 1
Nghost:    12005.5 ave 12011 max 12000 min
Histogram: 1 0 0 0 0 0 0 0 0 1
Neighs:    627678 ave 634323 max 621032 min
Histogram: 1 0 0 0 0 0 0 0 0 1

Total # of neighbors = 1255355
Ave neighs/atom = 63.8792
Neighbor list builds = 495
Dangerous builds not checked
Setting up Verlet run ...
  Unit style    : metal
  Current step  : 460495
  Time step     : 0.001
Per MPI rank memory allocation (min/avg/max) = 11.35 | 11.35 | 11.35 Mbytes
Step Temp Press TotEng PotEng Enthalpy 
  460495    1367.3031    595.96943   -57015.566   -60488.641   -56868.755 
  480000    1349.6229   -414.01567   -57112.796   -60540.961   -57214.796 
Loop time of 1457.9 on 2 procs for 19505 steps with 19652 atoms

Performance: 1.156 ns/day, 20.762 hours/ns, 13.379 timesteps/s
98.3% CPU use with 2 MPI tasks x no OpenMP threads

MPI task timing breakdown:
Section |  min time  |  avg time  |  max time  |%varavg| %total
---------------------------------------------------------------
Pair    | 773.4      | 780.54     | 787.68     |  25.6 | 53.54
Neigh   | 571.8      | 574.2      | 576.61     |  10.1 | 39.39
Comm    | 74.316     | 83.904     | 93.491     | 104.7 |  5.76
Output  | 0.23644    | 0.23646    | 0.23648    |   0.0 |  0.02
Modify  | 15.194     | 15.226     | 15.258     |   0.8 |  1.04
Other   |            | 3.788      |            |       |  0.26

Nlocal:    9826 ave 9839 max 9813 min
Histogram: 1 0 0 0 0 0 0 0 0 1
Nghost:    11956 ave 11980 max 11932 min
Histogram: 1 0 0 0 0 0 0 0 0 1
Neighs:    627581 ave 634139 max 621023 min
Histogram: 1 0 0 0 0 0 0 0 0 1

Total # of neighbors = 1255162
Ave neighs/atom = 63.8694
Neighbor list builds = 19505
Dangerous builds not checked
Setting up Verlet run ...
  Unit style    : metal
  Current step  : 480000
  Time step     : 0.001
Per MPI rank memory allocation (min/avg/max) = 11.35 | 11.35 | 11.35 Mbytes
Step Temp Press TotEng PotEng Enthalpy 
  480000    1349.6229   -414.01567   -57112.796   -60540.961   -57214.796 
  480495    1313.6317   -180.04522   -57327.505    -60664.25   -57371.658 
Loop time of 39.1869 on 2 procs for 495 steps with 19652 atoms

Performance: 1.091 ns/day, 21.990 hours/ns, 12.632 timesteps/s
96.4% CPU use with 2 MPI tasks x no OpenMP threads

MPI task timing breakdown:
Section |  min time  |  avg time  |  max time  |%varavg| %total
---------------------------------------------------------------
Pair    | 19.849     | 19.893     | 19.936     |   1.0 | 50.76
Neigh   | 14.331     | 14.664     | 14.998     |   8.7 | 37.42
Comm    | 3.7693     | 3.8786     | 3.9878     |   5.5 |  9.90
Output  | 6.7949e-05 | 9.5487e-05 | 0.00012302 |   0.0 |  0.00
Modify  | 0.37931    | 0.64965    | 0.91999    |  33.5 |  1.66
Other   |            | 0.1015     |            |       |  0.26

Nlocal:    9826 ave 9827 max 9825 min
Histogram: 1 0 0 0 0 0 0 0 0 1
Nghost:    12043 ave 12048 max 12038 min
Histogram: 1 0 0 0 0 0 0 0 0 1
Neighs:    630693 ave 636627 max 624759 min
Histogram: 1 0 0 0 0 0 0 0 0 1

Total # of neighbors = 1261386
Ave neighs/atom = 64.1861
Neighbor list builds = 495
Dangerous builds not checked
Setting up Verlet run ...
  Unit style    : metal
  Current step  : 480495
  Time step     : 0.001
Per MPI rank memory allocation (min/avg/max) = 11.35 | 11.35 | 11.35 Mbytes
Step Temp Press TotEng PotEng Enthalpy 
  480495    1313.6317   -180.04522   -57327.505    -60664.25   -57371.658 
  500000    1311.9636    209.14265   -57387.171   -60719.678    -57336.03 
Loop time of 1520.16 on 2 procs for 19505 steps with 19652 atoms

Performance: 1.109 ns/day, 21.649 hours/ns, 12.831 timesteps/s
98.4% CPU use with 2 MPI tasks x no OpenMP threads

MPI task timing breakdown:
Section |  min time  |  avg time  |  max time  |%varavg| %total
---------------------------------------------------------------
Pair    | 820.84     | 826.47     | 832.1      |  19.6 | 54.37
Neigh   | 592        | 592.05     | 592.1      |   0.2 | 38.95
Comm    | 76.115     | 81.616     | 87.117     |  60.9 |  5.37
Output  | 0.036016   | 0.036045   | 0.036074   |   0.0 |  0.00
Modify  | 15.866     | 15.94      | 16.015     |   1.9 |  1.05
Other   |            | 4.044      |            |       |  0.27

Nlocal:    9826 ave 9843 max 9809 min
Histogram: 1 0 0 0 0 0 0 0 0 1
Nghost:    11985 ave 11987 max 11983 min
Histogram: 1 0 0 0 0 0 0 0 0 1
Neighs:    632656 ave 640014 max 625297 min
Histogram: 1 0 0 0 0 0 0 0 0 1

Total # of neighbors = 1265311
Ave neighs/atom = 64.3859
Neighbor list builds = 19505
Dangerous builds not checked
Setting up Verlet run ...
  Unit style    : metal
  Current step  : 500000
  Time step     : 0.001
Per MPI rank memory allocation (min/avg/max) = 11.35 | 11.35 | 11.35 Mbytes
Step Temp Press TotEng PotEng Enthalpy 
  500000    1311.9636    209.14265   -57387.171   -60719.678    -57336.03 
  500495    1270.2058    597.06055   -57591.989   -60818.427   -57446.628 
Loop time of 39.0969 on 2 procs for 495 steps with 19652 atoms

Performance: 1.094 ns/day, 21.940 hours/ns, 12.661 timesteps/s
99.9% CPU use with 2 MPI tasks x no OpenMP threads

MPI task timing breakdown:
Section |  min time  |  avg time  |  max time  |%varavg| %total
---------------------------------------------------------------
Pair    | 21.458     | 21.49      | 21.522     |   0.7 | 54.97
Neigh   | 14.238     | 15.202     | 16.165     |  24.7 | 38.88
Comm    | 0.96456    | 1.9129     | 2.8613     |  68.6 |  4.89
Output  | 8.7976e-05 | 0.00011897 | 0.00014997 |   0.0 |  0.00
Modify  | 0.37508    | 0.38499    | 0.3949     |   1.6 |  0.98
Other   |            | 0.107      |            |       |  0.27

Nlocal:    9826 ave 9841 max 9811 min
Histogram: 1 0 0 0 0 0 0 0 0 1
Nghost:    12082 ave 12108 max 12056 min
Histogram: 1 0 0 0 0 0 0 0 0 1
Neighs:    635362 ave 643507 max 627218 min
Histogram: 1 0 0 0 0 0 0 0 0 1

Total # of neighbors = 1270725
Ave neighs/atom = 64.6614
Neighbor list builds = 495
Dangerous builds not checked
Setting up Verlet run ...
  Unit style    : metal
  Current step  : 500495
  Time step     : 0.001
Per MPI rank memory allocation (min/avg/max) = 11.35 | 11.35 | 11.35 Mbytes
Step Temp Press TotEng PotEng Enthalpy 
  500495    1270.2058    597.06055   -57591.989   -60818.427   -57446.628 
  520000    1238.7794    202.44269   -57760.634   -60907.247   -57711.465 
Loop time of 1489.47 on 2 procs for 19505 steps with 19652 atoms

Performance: 1.131 ns/day, 21.212 hours/ns, 13.095 timesteps/s
98.4% CPU use with 2 MPI tasks x no OpenMP threads

MPI task timing breakdown:
Section |  min time  |  avg time  |  max time  |%varavg| %total
---------------------------------------------------------------
Pair    | 799.53     | 806.44     | 813.35     |  24.3 | 54.14
Neigh   | 576.89     | 580.16     | 583.43     |  13.6 | 38.95
Comm    | 72.946     | 83.158     | 93.371     | 112.0 |  5.58
Output  | 0.033443   | 0.033474   | 0.033505   |   0.0 |  0.00
Modify  | 15.714     | 15.729     | 15.745     |   0.4 |  1.06
Other   |            | 3.951      |            |       |  0.27

Nlocal:    9826 ave 9848 max 9804 min
Histogram: 1 0 0 0 0 0 0 0 0 1
Nghost:    12088.5 ave 12114 max 12063 min
Histogram: 1 0 0 0 0 0 0 0 0 1
Neighs:    636998 ave 645222 max 628774 min
Histogram: 1 0 0 0 0 0 0 0 0 1

Total # of neighbors = 1273996
Ave neighs/atom = 64.8278
Neighbor list builds = 19505
Dangerous builds not checked
Setting up Verlet run ...
  Unit style    : metal
  Current step  : 520000
  Time step     : 0.001
Per MPI rank memory allocation (min/avg/max) = 11.35 | 11.35 | 11.35 Mbytes
Step Temp Press TotEng PotEng Enthalpy 
  520000    1238.7794    202.44269   -57760.634   -60907.247   -57711.465 
  520495     1211.965    516.79031    -57943.51   -61022.012    -57818.59 
Loop time of 38.394 on 2 procs for 495 steps with 19652 atoms

Performance: 1.114 ns/day, 21.545 hours/ns, 12.893 timesteps/s
99.7% CPU use with 2 MPI tasks x no OpenMP threads

MPI task timing breakdown:
Section |  min time  |  avg time  |  max time  |%varavg| %total
---------------------------------------------------------------
Pair    | 20.734     | 20.931     | 21.128     |   4.3 | 54.52
Neigh   | 15.041     | 15.144     | 15.247     |   2.6 | 39.44
Comm    | 1.4999     | 1.802      | 2.1041     |  22.5 |  4.69
Output  | 7.8917e-05 | 0.00010252 | 0.00012612 |   0.0 |  0.00
Modify  | 0.40249    | 0.40465    | 0.40681    |   0.3 |  1.05
Other   |            | 0.1116     |            |       |  0.29

Nlocal:    9826 ave 9832 max 9820 min
Histogram: 1 0 0 0 0 0 0 0 0 1
Nghost:    12115 ave 12125 max 12105 min
Histogram: 1 0 0 0 0 0 0 0 0 1
Neighs:    640142 ave 646925 max 633360 min
Histogram: 1 0 0 0 0 0 0 0 0 1

Total # of neighbors = 1280285
Ave neighs/atom = 65.1478
Neighbor list builds = 495
Dangerous builds not checked
Setting up Verlet run ...
  Unit style    : metal
  Current step  : 520495
  Time step     : 0.001
Per MPI rank memory allocation (min/avg/max) = 11.35 | 11.35 | 11.35 Mbytes
Step Temp Press TotEng PotEng Enthalpy 
  520495     1211.965    516.79031    -57943.51   -61022.012    -57818.59 
  540000    1199.7484   -632.97884   -57993.499    -61040.97   -58146.725 
Loop time of 1535.47 on 2 procs for 19505 steps with 19652 atoms

Performance: 1.098 ns/day, 21.867 hours/ns, 12.703 timesteps/s
99.0% CPU use with 2 MPI tasks x no OpenMP threads

MPI task timing breakdown:
Section |  min time  |  avg time  |  max time  |%varavg| %total
---------------------------------------------------------------
Pair    | 835.63     | 840.17     | 844.72     |  15.7 | 54.72
Neigh   | 596.77     | 597.44     | 598.11     |   2.7 | 38.91
Comm    | 72.689     | 77.715     | 82.74      |  57.0 |  5.06
Output  | 0.038579   | 0.038612   | 0.038646   |   0.0 |  0.00
Modify  | 15.712     | 15.898     | 16.083     |   4.7 |  1.04
Other   |            | 4.206      |            |       |  0.27

Nlocal:    9826 ave 9837 max 9815 min
Histogram: 1 0 0 0 0 0 0 0 0 1
Nghost:    12066.5 ave 12067 max 12066 min
Histogram: 1 0 0 0 0 0 0 0 0 1
Neighs:    639157 ave 643810 max 634504 min
Histogram: 1 0 0 0 0 0 0 0 0 1

Total # of neighbors = 1278314
Ave neighs/atom = 65.0475
Neighbor list builds = 19505
Dangerous builds not checked
Setting up Verlet run ...
  Unit style    : metal
  Current step  : 540000
  Time step     : 0.001
Per MPI rank memory allocation (min/avg/max) = 11.35 | 11.35 | 11.35 Mbytes
Step Temp Press TotEng PotEng Enthalpy 
  540000    1199.7484   -632.97884   -57993.499    -61040.97   -58146.725 
  540495    1164.2276   -767.06236   -58223.068   -61180.312   -58407.821 
Loop time of 43.2348 on 2 procs for 495 steps with 19652 atoms

Performance: 0.989 ns/day, 24.262 hours/ns, 11.449 timesteps/s
96.4% CPU use with 2 MPI tasks x no OpenMP threads

MPI task timing breakdown:
Section |  min time  |  avg time  |  max time  |%varavg| %total
---------------------------------------------------------------
Pair    | 22.714     | 23.017     | 23.32      |   6.3 | 53.24
Neigh   | 15.72      | 15.763     | 15.805     |   1.1 | 36.46
Comm    | 3.6708     | 3.9306     | 4.1905     |  13.1 |  9.09
Output  | 7.9155e-05 | 0.00010109 | 0.00012302 |   0.0 |  0.00
Modify  | 0.40807    | 0.4094     | 0.41074    |   0.2 |  0.95
Other   |            | 0.115      |            |       |  0.27

Nlocal:    9826 ave 9831 max 9821 min
Histogram: 1 0 0 0 0 0 0 0 0 1
Nghost:    12093.5 ave 12126 max 12061 min
Histogram: 1 0 0 0 0 0 0 0 0 1
Neighs:    642752 ave 649549 max 635955 min
Histogram: 1 0 0 0 0 0 0 0 0 1

Total # of neighbors = 1285504
Ave neighs/atom = 65.4134
Neighbor list builds = 495
Dangerous builds not checked
Setting up Verlet run ...
  Unit style    : metal
  Current step  : 540495
  Time step     : 0.001
Per MPI rank memory allocation (min/avg/max) = 11.35 | 11.35 | 11.35 Mbytes
Step Temp Press TotEng PotEng Enthalpy 
  540495    1164.2276   -767.06236   -58223.068   -61180.312   -58407.821 
  560000    1140.0043     -182.616   -58378.159   -61273.874   -58421.948 
Loop time of 1578.49 on 2 procs for 19505 steps with 19652 atoms

Performance: 1.068 ns/day, 22.480 hours/ns, 12.357 timesteps/s
98.7% CPU use with 2 MPI tasks x no OpenMP threads

MPI task timing breakdown:
Section |  min time  |  avg time  |  max time  |%varavg| %total
---------------------------------------------------------------
Pair    | 861.38     | 866.91     | 872.44     |  18.8 | 54.92
Neigh   | 605.88     | 608.91     | 611.94     |  12.3 | 38.58
Comm    | 73.93      | 82.394     | 90.857     |  93.2 |  5.22
Output  | 0.032926   | 0.032987   | 0.033048   |   0.0 |  0.00
Modify  | 15.781     | 15.881     | 15.981     |   2.5 |  1.01
Other   |            | 4.357      |            |       |  0.28

Nlocal:    9826 ave 9830 max 9822 min
Histogram: 1 0 0 0 0 0 0 0 0 1
Nghost:    12159.5 ave 12160 max 12159 min
Histogram: 1 0 0 0 0 0 0 0 0 1
Neighs:    645747 ave 651355 max 640139 min
Histogram: 1 0 0 0 0 0 0 0 0 1

Total # of neighbors = 1291494
Ave neighs/atom = 65.7182
Neighbor list builds = 19505
Dangerous builds not checked
Setting up Verlet run ...
  Unit style    : metal
  Current step  : 560000
  Time step     : 0.001
Per MPI rank memory allocation (min/avg/max) = 11.35 | 11.35 | 11.35 Mbytes
Step Temp Press TotEng PotEng Enthalpy 
[...]
Histogram: 1 0 0 0 0 0 0 0 0 1
Neighs:    720658 ave 721727 max 719590 min
Histogram: 1 0 0 0 0 0 0 0 0 1

Total # of neighbors = 1441317
Ave neighs/atom = 73.342
Neighbor list builds = 19505
Dangerous builds not checked
Setting up Verlet run ...
  Unit style    : metal
  Current step  : 840000
  Time step     : 0.001
Per MPI rank memory allocation (min/avg/max) = 11.36 | 11.36 | 11.36 Mbytes
Step Temp Press TotEng PotEng Enthalpy 
  840000    442.39803   -183.34312    -63160.46   -64284.192   -63199.996 
  840495    420.47838   -168.56205   -63288.503   -64356.557   -63324.767 
Loop time of 26.8596 on 2 procs for 495 steps with 19652 atoms

Performance: 1.592 ns/day, 15.073 hours/ns, 18.429 timesteps/s
100.0% CPU use with 2 MPI tasks x no OpenMP threads

MPI task timing breakdown:
Section |  min time  |  avg time  |  max time  |%varavg| %total
---------------------------------------------------------------
Pair    | 13.858     | 13.882     | 13.906     |   0.6 | 51.68
Neigh   | 12.208     | 12.248     | 12.288     |   1.1 | 45.60
Comm    | 0.34451    | 0.40904    | 0.47357    |  10.1 |  1.52
Output  | 5.1022e-05 | 8.297e-05  | 0.00011492 |   0.0 |  0.00
Modify  | 0.24937    | 0.24968    | 0.25       |   0.1 |  0.93
Other   |            | 0.07068    |            |       |  0.26

Nlocal:    9826 ave 9846 max 9806 min
Histogram: 1 0 0 0 0 0 0 0 0 1
Nghost:    12712.5 ave 12722 max 12703 min
Histogram: 1 0 0 0 0 0 0 0 0 1
Neighs:    722454 ave 723543 max 721364 min
Histogram: 1 0 0 0 0 0 0 0 0 1

Total # of neighbors = 1444907
Ave neighs/atom = 73.5247
Neighbor list builds = 495
Dangerous builds not checked
Setting up Verlet run ...
  Unit style    : metal
  Current step  : 840495
  Time step     : 0.001
Per MPI rank memory allocation (min/avg/max) = 11.36 | 11.36 | 11.36 Mbytes
Step Temp Press TotEng PotEng Enthalpy 
  840495    420.47838   -168.56205   -63288.503   -64356.557   -63324.767 
  860000    397.75724   -713.10139   -63514.138   -64524.478   -63666.836 
Loop time of 1062.84 on 2 procs for 19505 steps with 19652 atoms

Performance: 1.586 ns/day, 15.136 hours/ns, 18.352 timesteps/s
99.4% CPU use with 2 MPI tasks x no OpenMP threads

MPI task timing breakdown:
Section |  min time  |  avg time  |  max time  |%varavg| %total
---------------------------------------------------------------
Pair    | 549.42     | 550.68     | 551.94     |   5.4 | 51.81
Neigh   | 482.11     | 482.42     | 482.72     |   1.4 | 45.39
Comm    | 16.11      | 17.045     | 17.979     |  22.6 |  1.60
Output  | 0.16063    | 0.16064    | 0.16065    |   0.0 |  0.02
Modify  | 9.7676     | 9.7869     | 9.8062     |   0.6 |  0.92
Other   |            | 2.742      |            |       |  0.26

Nlocal:    9826 ave 9833 max 9819 min
Histogram: 1 0 0 0 0 0 0 0 0 1
Nghost:    12723 ave 12759 max 12687 min
Histogram: 1 0 0 0 0 0 0 0 0 1
Neighs:    725436 ave 726488 max 724385 min
Histogram: 1 0 0 0 0 0 0 0 0 1

Total # of neighbors = 1450873
Ave neighs/atom = 73.8283
Neighbor list builds = 19505
Dangerous builds not checked
Setting up Verlet run ...
  Unit style    : metal
  Current step  : 860000
  Time step     : 0.001
Per MPI rank memory allocation (min/avg/max) = 11.36 | 11.36 | 11.36 Mbytes
Step Temp Press TotEng PotEng Enthalpy 
  860000    397.75724   -713.10139   -63514.138   -64524.478   -63666.836 
  860495    367.79849   -675.04693   -63662.432   -64596.674   -63806.633 
Loop time of 26.7556 on 2 procs for 495 steps with 19652 atoms

Performance: 1.598 ns/day, 15.014 hours/ns, 18.501 timesteps/s
99.4% CPU use with 2 MPI tasks x no OpenMP threads

MPI task timing breakdown:
Section |  min time  |  avg time  |  max time  |%varavg| %total
---------------------------------------------------------------
Pair    | 13.834     | 13.854     | 13.873     |   0.5 | 51.78
Neigh   | 12.064     | 12.097     | 12.131     |   1.0 | 45.21
Comm    | 0.43158    | 0.48467    | 0.53777    |   7.6 |  1.81
Output  | 6.1989e-05 | 7.093e-05  | 7.987e-05  |   0.0 |  0.00
Modify  | 0.24661    | 0.24669    | 0.24677    |   0.0 |  0.92
Other   |            | 0.07325    |            |       |  0.27

Nlocal:    9826 ave 9836 max 9816 min
Histogram: 1 0 0 0 0 0 0 0 0 1
Nghost:    12713.5 ave 12725 max 12702 min
Histogram: 1 0 0 0 0 0 0 0 0 1
Neighs:    727084 ave 728707 max 725460 min
Histogram: 1 0 0 0 0 0 0 0 0 1

Total # of neighbors = 1454167
Ave neighs/atom = 73.9959
Neighbor list builds = 495
Dangerous builds not checked
Setting up Verlet run ...
  Unit style    : metal
  Current step  : 860495
  Time step     : 0.001
Per MPI rank memory allocation (min/avg/max) = 11.36 | 11.36 | 11.36 Mbytes
Step Temp Press TotEng PotEng Enthalpy 
  860495    367.79849   -675.04693   -63662.432   -64596.674   -63806.633 
  880000    349.86751     79.38264   -63834.804   -64723.499   -63817.931 
Loop time of 1684.69 on 2 procs for 19505 steps with 19652 atoms

Performance: 1.000 ns/day, 23.992 hours/ns, 11.578 timesteps/s
99.6% CPU use with 2 MPI tasks x no OpenMP threads

MPI task timing breakdown:
Section |  min time  |  avg time  |  max time  |%varavg| %total
---------------------------------------------------------------
Pair    | 908.83     | 912.25     | 915.68     |  11.3 | 54.15
Neigh   | 681.15     | 700.54     | 719.93     |  73.3 | 41.58
Comm    | 33.673     | 49.973     | 66.274     | 230.6 |  2.97
Output  | 0.036718   | 0.036763   | 0.036809   |   0.0 |  0.00
Modify  | 16.839     | 17.107     | 17.374     |   6.5 |  1.02
Other   |            | 4.782      |            |       |  0.28

Nlocal:    9826 ave 9833 max 9819 min
Histogram: 1 0 0 0 0 0 0 0 0 1
Nghost:    12734 ave 12749 max 12719 min
Histogram: 1 0 0 0 0 0 0 0 0 1
Neighs:    730277 ave 731023 max 729531 min
Histogram: 1 0 0 0 0 0 0 0 0 1

Total # of neighbors = 1460554
Ave neighs/atom = 74.3209
Neighbor list builds = 19505
Dangerous builds not checked
Setting up Verlet run ...
  Unit style    : metal
  Current step  : 880000
  Time step     : 0.001
Per MPI rank memory allocation (min/avg/max) = 11.36 | 11.36 | 11.36 Mbytes
Step Temp Press TotEng PotEng Enthalpy 
  880000    349.86751     79.38264   -63834.804   -64723.499   -63817.931 
  880495    323.89152    14.119724   -63982.614   -64805.328    -63979.62 
Loop time of 44.5412 on 2 procs for 495 steps with 19652 atoms

Performance: 0.960 ns/day, 24.995 hours/ns, 11.113 timesteps/s
100.0% CPU use with 2 MPI tasks x no OpenMP threads

MPI task timing breakdown:
Section |  min time  |  avg time  |  max time  |%varavg| %total
---------------------------------------------------------------
Pair    | 24.125     | 24.209     | 24.293     |   1.7 | 54.35
Neigh   | 17.401     | 18.327     | 19.253     |  21.6 | 41.15
Comm    | 0.57967    | 1.4451     | 2.3105     |  72.0 |  3.24
Output  | 0.00011206 | 0.00019896 | 0.00028586 |   0.0 |  0.00
Modify  | 0.41674    | 0.43554    | 0.45433    |   2.8 |  0.98
Other   |            | 0.1249     |            |       |  0.28

Nlocal:    9826 ave 9834 max 9818 min
Histogram: 1 0 0 0 0 0 0 0 0 1
Nghost:    12782.5 ave 12789 max 12776 min
Histogram: 1 0 0 0 0 0 0 0 0 1
Neighs:    732075 ave 732787 max 731363 min
Histogram: 1 0 0 0 0 0 0 0 0 1

Total # of neighbors = 1464150
Ave neighs/atom = 74.5039
Neighbor list builds = 495
Dangerous builds not checked
Setting up Verlet run ...
  Unit style    : metal
  Current step  : 880495
  Time step     : 0.001
Per MPI rank memory allocation (min/avg/max) = 11.36 | 11.36 | 11.36 Mbytes
Step Temp Press TotEng PotEng Enthalpy 
  880495    323.89152    14.119724   -63982.614   -64805.328    -63979.62 
  900000    298.42684   -51.651876   -64139.726   -64897.757   -64150.646 
Loop time of 1698.42 on 2 procs for 19505 steps with 19652 atoms

Performance: 0.992 ns/day, 24.188 hours/ns, 11.484 timesteps/s
99.7% CPU use with 2 MPI tasks x no OpenMP threads

MPI task timing breakdown:
Section |  min time  |  avg time  |  max time  |%varavg| %total
---------------------------------------------------------------
Pair    | 921.99     | 922.3      | 922.6      |   1.0 | 54.30
Neigh   | 702.54     | 714.12     | 725.7      |  43.3 | 42.05
Comm    | 28.404     | 39.977     | 51.55      | 183.0 |  2.35
Output  | 0.037265   | 0.037298   | 0.037331   |   0.0 |  0.00
Modify  | 16.777     | 17.048     | 17.318     |   6.6 |  1.00
Other   |            | 4.938      |            |       |  0.29

Nlocal:    9826 ave 9839 max 9813 min
Histogram: 1 0 0 0 0 0 0 0 0 1
Nghost:    12796.5 ave 12825 max 12768 min
Histogram: 1 0 0 0 0 0 0 0 0 1
Neighs:    733534 ave 735288 max 731781 min
Histogram: 1 0 0 0 0 0 0 0 0 1

Total # of neighbors = 1467069
Ave neighs/atom = 74.6524
Neighbor list builds = 19505
Dangerous builds not checked
Setting up Verlet run ...
  Unit style    : metal
  Current step  : 900000
  Time step     : 0.001
Per MPI rank memory allocation (min/avg/max) = 11.36 | 11.36 | 11.36 Mbytes
Step Temp Press TotEng PotEng Enthalpy 
  900000    298.42684   -51.651876   -64139.726   -64897.757   -64150.646 
  900495    273.56297     233.0012   -64278.701   -64973.576    -64229.57 
Loop time of 44.386 on 2 procs for 495 steps with 19652 atoms

Performance: 0.964 ns/day, 24.908 hours/ns, 11.152 timesteps/s
99.4% CPU use with 2 MPI tasks x no OpenMP threads

MPI task timing breakdown:
Section |  min time  |  avg time  |  max time  |%varavg| %total
---------------------------------------------------------------
Pair    | 24.15      | 24.26      | 24.37      |   2.2 | 54.66
Neigh   | 17.514     | 18.289     | 19.063     |  18.1 | 41.20
Comm    | 0.58336    | 1.2703     | 1.9573     |  60.9 |  2.86
Output  | 8.5115e-05 | 0.00017107 | 0.00025702 |   0.0 |  0.00
Modify  | 0.4229     | 0.44185    | 0.4608     |   2.9 |  1.00
Other   |            | 0.1247     |            |       |  0.28

Nlocal:    9826 ave 9828 max 9824 min
Histogram: 1 0 0 0 0 0 0 0 0 1
Nghost:    12811 ave 12819 max 12803 min
Histogram: 1 0 0 0 0 0 0 0 0 1
Neighs:    735166 ave 735167 max 735165 min
Histogram: 1 0 0 0 0 0 0 0 0 1

Total # of neighbors = 1470332
Ave neighs/atom = 74.8184
Neighbor list builds = 495
Dangerous builds not checked
Setting up Verlet run ...
  Unit style    : metal
  Current step  : 900495
  Time step     : 0.001
Per MPI rank memory allocation (min/avg/max) = 11.36 | 11.36 | 11.36 Mbytes
Step Temp Press TotEng PotEng Enthalpy 
  900495    273.56297     233.0012   -64278.701   -64973.576    -64229.57 
  920000     251.6827    575.37929    -64422.85   -65062.147   -64301.895 
Loop time of 1688.48 on 2 procs for 19505 steps with 19652 atoms

Performance: 0.998 ns/day, 24.046 hours/ns, 11.552 timesteps/s
98.2% CPU use with 2 MPI tasks x no OpenMP threads

MPI task timing breakdown:
Section |  min time  |  avg time  |  max time  |%varavg| %total
---------------------------------------------------------------
Pair    | 913.56     | 915.55     | 917.54     |   6.6 | 54.22
Neigh   | 692.53     | 702.25     | 711.96     |  36.7 | 41.59
Comm    | 41.053     | 48.934     | 56.814     | 112.7 |  2.90
Output  | 0.038566   | 0.038623   | 0.03868    |   0.0 |  0.00
Modify  | 16.776     | 16.91      | 17.044     |   3.3 |  1.00
Other   |            | 4.798      |            |       |  0.28

Nlocal:    9826 ave 9833 max 9819 min
Histogram: 1 0 0 0 0 0 0 0 0 1
Nghost:    12823 ave 12849 max 12797 min
Histogram: 1 0 0 0 0 0 0 0 0 1
Neighs:    737325 ave 738319 max 736331 min
Histogram: 1 0 0 0 0 0 0 0 0 1

Total # of neighbors = 1474650
Ave neighs/atom = 75.0382
Neighbor list builds = 19505
Dangerous builds not checked
Setting up Verlet run ...
  Unit style    : metal
  Current step  : 920000
  Time step     : 0.001
Per MPI rank memory allocation (min/avg/max) = 11.36 | 11.36 | 11.36 Mbytes
Step Temp Press TotEng PotEng Enthalpy 
  920000     251.6827    575.37929    -64422.85   -65062.147   -64301.895 
  920495    223.81254   -587.53486   -64559.851   -65128.355   -64683.263 
Loop time of 39.847 on 2 procs for 495 steps with 19652 atoms

Performance: 1.073 ns/day, 22.361 hours/ns, 12.423 timesteps/s
99.9% CPU use with 2 MPI tasks x no OpenMP threads

MPI task timing breakdown:
Section |  min time  |  avg time  |  max time  |%varavg| %total
---------------------------------------------------------------
Pair    | 21.278     | 21.301     | 21.323     |   0.5 | 53.46
Neigh   | 17.079     | 17.244     | 17.408     |   4.0 | 43.27
Comm    | 0.58764    | 0.77914    | 0.97064    |  21.7 |  1.96
Output  | 6.8188e-05 | 0.00010765 | 0.0001471  |   0.0 |  0.00
Modify  | 0.40493    | 0.41026    | 0.41559    |   0.8 |  1.03
Other   |            | 0.1134     |            |       |  0.28

Nlocal:    9826 ave 9834 max 9818 min
Histogram: 1 0 0 0 0 0 0 0 0 1
Nghost:    12838 ave 12840 max 12836 min
Histogram: 1 0 0 0 0 0 0 0 0 1
Neighs:    737792 ave 738288 max 737296 min
Histogram: 1 0 0 0 0 0 0 0 0 1

Total # of neighbors = 1475584
Ave neighs/atom = 75.0857
Neighbor list builds = 495
Dangerous builds not checked
Setting up Verlet run ...
  Unit style    : metal
  Current step  : 920495
  Time step     : 0.001
Per MPI rank memory allocation (min/avg/max) = 11.36 | 11.36 | 11.36 Mbytes
Step Temp Press TotEng PotEng Enthalpy 
  920495    223.81254   -587.53486   -64559.851   -65128.355   -64683.263 
  940000    201.19654    235.05441   -64705.159   -65216.217   -64655.952 
Loop time of 1660.85 on 2 procs for 19505 steps with 19652 atoms

Performance: 1.015 ns/day, 23.653 hours/ns, 11.744 timesteps/s
94.6% CPU use with 2 MPI tasks x no OpenMP threads

MPI task timing breakdown:
Section |  min time  |  avg time  |  max time  |%varavg| %total
---------------------------------------------------------------
Pair    | 897.21     | 899.52     | 901.83     |   7.7 | 54.16
Neigh   | 651.72     | 655        | 658.28     |  12.8 | 39.44
Comm    | 84.205     | 85.476     | 86.748     |  13.8 |  5.15
Output  | 0.036866   | 0.03688    | 0.036894   |   0.0 |  0.00
Modify  | 16.175     | 16.432     | 16.69      |   6.4 |  0.99
Other   |            | 4.383      |            |       |  0.26

Nlocal:    9826 ave 9828 max 9824 min
Histogram: 1 0 0 0 0 0 0 0 0 1
Nghost:    12828 ave 12831 max 12825 min
Histogram: 1 0 0 0 0 0 0 0 0 1
Neighs:    739968 ave 740615 max 739321 min
Histogram: 1 0 0 0 0 0 0 0 0 1

Total # of neighbors = 1479936
Ave neighs/atom = 75.3071
Neighbor list builds = 19505
Dangerous builds not checked
Setting up Verlet run ...
  Unit style    : metal
  Current step  : 940000
  Time step     : 0.001
Per MPI rank memory allocation (min/avg/max) = 11.36 | 11.36 | 11.36 Mbytes
Step Temp Press TotEng PotEng Enthalpy 
  940000    201.19654    235.05441   -64705.159   -65216.217   -64655.952 
  940495     176.0853    327.68559   -64830.725   -65277.998   -64762.269 
Loop time of 48.1658 on 2 procs for 495 steps with 19652 atoms

Performance: 0.888 ns/day, 27.029 hours/ns, 10.277 timesteps/s
93.1% CPU use with 2 MPI tasks x no OpenMP threads

MPI task timing breakdown:
Section |  min time  |  avg time  |  max time  |%varavg| %total
---------------------------------------------------------------
Pair    | 25.032     | 25.141     | 25.249     |   2.2 | 52.20
Neigh   | 16.314     | 16.692     | 17.07      |   9.3 | 34.65
Comm    | 5.5215     | 5.8005     | 6.0795     |  11.6 | 12.04
Output  | 0.00010109 | 0.00013006 | 0.00015903 |   0.0 |  0.00
Modify  | 0.40706    | 0.41414    | 0.42123    |   1.1 |  0.86
Other   |            | 0.1188     |            |       |  0.25

Nlocal:    9826 ave 9832 max 9820 min
Histogram: 1 0 0 0 0 0 0 0 0 1
Nghost:    12852 ave 12872 max 12832 min
Histogram: 1 0 0 0 0 0 0 0 0 1
Neighs:    741078 ave 741501 max 740656 min
Histogram: 1 0 0 0 0 0 0 0 0 1

Total # of neighbors = 1482157
Ave neighs/atom = 75.4202
Neighbor list builds = 495
Dangerous builds not checked
Setting up Verlet run ...
  Unit style    : metal
  Current step  : 940495
  Time step     : 0.001
Per MPI rank memory allocation (min/avg/max) = 11.36 | 11.36 | 11.36 Mbytes
Step Temp Press TotEng PotEng Enthalpy 
  940495     176.0853    327.68559   -64830.725   -65277.998   -64762.269 
  960000    149.25184   -265.80151   -64970.957    -65350.07   -65026.408 
Loop time of 1532.85 on 2 procs for 19505 steps with 19652 atoms

Performance: 1.099 ns/day, 21.830 hours/ns, 12.725 timesteps/s
97.4% CPU use with 2 MPI tasks x no OpenMP threads

MPI task timing breakdown:
Section |  min time  |  avg time  |  max time  |%varavg| %total
---------------------------------------------------------------
Pair    | 816.97     | 817.28     | 817.58     |   1.1 | 53.32
Neigh   | 587.39     | 591.49     | 595.58     |  16.8 | 38.59
Comm    | 98.769     | 103.47     | 108.17     |  46.2 |  6.75
Output  | 0.077227   | 0.077256   | 0.077286   |   0.0 |  0.01
Modify  | 16.106     | 16.384     | 16.663     |   6.9 |  1.07
Other   |            | 4.151      |            |       |  0.27

Nlocal:    9826 ave 9829 max 9823 min
Histogram: 1 0 0 0 0 0 0 0 0 1
Nghost:    12863.5 ave 12864 max 12863 min
Histogram: 1 0 0 0 0 0 0 0 0 1
Neighs:    741994 ave 742051 max 741936 min
Histogram: 1 0 0 0 0 0 0 0 0 1

Total # of neighbors = 1483987
Ave neighs/atom = 75.5133
Neighbor list builds = 19505
Dangerous builds not checked
Setting up Verlet run ...
  Unit style    : metal
  Current step  : 960000
  Time step     : 0.001
Per MPI rank memory allocation (min/avg/max) = 11.36 | 11.36 | 11.36 Mbytes
Step Temp Press TotEng PotEng Enthalpy 
  960000    149.25184   -265.80151   -64970.957    -65350.07   -65026.408 
  960495    127.88402     181.0475     -65091.5   -65416.337   -65053.832 
Loop time of 40.5479 on 2 procs for 495 steps with 19652 atoms

Performance: 1.055 ns/day, 22.754 hours/ns, 12.208 timesteps/s
99.9% CPU use with 2 MPI tasks x no OpenMP threads

MPI task timing breakdown:
Section |  min time  |  avg time  |  max time  |%varavg| %total
---------------------------------------------------------------
Pair    | 22.076     | 22.197     | 22.318     |   2.6 | 54.74
Neigh   | 14.63      | 15.227     | 15.825     |  15.3 | 37.55
Comm    | 2.1362     | 2.6213     | 3.1064     |  30.0 |  6.46
Output  | 8.5831e-05 | 0.00011396 | 0.0001421  |   0.0 |  0.00
Modify  | 0.38256    | 0.38944    | 0.39632    |   1.1 |  0.96
Other   |            | 0.1128     |            |       |  0.28

Nlocal:    9826 ave 9836 max 9816 min
Histogram: 1 0 0 0 0 0 0 0 0 1
Nghost:    12865.5 ave 12893 max 12838 min
Histogram: 1 0 0 0 0 0 0 0 0 1
Neighs:    743874 ave 744761 max 742987 min
Histogram: 1 0 0 0 0 0 0 0 0 1

Total # of neighbors = 1487748
Ave neighs/atom = 75.7047
Neighbor list builds = 495
Dangerous builds not checked
Setting up Verlet run ...
  Unit style    : metal
  Current step  : 960495
  Time step     : 0.001
Per MPI rank memory allocation (min/avg/max) = 11.36 | 11.36 | 11.36 Mbytes
Step Temp Press TotEng PotEng Enthalpy 
  960495    127.88402     181.0475     -65091.5   -65416.337   -65053.832 
  980000    100.04912    277.72044    -65237.39   -65491.524   -65179.746 
Loop time of 1647.19 on 2 procs for 19505 steps with 19652 atoms

Performance: 1.023 ns/day, 23.458 hours/ns, 11.841 timesteps/s
97.4% CPU use with 2 MPI tasks x no OpenMP threads

MPI task timing breakdown:
Section |  min time  |  avg time  |  max time  |%varavg| %total
---------------------------------------------------------------
Pair    | 880.82     | 881.81     | 882.81     |   3.4 | 53.53
Neigh   | 621.12     | 621.77     | 622.42     |   2.6 | 37.75
Comm    | 119.8      | 120.9      | 122.01     |  10.0 |  7.34
Output  | 0.12603    | 0.12611    | 0.12619    |   0.0 |  0.01
Modify  | 17.366     | 18.14      | 18.915     |  18.2 |  1.10
Other   |            | 4.435      |            |       |  0.27

Nlocal:    9826 ave 9829 max 9823 min
Histogram: 1 0 0 0 0 0 0 0 0 1
Nghost:    12887 ave 12903 max 12871 min
Histogram: 1 0 0 0 0 0 0 0 0 1
Neighs:    745256 ave 745378 max 745135 min
Histogram: 1 0 0 0 0 0 0 0 0 1

Total # of neighbors = 1490513
Ave neighs/atom = 75.8454
Neighbor list builds = 19505
Dangerous builds not checked
Total wall time: 20:02:52
