LAMMPS (12 Dec 2018)
Lattice spacing in x,y,z = 4 4 4
Created orthogonal box = (0 0 0) to (68 68 68)
  1 by 1 by 2 MPI processor grid
Created 19652 atoms
  Time spent = 0.00170207 secs
Setting atom values ...
  0 settings made for type/fraction
Neighbor list info ...
  update every 1 steps, delay 0 steps, check no
  max neighbors/atom: 2000, page size: 100000
  master list distance cutoff = 8.5
  ghost atom cutoff = 8.5
  binsize = 4.25, bins = 16 16 16
  1 neighbor lists, perpetual/occasional/extra = 1 0 0
  (1) pair eam/alloy, perpetual
      attributes: half, newton on
      pair build: half/bin/atomonly/newton
      stencil: half/bin/3d/newton
      bin: standard
Setting up Verlet run ...
  Unit style    : metal
  Current step  : 0
  Time step     : 0.001
Per MPI rank memory allocation (min/avg/max) = 11.15 | 11.15 | 11.15 Mbytes
Step Temp Press TotEng PotEng Enthalpy 
       0          300   -290122.37   -72710.881   -73472.908   -129648.28 
    1000    1240.7834   -60319.026   -72711.135   -75862.838   -84548.927 
Loop time of 108.283 on 2 procs for 1000 steps with 19652 atoms

Performance: 0.798 ns/day, 30.079 hours/ns, 9.235 timesteps/s
96.8% CPU use with 2 MPI tasks x no OpenMP threads

MPI task timing breakdown:
Section |  min time  |  avg time  |  max time  |%varavg| %total
---------------------------------------------------------------
Pair    | 60.991     | 61.65      | 62.309     |   8.4 | 56.93
Neigh   | 40.923     | 41.996     | 43.07      |  16.6 | 38.78
Comm    | 3.7265     | 4.1327     | 4.5389     |  20.0 |  3.82
Output  | 0.00012207 | 0.00027764 | 0.00043321 |   0.0 |  0.00
Modify  | 0.25481    | 0.25593    | 0.25704    |   0.2 |  0.24
Other   |            | 0.2483     |            |       |  0.23

Nlocal:    9826 ave 9869 max 9783 min
Histogram: 1 0 0 0 0 0 0 0 0 1
Nghost:    13409 ave 13560 max 13258 min
Histogram: 1 0 0 0 0 0 0 0 0 1
Neighs:    802520 ave 808566 max 796475 min
Histogram: 1 0 0 0 0 0 0 0 0 1

Total # of neighbors = 1605041
Ave neighs/atom = 81.6732
Neighbor list builds = 1000
Dangerous builds not checked
Setting up Verlet run ...
  Unit style    : metal
  Current step  : 1000
  Time step     : 0.001
Per MPI rank memory allocation (min/avg/max) = 11.15 | 11.15 | 11.15 Mbytes
Step Temp Press TotEng PotEng Enthalpy 
    1000    1240.7834   -60319.026   -72711.135   -75862.838   -84548.927 
    2000    410.40896   -3372.0161   -81582.655   -82625.131    -82082.19 
Loop time of 128.757 on 2 procs for 1000 steps with 19652 atoms

Performance: 0.671 ns/day, 35.766 hours/ns, 7.767 timesteps/s
98.3% CPU use with 2 MPI tasks x no OpenMP threads

MPI task timing breakdown:
Section |  min time  |  avg time  |  max time  |%varavg| %total
---------------------------------------------------------------
Pair    | 71.182     | 72.291     | 73.4       |  13.0 | 56.15
Neigh   | 47.398     | 50.473     | 53.548     |  43.3 | 39.20
Comm    | 2.849      | 4.8652     | 6.8813     |  91.4 |  3.78
Output  | 0.00010991 | 0.00014341 | 0.00017691 |   0.0 |  0.00
Modify  | 0.85409    | 0.88964    | 0.92519    |   3.8 |  0.69
Other   |            | 0.2386     |            |       |  0.19

Nlocal:    9826 ave 9857 max 9795 min
Histogram: 1 0 0 0 0 0 0 0 0 1
Nghost:    14995.5 ave 15062 max 14929 min
Histogram: 1 0 0 0 0 0 0 0 0 1
Neighs:    1.05141e+06 ave 1.05908e+06 max 1.04374e+06 min
Histogram: 1 0 0 0 0 0 0 0 0 1

Total # of neighbors = 2102815
Ave neighs/atom = 107.003
Neighbor list builds = 1000
Dangerous builds not checked
Setting up Verlet run ...
  Unit style    : metal
  Current step  : 2000
  Time step     : 0.001
Per MPI rank memory allocation (min/avg/max) = 11.92 | 11.92 | 11.92 Mbytes
Step Temp Press TotEng PotEng Enthalpy 
    2000    410.40896   -3372.0161   -81582.655   -82625.131    -82082.19 
   10000    2455.1837   -381.96272   -70475.283   -76711.673   -70536.267 
Loop time of 1057.97 on 2 procs for 8000 steps with 19652 atoms

Performance: 0.653 ns/day, 36.735 hours/ns, 7.562 timesteps/s
97.8% CPU use with 2 MPI tasks x no OpenMP threads

MPI task timing breakdown:
Section |  min time  |  avg time  |  max time  |%varavg| %total
---------------------------------------------------------------
Pair    | 584.83     | 590.94     | 597.05     |  25.1 | 55.86
Neigh   | 393.04     | 413.21     | 433.37     |  99.2 | 39.06
Comm    | 29.838     | 44.224     | 58.609     | 216.3 |  4.18
Output  | 0.031802   | 0.031823   | 0.031843   |   0.0 |  0.00
Modify  | 7.4312     | 7.6735     | 7.9158     |   8.7 |  0.73
Other   |            | 1.898      |            |       |  0.18

Nlocal:    9826 ave 9840 max 9812 min
Histogram: 1 0 0 0 0 0 0 0 0 1
Nghost:    14455.5 ave 14471 max 14440 min
Histogram: 1 0 0 0 0 0 0 0 0 1
Neighs:    963854 ave 965277 max 962431 min
Histogram: 1 0 0 0 0 0 0 0 0 1

Total # of neighbors = 1927708
Ave neighs/atom = 98.0922
Neighbor list builds = 8000
Dangerous builds not checked
Setting up Verlet run ...
  Unit style    : metal
  Current step  : 10000
  Time step     : 0.001
Per MPI rank memory allocation (min/avg/max) = 12.33 | 12.33 | 12.33 Mbytes
Step Temp Press TotEng PotEng Enthalpy 
   10000    2455.1837   -381.96272   -70475.283   -76711.673   -70536.267 
   20000    2449.4727   -436.39254   -70396.753   -76618.637   -70466.584 
   30000    2436.8172    87.062085   -70386.351   -76576.088    -70372.42 
   40000    2434.9953   -2115.8265   -70334.339   -76519.449   -70673.935 
Loop time of 4125.24 on 2 procs for 30000 steps with 19652 atoms

Performance: 0.628 ns/day, 38.197 hours/ns, 7.272 timesteps/s
96.4% CPU use with 2 MPI tasks x no OpenMP threads

MPI task timing breakdown:
Section |  min time  |  avg time  |  max time  |%varavg| %total
---------------------------------------------------------------
Pair    | 2250.2     | 2255.2     | 2260.2     |  10.6 | 54.67
Neigh   | 1671.4     | 1684.1     | 1696.8     |  31.0 | 40.82
Comm    | 131.23     | 149.63     | 168.03     | 150.4 |  3.63
Output  | 0.11277    | 0.11288    | 0.11299    |   0.0 |  0.00
Modify  | 28.256     | 28.871     | 29.485     |  11.4 |  0.70
Other   |            | 7.311      |            |       |  0.18

Nlocal:    9826 ave 9839 max 9813 min
Histogram: 1 0 0 0 0 0 0 0 0 1
Nghost:    14387 ave 14388 max 14386 min
Histogram: 1 0 0 0 0 0 0 0 0 1
Neighs:    958888 ave 959689 max 958088 min
Histogram: 1 0 0 0 0 0 0 0 0 1

Total # of neighbors = 1917777
Ave neighs/atom = 97.5869
Neighbor list builds = 30000
Dangerous builds not checked
Setting up Verlet run ...
  Unit style    : metal
  Current step  : 40000
  Time step     : 0.001
Per MPI rank memory allocation (min/avg/max) = 12.39 | 12.39 | 12.39 Mbytes
Step Temp Press TotEng PotEng Enthalpy 
   40000    2434.9953   -2115.8265   -70334.339   -76519.449   -70673.935 
   40495    2381.4488   -1135.7463   -70601.844   -76650.941   -70783.414 
Loop time of 65.0447 on 2 procs for 495 steps with 19652 atoms

Performance: 0.658 ns/day, 36.501 hours/ns, 7.610 timesteps/s
98.6% CPU use with 2 MPI tasks x no OpenMP threads

MPI task timing breakdown:
Section |  min time  |  avg time  |  max time  |%varavg| %total
---------------------------------------------------------------
Pair    | 35.09      | 35.792     | 36.493     |  11.7 | 55.03
Neigh   | 26.17      | 26.979     | 27.788     |  15.6 | 41.48
Comm    | 1.5873     | 1.6955     | 1.8037     |   8.3 |  2.61
Output  | 9.6083e-05 | 0.00014162 | 0.00018716 |   0.0 |  0.00
Modify  | 0.44339    | 0.44923    | 0.45508    |   0.9 |  0.69
Other   |            | 0.1293     |            |       |  0.20

Nlocal:    9826 ave 9865 max 9787 min
Histogram: 1 0 0 0 0 0 0 0 0 1
Nghost:    14451.5 ave 14481 max 14422 min
Histogram: 1 0 0 0 0 0 0 0 0 1
Neighs:    962732 ave 967225 max 958240 min
Histogram: 1 0 0 0 0 0 0 0 0 1

Total # of neighbors = 1925465
Ave neighs/atom = 97.9781
Neighbor list builds = 495
Dangerous builds not checked
Setting up Verlet run ...
  Unit style    : metal
  Current step  : 40495
  Time step     : 0.001
Per MPI rank memory allocation (min/avg/max) = 12.39 | 12.39 | 12.39 Mbytes
Step Temp Press TotEng PotEng Enthalpy 
   40495    2381.4488   -1135.7463   -70601.844   -76650.941   -70783.414 
   50000    2416.3411   -2279.1876   -70567.943   -76705.669   -70932.456 
Loop time of 1339.76 on 2 procs for 9505 steps with 19652 atoms

Performance: 0.613 ns/day, 39.154 hours/ns, 7.095 timesteps/s
95.5% CPU use with 2 MPI tasks x no OpenMP threads

MPI task timing breakdown:
Section |  min time  |  avg time  |  max time  |%varavg| %total
---------------------------------------------------------------
Pair    | 733.56     | 735.45     | 737.34     |   7.0 | 54.89
Neigh   | 540.73     | 541.18     | 541.64     |   1.9 | 40.39
Comm    | 48.94      | 50.378     | 51.817     |  20.3 |  3.76
Output  | 0.046534   | 0.046566   | 0.046599   |   0.0 |  0.00
Modify  | 10.252     | 10.254     | 10.257     |   0.1 |  0.77
Other   |            | 2.443      |            |       |  0.18

Nlocal:    9826 ave 9827 max 9825 min
Histogram: 1 0 0 0 0 0 0 0 0 1
Nghost:    14395 ave 14408 max 14382 min
Histogram: 1 0 0 0 0 0 0 0 0 1
Neighs:    962288 ave 964805 max 959772 min
Histogram: 1 0 0 0 0 0 0 0 0 1

Total # of neighbors = 1924577
Ave neighs/atom = 97.9329
Neighbor list builds = 9505
Dangerous builds not checked
Setting up Verlet run ...
  Unit style    : metal
  Current step  : 50000
  Time step     : 0.001
Per MPI rank memory allocation (min/avg/max) = 12.4 | 12.4 | 12.4 Mbytes
Step Temp Press TotEng PotEng Enthalpy 
   50000    2416.3411   -2279.1876   -70567.943   -76705.669   -70932.456 
   50495    2341.5912    2529.8934   -70892.789   -76840.644   -70490.492 
Loop time of 63.74 on 2 procs for 495 steps with 19652 atoms

Performance: 0.671 ns/day, 35.769 hours/ns, 7.766 timesteps/s
98.3% CPU use with 2 MPI tasks x no OpenMP threads

MPI task timing breakdown:
Section |  min time  |  avg time  |  max time  |%varavg| %total
---------------------------------------------------------------
Pair    | 34.625     | 34.765     | 34.906     |   2.4 | 54.54
Neigh   | 26.337     | 26.707     | 27.077     |   7.2 | 41.90
Comm    | 1.4265     | 1.6573     | 1.8882     |  17.9 |  2.60
Output  | 0.00011516 | 0.00014853 | 0.00018191 |   0.0 |  0.00
Modify  | 0.48645    | 0.48972    | 0.49299    |   0.5 |  0.77
Other   |            | 0.1204     |            |       |  0.19

Nlocal:    9826 ave 9827 max 9825 min
Histogram: 1 0 0 0 0 0 0 0 0 1
Nghost:    14464.5 ave 14467 max 14462 min
Histogram: 1 0 0 0 0 0 0 0 0 1
Neighs:    968154 ave 968836 max 967471 min
Histogram: 1 0 0 0 0 0 0 0 0 1

Total # of neighbors = 1936307
Ave neighs/atom = 98.5298
Neighbor list builds = 495
Dangerous builds not checked
Setting up Verlet run ...
  Unit style    : metal
  Current step  : 50495
  Time step     : 0.001
Per MPI rank memory allocation (min/avg/max) = 12.4 | 12.4 | 12.4 Mbytes
Step Temp Press TotEng PotEng Enthalpy 
   50495    2341.5912    2529.8934   -70892.789   -76840.644   -70490.492 
   60000    2356.8778    2209.9142   -70909.505   -76896.189   -70558.456 
Loop time of 1280.24 on 2 procs for 9505 steps with 19652 atoms

Performance: 0.641 ns/day, 37.414 hours/ns, 7.424 timesteps/s
98.1% CPU use with 2 MPI tasks x no OpenMP threads

MPI task timing breakdown:
Section |  min time  |  avg time  |  max time  |%varavg| %total
---------------------------------------------------------------
Pair    | 699.62     | 699.97     | 700.31     |   1.3 | 54.67
Neigh   | 528.86     | 529.9      | 530.94     |   4.5 | 41.39
Comm    | 37.235     | 38.638     | 40.041     |  22.6 |  3.02
Output  | 0.037731   | 0.037774   | 0.037817   |   0.0 |  0.00
Modify  | 9.357      | 9.3718     | 9.3866     |   0.5 |  0.73
Other   |            | 2.329      |            |       |  0.18

Nlocal:    9826 ave 9830 max 9822 min
Histogram: 1 0 0 0 0 0 0 0 0 1
Nghost:    14483 ave 14488 max 14478 min
Histogram: 1 0 0 0 0 0 0 0 0 1
Neighs:    968896 ave 970270 max 967523 min
Histogram: 1 0 0 0 0 0 0 0 0 1

Total # of neighbors = 1937793
Ave neighs/atom = 98.6054
Neighbor list builds = 9505
Dangerous builds not checked
Setting up Verlet run ...
  Unit style    : metal
  Current step  : 60000
  Time step     : 0.001
Per MPI rank memory allocation (min/avg/max) = 12.41 | 12.41 | 12.41 Mbytes
Step Temp Press TotEng PotEng Enthalpy 
   60000    2356.8778    2209.9142   -70909.505   -76896.189   -70558.456 
   60495    2306.8392    1049.9552    -71135.99   -76995.572   -70969.495 
Loop time of 66.4023 on 2 procs for 495 steps with 19652 atoms

Performance: 0.644 ns/day, 37.263 hours/ns, 7.455 timesteps/s
95.1% CPU use with 2 MPI tasks x no OpenMP threads

MPI task timing breakdown:
Section |  min time  |  avg time  |  max time  |%varavg| %total
---------------------------------------------------------------
Pair    | 36.682     | 36.822     | 36.962     |   2.3 | 55.45
Neigh   | 26.732     | 26.94      | 27.148     |   4.0 | 40.57
Comm    | 1.6494     | 2.0034     | 2.3573     |  25.0 |  3.02
Output  | 9.5129e-05 | 0.00013506 | 0.000175   |   0.0 |  0.00
Modify  | 0.50577    | 0.51413    | 0.52249    |   1.2 |  0.77
Other   |            | 0.122      |            |       |  0.18

Nlocal:    9826 ave 9830 max 9822 min
Histogram: 1 0 0 0 0 0 0 0 0 1
Nghost:    14448 ave 14449 max 14447 min
Histogram: 1 0 0 0 0 0 0 0 0 1
Neighs:    971022 ave 971051 max 970994 min
Histogram: 1 0 0 0 0 0 0 0 0 1

Total # of neighbors = 1942045
Ave neighs/atom = 98.8217
Neighbor list builds = 495
Dangerous builds not checked
Setting up Verlet run ...
  Unit style    : metal
  Current step  : 60495
  Time step     : 0.001
Per MPI rank memory allocation (min/avg/max) = 12.41 | 12.41 | 12.41 Mbytes
Step Temp Press TotEng PotEng Enthalpy 
   60495    2306.8392    1049.9552    -71135.99   -76995.572   -70969.495 
   70000    2299.7356   -1320.0926   -71253.267   -77094.805   -71462.655 
Loop time of 1221.46 on 2 procs for 9505 steps with 19652 atoms

Performance: 0.672 ns/day, 35.696 hours/ns, 7.782 timesteps/s
97.1% CPU use with 2 MPI tasks x no OpenMP threads

MPI task timing breakdown:
Section |  min time  |  avg time  |  max time  |%varavg| %total
---------------------------------------------------------------
Pair    | 666.95     | 666.95     | 666.95     |   0.0 | 54.60
Neigh   | 493.04     | 494.41     | 495.78     |   6.2 | 40.48
Comm    | 48.601     | 49.996     | 51.39      |  19.7 |  4.09
Output  | 0.036813   | 0.036852   | 0.03689    |   0.0 |  0.00
Modify  | 7.9166     | 7.9206     | 7.9247     |   0.1 |  0.65
Other   |            | 2.142      |            |       |  0.18

Nlocal:    9826 ave 9842 max 9810 min
Histogram: 1 0 0 0 0 0 0 0 0 1
Nghost:    14480 ave 14487 max 14473 min
Histogram: 1 0 0 0 0 0 0 0 0 1
Neighs:    970486 ave 972484 max 968487 min
Histogram: 1 0 0 0 0 0 0 0 0 1

Total # of neighbors = 1940971
Ave neighs/atom = 98.7671
Neighbor list builds = 9505
Dangerous builds not checked
Setting up Verlet run ...
  Unit style    : metal
  Current step  : 70000
  Time step     : 0.001
Per MPI rank memory allocation (min/avg/max) = 12.41 | 12.42 | 12.42 Mbytes
Step Temp Press TotEng PotEng Enthalpy 
   70000    2299.7356   -1320.0926   -71253.267   -77094.805   -71462.655 
   70495     2268.035    12.371685   -71435.169   -77196.185   -71433.213 
Loop time of 58.7647 on 2 procs for 495 steps with 19652 atoms

Performance: 0.728 ns/day, 32.977 hours/ns, 8.423 timesteps/s
98.9% CPU use with 2 MPI tasks x no OpenMP threads

MPI task timing breakdown:
Section |  min time  |  avg time  |  max time  |%varavg| %total
---------------------------------------------------------------
Pair    | 32.115     | 32.241     | 32.368     |   2.2 | 54.86
Neigh   | 24.263     | 24.311     | 24.359     |   1.0 | 41.37
Comm    | 1.5322     | 1.7057     | 1.8793     |  13.3 |  2.90
Output  | 0.00010681 | 0.00013888 | 0.00017095 |   0.0 |  0.00
Modify  | 0.39866    | 0.40045    | 0.40224    |   0.3 |  0.68
Other   |            | 0.1062     |            |       |  0.18

Nlocal:    9826 ave 9831 max 9821 min
Histogram: 1 0 0 0 0 0 0 0 0 1
Nghost:    14490.5 ave 14504 max 14477 min
Histogram: 1 0 0 0 0 0 0 0 0 1
Neighs:    973710 ave 974086 max 973335 min
Histogram: 1 0 0 0 0 0 0 0 0 1

Total # of neighbors = 1947421
Ave neighs/atom = 99.0953
Neighbor list builds = 495
Dangerous builds not checked
Setting up Verlet run ...
  Unit style    : metal
  Current step  : 70495
  Time step     : 0.001
Per MPI rank memory allocation (min/avg/max) = 12.41 | 12.42 | 12.42 Mbytes
Step Temp Press TotEng PotEng Enthalpy 
   70495     2268.035    12.371685   -71435.169   -77196.185   -71433.213 
   80000    2250.8338   -1309.2857    -71598.52   -77315.843   -71805.278 
Loop time of 1177.4 on 2 procs for 9505 steps with 19652 atoms

Performance: 0.697 ns/day, 34.409 hours/ns, 8.073 timesteps/s
98.6% CPU use with 2 MPI tasks x no OpenMP threads

MPI task timing breakdown:
Section |  min time  |  avg time  |  max time  |%varavg| %total
---------------------------------------------------------------
Pair    | 638.44     | 638.73     | 639.01     |   1.1 | 54.25
Neigh   | 478.6      | 480.45     | 482.31     |   8.5 | 40.81
Comm    | 45.987     | 48.203     | 50.418     |  31.9 |  4.09
Output  | 0.024384   | 0.070054   | 0.11572    |  17.3 |  0.01
Modify  | 7.7932     | 7.8543     | 7.9154     |   2.2 |  0.67
Other   |            | 2.098      |            |       |  0.18

Nlocal:    9826 ave 9830 max 9822 min
Histogram: 1 0 0 0 0 0 0 0 0 1
Nghost:    14578.5 ave 14612 max 14545 min
Histogram: 1 0 0 0 0 0 0 0 0 1
Neighs:    974684 ave 975632 max 973737 min
Histogram: 1 0 0 0 0 0 0 0 0 1

Total # of neighbors = 1949369
Ave neighs/atom = 99.1944
Neighbor list builds = 9505
Dangerous builds not checked
Setting up Verlet run ...
  Unit style    : metal
  Current step  : 80000
  Time step     : 0.001
Per MPI rank memory allocation (min/avg/max) = 12.42 | 12.42 | 12.42 Mbytes
Step Temp Press TotEng PotEng Enthalpy 
   80000    2250.8338   -1309.2857    -71598.52   -77315.843   -71805.278 
   80495    2204.0217   -276.62423   -71829.766   -77428.182   -71873.314 
Loop time of 60.1729 on 2 procs for 495 steps with 19652 atoms

Performance: 0.711 ns/day, 33.767 hours/ns, 8.226 timesteps/s
99.9% CPU use with 2 MPI tasks x no OpenMP threads

MPI task timing breakdown:
Section |  min time  |  avg time  |  max time  |%varavg| %total
---------------------------------------------------------------
Pair    | 32.96      | 33.155     | 33.349     |   3.4 | 55.10
Neigh   | 24.402     | 24.782     | 25.163     |   7.6 | 41.19
Comm    | 1.5237     | 1.7146     | 1.9055     |  14.6 |  2.85
Output  | 9.7036e-05 | 0.00014555 | 0.00019407 |   0.0 |  0.00
Modify  | 0.40698    | 0.40816    | 0.40935    |   0.2 |  0.68
Other   |            | 0.1129     |            |       |  0.19

Nlocal:    9826 ave 9833 max 9819 min
Histogram: 1 0 0 0 0 0 0 0 0 1
Nghost:    14487.5 ave 14505 max 14470 min
Histogram: 1 0 0 0 0 0 0 0 0 1
Neighs:    977782 ave 979095 max 976470 min
Histogram: 1 0 0 0 0 0 0 0 0 1

Total # of neighbors = 1955565
Ave neighs/atom = 99.5097
Neighbor list builds = 495
Dangerous builds not checked
Setting up Verlet run ...
  Unit style    : metal
  Current step  : 80495
  Time step     : 0.001
Per MPI rank memory allocation (min/avg/max) = 12.42 | 12.42 | 12.42 Mbytes
Step Temp Press TotEng PotEng Enthalpy 
   80495    2204.0217   -276.62423   -71829.766   -77428.182   -71873.314 
   90000    2201.8583    4230.8753   -71880.185   -77473.105   -71216.684 
Loop time of 1171.84 on 2 procs for 9505 steps with 19652 atoms

Performance: 0.701 ns/day, 34.246 hours/ns, 8.111 timesteps/s
99.1% CPU use with 2 MPI tasks x no OpenMP threads

MPI task timing breakdown:
Section |  min time  |  avg time  |  max time  |%varavg| %total
---------------------------------------------------------------
Pair    | 633.21     | 636.79     | 640.36     |  14.2 | 54.34
Neigh   | 482.18     | 482.27     | 482.36     |   0.4 | 41.15
Comm    | 39.426     | 42.914     | 46.403     |  53.3 |  3.66
Output  | 0.051955   | 0.051981   | 0.052008   |   0.0 |  0.00
Modify  | 7.7543     | 7.7584     | 7.7625     |   0.1 |  0.66
Other   |            | 2.057      |            |       |  0.18

Nlocal:    9826 ave 9832 max 9820 min
Histogram: 1 0 0 0 0 0 0 0 0 1
Nghost:    14542.5 ave 14545 max 14540 min
Histogram: 1 0 0 0 0 0 0 0 0 1
Neighs:    981258 ave 981366 max 981149 min
Histogram: 1 0 0 0 0 0 0 0 0 1

Total # of neighbors = 1962515
Ave neighs/atom = 99.8634
Neighbor list builds = 9505
Dangerous builds not checked
Setting up Verlet run ...
  Unit style    : metal
  Current step  : 90000
  Time step     : 0.001
Per MPI rank memory allocation (min/avg/max) = 12.43 | 12.43 | 12.43 Mbytes
Step Temp Press TotEng PotEng Enthalpy 
   90000    2201.8583    4230.8753   -71880.185   -77473.105   -71216.684 
   90495    2190.7173    1624.4925   -72014.972   -77579.594   -71760.186 
Loop time of 61.5948 on 2 procs for 495 steps with 19652 atoms

Performance: 0.694 ns/day, 34.565 hours/ns, 8.036 timesteps/s
98.4% CPU use with 2 MPI tasks x no OpenMP threads

MPI task timing breakdown:
Section |  min time  |  avg time  |  max time  |%varavg| %total
---------------------------------------------------------------
Pair    | 33.781     | 33.868     | 33.955     |   1.5 | 54.99
Neigh   | 24.33      | 24.478     | 24.627     |   3.0 | 39.74
Comm    | 2.1933     | 2.2543     | 2.3154     |   4.1 |  3.66
Output  | 0.00010204 | 0.00013602 | 0.00016999 |   0.0 |  0.00
Modify  | 0.87795    | 0.88204    | 0.88613    |   0.4 |  1.43
Other   |            | 0.112      |            |       |  0.18

Nlocal:    9826 ave 9842 max 9810 min
Histogram: 1 0 0 0 0 0 0 0 0 1
Nghost:    14579 ave 14592 max 14566 min
Histogram: 1 0 0 0 0 0 0 0 0 1
Neighs:    981357 ave 984675 max 978039 min
Histogram: 1 0 0 0 0 0 0 0 0 1

Total # of neighbors = 1962714
Ave neighs/atom = 99.8735
Neighbor list builds = 495
Dangerous builds not checked
Setting up Verlet run ...
  Unit style    : metal
  Current step  : 90495
  Time step     : 0.001
Per MPI rank memory allocation (min/avg/max) = 12.43 | 12.43 | 12.43 Mbytes
Step Temp Press TotEng PotEng Enthalpy 
   90495    2190.7173    1624.4925   -72014.972   -77579.594   -71760.186 
  100000    2159.2456   -914.84241   -72144.969   -77629.649   -72288.501 
Loop time of 1190.53 on 2 procs for 9505 steps with 19652 atoms

Performance: 0.690 ns/day, 34.793 hours/ns, 7.984 timesteps/s
99.0% CPU use with 2 MPI tasks x no OpenMP threads

MPI task timing breakdown:
Section |  min time  |  avg time  |  max time  |%varavg| %total
---------------------------------------------------------------
Pair    | 646.06     | 648.04     | 650.01     |   7.8 | 54.43
Neigh   | 482.3      | 484.94     | 487.59     |  12.0 | 40.73
Comm    | 42.956     | 47.579     | 52.203     |  67.0 |  4.00
Output  | 0.037465   | 0.037491   | 0.037517   |   0.0 |  0.00
Modify  | 7.7922     | 7.8291     | 7.8661     |   1.3 |  0.66
Other   |            | 2.102      |            |       |  0.18

Nlocal:    9826 ave 9843 max 9809 min
Histogram: 1 0 0 0 0 0 0 0 0 1
Nghost:    14519 ave 14533 max 14505 min
Histogram: 1 0 0 0 0 0 0 0 0 1
Neighs:    981039 ave 982686 max 979392 min
Histogram: 1 0 0 0 0 0 0 0 0 1

Total # of neighbors = 1962078
Ave neighs/atom = 99.8411
Neighbor list builds = 9505
Dangerous builds not checked
Setting up Verlet run ...
  Unit style    : metal
  Current step  : 100000
  Time step     : 0.001
Per MPI rank memory allocation (min/avg/max) = 12.43 | 12.43 | 12.43 Mbytes
Step Temp Press TotEng PotEng Enthalpy 
  100000    2159.2456   -914.84241   -72144.969   -77629.649   -72288.501 
  100495     2110.744     803.4183   -72419.678   -77781.161    -72294.12 
Loop time of 58.653 on 2 procs for 495 steps with 19652 atoms

Performance: 0.729 ns/day, 32.914 hours/ns, 8.439 timesteps/s
99.6% CPU use with 2 MPI tasks x no OpenMP threads

MPI task timing breakdown:
Section |  min time  |  avg time  |  max time  |%varavg| %total
---------------------------------------------------------------
Pair    | 31.963     | 32.046     | 32.128     |   1.5 | 54.64
Neigh   | 23.906     | 24.117     | 24.328     |   4.3 | 41.12
Comm    | 1.8499     | 1.9783     | 2.1066     |   9.1 |  3.37
Output  | 9.4891e-05 | 0.00013995 | 0.00018501 |   0.0 |  0.00
Modify  | 0.40291    | 0.40394    | 0.40497    |   0.2 |  0.69
Other   |            | 0.1079     |            |       |  0.18

Nlocal:    9826 ave 9831 max 9821 min
Histogram: 1 0 0 0 0 0 0 0 0 1
Nghost:    14579 ave 14588 max 14570 min
Histogram: 1 0 0 0 0 0 0 0 0 1
Neighs:    984962 ave 985566 max 984357 min
Histogram: 1 0 0 0 0 0 0 0 0 1

Total # of neighbors = 1969923
Ave neighs/atom = 100.24
Neighbor list builds = 495
Dangerous builds not checked
Setting up Verlet run ...
  Unit style    : metal
  Current step  : 100495
  Time step     : 0.001
Per MPI rank memory allocation (min/avg/max) = 12.43 | 12.43 | 12.43 Mbytes
Step Temp Press TotEng PotEng Enthalpy 
  100495     2110.744     803.4183   -72419.678   -77781.161    -72294.12 
  110000    2070.5679    -931.0544    -72538.23   -77797.661   -72683.809 
Loop time of 1182.13 on 2 procs for 9505 steps with 19652 atoms

Performance: 0.695 ns/day, 34.547 hours/ns, 8.041 timesteps/s
99.1% CPU use with 2 MPI tasks x no OpenMP threads

MPI task timing breakdown:
Section |  min time  |  avg time  |  max time  |%varavg| %total
---------------------------------------------------------------
Pair    | 646.54     | 647.53     | 648.53     |   3.9 | 54.78
Neigh   | 479.31     | 480.74     | 482.16     |   6.5 | 40.67
Comm    | 40.361     | 42.755     | 45.148     |  36.6 |  3.62
Output  | 1.047      | 1.047      | 1.047      |   0.0 |  0.09
Modify  | 7.9334     | 7.9652     | 7.9971     |   1.1 |  0.67
Other   |            | 2.095      |            |       |  0.18

Nlocal:    9826 ave 9833 max 9819 min
Histogram: 1 0 0 0 0 0 0 0 0 1
Nghost:    14550.5 ave 14570 max 14531 min
Histogram: 1 0 0 0 0 0 0 0 0 1
Neighs:    984098 ave 984630 max 983565 min
Histogram: 1 0 0 0 0 0 0 0 0 1

Total # of neighbors = 1968195
Ave neighs/atom = 100.152
Neighbor list builds = 9505
Dangerous builds not checked
Setting up Verlet run ...
  Unit style    : metal
  Current step  : 110000
  Time step     : 0.001
Per MPI rank memory allocation (min/avg/max) = 12.44 | 12.44 | 12.44 Mbytes
Step Temp Press TotEng PotEng Enthalpy 
  110000    2070.5679    -931.0544    -72538.23   -77797.661   -72683.809 
  110495    2063.8973   -345.98748   -72716.018   -77958.505   -72769.952 
Loop time of 63.7934 on 2 procs for 495 steps with 19652 atoms

Performance: 0.670 ns/day, 35.799 hours/ns, 7.759 timesteps/s
95.3% CPU use with 2 MPI tasks x no OpenMP threads

MPI task timing breakdown:
Section |  min time  |  avg time  |  max time  |%varavg| %total
---------------------------------------------------------------
Pair    | 33.005     | 33.098     | 33.191     |   1.6 | 51.88
Neigh   | 24.393     | 24.482     | 24.57      |   1.8 | 38.38
Comm    | 5.5218     | 5.6987     | 5.8756     |   7.4 |  8.93
Output  | 0.00010395 | 0.00014496 | 0.00018597 |   0.0 |  0.00
Modify  | 0.39976    | 0.40514    | 0.41052    |   0.8 |  0.64
Other   |            | 0.1099     |            |       |  0.17

Nlocal:    9826 ave 9827 max 9825 min
Histogram: 1 0 0 0 0 0 0 0 0 1
Nghost:    14556 ave 14571 max 14541 min
Histogram: 1 0 0 0 0 0 0 0 0 1
Neighs:    987549 ave 987844 max 987254 min
Histogram: 1 0 0 0 0 0 0 0 0 1

Total # of neighbors = 1975098
Ave neighs/atom = 100.504
Neighbor list builds = 495
Dangerous builds not checked
Setting up Verlet run ...
  Unit style    : metal
  Current step  : 110495
  Time step     : 0.001
Per MPI rank memory allocation (min/avg/max) = 12.44 | 12.44 | 12.44 Mbytes
Step Temp Press TotEng PotEng Enthalpy 
  110495    2063.8973   -345.98748   -72716.018   -77958.505   -72769.952 
  120000    2034.6906   -1487.5988   -72832.333   -78000.632   -73064.118 
Loop time of 1238.56 on 2 procs for 9505 steps with 19652 atoms

Performance: 0.663 ns/day, 36.196 hours/ns, 7.674 timesteps/s
97.3% CPU use with 2 MPI tasks x no OpenMP threads

MPI task timing breakdown:
Section |  min time  |  avg time  |  max time  |%varavg| %total
---------------------------------------------------------------
Pair    | 670.37     | 672.51     | 674.65     |   8.3 | 54.30
Neigh   | 493.35     | 494.46     | 495.57     |   5.0 | 39.92
Comm    | 58.112     | 61.398     | 64.683     |  41.9 |  4.96
Output  | 0.035661   | 0.035692   | 0.035723   |   0.0 |  0.00
Modify  | 7.9178     | 7.9458     | 7.9739     |   1.0 |  0.64
Other   |            | 2.207      |            |       |  0.18

Nlocal:    9826 ave 9845 max 9807 min
Histogram: 1 0 0 0 0 0 0 0 0 1
Nghost:    14542.5 ave 14548 max 14537 min
Histogram: 1 0 0 0 0 0 0 0 0 1
Neighs:    987818 ave 990404 max 985233 min
Histogram: 1 0 0 0 0 0 0 0 0 1

Total # of neighbors = 1975637
Ave neighs/atom = 100.531
Neighbor list builds = 9505
Dangerous builds not checked
Setting up Verlet run ...
  Unit style    : metal
  Current step  : 120000
  Time step     : 0.001
Per MPI rank memory allocation (min/avg/max) = 12.44 | 12.44 | 12.44 Mbytes
Step Temp Press TotEng PotEng Enthalpy 
  120000    2034.6906   -1487.5988   -72832.333   -78000.632   -73064.118 
  120495    2015.7042     82.41888   -73011.521   -78131.593    -72998.72 
Loop time of 61.3568 on 2 procs for 495 steps with 19652 atoms

Performance: 0.697 ns/day, 34.431 hours/ns, 8.068 timesteps/s
99.9% CPU use with 2 MPI tasks x no OpenMP threads

MPI task timing breakdown:
Section |  min time  |  avg time  |  max time  |%varavg| %total
---------------------------------------------------------------
Pair    | 33.402     | 33.65      | 33.899     |   4.3 | 54.84
Neigh   | 25.009     | 25.255     | 25.501     |   4.9 | 41.16
Comm    | 1.3982     | 1.9006     | 2.403      |  36.4 |  3.10
Output  | 9.8944e-05 | 0.00013697 | 0.000175   |   0.0 |  0.00
Modify  | 0.42305    | 0.42711    | 0.43117    |   0.6 |  0.70
Other   |            | 0.1234     |            |       |  0.20

Nlocal:    9826 ave 9827 max 9825 min
Histogram: 1 0 0 0 0 0 0 0 0 1
Nghost:    14590.5 ave 14599 max 14582 min
Histogram: 1 0 0 0 0 0 0 0 0 1
Neighs:    990934 ave 991293 max 990574 min
Histogram: 1 0 0 0 0 0 0 0 0 1

Total # of neighbors = 1981867
Ave neighs/atom = 100.848
Neighbor list builds = 495
Dangerous builds not checked
Setting up Verlet run ...
  Unit style    : metal
  Current step  : 120495
  Time step     : 0.001
Per MPI rank memory allocation (min/avg/max) = 12.44 | 12.44 | 12.44 Mbytes
Step Temp Press TotEng PotEng Enthalpy 
  120495    2015.7042     82.41888   -73011.521   -78131.593    -72998.72 
  130000    2002.5316   -970.73924   -73132.425   -78219.038   -73283.026 
Loop time of 1228.5 on 2 procs for 9505 steps with 19652 atoms

Performance: 0.668 ns/day, 35.902 hours/ns, 7.737 timesteps/s
98.8% CPU use with 2 MPI tasks x no OpenMP threads

MPI task timing breakdown:
Section |  min time  |  avg time  |  max time  |%varavg| %total
---------------------------------------------------------------
Pair    | 674.48     | 675.43     | 676.37     |   3.6 | 54.98
Neigh   | 496.67     | 499.01     | 501.34     |  10.5 | 40.62
Comm    | 39.26      | 42.457     | 45.653     |  49.1 |  3.46
Output  | 0.036691   | 0.045045   | 0.053399   |   3.9 |  0.00
Modify  | 9.1661     | 9.2624     | 9.3587     |   3.2 |  0.75
Other   |            | 2.303      |            |       |  0.19

Nlocal:    9826 ave 9856 max 9796 min
Histogram: 1 0 0 0 0 0 0 0 0 1
Nghost:    14590 ave 14631 max 14549 min
Histogram: 1 0 0 0 0 0 0 0 0 1
Neighs:    991952 ave 995404 max 988499 min
Histogram: 1 0 0 0 0 0 0 0 0 1

Total # of neighbors = 1983903
Ave neighs/atom = 100.952
Neighbor list builds = 9505
Dangerous builds not checked
Setting up Verlet run ...
  Unit style    : metal
  Current step  : 130000
  Time step     : 0.001
Per MPI rank memory allocation (min/avg/max) = 12.44 | 12.45 | 12.45 Mbytes
Step Temp Press TotEng PotEng Enthalpy 
  130000    2002.5316   -970.73924   -73132.425   -78219.038   -73283.026 
  130495    1952.3138   -754.95512   -73372.515    -78331.57   -73489.397 
Loop time of 64.2563 on 2 procs for 495 steps with 19652 atoms

Performance: 0.666 ns/day, 36.059 hours/ns, 7.704 timesteps/s
98.7% CPU use with 2 MPI tasks x no OpenMP threads

MPI task timing breakdown:
Section |  min time  |  avg time  |  max time  |%varavg| %total
---------------------------------------------------------------
Pair    | 35.435     | 35.499     | 35.563     |   1.1 | 55.25
Neigh   | 24.938     | 26.126     | 27.313     |  23.2 | 40.66
Comm    | 0.93283    | 2.0738     | 3.2147     |  79.2 |  3.23
Output  | 0.00012302 | 0.00015247 | 0.00018191 |   0.0 |  0.00
Modify  | 0.43061    | 0.44221    | 0.45381    |   1.7 |  0.69
Other   |            | 0.1153     |            |       |  0.18

Nlocal:    9826 ave 9851 max 9801 min
Histogram: 1 0 0 0 0 0 0 0 0 1
Nghost:    14600 ave 14631 max 14569 min
Histogram: 1 0 0 0 0 0 0 0 0 1
Neighs:    993996 ave 996938 max 991054 min
Histogram: 1 0 0 0 0 0 0 0 0 1

Total # of neighbors = 1987992
Ave neighs/atom = 101.16
Neighbor list builds = 495
Dangerous builds not checked
Setting up Verlet run ...
  Unit style    : metal
  Current step  : 130495
  Time step     : 0.001
Per MPI rank memory allocation (min/avg/max) = 12.44 | 12.45 | 12.45 Mbytes
Step Temp Press TotEng PotEng Enthalpy 
  130495    1952.3138   -754.95512   -73372.515    -78331.57   -73489.397 
  140000    1961.7682    1015.6008    -73368.59    -78351.66   -73211.644 
Loop time of 1219.4 on 2 procs for 9505 steps with 19652 atoms

Performance: 0.673 ns/day, 35.636 hours/ns, 7.795 timesteps/s
98.1% CPU use with 2 MPI tasks x no OpenMP threads

MPI task timing breakdown:
Section |  min time  |  avg time  |  max time  |%varavg| %total
---------------------------------------------------------------
Pair    | 664.55     | 665.77     | 666.99     |   4.7 | 54.60
Neigh   | 484.44     | 492.07     | 499.7      |  34.4 | 40.35
Comm    | 44.878     | 51.38      | 57.881     |  90.7 |  4.21
Output  | 0.036312   | 0.036343   | 0.036374   |   0.0 |  0.00
Modify  | 7.966      | 7.9861     | 8.0061     |   0.7 |  0.65
Other   |            | 2.157      |            |       |  0.18

Nlocal:    9826 ave 9837 max 9815 min
Histogram: 1 0 0 0 0 0 0 0 0 1
Nghost:    14639.5 ave 14647 max 14632 min
Histogram: 1 0 0 0 0 0 0 0 0 1
Neighs:    996282 ave 996858 max 995705 min
Histogram: 1 0 0 0 0 0 0 0 0 1

Total # of neighbors = 1992563
Ave neighs/atom = 101.392
Neighbor list builds = 9505
Dangerous builds not checked
Setting up Verlet run ...
  Unit style    : metal
  Current step  : 140000
  Time step     : 0.001
Per MPI rank memory allocation (min/avg/max) = 12.45 | 12.45 | 12.45 Mbytes
Step Temp Press TotEng PotEng Enthalpy 
  140000    1961.7682    1015.6008    -73368.59    -78351.66   -73211.644 
  140495    1921.4762    597.79356   -73671.536   -78552.261   -73579.458 
Loop time of 59.9108 on 2 procs for 495 steps with 19652 atoms

Performance: 0.714 ns/day, 33.620 hours/ns, 8.262 timesteps/s
99.8% CPU use with 2 MPI tasks x no OpenMP threads

MPI task timing breakdown:
Section |  min time  |  avg time  |  max time  |%varavg| %total
---------------------------------------------------------------
Pair    | 32.806     | 32.84      | 32.873     |   0.6 | 54.81
Neigh   | 24.313     | 24.647     | 24.981     |   6.7 | 41.14
Comm    | 1.5258     | 1.9004     | 2.275      |  27.2 |  3.17
Output  | 0.00010395 | 0.00014246 | 0.00018096 |   0.0 |  0.00
Modify  | 0.41007    | 0.41041    | 0.41075    |   0.1 |  0.69
Other   |            | 0.1128     |            |       |  0.19

Nlocal:    9826 ave 9835 max 9817 min
Histogram: 1 0 0 0 0 0 0 0 0 1
Nghost:    14656 ave 14660 max 14652 min
Histogram: 1 0 0 0 0 0 0 0 0 1
Neighs:    999087 ave 999171 max 999003 min
Histogram: 1 0 0 0 0 0 0 0 0 1

Total # of neighbors = 1998174
Ave neighs/atom = 101.678
Neighbor list builds = 495
Dangerous builds not checked
Setting up Verlet run ...
  Unit style    : metal
  Current step  : 140495
  Time step     : 0.001
Per MPI rank memory allocation (min/avg/max) = 12.45 | 12.45 | 12.45 Mbytes
Step Temp Press TotEng PotEng Enthalpy 
  140495    1921.4762    597.79356   -73671.536   -78552.261   -73579.458 
  150000    1903.7725    181.56125   -73763.183   -78598.939   -73735.239 
Loop time of 1238.86 on 2 procs for 9505 steps with 19652 atoms

Performance: 0.663 ns/day, 36.205 hours/ns, 7.672 timesteps/s
97.7% CPU use with 2 MPI tasks x no OpenMP threads

MPI task timing breakdown:
Section |  min time  |  avg time  |  max time  |%varavg| %total
---------------------------------------------------------------
Pair    | 681.76     | 681.99     | 682.21     |   0.9 | 55.05
Neigh   | 499.1      | 500.25     | 501.4      |   5.1 | 40.38
Comm    | 44.866     | 45.685     | 46.505     |  12.1 |  3.69
Output  | 0.037413   | 0.037444   | 0.037474   |   0.0 |  0.00
Modify  | 8.5797     | 8.7032     | 8.8268     |   4.2 |  0.70
Other   |            | 2.195      |            |       |  0.18

Nlocal:    9826 ave 9827 max 9825 min
Histogram: 1 0 0 0 0 0 0 0 0 1
Nghost:    14627.5 ave 14649 max 14606 min
Histogram: 1 0 0 0 0 0 0 0 0 1
Neighs:    1.00008e+06 ave 1.00041e+06 max 999751 min
Histogram: 1 0 0 0 0 0 0 0 0 1

Total # of neighbors = 2000161
Ave neighs/atom = 101.779
Neighbor list builds = 9505
Dangerous builds not checked
Setting up Verlet run ...
  Unit style    : metal
  Current step  : 150000
  Time step     : 0.001
Per MPI rank memory allocation (min/avg/max) = 12.45 | 12.45 | 12.45 Mbytes
Step Temp Press TotEng PotEng Enthalpy 
  150000    1903.7725    181.56125   -73763.183   -78598.939   -73735.239 
  150495    1854.8503   -180.10999   -74020.555   -78732.044    -74048.21 
Loop time of 61.5713 on 2 procs for 495 steps with 19652 atoms

Performance: 0.695 ns/day, 34.552 hours/ns, 8.039 timesteps/s
97.7% CPU use with 2 MPI tasks x no OpenMP threads

MPI task timing breakdown:
Section |  min time  |  avg time  |  max time  |%varavg| %total
---------------------------------------------------------------
Pair    | 32.963     | 33.098     | 33.234     |   2.4 | 53.76
Neigh   | 24.879     | 24.949     | 25.02      |   1.4 | 40.52
Comm    | 2.9285     | 2.9929     | 3.0574     |   3.7 |  4.86
Output  | 0.00014806 | 0.00016594 | 0.00018382 |   0.0 |  0.00
Modify  | 0.41616    | 0.41643    | 0.4167     |   0.0 |  0.68
Other   |            | 0.114      |            |       |  0.19

Nlocal:    9826 ave 9834 max 9818 min
Histogram: 1 0 0 0 0 0 0 0 0 1
Nghost:    14647 ave 14649 max 14645 min
Histogram: 1 0 0 0 0 0 0 0 0 1
Neighs:    1.00196e+06 ave 1.00334e+06 max 1.00059e+06 min
Histogram: 1 0 0 0 0 0 0 0 0 1

Total # of neighbors = 2003923
Ave neighs/atom = 101.97
Neighbor list builds = 495
Dangerous builds not checked
Setting up Verlet run ...
  Unit style    : metal
  Current step  : 150495
  Time step     : 0.001
Per MPI rank memory allocation (min/avg/max) = 12.45 | 12.45 | 12.45 Mbytes
Step Temp Press TotEng PotEng Enthalpy 
  150495    1854.8503   -180.10999   -74020.555   -78732.044    -74048.21 
  160000    1855.9537   -789.72732   -74093.201   -78807.492   -74214.319 
Loop time of 1225.79 on 2 procs for 9505 steps with 19652 atoms

Performance: 0.670 ns/day, 35.823 hours/ns, 7.754 timesteps/s
98.1% CPU use with 2 MPI tasks x no OpenMP threads

MPI task timing breakdown:
Section |  min time  |  avg time  |  max time  |%varavg| %total
---------------------------------------------------------------
Pair    | 675.42     | 676.64     | 677.86     |   4.7 | 55.20
Neigh   | 492.67     | 498.23     | 503.79     |  24.9 | 40.65
Comm    | 36.105     | 40.525     | 44.946     |  69.4 |  3.31
Output  | 0.067752   | 0.067801   | 0.067849   |   0.0 |  0.01
Modify  | 8.0614     | 8.1139     | 8.1663     |   1.8 |  0.66
Other   |            | 2.211      |            |       |  0.18

Nlocal:    9826 ave 9848 max 9804 min
Histogram: 1 0 0 0 0 0 0 0 0 1
Nghost:    14736 ave 14753 max 14719 min
Histogram: 1 0 0 0 0 0 0 0 0 1
Neighs:    1.00316e+06 ave 1.00639e+06 max 999928 min
Histogram: 1 0 0 0 0 0 0 0 0 1

Total # of neighbors = 2006317
Ave neighs/atom = 102.092
Neighbor list builds = 9505
Dangerous builds not checked
Setting up Verlet run ...
  Unit style    : metal
  Current step  : 160000
  Time step     : 0.001
Per MPI rank memory allocation (min/avg/max) = 12.45 | 12.45 | 12.45 Mbytes
Step Temp Press TotEng PotEng Enthalpy 
  160000    1855.9537   -789.72732   -74093.201   -78807.492   -74214.319 
  160495    1803.0999   -238.44263   -74305.706   -78885.744   -74342.212 
Loop time of 69.2578 on 2 procs for 495 steps with 19652 atoms

Performance: 0.618 ns/day, 38.865 hours/ns, 7.147 timesteps/s
91.8% CPU use with 2 MPI tasks x no OpenMP threads

MPI task timing breakdown:
Section |  min time  |  avg time  |  max time  |%varavg| %total
---------------------------------------------------------------
Pair    | 36.77      | 36.919     | 37.067     |   2.4 | 53.31
Neigh   | 24.171     | 25.554     | 26.937     |  27.4 | 36.90
Comm    | 4.9862     | 6.2357     | 7.4852     |  50.0 |  9.00
Output  | 9.0122e-05 | 0.00012207 | 0.00015402 |   0.0 |  0.00
Modify  | 0.4253     | 0.43596    | 0.44663    |   1.6 |  0.63
Other   |            | 0.1134     |            |       |  0.16

Nlocal:    9826 ave 9841 max 9811 min
Histogram: 1 0 0 0 0 0 0 0 0 1
Nghost:    14676 ave 14690 max 14662 min
Histogram: 1 0 0 0 0 0 0 0 0 1
Neighs:    1.00541e+06 ave 1.00649e+06 max 1.00432e+06 min
Histogram: 1 0 0 0 0 0 0 0 0 1

Total # of neighbors = 2010811
Ave neighs/atom = 102.321
Neighbor list builds = 495
Dangerous builds not checked
Setting up Verlet run ...
  Unit style    : metal
  Current step  : 160495
  Time step     : 0.001
Per MPI rank memory allocation (min/avg/max) = 12.45 | 12.45 | 12.45 Mbytes
Step Temp Press TotEng PotEng Enthalpy 
  160495    1803.0999   -238.44263   -74305.706   -78885.744   -74342.212 
  170000    1775.7076   -1352.6655    -74465.15   -78975.609   -74672.036 
Loop time of 1260.18 on 2 procs for 9505 steps with 19652 atoms

Performance: 0.652 ns/day, 36.828 hours/ns, 7.543 timesteps/s
97.3% CPU use with 2 MPI tasks x no OpenMP threads

MPI task timing breakdown:
Section |  min time  |  avg time  |  max time  |%varavg| %total
---------------------------------------------------------------
Pair    | 689.44     | 691.26     | 693.09     |   6.9 | 54.85
Neigh   | 496.07     | 505.14     | 514.22     |  40.4 | 40.08
Comm    | 41.034     | 51.992     | 62.95      | 152.0 |  4.13
Output  | 0.037485   | 0.037544   | 0.037602   |   0.0 |  0.00
Modify  | 9.4908     | 9.5067     | 9.5226     |   0.5 |  0.75
Other   |            | 2.237      |            |       |  0.18

Nlocal:    9826 ave 9828 max 9824 min
Histogram: 1 0 0 0 0 0 0 0 0 1
Nghost:    14697.5 ave 14699 max 14696 min
Histogram: 1 0 0 0 0 0 0 0 0 1
Neighs:    1.00596e+06 ave 1.00642e+06 max 1.00549e+06 min
Histogram: 1 0 0 0 0 0 0 0 0 1

Total # of neighbors = 2011911
Ave neighs/atom = 102.377
Neighbor list builds = 9505
Dangerous builds not checked
Setting up Verlet run ...
  Unit style    : metal
  Current step  : 170000
  Time step     : 0.001
Per MPI rank memory allocation (min/avg/max) = 12.45 | 12.45 | 12.45 Mbytes
Step Temp Press TotEng PotEng Enthalpy 
  170000    1775.7076   -1352.6655    -74465.15   -78975.609   -74672.036 
  170495    1773.9819   -710.61314   -74629.647   -79135.723   -74737.972 
Loop time of 67.612 on 2 procs for 495 steps with 19652 atoms

Performance: 0.633 ns/day, 37.942 hours/ns, 7.321 timesteps/s
94.0% CPU use with 2 MPI tasks x no OpenMP threads

MPI task timing breakdown:
Section |  min time  |  avg time  |  max time  |%varavg| %total
---------------------------------------------------------------
Pair    | 37.127     | 37.199     | 37.271     |   1.2 | 55.02
Neigh   | 24.991     | 25.698     | 26.404     |  13.9 | 38.01
Comm    | 3.0325     | 3.6744     | 4.3163     |  33.5 |  5.43
Output  | 0.00010896 | 0.00015604 | 0.00020313 |   0.0 |  0.00
Modify  | 0.92336    | 0.92652    | 0.92967    |   0.3 |  1.37
Other   |            | 0.1145     |            |       |  0.17

Nlocal:    9826 ave 9831 max 9821 min
Histogram: 1 0 0 0 0 0 0 0 0 1
Nghost:    14697.5 ave 14715 max 14680 min
Histogram: 1 0 0 0 0 0 0 0 0 1
Neighs:    1.00956e+06 ave 1.01042e+06 max 1.0087e+06 min
Histogram: 1 0 0 0 0 0 0 0 0 1

Total # of neighbors = 2019120
Ave neighs/atom = 102.744
Neighbor list builds = 495
Dangerous builds not checked
Setting up Verlet run ...
  Unit style    : metal
  Current step  : 170495
  Time step     : 0.001
Per MPI rank memory allocation (min/avg/max) = 12.45 | 12.45 | 12.45 Mbytes
Step Temp Press TotEng PotEng Enthalpy 
  170495    1773.9819   -710.61314   -74629.647   -79135.723   -74737.972 
  180000    1744.9642   -1010.5816   -74707.701   -79140.069   -74861.767 
Loop time of 1291.38 on 2 procs for 9505 steps with 19652 atoms

Performance: 0.636 ns/day, 37.740 hours/ns, 7.360 timesteps/s
96.4% CPU use with 2 MPI tasks x no OpenMP threads

MPI task timing breakdown:
Section |  min time  |  avg time  |  max time  |%varavg| %total
---------------------------------------------------------------
Pair    | 707.9      | 708.33     | 708.77     |   1.6 | 54.85
Neigh   | 503.41     | 515.44     | 527.47     |  53.0 | 39.91
Comm    | 39.801     | 51.519     | 63.237     | 163.3 |  3.99
Output  | 0.037675   | 0.037715   | 0.037756   |   0.0 |  0.00
Modify  | 13.694     | 13.771     | 13.848     |   2.1 |  1.07
Other   |            | 2.278      |            |       |  0.18

Nlocal:    9826 ave 9845 max 9807 min
Histogram: 1 0 0 0 0 0 0 0 0 1
Nghost:    14694.5 ave 14723 max 14666 min
Histogram: 1 0 0 0 0 0 0 0 0 1
Neighs:    1.0092e+06 ave 1.01164e+06 max 1.00676e+06 min
Histogram: 1 0 0 0 0 0 0 0 0 1

Total # of neighbors = 2018404
Ave neighs/atom = 102.707
Neighbor list builds = 9505
Dangerous builds not checked
Setting up Verlet run ...
  Unit style    : metal
  Current step  : 180000
  Time step     : 0.001
Per MPI rank memory allocation (min/avg/max) = 12.46 | 12.46 | 12.46 Mbytes
Step Temp Press TotEng PotEng Enthalpy 
  180000    1744.9642   -1010.5816   -74707.701   -79140.069   -74861.767 
  180495    1718.1726   -2688.1452   -74966.243   -79330.558   -75375.063 
Loop time of 66.2052 on 2 procs for 495 steps with 19652 atoms

Performance: 0.646 ns/day, 37.152 hours/ns, 7.477 timesteps/s
98.3% CPU use with 2 MPI tasks x no OpenMP threads

MPI task timing breakdown:
Section |  min time  |  avg time  |  max time  |%varavg| %total
---------------------------------------------------------------
Pair    | 35.671     | 36.597     | 37.524     |  15.3 | 55.28
Neigh   | 25.739     | 26.238     | 26.737     |   9.7 | 39.63
Comm    | 1.3732     | 2.7985     | 4.2237     |  85.2 |  4.23
Output  | 0.00010204 | 0.00013709 | 0.00017214 |   0.0 |  0.00
Modify  | 0.44882    | 0.45187    | 0.45491    |   0.5 |  0.68
Other   |            | 0.1193     |            |       |  0.18

Nlocal:    9826 ave 9839 max 9813 min
Histogram: 1 0 0 0 0 0 0 0 0 1
Nghost:    14732 ave 14742 max 14722 min
Histogram: 1 0 0 0 0 0 0 0 0 1
Neighs:    1.01175e+06 ave 1.01345e+06 max 1.01004e+06 min
Histogram: 1 0 0 0 0 0 0 0 0 1

Total # of neighbors = 2023493
Ave neighs/atom = 102.966
Neighbor list builds = 495
Dangerous builds not checked
Setting up Verlet run ...
  Unit style    : metal
  Current step  : 180495
  Time step     : 0.001
Per MPI rank memory allocation (min/avg/max) = 12.46 | 12.46 | 12.46 Mbytes
Step Temp Press TotEng PotEng Enthalpy 
  180495    1718.1726   -2688.1452   -74966.243   -79330.558   -75375.063 
  190000    1703.7827    2276.4027   -75105.362   -79433.126   -74760.987 
Loop time of 1365.84 on 2 procs for 9505 steps with 19652 atoms

Performance: 0.601 ns/day, 39.916 hours/ns, 6.959 timesteps/s
94.4% CPU use with 2 MPI tasks x no OpenMP threads

MPI task timing breakdown:
Section |  min time  |  avg time  |  max time  |%varavg| %total
---------------------------------------------------------------
Pair    | 755.63     | 759.26     | 762.9      |  13.2 | 55.59
Neigh   | 529.67     | 536.62     | 543.57     |  30.0 | 39.29
Comm    | 54.013     | 57.423     | 60.833     |  45.0 |  4.20
Output  | 0.039385   | 0.039432   | 0.039479   |   0.0 |  0.00
Modify  | 9.989      | 10.072     | 10.154     |   2.6 |  0.74
Other   |            | 2.425      |            |       |  0.18

Nlocal:    9826 ave 9832 max 9820 min
Histogram: 1 0 0 0 0 0 0 0 0 1
Nghost:    14751 ave 14779 max 14723 min
Histogram: 1 0 0 0 0 0 0 0 0 1
Neighs:    1.01748e+06 ave 1.01756e+06 max 1.01741e+06 min
Histogram: 1 0 0 0 0 0 0 0 0 1

Total # of neighbors = 2034968
Ave neighs/atom = 103.55
Neighbor list builds = 9505
Dangerous builds not checked
Setting up Verlet run ...
  Unit style    : metal
  Current step  : 190000
  Time step     : 0.001
Per MPI rank memory allocation (min/avg/max) = 12.46 | 12.46 | 12.46 Mbytes
Step Temp Press TotEng PotEng Enthalpy 
  190000    1703.7827    2276.4027   -75105.362   -79433.126   -74760.987 
  190495    1666.7549    1637.2993   -75289.312   -79523.021   -75041.907 
Loop time of 64.9681 on 2 procs for 495 steps with 19652 atoms

Performance: 0.658 ns/day, 36.458 hours/ns, 7.619 timesteps/s
97.8% CPU use with 2 MPI tasks x no OpenMP threads

MPI task timing breakdown:
Section |  min time  |  avg time  |  max time  |%varavg| %total
---------------------------------------------------------------
Pair    | 36.117     | 36.119     | 36.122     |   0.0 | 55.60
Neigh   | 25.087     | 25.912     | 26.738     |  16.2 | 39.88
Comm    | 1.5092     | 2.3479     | 3.1866     |  54.7 |  3.61
Output  | 0.00011778 | 0.00016546 | 0.00021315 |   0.0 |  0.00
Modify  | 0.45976    | 0.46645    | 0.47314    |   1.0 |  0.72
Other   |            | 0.1218     |            |       |  0.19

Nlocal:    9826 ave 9836 max 9816 min
Histogram: 1 0 0 0 0 0 0 0 0 1
Nghost:    14736 ave 14772 max 14700 min
Histogram: 1 0 0 0 0 0 0 0 0 1
Neighs:    1.01876e+06 ave 1.01948e+06 max 1.01804e+06 min
Histogram: 1 0 0 0 0 0 0 0 0 1

Total # of neighbors = 2037523
Ave neighs/atom = 103.68
Neighbor list builds = 495
Dangerous builds not checked
Setting up Verlet run ...
  Unit style    : metal
  Current step  : 190495
  Time step     : 0.001
Per MPI rank memory allocation (min/avg/max) = 12.46 | 12.46 | 12.46 Mbytes
Step Temp Press TotEng PotEng Enthalpy 
  190495    1666.7549    1637.2993   -75289.312   -79523.021   -75041.907 
  200000    1624.3955   -2257.3731   -75460.088   -79586.201   -75801.579 
Loop time of 1371.29 on 2 procs for 9505 steps with 19652 atoms

Performance: 0.599 ns/day, 40.075 hours/ns, 6.931 timesteps/s
93.1% CPU use with 2 MPI tasks x no OpenMP threads

MPI task timing breakdown:
Section |  min time  |  avg time  |  max time  |%varavg| %total
---------------------------------------------------------------
Pair    | 755.56     | 762.47     | 769.37     |  25.0 | 55.60
Neigh   | 493.2      | 526.91     | 560.61     | 146.9 | 38.42
Comm    | 42.551     | 69.752     | 96.953     | 325.7 |  5.09
Output  | 0.058265   | 0.058292   | 0.058318   |   0.0 |  0.00
Modify  | 9.4667     | 9.6803     | 9.8939     |   6.9 |  0.71
Other   |            | 2.424      |            |       |  0.18

Nlocal:    9826 ave 9831 max 9821 min
Histogram: 1 0 0 0 0 0 0 0 0 1
Nghost:    14779 ave 14780 max 14778 min
Histogram: 1 0 0 0 0 0 0 0 0 1
Neighs:    1.01726e+06 ave 1.01738e+06 max 1.01715e+06 min
Histogram: 1 0 0 0 0 0 0 0 0 1

Total # of neighbors = 2034525
Ave neighs/atom = 103.528
Neighbor list builds = 9505
Dangerous builds not checked
Setting up Verlet run ...
  Unit style    : metal
  Current step  : 200000
  Time step     : 0.001
Per MPI rank memory allocation (min/avg/max) = 12.46 | 12.46 | 12.46 Mbytes
Step Temp Press TotEng PotEng Enthalpy 
  200000    1624.3955   -2257.3731   -75460.088   -79586.201   -75801.579 
  200495    1611.9667    350.90387   -75629.603   -79724.145   -75576.737 
Loop time of 70.1849 on 2 procs for 495 steps with 19652 atoms

Performance: 0.609 ns/day, 39.385 hours/ns, 7.053 timesteps/s
92.6% CPU use with 2 MPI tasks x no OpenMP threads

MPI task timing breakdown:
Section |  min time  |  avg time  |  max time  |%varavg| %total
---------------------------------------------------------------
Pair    | 38.823     | 39.316     | 39.81      |   7.9 | 56.02
Neigh   | 23.435     | 26.245     | 29.054     |  54.8 | 37.39
Comm    | 1.6684     | 4.0225     | 6.3767     | 117.4 |  5.73
Output  | 0.000108   | 0.00015056 | 0.00019312 |   0.0 |  0.00
Modify  | 0.45389    | 0.47523    | 0.49657    |   3.1 |  0.68
Other   |            | 0.126      |            |       |  0.18

Nlocal:    9826 ave 9835 max 9817 min
Histogram: 1 0 0 0 0 0 0 0 0 1
Nghost:    14786.5 ave 14796 max 14777 min
Histogram: 1 0 0 0 0 0 0 0 0 1
Neighs:    1.02181e+06 ave 1.0231e+06 max 1.02052e+06 min
Histogram: 1 0 0 0 0 0 0 0 0 1

Total # of neighbors = 2043619
Ave neighs/atom = 103.99
Neighbor list builds = 495
Dangerous builds not checked
Setting up Verlet run ...
  Unit style    : metal
  Current step  : 200495
  Time step     : 0.001
Per MPI rank memory allocation (min/avg/max) = 12.46 | 12.46 | 12.46 Mbytes
Step Temp Press TotEng PotEng Enthalpy 
  200495    1611.9667    350.90387   -75629.603   -79724.145   -75576.737 
  210000    1581.0436   -3588.3794    -75807.03   -79823.024   -76347.927 
Loop time of 1237.43 on 2 procs for 9505 steps with 19652 atoms

Performance: 0.664 ns/day, 36.163 hours/ns, 7.681 timesteps/s
97.0% CPU use with 2 MPI tasks x no OpenMP threads

MPI task timing breakdown:
Section |  min time  |  avg time  |  max time  |%varavg| %total
---------------------------------------------------------------
Pair    | 685.68     | 688.73     | 691.77     |  11.6 | 55.66
Neigh   | 477.62     | 487.35     | 497.09     |  44.1 | 39.38
Comm    | 44.1       | 50.877     | 57.655     |  95.0 |  4.11
Output  | 0.034006   | 0.03403    | 0.034054   |   0.0 |  0.00
Modify  | 8.1518     | 8.2034     | 8.2549     |   1.8 |  0.66
Other   |            | 2.239      |            |       |  0.18

Nlocal:    9826 ave 9828 max 9824 min
Histogram: 1 0 0 0 0 0 0 0 0 1
Nghost:    14776 ave 14797 max 14755 min
Histogram: 1 0 0 0 0 0 0 0 0 1
Neighs:    1.02085e+06 ave 1.02139e+06 max 1.0203e+06 min
Histogram: 1 0 0 0 0 0 0 0 0 1

Total # of neighbors = 2041691
Ave neighs/atom = 103.892
Neighbor list builds = 9505
Dangerous builds not checked
Setting up Verlet run ...
  Unit style    : metal
  Current step  : 210000
  Time step     : 0.001
Per MPI rank memory allocation (min/avg/max) = 12.46 | 12.46 | 12.46 Mbytes
Step Temp Press TotEng PotEng Enthalpy 
  210000    1581.0436   -3588.3794    -75807.03   -79823.024   -76347.927 
  210495    1566.2976   -243.42305   -75967.818   -79946.357    -76004.36 
Loop time of 60.9906 on 2 procs for 495 steps with 19652 atoms

Performance: 0.701 ns/day, 34.226 hours/ns, 8.116 timesteps/s
99.0% CPU use with 2 MPI tasks x no OpenMP threads

MPI task timing breakdown:
Section |  min time  |  avg time  |  max time  |%varavg| %total
---------------------------------------------------------------
Pair    | 33.736     | 33.984     | 34.232     |   4.3 | 55.72
Neigh   | 24.232     | 24.465     | 24.698     |   4.7 | 40.11
Comm    | 1.9961     | 2.01       | 2.0238     |   1.0 |  3.30
Output  | 8.6069e-05 | 0.00012255 | 0.00015903 |   0.0 |  0.00
Modify  | 0.41382    | 0.41509    | 0.41635    |   0.2 |  0.68
Other   |            | 0.1165     |            |       |  0.19

Nlocal:    9826 ave 9830 max 9822 min
Histogram: 1 0 0 0 0 0 0 0 0 1
Nghost:    14805 ave 14843 max 14767 min
Histogram: 1 0 0 0 0 0 0 0 0 1
Neighs:    1.02531e+06 ave 1.02544e+06 max 1.02518e+06 min
Histogram: 1 0 0 0 0 0 0 0 0 1

Total # of neighbors = 2050620
Ave neighs/atom = 104.347
Neighbor list builds = 495
Dangerous builds not checked
Setting up Verlet run ...
  Unit style    : metal
  Current step  : 210495
  Time step     : 0.001
Per MPI rank memory allocation (min/avg/max) = 12.46 | 12.46 | 12.46 Mbytes
Step Temp Press TotEng PotEng Enthalpy 
  210495    1566.2976   -243.42305   -75967.818   -79946.357    -76004.36 
  220000    1543.1442    637.83775   -76138.027   -80057.754   -76042.518 
Loop time of 1245.26 on 2 procs for 9505 steps with 19652 atoms

Performance: 0.659 ns/day, 36.392 hours/ns, 7.633 timesteps/s
98.0% CPU use with 2 MPI tasks x no OpenMP threads

MPI task timing breakdown:
Section |  min time  |  avg time  |  max time  |%varavg| %total
---------------------------------------------------------------
Pair    | 691.68     | 692.39     | 693.09     |   2.7 | 55.60
Neigh   | 497.46     | 497.99     | 498.52     |   2.4 | 39.99
Comm    | 42.853     | 44.075     | 45.298     |  18.4 |  3.54
Output  | 0.040146   | 0.040195   | 0.040245   |   0.0 |  0.00
Modify  | 8.4766     | 8.4974     | 8.5182     |   0.7 |  0.68
Other   |            | 2.273      |            |       |  0.18

Nlocal:    9826 ave 9833 max 9819 min
Histogram: 1 0 0 0 0 0 0 0 0 1
Nghost:    14836 ave 14841 max 14831 min
Histogram: 1 0 0 0 0 0 0 0 0 1
Neighs:    1.02803e+06 ave 1.02805e+06 max 1.02801e+06 min
Histogram: 1 0 0 0 0 0 0 0 0 1

Total # of neighbors = 2056057
Ave neighs/atom = 104.623
Neighbor list builds = 9505
Dangerous builds not checked
Setting up Verlet run ...
  Unit style    : metal
  Current step  : 220000
  Time step     : 0.001
Per MPI rank memory allocation (min/avg/max) = 12.46 | 12.46 | 12.46 Mbytes
Step Temp Press TotEng PotEng Enthalpy 
  220000    1543.1442    637.83775   -76138.027   -80057.754   -76042.518 
  220495    1500.0499     952.8031   -76326.978   -80137.242   -76184.574 
Loop time of 71.1172 on 2 procs for 495 steps with 19652 atoms

Performance: 0.601 ns/day, 39.909 hours/ns, 6.960 timesteps/s
92.4% CPU use with 2 MPI tasks x no OpenMP threads

MPI task timing breakdown:
Section |  min time  |  avg time  |  max time  |%varavg| %total
---------------------------------------------------------------
Pair    | 38.781     | 39.011     | 39.24      |   3.7 | 54.85
Neigh   | 27.229     | 27.354     | 27.479     |   2.4 | 38.46
Comm    | 4.054      | 4.1453     | 4.2366     |   4.5 |  5.83
Output  | 8.7023e-05 | 0.00012898 | 0.00017095 |   0.0 |  0.00
Modify  | 0.46082    | 0.47035    | 0.47988    |   1.4 |  0.66
Other   |            | 0.1373     |            |       |  0.19

Nlocal:    9826 ave 9837 max 9815 min
Histogram: 1 0 0 0 0 0 0 0 0 1
Nghost:    14869 ave 14886 max 14852 min
Histogram: 1 0 0 0 0 0 0 0 0 1
Neighs:    1.03e+06 ave 1.03203e+06 max 1.02798e+06 min
Histogram: 1 0 0 0 0 0 0 0 0 1

Total # of neighbors = 2060010
Ave neighs/atom = 104.824
Neighbor list builds = 495
Dangerous builds not checked
Setting up Verlet run ...
  Unit style    : metal
  Current step  : 220495
  Time step     : 0.001
Per MPI rank memory allocation (min/avg/max) = 12.46 | 12.46 | 12.46 Mbytes
Step Temp Press TotEng PotEng Enthalpy 
  220495    1500.0499     952.8031   -76326.978   -80137.242   -76184.574 
  230000    1501.3453   -726.40957   -76513.383   -80326.937   -76621.675 
Loop time of 1319.24 on 2 procs for 9505 steps with 19652 atoms

Performance: 0.623 ns/day, 38.554 hours/ns, 7.205 timesteps/s
95.6% CPU use with 2 MPI tasks x no OpenMP threads

MPI task timing breakdown:
Section |  min time  |  avg time  |  max time  |%varavg| %total
---------------------------------------------------------------
Pair    | 733.9      | 735.14     | 736.37     |   4.6 | 55.72
Neigh   | 524.39     | 526.39     | 528.39     |   8.7 | 39.90
Comm    | 45.757     | 46.554     | 47.351     |  11.7 |  3.53
Output  | 0.037121   | 0.037155   | 0.037188   |   0.0 |  0.00
Modify  | 8.7675     | 8.7775     | 8.7875     |   0.3 |  0.67
Other   |            | 2.35       |            |       |  0.18

Nlocal:    9826 ave 9827 max 9825 min
Histogram: 1 0 0 0 0 0 0 0 0 1
Nghost:    14866.5 ave 14873 max 14860 min
Histogram: 1 0 0 0 0 0 0 0 0 1
Neighs:    1.03251e+06 ave 1.03264e+06 max 1.03239e+06 min
Histogram: 1 0 0 0 0 0 0 0 0 1

Total # of neighbors = 2065029
Ave neighs/atom = 105.08
Neighbor list builds = 9505
Dangerous builds not checked
Setting up Verlet run ...
  Unit style    : metal
  Current step  : 230000
  Time step     : 0.001
Per MPI rank memory allocation (min/avg/max) = 12.46 | 12.46 | 12.46 Mbytes
Step Temp Press TotEng PotEng Enthalpy 
  230000    1501.3453   -726.40957   -76513.383   -80326.937   -76621.675 
  230495    1466.9428    146.87814   -76659.453   -80385.621   -76637.587 
Loop time of 69.5758 on 2 procs for 495 steps with 19652 atoms

Performance: 0.615 ns/day, 39.044 hours/ns, 7.115 timesteps/s
95.0% CPU use with 2 MPI tasks x no OpenMP threads

MPI task timing breakdown:
Section |  min time  |  avg time  |  max time  |%varavg| %total
---------------------------------------------------------------
Pair    | 38.339     | 38.82      | 39.302     |   7.7 | 55.80
Neigh   | 27.373     | 27.578     | 27.783     |   3.9 | 39.64
Comm    | 1.8245     | 2.506      | 3.1875     |  43.0 |  3.60
Output  | 9.2983e-05 | 0.00013459 | 0.00017619 |   0.0 |  0.00
Modify  | 0.53333    | 0.54584    | 0.55834    |   1.7 |  0.78
Other   |            | 0.1254     |            |       |  0.18

Nlocal:    9826 ave 9829 max 9823 min
Histogram: 1 0 0 0 0 0 0 0 0 1
Nghost:    14866.5 ave 14874 max 14859 min
Histogram: 1 0 0 0 0 0 0 0 0 1
Neighs:    1.03416e+06 ave 1.0344e+06 max 1.03393e+06 min
Histogram: 1 0 0 0 0 0 0 0 0 1

Total # of neighbors = 2068325
Ave neighs/atom = 105.248
Neighbor list builds = 495
Dangerous builds not checked
Setting up Verlet run ...
  Unit style    : metal
  Current step  : 230495
  Time step     : 0.001
Per MPI rank memory allocation (min/avg/max) = 12.46 | 12.46 | 12.46 Mbytes
Step Temp Press TotEng PotEng Enthalpy 
  230495    1466.9428    146.87814   -76659.453   -80385.621   -76637.587 
  240000    1452.4687    3449.9372   -76783.548   -80472.951   -76271.937 
Loop time of 1286.78 on 2 procs for 9505 steps with 19652 atoms

Performance: 0.638 ns/day, 37.605 hours/ns, 7.387 timesteps/s
97.2% CPU use with 2 MPI tasks x no OpenMP threads

MPI task timing breakdown:
Section |  min time  |  avg time  |  max time  |%varavg| %total
---------------------------------------------------------------
Pair    | 712.64     | 716.56     | 720.49     |  14.7 | 55.69
Neigh   | 517.26     | 521.24     | 525.21     |  17.4 | 40.51
Comm    | 37.767     | 37.839     | 37.91      |   1.2 |  2.94
Output  | 0.068449   | 0.068493   | 0.068537   |   0.0 |  0.01
Modify  | 8.6783     | 8.7112     | 8.7441     |   1.1 |  0.68
Other   |            | 2.36       |            |       |  0.18

Nlocal:    9826 ave 9835 max 9817 min
Histogram: 1 0 0 0 0 0 0 0 0 1
Nghost:    14937 ave 14976 max 14898 min
Histogram: 1 0 0 0 0 0 0 0 0 1
Neighs:    1.03816e+06 ave 1.03913e+06 max 1.03718e+06 min
Histogram: 1 0 0 0 0 0 0 0 0 1

Total # of neighbors = 2076315
Ave neighs/atom = 105.654
Neighbor list builds = 9505
Dangerous builds not checked
Setting up Verlet run ...
  Unit style    : metal
  Current step  : 240000
  Time step     : 0.001
Per MPI rank memory allocation (min/avg/max) = 12.46 | 12.46 | 12.46 Mbytes
Step Temp Press TotEng PotEng Enthalpy 
  240000    1452.4687    3449.9372   -76783.548   -80472.951   -76271.937 
  240495    1421.8964   -691.70944   -76967.188   -80578.934   -77069.859 
Loop time of 59.7678 on 2 procs for 495 steps with 19652 atoms

Performance: 0.716 ns/day, 33.540 hours/ns, 8.282 timesteps/s
98.9% CPU use with 2 MPI tasks x no OpenMP threads

MPI task timing breakdown:
Section |  min time  |  avg time  |  max time  |%varavg| %total
---------------------------------------------------------------
Pair    | 32.958     | 33.22      | 33.481     |   4.5 | 55.58
Neigh   | 24.086     | 24.589     | 25.091     |  10.1 | 41.14
Comm    | 1.1799     | 1.4354     | 1.6908     |  21.3 |  2.40
Output  | 8.9884e-05 | 0.00013745 | 0.00018501 |   0.0 |  0.00
Modify  | 0.3975     | 0.41026    | 0.42302    |   2.0 |  0.69
Other   |            | 0.1136     |            |       |  0.19

Nlocal:    9826 ave 9840 max 9812 min
Histogram: 1 0 0 0 0 0 0 0 0 1
Nghost:    14918 ave 14933 max 14903 min
Histogram: 1 0 0 0 0 0 0 0 0 1
Neighs:    1.03752e+06 ave 1.04044e+06 max 1.03459e+06 min
Histogram: 1 0 0 0 0 0 0 0 0 1

Total # of neighbors = 2075034
Ave neighs/atom = 105.589
Neighbor list builds = 495
Dangerous builds not checked
Setting up Verlet run ...
  Unit style    : metal
  Current step  : 240495
  Time step     : 0.001
Per MPI rank memory allocation (min/avg/max) = 12.46 | 12.46 | 12.46 Mbytes
Step Temp Press TotEng PotEng Enthalpy 
  240495    1421.8964   -691.70944   -76967.188   -80578.934   -77069.859 
  250000    1397.3666    777.23044   -77187.519   -80736.957   -77072.618 
Loop time of 1214.35 on 2 procs for 9505 steps with 19652 atoms

Performance: 0.676 ns/day, 35.489 hours/ns, 7.827 timesteps/s
99.5% CPU use with 2 MPI tasks x no OpenMP threads

MPI task timing breakdown:
Section |  min time  |  avg time  |  max time  |%varavg| %total
---------------------------------------------------------------
Pair    | 673.3      | 674.71     | 676.11     |   5.4 | 55.56
Neigh   | 496.8      | 496.92     | 497.03     |   0.5 | 40.92
Comm    | 31.067     | 32.332     | 33.597     |  22.3 |  2.66
Output  | 0.033916   | 0.033953   | 0.03399    |   0.0 |  0.00
Modify  | 8.151      | 8.1678     | 8.1845     |   0.6 |  0.67
Other   |            | 2.196      |            |       |  0.18

Nlocal:    9826 ave 9843 max 9809 min
Histogram: 1 0 0 0 0 0 0 0 0 1
Nghost:    14925 ave 14937 max 14913 min
Histogram: 1 0 0 0 0 0 0 0 0 1
Neighs:    1.04169e+06 ave 1.04347e+06 max 1.03992e+06 min
Histogram: 1 0 0 0 0 0 0 0 0 1

Total # of neighbors = 2083383
Ave neighs/atom = 106.014
Neighbor list builds = 9505
Dangerous builds not checked
Setting up Verlet run ...
  Unit style    : metal
  Current step  : 250000
  Time step     : 0.001
Per MPI rank memory allocation (min/avg/max) = 12.46 | 12.46 | 12.46 Mbytes
Step Temp Press TotEng PotEng Enthalpy 
  250000    1397.3666    777.23044   -77187.519   -80736.957   -77072.618 
  250495     1371.828   -1140.4289   -77343.969   -80828.537   -77512.503 
Loop time of 60.5887 on 2 procs for 495 steps with 19652 atoms

Performance: 0.706 ns/day, 34.000 hours/ns, 8.170 timesteps/s
99.9% CPU use with 2 MPI tasks x no OpenMP threads

MPI task timing breakdown:
Section |  min time  |  avg time  |  max time  |%varavg| %total
---------------------------------------------------------------
Pair    | 33.712     | 33.885     | 34.058     |   3.0 | 55.93
Neigh   | 24.727     | 24.813     | 24.898     |   1.7 | 40.95
Comm    | 1.2714     | 1.359      | 1.4466     |   7.5 |  2.24
Output  | 9.7036e-05 | 0.00013399 | 0.00017095 |   0.0 |  0.00
Modify  | 0.41821    | 0.41838    | 0.41855    |   0.0 |  0.69
Other   |            | 0.1134     |            |       |  0.19

Nlocal:    9826 ave 9828 max 9824 min
Histogram: 1 0 0 0 0 0 0 0 0 1
Nghost:    14914.5 ave 14932 max 14897 min
Histogram: 1 0 0 0 0 0 0 0 0 1
Neighs:    1.04202e+06 ave 1.04219e+06 max 1.04185e+06 min
Histogram: 1 0 0 0 0 0 0 0 0 1

Total # of neighbors = 2084040
Ave neighs/atom = 106.047
Neighbor list builds = 495
Dangerous builds not checked
Setting up Verlet run ...
  Unit style    : metal
  Current step  : 250495
  Time step     : 0.001
Per MPI rank memory allocation (min/avg/max) = 12.46 | 12.46 | 12.46 Mbytes
Step Temp Press TotEng PotEng Enthalpy 
  250495     1371.828   -1140.4289   -77343.969   -80828.537   -77512.503 
  260000    1349.9522   -383.05693   -77454.873   -80883.874   -77511.399 
Loop time of 1175.25 on 2 procs for 9505 steps with 19652 atoms

Performance: 0.699 ns/day, 34.346 hours/ns, 8.088 timesteps/s
98.4% CPU use with 2 MPI tasks x no OpenMP threads

MPI task timing breakdown:
Section |  min time  |  avg time  |  max time  |%varavg| %total
---------------------------------------------------------------
Pair    | 648.01     | 649.68     | 651.36     |   6.6 | 55.28
Neigh   | 466.14     | 466.2      | 466.25     |   0.3 | 39.67
Comm    | 47.446     | 49.08      | 50.715     |  23.3 |  4.18
Output  | 0.036743   | 0.03677    | 0.036797   |   0.0 |  0.00
Modify  | 8.1451     | 8.1632     | 8.1812     |   0.6 |  0.69
Other   |            | 2.093      |            |       |  0.18

Nlocal:    9826 ave 9842 max 9810 min
Histogram: 1 0 0 0 0 0 0 0 0 1
Nghost:    14933.5 ave 14956 max 14911 min
Histogram: 1 0 0 0 0 0 0 0 0 1
Neighs:    1.0435e+06 ave 1.04596e+06 max 1.04104e+06 min
Histogram: 1 0 0 0 0 0 0 0 0 1

Total # of neighbors = 2086994
Ave neighs/atom = 106.198
Neighbor list builds = 9505
Dangerous builds not checked
Setting up Verlet run ...
  Unit style    : metal
  Current step  : 260000
  Time step     : 0.001
Per MPI rank memory allocation (min/avg/max) = 12.46 | 12.46 | 12.47 Mbytes
Step Temp Press TotEng PotEng Enthalpy 
  260000    1349.9522   -383.05693   -77454.873   -80883.874   -77511.399 
  260495    1320.6688    -708.9474   -77677.514   -81032.133   -77781.883 
Loop time of 60.7043 on 2 procs for 495 steps with 19652 atoms

Performance: 0.705 ns/day, 34.065 hours/ns, 8.154 timesteps/s
99.3% CPU use with 2 MPI tasks x no OpenMP threads

MPI task timing breakdown:
Section |  min time  |  avg time  |  max time  |%varavg| %total
---------------------------------------------------------------
Pair    | 33.596     | 33.668     | 33.741     |   1.3 | 55.46
Neigh   | 23.648     | 23.968     | 24.287     |   6.5 | 39.48
Comm    | 2.3006     | 2.5496     | 2.7987     |  15.6 |  4.20
Output  | 9.1076e-05 | 0.00013208 | 0.00017309 |   0.0 |  0.00
Modify  | 0.40389    | 0.40455    | 0.40521    |   0.1 |  0.67
Other   |            | 0.1139     |            |       |  0.19

Nlocal:    9826 ave 9829 max 9823 min
Histogram: 1 0 0 0 0 0 0 0 0 1
Nghost:    14969.5 ave 14971 max 14968 min
Histogram: 1 0 0 0 0 0 0 0 0 1
Neighs:    1.04618e+06 ave 1.04652e+06 max 1.04584e+06 min
Histogram: 1 0 0 0 0 0 0 0 0 1

Total # of neighbors = 2092358
Ave neighs/atom = 106.47
Neighbor list builds = 495
Dangerous builds not checked
Setting up Verlet run ...
  Unit style    : metal
  Current step  : 260495
  Time step     : 0.001
Per MPI rank memory allocation (min/avg/max) = 12.46 | 12.46 | 12.47 Mbytes
Step Temp Press TotEng PotEng Enthalpy 
  260495    1320.6688    -708.9474   -77677.514   -81032.133   -77781.883 
  270000    1296.1016    218.16638   -77832.239   -81124.455   -77800.194 
Loop time of 1155.85 on 2 procs for 9505 steps with 19652 atoms

Performance: 0.710 ns/day, 33.779 hours/ns, 8.223 timesteps/s
98.7% CPU use with 2 MPI tasks x no OpenMP threads

MPI task timing breakdown:
Section |  min time  |  avg time  |  max time  |%varavg| %total
---------------------------------------------------------------
Pair    | 642.36     | 643.28     | 644.21     |   3.6 | 55.65
Neigh   | 455.45     | 455.57     | 455.68     |   0.5 | 39.41
Comm    | 45.874     | 46.702     | 47.53      |  12.1 |  4.04
Output  | 0.036412   | 0.036451   | 0.03649    |   0.0 |  0.00
Modify  | 7.9962     | 8.2056     | 8.415      |   7.3 |  0.71
Other   |            | 2.061      |            |       |  0.18

Nlocal:    9826 ave 9847 max 9805 min
Histogram: 1 0 0 0 0 0 0 0 0 1
Nghost:    15030 ave 15053 max 15007 min
Histogram: 1 0 0 0 0 0 0 0 0 1
Neighs:    1.04892e+06 ave 1.05089e+06 max 1.04695e+06 min
Histogram: 1 0 0 0 0 0 0 0 0 1

Total # of neighbors = 2097847
Ave neighs/atom = 106.75
Neighbor list builds = 9505
Dangerous builds not checked
Setting up Verlet run ...
  Unit style    : metal
  Current step  : 270000
  Time step     : 0.001
Per MPI rank memory allocation (min/avg/max) = 12.46 | 12.47 | 12.47 Mbytes
Step Temp Press TotEng PotEng Enthalpy 
  270000    1296.1016    218.16638   -77832.239   -81124.455   -77800.194 
  270495    1260.2599   -1185.4476   -78027.188   -81228.363   -78201.062 
Loop time of 63.4822 on 2 procs for 495 steps with 19652 atoms

Performance: 0.674 ns/day, 35.624 hours/ns, 7.797 timesteps/s
94.6% CPU use with 2 MPI tasks x no OpenMP threads

MPI task timing breakdown:
Section |  min time  |  avg time  |  max time  |%varavg| %total
---------------------------------------------------------------
Pair    | 35.424     | 35.561     | 35.697     |   2.3 | 56.02
Neigh   | 23.621     | 23.643     | 23.666     |   0.5 | 37.24
Comm    | 3.1172     | 3.2316     | 3.3459     |   6.4 |  5.09
Output  | 9.6083e-05 | 0.00010908 | 0.00012207 |   0.0 |  0.00
Modify  | 0.93757    | 0.93819    | 0.93881    |   0.1 |  1.48
Other   |            | 0.1082     |            |       |  0.17

Nlocal:    9826 ave 9841 max 9811 min
Histogram: 1 0 0 0 0 0 0 0 0 1
Nghost:    14963.5 ave 15002 max 14925 min
Histogram: 1 0 0 0 0 0 0 0 0 1
Neighs:    1.05005e+06 ave 1.05217e+06 max 1.04793e+06 min
Histogram: 1 0 0 0 0 0 0 0 0 1

Total # of neighbors = 2100096
Ave neighs/atom = 106.864
Neighbor list builds = 495
Dangerous builds not checked
Setting up Verlet run ...
  Unit style    : metal
  Current step  : 270495
  Time step     : 0.001
Per MPI rank memory allocation (min/avg/max) = 12.46 | 12.47 | 12.47 Mbytes
Step Temp Press TotEng PotEng Enthalpy 
  270495    1260.2599   -1185.4476   -78027.188   -81228.363   -78201.062 
  280000    1266.7984    2169.2375   -78124.555   -81342.339   -77807.522 
Loop time of 1167.61 on 2 procs for 9505 steps with 19652 atoms

Performance: 0.703 ns/day, 34.123 hours/ns, 8.141 timesteps/s
98.9% CPU use with 2 MPI tasks x no OpenMP threads

MPI task timing breakdown:
Section |  min time  |  avg time  |  max time  |%varavg| %total
---------------------------------------------------------------
Pair    | 648.72     | 651.46     | 654.21     |  10.8 | 55.79
Neigh   | 456.65     | 457.01     | 457.36     |   1.6 | 39.14
Comm    | 45.437     | 48.566     | 51.696     |  44.9 |  4.16
Output  | 0.036358   | 0.036386   | 0.036414   |   0.0 |  0.00
Modify  | 8.4121     | 8.4395     | 8.4669     |   0.9 |  0.72
Other   |            | 2.102      |            |       |  0.18

Nlocal:    9826 ave 9833 max 9819 min
Histogram: 1 0 0 0 0 0 0 0 0 1
Nghost:    14972 ave 14979 max 14965 min
Histogram: 1 0 0 0 0 0 0 0 0 1
Neighs:    1.05424e+06 ave 1.05573e+06 max 1.05276e+06 min
Histogram: 1 0 0 0 0 0 0 0 0 1

Total # of neighbors = 2108490
Ave neighs/atom = 107.291
Neighbor list builds = 9505
Dangerous builds not checked
Setting up Verlet run ...
  Unit style    : metal
  Current step  : 280000
  Time step     : 0.001
Per MPI rank memory allocation (min/avg/max) = 12.47 | 12.47 | 12.47 Mbytes
Step Temp Press TotEng PotEng Enthalpy 
  280000    1266.7984    2169.2375   -78124.555   -81342.339   -77807.522 
  280495    1218.2441   -1473.6942   -78380.142   -81474.592   -78595.469 
Loop time of 61.2299 on 2 procs for 495 steps with 19652 atoms

Performance: 0.698 ns/day, 34.360 hours/ns, 8.084 timesteps/s
99.0% CPU use with 2 MPI tasks x no OpenMP threads

MPI task timing breakdown:
Section |  min time  |  avg time  |  max time  |%varavg| %total
---------------------------------------------------------------
Pair    | 34.424     | 34.495     | 34.566     |   1.2 | 56.34
Neigh   | 23.888     | 24.163     | 24.438     |   5.6 | 39.46
Comm    | 1.6915     | 2.0422     | 2.3929     |  24.5 |  3.34
Output  | 0.00011301 | 0.00014853 | 0.00018406 |   0.0 |  0.00
Modify  | 0.41085    | 0.41473    | 0.4186     |   0.6 |  0.68
Other   |            | 0.1152     |            |       |  0.19

Nlocal:    9826 ave 9841 max 9811 min
Histogram: 1 0 0 0 0 0 0 0 0 1
Nghost:    15005.5 ave 15017 max 14994 min
Histogram: 1 0 0 0 0 0 0 0 0 1
Neighs:    1.0544e+06 ave 1.05582e+06 max 1.05299e+06 min
Histogram: 1 0 0 0 0 0 0 0 0 1

Total # of neighbors = 2108809
Ave neighs/atom = 107.308
Neighbor list builds = 495
Dangerous builds not checked
Setting up Verlet run ...
  Unit style    : metal
  Current step  : 280495
  Time step     : 0.001
Per MPI rank memory allocation (min/avg/max) = 12.47 | 12.47 | 12.47 Mbytes
Step Temp Press TotEng PotEng Enthalpy 
  280495    1218.2441   -1473.6942   -78380.142   -81474.592   -78595.469 
  290000    1202.4955    1309.8139   -78514.492   -81568.941   -78323.787 
Loop time of 1197.81 on 2 procs for 9505 steps with 19652 atoms

Performance: 0.686 ns/day, 35.005 hours/ns, 7.935 timesteps/s
99.5% CPU use with 2 MPI tasks x no OpenMP threads

MPI task timing breakdown:
Section |  min time  |  avg time  |  max time  |%varavg| %total
---------------------------------------------------------------
Pair    | 671.71     | 671.96     | 672.21     |   1.0 | 56.10
Neigh   | 472.95     | 473.68     | 474.42     |   3.4 | 39.55
Comm    | 40.318     | 41.306     | 42.294     |  15.4 |  3.45
Output  | 0.037709   | 0.037742   | 0.037776   |   0.0 |  0.00
Modify  | 8.5731     | 8.5928     | 8.6124     |   0.7 |  0.72
Other   |            | 2.227      |            |       |  0.19

Nlocal:    9826 ave 9858 max 9794 min
Histogram: 1 0 0 0 0 0 0 0 0 1
Nghost:    14995.5 ave 15001 max 14990 min
Histogram: 1 0 0 0 0 0 0 0 0 1
Neighs:    1.05834e+06 ave 1.06317e+06 max 1.0535e+06 min
Histogram: 1 0 0 0 0 0 0 0 0 1

Total # of neighbors = 2116676
Ave neighs/atom = 107.708
Neighbor list builds = 9505
Dangerous builds not checked
Setting up Verlet run ...
  Unit style    : metal
  Current step  : 290000
  Time step     : 0.001
Per MPI rank memory allocation (min/avg/max) = 12.47 | 12.47 | 12.47 Mbytes
Step Temp Press TotEng PotEng Enthalpy 
  290000    1202.4955    1309.8139   -78514.492   -81568.941   -78323.787 
  290495     1164.442   -1461.7648   -78731.561    -81689.35   -78944.282 
Loop time of 60.4374 on 2 procs for 495 steps with 19652 atoms

Performance: 0.708 ns/day, 33.915 hours/ns, 8.190 timesteps/s
99.3% CPU use with 2 MPI tasks x no OpenMP threads

MPI task timing breakdown:
Section |  min time  |  avg time  |  max time  |%varavg| %total
---------------------------------------------------------------
Pair    | 33.627     | 33.815     | 34.004     |   3.2 | 55.95
Neigh   | 23.535     | 23.758     | 23.981     |   4.6 | 39.31
Comm    | 2.3095     | 2.3465     | 2.3835     |   2.4 |  3.88
Output  | 9.8944e-05 | 0.00015044 | 0.00020194 |   0.0 |  0.00
Modify  | 0.4033     | 0.40571    | 0.40811    |   0.4 |  0.67
Other   |            | 0.1116     |            |       |  0.18

Nlocal:    9826 ave 9833 max 9819 min
Histogram: 1 0 0 0 0 0 0 0 0 1
Nghost:    15022 ave 15029 max 15015 min
Histogram: 1 0 0 0 0 0 0 0 0 1
Neighs:    1.059e+06 ave 1.06044e+06 max 1.05756e+06 min
Histogram: 1 0 0 0 0 0 0 0 0 1

Total # of neighbors = 2118001
Ave neighs/atom = 107.775
Neighbor list builds = 495
Dangerous builds not checked
Setting up Verlet run ...
  Unit style    : metal
  Current step  : 290495
  Time step     : 0.001
Per MPI rank memory allocation (min/avg/max) = 12.47 | 12.47 | 12.47 Mbytes
Step Temp Press TotEng PotEng Enthalpy 
  290495     1164.442   -1461.7648   -78731.561    -81689.35   -78944.282 
  300000    1148.4229   -1935.0611   -78910.623   -81827.722   -79191.664 
Loop time of 1183.41 on 2 procs for 9505 steps with 19652 atoms

Performance: 0.694 ns/day, 34.584 hours/ns, 8.032 timesteps/s
98.6% CPU use with 2 MPI tasks x no OpenMP threads

MPI task timing breakdown:
Section |  min time  |  avg time  |  max time  |%varavg| %total
---------------------------------------------------------------
Pair    | 663.81     | 664.49     | 665.18     |   2.7 | 56.15
Neigh   | 462.37     | 463.22     | 464.06     |   3.9 | 39.14
Comm    | 45.507     | 45.688     | 45.87      |   2.7 |  3.86
Output  | 0.036593   | 0.036631   | 0.036668   |   0.0 |  0.00
Modify  | 7.8107     | 7.8179     | 7.825      |   0.3 |  0.66
Other   |            | 2.159      |            |       |  0.18

Nlocal:    9826 ave 9836 max 9816 min
Histogram: 1 0 0 0 0 0 0 0 0 1
Nghost:    15053 ave 15067 max 15039 min
Histogram: 1 0 0 0 0 0 0 0 0 1
Neighs:    1.06122e+06 ave 1.06246e+06 max 1.05999e+06 min
[...]
Dangerous builds not checked
Setting up Verlet run ...
  Unit style    : metal
  Current step  : 440000
  Time step     : 0.001
Per MPI rank memory allocation (min/avg/max) = 12.47 | 12.47 | 12.47 Mbytes
Step Temp Press TotEng PotEng Enthalpy 
  440000    448.63472    -864.3515   -83532.785   -84672.358   -83652.255 
  440495    420.15792    22.743644   -83677.601   -84744.841   -83674.463 
Loop time of 69.3528 on 2 procs for 495 steps with 19652 atoms

Performance: 0.617 ns/day, 38.919 hours/ns, 7.137 timesteps/s
98.0% CPU use with 2 MPI tasks x no OpenMP threads

MPI task timing breakdown:
Section |  min time  |  avg time  |  max time  |%varavg| %total
---------------------------------------------------------------
Pair    | 40.04      | 40.435     | 40.829     |   6.2 | 58.30
Neigh   | 25.439     | 25.608     | 25.778     |   3.3 | 36.92
Comm    | 2.417      | 2.6402     | 2.8635     |  13.7 |  3.81
Output  | 9.9182e-05 | 0.00014508 | 0.00019097 |   0.0 |  0.00
Modify  | 0.50818    | 0.51079    | 0.5134     |   0.4 |  0.74
Other   |            | 0.1588     |            |       |  0.23

Nlocal:    9826 ave 9829 max 9823 min
Histogram: 1 0 0 0 0 0 0 0 0 1
Nghost:    15349 ave 15379 max 15319 min
Histogram: 1 0 0 0 0 0 0 0 0 1
Neighs:    1.12474e+06 ave 1.12512e+06 max 1.12437e+06 min
Histogram: 1 0 0 0 0 0 0 0 0 1

Total # of neighbors = 2249488
Ave neighs/atom = 114.466
Neighbor list builds = 495
Dangerous builds not checked
Setting up Verlet run ...
  Unit style    : metal
  Current step  : 440495
  Time step     : 0.001
Per MPI rank memory allocation (min/avg/max) = 12.47 | 12.47 | 12.47 Mbytes
Step Temp Press TotEng PotEng Enthalpy 
  440495    420.15792    22.743644   -83677.601   -84744.841   -83674.463 
  450000    401.08807   -193.05685   -83803.639   -84822.439   -83830.247 
Loop time of 1351.66 on 2 procs for 9505 steps with 19652 atoms

Performance: 0.608 ns/day, 39.501 hours/ns, 7.032 timesteps/s
95.5% CPU use with 2 MPI tasks x no OpenMP threads

MPI task timing breakdown:
Section |  min time  |  avg time  |  max time  |%varavg| %total
---------------------------------------------------------------
Pair    | 769.94     | 774.95     | 779.97     |  18.0 | 57.33
Neigh   | 496.59     | 497.4      | 498.2      |   3.6 | 36.80
Comm    | 60.008     | 64.253     | 68.498     |  53.0 |  4.75
Output  | 0.03974    | 0.039798   | 0.039855   |   0.0 |  0.00
Modify  | 12.215     | 12.246     | 12.278     |   0.9 |  0.91
Other   |            | 2.77       |            |       |  0.20

Nlocal:    9826 ave 9827 max 9825 min
Histogram: 1 0 0 0 0 0 0 0 0 1
Nghost:    15388.5 ave 15412 max 15365 min
Histogram: 1 0 0 0 0 0 0 0 0 1
Neighs:    1.1263e+06 ave 1.1274e+06 max 1.1252e+06 min
Histogram: 1 0 0 0 0 0 0 0 0 1

Total # of neighbors = 2252597
Ave neighs/atom = 114.624
Neighbor list builds = 9505
Dangerous builds not checked
Setting up Verlet run ...
  Unit style    : metal
  Current step  : 450000
  Time step     : 0.001
Per MPI rank memory allocation (min/avg/max) = 12.47 | 12.47 | 12.47 Mbytes
Step Temp Press TotEng PotEng Enthalpy 
  450000    401.08807   -193.05685   -83803.639   -84822.439   -83830.247 
  450495    372.41805    78.178045   -83951.711   -84897.687   -83940.952 
Loop time of 68.9694 on 2 procs for 495 steps with 19652 atoms

Performance: 0.620 ns/day, 38.703 hours/ns, 7.177 timesteps/s
96.8% CPU use with 2 MPI tasks x no OpenMP threads

MPI task timing breakdown:
Section |  min time  |  avg time  |  max time  |%varavg| %total
---------------------------------------------------------------
Pair    | 39.383     | 39.589     | 39.796     |   3.3 | 57.40
Neigh   | 24.988     | 25.522     | 26.055     |  10.6 | 37.00
Comm    | 2.878      | 3.2118     | 3.5456     |  18.6 |  4.66
Output  | 0.00011706 | 0.00017452 | 0.00023198 |   0.0 |  0.00
Modify  | 0.48966    | 0.49187    | 0.49408    |   0.3 |  0.71
Other   |            | 0.1545     |            |       |  0.22

Nlocal:    9826 ave 9830 max 9822 min
Histogram: 1 0 0 0 0 0 0 0 0 1
Nghost:    15385.5 ave 15386 max 15385 min
Histogram: 1 0 0 0 0 0 0 0 0 1
Neighs:    1.12829e+06 ave 1.12956e+06 max 1.12702e+06 min
Histogram: 1 0 0 0 0 0 0 0 0 1

Total # of neighbors = 2256589
Ave neighs/atom = 114.827
Neighbor list builds = 495
Dangerous builds not checked
Setting up Verlet run ...
  Unit style    : metal
  Current step  : 450495
  Time step     : 0.001
Per MPI rank memory allocation (min/avg/max) = 12.47 | 12.47 | 12.47 Mbytes
Step Temp Press TotEng PotEng Enthalpy 
  450495    372.41805    78.178045   -83951.711   -84897.687   -83940.952 
  460000    347.75729    268.62844   -84079.088   -84962.423   -84042.158 
Loop time of 1548.57 on 2 procs for 9505 steps with 19652 atoms

Performance: 0.530 ns/day, 45.256 hours/ns, 6.138 timesteps/s
88.5% CPU use with 2 MPI tasks x no OpenMP threads

MPI task timing breakdown:
Section |  min time  |  avg time  |  max time  |%varavg| %total
---------------------------------------------------------------
Pair    | 891.98     | 893.86     | 895.75     |   6.3 | 57.72
Neigh   | 544.73     | 545.7      | 546.66     |   4.1 | 35.24
Comm    | 92.106     | 92.963     | 93.82      |   8.9 |  6.00
Output  | 0.038263   | 0.038306   | 0.038348   |   0.0 |  0.00
Modify  | 12.74      | 12.74      | 12.741     |   0.0 |  0.82
Other   |            | 3.271      |            |       |  0.21

Nlocal:    9826 ave 9836 max 9816 min
Histogram: 1 0 0 0 0 0 0 0 0 1
Nghost:    15380 ave 15382 max 15378 min
Histogram: 1 0 0 0 0 0 0 0 0 1
Neighs:    1.12985e+06 ave 1.13228e+06 max 1.12743e+06 min
Histogram: 1 0 0 0 0 0 0 0 0 1

Total # of neighbors = 2259706
Ave neighs/atom = 114.986
Neighbor list builds = 9505
Dangerous builds not checked
Setting up Verlet run ...
  Unit style    : metal
  Current step  : 460000
  Time step     : 0.001
Per MPI rank memory allocation (min/avg/max) = 12.47 | 12.47 | 12.47 Mbytes
Step Temp Press TotEng PotEng Enthalpy 
  460000    347.75729    268.62844   -84079.088   -84962.423   -84042.158 
  460495    325.05949    836.58857   -84218.202   -85043.883   -84103.387 
Loop time of 86.1774 on 2 procs for 495 steps with 19652 atoms

Performance: 0.496 ns/day, 48.360 hours/ns, 5.744 timesteps/s
83.4% CPU use with 2 MPI tasks x no OpenMP threads

MPI task timing breakdown:
Section |  min time  |  avg time  |  max time  |%varavg| %total
---------------------------------------------------------------
Pair    | 48.857     | 49.501     | 50.144     |   9.1 | 57.44
Neigh   | 29.836     | 29.913     | 29.989     |   1.4 | 34.71
Comm    | 5.2107     | 5.9394     | 6.6682     |  29.9 |  6.89
Output  | 0.00015306 | 0.00022805 | 0.00030303 |   0.0 |  0.00
Modify  | 0.65318    | 0.65609    | 0.65901    |   0.4 |  0.76
Other   |            | 0.1681     |            |       |  0.20

Nlocal:    9826 ave 9830 max 9822 min
Histogram: 1 0 0 0 0 0 0 0 0 1
Nghost:    15400.5 ave 15402 max 15399 min
Histogram: 1 0 0 0 0 0 0 0 0 1
Neighs:    1.13165e+06 ave 1.13247e+06 max 1.13084e+06 min
Histogram: 1 0 0 0 0 0 0 0 0 1

Total # of neighbors = 2263309
Ave neighs/atom = 115.169
Neighbor list builds = 495
Dangerous builds not checked
Setting up Verlet run ...
  Unit style    : metal
  Current step  : 460495
  Time step     : 0.001
Per MPI rank memory allocation (min/avg/max) = 12.47 | 12.47 | 12.47 Mbytes
Step Temp Press TotEng PotEng Enthalpy 
  460495    325.05949    836.58857   -84218.202   -85043.883   -84103.387 
  470000    300.88223    1396.8263   -84336.418   -85100.687   -84144.956 
Loop time of 1761.25 on 2 procs for 9505 steps with 19652 atoms

Performance: 0.466 ns/day, 51.472 hours/ns, 5.397 timesteps/s
80.7% CPU use with 2 MPI tasks x no OpenMP threads

MPI task timing breakdown:
Section |  min time  |  avg time  |  max time  |%varavg| %total
---------------------------------------------------------------
Pair    | 1010.5     | 1014.4     | 1018.3     |  12.3 | 57.59
Neigh   | 601.67     | 602.25     | 602.83     |   2.3 | 34.19
Comm    | 123.62     | 126.96     | 130.29     |  29.6 |  7.21
Output  | 0.067657   | 0.0677     | 0.067743   |   0.0 |  0.00
Modify  | 14.175     | 14.212     | 14.248     |   1.0 |  0.81
Other   |            | 3.393      |            |       |  0.19

Nlocal:    9826 ave 9831 max 9821 min
Histogram: 1 0 0 0 0 0 0 0 0 1
Nghost:    15419.5 ave 15427 max 15412 min
Histogram: 1 0 0 0 0 0 0 0 0 1
Neighs:    1.13351e+06 ave 1.13362e+06 max 1.1334e+06 min
Histogram: 1 0 0 0 0 0 0 0 0 1

Total # of neighbors = 2267024
Ave neighs/atom = 115.358
Neighbor list builds = 9505
Dangerous builds not checked
Setting up Verlet run ...
  Unit style    : metal
  Current step  : 470000
  Time step     : 0.001
Per MPI rank memory allocation (min/avg/max) = 12.47 | 12.47 | 12.47 Mbytes
Step Temp Press TotEng PotEng Enthalpy 
  470000    300.88223    1396.8263   -84336.418   -85100.687   -84144.956 
  470495    273.67443     1279.075   -84475.887   -85171.045   -84300.751 
Loop time of 91.0777 on 2 procs for 495 steps with 19652 atoms

Performance: 0.470 ns/day, 51.110 hours/ns, 5.435 timesteps/s
81.7% CPU use with 2 MPI tasks x no OpenMP threads

MPI task timing breakdown:
Section |  min time  |  avg time  |  max time  |%varavg| %total
---------------------------------------------------------------
Pair    | 52.458     | 52.887     | 53.316     |   5.9 | 58.07
Neigh   | 31.036     | 31.095     | 31.153     |   1.0 | 34.14
Comm    | 5.7415     | 6.2145     | 6.6876     |  19.0 |  6.82
Output  | 0.00011206 | 0.00018406 | 0.00025606 |   0.0 |  0.00
Modify  | 0.71292    | 0.71296    | 0.713      |   0.0 |  0.78
Other   |            | 0.1686     |            |       |  0.19

Nlocal:    9826 ave 9832 max 9820 min
Histogram: 1 0 0 0 0 0 0 0 0 1
Nghost:    15413.5 ave 15436 max 15391 min
Histogram: 1 0 0 0 0 0 0 0 0 1
Neighs:    1.13472e+06 ave 1.13562e+06 max 1.13383e+06 min
Histogram: 1 0 0 0 0 0 0 0 0 1

Total # of neighbors = 2269447
Ave neighs/atom = 115.482
Neighbor list builds = 495
Dangerous builds not checked
Setting up Verlet run ...
  Unit style    : metal
  Current step  : 470495
  Time step     : 0.001
Per MPI rank memory allocation (min/avg/max) = 12.47 | 12.47 | 12.47 Mbytes
Step Temp Press TotEng PotEng Enthalpy 
  470495    273.67443     1279.075   -84475.887   -85171.045   -84300.751 
  480000    249.33735    -263.6819   -84599.398   -85232.737   -84635.494 
Loop time of 1683.21 on 2 procs for 9505 steps with 19652 atoms

Performance: 0.488 ns/day, 49.191 hours/ns, 5.647 timesteps/s
83.6% CPU use with 2 MPI tasks x no OpenMP threads

MPI task timing breakdown:
Section |  min time  |  avg time  |  max time  |%varavg| %total
---------------------------------------------------------------
Pair    | 967.72     | 969.46     | 971.21     |   5.6 | 57.60
Neigh   | 523.01     | 563.29     | 603.57     | 169.7 | 33.47
Comm    | 94.846     | 134.18     | 173.52     | 339.6 |  7.97
Output  | 0.040241   | 0.04028    | 0.040319   |   0.0 |  0.00
Modify  | 12.707     | 13.105     | 13.503     |  11.0 |  0.78
Other   |            | 3.128      |            |       |  0.19

Nlocal:    9826 ave 9827 max 9825 min
Histogram: 1 0 0 0 0 0 0 0 0 1
Nghost:    15416.5 ave 15417 max 15416 min
Histogram: 1 0 0 0 0 0 0 0 0 1
Neighs:    1.13522e+06 ave 1.13709e+06 max 1.13336e+06 min
Histogram: 1 0 0 0 0 0 0 0 0 1

Total # of neighbors = 2270449
Ave neighs/atom = 115.533
Neighbor list builds = 9505
Dangerous builds not checked
Setting up Verlet run ...
  Unit style    : metal
  Current step  : 480000
  Time step     : 0.001
Per MPI rank memory allocation (min/avg/max) = 12.47 | 12.47 | 12.47 Mbytes
Step Temp Press TotEng PotEng Enthalpy 
  480000    249.33735    -263.6819   -84599.398   -85232.737   -84635.494 
  480495    224.61771   -125.40767    -84732.06    -85302.61   -84749.207 
Loop time of 79.9438 on 2 procs for 495 steps with 19652 atoms

Performance: 0.535 ns/day, 44.862 hours/ns, 6.192 timesteps/s
87.8% CPU use with 2 MPI tasks x no OpenMP threads

MPI task timing breakdown:
Section |  min time  |  avg time  |  max time  |%varavg| %total
---------------------------------------------------------------
Pair    | 46.118     | 46.316     | 46.514     |   2.9 | 57.94
Neigh   | 27.609     | 28.101     | 28.593     |   9.3 | 35.15
Comm    | 4.0784     | 4.7986     | 5.5189     |  32.9 |  6.00
Output  | 0.00020099 | 0.00023496 | 0.00026894 |   0.0 |  0.00
Modify  | 0.57498    | 0.57762    | 0.58026    |   0.3 |  0.72
Other   |            | 0.1502     |            |       |  0.19

Nlocal:    9826 ave 9831 max 9821 min
Histogram: 1 0 0 0 0 0 0 0 0 1
Nghost:    15430 ave 15465 max 15395 min
Histogram: 1 0 0 0 0 0 0 0 0 1
Neighs:    1.1368e+06 ave 1.13716e+06 max 1.13644e+06 min
Histogram: 1 0 0 0 0 0 0 0 0 1

Total # of neighbors = 2273610
Ave neighs/atom = 115.694
Neighbor list builds = 495
Dangerous builds not checked
Setting up Verlet run ...
  Unit style    : metal
  Current step  : 480495
  Time step     : 0.001
Per MPI rank memory allocation (min/avg/max) = 12.47 | 12.47 | 12.47 Mbytes
Step Temp Press TotEng PotEng Enthalpy 
  480495    224.61771   -125.40767    -84732.06    -85302.61   -84749.207 
  490000    200.71179   -800.06028   -84851.268   -85361.094    -84960.59 
Loop time of 1289.26 on 2 procs for 9505 steps with 19652 atoms

Performance: 0.637 ns/day, 37.678 hours/ns, 7.372 timesteps/s
93.6% CPU use with 2 MPI tasks x no OpenMP threads

MPI task timing breakdown:
Section |  min time  |  avg time  |  max time  |%varavg| %total
---------------------------------------------------------------
Pair    | 739.49     | 741.39     | 743.3      |   7.0 | 57.51
Neigh   | 486.26     | 486.55     | 486.84     |   1.3 | 37.74
Comm    | 47.817     | 49.959     | 52.101     |  30.3 |  3.87
Output  | 0.037419   | 0.037452   | 0.037485   |   0.0 |  0.00
Modify  | 8.9216     | 8.9303     | 8.9389     |   0.3 |  0.69
Other   |            | 2.399      |            |       |  0.19

Nlocal:    9826 ave 9833 max 9819 min
Histogram: 1 0 0 0 0 0 0 0 0 1
Nghost:    15428.5 ave 15442 max 15415 min
Histogram: 1 0 0 0 0 0 0 0 0 1
Neighs:    1.13785e+06 ave 1.14028e+06 max 1.13542e+06 min
Histogram: 1 0 0 0 0 0 0 0 0 1

Total # of neighbors = 2275701
Ave neighs/atom = 115.8
Neighbor list builds = 9505
Dangerous builds not checked
Setting up Verlet run ...
  Unit style    : metal
  Current step  : 490000
  Time step     : 0.001
Per MPI rank memory allocation (min/avg/max) = 12.47 | 12.47 | 12.47 Mbytes
Step Temp Press TotEng PotEng Enthalpy 
  490000    200.71179   -800.06028   -84851.268   -85361.094    -84960.59 
  490495    176.60207    393.29781    -84982.14   -85430.725   -84928.499 
Loop time of 66.6279 on 2 procs for 495 steps with 19652 atoms

Performance: 0.642 ns/day, 37.389 hours/ns, 7.429 timesteps/s
92.8% CPU use with 2 MPI tasks x no OpenMP threads

MPI task timing breakdown:
Section |  min time  |  avg time  |  max time  |%varavg| %total
---------------------------------------------------------------
Pair    | 37.898     | 37.954     | 38.009     |   0.9 | 56.96
Neigh   | 24.549     | 25.194     | 25.84      |  12.9 | 37.81
Comm    | 2.1978     | 2.9021     | 3.6064     |  41.3 |  4.36
Output  | 0.00010705 | 0.00016809 | 0.00022912 |   0.0 |  0.00
Modify  | 0.44824    | 0.45259    | 0.45694    |   0.6 |  0.68
Other   |            | 0.1249     |            |       |  0.19

Nlocal:    9826 ave 9828 max 9824 min
Histogram: 1 0 0 0 0 0 0 0 0 1
Nghost:    15434.5 ave 15456 max 15413 min
Histogram: 1 0 0 0 0 0 0 0 0 1
Neighs:    1.14004e+06 ave 1.14108e+06 max 1.139e+06 min
Histogram: 1 0 0 0 0 0 0 0 0 1

Total # of neighbors = 2280082
Ave neighs/atom = 116.023
Neighbor list builds = 495
Dangerous builds not checked
Setting up Verlet run ...
  Unit style    : metal
  Current step  : 490495
  Time step     : 0.001
Per MPI rank memory allocation (min/avg/max) = 12.47 | 12.47 | 12.47 Mbytes
Step Temp Press TotEng PotEng Enthalpy 
  490495    176.60207    393.29781    -84982.14   -85430.725   -84928.499 
  500000    149.71102    1304.0893    -85113.39   -85493.669   -84935.793 
Loop time of 1568.21 on 2 procs for 9505 steps with 19652 atoms

Performance: 0.524 ns/day, 45.830 hours/ns, 6.061 timesteps/s
82.5% CPU use with 2 MPI tasks x no OpenMP threads

MPI task timing breakdown:
Section |  min time  |  avg time  |  max time  |%varavg| %total
---------------------------------------------------------------
Pair    | 906.23     | 907.63     | 909.03     |   4.7 | 57.88
Neigh   | 549.92     | 552.06     | 554.2      |   9.1 | 35.20
Comm    | 90.841     | 94.452     | 98.063     |  37.2 |  6.02
Output  | 0.042076   | 0.042161   | 0.042246   |   0.0 |  0.00
Modify  | 11.266     | 11.297     | 11.329     |   1.0 |  0.72
Other   |            | 2.725      |            |       |  0.17

Nlocal:    9826 ave 9828 max 9824 min
Histogram: 1 0 0 0 0 0 0 0 0 1
Nghost:    15442 ave 15443 max 15441 min
Histogram: 1 0 0 0 0 0 0 0 0 1
Neighs:    1.14209e+06 ave 1.14393e+06 max 1.14026e+06 min
Histogram: 1 0 0 0 0 0 0 0 0 1

Total # of neighbors = 2284189
Ave neighs/atom = 116.232
Neighbor list builds = 9505
Dangerous builds not checked
Setting up Verlet run ...
  Unit style    : metal
  Current step  : 500000
  Time step     : 0.001
Per MPI rank memory allocation (min/avg/max) = 12.47 | 12.47 | 12.47 Mbytes
Step Temp Press TotEng PotEng Enthalpy 
  500000    149.71102    1304.0893    -85113.39   -85493.669   -84935.793 
  500495    127.67336   -260.67568   -85233.013   -85557.315   -85268.507 
Loop time of 74.9042 on 2 procs for 495 steps with 19652 atoms

Performance: 0.571 ns/day, 42.034 hours/ns, 6.608 timesteps/s
86.8% CPU use with 2 MPI tasks x no OpenMP threads

MPI task timing breakdown:
Section |  min time  |  avg time  |  max time  |%varavg| %total
---------------------------------------------------------------
Pair    | 43.211     | 43.365     | 43.519     |   2.3 | 57.89
Neigh   | 26.61      | 27.045     | 27.48      |   8.4 | 36.11
Comm    | 3.234      | 3.8585     | 4.4829     |  31.8 |  5.15
Output  | 8.7023e-05 | 0.00013101 | 0.000175   |   0.0 |  0.00
Modify  | 0.47711    | 0.50151    | 0.5259     |   3.4 |  0.67
Other   |            | 0.1341     |            |       |  0.18

Nlocal:    9826 ave 9826 max 9826 min
Histogram: 2 0 0 0 0 0 0 0 0 0
Nghost:    15456 ave 15465 max 15447 min
Histogram: 1 0 0 0 0 0 0 0 0 1
Neighs:    1.14267e+06 ave 1.14417e+06 max 1.14116e+06 min
Histogram: 1 0 0 0 0 0 0 0 0 1

Total # of neighbors = 2285337
Ave neighs/atom = 116.29
Neighbor list builds = 495
Dangerous builds not checked
Setting up Verlet run ...
  Unit style    : metal
  Current step  : 500495
  Time step     : 0.001
Per MPI rank memory allocation (min/avg/max) = 12.47 | 12.47 | 12.47 Mbytes
Step Temp Press TotEng PotEng Enthalpy 
  500495    127.67336   -260.67568   -85233.013   -85557.315   -85268.507 
  510000    99.026604    275.96006   -85373.961   -85625.497    -85336.44 
Loop time of 1688.45 on 2 procs for 9505 steps with 19652 atoms

Performance: 0.486 ns/day, 49.344 hours/ns, 5.629 timesteps/s
79.3% CPU use with 2 MPI tasks x no OpenMP threads

MPI task timing breakdown:
Section |  min time  |  avg time  |  max time  |%varavg| %total
---------------------------------------------------------------
Pair    | 964.15     | 970.82     | 977.49     |  21.4 | 57.50
Neigh   | 564.48     | 574.37     | 584.26     |  41.3 | 34.02
Comm    | 123.77     | 126.65     | 129.53     |  25.6 |  7.50
Output  | 0.040886   | 0.040912   | 0.040938   |   0.0 |  0.00
Modify  | 13.317     | 13.723     | 14.13      |  11.0 |  0.81
Other   |            | 2.845      |            |       |  0.17

Nlocal:    9826 ave 9832 max 9820 min
Histogram: 1 0 0 0 0 0 0 0 0 1
Nghost:    15477 ave 15496 max 15458 min
Histogram: 1 0 0 0 0 0 0 0 0 1
Neighs:    1.14437e+06 ave 1.14516e+06 max 1.14358e+06 min
Histogram: 1 0 0 0 0 0 0 0 0 1

Total # of neighbors = 2288744
Ave neighs/atom = 116.464
Neighbor list builds = 9505
Dangerous builds not checked
Total wall time: 18:53:04
