LAMMPS (12 Dec 2018)
Lattice spacing in x,y,z = 4 4 4
Created orthogonal box = (0 0 0) to (68 68 68)
  1 by 1 by 1 MPI processor grid
Created 19652 atoms
  Time spent = 0.0027771 secs
Setting atom values ...
  19281 settings made for type/fraction
Neighbor list info ...
  update every 1 steps, delay 0 steps, check no
  max neighbors/atom: 2000, page size: 100000
  master list distance cutoff = 8.2
  ghost atom cutoff = 8.2
  binsize = 4.1, bins = 17 17 17
  1 neighbor lists, perpetual/occasional/extra = 1 0 0
  (1) pair eam/alloy, perpetual
      attributes: half, newton on
      pair build: half/bin/atomonly/newton
      stencil: half/bin/3d/newton
      bin: standard
Setting up Verlet run ...
  Unit style    : metal
  Current step  : 0
  Time step     : 0.001
Per MPI rank memory allocation (min/avg/max) = 17.03 | 17.03 | 17.03 Mbytes
Step Temp Press TotEng PotEng Enthalpy 
       0          300   -361438.29   -69322.262   -70084.289   -140255.62 
    1000    1425.7506   -74140.359   -69322.612   -72944.148   -83872.882 
Loop time of 155.146 on 1 procs for 1000 steps with 19652 atoms

Performance: 0.557 ns/day, 43.096 hours/ns, 6.446 timesteps/s
99.9% CPU use with 1 MPI tasks x no OpenMP threads

MPI task timing breakdown:
Section |  min time  |  avg time  |  max time  |%varavg| %total
---------------------------------------------------------------
Pair    | 84.845     | 84.845     | 84.845     |   0.0 | 54.69
Neigh   | 68.201     | 68.201     | 68.201     |   0.0 | 43.96
Comm    | 1.2585     | 1.2585     | 1.2585     |   0.0 |  0.81
Output  | 0.00036001 | 0.00036001 | 0.00036001 |   0.0 |  0.00
Modify  | 0.44879    | 0.44879    | 0.44879    |   0.0 |  0.29
Other   |            | 0.3921     |            |       |  0.25

Nlocal:    19652 ave 19652 max 19652 min
Histogram: 1 0 0 0 0 0 0 0 0 0
Nghost:    17701 ave 17701 max 17701 min
Histogram: 1 0 0 0 0 0 0 0 0 0
Neighs:    1.4483e+06 ave 1.4483e+06 max 1.4483e+06 min
Histogram: 1 0 0 0 0 0 0 0 0 0

Total # of neighbors = 1448299
Ave neighs/atom = 73.6973
Neighbor list builds = 1000
Dangerous builds not checked
Setting up Verlet run ...
  Unit style    : metal
  Current step  : 1000
  Time step     : 0.001
Per MPI rank memory allocation (min/avg/max) = 17.03 | 17.03 | 17.03 Mbytes
Step Temp Press TotEng PotEng Enthalpy 
    1000    1425.7506   -74140.359   -69322.612   -72944.148   -83872.882 
    2000    429.36838    -3318.798   -80401.345   -81491.979   -80889.558 
Loop time of 179.05 on 1 procs for 1000 steps with 19652 atoms

Performance: 0.483 ns/day, 49.736 hours/ns, 5.585 timesteps/s
99.6% CPU use with 1 MPI tasks x no OpenMP threads

MPI task timing breakdown:
Section |  min time  |  avg time  |  max time  |%varavg| %total
---------------------------------------------------------------
Pair    | 100.17     | 100.17     | 100.17     |   0.0 | 55.95
Neigh   | 75.812     | 75.812     | 75.812     |   0.0 | 42.34
Comm    | 1.1785     | 1.1785     | 1.1785     |   0.0 |  0.66
Output  | 0.057948   | 0.057948   | 0.057948   |   0.0 |  0.03
Modify  | 1.4349     | 1.4349     | 1.4349     |   0.0 |  0.80
Other   |            | 0.3935     |            |       |  0.22

Nlocal:    19652 ave 19652 max 19652 min
Histogram: 1 0 0 0 0 0 0 0 0 0
Nghost:    20192 ave 20192 max 20192 min
Histogram: 1 0 0 0 0 0 0 0 0 0
Neighs:    1.8779e+06 ave 1.8779e+06 max 1.8779e+06 min
Histogram: 1 0 0 0 0 0 0 0 0 0

Total # of neighbors = 1877898
Ave neighs/atom = 95.5576
Neighbor list builds = 1000
Dangerous builds not checked
Setting up Verlet run ...
  Unit style    : metal
  Current step  : 2000
  Time step     : 0.001
Per MPI rank memory allocation (min/avg/max) = 18.94 | 18.94 | 18.94 Mbytes
Step Temp Press TotEng PotEng Enthalpy 
    2000    429.36838    -3318.798   -80401.345   -81491.979   -80889.558 
    4000    818.06404    1810.2142   -79917.243     -81995.2   -79660.654 
    6000    1358.8461    1086.3991   -76793.094   -80244.687   -76635.116 
    8000    1900.0382   -2623.0447   -72864.933   -77691.203   -73261.923 
   10000    2447.0598   -2142.4861   -69199.388   -75415.143   -69535.117 
Loop time of 1457.51 on 1 procs for 8000 steps with 19652 atoms

Performance: 0.474 ns/day, 50.608 hours/ns, 5.489 timesteps/s
99.6% CPU use with 1 MPI tasks x no OpenMP threads

MPI task timing breakdown:
Section |  min time  |  avg time  |  max time  |%varavg| %total
---------------------------------------------------------------
Pair    | 806.11     | 806.11     | 806.11     |   0.0 | 55.31
Neigh   | 628.38     | 628.38     | 628.38     |   0.0 | 43.11
Comm    | 8.9626     | 8.9626     | 8.9626     |   0.0 |  0.61
Output  | 0.24329    | 0.24329    | 0.24329    |   0.0 |  0.02
Modify  | 10.831     | 10.831     | 10.831     |   0.0 |  0.74
Other   |            | 2.978      |            |       |  0.20

Nlocal:    19652 ave 19652 max 19652 min
Histogram: 1 0 0 0 0 0 0 0 0 0
Nghost:    19620 ave 19620 max 19620 min
Histogram: 1 0 0 0 0 0 0 0 0 0
Neighs:    1.75714e+06 ave 1.75714e+06 max 1.75714e+06 min
Histogram: 1 0 0 0 0 0 0 0 0 0

Total # of neighbors = 1757142
Ave neighs/atom = 89.4129
Neighbor list builds = 8000
Dangerous builds not checked
Setting up Verlet run ...
  Unit style    : metal
  Current step  : 10000
  Time step     : 0.001
Per MPI rank memory allocation (min/avg/max) = 18.96 | 18.96 | 18.96 Mbytes
Step Temp Press TotEng PotEng Enthalpy 
   10000    2447.0598   -2142.4861   -69199.388   -75415.143   -69535.117 
   12000     2457.377    849.53982   -69047.691   -75289.652    -68914.53 
   14000    2451.2487     1673.179   -69105.189   -75331.584   -68843.195 
   16000    2460.7383   -1624.7345   -69063.712   -75314.212   -69318.659 
   18000    2431.0971     267.4967   -69161.449   -75336.657   -69119.553 
   20000    2442.7078   -295.93187   -69039.183   -75243.883   -69085.631 
   22000     2463.893   -1140.8032   -69025.372   -75283.884   -69204.422 
   24000    2432.1254   -1961.3432   -69112.982   -75290.803   -69420.711 
   26000    2419.0803    3030.9933   -69136.902   -75281.586   -68662.627 
   28000    2447.0522   -1329.6671   -69069.021   -75284.757   -69277.683 
   30000    2459.0897   -4244.4445   -68990.478    -75236.79   -69658.022 
   32000    2454.3154    3493.6601   -69103.989   -75338.174   -68557.721 
   34000    2438.3723   -1356.7099   -69132.236   -75325.924   -69345.031 
   36000    2449.4627   -1169.8792    -69104.37   -75326.228   -69287.804 
   38000    2473.3581   -652.95824   -68978.361   -75260.916   -69080.823 
   40000    2438.0404   -585.69065   -69101.701   -75294.546   -69193.533 
Loop time of 5836.43 on 1 procs for 30000 steps with 19652 atoms

Performance: 0.444 ns/day, 54.041 hours/ns, 5.140 timesteps/s
99.6% CPU use with 1 MPI tasks x no OpenMP threads

MPI task timing breakdown:
Section |  min time  |  avg time  |  max time  |%varavg| %total
---------------------------------------------------------------
Pair    | 3250.5     | 3250.5     | 3250.5     |   0.0 | 55.69
Neigh   | 2490.6     | 2490.6     | 2490.6     |   0.0 | 42.67
Comm    | 36.845     | 36.845     | 36.845     |   0.0 |  0.63
Output  | 1.1241     | 1.1241     | 1.1241     |   0.0 |  0.02
Modify  | 45.163     | 45.163     | 45.163     |   0.0 |  0.77
Other   |            | 12.22      |            |       |  0.21

Nlocal:    19652 ave 19652 max 19652 min
Histogram: 1 0 0 0 0 0 0 0 0 0
Nghost:    19644 ave 19644 max 19644 min
Histogram: 1 0 0 0 0 0 0 0 0 0
Neighs:    1.75655e+06 ave 1.75655e+06 max 1.75655e+06 min
Histogram: 1 0 0 0 0 0 0 0 0 0

Total # of neighbors = 1756554
Ave neighs/atom = 89.383
Neighbor list builds = 30000
Dangerous builds not checked
Setting up Verlet run ...
  Unit style    : metal
  Current step  : 40000
  Time step     : 0.001
Per MPI rank memory allocation (min/avg/max) = 18.96 | 18.96 | 18.96 Mbytes
Step Temp Press TotEng PotEng Enthalpy 
   40000    2438.0404   -585.69065   -69101.701   -75294.546   -69193.533 
   40495    2400.4828    1179.9281   -69327.214   -75424.659   -69142.727 
Loop time of 85.4748 on 1 procs for 495 steps with 19652 atoms

Performance: 0.500 ns/day, 47.966 hours/ns, 5.791 timesteps/s
99.9% CPU use with 1 MPI tasks x no OpenMP threads

MPI task timing breakdown:
Section |  min time  |  avg time  |  max time  |%varavg| %total
---------------------------------------------------------------
Pair    | 47.032     | 47.032     | 47.032     |   0.0 | 55.02
Neigh   | 37.058     | 37.058     | 37.058     |   0.0 | 43.36
Comm    | 0.53677    | 0.53677    | 0.53677    |   0.0 |  0.63
Output  | 0.00017905 | 0.00017905 | 0.00017905 |   0.0 |  0.00
Modify  | 0.66548    | 0.66548    | 0.66548    |   0.0 |  0.78
Other   |            | 0.1828     |            |       |  0.21

Nlocal:    19652 ave 19652 max 19652 min
Histogram: 1 0 0 0 0 0 0 0 0 0
Nghost:    19681 ave 19681 max 19681 min
Histogram: 1 0 0 0 0 0 0 0 0 0
Neighs:    1.76117e+06 ave 1.76117e+06 max 1.76117e+06 min
Histogram: 1 0 0 0 0 0 0 0 0 0

Total # of neighbors = 1761168
Ave neighs/atom = 89.6177
Neighbor list builds = 495
Dangerous builds not checked
Setting up Verlet run ...
  Unit style    : metal
  Current step  : 40495
  Time step     : 0.001
Per MPI rank memory allocation (min/avg/max) = 18.96 | 18.96 | 18.96 Mbytes
Step Temp Press TotEng PotEng Enthalpy 
   40495    2400.4828    1179.9281   -69327.214   -75424.659   -69142.727 
   42000    2402.1894    1803.9949   -69369.586   -75471.366   -69087.822 
Loop time of 267.216 on 1 procs for 1505 steps with 19652 atoms

Performance: 0.487 ns/day, 49.320 hours/ns, 5.632 timesteps/s
99.9% CPU use with 1 MPI tasks x no OpenMP threads

MPI task timing breakdown:
Section |  min time  |  avg time  |  max time  |%varavg| %total
---------------------------------------------------------------
Pair    | 147.63     | 147.63     | 147.63     |   0.0 | 55.25
Neigh   | 115.24     | 115.24     | 115.24     |   0.0 | 43.12
Comm    | 1.6616     | 1.6616     | 1.6616     |   0.0 |  0.62
Output  | 0.055397   | 0.055397   | 0.055397   |   0.0 |  0.02
Modify  | 2.0663     | 2.0663     | 2.0663     |   0.0 |  0.77
Other   |            | 0.5646     |            |       |  0.21

Nlocal:    19652 ave 19652 max 19652 min
Histogram: 1 0 0 0 0 0 0 0 0 0
Nghost:    19679 ave 19679 max 19679 min
Histogram: 1 0 0 0 0 0 0 0 0 0
Neighs:    1.76283e+06 ave 1.76283e+06 max 1.76283e+06 min
Histogram: 1 0 0 0 0 0 0 0 0 0

Total # of neighbors = 1762834
Ave neighs/atom = 89.7025
Neighbor list builds = 1505
Dangerous builds not checked
Setting up Verlet run ...
  Unit style    : metal
  Current step  : 42000
  Time step     : 0.001
Per MPI rank memory allocation (min/avg/max) = 18.96 | 18.96 | 18.96 Mbytes
Step Temp Press TotEng PotEng Enthalpy 
   42000    2402.1894    1803.9949   -69369.586   -75471.366   -69087.822 
   42495    2363.2982    904.84384   -69623.743   -75626.736   -69482.704 
Loop time of 84.6581 on 1 procs for 495 steps with 19652 atoms

Performance: 0.505 ns/day, 47.507 hours/ns, 5.847 timesteps/s
100.0% CPU use with 1 MPI tasks x no OpenMP threads

MPI task timing breakdown:
Section |  min time  |  avg time  |  max time  |%varavg| %total
---------------------------------------------------------------
Pair    | 46.534     | 46.534     | 46.534     |   0.0 | 54.97
Neigh   | 36.765     | 36.765     | 36.765     |   0.0 | 43.43
Comm    | 0.52136    | 0.52136    | 0.52136    |   0.0 |  0.62
Output  | 0.00032997 | 0.00032997 | 0.00032997 |   0.0 |  0.00
Modify  | 0.6572     | 0.6572     | 0.6572     |   0.0 |  0.78
Other   |            | 0.1805     |            |       |  0.21

Nlocal:    19652 ave 19652 max 19652 min
Histogram: 1 0 0 0 0 0 0 0 0 0
Nghost:    19720 ave 19720 max 19720 min
Histogram: 1 0 0 0 0 0 0 0 0 0
Neighs:    1.76644e+06 ave 1.76644e+06 max 1.76644e+06 min
Histogram: 1 0 0 0 0 0 0 0 0 0

Total # of neighbors = 1766439
Ave neighs/atom = 89.886
Neighbor list builds = 495
Dangerous builds not checked
Setting up Verlet run ...
  Unit style    : metal
  Current step  : 42495
  Time step     : 0.001
Per MPI rank memory allocation (min/avg/max) = 18.96 | 18.96 | 18.96 Mbytes
Step Temp Press TotEng PotEng Enthalpy 
   42495    2363.2982    904.84384   -69623.743   -75626.736   -69482.704 
   44000    2343.3948   -1433.9139   -69724.689   -75677.125    -69948.37 
Loop time of 277.39 on 1 procs for 1505 steps with 19652 atoms

Performance: 0.469 ns/day, 51.198 hours/ns, 5.426 timesteps/s
99.9% CPU use with 1 MPI tasks x no OpenMP threads

MPI task timing breakdown:
Section |  min time  |  avg time  |  max time  |%varavg| %total
---------------------------------------------------------------
Pair    | 153.53     | 153.53     | 153.53     |   0.0 | 55.35
Neigh   | 119.28     | 119.28     | 119.28     |   0.0 | 43.00
Comm    | 1.754      | 1.754      | 1.754      |   0.0 |  0.63
Output  | 0.052522   | 0.052522   | 0.052522   |   0.0 |  0.02
Modify  | 2.1784     | 2.1784     | 2.1784     |   0.0 |  0.79
Other   |            | 0.5923     |            |       |  0.21

Nlocal:    19652 ave 19652 max 19652 min
Histogram: 1 0 0 0 0 0 0 0 0 0
Nghost:    19734 ave 19734 max 19734 min
Histogram: 1 0 0 0 0 0 0 0 0 0
Neighs:    1.76484e+06 ave 1.76484e+06 max 1.76484e+06 min
Histogram: 1 0 0 0 0 0 0 0 0 0

Total # of neighbors = 1764844
Ave neighs/atom = 89.8048
Neighbor list builds = 1505
Dangerous builds not checked
Setting up Verlet run ...
  Unit style    : metal
  Current step  : 44000
  Time step     : 0.001
Per MPI rank memory allocation (min/avg/max) = 18.96 | 18.96 | 18.96 Mbytes
Step Temp Press TotEng PotEng Enthalpy 
   44000    2343.3948   -1433.9139   -69724.689   -75677.125    -69948.37 
   44495    2304.6007    1280.4563   -69955.324    -75809.22   -69756.296 
Loop time of 83.8844 on 1 procs for 495 steps with 19652 atoms

Performance: 0.510 ns/day, 47.073 hours/ns, 5.901 timesteps/s
99.9% CPU use with 1 MPI tasks x no OpenMP threads

MPI task timing breakdown:
Section |  min time  |  avg time  |  max time  |%varavg| %total
---------------------------------------------------------------
Pair    | 46.229     | 46.229     | 46.229     |   0.0 | 55.11
Neigh   | 36.286     | 36.286     | 36.286     |   0.0 | 43.26
Comm    | 0.52753    | 0.52753    | 0.52753    |   0.0 |  0.63
Output  | 0.0002501  | 0.0002501  | 0.0002501  |   0.0 |  0.00
Modify  | 0.6612     | 0.6612     | 0.6612     |   0.0 |  0.79
Other   |            | 0.1803     |            |       |  0.21

Nlocal:    19652 ave 19652 max 19652 min
Histogram: 1 0 0 0 0 0 0 0 0 0
Nghost:    19738 ave 19738 max 19738 min
Histogram: 1 0 0 0 0 0 0 0 0 0
Neighs:    1.77117e+06 ave 1.77117e+06 max 1.77117e+06 min
Histogram: 1 0 0 0 0 0 0 0 0 0

Total # of neighbors = 1771171
Ave neighs/atom = 90.1268
Neighbor list builds = 495
Dangerous builds not checked
Setting up Verlet run ...
  Unit style    : metal
  Current step  : 44495
  Time step     : 0.001
Per MPI rank memory allocation (min/avg/max) = 18.96 | 18.96 | 18.96 Mbytes
Step Temp Press TotEng PotEng Enthalpy 
   44495    2304.6007    1280.4563   -69955.324    -75809.22   -69756.296 
   46000    2277.0795   -4014.4747   -70064.427   -75848.416   -70689.831 
Loop time of 262.86 on 1 procs for 1505 steps with 19652 atoms

Performance: 0.495 ns/day, 48.516 hours/ns, 5.725 timesteps/s
99.9% CPU use with 1 MPI tasks x no OpenMP threads

MPI task timing breakdown:
Section |  min time  |  avg time  |  max time  |%varavg| %total
---------------------------------------------------------------
Pair    | 145.62     | 145.62     | 145.62     |   0.0 | 55.40
Neigh   | 112.98     | 112.98     | 112.98     |   0.0 | 42.98
Comm    | 1.6437     | 1.6437     | 1.6437     |   0.0 |  0.63
Output  | 0.048343   | 0.048343   | 0.048343   |   0.0 |  0.02
Modify  | 2.0242     | 2.0242     | 2.0242     |   0.0 |  0.77
Other   |            | 0.5524     |            |       |  0.21

Nlocal:    19652 ave 19652 max 19652 min
Histogram: 1 0 0 0 0 0 0 0 0 0
Nghost:    19713 ave 19713 max 19713 min
Histogram: 1 0 0 0 0 0 0 0 0 0
Neighs:    1.76661e+06 ave 1.76661e+06 max 1.76661e+06 min
Histogram: 1 0 0 0 0 0 0 0 0 0

Total # of neighbors = 1766614
Ave neighs/atom = 89.8949
Neighbor list builds = 1505
Dangerous builds not checked
Setting up Verlet run ...
  Unit style    : metal
  Current step  : 46000
  Time step     : 0.001
Per MPI rank memory allocation (min/avg/max) = 18.96 | 18.96 | 18.96 Mbytes
Step Temp Press TotEng PotEng Enthalpy 
   46000    2277.0795   -4014.4747   -70064.427   -75848.416   -70689.831 
   46495    2252.1413   -2087.0218   -70286.526   -76007.171   -70610.442 
Loop time of 85.4378 on 1 procs for 495 steps with 19652 atoms

Performance: 0.501 ns/day, 47.945 hours/ns, 5.794 timesteps/s
99.9% CPU use with 1 MPI tasks x no OpenMP threads

MPI task timing breakdown:
Section |  min time  |  avg time  |  max time  |%varavg| %total
---------------------------------------------------------------
Pair    | 47.361     | 47.361     | 47.361     |   0.0 | 55.43
Neigh   | 36.707     | 36.707     | 36.707     |   0.0 | 42.96
Comm    | 0.52953    | 0.52953    | 0.52953    |   0.0 |  0.62
Output  | 0.00023007 | 0.00023007 | 0.00023007 |   0.0 |  0.00
Modify  | 0.65867    | 0.65867    | 0.65867    |   0.0 |  0.77
Other   |            | 0.1815     |            |       |  0.21

Nlocal:    19652 ave 19652 max 19652 min
Histogram: 1 0 0 0 0 0 0 0 0 0
Nghost:    19707 ave 19707 max 19707 min
Histogram: 1 0 0 0 0 0 0 0 0 0
Neighs:    1.77389e+06 ave 1.77389e+06 max 1.77389e+06 min
Histogram: 1 0 0 0 0 0 0 0 0 0

Total # of neighbors = 1773888
Ave neighs/atom = 90.265
Neighbor list builds = 495
Dangerous builds not checked
Setting up Verlet run ...
  Unit style    : metal
  Current step  : 46495
  Time step     : 0.001
Per MPI rank memory allocation (min/avg/max) = 18.96 | 18.96 | 18.96 Mbytes
Step Temp Press TotEng PotEng Enthalpy 
   46495    2252.1413   -2087.0218   -70286.526   -76007.171   -70610.442 
   48000    2255.6356    592.28428    -70410.81    -76140.33   -70319.196 
Loop time of 273.935 on 1 procs for 1505 steps with 19652 atoms

Performance: 0.475 ns/day, 50.560 hours/ns, 5.494 timesteps/s
99.9% CPU use with 1 MPI tasks x no OpenMP threads

MPI task timing breakdown:
Section |  min time  |  avg time  |  max time  |%varavg| %total
---------------------------------------------------------------
Pair    | 151.55     | 151.55     | 151.55     |   0.0 | 55.32
Neigh   | 117.88     | 117.88     | 117.88     |   0.0 | 43.03
Comm    | 1.7151     | 1.7151     | 1.7151     |   0.0 |  0.63
Output  | 0.082398   | 0.082398   | 0.082398   |   0.0 |  0.03
Modify  | 2.1325     | 2.1325     | 2.1325     |   0.0 |  0.78
Other   |            | 0.5762     |            |       |  0.21

Nlocal:    19652 ave 19652 max 19652 min
Histogram: 1 0 0 0 0 0 0 0 0 0
Nghost:    19851 ave 19851 max 19851 min
Histogram: 1 0 0 0 0 0 0 0 0 0
Neighs:    1.7788e+06 ave 1.7788e+06 max 1.7788e+06 min
Histogram: 1 0 0 0 0 0 0 0 0 0

Total # of neighbors = 1778796
Ave neighs/atom = 90.5148
Neighbor list builds = 1505
Dangerous builds not checked
Setting up Verlet run ...
  Unit style    : metal
  Current step  : 48000
  Time step     : 0.001
Per MPI rank memory allocation (min/avg/max) = 18.96 | 18.96 | 18.96 Mbytes
Step Temp Press TotEng PotEng Enthalpy 
   48000    2255.6356    592.28428    -70410.81    -76140.33   -70319.196 
   48495    2223.6249    1866.6569   -70626.463   -76274.673   -70338.479 
Loop time of 86.0836 on 1 procs for 495 steps with 19652 atoms

Performance: 0.497 ns/day, 48.307 hours/ns, 5.750 timesteps/s
99.9% CPU use with 1 MPI tasks x no OpenMP threads

MPI task timing breakdown:
Section |  min time  |  avg time  |  max time  |%varavg| %total
---------------------------------------------------------------
Pair    | 47.685     | 47.685     | 47.685     |   0.0 | 55.39
Neigh   | 36.996     | 36.996     | 36.996     |   0.0 | 42.98
Comm    | 0.53784    | 0.53784    | 0.53784    |   0.0 |  0.62
Output  | 0.00019383 | 0.00019383 | 0.00019383 |   0.0 |  0.00
Modify  | 0.67851    | 0.67851    | 0.67851    |   0.0 |  0.79
Other   |            | 0.1856     |            |       |  0.22

Nlocal:    19652 ave 19652 max 19652 min
Histogram: 1 0 0 0 0 0 0 0 0 0
Nghost:    19790 ave 19790 max 19790 min
Histogram: 1 0 0 0 0 0 0 0 0 0
Neighs:    1.78385e+06 ave 1.78385e+06 max 1.78385e+06 min
Histogram: 1 0 0 0 0 0 0 0 0 0

Total # of neighbors = 1783851
Ave neighs/atom = 90.772
Neighbor list builds = 495
Dangerous builds not checked
Setting up Verlet run ...
  Unit style    : metal
  Current step  : 48495
  Time step     : 0.001
Per MPI rank memory allocation (min/avg/max) = 18.96 | 18.96 | 18.96 Mbytes
Step Temp Press TotEng PotEng Enthalpy 
   48495    2223.6249    1866.6569   -70626.463   -76274.673   -70338.479 
   50000    2196.5608   -1278.4117   -70759.822   -76339.286   -70957.144 
Loop time of 271.405 on 1 procs for 1505 steps with 19652 atoms

Performance: 0.479 ns/day, 50.093 hours/ns, 5.545 timesteps/s
99.9% CPU use with 1 MPI tasks x no OpenMP threads

MPI task timing breakdown:
Section |  min time  |  avg time  |  max time  |%varavg| %total
---------------------------------------------------------------
Pair    | 150.8      | 150.8      | 150.8      |   0.0 | 55.56
Neigh   | 116.19     | 116.19     | 116.19     |   0.0 | 42.81
Comm    | 1.6992     | 1.6992     | 1.6992     |   0.0 |  0.63
Output  | 0.042417   | 0.042417   | 0.042417   |   0.0 |  0.02
Modify  | 2.1021     | 2.1021     | 2.1021     |   0.0 |  0.77
Other   |            | 0.5694     |            |       |  0.21

Nlocal:    19652 ave 19652 max 19652 min
Histogram: 1 0 0 0 0 0 0 0 0 0
Nghost:    19767 ave 19767 max 19767 min
Histogram: 1 0 0 0 0 0 0 0 0 0
Neighs:    1.78211e+06 ave 1.78211e+06 max 1.78211e+06 min
Histogram: 1 0 0 0 0 0 0 0 0 0

Total # of neighbors = 1782106
Ave neighs/atom = 90.6832
Neighbor list builds = 1505
Dangerous builds not checked
Setting up Verlet run ...
  Unit style    : metal
  Current step  : 50000
  Time step     : 0.001
Per MPI rank memory allocation (min/avg/max) = 18.96 | 18.96 | 18.96 Mbytes
Step Temp Press TotEng PotEng Enthalpy 
   50000    2196.5608   -1278.4117   -70759.822   -76339.286   -70957.144 
   50495    2160.1354   -600.13637   -70942.057   -76428.998   -71034.529 
Loop time of 90.2006 on 1 procs for 495 steps with 19652 atoms

Performance: 0.474 ns/day, 50.618 hours/ns, 5.488 timesteps/s
99.9% CPU use with 1 MPI tasks x no OpenMP threads

MPI task timing breakdown:
Section |  min time  |  avg time  |  max time  |%varavg| %total
---------------------------------------------------------------
Pair    | 50.154     | 50.154     | 50.154     |   0.0 | 55.60
Neigh   | 38.577     | 38.577     | 38.577     |   0.0 | 42.77
Comm    | 0.56163    | 0.56163    | 0.56163    |   0.0 |  0.62
Output  | 0.00024796 | 0.00024796 | 0.00024796 |   0.0 |  0.00
Modify  | 0.71367    | 0.71367    | 0.71367    |   0.0 |  0.79
Other   |            | 0.1943     |            |       |  0.22

Nlocal:    19652 ave 19652 max 19652 min
Histogram: 1 0 0 0 0 0 0 0 0 0
Nghost:    19776 ave 19776 max 19776 min
Histogram: 1 0 0 0 0 0 0 0 0 0
Neighs:    1.78533e+06 ave 1.78533e+06 max 1.78533e+06 min
Histogram: 1 0 0 0 0 0 0 0 0 0

Total # of neighbors = 1785332
Ave neighs/atom = 90.8473
Neighbor list builds = 495
Dangerous builds not checked
Setting up Verlet run ...
  Unit style    : metal
  Current step  : 50495
  Time step     : 0.001
Per MPI rank memory allocation (min/avg/max) = 18.96 | 18.96 | 18.96 Mbytes
Step Temp Press TotEng PotEng Enthalpy 
   50495    2160.1354   -600.13637   -70942.057   -76428.998   -71034.529 
   52000    2154.6809   -1353.7397   -71024.304    -76497.39   -71232.776 
Loop time of 285.477 on 1 procs for 1505 steps with 19652 atoms

Performance: 0.455 ns/day, 52.690 hours/ns, 5.272 timesteps/s
99.3% CPU use with 1 MPI tasks x no OpenMP threads

MPI task timing breakdown:
Section |  min time  |  avg time  |  max time  |%varavg| %total
---------------------------------------------------------------
Pair    | 158.69     | 158.69     | 158.69     |   0.0 | 55.59
Neigh   | 120.7      | 120.7      | 120.7      |   0.0 | 42.28
Comm    | 1.7828     | 1.7828     | 1.7828     |   0.0 |  0.62
Output  | 1.5022     | 1.5022     | 1.5022     |   0.0 |  0.53
Modify  | 2.2059     | 2.2059     | 2.2059     |   0.0 |  0.77
Other   |            | 0.5959     |            |       |  0.21

Nlocal:    19652 ave 19652 max 19652 min
Histogram: 1 0 0 0 0 0 0 0 0 0
Nghost:    19815 ave 19815 max 19815 min
Histogram: 1 0 0 0 0 0 0 0 0 0
Neighs:    1.78615e+06 ave 1.78615e+06 max 1.78615e+06 min
Histogram: 1 0 0 0 0 0 0 0 0 0

Total # of neighbors = 1786150
Ave neighs/atom = 90.889
Neighbor list builds = 1505
Dangerous builds not checked
Setting up Verlet run ...
  Unit style    : metal
  Current step  : 52000
  Time step     : 0.001
Per MPI rank memory allocation (min/avg/max) = 18.96 | 18.96 | 18.96 Mbytes
Step Temp Press TotEng PotEng Enthalpy 
   52000    2154.6809   -1353.7397   -71024.304    -76497.39   -71232.776 
   52495    2117.0111   -773.99033   -71256.918   -76634.319   -71375.851 
Loop time of 85.6508 on 1 procs for 495 steps with 19652 atoms

Performance: 0.499 ns/day, 48.064 hours/ns, 5.779 timesteps/s
99.8% CPU use with 1 MPI tasks x no OpenMP threads

MPI task timing breakdown:
Section |  min time  |  avg time  |  max time  |%varavg| %total
---------------------------------------------------------------
Pair    | 47.392     | 47.392     | 47.392     |   0.0 | 55.33
Neigh   | 36.864     | 36.864     | 36.864     |   0.0 | 43.04
Comm    | 0.5399     | 0.5399     | 0.5399     |   0.0 |  0.63
Output  | 0.00025511 | 0.00025511 | 0.00025511 |   0.0 |  0.00
Modify  | 0.67184    | 0.67184    | 0.67184    |   0.0 |  0.78
Other   |            | 0.183      |            |       |  0.21

Nlocal:    19652 ave 19652 max 19652 min
Histogram: 1 0 0 0 0 0 0 0 0 0
Nghost:    19834 ave 19834 max 19834 min
Histogram: 1 0 0 0 0 0 0 0 0 0
Neighs:    1.78976e+06 ave 1.78976e+06 max 1.78976e+06 min
Histogram: 1 0 0 0 0 0 0 0 0 0

Total # of neighbors = 1789763
Ave neighs/atom = 91.0728
Neighbor list builds = 495
Dangerous builds not checked
Setting up Verlet run ...
  Unit style    : metal
  Current step  : 52495
  Time step     : 0.001
Per MPI rank memory allocation (min/avg/max) = 18.96 | 18.96 | 18.96 Mbytes
Step Temp Press TotEng PotEng Enthalpy 
   52495    2117.0111   -773.99033   -71256.918   -76634.319   -71375.851 
   54000    2106.1582   -2442.6527   -71376.487   -76726.321   -71751.777 
Loop time of 270.732 on 1 procs for 1505 steps with 19652 atoms

Performance: 0.480 ns/day, 49.969 hours/ns, 5.559 timesteps/s
100.0% CPU use with 1 MPI tasks x no OpenMP threads

MPI task timing breakdown:
Section |  min time  |  avg time  |  max time  |%varavg| %total
---------------------------------------------------------------
Pair    | 150.81     | 150.81     | 150.81     |   0.0 | 55.70
Neigh   | 115.53     | 115.53     | 115.53     |   0.0 | 42.67
Comm    | 1.6859     | 1.6859     | 1.6859     |   0.0 |  0.62
Output  | 0.053244   | 0.053244   | 0.053244   |   0.0 |  0.02
Modify  | 2.0877     | 2.0877     | 2.0877     |   0.0 |  0.77
Other   |            | 0.5638     |            |       |  0.21

Nlocal:    19652 ave 19652 max 19652 min
Histogram: 1 0 0 0 0 0 0 0 0 0
Nghost:    19845 ave 19845 max 19845 min
Histogram: 1 0 0 0 0 0 0 0 0 0
Neighs:    1.78912e+06 ave 1.78912e+06 max 1.78912e+06 min
Histogram: 1 0 0 0 0 0 0 0 0 0

Total # of neighbors = 1789124
Ave neighs/atom = 91.0403
Neighbor list builds = 1505
Dangerous builds not checked
Setting up Verlet run ...
  Unit style    : metal
  Current step  : 54000
  Time step     : 0.001
Per MPI rank memory allocation (min/avg/max) = 18.96 | 18.96 | 18.96 Mbytes
Step Temp Press TotEng PotEng Enthalpy 
   54000    2106.1582   -2442.6527   -71376.487   -76726.321   -71751.777 
   54495    2052.7543   -1770.2309   -71583.004   -76797.187   -71854.506 
Loop time of 85.4422 on 1 procs for 495 steps with 19652 atoms

Performance: 0.501 ns/day, 47.947 hours/ns, 5.793 timesteps/s
99.9% CPU use with 1 MPI tasks x no OpenMP threads

MPI task timing breakdown:
Section |  min time  |  avg time  |  max time  |%varavg| %total
---------------------------------------------------------------
Pair    | 47.319     | 47.319     | 47.319     |   0.0 | 55.38
Neigh   | 36.759     | 36.759     | 36.759     |   0.0 | 43.02
Comm    | 0.52522    | 0.52522    | 0.52522    |   0.0 |  0.61
Output  | 0.00025296 | 0.00025296 | 0.00025296 |   0.0 |  0.00
Modify  | 0.65786    | 0.65786    | 0.65786    |   0.0 |  0.77
Other   |            | 0.1815     |            |       |  0.21

Nlocal:    19652 ave 19652 max 19652 min
Histogram: 1 0 0 0 0 0 0 0 0 0
Nghost:    19842 ave 19842 max 19842 min
Histogram: 1 0 0 0 0 0 0 0 0 0
Neighs:    1.79379e+06 ave 1.79379e+06 max 1.79379e+06 min
Histogram: 1 0 0 0 0 0 0 0 0 0

Total # of neighbors = 1793794
Ave neighs/atom = 91.2779
Neighbor list builds = 495
Dangerous builds not checked
Setting up Verlet run ...
  Unit style    : metal
  Current step  : 54495
  Time step     : 0.001
Per MPI rank memory allocation (min/avg/max) = 18.96 | 18.96 | 18.96 Mbytes
Step Temp Press TotEng PotEng Enthalpy 
   54495    2052.7543   -1770.2309   -71583.004   -76797.187   -71854.506 
   56000    2052.0249    147.86399   -71737.426   -76949.756   -71714.827 
Loop time of 267.689 on 1 procs for 1505 steps with 19652 atoms

Performance: 0.486 ns/day, 49.407 hours/ns, 5.622 timesteps/s
99.9% CPU use with 1 MPI tasks x no OpenMP threads

MPI task timing breakdown:
Section |  min time  |  avg time  |  max time  |%varavg| %total
---------------------------------------------------------------
Pair    | 149.1      | 149.1      | 149.1      |   0.0 | 55.70
Neigh   | 114.2      | 114.2      | 114.2      |   0.0 | 42.66
Comm    | 1.6847     | 1.6847     | 1.6847     |   0.0 |  0.63
Output  | 0.058195   | 0.058195   | 0.058195   |   0.0 |  0.02
Modify  | 2.0838     | 2.0838     | 2.0838     |   0.0 |  0.78
Other   |            | 0.5664     |            |       |  0.21

Nlocal:    19652 ave 19652 max 19652 min
Histogram: 1 0 0 0 0 0 0 0 0 0
Nghost:    19898 ave 19898 max 19898 min
Histogram: 1 0 0 0 0 0 0 0 0 0
Neighs:    1.79873e+06 ave 1.79873e+06 max 1.79873e+06 min
Histogram: 1 0 0 0 0 0 0 0 0 0

Total # of neighbors = 1798731
Ave neighs/atom = 91.5292
Neighbor list builds = 1505
Dangerous builds not checked
Setting up Verlet run ...
  Unit style    : metal
  Current step  : 56000
  Time step     : 0.001
Per MPI rank memory allocation (min/avg/max) = 18.96 | 18.96 | 18.96 Mbytes
Step Temp Press TotEng PotEng Enthalpy 
   56000    2052.0249    147.86399   -71737.426   -76949.756   -71714.827 
   56495    2014.7432    1563.0863   -71933.722   -77051.353   -71695.331 
Loop time of 85.0469 on 1 procs for 495 steps with 19652 atoms

Performance: 0.503 ns/day, 47.726 hours/ns, 5.820 timesteps/s
99.9% CPU use with 1 MPI tasks x no OpenMP threads

MPI task timing breakdown:
Section |  min time  |  avg time  |  max time  |%varavg| %total
---------------------------------------------------------------
Pair    | 47.029     | 47.029     | 47.029     |   0.0 | 55.30
Neigh   | 36.659     | 36.659     | 36.659     |   0.0 | 43.10
Comm    | 0.52092    | 0.52092    | 0.52092    |   0.0 |  0.61
Output  | 0.00019193 | 0.00019193 | 0.00019193 |   0.0 |  0.00
Modify  | 0.65948    | 0.65948    | 0.65948    |   0.0 |  0.78
Other   |            | 0.1786     |            |       |  0.21

Nlocal:    19652 ave 19652 max 19652 min
Histogram: 1 0 0 0 0 0 0 0 0 0
Nghost:    19890 ave 19890 max 19890 min
Histogram: 1 0 0 0 0 0 0 0 0 0
Neighs:    1.80267e+06 ave 1.80267e+06 max 1.80267e+06 min
Histogram: 1 0 0 0 0 0 0 0 0 0

Total # of neighbors = 1802666
Ave neighs/atom = 91.7294
Neighbor list builds = 495
Dangerous builds not checked
Setting up Verlet run ...
  Unit style    : metal
  Current step  : 56495
  Time step     : 0.001
Per MPI rank memory allocation (min/avg/max) = 18.96 | 18.96 | 18.96 Mbytes
Step Temp Press TotEng PotEng Enthalpy 
   56495    2014.7432    1563.0863   -71933.722   -77051.353   -71695.331 
   58000    1995.7677    577.33588   -72016.466   -77085.898   -71928.449 
Loop time of 257.773 on 1 procs for 1505 steps with 19652 atoms

Performance: 0.504 ns/day, 47.577 hours/ns, 5.838 timesteps/s
99.9% CPU use with 1 MPI tasks x no OpenMP threads

MPI task timing breakdown:
Section |  min time  |  avg time  |  max time  |%varavg| %total
---------------------------------------------------------------
Pair    | 142.83     | 142.83     | 142.83     |   0.0 | 55.41
Neigh   | 110.76     | 110.76     | 110.76     |   0.0 | 42.97
Comm    | 1.5881     | 1.5881     | 1.5881     |   0.0 |  0.62
Output  | 0.067949   | 0.067949   | 0.067949   |   0.0 |  0.03
Modify  | 1.9913     | 1.9913     | 1.9913     |   0.0 |  0.77
Other   |            | 0.5391     |            |       |  0.21

Nlocal:    19652 ave 19652 max 19652 min
Histogram: 1 0 0 0 0 0 0 0 0 0
Nghost:    19908 ave 19908 max 19908 min
Histogram: 1 0 0 0 0 0 0 0 0 0
Neighs:    1.80315e+06 ave 1.80315e+06 max 1.80315e+06 min
Histogram: 1 0 0 0 0 0 0 0 0 0

Total # of neighbors = 1803146
Ave neighs/atom = 91.7538
Neighbor list builds = 1505
Dangerous builds not checked
Setting up Verlet run ...
  Unit style    : metal
  Current step  : 58000
  Time step     : 0.001
Per MPI rank memory allocation (min/avg/max) = 18.96 | 18.96 | 18.96 Mbytes
Step Temp Press TotEng PotEng Enthalpy 
   58000    1995.7677    577.33588   -72016.466   -77085.898   -71928.449 
   58495    1969.5509    1192.1839   -72255.227   -77258.066   -72074.033 
Loop time of 90.7859 on 1 procs for 495 steps with 19652 atoms

Performance: 0.471 ns/day, 50.946 hours/ns, 5.452 timesteps/s
99.9% CPU use with 1 MPI tasks x no OpenMP threads

MPI task timing breakdown:
Section |  min time  |  avg time  |  max time  |%varavg| %total
---------------------------------------------------------------
Pair    | 50.43      | 50.43      | 50.43      |   0.0 | 55.55
Neigh   | 38.874     | 38.874     | 38.874     |   0.0 | 42.82
Comm    | 0.56317    | 0.56317    | 0.56317    |   0.0 |  0.62
Output  | 0.00023198 | 0.00023198 | 0.00023198 |   0.0 |  0.00
Modify  | 0.72297    | 0.72297    | 0.72297    |   0.0 |  0.80
Other   |            | 0.195      |            |       |  0.21

Nlocal:    19652 ave 19652 max 19652 min
Histogram: 1 0 0 0 0 0 0 0 0 0
Nghost:    19869 ave 19869 max 19869 min
Histogram: 1 0 0 0 0 0 0 0 0 0
Neighs:    1.80817e+06 ave 1.80817e+06 max 1.80817e+06 min
Histogram: 1 0 0 0 0 0 0 0 0 0

Total # of neighbors = 1808172
Ave neighs/atom = 92.0096
Neighbor list builds = 495
Dangerous builds not checked
Setting up Verlet run ...
  Unit style    : metal
  Current step  : 58495
  Time step     : 0.001
Per MPI rank memory allocation (min/avg/max) = 18.96 | 18.96 | 18.96 Mbytes
Step Temp Press TotEng PotEng Enthalpy 
   58495    1969.5509    1192.1839   -72255.227   -77258.066   -72074.033 
   60000    1953.5751     2180.218   -72402.234   -77364.493   -72071.394 
Loop time of 251.24 on 1 procs for 1505 steps with 19652 atoms

Performance: 0.518 ns/day, 46.371 hours/ns, 5.990 timesteps/s
99.9% CPU use with 1 MPI tasks x no OpenMP threads

MPI task timing breakdown:
Section |  min time  |  avg time  |  max time  |%varavg| %total
---------------------------------------------------------------
Pair    | 138.59     | 138.59     | 138.59     |   0.0 | 55.16
Neigh   | 108.59     | 108.59     | 108.59     |   0.0 | 43.22
Comm    | 1.5406     | 1.5406     | 1.5406     |   0.0 |  0.61
Output  | 0.04639    | 0.04639    | 0.04639    |   0.0 |  0.02
Modify  | 1.9375     | 1.9375     | 1.9375     |   0.0 |  0.77
Other   |            | 0.5303     |            |       |  0.21

Nlocal:    19652 ave 19652 max 19652 min
Histogram: 1 0 0 0 0 0 0 0 0 0
Nghost:    19991 ave 19991 max 19991 min
Histogram: 1 0 0 0 0 0 0 0 0 0
Neighs:    1.81113e+06 ave 1.81113e+06 max 1.81113e+06 min
Histogram: 1 0 0 0 0 0 0 0 0 0

Total # of neighbors = 1811134
Ave neighs/atom = 92.1603
Neighbor list builds = 1505
Dangerous builds not checked
Setting up Verlet run ...
  Unit style    : metal
  Current step  : 60000
  Time step     : 0.001
Per MPI rank memory allocation (min/avg/max) = 18.96 | 18.96 | 18.96 Mbytes
Step Temp Press TotEng PotEng Enthalpy 
   60000    1953.5751     2180.218   -72402.234   -77364.493   -72071.394 
   60495    1904.1813    469.71921   -72654.784   -77491.578   -72583.606 
Loop time of 81.7181 on 1 procs for 495 steps with 19652 atoms

Performance: 0.523 ns/day, 45.857 hours/ns, 6.057 timesteps/s
100.0% CPU use with 1 MPI tasks x no OpenMP threads

MPI task timing breakdown:
Section |  min time  |  avg time  |  max time  |%varavg| %total
---------------------------------------------------------------
Pair    | 45.291     | 45.291     | 45.291     |   0.0 | 55.42
Neigh   | 35.124     | 35.124     | 35.124     |   0.0 | 42.98
Comm    | 0.49951    | 0.49951    | 0.49951    |   0.0 |  0.61
Output  | 0.00019979 | 0.00019979 | 0.00019979 |   0.0 |  0.00
Modify  | 0.63099    | 0.63099    | 0.63099    |   0.0 |  0.77
Other   |            | 0.1726     |            |       |  0.21

Nlocal:    19652 ave 19652 max 19652 min
Histogram: 1 0 0 0 0 0 0 0 0 0
Nghost:    19913 ave 19913 max 19913 min
Histogram: 1 0 0 0 0 0 0 0 0 0
Neighs:    1.81295e+06 ave 1.81295e+06 max 1.81295e+06 min
Histogram: 1 0 0 0 0 0 0 0 0 0

Total # of neighbors = 1812950
Ave neighs/atom = 92.2527
Neighbor list builds = 495
Dangerous builds not checked
Setting up Verlet run ...
  Unit style    : metal
  Current step  : 60495
  Time step     : 0.001
Per MPI rank memory allocation (min/avg/max) = 18.96 | 18.96 | 18.96 Mbytes
Step Temp Press TotEng PotEng Enthalpy 
   60495    1904.1813    469.71921   -72654.784   -77491.578   -72583.606 
   62000    1914.4217   -398.98423   -72709.338   -77572.144   -72769.741 
Loop time of 261.171 on 1 procs for 1505 steps with 19652 atoms

Performance: 0.498 ns/day, 48.204 hours/ns, 5.762 timesteps/s
99.9% CPU use with 1 MPI tasks x no OpenMP threads

MPI task timing breakdown:
Section |  min time  |  avg time  |  max time  |%varavg| %total
---------------------------------------------------------------
Pair    | 144.67     | 144.67     | 144.67     |   0.0 | 55.39
Neigh   | 112.24     | 112.24     | 112.24     |   0.0 | 42.98
Comm    | 1.6113     | 1.6113     | 1.6113     |   0.0 |  0.62
Output  | 0.065646   | 0.065646   | 0.065646   |   0.0 |  0.03
Modify  | 2.0278     | 2.0278     | 2.0278     |   0.0 |  0.78
Other   |            | 0.5494     |            |       |  0.21

Nlocal:    19652 ave 19652 max 19652 min
Histogram: 1 0 0 0 0 0 0 0 0 0
Nghost:    20012 ave 20012 max 20012 min
Histogram: 1 0 0 0 0 0 0 0 0 0
Neighs:    1.81514e+06 ave 1.81514e+06 max 1.81514e+06 min
Histogram: 1 0 0 0 0 0 0 0 0 0

Total # of neighbors = 1815142
Ave neighs/atom = 92.3642
Neighbor list builds = 1505
Dangerous builds not checked
Setting up Verlet run ...
  Unit style    : metal
  Current step  : 62000
  Time step     : 0.001
Per MPI rank memory allocation (min/avg/max) = 18.96 | 18.96 | 18.96 Mbytes
Step Temp Press TotEng PotEng Enthalpy 
   62000    1914.4217   -398.98423   -72709.338   -77572.144   -72769.741 
   62495    1869.7778   -435.74376   -72955.895   -77705.301    -73021.75 
Loop time of 87.2036 on 1 procs for 495 steps with 19652 atoms

Performance: 0.490 ns/day, 48.936 hours/ns, 5.676 timesteps/s
99.8% CPU use with 1 MPI tasks x no OpenMP threads

MPI task timing breakdown:
Section |  min time  |  avg time  |  max time  |%varavg| %total
---------------------------------------------------------------
Pair    | 48.228     | 48.228     | 48.228     |   0.0 | 55.31
Neigh   | 37.549     | 37.549     | 37.549     |   0.0 | 43.06
Comm    | 0.54122    | 0.54122    | 0.54122    |   0.0 |  0.62
Output  | 0.00023007 | 0.00023007 | 0.00023007 |   0.0 |  0.00
Modify  | 0.69586    | 0.69586    | 0.69586    |   0.0 |  0.80
Other   |            | 0.1884     |            |       |  0.22

Nlocal:    19652 ave 19652 max 19652 min
Histogram: 1 0 0 0 0 0 0 0 0 0
Nghost:    19907 ave 19907 max 19907 min
Histogram: 1 0 0 0 0 0 0 0 0 0
Neighs:    1.81766e+06 ave 1.81766e+06 max 1.81766e+06 min
Histogram: 1 0 0 0 0 0 0 0 0 0

Total # of neighbors = 1817665
Ave neighs/atom = 92.4926
Neighbor list builds = 495
Dangerous builds not checked
Setting up Verlet run ...
  Unit style    : metal
  Current step  : 62495
  Time step     : 0.001
Per MPI rank memory allocation (min/avg/max) = 18.96 | 18.96 | 18.96 Mbytes
Step Temp Press TotEng PotEng Enthalpy 
   62495    1869.7778   -435.74376   -72955.895   -77705.301    -73021.75 
   64000    1863.3534    62.248143   -73050.021   -77783.108   -73040.627 
Loop time of 270.786 on 1 procs for 1505 steps with 19652 atoms

Performance: 0.480 ns/day, 49.979 hours/ns, 5.558 timesteps/s
99.3% CPU use with 1 MPI tasks x no OpenMP threads

MPI task timing breakdown:
Section |  min time  |  avg time  |  max time  |%varavg| %total
---------------------------------------------------------------
Pair    | 149.63     | 149.63     | 149.63     |   0.0 | 55.26
Neigh   | 115.22     | 115.22     | 115.22     |   0.0 | 42.55
Comm    | 1.6671     | 1.6671     | 1.6671     |   0.0 |  0.62
Output  | 1.6019     | 1.6019     | 1.6019     |   0.0 |  0.59
Modify  | 2.0995     | 2.0995     | 2.0995     |   0.0 |  0.78
Other   |            | 0.5656     |            |       |  0.21

Nlocal:    19652 ave 19652 max 19652 min
Histogram: 1 0 0 0 0 0 0 0 0 0
Nghost:    19939 ave 19939 max 19939 min
Histogram: 1 0 0 0 0 0 0 0 0 0
Neighs:    1.81966e+06 ave 1.81966e+06 max 1.81966e+06 min
Histogram: 1 0 0 0 0 0 0 0 0 0

Total # of neighbors = 1819661
Ave neighs/atom = 92.5942
Neighbor list builds = 1505
Dangerous builds not checked
Setting up Verlet run ...
  Unit style    : metal
  Current step  : 64000
  Time step     : 0.001
Per MPI rank memory allocation (min/avg/max) = 18.96 | 18.96 | 18.96 Mbytes
Step Temp Press TotEng PotEng Enthalpy 
   64000    1863.3534    62.248143   -73050.021   -77783.108   -73040.627 
   64495    1820.3376    729.12668   -73301.779   -77925.603   -73192.027 
Loop time of 88.7575 on 1 procs for 495 steps with 19652 atoms

Performance: 0.482 ns/day, 49.808 hours/ns, 5.577 timesteps/s
99.9% CPU use with 1 MPI tasks x no OpenMP threads

MPI task timing breakdown:
Section |  min time  |  avg time  |  max time  |%varavg| %total
---------------------------------------------------------------
Pair    | 49.546     | 49.546     | 49.546     |   0.0 | 55.82
Neigh   | 37.768     | 37.768     | 37.768     |   0.0 | 42.55
Comm    | 0.54974    | 0.54974    | 0.54974    |   0.0 |  0.62
Output  | 0.00019217 | 0.00019217 | 0.00019217 |   0.0 |  0.00
Modify  | 0.70283    | 0.70283    | 0.70283    |   0.0 |  0.79
Other   |            | 0.1907     |            |       |  0.21

Nlocal:    19652 ave 19652 max 19652 min
Histogram: 1 0 0 0 0 0 0 0 0 0
Nghost:    19931 ave 19931 max 19931 min
Histogram: 1 0 0 0 0 0 0 0 0 0
Neighs:    1.82352e+06 ave 1.82352e+06 max 1.82352e+06 min
Histogram: 1 0 0 0 0 0 0 0 0 0

Total # of neighbors = 1823525
Ave neighs/atom = 92.7908
Neighbor list builds = 495
Dangerous builds not checked
Setting up Verlet run ...
  Unit style    : metal
  Current step  : 64495
  Time step     : 0.001
Per MPI rank memory allocation (min/avg/max) = 18.96 | 18.96 | 18.96 Mbytes
Step Temp Press TotEng PotEng Enthalpy 
   64495    1820.3376    729.12668   -73301.779   -77925.603   -73192.027 
   66000    1803.1595     119.8985   -73396.976   -77977.165   -73378.934 
Loop time of 271.538 on 1 procs for 1505 steps with 19652 atoms

Performance: 0.479 ns/day, 50.118 hours/ns, 5.542 timesteps/s
99.9% CPU use with 1 MPI tasks x no OpenMP threads

MPI task timing breakdown:
Section |  min time  |  avg time  |  max time  |%varavg| %total
---------------------------------------------------------------
Pair    | 151.28     | 151.28     | 151.28     |   0.0 | 55.71
Neigh   | 115.8      | 115.8      | 115.8      |   0.0 | 42.65
Comm    | 1.6916     | 1.6916     | 1.6916     |   0.0 |  0.62
Output  | 0.066655   | 0.066655   | 0.066655   |   0.0 |  0.02
Modify  | 2.1208     | 2.1208     | 2.1208     |   0.0 |  0.78
Other   |            | 0.5755     |            |       |  0.21

Nlocal:    19652 ave 19652 max 19652 min
Histogram: 1 0 0 0 0 0 0 0 0 0
Nghost:    20004 ave 20004 max 20004 min
Histogram: 1 0 0 0 0 0 0 0 0 0
Neighs:    1.8241e+06 ave 1.8241e+06 max 1.8241e+06 min
Histogram: 1 0 0 0 0 0 0 0 0 0

Total # of neighbors = 1824097
Ave neighs/atom = 92.8199
Neighbor list builds = 1505
Dangerous builds not checked
Setting up Verlet run ...
  Unit style    : metal
  Current step  : 66000
  Time step     : 0.001
Per MPI rank memory allocation (min/avg/max) = 18.96 | 18.96 | 18.96 Mbytes
Step Temp Press TotEng PotEng Enthalpy 
   66000    1803.1595     119.8985   -73396.976   -77977.165   -73378.934 
   66495    1763.8487    88.000231   -73616.899   -78097.236   -73603.681 
Loop time of 88.4175 on 1 procs for 495 steps with 19652 atoms

Performance: 0.484 ns/day, 49.617 hours/ns, 5.598 timesteps/s
100.0% CPU use with 1 MPI tasks x no OpenMP threads

MPI task timing breakdown:
Section |  min time  |  avg time  |  max time  |%varavg| %total
---------------------------------------------------------------
Pair    | 49.424     | 49.424     | 49.424     |   0.0 | 55.90
Neigh   | 37.575     | 37.575     | 37.575     |   0.0 | 42.50
Comm    | 0.54119    | 0.54119    | 0.54119    |   0.0 |  0.61
Output  | 0.00019813 | 0.00019813 | 0.00019813 |   0.0 |  0.00
Modify  | 0.68973    | 0.68973    | 0.68973    |   0.0 |  0.78
Other   |            | 0.1879     |            |       |  0.21

Nlocal:    19652 ave 19652 max 19652 min
Histogram: 1 0 0 0 0 0 0 0 0 0
Nghost:    20036 ave 20036 max 20036 min
Histogram: 1 0 0 0 0 0 0 0 0 0
Neighs:    1.82691e+06 ave 1.82691e+06 max 1.82691e+06 min
Histogram: 1 0 0 0 0 0 0 0 0 0

Total # of neighbors = 1826907
Ave neighs/atom = 92.9629
Neighbor list builds = 495
Dangerous builds not checked
Setting up Verlet run ...
  Unit style    : metal
  Current step  : 66495
  Time step     : 0.001
Per MPI rank memory allocation (min/avg/max) = 18.96 | 18.96 | 18.96 Mbytes
Step Temp Press TotEng PotEng Enthalpy 
   66495    1763.8487    88.000231   -73616.899   -78097.236   -73603.681 
   68000     1748.912    1106.7194   -73746.655   -78189.051   -73580.798 
Loop time of 272.118 on 1 procs for 1505 steps with 19652 atoms

Performance: 0.478 ns/day, 50.225 hours/ns, 5.531 timesteps/s
99.8% CPU use with 1 MPI tasks x no OpenMP threads

MPI task timing breakdown:
Section |  min time  |  avg time  |  max time  |%varavg| %total
---------------------------------------------------------------
Pair    | 151.51     | 151.51     | 151.51     |   0.0 | 55.68
Neigh   | 116.19     | 116.19     | 116.19     |   0.0 | 42.70
Comm    | 1.6721     | 1.6721     | 1.6721     |   0.0 |  0.61
Output  | 0.062809   | 0.062809   | 0.062809   |   0.0 |  0.02
Modify  | 2.1082     | 2.1082     | 2.1082     |   0.0 |  0.77
Other   |            | 0.5725     |            |       |  0.21

Nlocal:    19652 ave 19652 max 19652 min
Histogram: 1 0 0 0 0 0 0 0 0 0
Nghost:    20016 ave 20016 max 20016 min
Histogram: 1 0 0 0 0 0 0 0 0 0
Neighs:    1.83074e+06 ave 1.83074e+06 max 1.83074e+06 min
Histogram: 1 0 0 0 0 0 0 0 0 0

Total # of neighbors = 1830738
Ave neighs/atom = 93.1578
Neighbor list builds = 1505
Dangerous builds not checked
Setting up Verlet run ...
  Unit style    : metal
  Current step  : 68000
  Time step     : 0.001
Per MPI rank memory allocation (min/avg/max) = 18.96 | 18.96 | 18.96 Mbytes
Step Temp Press TotEng PotEng Enthalpy 
   68000     1748.912    1106.7194   -73746.655   -78189.051   -73580.798 
   68495    1727.2907   -1802.8605   -73969.067   -78356.543   -74239.001 
Loop time of 88.8778 on 1 procs for 495 steps with 19652 atoms

Performance: 0.481 ns/day, 49.875 hours/ns, 5.569 timesteps/s
100.0% CPU use with 1 MPI tasks x no OpenMP threads

MPI task timing breakdown:
Section |  min time  |  avg time  |  max time  |%varavg| %total
---------------------------------------------------------------
Pair    | 49.416     | 49.416     | 49.416     |   0.0 | 55.60
Neigh   | 38.023     | 38.023     | 38.023     |   0.0 | 42.78
Comm    | 0.55057    | 0.55057    | 0.55057    |   0.0 |  0.62
Output  | 0.00018501 | 0.00018501 | 0.00018501 |   0.0 |  0.00
Modify  | 0.69888    | 0.69888    | 0.69888    |   0.0 |  0.79
Other   |            | 0.189      |            |       |  0.21

Nlocal:    19652 ave 19652 max 19652 min
Histogram: 1 0 0 0 0 0 0 0 0 0
Nghost:    20045 ave 20045 max 20045 min
Histogram: 1 0 0 0 0 0 0 0 0 0
Neighs:    1.83243e+06 ave 1.83243e+06 max 1.83243e+06 min
Histogram: 1 0 0 0 0 0 0 0 0 0

Total # of neighbors = 1832429
Ave neighs/atom = 93.2439
Neighbor list builds = 495
Dangerous builds not checked
Setting up Verlet run ...
  Unit style    : metal
  Current step  : 68495
  Time step     : 0.001
Per MPI rank memory allocation (min/avg/max) = 18.96 | 18.96 | 18.96 Mbytes
Step Temp Press TotEng PotEng Enthalpy 
   68495    1727.2907   -1802.8605   -73969.067   -78356.543   -74239.001 
   70000    1703.1388    625.29824   -74056.464   -78382.591   -73963.008 
Loop time of 261.334 on 1 procs for 1505 steps with 19652 atoms

Performance: 0.498 ns/day, 48.234 hours/ns, 5.759 timesteps/s
99.8% CPU use with 1 MPI tasks x no OpenMP threads

MPI task timing breakdown:
Section |  min time  |  avg time  |  max time  |%varavg| %total
---------------------------------------------------------------
Pair    | 145.64     | 145.64     | 145.64     |   0.0 | 55.73
Neigh   | 111.51     | 111.51     | 111.51     |   0.0 | 42.67
Comm    | 1.5855     | 1.5855     | 1.5855     |   0.0 |  0.61
Output  | 0.051952   | 0.051952   | 0.051952   |   0.0 |  0.02
Modify  | 2.0012     | 2.0012     | 2.0012     |   0.0 |  0.77
Other   |            | 0.5451     |            |       |  0.21

Nlocal:    19652 ave 19652 max 19652 min
Histogram: 1 0 0 0 0 0 0 0 0 0
Nghost:    20041 ave 20041 max 20041 min
Histogram: 1 0 0 0 0 0 0 0 0 0
Neighs:    1.83504e+06 ave 1.83504e+06 max 1.83504e+06 min
Histogram: 1 0 0 0 0 0 0 0 0 0

Total # of neighbors = 1835037
Ave neighs/atom = 93.3766
Neighbor list builds = 1505
Dangerous builds not checked
Setting up Verlet run ...
  Unit style    : metal
  Current step  : 70000
  Time step     : 0.001
Per MPI rank memory allocation (min/avg/max) = 18.96 | 18.96 | 18.96 Mbytes
Step Temp Press TotEng PotEng Enthalpy 
   70000    1703.1388    625.29824   -74056.464   -78382.591   -73963.008 
   70495    1662.9478   -388.00312    -74341.05   -78565.089   -74398.942 
Loop time of 84.3034 on 1 procs for 495 steps with 19652 atoms

Performance: 0.507 ns/day, 47.308 hours/ns, 5.872 timesteps/s
100.0% CPU use with 1 MPI tasks x no OpenMP threads

MPI task timing breakdown:
Section |  min time  |  avg time  |  max time  |%varavg| %total
---------------------------------------------------------------
Pair    | 46.742     | 46.742     | 46.742     |   0.0 | 55.45
Neigh   | 36.194     | 36.194     | 36.194     |   0.0 | 42.93
Comm    | 0.52266    | 0.52266    | 0.52266    |   0.0 |  0.62
Output  | 0.00018501 | 0.00018501 | 0.00018501 |   0.0 |  0.00
Modify  | 0.66088    | 0.66088    | 0.66088    |   0.0 |  0.78
Other   |            | 0.1836     |            |       |  0.22

Nlocal:    19652 ave 19652 max 19652 min
Histogram: 1 0 0 0 0 0 0 0 0 0
Nghost:    20035 ave 20035 max 20035 min
Histogram: 1 0 0 0 0 0 0 0 0 0
Neighs:    1.83884e+06 ave 1.83884e+06 max 1.83884e+06 min
Histogram: 1 0 0 0 0 0 0 0 0 0

Total # of neighbors = 1838841
Ave neighs/atom = 93.5702
Neighbor list builds = 495
Dangerous builds not checked
Setting up Verlet run ...
  Unit style    : metal
  Current step  : 70495
  Time step     : 0.001
Per MPI rank memory allocation (min/avg/max) = 18.96 | 18.96 | 18.96 Mbytes
Step Temp Press TotEng PotEng Enthalpy 
   70495    1662.9478   -388.00312    -74341.05   -78565.089   -74398.942 
   72000    1657.5695   -40.681374   -74379.155   -78589.532   -74385.219 
Loop time of 262.823 on 1 procs for 1505 steps with 19652 atoms

Performance: 0.495 ns/day, 48.509 hours/ns, 5.726 timesteps/s
99.8% CPU use with 1 MPI tasks x no OpenMP threads

MPI task timing breakdown:
Section |  min time  |  avg time  |  max time  |%varavg| %total
---------------------------------------------------------------
Pair    | 146.2      | 146.2      | 146.2      |   0.0 | 55.63
Neigh   | 112.32     | 112.32     | 112.32     |   0.0 | 42.73
Comm    | 1.6394     | 1.6394     | 1.6394     |   0.0 |  0.62
Output  | 0.050051   | 0.050051   | 0.050051   |   0.0 |  0.02
Modify  | 2.0581     | 2.0581     | 2.0581     |   0.0 |  0.78
Other   |            | 0.5613     |            |       |  0.21

Nlocal:    19652 ave 19652 max 19652 min
Histogram: 1 0 0 0 0 0 0 0 0 0
Nghost:    20101 ave 20101 max 20101 min
Histogram: 1 0 0 0 0 0 0 0 0 0
Neighs:    1.8406e+06 ave 1.8406e+06 max 1.8406e+06 min
Histogram: 1 0 0 0 0 0 0 0 0 0

Total # of neighbors = 1840596
Ave neighs/atom = 93.6595
Neighbor list builds = 1505
Dangerous builds not checked
Setting up Verlet run ...
  Unit style    : metal
  Current step  : 72000
  Time step     : 0.001
Per MPI rank memory allocation (min/avg/max) = 18.96 | 18.96 | 18.96 Mbytes
Step Temp Press TotEng PotEng Enthalpy 
   72000    1657.5695   -40.681374   -74379.155   -78589.532   -74385.219 
   72495    1612.7815   -234.44446   -74661.868    -78758.48   -74696.728 
Loop time of 88.6865 on 1 procs for 495 steps with 19652 atoms

Performance: 0.482 ns/day, 49.768 hours/ns, 5.581 timesteps/s
99.9% CPU use with 1 MPI tasks x no OpenMP threads

MPI task timing breakdown:
Section |  min time  |  avg time  |  max time  |%varavg| %total
---------------------------------------------------------------
Pair    | 49.613     | 49.613     | 49.613     |   0.0 | 55.94
Neigh   | 37.652     | 37.652     | 37.652     |   0.0 | 42.45
Comm    | 0.53824    | 0.53824    | 0.53824    |   0.0 |  0.61
Output  | 0.00019813 | 0.00019813 | 0.00019813 |   0.0 |  0.00
Modify  | 0.69423    | 0.69423    | 0.69423    |   0.0 |  0.78
Other   |            | 0.1895     |            |       |  0.21

Nlocal:    19652 ave 19652 max 19652 min
Histogram: 1 0 0 0 0 0 0 0 0 0
Nghost:    20063 ave 20063 max 20063 min
Histogram: 1 0 0 0 0 0 0 0 0 0
Neighs:    1.84462e+06 ave 1.84462e+06 max 1.84462e+06 min
Histogram: 1 0 0 0 0 0 0 0 0 0

Total # of neighbors = 1844619
Ave neighs/atom = 93.8642
Neighbor list builds = 495
Dangerous builds not checked
Setting up Verlet run ...
  Unit style    : metal
  Current step  : 72495
  Time step     : 0.001
Per MPI rank memory allocation (min/avg/max) = 18.96 | 18.96 | 18.96 Mbytes
Step Temp Press TotEng PotEng Enthalpy 
   72495    1612.7815   -234.44446   -74661.868    -78758.48   -74696.728 
   74000    1591.3614    676.51041   -74819.026   -78861.229   -74718.597 
Loop time of 257.423 on 1 procs for 1505 steps with 19652 atoms

Performance: 0.505 ns/day, 47.513 hours/ns, 5.846 timesteps/s
99.9% CPU use with 1 MPI tasks x no OpenMP threads

MPI task timing breakdown:
Section |  min time  |  avg time  |  max time  |%varavg| %total
---------------------------------------------------------------
Pair    | 142.97     | 142.97     | 142.97     |   0.0 | 55.54
Neigh   | 110.25     | 110.25     | 110.25     |   0.0 | 42.83
Comm    | 1.6        | 1.6        | 1.6        |   0.0 |  0.62
Output  | 0.054423   | 0.054423   | 0.054423   |   0.0 |  0.02
Modify  | 1.999      | 1.999      | 1.999      |   0.0 |  0.78
Other   |            | 0.5417     |            |       |  0.21

Nlocal:    19652 ave 19652 max 19652 min
Histogram: 1 0 0 0 0 0 0 0 0 0
Nghost:    20125 ave 20125 max 20125 min
Histogram: 1 0 0 0 0 0 0 0 0 0
Neighs:    1.84696e+06 ave 1.84696e+06 max 1.84696e+06 min
Histogram: 1 0 0 0 0 0 0 0 0 0

Total # of neighbors = 1846961
Ave neighs/atom = 93.9834
Neighbor list builds = 1505
Dangerous builds not checked
Setting up Verlet run ...
  Unit style    : metal
  Current step  : 74000
  Time step     : 0.001
Per MPI rank memory allocation (min/avg/max) = 18.96 | 18.96 | 18.96 Mbytes
Step Temp Press TotEng PotEng Enthalpy 
   74000    1591.3614    676.51041   -74819.026   -78861.229   -74718.597 
   74495    1575.4708   -704.79545   -75045.483   -79047.323   -75149.867 
Loop time of 82.0198 on 1 procs for 495 steps with 19652 atoms

Performance: 0.521 ns/day, 46.027 hours/ns, 6.035 timesteps/s
100.0% CPU use with 1 MPI tasks x no OpenMP threads

MPI task timing breakdown:
Section |  min time  |  avg time  |  max time  |%varavg| %total
---------------------------------------------------------------
Pair    | 45.658     | 45.658     | 45.658     |   0.0 | 55.67
Neigh   | 35.056     | 35.056     | 35.056     |   0.0 | 42.74
Comm    | 0.50118    | 0.50118    | 0.50118    |   0.0 |  0.61
Output  | 0.00019097 | 0.00019097 | 0.00019097 |   0.0 |  0.00
Modify  | 0.63112    | 0.63112    | 0.63112    |   0.0 |  0.77
Other   |            | 0.1737     |            |       |  0.21

Nlocal:    19652 ave 19652 max 19652 min
Histogram: 1 0 0 0 0 0 0 0 0 0
Nghost:    20148 ave 20148 max 20148 min
Histogram: 1 0 0 0 0 0 0 0 0 0
Neighs:    1.85086e+06 ave 1.85086e+06 max 1.85086e+06 min
Histogram: 1 0 0 0 0 0 0 0 0 0

Total # of neighbors = 1850865
Ave neighs/atom = 94.182
Neighbor list builds = 495
Dangerous builds not checked
Setting up Verlet run ...
  Unit style    : metal
  Current step  : 74495
  Time step     : 0.001
Per MPI rank memory allocation (min/avg/max) = 18.96 | 18.96 | 18.96 Mbytes
Step Temp Press TotEng PotEng Enthalpy 
   74495    1575.4708   -704.79545   -75045.483   -79047.323   -75149.867 
   76000    1545.4799    1884.6717   -75127.577   -79053.237   -74848.789 
Loop time of 254.151 on 1 procs for 1505 steps with 19652 atoms

Performance: 0.512 ns/day, 46.909 hours/ns, 5.922 timesteps/s
100.0% CPU use with 1 MPI tasks x no OpenMP threads

MPI task timing breakdown:
Section |  min time  |  avg time  |  max time  |%varavg| %total
---------------------------------------------------------------
Pair    | 141.83     | 141.83     | 141.83     |   0.0 | 55.81
Neigh   | 108.23     | 108.23     | 108.23     |   0.0 | 42.58
Comm    | 1.564      | 1.564      | 1.564      |   0.0 |  0.62
Output  | 0.042115   | 0.042115   | 0.042115   |   0.0 |  0.02
Modify  | 1.9514     | 1.9514     | 1.9514     |   0.0 |  0.77
Other   |            | 0.5323     |            |       |  0.21

Nlocal:    19652 ave 19652 max 19652 min
Histogram: 1 0 0 0 0 0 0 0 0 0
Nghost:    20118 ave 20118 max 20118 min
Histogram: 1 0 0 0 0 0 0 0 0 0
Neighs:    1.85319e+06 ave 1.85319e+06 max 1.85319e+06 min
Histogram: 1 0 0 0 0 0 0 0 0 0

Total # of neighbors = 1853187
Ave neighs/atom = 94.3002
Neighbor list builds = 1505
Dangerous builds not checked
Setting up Verlet run ...
  Unit style    : metal
  Current step  : 76000
  Time step     : 0.001
Per MPI rank memory allocation (min/avg/max) = 18.96 | 18.96 | 18.96 Mbytes
Step Temp Press TotEng PotEng Enthalpy 
   76000    1545.4799    1884.6717   -75127.577   -79053.237   -74848.789 
   76495    1511.9504   -1601.5666   -75403.351   -79243.843   -75640.054 
Loop time of 79.6703 on 1 procs for 495 steps with 19652 atoms

Performance: 0.537 ns/day, 44.708 hours/ns, 6.213 timesteps/s
100.0% CPU use with 1 MPI tasks x no OpenMP threads

MPI task timing breakdown:
Section |  min time  |  avg time  |  max time  |%varavg| %total
---------------------------------------------------------------
Pair    | 44.13      | 44.13      | 44.13      |   0.0 | 55.39
Neigh   | 34.25      | 34.25      | 34.25      |   0.0 | 42.99
Comm    | 0.49747    | 0.49747    | 0.49747    |   0.0 |  0.62
Output  | 0.000211   | 0.000211   | 0.000211   |   0.0 |  0.00
Modify  | 0.62278    | 0.62278    | 0.62278    |   0.0 |  0.78
Other   |            | 0.1698     |            |       |  0.21

Nlocal:    19652 ave 19652 max 19652 min
Histogram: 1 0 0 0 0 0 0 0 0 0
Nghost:    20065 ave 20065 max 20065 min
Histogram: 1 0 0 0 0 0 0 0 0 0
Neighs:    1.85391e+06 ave 1.85391e+06 max 1.85391e+06 min
Histogram: 1 0 0 0 0 0 0 0 0 0

Total # of neighbors = 1853906
Ave neighs/atom = 94.3368
Neighbor list builds = 495
Dangerous builds not checked
Setting up Verlet run ...
  Unit style    : metal
  Current step  : 76495
  Time step     : 0.001
Per MPI rank memory allocation (min/avg/max) = 18.96 | 18.96 | 18.96 Mbytes
Step Temp Press TotEng PotEng Enthalpy 
   76495    1511.9504   -1601.5666   -75403.351   -79243.843   -75640.054 
   78000    1500.8934   -2561.2826   -75503.949   -79316.355   -75882.222 
Loop time of 244.861 on 1 procs for 1505 steps with 19652 atoms

Performance: 0.531 ns/day, 45.194 hours/ns, 6.146 timesteps/s
100.0% CPU use with 1 MPI tasks x no OpenMP threads

MPI task timing breakdown:
Section |  min time  |  avg time  |  max time  |%varavg| %total
---------------------------------------------------------------
Pair    | 135.7      | 135.7      | 135.7      |   0.0 | 55.42
Neigh   | 105.21     | 105.21     | 105.21     |   0.0 | 42.97
Comm    | 1.5101     | 1.5101     | 1.5101     |   0.0 |  0.62
Output  | 0.050348   | 0.050348   | 0.050348   |   0.0 |  0.02
Modify  | 1.8802     | 1.8802     | 1.8802     |   0.0 |  0.77
Other   |            | 0.5125     |            |       |  0.21

Nlocal:    19652 ave 19652 max 19652 min
Histogram: 1 0 0 0 0 0 0 0 0 0
Nghost:    20099 ave 20099 max 20099 min
Histogram: 1 0 0 0 0 0 0 0 0 0
Neighs:    1.85524e+06 ave 1.85524e+06 max 1.85524e+06 min
Histogram: 1 0 0 0 0 0 0 0 0 0

Total # of neighbors = 1855235
Ave neighs/atom = 94.4044
Neighbor list builds = 1505
Dangerous builds not checked
Setting up Verlet run ...
  Unit style    : metal
  Current step  : 78000
  Time step     : 0.001
Per MPI rank memory allocation (min/avg/max) = 18.96 | 18.96 | 18.96 Mbytes
Step Temp Press TotEng PotEng Enthalpy 
   78000    1500.8934   -2561.2826   -75503.949   -79316.355   -75882.222 
   78495    1463.5327    1694.4883   -75712.401   -79429.907   -75463.141 
Loop time of 79.2398 on 1 procs for 495 steps with 19652 atoms

Performance: 0.540 ns/day, 44.467 hours/ns, 6.247 timesteps/s
100.0% CPU use with 1 MPI tasks x no OpenMP threads

MPI task timing breakdown:
Section |  min time  |  avg time  |  max time  |%varavg| %total
---------------------------------------------------------------
Pair    | 43.945     | 43.945     | 43.945     |   0.0 | 55.46
Neigh   | 34.039     | 34.039     | 34.039     |   0.0 | 42.96
Comm    | 0.4823     | 0.4823     | 0.4823     |   0.0 |  0.61
Output  | 0.00019193 | 0.00019193 | 0.00019193 |   0.0 |  0.00
Modify  | 0.60748    | 0.60748    | 0.60748    |   0.0 |  0.77
Other   |            | 0.1657     |            |       |  0.21

Nlocal:    19652 ave 19652 max 19652 min
Histogram: 1 0 0 0 0 0 0 0 0 0
Nghost:    20184 ave 20184 max 20184 min
Histogram: 1 0 0 0 0 0 0 0 0 0
Neighs:    1.86234e+06 ave 1.86234e+06 max 1.86234e+06 min
Histogram: 1 0 0 0 0 0 0 0 0 0

Total # of neighbors = 1862342
Ave neighs/atom = 94.766
Neighbor list builds = 495
Dangerous builds not checked
Setting up Verlet run ...
  Unit style    : metal
  Current step  : 78495
  Time step     : 0.001
Per MPI rank memory allocation (min/avg/max) = 18.96 | 18.96 | 18.96 Mbytes
Step Temp Press TotEng PotEng Enthalpy 
   78495    1463.5327    1694.4883   -75712.401   -79429.907   -75463.141 
   80000    1448.0899   -3766.9831   -75873.179   -79551.459   -76427.853 
Loop time of 250.62 on 1 procs for 1505 steps with 19652 atoms

Performance: 0.519 ns/day, 46.257 hours/ns, 6.005 timesteps/s
99.9% CPU use with 1 MPI tasks x no OpenMP threads

MPI task timing breakdown:
Section |  min time  |  avg time  |  max time  |%varavg| %total
---------------------------------------------------------------
Pair    | 139.29     | 139.29     | 139.29     |   0.0 | 55.58
Neigh   | 107.28     | 107.28     | 107.28     |   0.0 | 42.80
Comm    | 1.5472     | 1.5472     | 1.5472     |   0.0 |  0.62
Output  | 0.050588   | 0.050588   | 0.050588   |   0.0 |  0.02
Modify  | 1.9288     | 1.9288     | 1.9288     |   0.0 |  0.77
Other   |            | 0.5257     |            |       |  0.21

Nlocal:    19652 ave 19652 max 19652 min
Histogram: 1 0 0 0 0 0 0 0 0 0
Nghost:    20146 ave 20146 max 20146 min
Histogram: 1 0 0 0 0 0 0 0 0 0
Neighs:    1.85938e+06 ave 1.85938e+06 max 1.85938e+06 min
Histogram: 1 0 0 0 0 0 0 0 0 0

Total # of neighbors = 1859378
Ave neighs/atom = 94.6152
Neighbor list builds = 1505
Dangerous builds not checked
Setting up Verlet run ...
  Unit style    : metal
  Current step  : 80000
  Time step     : 0.001
Per MPI rank memory allocation (min/avg/max) = 18.96 | 18.96 | 18.96 Mbytes
Step Temp Press TotEng PotEng Enthalpy 
   80000    1448.0899   -3766.9831   -75873.179   -79551.459   -76427.853 
   80495    1423.9809    1569.7973   -76063.087   -79680.129   -75833.022 
Loop time of 80.266 on 1 procs for 495 steps with 19652 atoms

Performance: 0.533 ns/day, 45.043 hours/ns, 6.167 timesteps/s
99.8% CPU use with 1 MPI tasks x no OpenMP threads

MPI task timing breakdown:
Section |  min time  |  avg time  |  max time  |%varavg| %total
---------------------------------------------------------------
Pair    | 44.528     | 44.528     | 44.528     |   0.0 | 55.47
Neigh   | 34.462     | 34.462     | 34.462     |   0.0 | 42.93
Comm    | 0.48732    | 0.48732    | 0.48732    |   0.0 |  0.61
Output  | 0.00023007 | 0.00023007 | 0.00023007 |   0.0 |  0.00
Modify  | 0.618      | 0.618      | 0.618      |   0.0 |  0.77
Other   |            | 0.1708     |            |       |  0.21

Nlocal:    19652 ave 19652 max 19652 min
Histogram: 1 0 0 0 0 0 0 0 0 0
Nghost:    20162 ave 20162 max 20162 min
Histogram: 1 0 0 0 0 0 0 0 0 0
Neighs:    1.86861e+06 ave 1.86861e+06 max 1.86861e+06 min
Histogram: 1 0 0 0 0 0 0 0 0 0

Total # of neighbors = 1868612
Ave neighs/atom = 95.0851
Neighbor list builds = 495
Dangerous builds not checked
Setting up Verlet run ...
  Unit style    : metal
  Current step  : 80495
  Time step     : 0.001
Per MPI rank memory allocation (min/avg/max) = 18.96 | 18.96 | 18.96 Mbytes
Step Temp Press TotEng PotEng Enthalpy 
   80495    1423.9809    1569.7973   -76063.087   -79680.129   -75833.022 
   82000    1396.6248   -3246.1502   -76309.511   -79857.065   -76785.204 
Loop time of 261.367 on 1 procs for 1505 steps with 19652 atoms

Performance: 0.498 ns/day, 48.240 hours/ns, 5.758 timesteps/s
99.8% CPU use with 1 MPI tasks x no OpenMP threads

MPI task timing breakdown:
Section |  min time  |  avg time  |  max time  |%varavg| %total
---------------------------------------------------------------
Pair    | 146.16     | 146.16     | 146.16     |   0.0 | 55.92
Neigh   | 110.96     | 110.96     | 110.96     |   0.0 | 42.45
Comm    | 1.612      | 1.612      | 1.612      |   0.0 |  0.62
Output  | 0.042922   | 0.042922   | 0.042922   |   0.0 |  0.02
Modify  | 2.0382     | 2.0382     | 2.0382     |   0.0 |  0.78
Other   |            | 0.5544     |            |       |  0.21

Nlocal:    19652 ave 19652 max 19652 min
Histogram: 1 0 0 0 0 0 0 0 0 0
Nghost:    20243 ave 20243 max 20243 min
Histogram: 1 0 0 0 0 0 0 0 0 0
Neighs:    1.86764e+06 ave 1.86764e+06 max 1.86764e+06 min
Histogram: 1 0 0 0 0 0 0 0 0 0

Total # of neighbors = 1867645
Ave neighs/atom = 95.0359
Neighbor list builds = 1505
Dangerous builds not checked
Setting up Verlet run ...
  Unit style    : metal
  Current step  : 82000
  Time step     : 0.001
Per MPI rank memory allocation (min/avg/max) = 18.96 | 18.96 | 18.96 Mbytes
Step Temp Press TotEng PotEng Enthalpy 
   82000    1396.6248   -3246.1502   -76309.511   -79857.065   -76785.204 
   82495    1367.9493    2838.1187   -76432.212   -79906.927   -76017.875 
Loop time of 87.4659 on 1 procs for 495 steps with 19652 atoms

Performance: 0.489 ns/day, 49.083 hours/ns, 5.659 timesteps/s
99.9% CPU use with 1 MPI tasks x no OpenMP threads

MPI task timing breakdown:
Section |  min time  |  avg time  |  max time  |%varavg| %total
---------------------------------------------------------------
Pair    | 48.962     | 48.962     | 48.962     |   0.0 | 55.98
Neigh   | 37.11      | 37.11      | 37.11      |   0.0 | 42.43
Comm    | 0.53121    | 0.53121    | 0.53121    |   0.0 |  0.61
Output  | 0.00020099 | 0.00020099 | 0.00020099 |   0.0 |  0.00
Modify  | 0.67947    | 0.67947    | 0.67947    |   0.0 |  0.78
Other   |            | 0.1837     |            |       |  0.21

Nlocal:    19652 ave 19652 max 19652 min
Histogram: 1 0 0 0 0 0 0 0 0 0
Nghost:    20288 ave 20288 max 20288 min
Histogram: 1 0 0 0 0 0 0 0 0 0
Neighs:    1.87474e+06 ave 1.87474e+06 max 1.87474e+06 min
Histogram: 1 0 0 0 0 0 0 0 0 0

Total # of neighbors = 1874738
Ave neighs/atom = 95.3968
Neighbor list builds = 495
Dangerous builds not checked
Setting up Verlet run ...
  Unit style    : metal
  Current step  : 82495
  Time step     : 0.001
Per MPI rank memory allocation (min/avg/max) = 18.96 | 18.96 | 18.96 Mbytes
Step Temp Press TotEng PotEng Enthalpy 
   82495    1367.9493    2838.1187   -76432.212   -79906.927   -76017.875 
   84000     1348.046   -3194.0685   -76573.539   -79997.699    -77040.64 
Loop time of 265.017 on 1 procs for 1505 steps with 19652 atoms

Performance: 0.491 ns/day, 48.914 hours/ns, 5.679 timesteps/s
99.9% CPU use with 1 MPI tasks x no OpenMP threads

MPI task timing breakdown:
Section |  min time  |  avg time  |  max time  |%varavg| %total
---------------------------------------------------------------
Pair    | 148.18     | 148.18     | 148.18     |   0.0 | 55.91
Neigh   | 112.53     | 112.53     | 112.53     |   0.0 | 42.46
Comm    | 1.6256     | 1.6256     | 1.6256     |   0.0 |  0.61
Output  | 0.052448   | 0.052448   | 0.052448   |   0.0 |  0.02
Modify  | 2.0706     | 2.0706     | 2.0706     |   0.0 |  0.78
Other   |            | 0.56       |            |       |  0.21

Nlocal:    19652 ave 19652 max 19652 min
Histogram: 1 0 0 0 0 0 0 0 0 0
Nghost:    20247 ave 20247 max 20247 min
Histogram: 1 0 0 0 0 0 0 0 0 0
Neighs:    1.87142e+06 ave 1.87142e+06 max 1.87142e+06 min
Histogram: 1 0 0 0 0 0 0 0 0 0

Total # of neighbors = 1871425
Ave neighs/atom = 95.2282
Neighbor list builds = 1505
Dangerous builds not checked
Setting up Verlet run ...
  Unit style    : metal
  Current step  : 84000
  Time step     : 0.001
Per MPI rank memory allocation (min/avg/max) = 18.96 | 18.96 | 18.96 Mbytes
Step Temp Press TotEng PotEng Enthalpy 
   84000     1348.046   -3194.0685   -76573.539   -79997.699    -77040.64 
   84495    1324.0585    2256.3556   -76778.575   -80141.805   -76450.128 
Loop time of 90.3948 on 1 procs for 495 steps with 19652 atoms

Performance: 0.473 ns/day, 50.727 hours/ns, 5.476 timesteps/s
99.9% CPU use with 1 MPI tasks x no OpenMP threads

MPI task timing breakdown:
Section |  min time  |  avg time  |  max time  |%varavg| %total
---------------------------------------------------------------
Pair    | 51.109     | 51.109     | 51.109     |   0.0 | 56.54
Neigh   | 37.833     | 37.833     | 37.833     |   0.0 | 41.85
Comm    | 0.55419    | 0.55419    | 0.55419    |   0.0 |  0.61
Output  | 0.00023794 | 0.00023794 | 0.00023794 |   0.0 |  0.00
Modify  | 0.70805    | 0.70805    | 0.70805    |   0.0 |  0.78
Other   |            | 0.1904     |            |       |  0.21

Nlocal:    19652 ave 19652 max 19652 min
Histogram: 1 0 0 0 0 0 0 0 0 0
Nghost:    20289 ave 20289 max 20289 min
Histogram: 1 0 0 0 0 0 0 0 0 0
Neighs:    1.87958e+06 ave 1.87958e+06 max 1.87958e+06 min
Histogram: 1 0 0 0 0 0 0 0 0 0

Total # of neighbors = 1879583
Ave neighs/atom = 95.6433
Neighbor list builds = 495
Dangerous builds not checked
Setting up Verlet run ...
  Unit style    : metal
  Current step  : 84495
  Time step     : 0.001
Per MPI rank memory allocation (min/avg/max) = 18.96 | 18.96 | 18.96 Mbytes
Step Temp Press TotEng PotEng Enthalpy 
   84495    1324.0585    2256.3556   -76778.575   -80141.805   -76450.128 
   86000    1291.4194   -1500.1664   -76971.111   -80251.434   -77189.513 
Loop time of 277.765 on 1 procs for 1505 steps with 19652 atoms

Performance: 0.468 ns/day, 51.267 hours/ns, 5.418 timesteps/s
99.8% CPU use with 1 MPI tasks x no OpenMP threads

MPI task timing breakdown:
Section |  min time  |  avg time  |  max time  |%varavg| %total
---------------------------------------------------------------
Pair    | 156.5      | 156.5      | 156.5      |   0.0 | 56.34
Neigh   | 116.73     | 116.73     | 116.73     |   0.0 | 42.02
Comm    | 1.7066     | 1.7066     | 1.7066     |   0.0 |  0.61
Output  | 0.060214   | 0.060214   | 0.060214   |   0.0 |  0.02
Modify  | 2.1747     | 2.1747     | 2.1747     |   0.0 |  0.78
Other   |            | 0.5905     |            |       |  0.21

Nlocal:    19652 ave 19652 max 19652 min
Histogram: 1 0 0 0 0 0 0 0 0 0
Nghost:    20199 ave 20199 max 20199 min
Histogram: 1 0 0 0 0 0 0 0 0 0
Neighs:    1.87897e+06 ave 1.87897e+06 max 1.87897e+06 min
Histogram: 1 0 0 0 0 0 0 0 0 0

Total # of neighbors = 1878969
Ave neighs/atom = 95.6121
Neighbor list builds = 1505
Dangerous builds not checked
Setting up Verlet run ...
  Unit style    : metal
  Current step  : 86000
  Time step     : 0.001
Per MPI rank memory allocation (min/avg/max) = 18.96 | 18.96 | 18.96 Mbytes
Step Temp Press TotEng PotEng Enthalpy 
   86000    1291.4194   -1500.1664   -76971.111   -80251.434   -77189.513 
   86495    1265.4462    675.42639   -77159.947   -80374.296   -77061.922 
Loop time of 86.1589 on 1 procs for 495 steps with 19652 atoms

Performance: 0.496 ns/day, 48.350 hours/ns, 5.745 timesteps/s
100.0% CPU use with 1 MPI tasks x no OpenMP threads

MPI task timing breakdown:
Section |  min time  |  avg time  |  max time  |%varavg| %total
---------------------------------------------------------------
Pair    | 47.986     | 47.986     | 47.986     |   0.0 | 55.69
Neigh   | 36.81      | 36.81      | 36.81      |   0.0 | 42.72
Comm    | 0.5196     | 0.5196     | 0.5196     |   0.0 |  0.60
Output  | 0.00026798 | 0.00026798 | 0.00026798 |   0.0 |  0.00
Modify  | 0.66328    | 0.66328    | 0.66328    |   0.0 |  0.77
Other   |            | 0.1799     |            |       |  0.21

Nlocal:    19652 ave 19652 max 19652 min
Histogram: 1 0 0 0 0 0 0 0 0 0
Nghost:    20276 ave 20276 max 20276 min
Histogram: 1 0 0 0 0 0 0 0 0 0
Neighs:    1.88456e+06 ave 1.88456e+06 max 1.88456e+06 min
Histogram: 1 0 0 0 0 0 0 0 0 0

Total # of neighbors = 1884560
Ave neighs/atom = 95.8966
Neighbor list builds = 495
Dangerous builds not checked
Setting up Verlet run ...
  Unit style    : metal
  Current step  : 86495
  Time step     : 0.001
Per MPI rank memory allocation (min/avg/max) = 18.96 | 18.96 | 18.96 Mbytes
Step Temp Press TotEng PotEng Enthalpy 
   86495    1265.4462    675.42639   -77159.947   -80374.296   -77061.922 
   88000    1264.5027    828.08459   -77242.918    -80454.87   -77122.858 
Loop time of 285.873 on 1 procs for 1505 steps with 19652 atoms

Performance: 0.455 ns/day, 52.764 hours/ns, 5.265 timesteps/s
99.8% CPU use with 1 MPI tasks x no OpenMP threads

MPI task timing breakdown:
Section |  min time  |  avg time  |  max time  |%varavg| %total
---------------------------------------------------------------
Pair    | 154        | 154        | 154        |   0.0 | 53.87
Neigh   | 127.45     | 127.45     | 127.45     |   0.0 | 44.58
Comm    | 1.6667     | 1.6667     | 1.6667     |   0.0 |  0.58
Output  | 0.06833    | 0.06833    | 0.06833    |   0.0 |  0.02
Modify  | 2.1078     | 2.1078     | 2.1078     |   0.0 |  0.74
Other   |            | 0.5744     |            |       |  0.20

Nlocal:    19652 ave 19652 max 19652 min
Histogram: 1 0 0 0 0 0 0 0 0 0
Nghost:    20318 ave 20318 max 20318 min
Histogram: 1 0 0 0 0 0 0 0 0 0
Neighs:    1.88597e+06 ave 1.88597e+06 max 1.88597e+06 min
Histogram: 1 0 0 0 0 0 0 0 0 0

Total # of neighbors = 1885968
Ave neighs/atom = 95.9682
Neighbor list builds = 1505
Dangerous builds not checked
Setting up Verlet run ...
  Unit style    : metal
  Current step  : 88000
  Time step     : 0.001
Per MPI rank memory allocation (min/avg/max) = 18.96 | 18.96 | 18.96 Mbytes
Step Temp Press TotEng PotEng Enthalpy 
   88000    1264.5027    828.08459   -77242.918    -80454.87   -77122.858 
   88495    1218.5807   -683.67987   -77501.757   -80597.063   -77600.762 
Loop time of 90.7727 on 1 procs for 495 steps with 19652 atoms

Performance: 0.471 ns/day, 50.939 hours/ns, 5.453 timesteps/s
100.0% CPU use with 1 MPI tasks x no OpenMP threads

MPI task timing breakdown:
Section |  min time  |  avg time  |  max time  |%varavg| %total
---------------------------------------------------------------
Pair    | 48.351     | 48.351     | 48.351     |   0.0 | 53.27
Neigh   | 41.039     | 41.039     | 41.039     |   0.0 | 45.21
Comm    | 0.52623    | 0.52623    | 0.52623    |   0.0 |  0.58
Output  | 0.00024295 | 0.00024295 | 0.00024295 |   0.0 |  0.00
Modify  | 0.67302    | 0.67302    | 0.67302    |   0.0 |  0.74
Other   |            | 0.1833     |            |       |  0.20

Nlocal:    19652 ave 19652 max 19652 min
Histogram: 1 0 0 0 0 0 0 0 0 0
Nghost:    20297 ave 20297 max 20297 min
Histogram: 1 0 0 0 0 0 0 0 0 0
Neighs:    1.88767e+06 ave 1.88767e+06 max 1.88767e+06 min
Histogram: 1 0 0 0 0 0 0 0 0 0

Total # of neighbors = 1887674
Ave neighs/atom = 96.0551
Neighbor list builds = 495
Dangerous builds not checked
Setting up Verlet run ...
  Unit style    : metal
  Current step  : 88495
  Time step     : 0.001
Per MPI rank memory allocation (min/avg/max) = 18.96 | 18.96 | 18.96 Mbytes
Step Temp Press TotEng PotEng Enthalpy 
   88495    1218.5807   -683.67987   -77501.757   -80597.063   -77600.762 
   90000    1207.7322    999.18181   -77625.542   -80693.292   -77481.207 
Loop time of 291.104 on 1 procs for 1505 steps with 19652 atoms

Performance: 0.447 ns/day, 53.729 hours/ns, 5.170 timesteps/s
99.9% CPU use with 1 MPI tasks x no OpenMP threads

MPI task timing breakdown:
Section |  min time  |  avg time  |  max time  |%varavg| %total
---------------------------------------------------------------
Pair    | 155.94     | 155.94     | 155.94     |   0.0 | 53.57
Neigh   | 130.61     | 130.61     | 130.61     |   0.0 | 44.87
Comm    | 1.7244     | 1.7244     | 1.7244     |   0.0 |  0.59
Output  | 0.069196   | 0.069196   | 0.069196   |   0.0 |  0.02
Modify  | 2.1651     | 2.1651     | 2.1651     |   0.0 |  0.74
Other   |            | 0.5888     |            |       |  0.20

Nlocal:    19652 ave 19652 max 19652 min
Histogram: 1 0 0 0 0 0 0 0 0 0
Nghost:    20337 ave 20337 max 20337 min
Histogram: 1 0 0 0 0 0 0 0 0 0
Neighs:    1.89181e+06 ave 1.89181e+06 max 1.89181e+06 min
Histogram: 1 0 0 0 0 0 0 0 0 0

Total # of neighbors = 1891812
Ave neighs/atom = 96.2656
Neighbor list builds = 1505
Dangerous builds not checked
Setting up Verlet run ...
  Unit style    : metal
  Current step  : 90000
  Time step     : 0.001
Per MPI rank memory allocation (min/avg/max) = 18.96 | 18.96 | 18.96 Mbytes
Step Temp Press TotEng PotEng Enthalpy 
   90000    1207.7322    999.18181   -77625.542   -80693.292   -77481.207 
   90495    1169.3162   -1810.6384   -77851.307   -80821.476   -78112.694 
Loop time of 97.4867 on 1 procs for 495 steps with 19652 atoms

Performance: 0.439 ns/day, 54.706 hours/ns, 5.078 timesteps/s
99.8% CPU use with 1 MPI tasks x no OpenMP threads

MPI task timing breakdown:
Section |  min time  |  avg time  |  max time  |%varavg| %total
---------------------------------------------------------------
Pair    | 52.401     | 52.401     | 52.401     |   0.0 | 53.75
Neigh   | 43.582     | 43.582     | 43.582     |   0.0 | 44.71
Comm    | 0.57587    | 0.57587    | 0.57587    |   0.0 |  0.59
Output  | 0.00025797 | 0.00025797 | 0.00025797 |   0.0 |  0.00
Modify  | 0.72863    | 0.72863    | 0.72863    |   0.0 |  0.75
Other   |            | 0.1994     |            |       |  0.20

[...]
Setting up Verlet run ...
  Unit style    : metal
  Current step  : 120000
  Time step     : 0.001
Per MPI rank memory allocation (min/avg/max) = 19.34 | 19.34 | 19.34 Mbytes
Step Temp Press TotEng PotEng Enthalpy 
  120000    450.46303    108.58276   -82449.186   -83593.403   -82434.123 
  120495    421.17196   -649.96407   -82616.265    -83686.08   -82706.345 
Loop time of 117.098 on 1 procs for 495 steps with 19652 atoms

Performance: 0.365 ns/day, 65.711 hours/ns, 4.227 timesteps/s
87.1% CPU use with 1 MPI tasks x no OpenMP threads

MPI task timing breakdown:
Section |  min time  |  avg time  |  max time  |%varavg| %total
---------------------------------------------------------------
Pair    | 63.836     | 63.836     | 63.836     |   0.0 | 54.52
Neigh   | 51.482     | 51.482     | 51.482     |   0.0 | 43.96
Comm    | 0.64585    | 0.64585    | 0.64585    |   0.0 |  0.55
Output  | 0.00030088 | 0.00030088 | 0.00030088 |   0.0 |  0.00
Modify  | 0.89874    | 0.89874    | 0.89874    |   0.0 |  0.77
Other   |            | 0.2346     |            |       |  0.20

Nlocal:    19652 ave 19652 max 19652 min
Histogram: 1 0 0 0 0 0 0 0 0 0
Nghost:    20679 ave 20679 max 20679 min
Histogram: 1 0 0 0 0 0 0 0 0 0
Neighs:    1.96918e+06 ave 1.96918e+06 max 1.96918e+06 min
Histogram: 1 0 0 0 0 0 0 0 0 0

Total # of neighbors = 1969180
Ave neighs/atom = 100.203
Neighbor list builds = 495
Dangerous builds not checked
Setting up Verlet run ...
  Unit style    : metal
  Current step  : 120495
  Time step     : 0.001
Per MPI rank memory allocation (min/avg/max) = 19.34 | 19.34 | 19.34 Mbytes
Step Temp Press TotEng PotEng Enthalpy 
  120495    421.17196   -649.96407   -82616.265    -83686.08   -82706.345 
  122000    400.53732     12.06372   -82725.169    -83742.57   -82723.499 
Loop time of 346.074 on 1 procs for 1505 steps with 19652 atoms

Performance: 0.376 ns/day, 63.875 hours/ns, 4.349 timesteps/s
88.1% CPU use with 1 MPI tasks x no OpenMP threads

MPI task timing breakdown:
Section |  min time  |  avg time  |  max time  |%varavg| %total
---------------------------------------------------------------
Pair    | 186.33     | 186.33     | 186.33     |   0.0 | 53.84
Neigh   | 154.49     | 154.49     | 154.49     |   0.0 | 44.64
Comm    | 1.923      | 1.923      | 1.923      |   0.0 |  0.56
Output  | 0.066577   | 0.066577   | 0.066577   |   0.0 |  0.02
Modify  | 2.5777     | 2.5777     | 2.5777     |   0.0 |  0.74
Other   |            | 0.6924     |            |       |  0.20

Nlocal:    19652 ave 19652 max 19652 min
Histogram: 1 0 0 0 0 0 0 0 0 0
Nghost:    20681 ave 20681 max 20681 min
Histogram: 1 0 0 0 0 0 0 0 0 0
Neighs:    1.9714e+06 ave 1.9714e+06 max 1.9714e+06 min
Histogram: 1 0 0 0 0 0 0 0 0 0

Total # of neighbors = 1971397
Ave neighs/atom = 100.315
Neighbor list builds = 1505
Dangerous builds not checked
Setting up Verlet run ...
  Unit style    : metal
  Current step  : 122000
  Time step     : 0.001
Per MPI rank memory allocation (min/avg/max) = 19.34 | 19.34 | 19.34 Mbytes
Step Temp Press TotEng PotEng Enthalpy 
  122000    400.53732     12.06372   -82725.169    -83742.57   -82723.499 
  122495    370.74254   -278.76063     -82885.9    -83827.62   -82924.443 
Loop time of 107.494 on 1 procs for 495 steps with 19652 atoms

Performance: 0.398 ns/day, 60.322 hours/ns, 4.605 timesteps/s
91.3% CPU use with 1 MPI tasks x no OpenMP threads

MPI task timing breakdown:
Section |  min time  |  avg time  |  max time  |%varavg| %total
---------------------------------------------------------------
Pair    | 58.655     | 58.655     | 58.655     |   0.0 | 54.57
Neigh   | 47.07      | 47.07      | 47.07      |   0.0 | 43.79
Comm    | 0.75993    | 0.75993    | 0.75993    |   0.0 |  0.71
Output  | 0.0033939  | 0.0033939  | 0.0033939  |   0.0 |  0.00
Modify  | 0.79399    | 0.79399    | 0.79399    |   0.0 |  0.74
Other   |            | 0.2121     |            |       |  0.20

Nlocal:    19652 ave 19652 max 19652 min
Histogram: 1 0 0 0 0 0 0 0 0 0
Nghost:    20692 ave 20692 max 20692 min
Histogram: 1 0 0 0 0 0 0 0 0 0
Neighs:    1.97373e+06 ave 1.97373e+06 max 1.97373e+06 min
Histogram: 1 0 0 0 0 0 0 0 0 0

Total # of neighbors = 1973729
Ave neighs/atom = 100.434
Neighbor list builds = 495
Dangerous builds not checked
Setting up Verlet run ...
  Unit style    : metal
  Current step  : 122495
  Time step     : 0.001
Per MPI rank memory allocation (min/avg/max) = 19.34 | 19.34 | 19.34 Mbytes
Step Temp Press TotEng PotEng Enthalpy 
  122495    370.74254   -278.76063     -82885.9    -83827.62   -82924.443 
  124000    352.71961    43.213209   -82998.868   -83894.808   -82992.899 
Loop time of 336.816 on 1 procs for 1505 steps with 19652 atoms

Performance: 0.386 ns/day, 62.166 hours/ns, 4.468 timesteps/s
90.1% CPU use with 1 MPI tasks x no OpenMP threads

MPI task timing breakdown:
Section |  min time  |  avg time  |  max time  |%varavg| %total
---------------------------------------------------------------
Pair    | 182.87     | 182.87     | 182.87     |   0.0 | 54.29
Neigh   | 148.64     | 148.64     | 148.64     |   0.0 | 44.13
Comm    | 1.9638     | 1.9638     | 1.9638     |   0.0 |  0.58
Output  | 0.13434    | 0.13434    | 0.13434    |   0.0 |  0.04
Modify  | 2.5413     | 2.5413     | 2.5413     |   0.0 |  0.75
Other   |            | 0.667      |            |       |  0.20

Nlocal:    19652 ave 19652 max 19652 min
Histogram: 1 0 0 0 0 0 0 0 0 0
Nghost:    20713 ave 20713 max 20713 min
Histogram: 1 0 0 0 0 0 0 0 0 0
Neighs:    1.97648e+06 ave 1.97648e+06 max 1.97648e+06 min
Histogram: 1 0 0 0 0 0 0 0 0 0

Total # of neighbors = 1976481
Ave neighs/atom = 100.574
Neighbor list builds = 1505
Dangerous builds not checked
Setting up Verlet run ...
  Unit style    : metal
  Current step  : 124000
  Time step     : 0.001
Per MPI rank memory allocation (min/avg/max) = 19.34 | 19.34 | 19.34 Mbytes
Step Temp Press TotEng PotEng Enthalpy 
  124000    352.71961    43.213209   -82998.868   -83894.808   -82992.899 
  124495    322.12278   -402.82888    -83149.82   -83968.041   -83205.417 
Loop time of 113.613 on 1 procs for 495 steps with 19652 atoms

Performance: 0.376 ns/day, 63.756 hours/ns, 4.357 timesteps/s
89.2% CPU use with 1 MPI tasks x no OpenMP threads

MPI task timing breakdown:
Section |  min time  |  avg time  |  max time  |%varavg| %total
---------------------------------------------------------------
Pair    | 62.232     | 62.232     | 62.232     |   0.0 | 54.78
Neigh   | 49.69      | 49.69      | 49.69      |   0.0 | 43.74
Comm    | 0.64245    | 0.64245    | 0.64245    |   0.0 |  0.57
Output  | 0.00029492 | 0.00029492 | 0.00029492 |   0.0 |  0.00
Modify  | 0.81837    | 0.81837    | 0.81837    |   0.0 |  0.72
Other   |            | 0.2294     |            |       |  0.20

Nlocal:    19652 ave 19652 max 19652 min
Histogram: 1 0 0 0 0 0 0 0 0 0
Nghost:    20688 ave 20688 max 20688 min
Histogram: 1 0 0 0 0 0 0 0 0 0
Neighs:    1.97802e+06 ave 1.97802e+06 max 1.97802e+06 min
Histogram: 1 0 0 0 0 0 0 0 0 0

Total # of neighbors = 1978022
Ave neighs/atom = 100.652
Neighbor list builds = 495
Dangerous builds not checked
Setting up Verlet run ...
  Unit style    : metal
  Current step  : 124495
  Time step     : 0.001
Per MPI rank memory allocation (min/avg/max) = 19.34 | 19.34 | 19.34 Mbytes
Step Temp Press TotEng PotEng Enthalpy 
  124495    322.12278   -402.82888    -83149.82   -83968.041   -83205.417 
  126000    301.40215   -312.28409   -83260.693   -84026.282   -83303.754 
Loop time of 326.664 on 1 procs for 1505 steps with 19652 atoms

Performance: 0.398 ns/day, 60.292 hours/ns, 4.607 timesteps/s
93.5% CPU use with 1 MPI tasks x no OpenMP threads

MPI task timing breakdown:
Section |  min time  |  avg time  |  max time  |%varavg| %total
---------------------------------------------------------------
Pair    | 178        | 178        | 178        |   0.0 | 54.49
Neigh   | 143.64     | 143.64     | 143.64     |   0.0 | 43.97
Comm    | 1.8469     | 1.8469     | 1.8469     |   0.0 |  0.57
Output  | 0.067449   | 0.067449   | 0.067449   |   0.0 |  0.02
Modify  | 2.4503     | 2.4503     | 2.4503     |   0.0 |  0.75
Other   |            | 0.659      |            |       |  0.20

Nlocal:    19652 ave 19652 max 19652 min
Histogram: 1 0 0 0 0 0 0 0 0 0
Nghost:    20728 ave 20728 max 20728 min
Histogram: 1 0 0 0 0 0 0 0 0 0
Neighs:    1.97994e+06 ave 1.97994e+06 max 1.97994e+06 min
Histogram: 1 0 0 0 0 0 0 0 0 0

Total # of neighbors = 1979939
Ave neighs/atom = 100.75
Neighbor list builds = 1505
Dangerous builds not checked
Setting up Verlet run ...
  Unit style    : metal
  Current step  : 126000
  Time step     : 0.001
Per MPI rank memory allocation (min/avg/max) = 19.34 | 19.34 | 19.34 Mbytes
Step Temp Press TotEng PotEng Enthalpy 
  126000    301.40215   -312.28409   -83260.693   -84026.282   -83303.754 
  126495    273.69938   -54.698082   -83406.507   -84101.729   -83414.041 
Loop time of 105.37 on 1 procs for 495 steps with 19652 atoms

Performance: 0.406 ns/day, 59.130 hours/ns, 4.698 timesteps/s
96.8% CPU use with 1 MPI tasks x no OpenMP threads

MPI task timing breakdown:
Section |  min time  |  avg time  |  max time  |%varavg| %total
---------------------------------------------------------------
Pair    | 57.808     | 57.808     | 57.808     |   0.0 | 54.86
Neigh   | 45.978     | 45.978     | 45.978     |   0.0 | 43.63
Comm    | 0.60734    | 0.60734    | 0.60734    |   0.0 |  0.58
Output  | 0.00032306 | 0.00032306 | 0.00032306 |   0.0 |  0.00
Modify  | 0.7674     | 0.7674     | 0.7674     |   0.0 |  0.73
Other   |            | 0.2085     |            |       |  0.20

Nlocal:    19652 ave 19652 max 19652 min
Histogram: 1 0 0 0 0 0 0 0 0 0
Nghost:    20740 ave 20740 max 20740 min
Histogram: 1 0 0 0 0 0 0 0 0 0
Neighs:    1.98283e+06 ave 1.98283e+06 max 1.98283e+06 min
Histogram: 1 0 0 0 0 0 0 0 0 0

Total # of neighbors = 1982826
Ave neighs/atom = 100.897
Neighbor list builds = 495
Dangerous builds not checked
Setting up Verlet run ...
  Unit style    : metal
  Current step  : 126495
  Time step     : 0.001
Per MPI rank memory allocation (min/avg/max) = 19.34 | 19.34 | 19.34 Mbytes
Step Temp Press TotEng PotEng Enthalpy 
  126495    273.69938   -54.698082   -83406.507   -84101.729   -83414.041 
  128000    249.92467   -809.68526   -83525.622   -84160.453    -83637.09 
Loop time of 321.237 on 1 procs for 1505 steps with 19652 atoms

Performance: 0.405 ns/day, 59.291 hours/ns, 4.685 timesteps/s
94.6% CPU use with 1 MPI tasks x no OpenMP threads

MPI task timing breakdown:
Section |  min time  |  avg time  |  max time  |%varavg| %total
---------------------------------------------------------------
Pair    | 174.82     | 174.82     | 174.82     |   0.0 | 54.42
Neigh   | 141.6      | 141.6      | 141.6      |   0.0 | 44.08
Comm    | 1.7704     | 1.7704     | 1.7704     |   0.0 |  0.55
Output  | 0.070303   | 0.070303   | 0.070303   |   0.0 |  0.02
Modify  | 2.3464     | 2.3464     | 2.3464     |   0.0 |  0.73
Other   |            | 0.6292     |            |       |  0.20

Nlocal:    19652 ave 19652 max 19652 min
Histogram: 1 0 0 0 0 0 0 0 0 0
Nghost:    20724 ave 20724 max 20724 min
Histogram: 1 0 0 0 0 0 0 0 0 0
Neighs:    1.98378e+06 ave 1.98378e+06 max 1.98378e+06 min
Histogram: 1 0 0 0 0 0 0 0 0 0

Total # of neighbors = 1983782
Ave neighs/atom = 100.946
Neighbor list builds = 1505
Dangerous builds not checked
Setting up Verlet run ...
  Unit style    : metal
  Current step  : 128000
  Time step     : 0.001
Per MPI rank memory allocation (min/avg/max) = 19.34 | 19.34 | 19.34 Mbytes
Step Temp Press TotEng PotEng Enthalpy 
  128000    249.92467   -809.68526   -83525.622   -84160.453    -83637.09 
  128495    225.22651    755.95283   -83666.264    -84238.36   -83562.379 
Loop time of 102.135 on 1 procs for 495 steps with 19652 atoms

Performance: 0.419 ns/day, 57.315 hours/ns, 4.847 timesteps/s
95.4% CPU use with 1 MPI tasks x no OpenMP threads

MPI task timing breakdown:
Section |  min time  |  avg time  |  max time  |%varavg| %total
---------------------------------------------------------------
Pair    | 55.619     | 55.619     | 55.619     |   0.0 | 54.46
Neigh   | 45.001     | 45.001     | 45.001     |   0.0 | 44.06
Comm    | 0.56781    | 0.56781    | 0.56781    |   0.0 |  0.56
Output  | 0.00022483 | 0.00022483 | 0.00022483 |   0.0 |  0.00
Modify  | 0.73098    | 0.73098    | 0.73098    |   0.0 |  0.72
Other   |            | 0.2154     |            |       |  0.21

Nlocal:    19652 ave 19652 max 19652 min
Histogram: 1 0 0 0 0 0 0 0 0 0
Nghost:    20770 ave 20770 max 20770 min
Histogram: 1 0 0 0 0 0 0 0 0 0
Neighs:    1.98729e+06 ave 1.98729e+06 max 1.98729e+06 min
Histogram: 1 0 0 0 0 0 0 0 0 0

Total # of neighbors = 1987290
Ave neighs/atom = 101.124
Neighbor list builds = 495
Dangerous builds not checked
Setting up Verlet run ...
  Unit style    : metal
  Current step  : 128495
  Time step     : 0.001
Per MPI rank memory allocation (min/avg/max) = 19.34 | 19.34 | 19.34 Mbytes
Step Temp Press TotEng PotEng Enthalpy 
  128495    225.22651    755.95283   -83666.264    -84238.36   -83562.379 
  130000    201.05156    893.48329   -83793.222   -84303.912   -83670.563 
Loop time of 324.616 on 1 procs for 1505 steps with 19652 atoms

Performance: 0.401 ns/day, 59.914 hours/ns, 4.636 timesteps/s
95.4% CPU use with 1 MPI tasks x no OpenMP threads

MPI task timing breakdown:
Section |  min time  |  avg time  |  max time  |%varavg| %total
---------------------------------------------------------------
Pair    | 177.39     | 177.39     | 177.39     |   0.0 | 54.65
Neigh   | 142.19     | 142.19     | 142.19     |   0.0 | 43.80
Comm    | 1.8898     | 1.8898     | 1.8898     |   0.0 |  0.58
Output  | 0.07059    | 0.07059    | 0.07059    |   0.0 |  0.02
Modify  | 2.4237     | 2.4237     | 2.4237     |   0.0 |  0.75
Other   |            | 0.6482     |            |       |  0.20

Nlocal:    19652 ave 19652 max 19652 min
Histogram: 1 0 0 0 0 0 0 0 0 0
Nghost:    20776 ave 20776 max 20776 min
Histogram: 1 0 0 0 0 0 0 0 0 0
Neighs:    1.99002e+06 ave 1.99002e+06 max 1.99002e+06 min
Histogram: 1 0 0 0 0 0 0 0 0 0

Total # of neighbors = 1990021
Ave neighs/atom = 101.263
Neighbor list builds = 1505
Dangerous builds not checked
Setting up Verlet run ...
  Unit style    : metal
  Current step  : 130000
  Time step     : 0.001
Per MPI rank memory allocation (min/avg/max) = 19.34 | 19.34 | 19.34 Mbytes
Step Temp Press TotEng PotEng Enthalpy 
  130000    201.05156    893.48329   -83793.222   -84303.912   -83670.563 
  130495    175.17638    642.36789    -83922.04   -84367.004   -83833.925 
Loop time of 109.179 on 1 procs for 495 steps with 19652 atoms

Performance: 0.392 ns/day, 61.268 hours/ns, 4.534 timesteps/s
91.6% CPU use with 1 MPI tasks x no OpenMP threads

MPI task timing breakdown:
Section |  min time  |  avg time  |  max time  |%varavg| %total
---------------------------------------------------------------
Pair    | 59.192     | 59.192     | 59.192     |   0.0 | 54.21
Neigh   | 48.349     | 48.349     | 48.349     |   0.0 | 44.28
Comm    | 0.594      | 0.594      | 0.594      |   0.0 |  0.54
Output  | 0.0069811  | 0.0069811  | 0.0069811  |   0.0 |  0.01
Modify  | 0.82369    | 0.82369    | 0.82369    |   0.0 |  0.75
Other   |            | 0.2142     |            |       |  0.20

Nlocal:    19652 ave 19652 max 19652 min
Histogram: 1 0 0 0 0 0 0 0 0 0
Nghost:    20779 ave 20779 max 20779 min
Histogram: 1 0 0 0 0 0 0 0 0 0
Neighs:    1.99174e+06 ave 1.99174e+06 max 1.99174e+06 min
Histogram: 1 0 0 0 0 0 0 0 0 0

Total # of neighbors = 1991735
Ave neighs/atom = 101.35
Neighbor list builds = 495
Dangerous builds not checked
Setting up Verlet run ...
  Unit style    : metal
  Current step  : 130495
  Time step     : 0.001
Per MPI rank memory allocation (min/avg/max) = 19.34 | 19.34 | 19.34 Mbytes
Step Temp Press TotEng PotEng Enthalpy 
  130495    175.17638    642.36789    -83922.04   -84367.004   -83833.925 
  132000     150.4105   -354.18894   -84055.021   -84437.078   -84103.583 
Loop time of 339.355 on 1 procs for 1505 steps with 19652 atoms

Performance: 0.383 ns/day, 62.635 hours/ns, 4.435 timesteps/s
90.3% CPU use with 1 MPI tasks x no OpenMP threads

MPI task timing breakdown:
Section |  min time  |  avg time  |  max time  |%varavg| %total
---------------------------------------------------------------
Pair    | 185.28     | 185.28     | 185.28     |   0.0 | 54.60
Neigh   | 148.74     | 148.74     | 148.74     |   0.0 | 43.83
Comm    | 1.9659     | 1.9659     | 1.9659     |   0.0 |  0.58
Output  | 0.053915   | 0.053915   | 0.053915   |   0.0 |  0.02
Modify  | 2.6202     | 2.6202     | 2.6202     |   0.0 |  0.77
Other   |            | 0.6961     |            |       |  0.21

Nlocal:    19652 ave 19652 max 19652 min
Histogram: 1 0 0 0 0 0 0 0 0 0
Nghost:    20795 ave 20795 max 20795 min
Histogram: 1 0 0 0 0 0 0 0 0 0
Neighs:    1.99282e+06 ave 1.99282e+06 max 1.99282e+06 min
Histogram: 1 0 0 0 0 0 0 0 0 0

Total # of neighbors = 1992822
Ave neighs/atom = 101.406
Neighbor list builds = 1505
Dangerous builds not checked
Setting up Verlet run ...
  Unit style    : metal
  Current step  : 132000
  Time step     : 0.001
Per MPI rank memory allocation (min/avg/max) = 19.34 | 19.34 | 19.34 Mbytes
Step Temp Press TotEng PotEng Enthalpy 
  132000     150.4105   -354.18894   -84055.021   -84437.078   -84103.583 
  132495    127.31824    -118.3789   -84173.552   -84496.952   -84189.767 
Loop time of 111.354 on 1 procs for 495 steps with 19652 atoms

Performance: 0.384 ns/day, 62.488 hours/ns, 4.445 timesteps/s
90.6% CPU use with 1 MPI tasks x no OpenMP threads

MPI task timing breakdown:
Section |  min time  |  avg time  |  max time  |%varavg| %total
---------------------------------------------------------------
Pair    | 60.747     | 60.747     | 60.747     |   0.0 | 54.55
Neigh   | 48.88      | 48.88      | 48.88      |   0.0 | 43.90
Comm    | 0.65494    | 0.65494    | 0.65494    |   0.0 |  0.59
Output  | 0.00024891 | 0.00024891 | 0.00024891 |   0.0 |  0.00
Modify  | 0.85325    | 0.85325    | 0.85325    |   0.0 |  0.77
Other   |            | 0.2187     |            |       |  0.20

Nlocal:    19652 ave 19652 max 19652 min
Histogram: 1 0 0 0 0 0 0 0 0 0
Nghost:    20810 ave 20810 max 20810 min
Histogram: 1 0 0 0 0 0 0 0 0 0
Neighs:    1.99469e+06 ave 1.99469e+06 max 1.99469e+06 min
Histogram: 1 0 0 0 0 0 0 0 0 0

Total # of neighbors = 1994687
Ave neighs/atom = 101.5
Neighbor list builds = 495
Dangerous builds not checked
Setting up Verlet run ...
  Unit style    : metal
  Current step  : 132495
  Time step     : 0.001
Per MPI rank memory allocation (min/avg/max) = 19.34 | 19.34 | 19.34 Mbytes
Step Temp Press TotEng PotEng Enthalpy 
  132495    127.31824    -118.3789   -84173.552   -84496.952   -84189.767 
  134000      100.177    515.02928   -84314.472    -84568.93   -84244.022 
Loop time of 304.178 on 1 procs for 1505 steps with 19652 atoms

Performance: 0.427 ns/day, 56.142 hours/ns, 4.948 timesteps/s
98.5% CPU use with 1 MPI tasks x no OpenMP threads

MPI task timing breakdown:
Section |  min time  |  avg time  |  max time  |%varavg| %total
---------------------------------------------------------------
Pair    | 165.62     | 165.62     | 165.62     |   0.0 | 54.45
Neigh   | 133.89     | 133.89     | 133.89     |   0.0 | 44.02
Comm    | 1.736      | 1.736      | 1.736      |   0.0 |  0.57
Output  | 0.050028   | 0.050028   | 0.050028   |   0.0 |  0.02
Modify  | 2.2629     | 2.2629     | 2.2629     |   0.0 |  0.74
Other   |            | 0.616      |            |       |  0.20

Nlocal:    19652 ave 19652 max 19652 min
Histogram: 1 0 0 0 0 0 0 0 0 0
Nghost:    20789 ave 20789 max 20789 min
Histogram: 1 0 0 0 0 0 0 0 0 0
Neighs:    1.99822e+06 ave 1.99822e+06 max 1.99822e+06 min
Histogram: 1 0 0 0 0 0 0 0 0 0

Total # of neighbors = 1998216
Ave neighs/atom = 101.68
Neighbor list builds = 1505
Dangerous builds not checked
Total wall time: 7:16:00
