LAMMPS (12 Dec 2018)
Lattice spacing in x,y,z = 4 4 4
Created orthogonal box = (0 0 0) to (68 68 68)
  1 by 1 by 2 MPI processor grid
Created 19652 atoms
  Time spent = 0.00157404 secs
Setting atom values ...
  19652 settings made for type/fraction
Neighbor list info ...
  update every 1 steps, delay 0 steps, check no
  max neighbors/atom: 2000, page size: 100000
  master list distance cutoff = 8.5
  ghost atom cutoff = 8.5
  binsize = 4.25, bins = 16 16 16
  1 neighbor lists, perpetual/occasional/extra = 1 0 0
  (1) pair eam/alloy, perpetual
      attributes: half, newton on
      pair build: half/bin/atomonly/newton
      stencil: half/bin/3d/newton
      bin: standard
Setting up Verlet run ...
  Unit style    : metal
  Current step  : 0
  Time step     : 0.001
Per MPI rank memory allocation (min/avg/max) = 11.15 | 11.15 | 11.15 Mbytes
Step Temp Press TotEng PotEng Enthalpy 
       0          300   -186199.32   -61187.265   -61949.292   -97729.446 
    1000    545.58922   -69302.361   -61187.303   -62573.149   -74788.101 
Loop time of 93.4816 on 2 procs for 1000 steps with 19652 atoms

Performance: 0.924 ns/day, 25.967 hours/ns, 10.697 timesteps/s
99.0% CPU use with 2 MPI tasks x no OpenMP threads

MPI task timing breakdown:
Section |  min time  |  avg time  |  max time  |%varavg| %total
---------------------------------------------------------------
Pair    | 52.28      | 52.988     | 53.696     |   9.7 | 56.68
Neigh   | 34.514     | 35.369     | 36.223     |  14.4 | 37.83
Comm    | 3.0872     | 4.6734     | 6.2595     |  73.4 |  5.00
Output  | 0.0001862  | 0.00020313 | 0.00022006 |   0.0 |  0.00
Modify  | 0.21137    | 0.22312    | 0.23487    |   2.5 |  0.24
Other   |            | 0.2281     |            |       |  0.24

Nlocal:    9826 ave 9829 max 9823 min
Histogram: 1 0 0 0 0 0 0 0 0 1
Nghost:    13385.5 ave 13582 max 13189 min
Histogram: 1 0 0 0 0 0 0 0 0 1
Neighs:    793617 ave 797238 max 789996 min
Histogram: 1 0 0 0 0 0 0 0 0 1

Total # of neighbors = 1587234
Ave neighs/atom = 80.767
Neighbor list builds = 1000
Dangerous builds not checked
Setting up Verlet run ...
  Unit style    : metal
  Current step  : 1000
  Time step     : 0.001
Per MPI rank memory allocation (min/avg/max) = 11.15 | 11.15 | 11.15 Mbytes
Step Temp Press TotEng PotEng Enthalpy 
    1000    545.58922   -69302.361   -61187.303   -62573.149   -74788.101 
    2000    395.40226   -2127.0436   -65642.441   -66646.799   -65970.067 
Loop time of 120.314 on 2 procs for 1000 steps with 19652 atoms

Performance: 0.718 ns/day, 33.421 hours/ns, 8.312 timesteps/s
97.5% CPU use with 2 MPI tasks x no OpenMP threads

MPI task timing breakdown:
Section |  min time  |  avg time  |  max time  |%varavg| %total
---------------------------------------------------------------
Pair    | 64.451     | 65.042     | 65.634     |   7.3 | 54.06
Neigh   | 44.97      | 45.943     | 46.915     |  14.3 | 38.19
Comm    | 6.6793     | 8.2573     | 9.8353     |  54.9 |  6.86
Output  | 0.00010681 | 0.00014794 | 0.00018907 |   0.0 |  0.00
Modify  | 0.82732    | 0.83547    | 0.84362    |   0.9 |  0.69
Other   |            | 0.2366     |            |       |  0.20

Nlocal:    9826 ave 9865 max 9787 min
Histogram: 1 0 0 0 0 0 0 0 0 1
Nghost:    14357.5 ave 14395 max 14320 min
Histogram: 1 0 0 0 0 0 0 0 0 1
Neighs:    997209 ave 1.00431e+06 max 990108 min
Histogram: 1 0 0 0 0 0 0 0 0 1

Total # of neighbors = 1994418
Ave neighs/atom = 101.487
Neighbor list builds = 1000
Dangerous builds not checked
Setting up Verlet run ...
  Unit style    : metal
  Current step  : 2000
  Time step     : 0.001
Per MPI rank memory allocation (min/avg/max) = 11.92 | 11.92 | 11.92 Mbytes
Step Temp Press TotEng PotEng Enthalpy 
    2000    395.40226   -2127.0436   -65642.441   -66646.799   -65970.067 
   10000    2421.2918   -1295.6161    -53046.01   -59196.311   -53282.565 
Loop time of 946.917 on 2 procs for 8000 steps with 19652 atoms

Performance: 0.730 ns/day, 32.879 hours/ns, 8.448 timesteps/s
99.1% CPU use with 2 MPI tasks x no OpenMP threads

MPI task timing breakdown:
Section |  min time  |  avg time  |  max time  |%varavg| %total
---------------------------------------------------------------
Pair    | 522.35     | 526.04     | 529.74     |  16.1 | 55.55
Neigh   | 372.4      | 372.93     | 373.46     |   2.7 | 39.38
Comm    | 34.954     | 39.278     | 43.601     |  69.0 |  4.15
Output  | 0.068531   | 0.068538   | 0.068545   |   0.0 |  0.01
Modify  | 6.6442     | 6.652      | 6.6598     |   0.3 |  0.70
Other   |            | 1.947      |            |       |  0.21

Nlocal:    9826 ave 9836 max 9816 min
Histogram: 1 0 0 0 0 0 0 0 0 1
Nghost:    13565.5 ave 13568 max 13563 min
Histogram: 1 0 0 0 0 0 0 0 0 1
Neighs:    842294 ave 849850 max 834739 min
Histogram: 1 0 0 0 0 0 0 0 0 1

Total # of neighbors = 1684589
Ave neighs/atom = 85.721
Neighbor list builds = 8000
Dangerous builds not checked
Setting up Verlet run ...
  Unit style    : metal
  Current step  : 10000
  Time step     : 0.001
Per MPI rank memory allocation (min/avg/max) = 11.94 | 11.94 | 11.94 Mbytes
Step Temp Press TotEng PotEng Enthalpy 
   10000    2421.2918   -1295.6161    -53046.01   -59196.311   -53282.565 
   20000    2458.6052   -2738.6711   -52936.122   -59181.203   -53437.082 
   30000    2444.6174   -743.10504   -53047.892   -59257.443   -53183.226 
   40000     2469.722    -771.5343   -52957.644   -59230.963   -53098.286 
Loop time of 3505.13 on 2 procs for 30000 steps with 19652 atoms

Performance: 0.739 ns/day, 32.455 hours/ns, 8.559 timesteps/s
99.1% CPU use with 2 MPI tasks x no OpenMP threads

MPI task timing breakdown:
Section |  min time  |  avg time  |  max time  |%varavg| %total
---------------------------------------------------------------
Pair    | 1955.8     | 1963       | 1970.3     |  16.4 | 56.00
Neigh   | 1318.6     | 1346.7     | 1374.9     |  76.8 | 38.42
Comm    | 125.62     | 161.71     | 197.79     | 283.8 |  4.61
Output  | 0.30758    | 0.30764    | 0.3077     |   0.0 |  0.01
Modify  | 25.708     | 25.807     | 25.906     |   1.9 |  0.74
Other   |            | 7.519      |            |       |  0.21

Nlocal:    9826 ave 9846 max 9806 min
Histogram: 1 0 0 0 0 0 0 0 0 1
Nghost:    13623 ave 13644 max 13602 min
Histogram: 1 0 0 0 0 0 0 0 0 1
Neighs:    843540 ave 850157 max 836923 min
Histogram: 1 0 0 0 0 0 0 0 0 1

Total # of neighbors = 1687080
Ave neighs/atom = 85.8478
Neighbor list builds = 30000
Dangerous builds not checked
Setting up Verlet run ...
  Unit style    : metal
  Current step  : 40000
  Time step     : 0.001
Per MPI rank memory allocation (min/avg/max) = 12.01 | 12.01 | 12.01 Mbytes
Step Temp Press TotEng PotEng Enthalpy 
   40000     2469.722    -771.5343   -52957.644   -59230.963   -53098.286 
   40495    2413.5547    562.36249   -53181.673   -59312.322   -53079.556 
Loop time of 54.8738 on 2 procs for 495 steps with 19652 atoms

Performance: 0.779 ns/day, 30.793 hours/ns, 9.021 timesteps/s
99.8% CPU use with 2 MPI tasks x no OpenMP threads

MPI task timing breakdown:
Section |  min time  |  avg time  |  max time  |%varavg| %total
---------------------------------------------------------------
Pair    | 30.061     | 30.589     | 31.118     |   9.6 | 55.74
Neigh   | 20.525     | 21.299     | 22.072     |  16.8 | 38.81
Comm    | 2.1706     | 2.4323     | 2.6939     |  16.8 |  4.43
Output  | 9.1076e-05 | 0.00013399 | 0.00017691 |   0.0 |  0.00
Modify  | 0.42515    | 0.42889    | 0.43264    |   0.6 |  0.78
Other   |            | 0.1246     |            |       |  0.23

Nlocal:    9826 ave 9849 max 9803 min
Histogram: 1 0 0 0 0 0 0 0 0 1
Nghost:    13632.5 ave 13646 max 13619 min
Histogram: 1 0 0 0 0 0 0 0 0 1
Neighs:    847006 ave 852316 max 841695 min
Histogram: 1 0 0 0 0 0 0 0 0 1

Total # of neighbors = 1694011
Ave neighs/atom = 86.2004
Neighbor list builds = 495
Dangerous builds not checked
Setting up Verlet run ...
  Unit style    : metal
  Current step  : 40495
  Time step     : 0.001
Per MPI rank memory allocation (min/avg/max) = 12.01 | 12.01 | 12.01 Mbytes
Step Temp Press TotEng PotEng Enthalpy 
   40495    2413.5547    562.36249   -53181.673   -59312.322   -53079.556 
   50000    2389.4005   -120.88554   -53296.443   -59365.738   -53318.376 
Loop time of 1160.52 on 2 procs for 9505 steps with 19652 atoms

Performance: 0.708 ns/day, 33.916 hours/ns, 8.190 timesteps/s
98.9% CPU use with 2 MPI tasks x no OpenMP threads

MPI task timing breakdown:
Section |  min time  |  avg time  |  max time  |%varavg| %total
---------------------------------------------------------------
Pair    | 651.39     | 654.08     | 656.77     |  10.5 | 56.36
Neigh   | 443.38     | 445.82     | 448.26     |  11.6 | 38.42
Comm    | 44.007     | 49.283     | 54.558     |  75.1 |  4.25
Output  | 0.075893   | 0.075908   | 0.075922   |   0.0 |  0.01
Modify  | 8.6584     | 8.7026     | 8.7467     |   1.5 |  0.75
Other   |            | 2.56       |            |       |  0.22

Nlocal:    9826 ave 9847 max 9805 min
Histogram: 1 0 0 0 0 0 0 0 0 1
Nghost:    13649.5 ave 13694 max 13605 min
Histogram: 1 0 0 0 0 0 0 0 0 1
Neighs:    847680 ave 858818 max 836542 min
Histogram: 1 0 0 0 0 0 0 0 0 1

Total # of neighbors = 1695360
Ave neighs/atom = 86.2691
Neighbor list builds = 9505
Dangerous builds not checked
Setting up Verlet run ...
  Unit style    : metal
  Current step  : 50000
  Time step     : 0.001
Per MPI rank memory allocation (min/avg/max) = 12.02 | 12.02 | 12.02 Mbytes
Step Temp Press TotEng PotEng Enthalpy 
   50000    2389.4005   -120.88554   -53296.443   -59365.738   -53318.376 
   50495    2348.8744    76.747424   -53427.528   -59393.883    -53413.62 
Loop time of 58.9451 on 2 procs for 495 steps with 19652 atoms

Performance: 0.726 ns/day, 33.078 hours/ns, 8.398 timesteps/s
98.8% CPU use with 2 MPI tasks x no OpenMP threads

MPI task timing breakdown:
Section |  min time  |  avg time  |  max time  |%varavg| %total
---------------------------------------------------------------
Pair    | 33.231     | 33.426     | 33.62      |   3.4 | 56.71
Neigh   | 21.326     | 22.005     | 22.684     |  14.5 | 37.33
Comm    | 2.4413     | 2.9196     | 3.3978     |  28.0 |  4.95
Output  | 8.0109e-05 | 9.6083e-05 | 0.00011206 |   0.0 |  0.00
Modify  | 0.45126    | 0.45673    | 0.46219    |   0.8 |  0.77
Other   |            | 0.1381     |            |       |  0.23

Nlocal:    9826 ave 9877 max 9775 min
Histogram: 1 0 0 0 0 0 0 0 0 1
Nghost:    13662.5 ave 13677 max 13648 min
Histogram: 1 0 0 0 0 0 0 0 0 1
Neighs:    848688 ave 865909 max 831466 min
Histogram: 1 0 0 0 0 0 0 0 0 1

Total # of neighbors = 1697375
Ave neighs/atom = 86.3716
Neighbor list builds = 495
Dangerous builds not checked
Setting up Verlet run ...
  Unit style    : metal
  Current step  : 50495
  Time step     : 0.001
Per MPI rank memory allocation (min/avg/max) = 12.02 | 12.02 | 12.02 Mbytes
Step Temp Press TotEng PotEng Enthalpy 
   50495    2348.8744    76.747424   -53427.528   -59393.883    -53413.62 
   60000    2396.8414    1010.4358   -53390.775    -59478.97   -53208.153 
Loop time of 1184.42 on 2 procs for 9505 steps with 19652 atoms

Performance: 0.693 ns/day, 34.614 hours/ns, 8.025 timesteps/s
99.0% CPU use with 2 MPI tasks x no OpenMP threads

MPI task timing breakdown:
Section |  min time  |  avg time  |  max time  |%varavg| %total
---------------------------------------------------------------
Pair    | 654.22     | 664.83     | 675.44     |  41.2 | 56.13
Neigh   | 430.32     | 442.57     | 454.83     |  58.3 | 37.37
Comm    | 42.203     | 61.998     | 81.794     | 251.4 |  5.23
Output  | 0.074033   | 0.074049   | 0.074064   |   0.0 |  0.01
Modify  | 8.8493     | 12.282     | 15.715     |  97.9 |  1.04
Other   |            | 2.664      |            |       |  0.22

Nlocal:    9826 ave 9827 max 9825 min
Histogram: 1 0 0 0 0 0 0 0 0 1
Nghost:    13653 ave 13692 max 13614 min
Histogram: 1 0 0 0 0 0 0 0 0 1
Neighs:    850802 ave 860256 max 841348 min
Histogram: 1 0 0 0 0 0 0 0 0 1

Total # of neighbors = 1701604
Ave neighs/atom = 86.5868
Neighbor list builds = 9505
Dangerous builds not checked
Setting up Verlet run ...
  Unit style    : metal
  Current step  : 60000
  Time step     : 0.001
Per MPI rank memory allocation (min/avg/max) = 12.03 | 12.03 | 12.03 Mbytes
Step Temp Press TotEng PotEng Enthalpy 
   60000    2396.8414    1010.4358   -53390.775    -59478.97   -53208.153 
   60495    2333.1817    147.44731   -53733.142   -59659.637   -53706.633 
Loop time of 56.6604 on 2 procs for 495 steps with 19652 atoms

Performance: 0.755 ns/day, 31.796 hours/ns, 8.736 timesteps/s
99.3% CPU use with 2 MPI tasks x no OpenMP threads

MPI task timing breakdown:
Section |  min time  |  avg time  |  max time  |%varavg| %total
---------------------------------------------------------------
Pair    | 31.799     | 31.85      | 31.902     |   0.9 | 56.21
Neigh   | 20.028     | 21.35      | 22.672     |  28.6 | 37.68
Comm    | 1.5782     | 2.8669     | 4.1556     |  76.1 |  5.06
Output  | 7.8917e-05 | 0.00010252 | 0.00012612 |   0.0 |  0.00
Modify  | 0.46738    | 0.4674     | 0.46743    |   0.0 |  0.82
Other   |            | 0.1253     |            |       |  0.22

Nlocal:    9826 ave 9843 max 9809 min
Histogram: 1 0 0 0 0 0 0 0 0 1
Nghost:    13704 ave 13715 max 13693 min
Histogram: 1 0 0 0 0 0 0 0 0 1
Neighs:    855665 ave 862379 max 848951 min
Histogram: 1 0 0 0 0 0 0 0 0 1

Total # of neighbors = 1711330
Ave neighs/atom = 87.0817
Neighbor list builds = 495
Dangerous builds not checked
Setting up Verlet run ...
  Unit style    : metal
  Current step  : 60495
  Time step     : 0.001
Per MPI rank memory allocation (min/avg/max) = 12.03 | 12.03 | 12.03 Mbytes
Step Temp Press TotEng PotEng Enthalpy 
   60495    2333.1817    147.44731   -53733.142   -59659.637   -53706.633 
   70000    2288.2609   -1330.7361   -53888.536   -59700.927   -54127.976 
Loop time of 1199.12 on 2 procs for 9505 steps with 19652 atoms

Performance: 0.685 ns/day, 35.044 hours/ns, 7.927 timesteps/s
97.4% CPU use with 2 MPI tasks x no OpenMP threads

MPI task timing breakdown:
Section |  min time  |  avg time  |  max time  |%varavg| %total
---------------------------------------------------------------
Pair    | 671.63     | 681.8      | 691.98     |  39.0 | 56.86
Neigh   | 432.71     | 443.84     | 454.97     |  52.8 | 37.01
Comm    | 39.231     | 60.848     | 82.465     | 277.1 |  5.07
Output  | 0.059551   | 0.059572   | 0.059592   |   0.0 |  0.00
Modify  | 9.9647     | 9.9755     | 9.9863     |   0.3 |  0.83
Other   |            | 2.6        |            |       |  0.22

Nlocal:    9826 ave 9839 max 9813 min
Histogram: 1 0 0 0 0 0 0 0 0 1
Nghost:    13740 ave 13749 max 13731 min
Histogram: 1 0 0 0 0 0 0 0 0 1
Neighs:    854579 ave 865876 max 843282 min
Histogram: 1 0 0 0 0 0 0 0 0 1

Total # of neighbors = 1709158
Ave neighs/atom = 86.9712
Neighbor list builds = 9505
Dangerous builds not checked
Setting up Verlet run ...
  Unit style    : metal
  Current step  : 70000
  Time step     : 0.001
Per MPI rank memory allocation (min/avg/max) = 12.04 | 12.04 | 12.04 Mbytes
Step Temp Press TotEng PotEng Enthalpy 
   70000    2288.2609   -1330.7361   -53888.536   -59700.927   -54127.976 
   70495    2257.1872   -1682.1878   -53999.742   -59733.203   -54302.346 
Loop time of 58.9083 on 2 procs for 495 steps with 19652 atoms

Performance: 0.726 ns/day, 33.057 hours/ns, 8.403 timesteps/s
97.1% CPU use with 2 MPI tasks x no OpenMP threads

MPI task timing breakdown:
Section |  min time  |  avg time  |  max time  |%varavg| %total
---------------------------------------------------------------
Pair    | 32.917     | 33.161     | 33.405     |   4.2 | 56.29
Neigh   | 21.612     | 21.961     | 22.309     |   7.4 | 37.28
Comm    | 2.5478     | 3.1526     | 3.7574     |  34.1 |  5.35
Output  | 9.0837e-05 | 0.00011694 | 0.00014305 |   0.0 |  0.00
Modify  | 0.492      | 0.49932    | 0.50664    |   1.0 |  0.85
Other   |            | 0.1347     |            |       |  0.23

Nlocal:    9826 ave 9844 max 9808 min
Histogram: 1 0 0 0 0 0 0 0 0 1
Nghost:    13740.5 ave 13746 max 13735 min
Histogram: 1 0 0 0 0 0 0 0 0 1
Neighs:    854844 ave 863168 max 846519 min
Histogram: 1 0 0 0 0 0 0 0 0 1

Total # of neighbors = 1709687
Ave neighs/atom = 86.9981
Neighbor list builds = 495
Dangerous builds not checked
Setting up Verlet run ...
  Unit style    : metal
  Current step  : 70495
  Time step     : 0.001
Per MPI rank memory allocation (min/avg/max) = 12.04 | 12.04 | 12.04 Mbytes
Step Temp Press TotEng PotEng Enthalpy 
   70495    2257.1872   -1682.1878   -53999.742   -59733.203   -54302.346 
   80000    2251.4722   -1494.2196   -54090.425    -59809.37   -54358.454 
Loop time of 1139.25 on 2 procs for 9505 steps with 19652 atoms

Performance: 0.721 ns/day, 33.294 hours/ns, 8.343 timesteps/s
98.6% CPU use with 2 MPI tasks x no OpenMP threads

MPI task timing breakdown:
Section |  min time  |  avg time  |  max time  |%varavg| %total
---------------------------------------------------------------
Pair    | 633.41     | 637.86     | 642.31     |  17.6 | 55.99
Neigh   | 427.45     | 434.48     | 441.51     |  33.7 | 38.14
Comm    | 42.125     | 53.823     | 65.52      | 159.4 |  4.72
Output  | 1.9717     | 1.9717     | 1.9718     |   0.0 |  0.17
Modify  | 8.6241     | 8.6391     | 8.6541     |   0.5 |  0.76
Other   |            | 2.482      |            |       |  0.22

Nlocal:    9826 ave 9828 max 9824 min
Histogram: 1 0 0 0 0 0 0 0 0 1
Nghost:    13710.5 ave 13714 max 13707 min
Histogram: 1 0 0 0 0 0 0 0 0 1
Neighs:    857325 ave 864807 max 849843 min
Histogram: 1 0 0 0 0 0 0 0 0 1

Total # of neighbors = 1714650
Ave neighs/atom = 87.2507
Neighbor list builds = 9505
Dangerous builds not checked
Setting up Verlet run ...
  Unit style    : metal
  Current step  : 80000
  Time step     : 0.001
Per MPI rank memory allocation (min/avg/max) = 12.05 | 12.05 | 12.05 Mbytes
Step Temp Press TotEng PotEng Enthalpy 
   80000    2251.4722   -1494.2196   -54090.425    -59809.37   -54358.454 
   80495    2215.3391    1543.3948   -54386.087    -60013.25   -54111.472 
Loop time of 55.544 on 2 procs for 495 steps with 19652 atoms

Performance: 0.770 ns/day, 31.169 hours/ns, 8.912 timesteps/s
99.5% CPU use with 2 MPI tasks x no OpenMP threads

MPI task timing breakdown:
Section |  min time  |  avg time  |  max time  |%varavg| %total
---------------------------------------------------------------
Pair    | 30.443     | 30.887     | 31.33      |   8.0 | 55.61
Neigh   | 21.785     | 22.026     | 22.267     |   5.1 | 39.66
Comm    | 1.8766     | 2.0711     | 2.2655     |  13.5 |  3.73
Output  | 7.7963e-05 | 0.00010502 | 0.00013208 |   0.0 |  0.00
Modify  | 0.42772    | 0.43086    | 0.43399    |   0.5 |  0.78
Other   |            | 0.1291     |            |       |  0.23

Nlocal:    9826 ave 9837 max 9815 min
Histogram: 1 0 0 0 0 0 0 0 0 1
Nghost:    13750.5 ave 13753 max 13748 min
Histogram: 1 0 0 0 0 0 0 0 0 1
Neighs:    864485 ave 875363 max 853607 min
Histogram: 1 0 0 0 0 0 0 0 0 1

Total # of neighbors = 1728970
Ave neighs/atom = 87.9793
Neighbor list builds = 495
Dangerous builds not checked
Setting up Verlet run ...
  Unit style    : metal
  Current step  : 80495
  Time step     : 0.001
Per MPI rank memory allocation (min/avg/max) = 12.05 | 12.05 | 12.05 Mbytes
Step Temp Press TotEng PotEng Enthalpy 
   80495    2215.3391    1543.3948   -54386.087    -60013.25   -54111.472 
   90000    2195.9798   -706.46407   -54419.022   -59997.011    -54545.08 
Loop time of 1126.28 on 2 procs for 9505 steps with 19652 atoms

Performance: 0.729 ns/day, 32.915 hours/ns, 8.439 timesteps/s
99.2% CPU use with 2 MPI tasks x no OpenMP threads

MPI task timing breakdown:
Section |  min time  |  avg time  |  max time  |%varavg| %total
---------------------------------------------------------------
Pair    | 626.51     | 629.83     | 633.15     |  13.2 | 55.92
Neigh   | 432.15     | 436.86     | 441.57     |  22.5 | 38.79
Comm    | 40.286     | 48.506     | 56.726     | 118.0 |  4.31
Output  | 0.054931   | 0.054963   | 0.054996   |   0.0 |  0.00
Modify  | 8.5049     | 8.5174     | 8.5299     |   0.4 |  0.76
Other   |            | 2.513      |            |       |  0.22

Nlocal:    9826 ave 9847 max 9805 min
Histogram: 1 0 0 0 0 0 0 0 0 1
Nghost:    13800 ave 13817 max 13783 min
Histogram: 1 0 0 0 0 0 0 0 0 1
Neighs:    861290 ave 869324 max 853255 min
Histogram: 1 0 0 0 0 0 0 0 0 1

Total # of neighbors = 1722579
Ave neighs/atom = 87.6541
Neighbor list builds = 9505
Dangerous builds not checked
Setting up Verlet run ...
  Unit style    : metal
  Current step  : 90000
  Time step     : 0.001
Per MPI rank memory allocation (min/avg/max) = 12.05 | 12.05 | 12.05 Mbytes
Step Temp Press TotEng PotEng Enthalpy 
   90000    2195.9798   -706.46407   -54419.022   -59997.011    -54545.08 
   90495    2150.4643    1516.5048   -54686.559   -60148.934   -54417.754 
Loop time of 62.3308 on 2 procs for 495 steps with 19652 atoms

Performance: 0.686 ns/day, 34.978 hours/ns, 7.941 timesteps/s
99.6% CPU use with 2 MPI tasks x no OpenMP threads

MPI task timing breakdown:
Section |  min time  |  avg time  |  max time  |%varavg| %total
---------------------------------------------------------------
Pair    | 34.584     | 35.195     | 35.805     |  10.3 | 56.46
Neigh   | 22.409     | 23.158     | 23.907     |  15.6 | 37.15
Comm    | 1.9787     | 3.3464     | 4.714      |  74.8 |  5.37
Output  | 0.00010014 | 0.00012958 | 0.00015903 |   0.0 |  0.00
Modify  | 0.46229    | 0.48056    | 0.49883    |   2.6 |  0.77
Other   |            | 0.151      |            |       |  0.24

Nlocal:    9826 ave 9827 max 9825 min
Histogram: 1 0 0 0 0 0 0 0 0 1
Nghost:    13800 ave 13818 max 13782 min
Histogram: 1 0 0 0 0 0 0 0 0 1
Neighs:    867594 ave 877490 max 857697 min
Histogram: 1 0 0 0 0 0 0 0 0 1

Total # of neighbors = 1735187
Ave neighs/atom = 88.2957
Neighbor list builds = 495
Dangerous builds not checked
Setting up Verlet run ...
  Unit style    : metal
  Current step  : 90495
  Time step     : 0.001
Per MPI rank memory allocation (min/avg/max) = 12.05 | 12.05 | 12.05 Mbytes
Step Temp Press TotEng PotEng Enthalpy 
   90495    2150.4643    1516.5048   -54686.559   -60148.934   -54417.754 
  100000    2164.3978   -567.77988   -54661.964   -60159.731   -54762.721 
Loop time of 1239.92 on 2 procs for 9505 steps with 19652 atoms

Performance: 0.662 ns/day, 36.236 hours/ns, 7.666 timesteps/s
97.6% CPU use with 2 MPI tasks x no OpenMP threads

MPI task timing breakdown:
Section |  min time  |  avg time  |  max time  |%varavg| %total
---------------------------------------------------------------
Pair    | 685.54     | 697.21     | 708.88     |  44.2 | 56.23
Neigh   | 436.24     | 458.41     | 480.58     | 103.5 | 36.97
Comm    | 36.808     | 71.151     | 105.49     | 407.1 |  5.74
Output  | 0.060369   | 0.060394   | 0.060418   |   0.0 |  0.00
Modify  | 10.206     | 10.273     | 10.34      |   2.1 |  0.83
Other   |            | 2.821      |            |       |  0.23

Nlocal:    9826 ave 9839 max 9813 min
Histogram: 1 0 0 0 0 0 0 0 0 1
Nghost:    13776.5 ave 13788 max 13765 min
Histogram: 1 0 0 0 0 0 0 0 0 1
Neighs:    866208 ave 877323 max 855094 min
Histogram: 1 0 0 0 0 0 0 0 0 1

Total # of neighbors = 1732417
Ave neighs/atom = 88.1547
Neighbor list builds = 9505
Dangerous builds not checked
Setting up Verlet run ...
  Unit style    : metal
  Current step  : 100000
  Time step     : 0.001
Per MPI rank memory allocation (min/avg/max) = 12.06 | 12.06 | 12.06 Mbytes
Step Temp Press TotEng PotEng Enthalpy 
  100000    2164.3978   -567.77988   -54661.964   -60159.731   -54762.721 
  100495    2113.8766   -206.81496   -54920.371    -60289.81   -54956.934 
Loop time of 59.1561 on 2 procs for 495 steps with 19652 atoms

Performance: 0.723 ns/day, 33.196 hours/ns, 8.368 timesteps/s
99.8% CPU use with 2 MPI tasks x no OpenMP threads

MPI task timing breakdown:
Section |  min time  |  avg time  |  max time  |%varavg| %total
---------------------------------------------------------------
Pair    | 32.701     | 32.992     | 33.283     |   5.1 | 55.77
Neigh   | 20.023     | 22.378     | 24.733     |  49.8 | 37.83
Comm    | 1.1309     | 3.2195     | 5.308      | 116.4 |  5.44
Output  | 9.5844e-05 | 0.0001725  | 0.00024915 |   0.0 |  0.00
Modify  | 0.43274    | 0.43313    | 0.43351    |   0.1 |  0.73
Other   |            | 0.1334     |            |       |  0.23

Nlocal:    9826 ave 9843 max 9809 min
Histogram: 1 0 0 0 0 0 0 0 0 1
Nghost:    13787.5 ave 13820 max 13755 min
Histogram: 1 0 0 0 0 0 0 0 0 1
Neighs:    869727 ave 881245 max 858209 min
Histogram: 1 0 0 0 0 0 0 0 0 1

Total # of neighbors = 1739454
Ave neighs/atom = 88.5128
Neighbor list builds = 495
Dangerous builds not checked
Setting up Verlet run ...
  Unit style    : metal
  Current step  : 100495
  Time step     : 0.001
Per MPI rank memory allocation (min/avg/max) = 12.06 | 12.06 | 12.06 Mbytes
Step Temp Press TotEng PotEng Enthalpy 
  100495    2113.8766   -206.81496   -54920.371    -60289.81   -54956.934 
  110000    2105.1694   -2317.2862    -55027.43   -60374.752   -55437.167 
Loop time of 1209.54 on 2 procs for 9505 steps with 19652 atoms

Performance: 0.679 ns/day, 35.348 hours/ns, 7.858 timesteps/s
97.3% CPU use with 2 MPI tasks x no OpenMP threads

MPI task timing breakdown:
Section |  min time  |  avg time  |  max time  |%varavg| %total
---------------------------------------------------------------
Pair    | 668.04     | 681.8      | 695.56     |  52.7 | 56.37
Neigh   | 427.87     | 449.55     | 471.23     | 102.2 | 37.17
Comm    | 30.43      | 66.379     | 102.33     | 441.2 |  5.49
Output  | 0.06271    | 0.062728   | 0.062746   |   0.0 |  0.01
Modify  | 8.9993     | 9.0704     | 9.1415     |   2.4 |  0.75
Other   |            | 2.687      |            |       |  0.22

Nlocal:    9826 ave 9832 max 9820 min
Histogram: 1 0 0 0 0 0 0 0 0 1
Nghost:    13778.5 ave 13796 max 13761 min
Histogram: 1 0 0 0 0 0 0 0 0 1
Neighs:    869354 ave 878782 max 859925 min
Histogram: 1 0 0 0 0 0 0 0 0 1

Total # of neighbors = 1738707
Ave neighs/atom = 88.4748
Neighbor list builds = 9505
Dangerous builds not checked
Setting up Verlet run ...
  Unit style    : metal
  Current step  : 110000
  Time step     : 0.001
Per MPI rank memory allocation (min/avg/max) = 12.06 | 12.06 | 12.06 Mbytes
Step Temp Press TotEng PotEng Enthalpy 
  110000    2105.1694   -2317.2862    -55027.43   -60374.752   -55437.167 
  110495    2072.8456   -162.99882   -55234.258   -60499.475   -55262.948 
Loop time of 62.1418 on 2 procs for 495 steps with 19652 atoms

Performance: 0.688 ns/day, 34.872 hours/ns, 7.966 timesteps/s
98.5% CPU use with 2 MPI tasks x no OpenMP threads

MPI task timing breakdown:
Section |  min time  |  avg time  |  max time  |%varavg| %total
---------------------------------------------------------------
Pair    | 35.17      | 35.222     | 35.273     |   0.9 | 56.68
Neigh   | 21.61      | 23.009     | 24.408     |  29.2 | 37.03
Comm    | 1.9073     | 3.2816     | 4.6559     |  75.9 |  5.28
Output  | 0.00012493 | 0.00015187 | 0.00017881 |   0.0 |  0.00
Modify  | 0.48291    | 0.48306    | 0.48321    |   0.0 |  0.78
Other   |            | 0.1461     |            |       |  0.24

Nlocal:    9826 ave 9832 max 9820 min
Histogram: 1 0 0 0 0 0 0 0 0 1
Nghost:    13846 ave 13862 max 13830 min
Histogram: 1 0 0 0 0 0 0 0 0 1
Neighs:    873296 ave 882446 max 864146 min
Histogram: 1 0 0 0 0 0 0 0 0 1

Total # of neighbors = 1746592
Ave neighs/atom = 88.876
Neighbor list builds = 495
Dangerous builds not checked
Setting up Verlet run ...
  Unit style    : metal
  Current step  : 110495
  Time step     : 0.001
Per MPI rank memory allocation (min/avg/max) = 12.06 | 12.06 | 12.06 Mbytes
Step Temp Press TotEng PotEng Enthalpy 
  110495    2072.8456   -162.99882   -55234.258   -60499.475   -55262.948 
  120000    2067.7603   -140.08574   -55248.409   -60500.708   -55273.043 
Loop time of 1379.23 on 2 procs for 9505 steps with 19652 atoms

Performance: 0.595 ns/day, 40.307 hours/ns, 6.892 timesteps/s
89.6% CPU use with 2 MPI tasks x no OpenMP threads

MPI task timing breakdown:
Section |  min time  |  avg time  |  max time  |%varavg| %total
---------------------------------------------------------------
Pair    | 762.23     | 771.39     | 780.55     |  33.0 | 55.93
Neigh   | 476.58     | 482.56     | 488.54     |  27.2 | 34.99
Comm    | 96.034     | 111.38     | 126.73     | 145.4 |  8.08
Output  | 0.062031   | 0.062059   | 0.062086   |   0.0 |  0.00
Modify  | 10.968     | 11.036     | 11.105     |   2.1 |  0.80
Other   |            | 2.804      |            |       |  0.20

Nlocal:    9826 ave 9836 max 9816 min
Histogram: 1 0 0 0 0 0 0 0 0 1
Nghost:    13798.5 ave 13803 max 13794 min
Histogram: 1 0 0 0 0 0 0 0 0 1
Neighs:    873741 ave 884310 max 863172 min
Histogram: 1 0 0 0 0 0 0 0 0 1

Total # of neighbors = 1747482
Ave neighs/atom = 88.9213
Neighbor list builds = 9505
Dangerous builds not checked
Setting up Verlet run ...
  Unit style    : metal
  Current step  : 120000
  Time step     : 0.001
Per MPI rank memory allocation (min/avg/max) = 12.07 | 12.07 | 12.07 Mbytes
Step Temp Press TotEng PotEng Enthalpy 
  120000    2067.7603   -140.08574   -55248.409   -60500.708   -55273.043 
  120495     2008.833    1147.0419   -55480.109   -60582.728    -55279.05 
Loop time of 62.3312 on 2 procs for 495 steps with 19652 atoms

Performance: 0.686 ns/day, 34.978 hours/ns, 7.941 timesteps/s
96.3% CPU use with 2 MPI tasks x no OpenMP threads

MPI task timing breakdown:
Section |  min time  |  avg time  |  max time  |%varavg| %total
---------------------------------------------------------------
Pair    | 34.576     | 35.099     | 35.622     |   8.8 | 56.31
Neigh   | 22.613     | 23.203     | 23.793     |  12.3 | 37.23
Comm    | 2.2411     | 3.3832     | 4.5252     |  62.1 |  5.43
Output  | 9.4891e-05 | 0.00012338 | 0.00015187 |   0.0 |  0.00
Modify  | 0.49681    | 0.50232    | 0.50783    |   0.8 |  0.81
Other   |            | 0.1432     |            |       |  0.23

Nlocal:    9826 ave 9831 max 9821 min
Histogram: 1 0 0 0 0 0 0 0 0 1
Nghost:    13913 ave 13914 max 13912 min
Histogram: 1 0 0 0 0 0 0 0 0 1
Neighs:    876825 ave 885760 max 867890 min
Histogram: 1 0 0 0 0 0 0 0 0 1

Total # of neighbors = 1753650
Ave neighs/atom = 89.2352
Neighbor list builds = 495
Dangerous builds not checked
Setting up Verlet run ...
  Unit style    : metal
  Current step  : 120495
  Time step     : 0.001
Per MPI rank memory allocation (min/avg/max) = 12.07 | 12.07 | 12.07 Mbytes
Step Temp Press TotEng PotEng Enthalpy 
  120495     2008.833    1147.0419   -55480.109   -60582.728    -55279.05 
  130000    1991.1689    -578.7778   -55664.208   -60721.958   -55765.337 
Loop time of 1209.98 on 2 procs for 9505 steps with 19652 atoms

Performance: 0.679 ns/day, 35.361 hours/ns, 7.855 timesteps/s
98.8% CPU use with 2 MPI tasks x no OpenMP threads

MPI task timing breakdown:
Section |  min time  |  avg time  |  max time  |%varavg| %total
---------------------------------------------------------------
Pair    | 676.51     | 682.71     | 688.91     |  23.7 | 56.42
Neigh   | 447.18     | 461.62     | 476.06     |  67.2 | 38.15
Comm    | 32.88      | 53.919     | 74.958     | 286.5 |  4.46
Output  | 0.060725   | 0.060745   | 0.060765   |   0.0 |  0.01
Modify  | 8.8891     | 9.0645     | 9.2398     |   5.8 |  0.75
Other   |            | 2.615      |            |       |  0.22

Nlocal:    9826 ave 9827 max 9825 min
Histogram: 1 0 0 0 0 0 0 0 0 1
Nghost:    13913.5 ave 13921 max 13906 min
Histogram: 1 0 0 0 0 0 0 0 0 1
Neighs:    879605 ave 888968 max 870242 min
Histogram: 1 0 0 0 0 0 0 0 0 1

Total # of neighbors = 1759210
Ave neighs/atom = 89.5181
Neighbor list builds = 9505
Dangerous builds not checked
Setting up Verlet run ...
  Unit style    : metal
  Current step  : 130000
  Time step     : 0.001
Per MPI rank memory allocation (min/avg/max) = 12.07 | 12.07 | 12.07 Mbytes
Step Temp Press TotEng PotEng Enthalpy 
  130000    1991.1689    -578.7778   -55664.208   -60721.958   -55765.337 
  130495    1958.8449    1235.7471   -55884.141   -60859.786   -55669.259 
Loop time of 62.7511 on 2 procs for 495 steps with 19652 atoms

Performance: 0.682 ns/day, 35.214 hours/ns, 7.888 timesteps/s
98.6% CPU use with 2 MPI tasks x no OpenMP threads

MPI task timing breakdown:
Section |  min time  |  avg time  |  max time  |%varavg| %total
---------------------------------------------------------------
Pair    | 33.25      | 35.009     | 36.768     |  29.7 | 55.79
Neigh   | 23.212     | 23.863     | 24.513     |  13.3 | 38.03
Comm    | 0.81398    | 3.2435     | 5.6731     | 134.9 |  5.17
Output  | 7.987e-05  | 0.00011098 | 0.0001421  |   0.0 |  0.00
Modify  | 0.49222    | 0.50424    | 0.51626    |   1.7 |  0.80
Other   |            | 0.1319     |            |       |  0.21

Nlocal:    9826 ave 9855 max 9797 min
Histogram: 1 0 0 0 0 0 0 0 0 1
Nghost:    13972 ave 13979 max 13965 min
Histogram: 1 0 0 0 0 0 0 0 0 1
Neighs:    883626 ave 896486 max 870767 min
Histogram: 1 0 0 0 0 0 0 0 0 1

Total # of neighbors = 1767253
Ave neighs/atom = 89.9274
Neighbor list builds = 495
Dangerous builds not checked
Setting up Verlet run ...
  Unit style    : metal
  Current step  : 130495
  Time step     : 0.001
Per MPI rank memory allocation (min/avg/max) = 12.07 | 12.07 | 12.07 Mbytes
Step Temp Press TotEng PotEng Enthalpy 
  130495    1958.8449    1235.7471   -55884.141   -60859.786   -55669.259 
  140000    1950.0975   -1097.5684    -55942.01   -60895.435   -56133.124 
Loop time of 1150.02 on 2 procs for 9505 steps with 19652 atoms

Performance: 0.714 ns/day, 33.609 hours/ns, 8.265 timesteps/s
98.0% CPU use with 2 MPI tasks x no OpenMP threads

MPI task timing breakdown:
Section |  min time  |  avg time  |  max time  |%varavg| %total
---------------------------------------------------------------
Pair    | 640.7      | 645.61     | 650.53     |  19.3 | 56.14
Neigh   | 437.24     | 445.82     | 454.39     |  40.6 | 38.77
Comm    | 32.881     | 46.625     | 60.369     | 201.3 |  4.05
Output  | 0.49839    | 0.49842    | 0.49845    |   0.0 |  0.04
Modify  | 8.7932     | 8.8494     | 8.9056     |   1.9 |  0.77
Other   |            | 2.62       |            |       |  0.23

Nlocal:    9826 ave 9836 max 9816 min
Histogram: 1 0 0 0 0 0 0 0 0 1
Nghost:    13904 ave 13932 max 13876 min
Histogram: 1 0 0 0 0 0 0 0 0 1
Neighs:    882200 ave 893195 max 871206 min
Histogram: 1 0 0 0 0 0 0 0 0 1

Total # of neighbors = 1764401
Ave neighs/atom = 89.7823
Neighbor list builds = 9505
Dangerous builds not checked
Setting up Verlet run ...
  Unit style    : metal
  Current step  : 140000
  Time step     : 0.001
Per MPI rank memory allocation (min/avg/max) = 12.08 | 12.08 | 12.08 Mbytes
Step Temp Press TotEng PotEng Enthalpy 
  140000    1950.0975   -1097.5684    -55942.01   -60895.435   -56133.124 
  140495    1922.1372   -924.46079   -56138.514   -61020.917   -56298.925 
Loop time of 57.6062 on 2 procs for 495 steps with 19652 atoms

Performance: 0.742 ns/day, 32.327 hours/ns, 8.593 timesteps/s
97.5% CPU use with 2 MPI tasks x no OpenMP threads

MPI task timing breakdown:
Section |  min time  |  avg time  |  max time  |%varavg| %total
---------------------------------------------------------------
Pair    | 32.297     | 32.373     | 32.449     |   1.3 | 56.20
Neigh   | 21.029     | 21.983     | 22.936     |  20.3 | 38.16
Comm    | 1.5986     | 2.6603     | 3.7219     |  65.1 |  4.62
Output  | 8.7023e-05 | 0.0001241  | 0.00016117 |   0.0 |  0.00
Modify  | 0.44755    | 0.46474    | 0.48193    |   2.5 |  0.81
Other   |            | 0.1253     |            |       |  0.22

Nlocal:    9826 ave 9833 max 9819 min
Histogram: 1 0 0 0 0 0 0 0 0 1
Nghost:    13933 ave 13953 max 13913 min
Histogram: 1 0 0 0 0 0 0 0 0 1
Neighs:    885356 ave 896845 max 873866 min
Histogram: 1 0 0 0 0 0 0 0 0 1

Total # of neighbors = 1770711
Ave neighs/atom = 90.1033
Neighbor list builds = 495
Dangerous builds not checked
Setting up Verlet run ...
  Unit style    : metal
  Current step  : 140495
  Time step     : 0.001
Per MPI rank memory allocation (min/avg/max) = 12.08 | 12.08 | 12.08 Mbytes
Step Temp Press TotEng PotEng Enthalpy 
  140495    1922.1372   -924.46079   -56138.514   -61020.917   -56298.925 
  150000    1913.5099   -1550.1441   -56190.021   -61050.511   -56458.976 
Loop time of 1120.82 on 2 procs for 9505 steps with 19652 atoms

Performance: 0.733 ns/day, 32.755 hours/ns, 8.480 timesteps/s
98.3% CPU use with 2 MPI tasks x no OpenMP threads

MPI task timing breakdown:
Section |  min time  |  avg time  |  max time  |%varavg| %total
---------------------------------------------------------------
Pair    | 630.21     | 632.39     | 634.56     |   8.6 | 56.42
Neigh   | 426.37     | 434.82     | 443.28     |  40.6 | 38.80
Comm    | 31.92      | 42.87      | 53.821     | 167.2 |  3.82
Output  | 0.073189   | 0.073208   | 0.073228   |   0.0 |  0.01
Modify  | 8.1319     | 8.2475     | 8.3631     |   4.0 |  0.74
Other   |            | 2.415      |            |       |  0.22

Nlocal:    9826 ave 9836 max 9816 min
Histogram: 1 0 0 0 0 0 0 0 0 1
Nghost:    13926 ave 13938 max 13914 min
Histogram: 1 0 0 0 0 0 0 0 0 1
Neighs:    885271 ave 892575 max 877967 min
Histogram: 1 0 0 0 0 0 0 0 0 1

Total # of neighbors = 1770542
Ave neighs/atom = 90.0947
Neighbor list builds = 9505
Dangerous builds not checked
Setting up Verlet run ...
  Unit style    : metal
  Current step  : 150000
  Time step     : 0.001
Per MPI rank memory allocation (min/avg/max) = 12.08 | 12.08 | 12.08 Mbytes
Step Temp Press TotEng PotEng Enthalpy 
  150000    1913.5099   -1550.1441   -56190.021   -61050.511   -56458.976 
  150495     1851.654    -721.1159   -56449.394   -61152.764   -56573.996 
Loop time of 58.352 on 2 procs for 495 steps with 19652 atoms

Performance: 0.733 ns/day, 32.745 hours/ns, 8.483 timesteps/s
99.1% CPU use with 2 MPI tasks x no OpenMP threads

MPI task timing breakdown:
Section |  min time  |  avg time  |  max time  |%varavg| %total
---------------------------------------------------------------
Pair    | 32.791     | 33.112     | 33.432     |   5.6 | 56.74
Neigh   | 22.544     | 22.703     | 22.863     |   3.3 | 38.91
Comm    | 1.4809     | 1.9468     | 2.4128     |  33.4 |  3.34
Output  | 8.3923e-05 | 0.00011241 | 0.00014091 |   0.0 |  0.00
Modify  | 0.45143    | 0.46095    | 0.47047    |   1.4 |  0.79
Other   |            | 0.129      |            |       |  0.22

Nlocal:    9826 ave 9832 max 9820 min
Histogram: 1 0 0 0 0 0 0 0 0 1
Nghost:    13946 ave 13965 max 13927 min
Histogram: 1 0 0 0 0 0 0 0 0 1
Neighs:    889014 ave 899577 max 878451 min
Histogram: 1 0 0 0 0 0 0 0 0 1

Total # of neighbors = 1778028
Ave neighs/atom = 90.4757
Neighbor list builds = 495
Dangerous builds not checked
Setting up Verlet run ...
  Unit style    : metal
  Current step  : 150495
  Time step     : 0.001
Per MPI rank memory allocation (min/avg/max) = 12.08 | 12.08 | 12.08 Mbytes
Step Temp Press TotEng PotEng Enthalpy 
  150495     1851.654    -721.1159   -56449.394   -61152.764   -56573.996 
  160000    1851.9074   -1269.6015   -56553.709   -61257.723   -56772.732 
Loop time of 1084.25 on 2 procs for 9505 steps with 19652 atoms

Performance: 0.757 ns/day, 31.687 hours/ns, 8.766 timesteps/s
99.1% CPU use with 2 MPI tasks x no OpenMP threads

MPI task timing breakdown:
Section |  min time  |  avg time  |  max time  |%varavg| %total
---------------------------------------------------------------
Pair    | 603.5      | 607.56     | 611.63     |  16.5 | 56.04
Neigh   | 407.7      | 419.31     | 430.92     |  56.7 | 38.67
Comm    | 31.064     | 46.997     | 62.93      | 232.4 |  4.33
Output  | 0.05826    | 0.05828    | 0.058299   |   0.0 |  0.01
Modify  | 7.9609     | 7.9895     | 8.018      |   1.0 |  0.74
Other   |            | 2.335      |            |       |  0.22

Nlocal:    9826 ave 9833 max 9819 min
Histogram: 1 0 0 0 0 0 0 0 0 1
Nghost:    13949.5 ave 13996 max 13903 min
Histogram: 1 0 0 0 0 0 0 0 0 1
Neighs:    890212 ave 900612 max 879812 min
Histogram: 1 0 0 0 0 0 0 0 0 1

Total # of neighbors = 1780424
Ave neighs/atom = 90.5976
Neighbor list builds = 9505
Dangerous builds not checked
Setting up Verlet run ...
  Unit style    : metal
  Current step  : 160000
  Time step     : 0.001
Per MPI rank memory allocation (min/avg/max) = 12.08 | 12.08 | 12.08 Mbytes
Step Temp Press TotEng PotEng Enthalpy 
  160000    1851.9074   -1269.6015   -56553.709   -61257.723   -56772.732 
  160495    1816.5474   -319.28072   -56740.425   -61354.621   -56795.294 
Loop time of 58.6367 on 2 procs for 495 steps with 19652 atoms

Performance: 0.729 ns/day, 32.905 hours/ns, 8.442 timesteps/s
98.5% CPU use with 2 MPI tasks x no OpenMP threads

MPI task timing breakdown:
Section |  min time  |  avg time  |  max time  |%varavg| %total
---------------------------------------------------------------
Pair    | 32.231     | 33.004     | 33.778     |  13.5 | 56.29
Neigh   | 20.674     | 21.515     | 22.357     |  18.1 | 36.69
Comm    | 1.9121     | 3.5483     | 5.1844     |  86.9 |  6.05
Output  | 9.4891e-05 | 0.00013649 | 0.0001781  |   0.0 |  0.00
Modify  | 0.4391     | 0.44599    | 0.45288    |   1.0 |  0.76
Other   |            | 0.123      |            |       |  0.21

Nlocal:    9826 ave 9835 max 9817 min
Histogram: 1 0 0 0 0 0 0 0 0 1
Nghost:    13891.5 ave 13907 max 13876 min
Histogram: 1 0 0 0 0 0 0 0 0 1
Neighs:    893832 ave 905181 max 882484 min
Histogram: 1 0 0 0 0 0 0 0 0 1

Total # of neighbors = 1787665
Ave neighs/atom = 90.9661
Neighbor list builds = 495
Dangerous builds not checked
Setting up Verlet run ...
  Unit style    : metal
  Current step  : 160495
  Time step     : 0.001
Per MPI rank memory allocation (min/avg/max) = 12.08 | 12.08 | 12.08 Mbytes
Step Temp Press TotEng PotEng Enthalpy 
  160495    1816.5474   -319.28072   -56740.425   -61354.621   -56795.294 
  170000    1807.8133    1113.4877    -56846.65   -61438.661   -56655.895 
Loop time of 1098.6 on 2 procs for 9505 steps with 19652 atoms

Performance: 0.748 ns/day, 32.106 hours/ns, 8.652 timesteps/s
97.6% CPU use with 2 MPI tasks x no OpenMP threads

MPI task timing breakdown:
Section |  min time  |  avg time  |  max time  |%varavg| %total
---------------------------------------------------------------
Pair    | 607.6      | 612.95     | 618.29     |  21.6 | 55.79
Neigh   | 419        | 425.06     | 431.13     |  29.4 | 38.69
Comm    | 38.261     | 49.938     | 61.615     | 165.2 |  4.55
Output  | 0.057971   | 0.05799    | 0.058009   |   0.0 |  0.01
Modify  | 8.201      | 8.2031     | 8.2053     |   0.1 |  0.75
Other   |            | 2.391      |            |       |  0.22

Nlocal:    9826 ave 9835 max 9817 min
Histogram: 1 0 0 0 0 0 0 0 0 1
Nghost:    13960 ave 13986 max 13934 min
Histogram: 1 0 0 0 0 0 0 0 0 1
Neighs:    896358 ave 906598 max 886117 min
Histogram: 1 0 0 0 0 0 0 0 0 1

Total # of neighbors = 1792715
Ave neighs/atom = 91.223
Neighbor list builds = 9505
Dangerous builds not checked
Setting up Verlet run ...
  Unit style    : metal
  Current step  : 170000
  Time step     : 0.001
Per MPI rank memory allocation (min/avg/max) = 12.08 | 12.08 | 12.08 Mbytes
Step Temp Press TotEng PotEng Enthalpy 
  170000    1807.8133    1113.4877    -56846.65   -61438.661   -56655.895 
  170495    1772.7645    272.45756   -57041.864   -61544.848   -56995.297 
Loop time of 60.6978 on 2 procs for 495 steps with 19652 atoms

Performance: 0.705 ns/day, 34.062 hours/ns, 8.155 timesteps/s
99.2% CPU use with 2 MPI tasks x no OpenMP threads

MPI task timing breakdown:
Section |  min time  |  avg time  |  max time  |%varavg| %total
---------------------------------------------------------------
Pair    | 32.863     | 34.203     | 35.543     |  22.9 | 56.35
Neigh   | 22.517     | 22.872     | 23.228     |   7.4 | 37.68
Comm    | 1.36       | 3.0582     | 4.7564     |  97.1 |  5.04
Output  | 8.893e-05  | 0.00011837 | 0.00014782 |   0.0 |  0.00
Modify  | 0.43286    | 0.43802    | 0.44318    |   0.8 |  0.72
Other   |            | 0.1259     |            |       |  0.21

Nlocal:    9826 ave 9851 max 9801 min
Histogram: 1 0 0 0 0 0 0 0 0 1
Nghost:    13999 ave 14025 max 13973 min
Histogram: 1 0 0 0 0 0 0 0 0 1
Neighs:    898297 ave 904369 max 892225 min
Histogram: 1 0 0 0 0 0 0 0 0 1

Total # of neighbors = 1796594
Ave neighs/atom = 91.4204
Neighbor list builds = 495
Dangerous builds not checked
Setting up Verlet run ...
  Unit style    : metal
  Current step  : 170495
  Time step     : 0.001
Per MPI rank memory allocation (min/avg/max) = 12.08 | 12.08 | 12.08 Mbytes
Step Temp Press TotEng PotEng Enthalpy 
  170495    1772.7645    272.45756   -57041.864   -61544.848   -56995.297 
  180000    1755.4258   -1591.2653   -57121.393   -61580.335   -57393.516 
Loop time of 1130.53 on 2 procs for 9505 steps with 19652 atoms

Performance: 0.726 ns/day, 33.039 hours/ns, 8.408 timesteps/s
99.4% CPU use with 2 MPI tasks x no OpenMP threads

MPI task timing breakdown:
Section |  min time  |  avg time  |  max time  |%varavg| %total
---------------------------------------------------------------
Pair    | 636.78     | 639.31     | 641.84     |  10.0 | 56.55
Neigh   | 426.69     | 435.62     | 444.55     |  42.8 | 38.53
Comm    | 33.293     | 44.917     | 56.542     | 173.5 |  3.97
Output  | 0.054551   | 0.054569   | 0.054586   |   0.0 |  0.00
Modify  | 8.1968     | 8.2648     | 8.3328     |   2.4 |  0.73
Other   |            | 2.365      |            |       |  0.21

Nlocal:    9826 ave 9836 max 9816 min
Histogram: 1 0 0 0 0 0 0 0 0 1
Nghost:    14042 ave 14047 max 14037 min
Histogram: 1 0 0 0 0 0 0 0 0 1
Neighs:    898256 ave 907794 max 888718 min
Histogram: 1 0 0 0 0 0 0 0 0 1

Total # of neighbors = 1796512
Ave neighs/atom = 91.4162
Neighbor list builds = 9505
Dangerous builds not checked
Setting up Verlet run ...
  Unit style    : metal
  Current step  : 180000
  Time step     : 0.001
Per MPI rank memory allocation (min/avg/max) = 12.08 | 12.08 | 12.08 Mbytes
Step Temp Press TotEng PotEng Enthalpy 
  180000    1755.4258   -1591.2653   -57121.393   -61580.335   -57393.516 
  180495     1708.266   -531.15675   -57377.485   -61716.636   -57467.917 
Loop time of 58.5885 on 2 procs for 495 steps with 19652 atoms

Performance: 0.730 ns/day, 32.878 hours/ns, 8.449 timesteps/s
99.8% CPU use with 2 MPI tasks x no OpenMP threads

MPI task timing breakdown:
Section |  min time  |  avg time  |  max time  |%varavg| %total
---------------------------------------------------------------
Pair    | 32.387     | 33.134     | 33.881     |  13.0 | 56.55
Neigh   | 21.026     | 22.185     | 23.345     |  24.6 | 37.87
Comm    | 0.78336    | 2.7095     | 4.6356     | 117.0 |  4.62
Output  | 8.0824e-05 | 0.00012243 | 0.00016403 |   0.0 |  0.00
Modify  | 0.41351    | 0.43285    | 0.4522     |   2.9 |  0.74
Other   |            | 0.1269     |            |       |  0.22

Nlocal:    9826 ave 9846 max 9806 min
Histogram: 1 0 0 0 0 0 0 0 0 1
Nghost:    14026 ave 14033 max 14019 min
Histogram: 1 0 0 0 0 0 0 0 0 1
Neighs:    901848 ave 908873 max 894822 min
Histogram: 1 0 0 0 0 0 0 0 0 1

Total # of neighbors = 1803695
Ave neighs/atom = 91.7818
Neighbor list builds = 495
Dangerous builds not checked
Setting up Verlet run ...
  Unit style    : metal
  Current step  : 180495
  Time step     : 0.001
Per MPI rank memory allocation (min/avg/max) = 12.08 | 12.08 | 12.08 Mbytes
Step Temp Press TotEng PotEng Enthalpy 
  180495     1708.266   -531.15675   -57377.485   -61716.636   -57467.917 
  190000     1683.515   -275.42103   -57490.192   -61766.473   -57537.016 
Loop time of 1128.71 on 2 procs for 9505 steps with 19652 atoms

Performance: 0.728 ns/day, 32.986 hours/ns, 8.421 timesteps/s
98.9% CPU use with 2 MPI tasks x no OpenMP threads

MPI task timing breakdown:
Section |  min time  |  avg time  |  max time  |%varavg| %total
---------------------------------------------------------------
Pair    | 632.7      | 633.9      | 635.09     |   4.8 | 56.16
Neigh   | 413.48     | 424.36     | 435.24     |  52.8 | 37.60
Comm    | 46.726     | 56.594     | 66.463     | 131.2 |  5.01
Output  | 0.10828    | 0.1083     | 0.10832    |   0.0 |  0.01
Modify  | 11.352     | 11.427     | 11.502     |   2.2 |  1.01
Other   |            | 2.321      |            |       |  0.21

Nlocal:    9826 ave 9832 max 9820 min
Histogram: 1 0 0 0 0 0 0 0 0 1
Nghost:    14042 ave 14043 max 14041 min
Histogram: 1 0 0 0 0 0 0 0 0 1
Neighs:    902780 ave 910286 max 895274 min
Histogram: 1 0 0 0 0 0 0 0 0 1

Total # of neighbors = 1805560
Ave neighs/atom = 91.8767
Neighbor list builds = 9505
Dangerous builds not checked
Setting up Verlet run ...
  Unit style    : metal
  Current step  : 190000
  Time step     : 0.001
Per MPI rank memory allocation (min/avg/max) = 12.08 | 12.09 | 12.09 Mbytes
Step Temp Press TotEng PotEng Enthalpy 
  190000     1683.515   -275.42103   -57490.192   -61766.473   -57537.016 
  190495    1659.7055    688.65174   -57648.776   -61864.579   -57532.119 
Loop time of 53.8714 on 2 procs for 495 steps with 19652 atoms

Performance: 0.794 ns/day, 30.231 hours/ns, 9.189 timesteps/s
99.9% CPU use with 2 MPI tasks x no OpenMP threads

MPI task timing breakdown:
Section |  min time  |  avg time  |  max time  |%varavg| %total
---------------------------------------------------------------
Pair    | 30.373     | 30.527     | 30.681     |   2.8 | 56.67
Neigh   | 20.597     | 20.627     | 20.657     |   0.7 | 38.29
Comm    | 2.0818     | 2.2097     | 2.3376     |   8.6 |  4.10
Output  | 9.8944e-05 | 0.00013351 | 0.00016809 |   0.0 |  0.00
Modify  | 0.3862     | 0.3878     | 0.38939    |   0.3 |  0.72
Other   |            | 0.1197     |            |       |  0.22

Nlocal:    9826 ave 9841 max 9811 min
Histogram: 1 0 0 0 0 0 0 0 0 1
Nghost:    14056.5 ave 14069 max 14044 min
Histogram: 1 0 0 0 0 0 0 0 0 1
Neighs:    905964 ave 912856 max 899071 min
Histogram: 1 0 0 0 0 0 0 0 0 1

Total # of neighbors = 1811927
Ave neighs/atom = 92.2006
Neighbor list builds = 495
Dangerous builds not checked
Setting up Verlet run ...
  Unit style    : metal
  Current step  : 190495
  Time step     : 0.001
Per MPI rank memory allocation (min/avg/max) = 12.08 | 12.09 | 12.09 Mbytes
Step Temp Press TotEng PotEng Enthalpy 
  190495    1659.7055    688.65174   -57648.776   -61864.579   -57532.119 
  200000    1665.9303   -2011.5262   -57769.443   -62001.057   -58109.933 
Loop time of 1168.68 on 2 procs for 9505 steps with 19652 atoms

Performance: 0.703 ns/day, 34.154 hours/ns, 8.133 timesteps/s
99.3% CPU use with 2 MPI tasks x no OpenMP threads

MPI task timing breakdown:
Section |  min time  |  avg time  |  max time  |%varavg| %total
---------------------------------------------------------------
Pair    | 663.14     | 665.89     | 668.64     |  10.7 | 56.98
Neigh   | 426.52     | 436.81     | 447.1      |  49.2 | 37.38
Comm    | 41.612     | 54.92      | 68.229     | 179.6 |  4.70
Output  | 0.050669   | 0.050694   | 0.050718   |   0.0 |  0.00
Modify  | 8.4128     | 8.514      | 8.6153     |   3.5 |  0.73
Other   |            | 2.49       |            |       |  0.21

Nlocal:    9826 ave 9838 max 9814 min
Histogram: 1 0 0 0 0 0 0 0 0 1
Nghost:    14051 ave 14075 max 14027 min
Histogram: 1 0 0 0 0 0 0 0 0 1
Neighs:    906680 ave 914405 max 898956 min
Histogram: 1 0 0 0 0 0 0 0 0 1

Total # of neighbors = 1813361
Ave neighs/atom = 92.2736
Neighbor list builds = 9505
Dangerous builds not checked
Setting up Verlet run ...
  Unit style    : metal
  Current step  : 200000
  Time step     : 0.001
Per MPI rank memory allocation (min/avg/max) = 12.09 | 12.09 | 12.09 Mbytes
Step Temp Press TotEng PotEng Enthalpy 
  200000    1665.9303   -2011.5262   -57769.443   -62001.057   -58109.933 
  200495    1609.2009   -1023.8243   -57977.673    -62065.19   -58150.552 
Loop time of 59.0177 on 2 procs for 495 steps with 19652 atoms

Performance: 0.725 ns/day, 33.119 hours/ns, 8.387 timesteps/s
98.6% CPU use with 2 MPI tasks x no OpenMP threads

MPI task timing breakdown:
Section |  min time  |  avg time  |  max time  |%varavg| %total
---------------------------------------------------------------
Pair    | 33.038     | 33.432     | 33.826     |   6.8 | 56.65
Neigh   | 20.206     | 21.843     | 23.48      |  35.0 | 37.01
Comm    | 1.9142     | 3.1768     | 4.4393     |  70.8 |  5.38
Output  | 0.00010109 | 0.00015604 | 0.000211   |   0.0 |  0.00
Modify  | 0.43616    | 0.43849    | 0.44081    |   0.4 |  0.74
Other   |            | 0.1273     |            |       |  0.22

Nlocal:    9826 ave 9839 max 9813 min
Histogram: 1 0 0 0 0 0 0 0 0 1
Nghost:    14073.5 ave 14076 max 14071 min
Histogram: 1 0 0 0 0 0 0 0 0 1
Neighs:    908574 ave 921000 max 896148 min
Histogram: 1 0 0 0 0 0 0 0 0 1

Total # of neighbors = 1817148
Ave neighs/atom = 92.4663
Neighbor list builds = 495
Dangerous builds not checked
Setting up Verlet run ...
  Unit style    : metal
  Current step  : 200495
  Time step     : 0.001
Per MPI rank memory allocation (min/avg/max) = 12.09 | 12.09 | 12.09 Mbytes
Step Temp Press TotEng PotEng Enthalpy 
  200495    1609.2009   -1023.8243   -57977.673    -62065.19   -58150.552 
  210000    1601.5754   -351.84954   -58098.867   -62167.015   -58158.072 
Loop time of 1151.04 on 2 procs for 9505 steps with 19652 atoms

Performance: 0.713 ns/day, 33.638 hours/ns, 8.258 timesteps/s
98.4% CPU use with 2 MPI tasks x no OpenMP threads

MPI task timing breakdown:
Section |  min time  |  avg time  |  max time  |%varavg| %total
---------------------------------------------------------------
Pair    | 647.76     | 647.77     | 647.79     |   0.1 | 56.28
Neigh   | 404.93     | 424.03     | 443.12     |  92.7 | 36.84
Comm    | 38.6       | 58.042     | 77.484     | 255.2 |  5.04
Output  | 0.24409    | 0.24411    | 0.24412    |   0.0 |  0.02
Modify  | 18.419     | 18.51      | 18.601     |   2.1 |  1.61
Other   |            | 2.439      |            |       |  0.21

Nlocal:    9826 ave 9854 max 9798 min
Histogram: 1 0 0 0 0 0 0 0 0 1
Nghost:    14110.5 ave 14127 max 14094 min
Histogram: 1 0 0 0 0 0 0 0 0 1
Neighs:    911852 ave 926083 max 897621 min
Histogram: 1 0 0 0 0 0 0 0 0 1

Total # of neighbors = 1823704
Ave neighs/atom = 92.7999
Neighbor list builds = 9505
Dangerous builds not checked
Setting up Verlet run ...
  Unit style    : metal
  Current step  : 210000
  Time step     : 0.001
Per MPI rank memory allocation (min/avg/max) = 12.09 | 12.09 | 12.09 Mbytes
Step Temp Press TotEng PotEng Enthalpy 
  210000    1601.5754   -351.84954   -58098.867   -62167.015   -58158.072 
  210495    1563.9957   -341.54894   -58292.058   -62264.749    -58349.39 
Loop time of 56.5146 on 2 procs for 495 steps with 19652 atoms

Performance: 0.757 ns/day, 31.714 hours/ns, 8.759 timesteps/s
99.3% CPU use with 2 MPI tasks x no OpenMP threads

MPI task timing breakdown:
Section |  min time  |  avg time  |  max time  |%varavg| %total
---------------------------------------------------------------
Pair    | 31.527     | 32.01      | 32.493     |   8.5 | 56.64
Neigh   | 21.692     | 21.918     | 22.144     |   4.8 | 38.78
Comm    | 1.3278     | 2.0253     | 2.7229     |  49.0 |  3.58
Output  | 0.00019908 | 0.00020802 | 0.00021696 |   0.0 |  0.00
Modify  | 0.42653    | 0.43263    | 0.43873    |   0.9 |  0.77
Other   |            | 0.1283     |            |       |  0.23

Nlocal:    9826 ave 9846 max 9806 min
Histogram: 1 0 0 0 0 0 0 0 0 1
Nghost:    14125.5 ave 14161 max 14090 min
Histogram: 1 0 0 0 0 0 0 0 0 1
Neighs:    914081 ave 926461 max 901701 min
Histogram: 1 0 0 0 0 0 0 0 0 1

Total # of neighbors = 1828162
Ave neighs/atom = 93.0268
Neighbor list builds = 495
Dangerous builds not checked
Setting up Verlet run ...
  Unit style    : metal
  Current step  : 210495
  Time step     : 0.001
Per MPI rank memory allocation (min/avg/max) = 12.09 | 12.09 | 12.09 Mbytes
Step Temp Press TotEng PotEng Enthalpy 
  210495    1563.9957   -341.54894   -58292.058   -62264.749    -58349.39 
  220000    1558.8939    2064.4926   -58405.628   -62365.361   -58060.655 
Loop time of 1117.88 on 2 procs for 9505 steps with 19652 atoms

Performance: 0.735 ns/day, 32.669 hours/ns, 8.503 timesteps/s
99.1% CPU use with 2 MPI tasks x no OpenMP threads

MPI task timing breakdown:
Section |  min time  |  avg time  |  max time  |%varavg| %total
---------------------------------------------------------------
Pair    | 635.99     | 636.83     | 637.66     |   3.3 | 56.97
Neigh   | 418.11     | 418.65     | 419.19     |   2.6 | 37.45
Comm    | 51.398     | 51.792     | 52.185     |   5.5 |  4.63
Output  | 0.05693    | 0.056945   | 0.056961   |   0.0 |  0.01
Modify  | 8.0702     | 8.0999     | 8.1296     |   1.0 |  0.72
Other   |            | 2.452      |            |       |  0.22

Nlocal:    9826 ave 9855 max 9797 min
Histogram: 1 0 0 0 0 0 0 0 0 1
Nghost:    14096.5 ave 14108 max 14085 min
Histogram: 1 0 0 0 0 0 0 0 0 1
Neighs:    918166 ave 924200 max 912133 min
Histogram: 1 0 0 0 0 0 0 0 0 1

Total # of neighbors = 1836333
Ave neighs/atom = 93.4426
Neighbor list builds = 9505
Dangerous builds not checked
Setting up Verlet run ...
  Unit style    : metal
  Current step  : 220000
  Time step     : 0.001
Per MPI rank memory allocation (min/avg/max) = 12.09 | 12.09 | 12.09 Mbytes
Step Temp Press TotEng PotEng Enthalpy 
  220000    1558.8939    2064.4926   -58405.628   -62365.361   -58060.655 
  220495    1523.6642    1487.4025    -58603.06   -62473.305   -58355.078 
Loop time of 55.4816 on 2 procs for 495 steps with 19652 atoms

Performance: 0.771 ns/day, 31.134 hours/ns, 8.922 timesteps/s
99.7% CPU use with 2 MPI tasks x no OpenMP threads

MPI task timing breakdown:
Section |  min time  |  avg time  |  max time  |%varavg| %total
---------------------------------------------------------------
Pair    | 31.244     | 31.604     | 31.964     |   6.4 | 56.96
Neigh   | 20.506     | 20.606     | 20.706     |   2.2 | 37.14
Comm    | 2.4462     | 2.7177     | 2.9891     |  16.5 |  4.90
Output  | 6.0081e-05 | 7.4506e-05 | 8.893e-05  |   0.0 |  0.00
Modify  | 0.42428    | 0.42508    | 0.42588    |   0.1 |  0.77
Other   |            | 0.1292     |            |       |  0.23

Nlocal:    9826 ave 9846 max 9806 min
Histogram: 1 0 0 0 0 0 0 0 0 1
Nghost:    14153.5 ave 14174 max 14133 min
Histogram: 1 0 0 0 0 0 0 0 0 1
Neighs:    920298 ave 932778 max 907819 min
Histogram: 1 0 0 0 0 0 0 0 0 1

Total # of neighbors = 1840597
Ave neighs/atom = 93.6595
Neighbor list builds = 495
Dangerous builds not checked
Setting up Verlet run ...
  Unit style    : metal
  Current step  : 220495
  Time step     : 0.001
Per MPI rank memory allocation (min/avg/max) = 12.09 | 12.09 | 12.09 Mbytes
Step Temp Press TotEng PotEng Enthalpy 
  220495    1523.6642    1487.4025    -58603.06   -62473.305   -58355.078 
  230000    1484.5481   -712.26636   -58774.857   -62545.744   -58893.606 
Loop time of 1222.67 on 2 procs for 9505 steps with 19652 atoms

Performance: 0.672 ns/day, 35.732 hours/ns, 7.774 timesteps/s
94.9% CPU use with 2 MPI tasks x no OpenMP threads

MPI task timing breakdown:
Section |  min time  |  avg time  |  max time  |%varavg| %total
---------------------------------------------------------------
Pair    | 689.89     | 691.24     | 692.58     |   5.1 | 56.53
Neigh   | 422.51     | 424        | 425.49     |   7.2 | 34.68
Comm    | 92.743     | 95.732     | 98.722     |  30.6 |  7.83
Output  | 0.052412   | 0.052428   | 0.052443   |   0.0 |  0.00
Modify  | 9.0885     | 9.1378     | 9.1871     |   1.6 |  0.75
Other   |            | 2.513      |            |       |  0.21

Nlocal:    9826 ave 9828 max 9824 min
Histogram: 1 0 0 0 0 0 0 0 0 1
Nghost:    14166 ave 14176 max 14156 min
Histogram: 1 0 0 0 0 0 0 0 0 1
Neighs:    920042 ave 929742 max 910342 min
Histogram: 1 0 0 0 0 0 0 0 0 1

Total # of neighbors = 1840084
Ave neighs/atom = 93.6334
Neighbor list builds = 9505
Dangerous builds not checked
Setting up Verlet run ...
  Unit style    : metal
  Current step  : 230000
  Time step     : 0.001
Per MPI rank memory allocation (min/avg/max) = 12.09 | 12.09 | 12.09 Mbytes
Step Temp Press TotEng PotEng Enthalpy 
  230000    1484.5481   -712.26636   -58774.857   -62545.744   -58893.606 
  230495    1456.2359    212.02126   -58909.575   -62608.547   -58874.319 
Loop time of 53.9672 on 2 procs for 495 steps with 19652 atoms

Performance: 0.792 ns/day, 30.285 hours/ns, 9.172 timesteps/s
98.9% CPU use with 2 MPI tasks x no OpenMP threads

MPI task timing breakdown:
Section |  min time  |  avg time  |  max time  |%varavg| %total
---------------------------------------------------------------
Pair    | 30.375     | 30.507     | 30.64      |   2.4 | 56.53
Neigh   | 19.934     | 20.584     | 21.234     |  14.3 | 38.14
Comm    | 1.5383     | 2.3411     | 3.1438     |  52.5 |  4.34
Output  | 7.7963e-05 | 0.00010598 | 0.00013399 |   0.0 |  0.00
Modify  | 0.41091    | 0.41389    | 0.41688    |   0.5 |  0.77
Other   |            | 0.1208     |            |       |  0.22

Nlocal:    9826 ave 9834 max 9818 min
Histogram: 1 0 0 0 0 0 0 0 0 1
Nghost:    14229.5 ave 14261 max 14198 min
Histogram: 1 0 0 0 0 0 0 0 0 1
Neighs:    922808 ave 932027 max 913588 min
Histogram: 1 0 0 0 0 0 0 0 0 1

Total # of neighbors = 1845615
Ave neighs/atom = 93.9149
Neighbor list builds = 495
Dangerous builds not checked
Setting up Verlet run ...
  Unit style    : metal
  Current step  : 230495
  Time step     : 0.001
Per MPI rank memory allocation (min/avg/max) = 12.09 | 12.09 | 12.09 Mbytes
Step Temp Press TotEng PotEng Enthalpy 
  230495    1456.2359    212.02126   -58909.575   -62608.547   -58874.319 
  240000      1438.09   -1155.1637   -59076.026   -62728.906   -59267.822 
Loop time of 1115.49 on 2 procs for 9505 steps with 19652 atoms

Performance: 0.736 ns/day, 32.599 hours/ns, 8.521 timesteps/s
99.3% CPU use with 2 MPI tasks x no OpenMP threads

MPI task timing breakdown:
Section |  min time  |  avg time  |  max time  |%varavg| %total
---------------------------------------------------------------
Pair    | 628.36     | 634.44     | 640.52     |  24.1 | 56.88
Neigh   | 392.15     | 413.29     | 434.44     | 104.0 | 37.05
Comm    | 29.286     | 56.997     | 84.708     | 367.0 |  5.11
Output  | 0.22329    | 0.22332    | 0.22334    |   0.0 |  0.02
Modify  | 8.0161     | 8.1981     | 8.3801     |   6.4 |  0.73
Other   |            | 2.34       |            |       |  0.21

Nlocal:    9826 ave 9872 max 9780 min
Histogram: 1 0 0 0 0 0 0 0 0 1
Nghost:    14189 ave 14221 max 14157 min
Histogram: 1 0 0 0 0 0 0 0 0 1
Neighs:    923780 ave 928281 max 919278 min
Histogram: 1 0 0 0 0 0 0 0 0 1

Total # of neighbors = 1847559
Ave neighs/atom = 94.0138
Neighbor list builds = 9505
Dangerous builds not checked
Setting up Verlet run ...
  Unit style    : metal
  Current step  : 240000
  Time step     : 0.001
Per MPI rank memory allocation (min/avg/max) = 12.09 | 12.09 | 12.09 Mbytes
Step Temp Press TotEng PotEng Enthalpy 
  240000      1438.09   -1155.1637   -59076.026   -62728.906   -59267.822 
  240495    1398.1733   -553.20401   -59271.247   -62822.735   -59362.831 
Loop time of 62.9132 on 2 procs for 495 steps with 19652 atoms

Performance: 0.680 ns/day, 35.305 hours/ns, 7.868 timesteps/s
98.2% CPU use with 2 MPI tasks x no OpenMP threads

MPI task timing breakdown:
Section |  min time  |  avg time  |  max time  |%varavg| %total
---------------------------------------------------------------
Pair    | 34.709     | 35.713     | 36.716     |  16.8 | 56.77
Neigh   | 21.583     | 22.168     | 22.754     |  12.4 | 35.24
Comm    | 2.3109     | 3.9097     | 5.5085     |  80.9 |  6.21
Output  | 8.297e-05  | 0.00011241 | 0.00014186 |   0.0 |  0.00
Modify  | 0.97559    | 0.98744    | 0.9993     |   1.2 |  1.57
Other   |            | 0.1349     |            |       |  0.21

Nlocal:    9826 ave 9842 max 9810 min
Histogram: 1 0 0 0 0 0 0 0 0 1
Nghost:    14200 ave 14217 max 14183 min
Histogram: 1 0 0 0 0 0 0 0 0 1
Neighs:    926302 ave 933525 max 919080 min
Histogram: 1 0 0 0 0 0 0 0 0 1

Total # of neighbors = 1852605
Ave neighs/atom = 94.2706
Neighbor list builds = 495
Dangerous builds not checked
Setting up Verlet run ...
  Unit style    : metal
  Current step  : 240495
  Time step     : 0.001
Per MPI rank memory allocation (min/avg/max) = 12.09 | 12.09 | 12.09 Mbytes
Step Temp Press TotEng PotEng Enthalpy 
  240495    1398.1733   -553.20401   -59271.247   -62822.735   -59362.831 
  250000    1399.3476   -539.18698   -59363.151   -62917.622   -59452.216 
Loop time of 1233.62 on 2 procs for 9505 steps with 19652 atoms

Performance: 0.666 ns/day, 36.052 hours/ns, 7.705 timesteps/s
92.2% CPU use with 2 MPI tasks x no OpenMP threads

MPI task timing breakdown:
Section |  min time  |  avg time  |  max time  |%varavg| %total
---------------------------------------------------------------
Pair    | 697.59     | 702.93     | 708.27     |  20.1 | 56.98
Neigh   | 424.52     | 439.17     | 453.82     |  69.9 | 35.60
Comm    | 58.525     | 78.972     | 99.419     | 230.1 |  6.40
Output  | 0.14863    | 0.14865    | 0.14866    |   0.0 |  0.01
Modify  | 9.6985     | 9.8408     | 9.9832     |   4.5 |  0.80
Other   |            | 2.556      |            |       |  0.21

Nlocal:    9826 ave 9828 max 9824 min
Histogram: 1 0 0 0 0 0 0 0 0 1
Nghost:    14204.5 ave 14221 max 14188 min
Histogram: 1 0 0 0 0 0 0 0 0 1
Neighs:    928306 ave 938944 max 917667 min
Histogram: 1 0 0 0 0 0 0 0 0 1

Total # of neighbors = 1856611
Ave neighs/atom = 94.4744
Neighbor list builds = 9505
Dangerous builds not checked
Setting up Verlet run ...
  Unit style    : metal
  Current step  : 250000
  Time step     : 0.001
Per MPI rank memory allocation (min/avg/max) = 12.09 | 12.09 | 12.09 Mbytes
Step Temp Press TotEng PotEng Enthalpy 
  250000    1399.3476   -539.18698   -59363.151   -62917.622   -59452.216 
  250495    1373.0038   -131.50364   -59583.555    -63071.11    -59605.19 
Loop time of 120.862 on 2 procs for 495 steps with 19652 atoms

Performance: 0.354 ns/day, 67.824 hours/ns, 4.096 timesteps/s
67.5% CPU use with 2 MPI tasks x no OpenMP threads

MPI task timing breakdown:
Section |  min time  |  avg time  |  max time  |%varavg| %total
---------------------------------------------------------------
Pair    | 72.681     | 72.74      | 72.799     |   0.7 | 60.18
Neigh   | 31.672     | 34.501     | 37.329     |  48.2 | 28.55
Comm    | 9.0812     | 12.057     | 15.033     |  85.7 |  9.98
Output  | 7.0095e-05 | 9.5606e-05 | 0.00012112 |   0.0 |  0.00
Modify  | 1.309      | 1.3715     | 1.434      |   5.3 |  1.13
Other   |            | 0.1931     |            |       |  0.16

Nlocal:    9826 ave 9852 max 9800 min
Histogram: 1 0 0 0 0 0 0 0 0 1
Nghost:    14260.5 ave 14299 max 14222 min
Histogram: 1 0 0 0 0 0 0 0 0 1
Neighs:    931907 ave 938112 max 925702 min
Histogram: 1 0 0 0 0 0 0 0 0 1

Total # of neighbors = 1863814
Ave neighs/atom = 94.8409
Neighbor list builds = 495
Dangerous builds not checked
Setting up Verlet run ...
  Unit style    : metal
  Current step  : 250495
  Time step     : 0.001
Per MPI rank memory allocation (min/avg/max) = 12.09 | 12.09 | 12.09 Mbytes
Step Temp Press TotEng PotEng Enthalpy 
  250495    1373.0038   -131.50364   -59583.555    -63071.11    -59605.19 
  260000    1337.9154   -638.34266   -59705.794   -63104.221   -59810.731 
Loop time of 1793.76 on 2 procs for 9505 steps with 19652 atoms

Performance: 0.458 ns/day, 52.421 hours/ns, 5.299 timesteps/s
75.9% CPU use with 2 MPI tasks x no OpenMP threads

MPI task timing breakdown:
Section |  min time  |  avg time  |  max time  |%varavg| %total
---------------------------------------------------------------
Pair    | 1022.8     | 1026.6     | 1030.3     |  11.7 | 57.23
Neigh   | 548.73     | 567.55     | 586.37     |  79.0 | 31.64
Comm    | 163.35     | 178.75     | 194.15     | 115.2 |  9.97
Output  | 0.051881   | 0.051898   | 0.051915   |   0.0 |  0.00
Modify  | 17.507     | 17.592     | 17.678     |   2.0 |  0.98
Other   |            | 3.235      |            |       |  0.18

Nlocal:    9826 ave 9836 max 9816 min
Histogram: 1 0 0 0 0 0 0 0 0 1
Nghost:    14201.5 ave 14218 max 14185 min
Histogram: 1 0 0 0 0 0 0 0 0 1
Neighs:    932517 ave 943608 max 921426 min
Histogram: 1 0 0 0 0 0 0 0 0 1

Total # of neighbors = 1865034
Ave neighs/atom = 94.903
Neighbor list builds = 9505
Dangerous builds not checked
Setting up Verlet run ...
  Unit style    : metal
  Current step  : 260000
  Time step     : 0.001
Per MPI rank memory allocation (min/avg/max) = 12.09 | 12.09 | 12.09 Mbytes
Step Temp Press TotEng PotEng Enthalpy 
  260000    1337.9154   -638.34266   -59705.794   -63104.221   -59810.731 
  260495    1311.5177   -100.75746   -59897.511   -63228.885   -59914.025 
Loop time of 89.7262 on 2 procs for 495 steps with 19652 atoms

Performance: 0.477 ns/day, 50.351 hours/ns, 5.517 timesteps/s
77.3% CPU use with 2 MPI tasks x no OpenMP threads

MPI task timing breakdown:
Section |  min time  |  avg time  |  max time  |%varavg| %total
---------------------------------------------------------------
Pair    | 50.569     | 50.946     | 51.323     |   5.3 | 56.78
Neigh   | 26.78      | 28.978     | 31.176     |  40.8 | 32.30
Comm    | 6.6663     | 8.5543     | 10.442     |  64.6 |  9.53
Output  | 9.9182e-05 | 0.00012612 | 0.00015306 |   0.0 |  0.00
Modify  | 1.0373     | 1.0685     | 1.0997     |   3.0 |  1.19
Other   |            | 0.1791     |            |       |  0.20

Nlocal:    9826 ave 9831 max 9821 min
Histogram: 1 0 0 0 0 0 0 0 0 1
Nghost:    14260.5 ave 14263 max 14258 min
Histogram: 1 0 0 0 0 0 0 0 0 1
Neighs:    935203 ave 945409 max 924997 min
Histogram: 1 0 0 0 0 0 0 0 0 1

Total # of neighbors = 1870406
Ave neighs/atom = 95.1764
Neighbor list builds = 495
Dangerous builds not checked
Setting up Verlet run ...
  Unit style    : metal
  Current step  : 260495
  Time step     : 0.001
Per MPI rank memory allocation (min/avg/max) = 12.09 | 12.09 | 12.09 Mbytes
Step Temp Press TotEng PotEng Enthalpy 
  260495    1311.5177   -100.75746   -59897.511   -63228.885   -59914.025 
  270000    1298.1789   -1835.2786   -60088.919   -63386.411   -60389.001 
Loop time of 1408.38 on 2 procs for 9505 steps with 19652 atoms

Performance: 0.583 ns/day, 41.159 hours/ns, 6.749 timesteps/s
87.5% CPU use with 2 MPI tasks x no OpenMP threads

MPI task timing breakdown:
Section |  min time  |  avg time  |  max time  |%varavg| %total
---------------------------------------------------------------
Pair    | 795.37     | 799.39     | 803.41     |  14.2 | 56.76
Neigh   | 421.95     | 458.46     | 494.96     | 170.5 | 32.55
Comm    | 94.759     | 135.82     | 176.88     | 352.3 |  9.64
Output  | 0.16937    | 0.16939    | 0.16942    |   0.0 |  0.01
Modify  | 11.733     | 11.929     | 12.125     |   5.7 |  0.85
Other   |            | 2.619      |            |       |  0.19

Nlocal:    9826 ave 9850 max 9802 min
Histogram: 1 0 0 0 0 0 0 0 0 1
Nghost:    14294.5 ave 14315 max 14274 min
Histogram: 1 0 0 0 0 0 0 0 0 1
Neighs:    937018 ave 943715 max 930321 min
Histogram: 1 0 0 0 0 0 0 0 0 1

Total # of neighbors = 1874036
Ave neighs/atom = 95.3611
Neighbor list builds = 9505
Dangerous builds not checked
Setting up Verlet run ...
  Unit style    : metal
  Current step  : 270000
  Time step     : 0.001
Per MPI rank memory allocation (min/avg/max) = 12.09 | 12.09 | 12.09 Mbytes
Step Temp Press TotEng PotEng Enthalpy 
  270000    1298.1789   -1835.2786   -60088.919   -63386.411   -60389.001 
  270495    1271.1672    812.25196   -60234.858   -63463.738   -60102.649 
Loop time of 55.52 on 2 procs for 495 steps with 19652 atoms

Performance: 0.770 ns/day, 31.156 hours/ns, 8.916 timesteps/s
99.6% CPU use with 2 MPI tasks x no OpenMP threads

MPI task timing breakdown:
Section |  min time  |  avg time  |  max time  |%varavg| %total
---------------------------------------------------------------
Pair    | 31.527     | 32.055     | 32.583     |   9.3 | 57.74
Neigh   | 16.194     | 19.419     | 22.644     |  73.2 | 34.98
Comm    | 0.83039    | 3.56       | 6.2896     | 144.7 |  6.41
Output  | 8.6784e-05 | 0.00011683 | 0.00014687 |   0.0 |  0.00
Modify  | 0.33724    | 0.3683     | 0.39936    |   5.1 |  0.66
Other   |            | 0.1175     |            |       |  0.21

Nlocal:    9826 ave 9827 max 9825 min
Histogram: 1 0 0 0 0 0 0 0 0 1
Nghost:    14268 ave 14270 max 14266 min
Histogram: 1 0 0 0 0 0 0 0 0 1
Neighs:    941466 ave 951013 max 931919 min
Histogram: 1 0 0 0 0 0 0 0 0 1

Total # of neighbors = 1882932
Ave neighs/atom = 95.8138
Neighbor list builds = 495
Dangerous builds not checked
Setting up Verlet run ...
  Unit style    : metal
  Current step  : 270495
  Time step     : 0.001
Per MPI rank memory allocation (min/avg/max) = 12.09 | 12.09 | 12.09 Mbytes
Step Temp Press TotEng PotEng Enthalpy 
  270495    1271.1672    812.25196   -60234.858   -63463.738   -60102.649 
  280000    1249.0238   -798.75201   -60356.164   -63528.798    -60486.17 
Loop time of 1193.32 on 2 procs for 9505 steps with 19652 atoms

Performance: 0.688 ns/day, 34.874 hours/ns, 7.965 timesteps/s
93.5% CPU use with 2 MPI tasks x no OpenMP threads

MPI task timing breakdown:
Section |  min time  |  avg time  |  max time  |%varavg| %total
---------------------------------------------------------------
Pair    | 683.06     | 684.08     | 685.1      |   3.9 | 57.33
Neigh   | 398.96     | 415.44     | 431.92     |  80.9 | 34.81
Comm    | 67.019     | 82.571     | 98.124     | 171.2 |  6.92
Output  | 0.059921   | 0.059938   | 0.059956   |   0.0 |  0.01
Modify  | 8.579      | 8.7352     | 8.8914     |   5.3 |  0.73
Other   |            | 2.425      |            |       |  0.20

Nlocal:    9826 ave 9830 max 9822 min
Histogram: 1 0 0 0 0 0 0 0 0 1
Nghost:    14324 ave 14359 max 14289 min
Histogram: 1 0 0 0 0 0 0 0 0 1
Neighs:    940912 ave 951638 max 930186 min
Histogram: 1 0 0 0 0 0 0 0 0 1

Total # of neighbors = 1881824
Ave neighs/atom = 95.7574
Neighbor list builds = 9505
Dangerous builds not checked
Setting up Verlet run ...
  Unit style    : metal
  Current step  : 280000
  Time step     : 0.001
Per MPI rank memory allocation (min/avg/max) = 12.09 | 12.09 | 12.09 Mbytes
Step Temp Press TotEng PotEng Enthalpy 
  280000    1249.0238   -798.75201   -60356.164   -63528.798    -60486.17 
  280495    1215.5214    56.556503   -60566.321   -63653.856   -60557.149 
Loop time of 63.1475 on 2 procs for 495 steps with 19652 atoms

Performance: 0.677 ns/day, 35.436 hours/ns, 7.839 timesteps/s
93.7% CPU use with 2 MPI tasks x no OpenMP threads

MPI task timing breakdown:
Section |  min time  |  avg time  |  max time  |%varavg| %total
---------------------------------------------------------------
Pair    | 36.088     | 36.363     | 36.639     |   4.6 | 57.58
Neigh   | 23.293     | 23.397     | 23.5       |   2.1 | 37.05
Comm    | 2.5991     | 2.757      | 2.915      |   9.5 |  4.37
Output  | 7.2956e-05 | 0.00010347 | 0.00013399 |   0.0 |  0.00
Modify  | 0.48048    | 0.49105    | 0.50161    |   1.5 |  0.78
Other   |            | 0.1393     |            |       |  0.22

Nlocal:    9826 ave 9836 max 9816 min
Histogram: 1 0 0 0 0 0 0 0 0 1
Nghost:    14328 ave 14347 max 14309 min
Histogram: 1 0 0 0 0 0 0 0 0 1
Neighs:    944448 ave 952793 max 936104 min
Histogram: 1 0 0 0 0 0 0 0 0 1

Total # of neighbors = 1888897
Ave neighs/atom = 96.1173
Neighbor list builds = 495
Dangerous builds not checked
Setting up Verlet run ...
  Unit style    : metal
  Current step  : 280495
  Time step     : 0.001
Per MPI rank memory allocation (min/avg/max) = 12.09 | 12.09 | 12.09 Mbytes
Step Temp Press TotEng PotEng Enthalpy 
  280495    1215.5214    56.556503   -60566.321   -63653.856   -60557.149 
  290000    1194.6746    376.14834   -60757.691   -63792.274   -60696.897 
Loop time of 1498.86 on 2 procs for 9505 steps with 19652 atoms

Performance: 0.548 ns/day, 43.803 hours/ns, 6.342 timesteps/s
84.8% CPU use with 2 MPI tasks x no OpenMP threads

MPI task timing breakdown:
Section |  min time  |  avg time  |  max time  |%varavg| %total
---------------------------------------------------------------
Pair    | 819.53     | 820.11     | 820.69     |   2.0 | 54.72
Neigh   | 448.33     | 458.67     | 469        |  48.2 | 30.60
Comm    | 190.59     | 200.28     | 209.97     |  68.4 | 13.36
Output  | 0.49002    | 0.49003    | 0.49005    |   0.0 |  0.03
Modify  | 16.504     | 16.764     | 17.023     |   6.3 |  1.12
Other   |            | 2.549      |            |       |  0.17

Nlocal:    9826 ave 9834 max 9818 min
Histogram: 1 0 0 0 0 0 0 0 0 1
Nghost:    14330 ave 14335 max 14325 min
Histogram: 1 0 0 0 0 0 0 0 0 1
Neighs:    947148 ave 948171 max 946125 min
Histogram: 1 0 0 0 0 0 0 0 0 1

Total # of neighbors = 1894296
Ave neighs/atom = 96.392
Neighbor list builds = 9505
Dangerous builds not checked
Setting up Verlet run ...
  Unit style    : metal
  Current step  : 290000
  Time step     : 0.001
Per MPI rank memory allocation (min/avg/max) = 12.09 | 12.09 | 12.09 Mbytes
Step Temp Press TotEng PotEng Enthalpy 
  290000    1194.6746    376.14834   -60757.691   -63792.274   -60696.897 
  290495    1160.0482    317.17261   -60932.345   -63878.974   -60881.201 
Loop time of 68.0361 on 2 procs for 495 steps with 19652 atoms

Performance: 0.629 ns/day, 38.180 hours/ns, 7.276 timesteps/s
92.9% CPU use with 2 MPI tasks x no OpenMP threads

MPI task timing breakdown:
Section |  min time  |  avg time  |  max time  |%varavg| %total
---------------------------------------------------------------
Pair    | 36.619     | 37.734     | 38.849     |  18.1 | 55.46
Neigh   | 25.963     | 26.479     | 26.994     |  10.0 | 38.92
Comm    | 2.5133     | 3.1131     | 3.7129     |  34.0 |  4.58
Output  | 7.4863e-05 | 0.0001049  | 0.00013494 |   0.0 |  0.00
Modify  | 0.56188    | 0.5651     | 0.56831    |   0.4 |  0.83
Other   |            | 0.1453     |            |       |  0.21

Nlocal:    9826 ave 9836 max 9816 min
Histogram: 1 0 0 0 0 0 0 0 0 1
Nghost:    14336.5 ave 14350 max 14323 min
Histogram: 1 0 0 0 0 0 0 0 0 1
Neighs:    949637 ave 951264 max 948010 min
Histogram: 1 0 0 0 0 0 0 0 0 1

Total # of neighbors = 1899274
Ave neighs/atom = 96.6453
Neighbor list builds = 495
Dangerous builds not checked
Setting up Verlet run ...
  Unit style    : metal
  Current step  : 290495
  Time step     : 0.001
Per MPI rank memory allocation (min/avg/max) = 12.09 | 12.09 | 12.09 Mbytes
Step Temp Press TotEng PotEng Enthalpy 
  290495    1160.0482    317.17261   -60932.345   -63878.974   -60881.201 
  300000    1151.5225   -283.42351   -61021.125   -63946.097   -61066.793 
Loop time of 1280.37 on 2 procs for 9505 steps with 19652 atoms

Performance: 0.641 ns/day, 37.418 hours/ns, 7.424 timesteps/s
92.0% CPU use with 2 MPI tasks x no OpenMP threads

MPI task timing breakdown:
Section |  min time  |  avg time  |  max time  |%varavg| %total
---------------------------------------------------------------
Pair    | 664.05     | 673.02     | 681.99     |  34.6 | 52.56
Neigh   | 438.43     | 458.11     | 477.8      |  92.0 | 35.78
Comm    | 123.76     | 130.85     | 137.95     |  62.0 | 10.22
Output  | 0.20264    | 0.20267    | 0.2027     |   0.0 |  0.02
Modify  | 12.174     | 15.709     | 19.244     |  89.2 |  1.23
Other   |            | 2.472      |            |       |  0.19

Nlocal:    9826 ave 9833 max 9819 min
Histogram: 1 0 0 0 0 0 0 0 0 1
Nghost:    14387 ave 14387 max 14387 min
Histogram: 2 0 0 0 0 0 0 0 0 0
Neighs:    949837 ave 951230 max 948444 min
Histogram: 1 0 0 0 0 0 0 0 0 1

Total # of neighbors = 1899674
Ave neighs/atom = 96.6657
Neighbor list builds = 9505
Dangerous builds not checked
Setting up Verlet run ...
  Unit style    : metal
  Current step  : 300000
  Time step     : 0.001
Per MPI rank memory allocation (min/avg/max) = 12.09 | 12.09 | 12.09 Mbytes
Step Temp Press TotEng PotEng Enthalpy 
[...]
Neighbor list builds = 9505
Dangerous builds not checked
Setting up Verlet run ...
  Unit style    : metal
  Current step  : 440000
  Time step     : 0.001
Per MPI rank memory allocation (min/avg/max) = 12.1 | 12.1 | 12.1 Mbytes
Step Temp Press TotEng PotEng Enthalpy 
  440000    447.24155   -1789.3954   -65835.305   -66971.339   -66105.009 
  440495    420.99161   -1042.0758    -65989.55   -67058.907   -66146.221 
Loop time of 75.252 on 2 procs for 495 steps with 19652 atoms

Performance: 0.568 ns/day, 42.229 hours/ns, 6.578 timesteps/s
84.1% CPU use with 2 MPI tasks x no OpenMP threads

MPI task timing breakdown:
Section |  min time  |  avg time  |  max time  |%varavg| %total
---------------------------------------------------------------
Pair    | 38.282     | 38.72      | 39.157     |   7.0 | 51.45
Neigh   | 19.341     | 21.801     | 24.261     |  52.7 | 28.97
Comm    | 10.725     | 12.87      | 15.014     |  59.8 | 17.10
Output  | 9.0122e-05 | 0.00012505 | 0.00015998 |   0.0 |  0.00
Modify  | 1.5943     | 1.7264     | 1.8584     |  10.1 |  2.29
Other   |            | 0.1356     |            |       |  0.18

Nlocal:    9826 ave 9839 max 9813 min
Histogram: 1 0 0 0 0 0 0 0 0 1
Nghost:    14782.5 ave 14785 max 14780 min
Histogram: 1 0 0 0 0 0 0 0 0 1
Neighs:    1.01638e+06 ave 1.0188e+06 max 1.01395e+06 min
Histogram: 1 0 0 0 0 0 0 0 0 1

Total # of neighbors = 2032757
Ave neighs/atom = 103.438
Neighbor list builds = 495
Dangerous builds not checked
Setting up Verlet run ...
  Unit style    : metal
  Current step  : 440495
  Time step     : 0.001
Per MPI rank memory allocation (min/avg/max) = 12.1 | 12.1 | 12.1 Mbytes
Step Temp Press TotEng PotEng Enthalpy 
  440495    420.99161   -1042.0758    -65989.55   -67058.907   -66146.221 
  450000    397.89068   -1467.5264   -66127.313   -67137.992   -66347.663 
Loop time of 1274.77 on 2 procs for 9505 steps with 19652 atoms

Performance: 0.644 ns/day, 37.254 hours/ns, 7.456 timesteps/s
91.3% CPU use with 2 MPI tasks x no OpenMP threads

MPI task timing breakdown:
Section |  min time  |  avg time  |  max time  |%varavg| %total
---------------------------------------------------------------
Pair    | 683.51     | 690.47     | 697.42     |  26.5 | 54.16
Neigh   | 420.82     | 431.41     | 441.99     |  51.0 | 33.84
Comm    | 132.56     | 136.28     | 140        |  31.9 | 10.69
Output  | 0.11332    | 0.11334    | 0.11335    |   0.0 |  0.01
Modify  | 13.946     | 14.117     | 14.287     |   4.5 |  1.11
Other   |            | 2.384      |            |       |  0.19

Nlocal:    9826 ave 9830 max 9822 min
Histogram: 1 0 0 0 0 0 0 0 0 1
Nghost:    14779 ave 14786 max 14772 min
Histogram: 1 0 0 0 0 0 0 0 0 1
Neighs:    1.01762e+06 ave 1.01802e+06 max 1.01722e+06 min
Histogram: 1 0 0 0 0 0 0 0 0 1

Total # of neighbors = 2035236
Ave neighs/atom = 103.564
Neighbor list builds = 9505
Dangerous builds not checked
Setting up Verlet run ...
  Unit style    : metal
  Current step  : 450000
  Time step     : 0.001
Per MPI rank memory allocation (min/avg/max) = 12.1 | 12.1 | 12.1 Mbytes
Step Temp Press TotEng PotEng Enthalpy 
  450000    397.89068   -1467.5264   -66127.313   -67137.992   -66347.663 
  450495    371.90118    484.83127   -66276.106   -67220.769   -66203.546 
Loop time of 43.271 on 2 procs for 495 steps with 19652 atoms

Performance: 0.988 ns/day, 24.282 hours/ns, 11.440 timesteps/s
99.3% CPU use with 2 MPI tasks x no OpenMP threads

MPI task timing breakdown:
Section |  min time  |  avg time  |  max time  |%varavg| %total
---------------------------------------------------------------
Pair    | 23.877     | 23.89      | 23.904     |   0.3 | 55.21
Neigh   | 17.083     | 17.395     | 17.707     |   7.5 | 40.20
Comm    | 1.1339     | 1.4666     | 1.7993     |  27.5 |  3.39
Output  | 0.12979    | 0.12982    | 0.12986    |   0.0 |  0.30
Modify  | 0.28856    | 0.29207    | 0.29558    |   0.6 |  0.67
Other   |            | 0.09681    |            |       |  0.22

Nlocal:    9826 ave 9830 max 9822 min
Histogram: 1 0 0 0 0 0 0 0 0 1
Nghost:    14822.5 ave 14834 max 14811 min
Histogram: 1 0 0 0 0 0 0 0 0 1
Neighs:    1.02165e+06 ave 1.02274e+06 max 1.02056e+06 min
Histogram: 1 0 0 0 0 0 0 0 0 1

Total # of neighbors = 2043305
Ave neighs/atom = 103.974
Neighbor list builds = 495
Dangerous builds not checked
Setting up Verlet run ...
  Unit style    : metal
  Current step  : 450495
  Time step     : 0.001
Per MPI rank memory allocation (min/avg/max) = 12.1 | 12.1 | 12.1 Mbytes
Step Temp Press TotEng PotEng Enthalpy 
  450495    371.90118    484.83127   -66276.106   -67220.769   -66203.546 
  460000    350.94081    385.93007   -66404.805   -67296.226    -66347.14 
Loop time of 1430.01 on 2 procs for 9505 steps with 19652 atoms

Performance: 0.574 ns/day, 41.791 hours/ns, 6.647 timesteps/s
83.0% CPU use with 2 MPI tasks x no OpenMP threads

MPI task timing breakdown:
Section |  min time  |  avg time  |  max time  |%varavg| %total
---------------------------------------------------------------
Pair    | 801.51     | 806.26     | 811.01     |  16.7 | 56.38
Neigh   | 489.13     | 496.09     | 503.05     |  31.2 | 34.69
Comm    | 111.56     | 113.83     | 116.1      |  21.3 |  7.96
Output  | 0.18105    | 0.18106    | 0.18107    |   0.0 |  0.01
Modify  | 10.933     | 11.046     | 11.159     |   3.4 |  0.77
Other   |            | 2.606      |            |       |  0.18

Nlocal:    9826 ave 9829 max 9823 min
Histogram: 1 0 0 0 0 0 0 0 0 1
Nghost:    14810.5 ave 14841 max 14780 min
Histogram: 1 0 0 0 0 0 0 0 0 1
Neighs:    1.02326e+06 ave 1.02401e+06 max 1.02251e+06 min
Histogram: 1 0 0 0 0 0 0 0 0 1

Total # of neighbors = 2046521
Ave neighs/atom = 104.138
Neighbor list builds = 9505
Dangerous builds not checked
Setting up Verlet run ...
  Unit style    : metal
  Current step  : 460000
  Time step     : 0.001
Per MPI rank memory allocation (min/avg/max) = 12.1 | 12.1 | 12.1 Mbytes
Step Temp Press TotEng PotEng Enthalpy 
  460000    350.94081    385.93007   -66404.805   -67296.226    -66347.14 
  460495    321.65602   -232.98969   -66549.515   -67366.551   -66584.292 
Loop time of 82.7823 on 2 procs for 495 steps with 19652 atoms

Performance: 0.517 ns/day, 46.455 hours/ns, 5.980 timesteps/s
83.0% CPU use with 2 MPI tasks x no OpenMP threads

MPI task timing breakdown:
Section |  min time  |  avg time  |  max time  |%varavg| %total
---------------------------------------------------------------
Pair    | 45.536     | 46.396     | 47.257     |  12.6 | 56.05
Neigh   | 26.101     | 29.55      | 32.998     |  63.4 | 35.70
Comm    | 3.3791     | 6.0196     | 8.6602     | 107.6 |  7.27
Output  | 6.9857e-05 | 9.346e-05  | 0.00011706 |   0.0 |  0.00
Modify  | 0.61396    | 0.65755    | 0.70114    |   5.4 |  0.79
Other   |            | 0.1589     |            |       |  0.19

Nlocal:    9826 ave 9836 max 9816 min
Histogram: 1 0 0 0 0 0 0 0 0 1
Nghost:    14847.5 ave 14857 max 14838 min
Histogram: 1 0 0 0 0 0 0 0 0 1
Neighs:    1.02458e+06 ave 1.02525e+06 max 1.0239e+06 min
Histogram: 1 0 0 0 0 0 0 0 0 1

Total # of neighbors = 2049150
Ave neighs/atom = 104.272
Neighbor list builds = 495
Dangerous builds not checked
Setting up Verlet run ...
  Unit style    : metal
  Current step  : 460495
  Time step     : 0.001
Per MPI rank memory allocation (min/avg/max) = 12.1 | 12.1 | 12.1 Mbytes
Step Temp Press TotEng PotEng Enthalpy 
  460495    321.65602   -232.98969   -66549.515   -67366.551   -66584.292 
  470000    300.64917    199.89137   -66674.774   -67438.451   -66644.996 
Loop time of 1331.34 on 2 procs for 9505 steps with 19652 atoms

Performance: 0.617 ns/day, 38.908 hours/ns, 7.139 timesteps/s
84.6% CPU use with 2 MPI tasks x no OpenMP threads

MPI task timing breakdown:
Section |  min time  |  avg time  |  max time  |%varavg| %total
---------------------------------------------------------------
Pair    | 743.08     | 744.38     | 745.68     |   4.8 | 55.91
Neigh   | 460.33     | 465.51     | 470.68     |  24.0 | 34.97
Comm    | 104.24     | 108.37     | 112.5      |  39.7 |  8.14
Output  | 0.15632    | 0.15633    | 0.15634    |   0.0 |  0.01
Modify  | 10.373     | 10.448     | 10.523     |   2.3 |  0.78
Other   |            | 2.48       |            |       |  0.19

Nlocal:    9826 ave 9826 max 9826 min
Histogram: 2 0 0 0 0 0 0 0 0 0
Nghost:    14862 ave 14865 max 14859 min
Histogram: 1 0 0 0 0 0 0 0 0 1
Neighs:    1.02688e+06 ave 1.02712e+06 max 1.02664e+06 min
Histogram: 1 0 0 0 0 0 0 0 0 1

Total # of neighbors = 2053757
Ave neighs/atom = 104.506
Neighbor list builds = 9505
Dangerous builds not checked
Setting up Verlet run ...
  Unit style    : metal
  Current step  : 470000
  Time step     : 0.001
Per MPI rank memory allocation (min/avg/max) = 12.1 | 12.1 | 12.1 Mbytes
Step Temp Press TotEng PotEng Enthalpy 
  470000    300.64917    199.89137   -66674.774   -67438.451   -66644.996 
  470495    274.51435    70.873327    -66818.48   -67515.771   -66807.937 
Loop time of 73.4822 on 2 procs for 495 steps with 19652 atoms

Performance: 0.582 ns/day, 41.236 hours/ns, 6.736 timesteps/s
77.9% CPU use with 2 MPI tasks x no OpenMP threads

MPI task timing breakdown:
Section |  min time  |  avg time  |  max time  |%varavg| %total
---------------------------------------------------------------
Pair    | 35.754     | 35.841     | 35.928     |   1.4 | 48.78
Neigh   | 22.761     | 22.912     | 23.062     |   3.1 | 31.18
Comm    | 13.967     | 14.047     | 14.127     |   2.1 | 19.12
Output  | 7.1049e-05 | 9.9063e-05 | 0.00012708 |   0.0 |  0.00
Modify  | 0.55449    | 0.56077    | 0.56705    |   0.8 |  0.76
Other   |            | 0.1215     |            |       |  0.17

Nlocal:    9826 ave 9827 max 9825 min
Histogram: 1 0 0 0 0 0 0 0 0 1
Nghost:    14861.5 ave 14872 max 14851 min
Histogram: 1 0 0 0 0 0 0 0 0 1
Neighs:    1.02856e+06 ave 1.02879e+06 max 1.02834e+06 min
Histogram: 1 0 0 0 0 0 0 0 0 1

Total # of neighbors = 2057123
Ave neighs/atom = 104.678
Neighbor list builds = 495
Dangerous builds not checked
Setting up Verlet run ...
  Unit style    : metal
  Current step  : 470495
  Time step     : 0.001
Per MPI rank memory allocation (min/avg/max) = 12.1 | 12.1 | 12.1 Mbytes
Step Temp Press TotEng PotEng Enthalpy 
  470495    274.51435    70.873327    -66818.48   -67515.771   -66807.937 
  480000    249.91407    753.45357   -66952.544   -67587.349     -66840.7 
Loop time of 1406.27 on 2 procs for 9505 steps with 19652 atoms

Performance: 0.584 ns/day, 41.097 hours/ns, 6.759 timesteps/s
83.4% CPU use with 2 MPI tasks x no OpenMP threads

MPI task timing breakdown:
Section |  min time  |  avg time  |  max time  |%varavg| %total
---------------------------------------------------------------
Pair    | 785.42     | 787.44     | 789.46     |   7.2 | 56.00
Neigh   | 478.11     | 490.03     | 501.95     |  53.8 | 34.85
Comm    | 103.69     | 113.97     | 124.26     |  96.4 |  8.10
Output  | 0.15087    | 0.15088    | 0.1509     |   0.0 |  0.01
Modify  | 11.729     | 12.038     | 12.347     |   8.9 |  0.86
Other   |            | 2.635      |            |       |  0.19

Nlocal:    9826 ave 9840 max 9812 min
Histogram: 1 0 0 0 0 0 0 0 0 1
Nghost:    14894.5 ave 14910 max 14879 min
Histogram: 1 0 0 0 0 0 0 0 0 1
Neighs:    1.03131e+06 ave 1.03244e+06 max 1.03017e+06 min
Histogram: 1 0 0 0 0 0 0 0 0 1

Total # of neighbors = 2062618
Ave neighs/atom = 104.957
Neighbor list builds = 9505
Dangerous builds not checked
Setting up Verlet run ...
  Unit style    : metal
  Current step  : 480000
  Time step     : 0.001
Per MPI rank memory allocation (min/avg/max) = 12.1 | 12.1 | 12.1 Mbytes
Step Temp Press TotEng PotEng Enthalpy 
  480000    249.91407    753.45357   -66952.544   -67587.349     -66840.7 
  480495    224.99007    967.29169   -67083.749   -67655.245   -66940.391 
Loop time of 64.6624 on 2 procs for 495 steps with 19652 atoms

Performance: 0.661 ns/day, 36.286 hours/ns, 7.655 timesteps/s
89.6% CPU use with 2 MPI tasks x no OpenMP threads

MPI task timing breakdown:
Section |  min time  |  avg time  |  max time  |%varavg| %total
---------------------------------------------------------------
Pair    | 34.112     | 34.545     | 34.978     |   7.4 | 53.42
Neigh   | 20.186     | 21.879     | 23.572     |  36.2 | 33.84
Comm    | 6.1304     | 7.4226     | 8.7147     |  47.4 | 11.48
Output  | 7.0095e-05 | 0.0043616  | 0.0086532  |   6.5 |  0.01
Modify  | 0.66383    | 0.6866     | 0.70937    |   2.7 |  1.06
Other   |            | 0.125      |            |       |  0.19

Nlocal:    9826 ave 9828 max 9824 min
Histogram: 1 0 0 0 0 0 0 0 0 1
Nghost:    14889 ave 14890 max 14888 min
Histogram: 1 0 0 0 0 0 0 0 0 1
Neighs:    1.03346e+06 ave 1.03357e+06 max 1.03334e+06 min
Histogram: 1 0 0 0 0 0 0 0 0 1

Total # of neighbors = 2066912
Ave neighs/atom = 105.176
Neighbor list builds = 495
Dangerous builds not checked
Setting up Verlet run ...
  Unit style    : metal
  Current step  : 480495
  Time step     : 0.001
Per MPI rank memory allocation (min/avg/max) = 12.1 | 12.1 | 12.1 Mbytes
Step Temp Press TotEng PotEng Enthalpy 
  480495    224.99007    967.29169   -67083.749   -67655.245   -66940.391 
  490000    200.36931   -280.64133   -67213.788   -67722.744   -67255.357 
Loop time of 1651.31 on 2 procs for 9505 steps with 19652 atoms

Performance: 0.497 ns/day, 48.258 hours/ns, 5.756 timesteps/s
79.1% CPU use with 2 MPI tasks x no OpenMP threads

MPI task timing breakdown:
Section |  min time  |  avg time  |  max time  |%varavg| %total
---------------------------------------------------------------
Pair    | 886.21     | 887.25     | 888.29     |   3.5 | 53.73
Neigh   | 475.1      | 478.61     | 482.12     |  16.0 | 28.98
Comm    | 257.99     | 262.76     | 267.53     |  29.4 | 15.91
Output  | 2.6564     | 2.6564     | 2.6564     |   0.0 |  0.16
Modify  | 17.356     | 17.468     | 17.581     |   2.7 |  1.06
Other   |            | 2.562      |            |       |  0.16

Nlocal:    9826 ave 9837 max 9815 min
Histogram: 1 0 0 0 0 0 0 0 0 1
Nghost:    14904.5 ave 14913 max 14896 min
Histogram: 1 0 0 0 0 0 0 0 0 1
Neighs:    1.03392e+06 ave 1.03464e+06 max 1.03321e+06 min
Histogram: 1 0 0 0 0 0 0 0 0 1

Total # of neighbors = 2067844
Ave neighs/atom = 105.223
Neighbor list builds = 9505
Dangerous builds not checked
Setting up Verlet run ...
  Unit style    : metal
  Current step  : 490000
  Time step     : 0.001
Per MPI rank memory allocation (min/avg/max) = 12.1 | 12.1 | 12.1 Mbytes
Step Temp Press TotEng PotEng Enthalpy 
  490000    200.36931   -280.64133   -67213.788   -67722.744   -67255.357 
  490495    175.74818   -15.795233   -67340.668   -67787.084   -67343.004 
Loop time of 62.7662 on 2 procs for 495 steps with 19652 atoms

Performance: 0.681 ns/day, 35.222 hours/ns, 7.886 timesteps/s
94.6% CPU use with 2 MPI tasks x no OpenMP threads

MPI task timing breakdown:
Section |  min time  |  avg time  |  max time  |%varavg| %total
---------------------------------------------------------------
Pair    | 34.222     | 34.328     | 34.433     |   1.8 | 54.69
Neigh   | 22.28      | 22.282     | 22.283     |   0.0 | 35.50
Comm    | 5.51       | 5.6137     | 5.7173     |   4.4 |  8.94
Output  | 7.8917e-05 | 0.00010943 | 0.00013995 |   0.0 |  0.00
Modify  | 0.41413    | 0.41885    | 0.42357    |   0.7 |  0.67
Other   |            | 0.1243     |            |       |  0.20

Nlocal:    9826 ave 9829 max 9823 min
Histogram: 1 0 0 0 0 0 0 0 0 1
Nghost:    14903.5 ave 14907 max 14900 min
Histogram: 1 0 0 0 0 0 0 0 0 1
Neighs:    1.03599e+06 ave 1.03624e+06 max 1.03574e+06 min
Histogram: 1 0 0 0 0 0 0 0 0 1

Total # of neighbors = 2071979
Ave neighs/atom = 105.433
Neighbor list builds = 495
Dangerous builds not checked
Setting up Verlet run ...
  Unit style    : metal
  Current step  : 490495
  Time step     : 0.001
Per MPI rank memory allocation (min/avg/max) = 12.1 | 12.1 | 12.1 Mbytes
Step Temp Press TotEng PotEng Enthalpy 
  490495    175.74818   -15.795233   -67340.668   -67787.084   -67343.004 
  500000    149.31774   -514.70652   -67476.167   -67855.447   -67552.194 
Loop time of 1478.7 on 2 procs for 9505 steps with 19652 atoms

Performance: 0.555 ns/day, 43.214 hours/ns, 6.428 timesteps/s
83.9% CPU use with 2 MPI tasks x no OpenMP threads

MPI task timing breakdown:
Section |  min time  |  avg time  |  max time  |%varavg| %total
---------------------------------------------------------------
Pair    | 732.9      | 746.01     | 759.11     |  48.0 | 50.45
Neigh   | 420.04     | 420.6      | 421.16     |   2.7 | 28.44
Comm    | 275.93     | 285.6      | 295.27     |  57.2 | 19.31
Output  | 0.40505    | 0.40507    | 0.40509    |   0.0 |  0.03
Modify  | 19.664     | 23.775     | 27.885     |  84.3 |  1.61
Other   |            | 2.313      |            |       |  0.16

Nlocal:    9826 ave 9828 max 9824 min
Histogram: 1 0 0 0 0 0 0 0 0 1
Nghost:    14913.5 ave 14924 max 14903 min
Histogram: 1 0 0 0 0 0 0 0 0 1
Neighs:    1.03752e+06 ave 1.03798e+06 max 1.03705e+06 min
Histogram: 1 0 0 0 0 0 0 0 0 1

Total # of neighbors = 2075031
Ave neighs/atom = 105.589
Neighbor list builds = 9505
Dangerous builds not checked
Setting up Verlet run ...
  Unit style    : metal
  Current step  : 500000
  Time step     : 0.001
Per MPI rank memory allocation (min/avg/max) = 12.1 | 12.1 | 12.1 Mbytes
Step Temp Press TotEng PotEng Enthalpy 
  500000    149.31774   -514.70652   -67476.167   -67855.447   -67552.194 
  500495    127.08176   -165.28694   -67593.363   -67916.163   -67617.739 
Loop time of 100.987 on 2 procs for 495 steps with 19652 atoms

Performance: 0.424 ns/day, 56.671 hours/ns, 4.902 timesteps/s
75.5% CPU use with 2 MPI tasks x no OpenMP threads

MPI task timing breakdown:
Section |  min time  |  avg time  |  max time  |%varavg| %total
---------------------------------------------------------------
Pair    | 33.353     | 33.632     | 33.911     |   4.8 | 33.30
Neigh   | 21.076     | 21.616     | 22.156     |  11.6 | 21.40
Comm    | 44.952     | 45.215     | 45.479     |   3.9 | 44.77
Output  | 7.2002e-05 | 9.346e-05  | 0.00011492 |   0.0 |  0.00
Modify  | 0.39604    | 0.40267    | 0.40931    |   1.0 |  0.40
Other   |            | 0.1205     |            |       |  0.12

Nlocal:    9826 ave 9833 max 9819 min
Histogram: 1 0 0 0 0 0 0 0 0 1
Nghost:    14915.5 ave 14922 max 14909 min
Histogram: 1 0 0 0 0 0 0 0 0 1
Neighs:    1.03943e+06 ave 1.04063e+06 max 1.03823e+06 min
Histogram: 1 0 0 0 0 0 0 0 0 1

Total # of neighbors = 2078861
Ave neighs/atom = 105.784
Neighbor list builds = 495
Dangerous builds not checked
Setting up Verlet run ...
  Unit style    : metal
  Current step  : 500495
  Time step     : 0.001
Per MPI rank memory allocation (min/avg/max) = 12.1 | 12.1 | 12.1 Mbytes
Step Temp Press TotEng PotEng Enthalpy 
  500495    127.08176   -165.28694   -67593.363   -67916.163   -67617.739 
  510000    100.33248   -310.56923   -67731.295   -67986.149   -67777.031 
Loop time of 1459.66 on 2 procs for 9505 steps with 19652 atoms

Performance: 0.563 ns/day, 42.658 hours/ns, 6.512 timesteps/s
84.6% CPU use with 2 MPI tasks x no OpenMP threads

MPI task timing breakdown:
Section |  min time  |  avg time  |  max time  |%varavg| %total
---------------------------------------------------------------
Pair    | 707.83     | 709.88     | 711.94     |   7.7 | 48.63
Neigh   | 413.45     | 415.92     | 418.38     |  12.1 | 28.49
Comm    | 312.99     | 317.64     | 322.29     |  26.1 | 21.76
Output  | 0.44108    | 0.4411     | 0.44112    |   0.0 |  0.03
Modify  | 13.481     | 13.524     | 13.566     |   1.2 |  0.93
Other   |            | 2.26       |            |       |  0.15

Nlocal:    9826 ave 9833 max 9819 min
Histogram: 1 0 0 0 0 0 0 0 0 1
Nghost:    14931 ave 14944 max 14918 min
Histogram: 1 0 0 0 0 0 0 0 0 1
Neighs:    1.04144e+06 ave 1.04198e+06 max 1.04091e+06 min
Histogram: 1 0 0 0 0 0 0 0 0 1

Total # of neighbors = 2082889
Ave neighs/atom = 105.989
Neighbor list builds = 9505
Dangerous builds not checked
Total wall time: 18:23:44
