LAMMPS (12 Dec 2018)
Lattice spacing in x,y,z = 4 4 4
Created orthogonal box = (0 0 0) to (68 68 68)
  1 by 1 by 1 MPI processor grid
Created 19652 atoms
  Time spent = 0.00303292 secs
Setting atom values ...
  19652 settings made for type/fraction
Neighbor list info ...
  update every 1 steps, delay 0 steps, check no
  max neighbors/atom: 2000, page size: 100000
  master list distance cutoff = 8.5
  ghost atom cutoff = 8.5
  binsize = 4.25, bins = 16 16 16
  1 neighbor lists, perpetual/occasional/extra = 1 0 0
  (1) pair eam/alloy, perpetual
      attributes: half, newton on
      pair build: half/bin/atomonly/newton
      stencil: half/bin/3d/newton
      bin: standard
Setting up Verlet run ...
  Unit style    : metal
  Current step  : 0
  Time step     : 0.001
Per MPI rank memory allocation (min/avg/max) = 18.19 | 18.19 | 18.19 Mbytes
Step Temp Press TotEng PotEng Enthalpy 
       0          300   -61779.302   -76290.537   -77052.565   -88414.913 
    1000    2100.2854    117387.79   -76291.737   -81626.653   -53254.026 
Loop time of 184.972 on 1 procs for 1000 steps with 19652 atoms

Performance: 0.467 ns/day, 51.381 hours/ns, 5.406 timesteps/s
95.6% CPU use with 1 MPI tasks x no OpenMP threads

MPI task timing breakdown:
Section |  min time  |  avg time  |  max time  |%varavg| %total
---------------------------------------------------------------
Pair    | 102.01     | 102.01     | 102.01     |   0.0 | 55.15
Neigh   | 80.804     | 80.804     | 80.804     |   0.0 | 43.68
Comm    | 1.2776     | 1.2776     | 1.2776     |   0.0 |  0.69
Output  | 0.00019693 | 0.00019693 | 0.00019693 |   0.0 |  0.00
Modify  | 0.44541    | 0.44541    | 0.44541    |   0.0 |  0.24
Other   |            | 0.4357     |            |       |  0.24

Nlocal:    19652 ave 19652 max 19652 min
Histogram: 1 0 0 0 0 0 0 0 0 0
Nghost:    18752 ave 18752 max 18752 min
Histogram: 1 0 0 0 0 0 0 0 0 0
Neighs:    1.56974e+06 ave 1.56974e+06 max 1.56974e+06 min
Histogram: 1 0 0 0 0 0 0 0 0 0

Total # of neighbors = 1569737
Ave neighs/atom = 79.8767
Neighbor list builds = 1000
Dangerous builds not checked
Setting up Verlet run ...
  Unit style    : metal
  Current step  : 1000
  Time step     : 0.001
Per MPI rank memory allocation (min/avg/max) = 18.19 | 18.19 | 18.19 Mbytes
Step Temp Press TotEng PotEng Enthalpy 
    1000    2100.2854    117387.79   -76291.737   -81626.653   -53254.026 
    2000    343.72518    316.68037   -86590.966    -87464.06   -86518.748 
Loop time of 168.643 on 1 procs for 1000 steps with 19652 atoms

Performance: 0.512 ns/day, 46.845 hours/ns, 5.930 timesteps/s
96.4% CPU use with 1 MPI tasks x no OpenMP threads

MPI task timing breakdown:
Section |  min time  |  avg time  |  max time  |%varavg| %total
---------------------------------------------------------------
Pair    | 87.464     | 87.464     | 87.464     |   0.0 | 51.86
Neigh   | 78.022     | 78.022     | 78.022     |   0.0 | 46.26
Comm    | 1.1569     | 1.1569     | 1.1569     |   0.0 |  0.69
Output  | 0.00021315 | 0.00021315 | 0.00021315 |   0.0 |  0.00
Modify  | 1.5882     | 1.5882     | 1.5882     |   0.0 |  0.94
Other   |            | 0.4115     |            |       |  0.24

Nlocal:    19652 ave 19652 max 19652 min
Histogram: 1 0 0 0 0 0 0 0 0 0
Nghost:    17583 ave 17583 max 17583 min
Histogram: 1 0 0 0 0 0 0 0 0 0
Neighs:    1.35204e+06 ave 1.35204e+06 max 1.35204e+06 min
Histogram: 1 0 0 0 0 0 0 0 0 0

Total # of neighbors = 1352039
Ave neighs/atom = 68.7991
Neighbor list builds = 1000
Dangerous builds not checked
Setting up Verlet run ...
  Unit style    : metal
  Current step  : 2000
  Time step     : 0.001
Per MPI rank memory allocation (min/avg/max) = 18.19 | 18.19 | 18.19 Mbytes
Step Temp Press TotEng PotEng Enthalpy 
    2000    343.72518    316.68037   -86590.966    -87464.06   -86518.748 
    6667    1556.2562   -101.41459   -79382.114   -83335.146   -79406.079 
   10000    2459.4973   -615.60704   -75218.348   -81465.695   -75369.111 
Loop time of 1301.64 on 1 procs for 8000 steps with 19652 atoms

Performance: 0.531 ns/day, 45.196 hours/ns, 6.146 timesteps/s
96.2% CPU use with 1 MPI tasks x no OpenMP threads

MPI task timing breakdown:
Section |  min time  |  avg time  |  max time  |%varavg| %total
---------------------------------------------------------------
Pair    | 684.05     | 684.05     | 684.05     |   0.0 | 52.55
Neigh   | 591.59     | 591.59     | 591.59     |   0.0 | 45.45
Comm    | 9.3739     | 9.3739     | 9.3739     |   0.0 |  0.72
Output  | 0.18703    | 0.18703    | 0.18703    |   0.0 |  0.01
Modify  | 13.072     | 13.072     | 13.072     |   0.0 |  1.00
Other   |            | 3.366      |            |       |  0.26

Nlocal:    19652 ave 19652 max 19652 min
Histogram: 1 0 0 0 0 0 0 0 0 0
Nghost:    17189 ave 17189 max 17189 min
Histogram: 1 0 0 0 0 0 0 0 0 0
Neighs:    1.25854e+06 ave 1.25854e+06 max 1.25854e+06 min
Histogram: 1 0 0 0 0 0 0 0 0 0

Total # of neighbors = 1258544
Ave neighs/atom = 64.0415
Neighbor list builds = 8000
Dangerous builds not checked
Setting up Verlet run ...
  Unit style    : metal
  Current step  : 10000
  Time step     : 0.001
Per MPI rank memory allocation (min/avg/max) = 18.2 | 18.2 | 18.2 Mbytes
Step Temp Press TotEng PotEng Enthalpy 
   10000    2459.4973   -615.60704   -75218.348   -81465.695   -75369.111 
   13334    2475.7294    887.50754   -75197.641   -81486.219   -74980.435 
   20001    2460.6205   -956.21397    -75126.56    -81376.76   -75361.601 
   26668    2429.5633   -1434.1301   -75260.248   -81431.561   -75613.398 
   33335    2452.2157   -346.75484   -75218.501   -81447.353   -75303.634 
   40000    2439.4323   -914.12406     -75269.9    -81466.28   -75494.122 
Loop time of 5280.96 on 1 procs for 30000 steps with 19652 atoms

Performance: 0.491 ns/day, 48.898 hours/ns, 5.681 timesteps/s
90.4% CPU use with 1 MPI tasks x no OpenMP threads

MPI task timing breakdown:
Section |  min time  |  avg time  |  max time  |%varavg| %total
---------------------------------------------------------------
Pair    | 2816.6     | 2816.6     | 2816.6     |   0.0 | 53.33
Neigh   | 2359.8     | 2359.8     | 2359.8     |   0.0 | 44.68
Comm    | 38.567     | 38.567     | 38.567     |   0.0 |  0.73
Output  | 0.34849    | 0.34849    | 0.34849    |   0.0 |  0.01
Modify  | 52.372     | 52.372     | 52.372     |   0.0 |  0.99
Other   |            | 13.32      |            |       |  0.25

Nlocal:    19652 ave 19652 max 19652 min
Histogram: 1 0 0 0 0 0 0 0 0 0
Nghost:    17173 ave 17173 max 17173 min
Histogram: 1 0 0 0 0 0 0 0 0 0
Neighs:    1.25583e+06 ave 1.25583e+06 max 1.25583e+06 min
Histogram: 1 0 0 0 0 0 0 0 0 0

Total # of neighbors = 1255827
Ave neighs/atom = 63.9033
Neighbor list builds = 30000
Dangerous builds not checked
Setting up Verlet run ...
  Unit style    : metal
  Current step  : 40000
  Time step     : 0.001
Per MPI rank memory allocation (min/avg/max) = 18.2 | 18.2 | 18.2 Mbytes
Step Temp Press TotEng PotEng Enthalpy 
   40000    2439.4323   -914.12406     -75269.9    -81466.28   -75494.122 
   40002     2439.689    -978.8248   -75269.882   -81466.914   -75509.974 
   40495    2403.7598    382.44923   -75453.437   -81559.206   -75359.903 
Loop time of 73.2305 on 1 procs for 495 steps with 19652 atoms

Performance: 0.584 ns/day, 41.095 hours/ns, 6.759 timesteps/s
99.6% CPU use with 1 MPI tasks x no OpenMP threads

MPI task timing breakdown:
Section |  min time  |  avg time  |  max time  |%varavg| %total
---------------------------------------------------------------
Pair    | 38.711     | 38.711     | 38.711     |   0.0 | 52.86
Neigh   | 32.967     | 32.967     | 32.967     |   0.0 | 45.02
Comm    | 0.52996    | 0.52996    | 0.52996    |   0.0 |  0.72
Output  | 0.099477   | 0.099477   | 0.099477   |   0.0 |  0.14
Modify  | 0.73422    | 0.73422    | 0.73422    |   0.0 |  1.00
Other   |            | 0.1886     |            |       |  0.26

Nlocal:    19652 ave 19652 max 19652 min
Histogram: 1 0 0 0 0 0 0 0 0 0
Nghost:    17101 ave 17101 max 17101 min
Histogram: 1 0 0 0 0 0 0 0 0 0
Neighs:    1.25953e+06 ave 1.25953e+06 max 1.25953e+06 min
Histogram: 1 0 0 0 0 0 0 0 0 0

Total # of neighbors = 1259532
Ave neighs/atom = 64.0918
Neighbor list builds = 495
Dangerous builds not checked
Setting up Verlet run ...
  Unit style    : metal
  Current step  : 40495
  Time step     : 0.001
Per MPI rank memory allocation (min/avg/max) = 18.2 | 18.2 | 18.2 Mbytes
Step Temp Press TotEng PotEng Enthalpy 
   40495    2403.7598    382.44923   -75453.437   -81559.206   -75359.903 
   46667    2402.3857   -959.35226   -75444.326   -81546.604   -75679.662 
Loop time of 1027.47 on 1 procs for 6172 steps with 19652 atoms

Performance: 0.519 ns/day, 46.242 hours/ns, 6.007 timesteps/s
96.3% CPU use with 1 MPI tasks x no OpenMP threads

MPI task timing breakdown:
Section |  min time  |  avg time  |  max time  |%varavg| %total
---------------------------------------------------------------
Pair    | 549.35     | 549.35     | 549.35     |   0.0 | 53.47
Neigh   | 457.96     | 457.96     | 457.96     |   0.0 | 44.57
Comm    | 7.3987     | 7.3987     | 7.3987     |   0.0 |  0.72
Output  | 0.00028086 | 0.00028086 | 0.00028086 |   0.0 |  0.00
Modify  | 10.213     | 10.213     | 10.213     |   0.0 |  0.99
Other   |            | 2.546      |            |       |  0.25

Nlocal:    19652 ave 19652 max 19652 min
Histogram: 1 0 0 0 0 0 0 0 0 0
Nghost:    17136 ave 17136 max 17136 min
Histogram: 1 0 0 0 0 0 0 0 0 0
Neighs:    1.25642e+06 ave 1.25642e+06 max 1.25642e+06 min
Histogram: 1 0 0 0 0 0 0 0 0 0

Total # of neighbors = 1256423
Ave neighs/atom = 63.9336
Neighbor list builds = 6172
Dangerous builds not checked
Setting up Verlet run ...
  Unit style    : metal
  Current step  : 46667
  Time step     : 0.001
Per MPI rank memory allocation (min/avg/max) = 18.2 | 18.2 | 18.2 Mbytes
Step Temp Press TotEng PotEng Enthalpy 
   46667    2402.3857   -959.35226   -75444.326   -81546.604   -75679.662 
   46669    2402.4665   -951.00138   -75444.343   -81546.827    -75677.63 
   47162    2370.8515   -52.510605   -75692.768   -81714.947   -75705.568 
Loop time of 77.8415 on 1 procs for 495 steps with 19652 atoms

Performance: 0.549 ns/day, 43.682 hours/ns, 6.359 timesteps/s
95.8% CPU use with 1 MPI tasks x no OpenMP threads

MPI task timing breakdown:
Section |  min time  |  avg time  |  max time  |%varavg| %total
---------------------------------------------------------------
Pair    | 41.802     | 41.802     | 41.802     |   0.0 | 53.70
Neigh   | 34.408     | 34.408     | 34.408     |   0.0 | 44.20
Comm    | 0.56394    | 0.56394    | 0.56394    |   0.0 |  0.72
Output  | 0.065942   | 0.065942   | 0.065942   |   0.0 |  0.08
Modify  | 0.79794    | 0.79794    | 0.79794    |   0.0 |  1.03
Other   |            | 0.2035     |            |       |  0.26

Nlocal:    19652 ave 19652 max 19652 min
Histogram: 1 0 0 0 0 0 0 0 0 0
Nghost:    17173 ave 17173 max 17173 min
Histogram: 1 0 0 0 0 0 0 0 0 0
Neighs:    1.2637e+06 ave 1.2637e+06 max 1.2637e+06 min
Histogram: 1 0 0 0 0 0 0 0 0 0

Total # of neighbors = 1263698
Ave neighs/atom = 64.3038
Neighbor list builds = 495
Dangerous builds not checked
Setting up Verlet run ...
  Unit style    : metal
  Current step  : 47162
  Time step     : 0.001
Per MPI rank memory allocation (min/avg/max) = 18.2 | 18.2 | 18.2 Mbytes
Step Temp Press TotEng PotEng Enthalpy 
   47162    2370.8515   -52.510605   -75692.768   -81714.947   -75705.568 
   53334    2339.5603    1149.7351    -75645.29   -81587.986   -75364.778 
Loop time of 1074.69 on 1 procs for 6172 steps with 19652 atoms

Performance: 0.496 ns/day, 48.367 hours/ns, 5.743 timesteps/s
95.9% CPU use with 1 MPI tasks x no OpenMP threads

MPI task timing breakdown:
Section |  min time  |  avg time  |  max time  |%varavg| %total
---------------------------------------------------------------
Pair    | 586.22     | 586.22     | 586.22     |   0.0 | 54.55
Neigh   | 467.93     | 467.93     | 467.93     |   0.0 | 43.54
Comm    | 7.659      | 7.659      | 7.659      |   0.0 |  0.71
Output  | 0.00031495 | 0.00031495 | 0.00031495 |   0.0 |  0.00
Modify  | 10.251     | 10.251     | 10.251     |   0.0 |  0.95
Other   |            | 2.625      |            |       |  0.24

Nlocal:    19652 ave 19652 max 19652 min
Histogram: 1 0 0 0 0 0 0 0 0 0
Nghost:    17104 ave 17104 max 17104 min
Histogram: 1 0 0 0 0 0 0 0 0 0
Neighs:    1.26276e+06 ave 1.26276e+06 max 1.26276e+06 min
Histogram: 1 0 0 0 0 0 0 0 0 0

Total # of neighbors = 1262755
Ave neighs/atom = 64.2558
Neighbor list builds = 6172
Dangerous builds not checked
Setting up Verlet run ...
  Unit style    : metal
  Current step  : 53334
  Time step     : 0.001
Per MPI rank memory allocation (min/avg/max) = 18.2 | 18.2 | 18.2 Mbytes
Step Temp Press TotEng PotEng Enthalpy 
   53334    2339.5603    1149.7351    -75645.29   -81587.986   -75364.778 
   53336    2341.2982    1088.6923   -75645.291   -81592.402   -75379.671 
   53829    2300.6616    1285.0021   -75875.436   -81719.326   -75562.685 
Loop time of 87.6173 on 1 procs for 495 steps with 19652 atoms

Performance: 0.488 ns/day, 49.168 hours/ns, 5.650 timesteps/s
94.1% CPU use with 1 MPI tasks x no OpenMP threads

MPI task timing breakdown:
Section |  min time  |  avg time  |  max time  |%varavg| %total
---------------------------------------------------------------
Pair    | 48.167     | 48.167     | 48.167     |   0.0 | 54.97
Neigh   | 37.653     | 37.653     | 37.653     |   0.0 | 42.97
Comm    | 0.67193    | 0.67193    | 0.67193    |   0.0 |  0.77
Output  | 0.068161   | 0.068161   | 0.068161   |   0.0 |  0.08
Modify  | 0.84825    | 0.84825    | 0.84825    |   0.0 |  0.97
Other   |            | 0.2084     |            |       |  0.24

Nlocal:    19652 ave 19652 max 19652 min
Histogram: 1 0 0 0 0 0 0 0 0 0
Nghost:    17154 ave 17154 max 17154 min
Histogram: 1 0 0 0 0 0 0 0 0 0
Neighs:    1.26542e+06 ave 1.26542e+06 max 1.26542e+06 min
Histogram: 1 0 0 0 0 0 0 0 0 0

Total # of neighbors = 1265416
Ave neighs/atom = 64.3912
Neighbor list builds = 495
Dangerous builds not checked
Setting up Verlet run ...
  Unit style    : metal
  Current step  : 53829
  Time step     : 0.001
Per MPI rank memory allocation (min/avg/max) = 18.2 | 18.2 | 18.2 Mbytes
Step Temp Press TotEng PotEng Enthalpy 
   53829    2300.6616    1285.0021   -75875.436   -81719.326   -75562.685 
   60001     2311.682   -1820.4595   -75825.985   -81697.868   -76271.268 
Loop time of 1086.15 on 1 procs for 6172 steps with 19652 atoms

Performance: 0.491 ns/day, 48.883 hours/ns, 5.682 timesteps/s
95.8% CPU use with 1 MPI tasks x no OpenMP threads

MPI task timing breakdown:
Section |  min time  |  avg time  |  max time  |%varavg| %total
---------------------------------------------------------------
Pair    | 594.74     | 594.74     | 594.74     |   0.0 | 54.76
Neigh   | 470.54     | 470.54     | 470.54     |   0.0 | 43.32
Comm    | 7.9276     | 7.9276     | 7.9276     |   0.0 |  0.73
Output  | 0.00021601 | 0.00021601 | 0.00021601 |   0.0 |  0.00
Modify  | 10.31      | 10.31      | 10.31      |   0.0 |  0.95
Other   |            | 2.627      |            |       |  0.24

Nlocal:    19652 ave 19652 max 19652 min
Histogram: 1 0 0 0 0 0 0 0 0 0
Nghost:    17116 ave 17116 max 17116 min
Histogram: 1 0 0 0 0 0 0 0 0 0
Neighs:    1.25987e+06 ave 1.25987e+06 max 1.25987e+06 min
Histogram: 1 0 0 0 0 0 0 0 0 0

Total # of neighbors = 1259870
Ave neighs/atom = 64.109
Neighbor list builds = 6172
Dangerous builds not checked
Setting up Verlet run ...
  Unit style    : metal
  Current step  : 60001
  Time step     : 0.001
Per MPI rank memory allocation (min/avg/max) = 18.2 | 18.2 | 18.2 Mbytes
Step Temp Press TotEng PotEng Enthalpy 
   60001     2311.682   -1820.4595   -75825.985   -81697.868   -76271.268 
   60003    2312.5155   -1814.3085   -75826.001   -81700.001   -76269.779 
   60496     2269.428    1253.3411   -76105.793   -81870.347   -75801.431 
Loop time of 82.1211 on 1 procs for 495 steps with 19652 atoms

Performance: 0.521 ns/day, 46.084 hours/ns, 6.028 timesteps/s
94.5% CPU use with 1 MPI tasks x no OpenMP threads

MPI task timing breakdown:
Section |  min time  |  avg time  |  max time  |%varavg| %total
---------------------------------------------------------------
Pair    | 44.462     | 44.462     | 44.462     |   0.0 | 54.14
Neigh   | 35.978     | 35.978     | 35.978     |   0.0 | 43.81
Comm    | 0.5825     | 0.5825     | 0.5825     |   0.0 |  0.71
Output  | 0.063437   | 0.063437   | 0.063437   |   0.0 |  0.08
Modify  | 0.83434    | 0.83434    | 0.83434    |   0.0 |  1.02
Other   |            | 0.2009     |            |       |  0.24

Nlocal:    19652 ave 19652 max 19652 min
Histogram: 1 0 0 0 0 0 0 0 0 0
Nghost:    17126 ave 17126 max 17126 min
Histogram: 1 0 0 0 0 0 0 0 0 0
Neighs:    1.26945e+06 ave 1.26945e+06 max 1.26945e+06 min
Histogram: 1 0 0 0 0 0 0 0 0 0

Total # of neighbors = 1269446
Ave neighs/atom = 64.5963
Neighbor list builds = 495
Dangerous builds not checked
Setting up Verlet run ...
  Unit style    : metal
  Current step  : 60496
  Time step     : 0.001
Per MPI rank memory allocation (min/avg/max) = 18.2 | 18.2 | 18.2 Mbytes
Step Temp Press TotEng PotEng Enthalpy 
   60496     2269.428    1253.3411   -76105.793   -81870.347   -75801.431 
   66668    2244.4386    324.78961   -76147.319   -81848.397   -76068.494 
Loop time of 1052.79 on 1 procs for 6172 steps with 19652 atoms

Performance: 0.507 ns/day, 47.382 hours/ns, 5.863 timesteps/s
97.6% CPU use with 1 MPI tasks x no OpenMP threads

MPI task timing breakdown:
Section |  min time  |  avg time  |  max time  |%varavg| %total
---------------------------------------------------------------
Pair    | 572.98     | 572.98     | 572.98     |   0.0 | 54.42
Neigh   | 459.25     | 459.25     | 459.25     |   0.0 | 43.62
Comm    | 7.6991     | 7.6991     | 7.6991     |   0.0 |  0.73
Output  | 0.00023293 | 0.00023293 | 0.00023293 |   0.0 |  0.00
Modify  | 10.263     | 10.263     | 10.263     |   0.0 |  0.97
Other   |            | 2.607      |            |       |  0.25

Nlocal:    19652 ave 19652 max 19652 min
Histogram: 1 0 0 0 0 0 0 0 0 0
Nghost:    17149 ave 17149 max 17149 min
Histogram: 1 0 0 0 0 0 0 0 0 0
Neighs:    1.26949e+06 ave 1.26949e+06 max 1.26949e+06 min
Histogram: 1 0 0 0 0 0 0 0 0 0

Total # of neighbors = 1269486
Ave neighs/atom = 64.5983
Neighbor list builds = 6172
Dangerous builds not checked
Setting up Verlet run ...
  Unit style    : metal
  Current step  : 66668
  Time step     : 0.001
Per MPI rank memory allocation (min/avg/max) = 18.2 | 18.2 | 18.2 Mbytes
Step Temp Press TotEng PotEng Enthalpy 
   66668    2244.4386    324.78961   -76147.319   -81848.397   -76068.494 
   66670    2245.5788    243.95274   -76147.329   -81851.304   -76088.124 
   67163    2205.5167   -857.10949   -76307.763   -81909.977   -76516.112 
Loop time of 82.4803 on 1 procs for 495 steps with 19652 atoms

Performance: 0.519 ns/day, 46.285 hours/ns, 6.001 timesteps/s
94.9% CPU use with 1 MPI tasks x no OpenMP threads

MPI task timing breakdown:
Section |  min time  |  avg time  |  max time  |%varavg| %total
---------------------------------------------------------------
Pair    | 44.813     | 44.813     | 44.813     |   0.0 | 54.33
Neigh   | 35.927     | 35.927     | 35.927     |   0.0 | 43.56
Comm    | 0.6358     | 0.6358     | 0.6358     |   0.0 |  0.77
Output  | 0.059844   | 0.059844   | 0.059844   |   0.0 |  0.07
Modify  | 0.84223    | 0.84223    | 0.84223    |   0.0 |  1.02
Other   |            | 0.2019     |            |       |  0.24

Nlocal:    19652 ave 19652 max 19652 min
Histogram: 1 0 0 0 0 0 0 0 0 0
Nghost:    17179 ave 17179 max 17179 min
Histogram: 1 0 0 0 0 0 0 0 0 0
Neighs:    1.26757e+06 ave 1.26757e+06 max 1.26757e+06 min
Histogram: 1 0 0 0 0 0 0 0 0 0

Total # of neighbors = 1267567
Ave neighs/atom = 64.5007
Neighbor list builds = 495
Dangerous builds not checked
Setting up Verlet run ...
  Unit style    : metal
  Current step  : 67163
  Time step     : 0.001
Per MPI rank memory allocation (min/avg/max) = 18.2 | 18.2 | 18.2 Mbytes
Step Temp Press TotEng PotEng Enthalpy 
   67163    2205.5167   -857.10949   -76307.763   -81909.977   -76516.112 
   73335    2192.5212   -620.57655   -76328.133   -81897.337   -76478.847 
Loop time of 1038.51 on 1 procs for 6172 steps with 19652 atoms

Performance: 0.513 ns/day, 46.739 hours/ns, 5.943 timesteps/s
98.1% CPU use with 1 MPI tasks x no OpenMP threads

MPI task timing breakdown:
Section |  min time  |  avg time  |  max time  |%varavg| %total
---------------------------------------------------------------
Pair    | 567.56     | 567.56     | 567.56     |   0.0 | 54.65
Neigh   | 450.67     | 450.67     | 450.67     |   0.0 | 43.40
Comm    | 7.6155     | 7.6155     | 7.6155     |   0.0 |  0.73
Output  | 0.00022316 | 0.00022316 | 0.00022316 |   0.0 |  0.00
Modify  | 10.06      | 10.06      | 10.06      |   0.0 |  0.97
Other   |            | 2.609      |            |       |  0.25

Nlocal:    19652 ave 19652 max 19652 min
Histogram: 1 0 0 0 0 0 0 0 0 0
Nghost:    17162 ave 17162 max 17162 min
Histogram: 1 0 0 0 0 0 0 0 0 0
Neighs:    1.26875e+06 ave 1.26875e+06 max 1.26875e+06 min
Histogram: 1 0 0 0 0 0 0 0 0 0

Total # of neighbors = 1268753
Ave neighs/atom = 64.561
Neighbor list builds = 6172
Dangerous builds not checked
Setting up Verlet run ...
  Unit style    : metal
  Current step  : 73335
  Time step     : 0.001
Per MPI rank memory allocation (min/avg/max) = 18.2 | 18.2 | 18.2 Mbytes
Step Temp Press TotEng PotEng Enthalpy 
   73335    2192.5212   -620.57655   -76328.133   -81897.337   -76478.847 
   73337    2193.3245   -619.93856   -76328.138   -81899.382   -76478.698 
   73830    2146.3456    228.45008   -76550.397    -82002.31   -76495.129 
Loop time of 82.333 on 1 procs for 495 steps with 19652 atoms

Performance: 0.519 ns/day, 46.203 hours/ns, 6.012 timesteps/s
96.3% CPU use with 1 MPI tasks x no OpenMP threads

MPI task timing breakdown:
Section |  min time  |  avg time  |  max time  |%varavg| %total
---------------------------------------------------------------
Pair    | 44.598     | 44.598     | 44.598     |   0.0 | 54.17
Neigh   | 36.065     | 36.065     | 36.065     |   0.0 | 43.80
Comm    | 0.57886    | 0.57886    | 0.57886    |   0.0 |  0.70
Output  | 0.067698   | 0.067698   | 0.067698   |   0.0 |  0.08
Modify  | 0.81894    | 0.81894    | 0.81894    |   0.0 |  0.99
Other   |            | 0.2051     |            |       |  0.25

Nlocal:    19652 ave 19652 max 19652 min
Histogram: 1 0 0 0 0 0 0 0 0 0
Nghost:    17207 ave 17207 max 17207 min
Histogram: 1 0 0 0 0 0 0 0 0 0
Neighs:    1.27386e+06 ave 1.27386e+06 max 1.27386e+06 min
Histogram: 1 0 0 0 0 0 0 0 0 0

Total # of neighbors = 1273857
Ave neighs/atom = 64.8207
Neighbor list builds = 495
Dangerous builds not checked
Setting up Verlet run ...
  Unit style    : metal
  Current step  : 73830
  Time step     : 0.001
Per MPI rank memory allocation (min/avg/max) = 18.2 | 18.2 | 18.2 Mbytes
Step Temp Press TotEng PotEng Enthalpy 
   73830    2146.3456    228.45008   -76550.397    -82002.31   -76495.129 
   80002    2163.9269   -2124.5449   -76496.262   -81992.833   -77012.941 
Loop time of 1043.07 on 1 procs for 6172 steps with 19652 atoms

Performance: 0.511 ns/day, 46.945 hours/ns, 5.917 timesteps/s
98.8% CPU use with 1 MPI tasks x no OpenMP threads

MPI task timing breakdown:
Section |  min time  |  avg time  |  max time  |%varavg| %total
---------------------------------------------------------------
Pair    | 569.13     | 569.13     | 569.13     |   0.0 | 54.56
Neigh   | 453.7      | 453.7      | 453.7      |   0.0 | 43.50
Comm    | 7.6304     | 7.6304     | 7.6304     |   0.0 |  0.73
Output  | 0.00021887 | 0.00021887 | 0.00021887 |   0.0 |  0.00
Modify  | 10.025     | 10.025     | 10.025     |   0.0 |  0.96
Other   |            | 2.582      |            |       |  0.25

Nlocal:    19652 ave 19652 max 19652 min
Histogram: 1 0 0 0 0 0 0 0 0 0
Nghost:    17203 ave 17203 max 17203 min
Histogram: 1 0 0 0 0 0 0 0 0 0
Neighs:    1.26716e+06 ave 1.26716e+06 max 1.26716e+06 min
Histogram: 1 0 0 0 0 0 0 0 0 0

Total # of neighbors = 1267160
Ave neighs/atom = 64.48
Neighbor list builds = 6172
Dangerous builds not checked
Setting up Verlet run ...
  Unit style    : metal
  Current step  : 80002
  Time step     : 0.001
Per MPI rank memory allocation (min/avg/max) = 18.2 | 18.2 | 18.2 Mbytes
Step Temp Press TotEng PotEng Enthalpy 
   80002    2163.9269   -2124.5449   -76496.262   -81992.833   -77012.941 
   80004    2162.9143   -2113.0853   -76496.271    -81990.27   -77010.162 
   80497      2101.87   -722.80467   -76743.096   -82082.037   -76917.763 
Loop time of 79.1684 on 1 procs for 495 steps with 19652 atoms

Performance: 0.540 ns/day, 44.427 hours/ns, 6.252 timesteps/s
99.4% CPU use with 1 MPI tasks x no OpenMP threads

MPI task timing breakdown:
Section |  min time  |  avg time  |  max time  |%varavg| %total
---------------------------------------------------------------
Pair    | 43.081     | 43.081     | 43.081     |   0.0 | 54.42
Neigh   | 34.481     | 34.481     | 34.481     |   0.0 | 43.55
Comm    | 0.56407    | 0.56407    | 0.56407    |   0.0 |  0.71
Output  | 0.067045   | 0.067045   | 0.067045   |   0.0 |  0.08
Modify  | 0.77401    | 0.77401    | 0.77401    |   0.0 |  0.98
Other   |            | 0.2013     |            |       |  0.25

Nlocal:    19652 ave 19652 max 19652 min
Histogram: 1 0 0 0 0 0 0 0 0 0
Nghost:    17230 ave 17230 max 17230 min
Histogram: 1 0 0 0 0 0 0 0 0 0
Neighs:    1.27528e+06 ave 1.27528e+06 max 1.27528e+06 min
Histogram: 1 0 0 0 0 0 0 0 0 0

Total # of neighbors = 1275276
Ave neighs/atom = 64.8929
Neighbor list builds = 495
Dangerous builds not checked
Setting up Verlet run ...
  Unit style    : metal
  Current step  : 80497
  Time step     : 0.001
Per MPI rank memory allocation (min/avg/max) = 18.2 | 18.2 | 18.2 Mbytes
Step Temp Press TotEng PotEng Enthalpy 
   80497      2101.87   -722.80467   -76743.096   -82082.037   -76917.763 
   86669    2102.3607    102.86385   -76786.964   -82127.151    -76762.12 
Loop time of 1030.56 on 1 procs for 6172 steps with 19652 atoms

Performance: 0.517 ns/day, 46.381 hours/ns, 5.989 timesteps/s
99.0% CPU use with 1 MPI tasks x no OpenMP threads

MPI task timing breakdown:
Section |  min time  |  avg time  |  max time  |%varavg| %total
---------------------------------------------------------------
Pair    | 562.83     | 562.83     | 562.83     |   0.0 | 54.61
Neigh   | 447.36     | 447.36     | 447.36     |   0.0 | 43.41
Comm    | 7.6931     | 7.6931     | 7.6931     |   0.0 |  0.75
Output  | 0.00022697 | 0.00022697 | 0.00022697 |   0.0 |  0.00
Modify  | 10.116     | 10.116     | 10.116     |   0.0 |  0.98
Other   |            | 2.561      |            |       |  0.25

Nlocal:    19652 ave 19652 max 19652 min
Histogram: 1 0 0 0 0 0 0 0 0 0
Nghost:    17123 ave 17123 max 17123 min
Histogram: 1 0 0 0 0 0 0 0 0 0
Neighs:    1.27622e+06 ave 1.27622e+06 max 1.27622e+06 min
Histogram: 1 0 0 0 0 0 0 0 0 0

Total # of neighbors = 1276223
Ave neighs/atom = 64.9411
Neighbor list builds = 6172
Dangerous builds not checked
Setting up Verlet run ...
  Unit style    : metal
  Current step  : 86669
  Time step     : 0.001
Per MPI rank memory allocation (min/avg/max) = 18.2 | 18.2 | 18.2 Mbytes
Step Temp Press TotEng PotEng Enthalpy 
   86669    2102.3607    102.86385   -76786.964   -82127.151    -76762.12 
   86671    2104.0846    36.270877   -76786.978   -82131.544   -76778.218 
   87164    2058.8622   -444.34681   -76973.838   -82203.536   -77081.017 
Loop time of 78.4422 on 1 procs for 495 steps with 19652 atoms

Performance: 0.545 ns/day, 44.019 hours/ns, 6.310 timesteps/s
99.6% CPU use with 1 MPI tasks x no OpenMP threads

MPI task timing breakdown:
Section |  min time  |  avg time  |  max time  |%varavg| %total
---------------------------------------------------------------
Pair    | 42.374     | 42.374     | 42.374     |   0.0 | 54.02
Neigh   | 34.423     | 34.423     | 34.423     |   0.0 | 43.88
Comm    | 0.58158    | 0.58158    | 0.58158    |   0.0 |  0.74
Output  | 0.060151   | 0.060151   | 0.060151   |   0.0 |  0.08
Modify  | 0.801      | 0.801      | 0.801      |   0.0 |  1.02
Other   |            | 0.2029     |            |       |  0.26

Nlocal:    19652 ave 19652 max 19652 min
Histogram: 1 0 0 0 0 0 0 0 0 0
Nghost:    17240 ave 17240 max 17240 min
Histogram: 1 0 0 0 0 0 0 0 0 0
Neighs:    1.27754e+06 ave 1.27754e+06 max 1.27754e+06 min
Histogram: 1 0 0 0 0 0 0 0 0 0

Total # of neighbors = 1277537
Ave neighs/atom = 65.008
Neighbor list builds = 495
Dangerous builds not checked
Setting up Verlet run ...
  Unit style    : metal
  Current step  : 87164
  Time step     : 0.001
Per MPI rank memory allocation (min/avg/max) = 18.2 | 18.2 | 18.2 Mbytes
Step Temp Press TotEng PotEng Enthalpy 
   87164    2058.8622   -444.34681   -76973.838   -82203.536   -77081.017 
   93336    2048.6171    936.05695   -77095.588   -82299.263    -76870.53 
Loop time of 1041.51 on 1 procs for 6172 steps with 19652 atoms

Performance: 0.512 ns/day, 46.874 hours/ns, 5.926 timesteps/s
99.8% CPU use with 1 MPI tasks x no OpenMP threads

MPI task timing breakdown:
Section |  min time  |  avg time  |  max time  |%varavg| %total
---------------------------------------------------------------
Pair    | 565.07     | 565.07     | 565.07     |   0.0 | 54.25
Neigh   | 456.46     | 456.46     | 456.46     |   0.0 | 43.83
Comm    | 7.3439     | 7.3439     | 7.3439     |   0.0 |  0.71
Output  | 0.00016022 | 0.00016022 | 0.00016022 |   0.0 |  0.00
Modify  | 10.13      | 10.13      | 10.13      |   0.0 |  0.97
Other   |            | 2.507      |            |       |  0.24

Nlocal:    19652 ave 19652 max 19652 min
Histogram: 1 0 0 0 0 0 0 0 0 0
Nghost:    17221 ave 17221 max 17221 min
Histogram: 1 0 0 0 0 0 0 0 0 0
Neighs:    1.28191e+06 ave 1.28191e+06 max 1.28191e+06 min
Histogram: 1 0 0 0 0 0 0 0 0 0

Total # of neighbors = 1281910
Ave neighs/atom = 65.2305
Neighbor list builds = 6172
Dangerous builds not checked
Setting up Verlet run ...
  Unit style    : metal
  Current step  : 93336
  Time step     : 0.001
Per MPI rank memory allocation (min/avg/max) = 18.2 | 18.2 | 18.2 Mbytes
Step Temp Press TotEng PotEng Enthalpy 
   93336    2048.6171    936.05695   -77095.588   -82299.263    -76870.53 
   93338    2047.3586    1081.3309   -77095.572    -82296.05   -76835.585 
   93831    2005.2616    132.28763   -77164.842    -82258.39   -77132.964 
Loop time of 68.5716 on 1 procs for 495 steps with 19652 atoms

Performance: 0.624 ns/day, 38.480 hours/ns, 7.219 timesteps/s
100.0% CPU use with 1 MPI tasks x no OpenMP threads

MPI task timing breakdown:
Section |  min time  |  avg time  |  max time  |%varavg| %total
---------------------------------------------------------------
Pair    | 36.604     | 36.604     | 36.604     |   0.0 | 53.38
Neigh   | 30.566     | 30.566     | 30.566     |   0.0 | 44.57
Comm    | 0.49879    | 0.49879    | 0.49879    |   0.0 |  0.73
Output  | 0.056947   | 0.056947   | 0.056947   |   0.0 |  0.08
Modify  | 0.66789    | 0.66789    | 0.66789    |   0.0 |  0.97
Other   |            | 0.178      |            |       |  0.26

Nlocal:    19652 ave 19652 max 19652 min
Histogram: 1 0 0 0 0 0 0 0 0 0
Nghost:    17210 ave 17210 max 17210 min
Histogram: 1 0 0 0 0 0 0 0 0 0
Neighs:    1.27889e+06 ave 1.27889e+06 max 1.27889e+06 min
Histogram: 1 0 0 0 0 0 0 0 0 0

Total # of neighbors = 1278890
Ave neighs/atom = 65.0768
Neighbor list builds = 495
Dangerous builds not checked
Setting up Verlet run ...
  Unit style    : metal
  Current step  : 93831
  Time step     : 0.001
Per MPI rank memory allocation (min/avg/max) = 18.2 | 18.2 | 18.2 Mbytes
Step Temp Press TotEng PotEng Enthalpy 
   93831    2005.2616    132.28763   -77164.842    -82258.39   -77132.964 
  100003    1983.6279    692.66019    -77273.39   -82311.986   -77107.097 
Loop time of 857.393 on 1 procs for 6172 steps with 19652 atoms

Performance: 0.622 ns/day, 38.588 hours/ns, 7.199 timesteps/s
99.9% CPU use with 1 MPI tasks x no OpenMP threads

MPI task timing breakdown:
Section |  min time  |  avg time  |  max time  |%varavg| %total
---------------------------------------------------------------
Pair    | 457.97     | 457.97     | 457.97     |   0.0 | 53.41
Neigh   | 382.56     | 382.56     | 382.56     |   0.0 | 44.62
Comm    | 6.3424     | 6.3424     | 6.3424     |   0.0 |  0.74
Output  | 0.00027394 | 0.00027394 | 0.00027394 |   0.0 |  0.00
Modify  | 8.2856     | 8.2856     | 8.2856     |   0.0 |  0.97
Other   |            | 2.238      |            |       |  0.26

Nlocal:    19652 ave 19652 max 19652 min
Histogram: 1 0 0 0 0 0 0 0 0 0
Nghost:    17173 ave 17173 max 17173 min
Histogram: 1 0 0 0 0 0 0 0 0 0
Neighs:    1.2845e+06 ave 1.2845e+06 max 1.2845e+06 min
Histogram: 1 0 0 0 0 0 0 0 0 0

Total # of neighbors = 1284501
Ave neighs/atom = 65.3624
Neighbor list builds = 6172
Dangerous builds not checked
Setting up Verlet run ...
  Unit style    : metal
  Current step  : 100003
  Time step     : 0.001
Per MPI rank memory allocation (min/avg/max) = 18.2 | 18.2 | 18.2 Mbytes
Step Temp Press TotEng PotEng Enthalpy 
  100003    1983.6279    692.66019    -77273.39   -82311.986   -77107.097 
  100005    1984.3449    694.34952   -77273.382   -82313.798   -77106.682 
  100498    1954.3907    56.946118   -77412.705   -82377.036   -77399.046 
Loop time of 60.5426 on 1 procs for 495 steps with 19652 atoms

Performance: 0.706 ns/day, 33.975 hours/ns, 8.176 timesteps/s
100.0% CPU use with 1 MPI tasks x no OpenMP threads

MPI task timing breakdown:
Section |  min time  |  avg time  |  max time  |%varavg| %total
---------------------------------------------------------------
Pair    | 31.896     | 31.896     | 31.896     |   0.0 | 52.68
Neigh   | 27.406     | 27.406     | 27.406     |   0.0 | 45.27
Comm    | 0.44145    | 0.44145    | 0.44145    |   0.0 |  0.73
Output  | 0.046122   | 0.046122   | 0.046122   |   0.0 |  0.08
Modify  | 0.59329    | 0.59329    | 0.59329    |   0.0 |  0.98
Other   |            | 0.1606     |            |       |  0.27

Nlocal:    19652 ave 19652 max 19652 min
Histogram: 1 0 0 0 0 0 0 0 0 0
Nghost:    17319 ave 17319 max 17319 min
Histogram: 1 0 0 0 0 0 0 0 0 0
Neighs:    1.28537e+06 ave 1.28537e+06 max 1.28537e+06 min
Histogram: 1 0 0 0 0 0 0 0 0 0

Total # of neighbors = 1285369
Ave neighs/atom = 65.4065
Neighbor list builds = 495
Dangerous builds not checked
Setting up Verlet run ...
  Unit style    : metal
  Current step  : 100498
  Time step     : 0.001
Per MPI rank memory allocation (min/avg/max) = 18.2 | 18.2 | 18.2 Mbytes
Step Temp Press TotEng PotEng Enthalpy 
  100498    1954.3907    56.946118   -77412.705   -82377.036   -77399.046 
  106670    1951.6139    322.72462   -77530.398   -82487.675   -77452.904 
Loop time of 849.742 on 1 procs for 6172 steps with 19652 atoms

Performance: 0.628 ns/day, 38.244 hours/ns, 7.263 timesteps/s
99.9% CPU use with 1 MPI tasks x no OpenMP threads

MPI task timing breakdown:
Section |  min time  |  avg time  |  max time  |%varavg| %total
---------------------------------------------------------------
Pair    | 451.89     | 451.89     | 451.89     |   0.0 | 53.18
Neigh   | 381.01     | 381.01     | 381.01     |   0.0 | 44.84
Comm    | 6.3246     | 6.3246     | 6.3246     |   0.0 |  0.74
Output  | 0.00022411 | 0.00022411 | 0.00022411 |   0.0 |  0.00
Modify  | 8.2842     | 8.2842     | 8.2842     |   0.0 |  0.97
Other   |            | 2.232      |            |       |  0.26

Nlocal:    19652 ave 19652 max 19652 min
Histogram: 1 0 0 0 0 0 0 0 0 0
Nghost:    17299 ave 17299 max 17299 min
Histogram: 1 0 0 0 0 0 0 0 0 0
Neighs:    1.28356e+06 ave 1.28356e+06 max 1.28356e+06 min
Histogram: 1 0 0 0 0 0 0 0 0 0

Total # of neighbors = 1283555
Ave neighs/atom = 65.3142
Neighbor list builds = 6172
Dangerous builds not checked
Setting up Verlet run ...
  Unit style    : metal
  Current step  : 106670
  Time step     : 0.001
Per MPI rank memory allocation (min/avg/max) = 18.2 | 18.2 | 18.2 Mbytes
Step Temp Press TotEng PotEng Enthalpy 
  106670    1951.6139    322.72462   -77530.398   -82487.675   -77452.904 
  106672    1952.6638    338.90163   -77530.417   -82490.361   -77449.039 
  107165    1902.2197    -242.0619   -77626.908    -82458.72   -77685.005 
Loop time of 64.2356 on 1 procs for 495 steps with 19652 atoms

Performance: 0.666 ns/day, 36.047 hours/ns, 7.706 timesteps/s
99.9% CPU use with 1 MPI tasks x no OpenMP threads

MPI task timing breakdown:
Section |  min time  |  avg time  |  max time  |%varavg| %total
---------------------------------------------------------------
Pair    | 34.065     | 34.065     | 34.065     |   0.0 | 53.03
Neigh   | 28.818     | 28.818     | 28.818     |   0.0 | 44.86
Comm    | 0.47523    | 0.47523    | 0.47523    |   0.0 |  0.74
Output  | 0.053255   | 0.053255   | 0.053255   |   0.0 |  0.08
Modify  | 0.65192    | 0.65192    | 0.65192    |   0.0 |  1.01
Other   |            | 0.172      |            |       |  0.27

Nlocal:    19652 ave 19652 max 19652 min
Histogram: 1 0 0 0 0 0 0 0 0 0
Nghost:    17237 ave 17237 max 17237 min
Histogram: 1 0 0 0 0 0 0 0 0 0
Neighs:    1.28379e+06 ave 1.28379e+06 max 1.28379e+06 min
Histogram: 1 0 0 0 0 0 0 0 0 0

Total # of neighbors = 1283790
Ave neighs/atom = 65.3262
Neighbor list builds = 495
Dangerous builds not checked
Setting up Verlet run ...
  Unit style    : metal
  Current step  : 107165
  Time step     : 0.001
Per MPI rank memory allocation (min/avg/max) = 18.2 | 18.2 | 18.2 Mbytes
Step Temp Press TotEng PotEng Enthalpy 
  107165    1902.2197    -242.0619   -77626.908    -82458.72   -77685.005 
  113337    1893.5009   -1165.7519    -77641.85   -82451.514   -77921.701 
Loop time of 832.076 on 1 procs for 6172 steps with 19652 atoms

Performance: 0.641 ns/day, 37.449 hours/ns, 7.418 timesteps/s
100.0% CPU use with 1 MPI tasks x no OpenMP threads

MPI task timing breakdown:
Section |  min time  |  avg time  |  max time  |%varavg| %total
---------------------------------------------------------------
Pair    | 443.54     | 443.54     | 443.54     |   0.0 | 53.31
Neigh   | 372.11     | 372.11     | 372.11     |   0.0 | 44.72
Comm    | 6.1619     | 6.1619     | 6.1619     |   0.0 |  0.74
Output  | 0.00016785 | 0.00016785 | 0.00016785 |   0.0 |  0.00
Modify  | 8.1062     | 8.1062     | 8.1062     |   0.0 |  0.97
Other   |            | 2.151      |            |       |  0.26

Nlocal:    19652 ave 19652 max 19652 min
Histogram: 1 0 0 0 0 0 0 0 0 0
Nghost:    17147 ave 17147 max 17147 min
Histogram: 1 0 0 0 0 0 0 0 0 0
Neighs:    1.28419e+06 ave 1.28419e+06 max 1.28419e+06 min
Histogram: 1 0 0 0 0 0 0 0 0 0

Total # of neighbors = 1284194
Ave neighs/atom = 65.3467
Neighbor list builds = 6172
Dangerous builds not checked
Setting up Verlet run ...
  Unit style    : metal
  Current step  : 113337
  Time step     : 0.001
Per MPI rank memory allocation (min/avg/max) = 18.2 | 18.2 | 18.2 Mbytes
Step Temp Press TotEng PotEng Enthalpy 
  113337    1893.5009   -1165.7519    -77641.85   -82451.514   -77921.701 
  113339    1895.7287   -1245.0904   -77641.872   -82457.196   -77940.769 
  113832    1862.2165    51.508113   -77878.598   -82608.798   -77866.277 
Loop time of 69.1073 on 1 procs for 495 steps with 19652 atoms

Performance: 0.619 ns/day, 38.781 hours/ns, 7.163 timesteps/s
100.0% CPU use with 1 MPI tasks x no OpenMP threads

MPI task timing breakdown:
Section |  min time  |  avg time  |  max time  |%varavg| %total
---------------------------------------------------------------
Pair    | 36.815     | 36.815     | 36.815     |   0.0 | 53.27
Neigh   | 30.86      | 30.86      | 30.86      |   0.0 | 44.65
Comm    | 0.50918    | 0.50918    | 0.50918    |   0.0 |  0.74
Output  | 0.050457   | 0.050457   | 0.050457   |   0.0 |  0.07
Modify  | 0.68899    | 0.68899    | 0.68899    |   0.0 |  1.00
Other   |            | 0.1839     |            |       |  0.27

Nlocal:    19652 ave 19652 max 19652 min
Histogram: 1 0 0 0 0 0 0 0 0 0
Nghost:    17287 ave 17287 max 17287 min
Histogram: 1 0 0 0 0 0 0 0 0 0
Neighs:    1.28879e+06 ave 1.28879e+06 max 1.28879e+06 min
Histogram: 1 0 0 0 0 0 0 0 0 0

Total # of neighbors = 1288786
Ave neighs/atom = 65.5804
Neighbor list builds = 495
Dangerous builds not checked
Setting up Verlet run ...
  Unit style    : metal
  Current step  : 113832
  Time step     : 0.001
Per MPI rank memory allocation (min/avg/max) = 18.2 | 18.2 | 18.2 Mbytes
Step Temp Press TotEng PotEng Enthalpy 
  113832    1862.2165    51.508113   -77878.598   -82608.798   -77866.277 
  120004    1846.6909    883.59792   -77941.226   -82631.989   -77730.169 
Loop time of 874.907 on 1 procs for 6172 steps with 19652 atoms

Performance: 0.610 ns/day, 39.376 hours/ns, 7.054 timesteps/s
99.8% CPU use with 1 MPI tasks x no OpenMP threads

MPI task timing breakdown:
Section |  min time  |  avg time  |  max time  |%varavg| %total
---------------------------------------------------------------
Pair    | 467.98     | 467.98     | 467.98     |   0.0 | 53.49
Neigh   | 389.76     | 389.76     | 389.76     |   0.0 | 44.55
Comm    | 6.4324     | 6.4324     | 6.4324     |   0.0 |  0.74
Output  | 0.00022101 | 0.00022101 | 0.00022101 |   0.0 |  0.00
Modify  | 8.4963     | 8.4963     | 8.4963     |   0.0 |  0.97
Other   |            | 2.239      |            |       |  0.26

Nlocal:    19652 ave 19652 max 19652 min
Histogram: 1 0 0 0 0 0 0 0 0 0
Nghost:    17346 ave 17346 max 17346 min
Histogram: 1 0 0 0 0 0 0 0 0 0
Neighs:    1.29063e+06 ave 1.29063e+06 max 1.29063e+06 min
Histogram: 1 0 0 0 0 0 0 0 0 0

Total # of neighbors = 1290630
Ave neighs/atom = 65.6742
Neighbor list builds = 6172
Dangerous builds not checked
Setting up Verlet run ...
  Unit style    : metal
  Current step  : 120004
  Time step     : 0.001
Per MPI rank memory allocation (min/avg/max) = 18.2 | 18.2 | 18.2 Mbytes
Step Temp Press TotEng PotEng Enthalpy 
  120004    1846.6909    883.59792   -77941.226   -82631.989   -77730.169 
  120006    1848.2821    875.62646   -77941.232   -82636.037    -77732.08 
  120499    1805.1818    99.680075   -78116.148   -82701.474   -78092.331 
Loop time of 62.4302 on 1 procs for 495 steps with 19652 atoms

Performance: 0.685 ns/day, 35.034 hours/ns, 7.929 timesteps/s
100.0% CPU use with 1 MPI tasks x no OpenMP threads

MPI task timing breakdown:
Section |  min time  |  avg time  |  max time  |%varavg| %total
---------------------------------------------------------------
Pair    | 33.134     | 33.134     | 33.134     |   0.0 | 53.07
Neigh   | 28.03      | 28.03      | 28.03      |   0.0 | 44.90
Comm    | 0.44974    | 0.44974    | 0.44974    |   0.0 |  0.72
Output  | 0.053045   | 0.053045   | 0.053045   |   0.0 |  0.08
Modify  | 0.60387    | 0.60387    | 0.60387    |   0.0 |  0.97
Other   |            | 0.1589     |            |       |  0.25

Nlocal:    19652 ave 19652 max 19652 min
Histogram: 1 0 0 0 0 0 0 0 0 0
Nghost:    17307 ave 17307 max 17307 min
Histogram: 1 0 0 0 0 0 0 0 0 0
Neighs:    1.29025e+06 ave 1.29025e+06 max 1.29025e+06 min
Histogram: 1 0 0 0 0 0 0 0 0 0

Total # of neighbors = 1290253
Ave neighs/atom = 65.655
Neighbor list builds = 495
Dangerous builds not checked
Setting up Verlet run ...
  Unit style    : metal
  Current step  : 120499
  Time step     : 0.001
Per MPI rank memory allocation (min/avg/max) = 18.2 | 18.2 | 18.2 Mbytes
Step Temp Press TotEng PotEng Enthalpy 
  120499    1805.1818    99.680075   -78116.148   -82701.474   -78092.331 
  126671    1808.5058    501.03552   -78202.714   -82796.483    -78083.34 
Loop time of 825.061 on 1 procs for 6172 steps with 19652 atoms

Performance: 0.646 ns/day, 37.133 hours/ns, 7.481 timesteps/s
100.0% CPU use with 1 MPI tasks x no OpenMP threads

MPI task timing breakdown:
Section |  min time  |  avg time  |  max time  |%varavg| %total
---------------------------------------------------------------
Pair    | 438.32     | 438.32     | 438.32     |   0.0 | 53.13
Neigh   | 370.51     | 370.51     | 370.51     |   0.0 | 44.91
Comm    | 6.0867     | 6.0867     | 6.0867     |   0.0 |  0.74
Output  | 0.00020504 | 0.00020504 | 0.00020504 |   0.0 |  0.00
Modify  | 8.0314     | 8.0314     | 8.0314     |   0.0 |  0.97
Other   |            | 2.115      |            |       |  0.26

Nlocal:    19652 ave 19652 max 19652 min
Histogram: 1 0 0 0 0 0 0 0 0 0
Nghost:    17289 ave 17289 max 17289 min
Histogram: 1 0 0 0 0 0 0 0 0 0
Neighs:    1.29378e+06 ave 1.29378e+06 max 1.29378e+06 min
Histogram: 1 0 0 0 0 0 0 0 0 0

Total # of neighbors = 1293780
Ave neighs/atom = 65.8345
Neighbor list builds = 6172
Dangerous builds not checked
Setting up Verlet run ...
  Unit style    : metal
  Current step  : 126671
  Time step     : 0.001
Per MPI rank memory allocation (min/avg/max) = 18.2 | 18.2 | 18.2 Mbytes
Step Temp Press TotEng PotEng Enthalpy 
  126671    1808.5058    501.03552   -78202.714   -82796.483    -78083.34 
  126673    1807.0812    527.19469   -78202.716   -82792.867    -78077.11 
  127166    1760.8774    183.93572   -78311.899   -82784.688   -78268.036 
Loop time of 68.2889 on 1 procs for 495 steps with 19652 atoms

Performance: 0.626 ns/day, 38.322 hours/ns, 7.249 timesteps/s
99.9% CPU use with 1 MPI tasks x no OpenMP threads

MPI task timing breakdown:
Section |  min time  |  avg time  |  max time  |%varavg| %total
---------------------------------------------------------------
Pair    | 36.363     | 36.363     | 36.363     |   0.0 | 53.25
Neigh   | 30.453     | 30.453     | 30.453     |   0.0 | 44.59
Comm    | 0.50811    | 0.50811    | 0.50811    |   0.0 |  0.74
Output  | 0.068628   | 0.068628   | 0.068628   |   0.0 |  0.10
Modify  | 0.71074    | 0.71074    | 0.71074    |   0.0 |  1.04
Other   |            | 0.1864     |            |       |  0.27

Nlocal:    19652 ave 19652 max 19652 min
Histogram: 1 0 0 0 0 0 0 0 0 0
Nghost:    17275 ave 17275 max 17275 min
Histogram: 1 0 0 0 0 0 0 0 0 0
Neighs:    1.29302e+06 ave 1.29302e+06 max 1.29302e+06 min
Histogram: 1 0 0 0 0 0 0 0 0 0

Total # of neighbors = 1293023
Ave neighs/atom = 65.796
Neighbor list builds = 495
Dangerous builds not checked
Setting up Verlet run ...
  Unit style    : metal
  Current step  : 127166
  Time step     : 0.001
Per MPI rank memory allocation (min/avg/max) = 18.2 | 18.2 | 18.2 Mbytes
Step Temp Press TotEng PotEng Enthalpy 
  127166    1760.8774    183.93572   -78311.899   -82784.688   -78268.036 
  133338    1745.1299    -319.6269   -78394.035   -82826.824   -78470.172 
Loop time of 824.562 on 1 procs for 6172 steps with 19652 atoms

Performance: 0.647 ns/day, 37.110 hours/ns, 7.485 timesteps/s
100.0% CPU use with 1 MPI tasks x no OpenMP threads

MPI task timing breakdown:
Section |  min time  |  avg time  |  max time  |%varavg| %total
---------------------------------------------------------------
Pair    | 439.24     | 439.24     | 439.24     |   0.0 | 53.27
Neigh   | 369.3      | 369.3      | 369.3      |   0.0 | 44.79
Comm    | 6.0146     | 6.0146     | 6.0146     |   0.0 |  0.73
Output  | 0.00017905 | 0.00017905 | 0.00017905 |   0.0 |  0.00
Modify  | 7.9009     | 7.9009     | 7.9009     |   0.0 |  0.96
Other   |            | 2.105      |            |       |  0.26

Nlocal:    19652 ave 19652 max 19652 min
Histogram: 1 0 0 0 0 0 0 0 0 0
Nghost:    17413 ave 17413 max 17413 min
Histogram: 1 0 0 0 0 0 0 0 0 0
Neighs:    1.29374e+06 ave 1.29374e+06 max 1.29374e+06 min
Histogram: 1 0 0 0 0 0 0 0 0 0

Total # of neighbors = 1293735
Ave neighs/atom = 65.8322
Neighbor list builds = 6172
Dangerous builds not checked
Setting up Verlet run ...
  Unit style    : metal
  Current step  : 133338
  Time step     : 0.001
Per MPI rank memory allocation (min/avg/max) = 18.2 | 18.2 | 18.2 Mbytes
Step Temp Press TotEng PotEng Enthalpy 
  133338    1745.1299    -319.6269   -78394.035   -82826.824   -78470.172 
  133340    1745.0566   -362.65713   -78394.035   -82826.637   -78480.422 
  133833    1704.5234    426.25386   -78565.925    -82895.57   -78464.456 
Loop time of 66.1716 on 1 procs for 495 steps with 19652 atoms

Performance: 0.646 ns/day, 37.133 hours/ns, 7.481 timesteps/s
100.0% CPU use with 1 MPI tasks x no OpenMP threads

MPI task timing breakdown:
Section |  min time  |  avg time  |  max time  |%varavg| %total
---------------------------------------------------------------
Pair    | 35.105     | 35.105     | 35.105     |   0.0 | 53.05
Neigh   | 29.686     | 29.686     | 29.686     |   0.0 | 44.86
Comm    | 0.48538    | 0.48538    | 0.48538    |   0.0 |  0.73
Output  | 0.053097   | 0.053097   | 0.053097   |   0.0 |  0.08
Modify  | 0.66558    | 0.66558    | 0.66558    |   0.0 |  1.01
Other   |            | 0.1765     |            |       |  0.27

Nlocal:    19652 ave 19652 max 19652 min
Histogram: 1 0 0 0 0 0 0 0 0 0
Nghost:    17336 ave 17336 max 17336 min
Histogram: 1 0 0 0 0 0 0 0 0 0
Neighs:    1.29481e+06 ave 1.29481e+06 max 1.29481e+06 min
Histogram: 1 0 0 0 0 0 0 0 0 0

Total # of neighbors = 1294813
Ave neighs/atom = 65.8871
Neighbor list builds = 495
Dangerous builds not checked
Setting up Verlet run ...
  Unit style    : metal
  Current step  : 133833
  Time step     : 0.001
Per MPI rank memory allocation (min/avg/max) = 18.2 | 18.2 | 18.2 Mbytes
Step Temp Press TotEng PotEng Enthalpy 
  133833    1704.5234    426.25386   -78565.925    -82895.57   -78464.456 
  140005    1704.7806   -217.04782   -78634.604   -82964.902   -78686.315 
Loop time of 833.362 on 1 procs for 6172 steps with 19652 atoms

Performance: 0.640 ns/day, 37.506 hours/ns, 7.406 timesteps/s
100.0% CPU use with 1 MPI tasks x no OpenMP threads

MPI task timing breakdown:
Section |  min time  |  avg time  |  max time  |%varavg| %total
---------------------------------------------------------------
Pair    | 444.29     | 444.29     | 444.29     |   0.0 | 53.31
Neigh   | 372.66     | 372.66     | 372.66     |   0.0 | 44.72
Comm    | 6.1528     | 6.1528     | 6.1528     |   0.0 |  0.74
Output  | 0.00016809 | 0.00016809 | 0.00016809 |   0.0 |  0.00
Modify  | 8.1091     | 8.1091     | 8.1091     |   0.0 |  0.97
Other   |            | 2.152      |            |       |  0.26

Nlocal:    19652 ave 19652 max 19652 min
Histogram: 1 0 0 0 0 0 0 0 0 0
Nghost:    17337 ave 17337 max 17337 min
Histogram: 1 0 0 0 0 0 0 0 0 0
Neighs:    1.29364e+06 ave 1.29364e+06 max 1.29364e+06 min
Histogram: 1 0 0 0 0 0 0 0 0 0

Total # of neighbors = 1293641
Ave neighs/atom = 65.8274
Neighbor list builds = 6172
Dangerous builds not checked
Setting up Verlet run ...
  Unit style    : metal
  Current step  : 140005
  Time step     : 0.001
Per MPI rank memory allocation (min/avg/max) = 18.2 | 18.2 | 18.2 Mbytes
Step Temp Press TotEng PotEng Enthalpy 
  140005    1704.7806   -217.04782   -78634.604   -82964.902   -78686.315 
  140007    1702.4805    -216.0096   -78634.594   -82959.049   -78686.057 
  140500    1661.0921    877.51207   -78814.417   -83033.742   -78606.197 
Loop time of 64.0579 on 1 procs for 495 steps with 19652 atoms

Performance: 0.668 ns/day, 35.947 hours/ns, 7.727 timesteps/s
99.9% CPU use with 1 MPI tasks x no OpenMP threads

MPI task timing breakdown:
Section |  min time  |  avg time  |  max time  |%varavg| %total
---------------------------------------------------------------
Pair    | 34.057     | 34.057     | 34.057     |   0.0 | 53.17
Neigh   | 28.713     | 28.713     | 28.713     |   0.0 | 44.82
Comm    | 0.46103    | 0.46103    | 0.46103    |   0.0 |  0.72
Output  | 0.050026   | 0.050026   | 0.050026   |   0.0 |  0.08
Modify  | 0.61225    | 0.61225    | 0.61225    |   0.0 |  0.96
Other   |            | 0.1644     |            |       |  0.26

Nlocal:    19652 ave 19652 max 19652 min
Histogram: 1 0 0 0 0 0 0 0 0 0
Nghost:    17301 ave 17301 max 17301 min
Histogram: 1 0 0 0 0 0 0 0 0 0
Neighs:    1.29916e+06 ave 1.29916e+06 max 1.29916e+06 min
Histogram: 1 0 0 0 0 0 0 0 0 0

Total # of neighbors = 1299158
Ave neighs/atom = 66.1082
Neighbor list builds = 495
Dangerous builds not checked
Setting up Verlet run ...
  Unit style    : metal
  Current step  : 140500
  Time step     : 0.001
Per MPI rank memory allocation (min/avg/max) = 18.2 | 18.2 | 18.2 Mbytes
Step Temp Press TotEng PotEng Enthalpy 
  140500    1661.0921    877.51207   -78814.417   -83033.742   -78606.197 
  146672    1647.1115   -1154.9227   -78906.262   -83090.075   -79180.701 
Loop time of 858.014 on 1 procs for 6172 steps with 19652 atoms

Performance: 0.622 ns/day, 38.616 hours/ns, 7.193 timesteps/s
99.9% CPU use with 1 MPI tasks x no OpenMP threads

MPI task timing breakdown:
Section |  min time  |  avg time  |  max time  |%varavg| %total
---------------------------------------------------------------
Pair    | 457.48     | 457.48     | 457.48     |   0.0 | 53.32
Neigh   | 383.5      | 383.5      | 383.5      |   0.0 | 44.70
Comm    | 6.3493     | 6.3493     | 6.3493     |   0.0 |  0.74
Output  | 0.00026822 | 0.00026822 | 0.00026822 |   0.0 |  0.00
Modify  | 8.4521     | 8.4521     | 8.4521     |   0.0 |  0.99
Other   |            | 2.231      |            |       |  0.26

Nlocal:    19652 ave 19652 max 19652 min
Histogram: 1 0 0 0 0 0 0 0 0 0
Nghost:    17325 ave 17325 max 17325 min
Histogram: 1 0 0 0 0 0 0 0 0 0
Neighs:    1.29776e+06 ave 1.29776e+06 max 1.29776e+06 min
Histogram: 1 0 0 0 0 0 0 0 0 0

Total # of neighbors = 1297764
Ave neighs/atom = 66.0372
Neighbor list builds = 6172
Dangerous builds not checked
Setting up Verlet run ...
  Unit style    : metal
  Current step  : 146672
  Time step     : 0.001
Per MPI rank memory allocation (min/avg/max) = 18.2 | 18.2 | 18.2 Mbytes
Step Temp Press TotEng PotEng Enthalpy 
  146672    1647.1115   -1154.9227   -78906.262   -83090.075   -79180.701 
  146674    1646.1631   -1131.7972   -78906.251   -83087.655   -79175.194 
  147167    1611.6567   -744.82833   -79054.674   -83148.429   -79231.545 
Loop time of 69.8897 on 1 procs for 495 steps with 19652 atoms

Performance: 0.612 ns/day, 39.220 hours/ns, 7.083 timesteps/s
99.6% CPU use with 1 MPI tasks x no OpenMP threads

MPI task timing breakdown:
Section |  min time  |  avg time  |  max time  |%varavg| %total
---------------------------------------------------------------
Pair    | 37.299     | 37.299     | 37.299     |   0.0 | 53.37
Neigh   | 31.079     | 31.079     | 31.079     |   0.0 | 44.47
Comm    | 0.5248     | 0.5248     | 0.5248     |   0.0 |  0.75
Output  | 0.065543   | 0.065543   | 0.065543   |   0.0 |  0.09
Modify  | 0.73358    | 0.73358    | 0.73358    |   0.0 |  1.05
Other   |            | 0.1884     |            |       |  0.27

Nlocal:    19652 ave 19652 max 19652 min
Histogram: 1 0 0 0 0 0 0 0 0 0
Nghost:    17353 ave 17353 max 17353 min
Histogram: 1 0 0 0 0 0 0 0 0 0
Neighs:    1.2981e+06 ave 1.2981e+06 max 1.2981e+06 min
Histogram: 1 0 0 0 0 0 0 0 0 0

Total # of neighbors = 1298104
Ave neighs/atom = 66.0545
Neighbor list builds = 495
Dangerous builds not checked
Setting up Verlet run ...
  Unit style    : metal
  Current step  : 147167
  Time step     : 0.001
Per MPI rank memory allocation (min/avg/max) = 18.2 | 18.2 | 18.2 Mbytes
Step Temp Press TotEng PotEng Enthalpy 
  147167    1611.6567   -744.82833   -79054.674   -83148.429   -79231.545 
  153339     1602.832   -435.85518    -79122.47   -83193.809   -79225.829 
Loop time of 942.63 on 1 procs for 6172 steps with 19652 atoms

Performance: 0.566 ns/day, 42.424 hours/ns, 6.548 timesteps/s
99.9% CPU use with 1 MPI tasks x no OpenMP threads

MPI task timing breakdown:
Section |  min time  |  avg time  |  max time  |%varavg| %total
---------------------------------------------------------------
Pair    | 510.59     | 510.59     | 510.59     |   0.0 | 54.17
Neigh   | 413.58     | 413.58     | 413.58     |   0.0 | 43.87
Comm    | 6.8965     | 6.8965     | 6.8965     |   0.0 |  0.73
Output  | 0.00024295 | 0.00024295 | 0.00024295 |   0.0 |  0.00
Modify  | 9.2279     | 9.2279     | 9.2279     |   0.0 |  0.98
Other   |            | 2.336      |            |       |  0.25

Nlocal:    19652 ave 19652 max 19652 min
Histogram: 1 0 0 0 0 0 0 0 0 0
Nghost:    17354 ave 17354 max 17354 min
Histogram: 1 0 0 0 0 0 0 0 0 0
Neighs:    1.29978e+06 ave 1.29978e+06 max 1.29978e+06 min
Histogram: 1 0 0 0 0 0 0 0 0 0

Total # of neighbors = 1299778
Ave neighs/atom = 66.1397
Neighbor list builds = 6172
Dangerous builds not checked
Setting up Verlet run ...
  Unit style    : metal
  Current step  : 153339
  Time step     : 0.001
Per MPI rank memory allocation (min/avg/max) = 18.2 | 18.2 | 18.2 Mbytes
Step Temp Press TotEng PotEng Enthalpy 
  153339     1602.832   -435.85518    -79122.47   -83193.809   -79225.829 
  153341    1603.0112   -475.89648   -79122.471   -83194.265   -79235.326 
  153834    1563.5751   -268.86166   -79292.525   -83264.148   -79356.173 
Loop time of 70.828 on 1 procs for 495 steps with 19652 atoms

Performance: 0.604 ns/day, 39.746 hours/ns, 6.989 timesteps/s
99.9% CPU use with 1 MPI tasks x no OpenMP threads

MPI task timing breakdown:
Section |  min time  |  avg time  |  max time  |%varavg| %total
---------------------------------------------------------------
Pair    | 38.088     | 38.088     | 38.088     |   0.0 | 53.78
Neigh   | 31.277     | 31.277     | 31.277     |   0.0 | 44.16
Comm    | 0.52563    | 0.52563    | 0.52563    |   0.0 |  0.74
Output  | 0.047394   | 0.047394   | 0.047394   |   0.0 |  0.07
Modify  | 0.70624    | 0.70624    | 0.70624    |   0.0 |  1.00
Other   |            | 0.1841     |            |       |  0.26

Nlocal:    19652 ave 19652 max 19652 min
Histogram: 1 0 0 0 0 0 0 0 0 0
Nghost:    17382 ave 17382 max 17382 min
Histogram: 1 0 0 0 0 0 0 0 0 0
Neighs:    1.30259e+06 ave 1.30259e+06 max 1.30259e+06 min
Histogram: 1 0 0 0 0 0 0 0 0 0

Total # of neighbors = 1302590
Ave neighs/atom = 66.2828
Neighbor list builds = 495
Dangerous builds not checked
Setting up Verlet run ...
  Unit style    : metal
  Current step  : 153834
  Time step     : 0.001
Per MPI rank memory allocation (min/avg/max) = 18.2 | 18.2 | 18.2 Mbytes
Step Temp Press TotEng PotEng Enthalpy 
  153834    1563.5751   -268.86166   -79292.525   -83264.148   -79356.173 
  160006    1545.2998    104.97005   -79360.652   -83285.854   -79335.813 
Loop time of 908.46 on 1 procs for 6172 steps with 19652 atoms

Performance: 0.587 ns/day, 40.886 hours/ns, 6.794 timesteps/s
99.8% CPU use with 1 MPI tasks x no OpenMP threads

MPI task timing breakdown:
Section |  min time  |  avg time  |  max time  |%varavg| %total
---------------------------------------------------------------
Pair    | 489.42     | 489.42     | 489.42     |   0.0 | 53.87
Neigh   | 401.2      | 401.2      | 401.2      |   0.0 | 44.16
Comm    | 6.67       | 6.67       | 6.67       |   0.0 |  0.73
Output  | 0.00016499 | 0.00016499 | 0.00016499 |   0.0 |  0.00
Modify  | 8.8971     | 8.8971     | 8.8971     |   0.0 |  0.98
Other   |            | 2.266      |            |       |  0.25

Nlocal:    19652 ave 19652 max 19652 min
Histogram: 1 0 0 0 0 0 0 0 0 0
Nghost:    17352 ave 17352 max 17352 min
Histogram: 1 0 0 0 0 0 0 0 0 0
Neighs:    1.30299e+06 ave 1.30299e+06 max 1.30299e+06 min
Histogram: 1 0 0 0 0 0 0 0 0 0

Total # of neighbors = 1302991
Ave neighs/atom = 66.3032
Neighbor list builds = 6172
Dangerous builds not checked
Setting up Verlet run ...
  Unit style    : metal
  Current step  : 160006
  Time step     : 0.001
Per MPI rank memory allocation (min/avg/max) = 18.2 | 18.2 | 18.2 Mbytes
Step Temp Press TotEng PotEng Enthalpy 
  160006    1545.2998    104.97005   -79360.652   -83285.854   -79335.813 
  160008    1543.4792    151.43473   -79360.638   -83281.215   -79324.803 
  160501    1518.9168    297.68027   -79533.844   -83392.031   -79463.464 
Loop time of 65.5441 on 1 procs for 495 steps with 19652 atoms

Performance: 0.653 ns/day, 36.781 hours/ns, 7.552 timesteps/s
99.9% CPU use with 1 MPI tasks x no OpenMP threads

MPI task timing breakdown:
Section |  min time  |  avg time  |  max time  |%varavg| %total
---------------------------------------------------------------
Pair    | 34.898     | 34.898     | 34.898     |   0.0 | 53.24
Neigh   | 29.282     | 29.282     | 29.282     |   0.0 | 44.68
Comm    | 0.48723    | 0.48723    | 0.48723    |   0.0 |  0.74
Output  | 0.053962   | 0.053962   | 0.053962   |   0.0 |  0.08
Modify  | 0.65393    | 0.65393    | 0.65393    |   0.0 |  1.00
Other   |            | 0.1685     |            |       |  0.26

Nlocal:    19652 ave 19652 max 19652 min
Histogram: 1 0 0 0 0 0 0 0 0 0
Nghost:    17300 ave 17300 max 17300 min
Histogram: 1 0 0 0 0 0 0 0 0 0
Neighs:    1.30436e+06 ave 1.30436e+06 max 1.30436e+06 min
Histogram: 1 0 0 0 0 0 0 0 0 0

Total # of neighbors = 1304365
Ave neighs/atom = 66.3731
Neighbor list builds = 495
Dangerous builds not checked
Setting up Verlet run ...
  Unit style    : metal
  Current step  : 160501
  Time step     : 0.001
Per MPI rank memory allocation (min/avg/max) = 18.2 | 18.2 | 18.2 Mbytes
Step Temp Press TotEng PotEng Enthalpy 
  160501    1518.9168    297.68027   -79533.844   -83392.031   -79463.464 
  166673    1507.5528    568.40037   -79559.461   -83388.782   -79425.241 
Loop time of 954.158 on 1 procs for 6172 steps with 19652 atoms

Performance: 0.559 ns/day, 42.943 hours/ns, 6.469 timesteps/s
99.9% CPU use with 1 MPI tasks x no OpenMP threads

MPI task timing breakdown:
Section |  min time  |  avg time  |  max time  |%varavg| %total
---------------------------------------------------------------
Pair    | 517.15     | 517.15     | 517.15     |   0.0 | 54.20
Neigh   | 418.06     | 418.06     | 418.06     |   0.0 | 43.82
Comm    | 7.0592     | 7.0592     | 7.0592     |   0.0 |  0.74
Output  | 0.00023103 | 0.00023103 | 0.00023103 |   0.0 |  0.00
Modify  | 9.465      | 9.465      | 9.465      |   0.0 |  0.99
Other   |            | 2.421      |            |       |  0.25

Nlocal:    19652 ave 19652 max 19652 min
Histogram: 1 0 0 0 0 0 0 0 0 0
Nghost:    17406 ave 17406 max 17406 min
Histogram: 1 0 0 0 0 0 0 0 0 0
Neighs:    1.30561e+06 ave 1.30561e+06 max 1.30561e+06 min
Histogram: 1 0 0 0 0 0 0 0 0 0

Total # of neighbors = 1305608
Ave neighs/atom = 66.4364
Neighbor list builds = 6172
Dangerous builds not checked
Setting up Verlet run ...
  Unit style    : metal
  Current step  : 166673
  Time step     : 0.001
Per MPI rank memory allocation (min/avg/max) = 18.2 | 18.2 | 18.2 Mbytes
Step Temp Press TotEng PotEng Enthalpy 
  166673    1507.5528    568.40037   -79559.461   -83388.782   -79425.241 
  166675    1506.8094    573.39816   -79559.466   -83386.899   -79424.066 
  167168    1468.3808    381.49696   -79796.643   -83526.464   -79706.682 
Loop time of 69.0653 on 1 procs for 495 steps with 19652 atoms

Performance: 0.619 ns/day, 38.757 hours/ns, 7.167 timesteps/s
99.9% CPU use with 1 MPI tasks x no OpenMP threads

MPI task timing breakdown:
Section |  min time  |  avg time  |  max time  |%varavg| %total
---------------------------------------------------------------
Pair    | 37.092     | 37.092     | 37.092     |   0.0 | 53.71
Neigh   | 30.488     | 30.488     | 30.488     |   0.0 | 44.14
Comm    | 0.52177    | 0.52177    | 0.52177    |   0.0 |  0.76
Output  | 0.065069   | 0.065069   | 0.065069   |   0.0 |  0.09
Modify  | 0.7146     | 0.7146     | 0.7146     |   0.0 |  1.03
Other   |            | 0.184      |            |       |  0.27

Nlocal:    19652 ave 19652 max 19652 min
Histogram: 1 0 0 0 0 0 0 0 0 0
Nghost:    17400 ave 17400 max 17400 min
Histogram: 1 0 0 0 0 0 0 0 0 0
Neighs:    1.30746e+06 ave 1.30746e+06 max 1.30746e+06 min
Histogram: 1 0 0 0 0 0 0 0 0 0

Total # of neighbors = 1307463
Ave neighs/atom = 66.5308
Neighbor list builds = 495
Dangerous builds not checked
Setting up Verlet run ...
  Unit style    : metal
  Current step  : 167168
  Time step     : 0.001
Per MPI rank memory allocation (min/avg/max) = 18.2 | 18.2 | 18.2 Mbytes
Step Temp Press TotEng PotEng Enthalpy 
  167168    1468.3808    381.49696   -79796.643   -83526.464   -79706.682 
  173340    1463.0426    403.05432   -79834.106   -83550.367   -79739.056 
Loop time of 974.57 on 1 procs for 6172 steps with 19652 atoms

Performance: 0.547 ns/day, 43.862 hours/ns, 6.333 timesteps/s
99.8% CPU use with 1 MPI tasks x no OpenMP threads

MPI task timing breakdown:
Section |  min time  |  avg time  |  max time  |%varavg| %total
---------------------------------------------------------------
Pair    | 530.05     | 530.05     | 530.05     |   0.0 | 54.39
Neigh   | 425.26     | 425.26     | 425.26     |   0.0 | 43.64
Comm    | 7.1859     | 7.1859     | 7.1859     |   0.0 |  0.74
Output  | 0.00023103 | 0.00023103 | 0.00023103 |   0.0 |  0.00
Modify  | 9.6072     | 9.6072     | 9.6072     |   0.0 |  0.99
Other   |            | 2.466      |            |       |  0.25

Nlocal:    19652 ave 19652 max 19652 min
Histogram: 1 0 0 0 0 0 0 0 0 0
Nghost:    17421 ave 17421 max 17421 min
Histogram: 1 0 0 0 0 0 0 0 0 0
Neighs:    1.30704e+06 ave 1.30704e+06 max 1.30704e+06 min
Histogram: 1 0 0 0 0 0 0 0 0 0

Total # of neighbors = 1307042
Ave neighs/atom = 66.5094
Neighbor list builds = 6172
Dangerous builds not checked
Setting up Verlet run ...
  Unit style    : metal
  Current step  : 173340
  Time step     : 0.001
Per MPI rank memory allocation (min/avg/max) = 18.2 | 18.2 | 18.2 Mbytes
Step Temp Press TotEng PotEng Enthalpy 
  173340    1463.0426    403.05432   -79834.106   -83550.367   -79739.056 
  173342    1464.4354    349.30559    -79834.12    -83553.92   -79751.746 
  173835    1419.8747   -393.54667   -80042.651   -83649.263   -80135.402 
Loop time of 78.4276 on 1 procs for 495 steps with 19652 atoms

Performance: 0.545 ns/day, 44.011 hours/ns, 6.312 timesteps/s
99.9% CPU use with 1 MPI tasks x no OpenMP threads

MPI task timing breakdown:
Section |  min time  |  avg time  |  max time  |%varavg| %total
---------------------------------------------------------------
Pair    | 42.62      | 42.62      | 42.62      |   0.0 | 54.34
Neigh   | 34.154     | 34.154     | 34.154     |   0.0 | 43.55
Comm    | 0.59207    | 0.59207    | 0.59207    |   0.0 |  0.75
Output  | 0.061103   | 0.061103   | 0.061103   |   0.0 |  0.08
Modify  | 0.79557    | 0.79557    | 0.79557    |   0.0 |  1.01
Other   |            | 0.2049     |            |       |  0.26

Nlocal:    19652 ave 19652 max 19652 min
Histogram: 1 0 0 0 0 0 0 0 0 0
Nghost:    17342 ave 17342 max 17342 min
Histogram: 1 0 0 0 0 0 0 0 0 0
Neighs:    1.30821e+06 ave 1.30821e+06 max 1.30821e+06 min
Histogram: 1 0 0 0 0 0 0 0 0 0

Total # of neighbors = 1308214
Ave neighs/atom = 66.569
Neighbor list builds = 495
Dangerous builds not checked
Setting up Verlet run ...
  Unit style    : metal
  Current step  : 173835
  Time step     : 0.001
Per MPI rank memory allocation (min/avg/max) = 18.2 | 18.2 | 18.2 Mbytes
Step Temp Press TotEng PotEng Enthalpy 
  173835    1419.8747   -393.54667   -80042.651   -83649.263   -80135.402 
  180007    1386.4206   -340.76311   -80168.609   -83690.244   -80248.857 
Loop time of 1000.96 on 1 procs for 6172 steps with 19652 atoms

Performance: 0.533 ns/day, 45.049 hours/ns, 6.166 timesteps/s
99.9% CPU use with 1 MPI tasks x no OpenMP threads

MPI task timing breakdown:
Section |  min time  |  avg time  |  max time  |%varavg| %total
---------------------------------------------------------------
Pair    | 540.21     | 540.21     | 540.21     |   0.0 | 53.97
Neigh   | 441.05     | 441.05     | 441.05     |   0.0 | 44.06
Comm    | 7.3673     | 7.3673     | 7.3673     |   0.0 |  0.74
Output  | 0.00020409 | 0.00020409 | 0.00020409 |   0.0 |  0.00
Modify  | 9.8006     | 9.8006     | 9.8006     |   0.0 |  0.98
Other   |            | 2.536      |            |       |  0.25

Nlocal:    19652 ave 19652 max 19652 min
Histogram: 1 0 0 0 0 0 0 0 0 0
Nghost:    17375 ave 17375 max 17375 min
Histogram: 1 0 0 0 0 0 0 0 0 0
Neighs:    1.3097e+06 ave 1.3097e+06 max 1.3097e+06 min
Histogram: 1 0 0 0 0 0 0 0 0 0

Total # of neighbors = 1309702
Ave neighs/atom = 66.6447
Neighbor list builds = 6172
Dangerous builds not checked
Setting up Verlet run ...
  Unit style    : metal
  Current step  : 180007
  Time step     : 0.001
Per MPI rank memory allocation (min/avg/max) = 18.2 | 18.2 | 18.2 Mbytes
Step Temp Press TotEng PotEng Enthalpy 
  180007    1386.4206   -340.76311   -80168.609   -83690.244   -80248.857 
  180009    1388.5368   -352.70332   -80168.605   -83695.615   -80251.664 
  180502    1361.9654   -169.12772   -80305.231   -83764.747   -80345.009 
Loop time of 85.971 on 1 procs for 495 steps with 19652 atoms

Performance: 0.497 ns/day, 48.244 hours/ns, 5.758 timesteps/s
94.4% CPU use with 1 MPI tasks x no OpenMP threads

MPI task timing breakdown:
Section |  min time  |  avg time  |  max time  |%varavg| %total
---------------------------------------------------------------
Pair    | 45.74      | 45.74      | 45.74      |   0.0 | 53.20
Neigh   | 38.454     | 38.454     | 38.454     |   0.0 | 44.73
Comm    | 0.63559    | 0.63559    | 0.63559    |   0.0 |  0.74
Output  | 0.066899   | 0.066899   | 0.066899   |   0.0 |  0.08
Modify  | 0.85174    | 0.85174    | 0.85174    |   0.0 |  0.99
Other   |            | 0.2231     |            |       |  0.26

Nlocal:    19652 ave 19652 max 19652 min
Histogram: 1 0 0 0 0 0 0 0 0 0
Nghost:    17388 ave 17388 max 17388 min
Histogram: 1 0 0 0 0 0 0 0 0 0
Neighs:    1.31027e+06 ave 1.31027e+06 max 1.31027e+06 min
Histogram: 1 0 0 0 0 0 0 0 0 0

Total # of neighbors = 1310273
Ave neighs/atom = 66.6738
Neighbor list builds = 495
Dangerous builds not checked
Setting up Verlet run ...
  Unit style    : metal
  Current step  : 180502
  Time step     : 0.001
Per MPI rank memory allocation (min/avg/max) = 18.2 | 18.2 | 18.2 Mbytes
Step Temp Press TotEng PotEng Enthalpy 
  180502    1361.9654   -169.12772   -80305.231   -83764.747   -80345.009 
  186674    1346.0605    7.4248801   -80396.066   -83815.182   -80394.322 
Loop time of 1184.21 on 1 procs for 6172 steps with 19652 atoms

Performance: 0.450 ns/day, 53.296 hours/ns, 5.212 timesteps/s
89.1% CPU use with 1 MPI tasks x no OpenMP threads

MPI task timing breakdown:
Section |  min time  |  avg time  |  max time  |%varavg| %total
---------------------------------------------------------------
Pair    | 626.89     | 626.89     | 626.89     |   0.0 | 52.94
Neigh   | 534.41     | 534.41     | 534.41     |   0.0 | 45.13
Comm    | 8.5734     | 8.5734     | 8.5734     |   0.0 |  0.72
Output  | 0.00024796 | 0.00024796 | 0.00024796 |   0.0 |  0.00
Modify  | 11.431     | 11.431     | 11.431     |   0.0 |  0.97
Other   |            | 2.892      |            |       |  0.24

Nlocal:    19652 ave 19652 max 19652 min
Histogram: 1 0 0 0 0 0 0 0 0 0
Nghost:    17382 ave 17382 max 17382 min
Histogram: 1 0 0 0 0 0 0 0 0 0
Neighs:    1.31298e+06 ave 1.31298e+06 max 1.31298e+06 min
Histogram: 1 0 0 0 0 0 0 0 0 0

Total # of neighbors = 1312982
Ave neighs/atom = 66.8116
Neighbor list builds = 6172
Dangerous builds not checked
Setting up Verlet run ...
  Unit style    : metal
  Current step  : 186674
  Time step     : 0.001
Per MPI rank memory allocation (min/avg/max) = 18.2 | 18.2 | 18.2 Mbytes
Step Temp Press TotEng PotEng Enthalpy 
  186674    1346.0605    7.4248801   -80396.066   -83815.182   -80394.322 
  186676    1345.1047    25.670202    -80396.06   -83812.749   -80390.031 
  187169    1321.0596    333.23638   -80560.356   -83915.967   -80482.192 
Loop time of 93.8591 on 1 procs for 495 steps with 19652 atoms

Performance: 0.456 ns/day, 52.671 hours/ns, 5.274 timesteps/s
86.5% CPU use with 1 MPI tasks x no OpenMP threads

MPI task timing breakdown:
Section |  min time  |  avg time  |  max time  |%varavg| %total
---------------------------------------------------------------
Pair    | 48.784     | 48.784     | 48.784     |   0.0 | 51.98
Neigh   | 43.14      | 43.14      | 43.14      |   0.0 | 45.96
Comm    | 0.7057     | 0.7057     | 0.7057     |   0.0 |  0.75
Output  | 0.067793   | 0.067793   | 0.067793   |   0.0 |  0.07
Modify  | 0.9191     | 0.9191     | 0.9191     |   0.0 |  0.98
Other   |            | 0.2424     |            |       |  0.26

Nlocal:    19652 ave 19652 max 19652 min
Histogram: 1 0 0 0 0 0 0 0 0 0
Nghost:    17408 ave 17408 max 17408 min
Histogram: 1 0 0 0 0 0 0 0 0 0
Neighs:    1.31491e+06 ave 1.31491e+06 max 1.31491e+06 min
Histogram: 1 0 0 0 0 0 0 0 0 0

Total # of neighbors = 1314911
Ave neighs/atom = 66.9098
Neighbor list builds = 495
Dangerous builds not checked
Setting up Verlet run ...
  Unit style    : metal
  Current step  : 187169
  Time step     : 0.001
Per MPI rank memory allocation (min/avg/max) = 18.2 | 18.2 | 18.2 Mbytes
Step Temp Press TotEng PotEng Enthalpy 
  187169    1321.0596    333.23638   -80560.356   -83915.967   -80482.192 
  193341    1307.4443   -265.61176   -80685.334   -84006.362   -80747.708 
Loop time of 1230.79 on 1 procs for 6172 steps with 19652 atoms

Performance: 0.433 ns/day, 55.393 hours/ns, 5.015 timesteps/s
86.4% CPU use with 1 MPI tasks x no OpenMP threads

MPI task timing breakdown:
Section |  min time  |  avg time  |  max time  |%varavg| %total
---------------------------------------------------------------
Pair    | 648.78     | 648.78     | 648.78     |   0.0 | 52.71
Neigh   | 558.51     | 558.51     | 558.51     |   0.0 | 45.38
Comm    | 8.8125     | 8.8125     | 8.8125     |   0.0 |  0.72
Output  | 0.00021505 | 0.00021505 | 0.00021505 |   0.0 |  0.00
Modify  | 11.684     | 11.684     | 11.684     |   0.0 |  0.95
Other   |            | 3.004      |            |       |  0.24

Nlocal:    19652 ave 19652 max 19652 min
Histogram: 1 0 0 0 0 0 0 0 0 0
Nghost:    17370 ave 17370 max 17370 min
Histogram: 1 0 0 0 0 0 0 0 0 0
Neighs:    1.31297e+06 ave 1.31297e+06 max 1.31297e+06 min
Histogram: 1 0 0 0 0 0 0 0 0 0

Total # of neighbors = 1312972
Ave neighs/atom = 66.8111
Neighbor list builds = 6172
Dangerous builds not checked
Setting up Verlet run ...
  Unit style    : metal
  Current step  : 193341
  Time step     : 0.001
Per MPI rank memory allocation (min/avg/max) = 18.2 | 18.2 | 18.2 Mbytes
Step Temp Press TotEng PotEng Enthalpy 
  193341    1307.4443   -265.61176   -80685.334   -84006.362   -80747.708 
  193343    1306.6762   -230.92814   -80685.342   -84004.419   -80739.571 
  193836    1248.0513    160.70949   -80854.203   -84024.366   -80816.519 
Loop time of 96.5198 on 1 procs for 495 steps with 19652 atoms

Performance: 0.443 ns/day, 54.164 hours/ns, 5.128 timesteps/s
86.5% CPU use with 1 MPI tasks x no OpenMP threads

MPI task timing breakdown:
Section |  min time  |  avg time  |  max time  |%varavg| %total
---------------------------------------------------------------
Pair    | 50.159     | 50.159     | 50.159     |   0.0 | 51.97
Neigh   | 44.338     | 44.338     | 44.338     |   0.0 | 45.94
Comm    | 0.66907    | 0.66907    | 0.66907    |   0.0 |  0.69
Output  | 0.15965    | 0.15965    | 0.15965    |   0.0 |  0.17
Modify  | 0.97327    | 0.97327    | 0.97327    |   0.0 |  1.01
Other   |            | 0.2211     |            |       |  0.23

Nlocal:    19652 ave 19652 max 19652 min
Histogram: 1 0 0 0 0 0 0 0 0 0
Nghost:    17362 ave 17362 max 17362 min
Histogram: 1 0 0 0 0 0 0 0 0 0
Neighs:    1.31567e+06 ave 1.31567e+06 max 1.31567e+06 min
Histogram: 1 0 0 0 0 0 0 0 0 0

Total # of neighbors = 1315670
Ave neighs/atom = 66.9484
Neighbor list builds = 495
Dangerous builds not checked
Setting up Verlet run ...
  Unit style    : metal
  Current step  : 193836
  Time step     : 0.001
Per MPI rank memory allocation (min/avg/max) = 18.2 | 18.2 | 18.2 Mbytes
Step Temp Press TotEng PotEng Enthalpy 
  193836    1248.0513    160.70949   -80854.203   -84024.366   -80816.519 
  200008    1252.2431    723.46773   -80875.305   -84056.117   -80705.804 
Loop time of 1250.35 on 1 procs for 6172 steps with 19652 atoms

Performance: 0.426 ns/day, 56.273 hours/ns, 4.936 timesteps/s
84.7% CPU use with 1 MPI tasks x no OpenMP threads

MPI task timing breakdown:
Section |  min time  |  avg time  |  max time  |%varavg| %total
---------------------------------------------------------------
Pair    | 656.43     | 656.43     | 656.43     |   0.0 | 52.50
Neigh   | 569.87     | 569.87     | 569.87     |   0.0 | 45.58
Comm    | 9.1055     | 9.1055     | 9.1055     |   0.0 |  0.73
Output  | 0.00020885 | 0.00020885 | 0.00020885 |   0.0 |  0.00
Modify  | 11.885     | 11.885     | 11.885     |   0.0 |  0.95
Other   |            | 3.053      |            |       |  0.24

Nlocal:    19652 ave 19652 max 19652 min
Histogram: 1 0 0 0 0 0 0 0 0 0
Nghost:    17422 ave 17422 max 17422 min
Histogram: 1 0 0 0 0 0 0 0 0 0
Neighs:    1.31587e+06 ave 1.31587e+06 max 1.31587e+06 min
Histogram: 1 0 0 0 0 0 0 0 0 0

Total # of neighbors = 1315868
Ave neighs/atom = 66.9585
Neighbor list builds = 6172
Dangerous builds not checked
Setting up Verlet run ...
  Unit style    : metal
  Current step  : 200008
  Time step     : 0.001
Per MPI rank memory allocation (min/avg/max) = 18.2 | 18.2 | 18.2 Mbytes
Step Temp Press TotEng PotEng Enthalpy 
  200008    1252.2431    723.46773   -80875.305   -84056.117   -80705.804 
  200010    1251.5233     747.6822   -80875.307    -84054.29   -80700.132 
  200503    1222.0036    505.08609   -81073.791   -84177.791   -80955.652 
Loop time of 97.502 on 1 procs for 495 steps with 19652 atoms

Performance: 0.439 ns/day, 54.715 hours/ns, 5.077 timesteps/s
84.3% CPU use with 1 MPI tasks x no OpenMP threads

MPI task timing breakdown:
Section |  min time  |  avg time  |  max time  |%varavg| %total
---------------------------------------------------------------
Pair    | 51.278     | 51.278     | 51.278     |   0.0 | 52.59
Neigh   | 44.174     | 44.174     | 44.174     |   0.0 | 45.31
Comm    | 0.71896    | 0.71896    | 0.71896    |   0.0 |  0.74
Output  | 0.13427    | 0.13427    | 0.13427    |   0.0 |  0.14
Modify  | 0.95656    | 0.95656    | 0.95656    |   0.0 |  0.98
Other   |            | 0.2399     |            |       |  0.25

Nlocal:    19652 ave 19652 max 19652 min
Histogram: 1 0 0 0 0 0 0 0 0 0
Nghost:    17417 ave 17417 max 17417 min
Histogram: 1 0 0 0 0 0 0 0 0 0
Neighs:    1.31848e+06 ave 1.31848e+06 max 1.31848e+06 min
Histogram: 1 0 0 0 0 0 0 0 0 0

Total # of neighbors = 1318475
Ave neighs/atom = 67.0911
Neighbor list builds = 495
Dangerous builds not checked
Setting up Verlet run ...
  Unit style    : metal
  Current step  : 200503
  Time step     : 0.001
Per MPI rank memory allocation (min/avg/max) = 18.2 | 18.2 | 18.2 Mbytes
Step Temp Press TotEng PotEng Enthalpy 
  200503    1222.0036    505.08609   -81073.791   -84177.791   -80955.652 
  206675    1201.7177   -212.93662   -81176.859   -84229.331    -81226.69 
Loop time of 1261.19 on 1 procs for 6172 steps with 19652 atoms

Performance: 0.423 ns/day, 56.761 hours/ns, 4.894 timesteps/s
84.1% CPU use with 1 MPI tasks x no OpenMP threads

MPI task timing breakdown:
Section |  min time  |  avg time  |  max time  |%varavg| %total
---------------------------------------------------------------
Pair    | 662.07     | 662.07     | 662.07     |   0.0 | 52.50
Neigh   | 574.65     | 574.65     | 574.65     |   0.0 | 45.56
Comm    | 9.0665     | 9.0665     | 9.0665     |   0.0 |  0.72
Output  | 0.00022602 | 0.00022602 | 0.00022602 |   0.0 |  0.00
Modify  | 12.249     | 12.249     | 12.249     |   0.0 |  0.97
Other   |            | 3.163      |            |       |  0.25

Nlocal:    19652 ave 19652 max 19652 min
Histogram: 1 0 0 0 0 0 0 0 0 0
Nghost:    17448 ave 17448 max 17448 min
Histogram: 1 0 0 0 0 0 0 0 0 0
Neighs:    1.31747e+06 ave 1.31747e+06 max 1.31747e+06 min
Histogram: 1 0 0 0 0 0 0 0 0 0

Total # of neighbors = 1317470
Ave neighs/atom = 67.04
Neighbor list builds = 6172
Dangerous builds not checked
Setting up Verlet run ...
  Unit style    : metal
  Current step  : 206675
  Time step     : 0.001
Per MPI rank memory allocation (min/avg/max) = 18.2 | 18.2 | 18.2 Mbytes
Step Temp Press TotEng PotEng Enthalpy 
[...]

Performance: 0.728 ns/day, 32.971 hours/ns, 8.425 timesteps/s
99.9% CPU use with 1 MPI tasks x no OpenMP threads

MPI task timing breakdown:
Section |  min time  |  avg time  |  max time  |%varavg| %total
---------------------------------------------------------------
Pair    | 29.982     | 29.982     | 29.982     |   0.0 | 51.03
Neigh   | 27.546     | 27.546     | 27.546     |   0.0 | 46.88
Comm    | 0.43458    | 0.43458    | 0.43458    |   0.0 |  0.74
Output  | 0.06403    | 0.06403    | 0.06403    |   0.0 |  0.11
Modify  | 0.57576    | 0.57576    | 0.57576    |   0.0 |  0.98
Other   |            | 0.1523     |            |       |  0.26

Nlocal:    19652 ave 19652 max 19652 min
Histogram: 1 0 0 0 0 0 0 0 0 0
Nghost:    17584 ave 17584 max 17584 min
Histogram: 1 0 0 0 0 0 0 0 0 0
Neighs:    1.33749e+06 ave 1.33749e+06 max 1.33749e+06 min
Histogram: 1 0 0 0 0 0 0 0 0 0

Total # of neighbors = 1337487
Ave neighs/atom = 68.0586
Neighbor list builds = 495
Dangerous builds not checked
Setting up Verlet run ...
  Unit style    : metal
  Current step  : 307175
  Time step     : 0.001
Per MPI rank memory allocation (min/avg/max) = 18.2 | 18.2 | 18.2 Mbytes
Step Temp Press TotEng PotEng Enthalpy 
  307175    422.36271    318.80754   -86814.716   -87887.556   -86741.179 
  313347    400.20993   -474.72648   -87015.512   -88032.082   -87125.088 
Loop time of 790.735 on 1 procs for 6172 steps with 19652 atoms

Performance: 0.674 ns/day, 35.588 hours/ns, 7.805 timesteps/s
99.8% CPU use with 1 MPI tasks x no OpenMP threads

MPI task timing breakdown:
Section |  min time  |  avg time  |  max time  |%varavg| %total
---------------------------------------------------------------
Pair    | 407.82     | 407.82     | 407.82     |   0.0 | 51.57
Neigh   | 367.09     | 367.09     | 367.09     |   0.0 | 46.42
Comm    | 5.8735     | 5.8735     | 5.8735     |   0.0 |  0.74
Output  | 0.00018597 | 0.00018597 | 0.00018597 |   0.0 |  0.00
Modify  | 7.8651     | 7.8651     | 7.8651     |   0.0 |  0.99
Other   |            | 2.091      |            |       |  0.26

Nlocal:    19652 ave 19652 max 19652 min
Histogram: 1 0 0 0 0 0 0 0 0 0
Nghost:    17587 ave 17587 max 17587 min
Histogram: 1 0 0 0 0 0 0 0 0 0
Neighs:    1.33606e+06 ave 1.33606e+06 max 1.33606e+06 min
Histogram: 1 0 0 0 0 0 0 0 0 0

Total # of neighbors = 1336063
Ave neighs/atom = 67.9861
Neighbor list builds = 6172
Dangerous builds not checked
Setting up Verlet run ...
  Unit style    : metal
  Current step  : 313347
  Time step     : 0.001
Per MPI rank memory allocation (min/avg/max) = 18.2 | 18.2 | 18.2 Mbytes
Step Temp Press TotEng PotEng Enthalpy 
  313347    400.20993   -474.72648   -87015.512   -88032.082   -87125.088 
  313349    400.39655   -464.65489   -87015.513   -88032.557   -87122.765 
  313842    373.89932    339.88522   -87181.532   -88131.271   -87103.232 
Loop time of 61.9781 on 1 procs for 495 steps with 19652 atoms

Performance: 0.690 ns/day, 34.780 hours/ns, 7.987 timesteps/s
100.0% CPU use with 1 MPI tasks x no OpenMP threads

MPI task timing breakdown:
Section |  min time  |  avg time  |  max time  |%varavg| %total
---------------------------------------------------------------
Pair    | 31.893     | 31.893     | 31.893     |   0.0 | 51.46
Neigh   | 28.801     | 28.801     | 28.801     |   0.0 | 46.47
Comm    | 0.45721    | 0.45721    | 0.45721    |   0.0 |  0.74
Output  | 0.04282    | 0.04282    | 0.04282    |   0.0 |  0.07
Modify  | 0.61886    | 0.61886    | 0.61886    |   0.0 |  1.00
Other   |            | 0.1658     |            |       |  0.27

Nlocal:    19652 ave 19652 max 19652 min
Histogram: 1 0 0 0 0 0 0 0 0 0
Nghost:    17577 ave 17577 max 17577 min
Histogram: 1 0 0 0 0 0 0 0 0 0
Neighs:    1.33858e+06 ave 1.33858e+06 max 1.33858e+06 min
Histogram: 1 0 0 0 0 0 0 0 0 0

Total # of neighbors = 1338585
Ave neighs/atom = 68.1144
Neighbor list builds = 495
Dangerous builds not checked
Setting up Verlet run ...
  Unit style    : metal
  Current step  : 313842
  Time step     : 0.001
Per MPI rank memory allocation (min/avg/max) = 18.2 | 18.2 | 18.2 Mbytes
Step Temp Press TotEng PotEng Enthalpy 
  313842    373.89932    339.88522   -87181.532   -88131.271   -87103.232 
  320014    348.35474    656.04295   -87367.365   -88252.218   -87216.496 
Loop time of 688.31 on 1 procs for 6172 steps with 19652 atoms

Performance: 0.775 ns/day, 30.978 hours/ns, 8.967 timesteps/s
100.0% CPU use with 1 MPI tasks x no OpenMP threads

MPI task timing breakdown:
Section |  min time  |  avg time  |  max time  |%varavg| %total
---------------------------------------------------------------
Pair    | 350.74     | 350.74     | 350.74     |   0.0 | 50.96
Neigh   | 323.99     | 323.99     | 323.99     |   0.0 | 47.07
Comm    | 5.087      | 5.087      | 5.087      |   0.0 |  0.74
Output  | 0.00024915 | 0.00024915 | 0.00024915 |   0.0 |  0.00
Modify  | 6.6963     | 6.6963     | 6.6963     |   0.0 |  0.97
Other   |            | 1.804      |            |       |  0.26

Nlocal:    19652 ave 19652 max 19652 min
Histogram: 1 0 0 0 0 0 0 0 0 0
Nghost:    17579 ave 17579 max 17579 min
Histogram: 1 0 0 0 0 0 0 0 0 0
Neighs:    1.34048e+06 ave 1.34048e+06 max 1.34048e+06 min
Histogram: 1 0 0 0 0 0 0 0 0 0

Total # of neighbors = 1340477
Ave neighs/atom = 68.2107
Neighbor list builds = 6172
Dangerous builds not checked
Setting up Verlet run ...
  Unit style    : metal
  Current step  : 320014
  Time step     : 0.001
Per MPI rank memory allocation (min/avg/max) = 18.2 | 18.2 | 18.2 Mbytes
Step Temp Press TotEng PotEng Enthalpy 
  320014    348.35474    656.04295   -87367.365   -88252.218   -87216.496 
  320016     348.5646    663.41526   -87367.364    -88252.75   -87214.799 
  320509    321.64061   -466.52975   -87510.637   -88327.634   -87618.037 
Loop time of 68.9118 on 1 procs for 495 steps with 19652 atoms

Performance: 0.621 ns/day, 38.671 hours/ns, 7.183 timesteps/s
100.0% CPU use with 1 MPI tasks x no OpenMP threads

MPI task timing breakdown:
Section |  min time  |  avg time  |  max time  |%varavg| %total
---------------------------------------------------------------
Pair    | 35.833     | 35.833     | 35.833     |   0.0 | 52.00
Neigh   | 31.661     | 31.661     | 31.661     |   0.0 | 45.94
Comm    | 0.50194    | 0.50194    | 0.50194    |   0.0 |  0.73
Output  | 0.042859   | 0.042859   | 0.042859   |   0.0 |  0.06
Modify  | 0.68725    | 0.68725    | 0.68725    |   0.0 |  1.00
Other   |            | 0.186      |            |       |  0.27

Nlocal:    19652 ave 19652 max 19652 min
Histogram: 1 0 0 0 0 0 0 0 0 0
Nghost:    17571 ave 17571 max 17571 min
Histogram: 1 0 0 0 0 0 0 0 0 0
Neighs:    1.33948e+06 ave 1.33948e+06 max 1.33948e+06 min
Histogram: 1 0 0 0 0 0 0 0 0 0

Total # of neighbors = 1339477
Ave neighs/atom = 68.1598
Neighbor list builds = 495
Dangerous builds not checked
Setting up Verlet run ...
  Unit style    : metal
  Current step  : 320509
  Time step     : 0.001
Per MPI rank memory allocation (min/avg/max) = 18.2 | 18.2 | 18.2 Mbytes
Step Temp Press TotEng PotEng Enthalpy 
  320509    321.64061   -466.52975   -87510.637   -88327.634   -87618.037 
  326681    299.50356    101.20191   -87667.795   -88428.561   -87644.533 
Loop time of 737.405 on 1 procs for 6172 steps with 19652 atoms

Performance: 0.723 ns/day, 33.188 hours/ns, 8.370 timesteps/s
99.6% CPU use with 1 MPI tasks x no OpenMP threads

MPI task timing breakdown:
Section |  min time  |  avg time  |  max time  |%varavg| %total
---------------------------------------------------------------
Pair    | 378.46     | 378.46     | 378.46     |   0.0 | 51.32
Neigh   | 344.04     | 344.04     | 344.04     |   0.0 | 46.66
Comm    | 5.5672     | 5.5672     | 5.5672     |   0.0 |  0.75
Output  | 0.0003829  | 0.0003829  | 0.0003829  |   0.0 |  0.00
Modify  | 7.3422     | 7.3422     | 7.3422     |   0.0 |  1.00
Other   |            | 1.986      |            |       |  0.27

Nlocal:    19652 ave 19652 max 19652 min
Histogram: 1 0 0 0 0 0 0 0 0 0
Nghost:    17613 ave 17613 max 17613 min
Histogram: 1 0 0 0 0 0 0 0 0 0
Neighs:    1.34118e+06 ave 1.34118e+06 max 1.34118e+06 min
Histogram: 1 0 0 0 0 0 0 0 0 0

Total # of neighbors = 1341178
Ave neighs/atom = 68.2464
Neighbor list builds = 6172
Dangerous builds not checked
Setting up Verlet run ...
  Unit style    : metal
  Current step  : 326681
  Time step     : 0.001
Per MPI rank memory allocation (min/avg/max) = 18.2 | 18.2 | 18.2 Mbytes
Step Temp Press TotEng PotEng Enthalpy 
  326681    299.50356    101.20191   -87667.795   -88428.561   -87644.533 
  326683    299.35206    124.05908   -87667.794   -88428.175   -87639.278 
  327176    274.79737   -715.93473   -87812.889   -88510.899   -87977.495 
Loop time of 58.3136 on 1 procs for 495 steps with 19652 atoms

Performance: 0.733 ns/day, 32.724 hours/ns, 8.489 timesteps/s
99.6% CPU use with 1 MPI tasks x no OpenMP threads

MPI task timing breakdown:
Section |  min time  |  avg time  |  max time  |%varavg| %total
---------------------------------------------------------------
Pair    | 29.806     | 29.806     | 29.806     |   0.0 | 51.11
Neigh   | 27.135     | 27.135     | 27.135     |   0.0 | 46.53
Comm    | 0.44708    | 0.44708    | 0.44708    |   0.0 |  0.77
Output  | 0.17528    | 0.17528    | 0.17528    |   0.0 |  0.30
Modify  | 0.58907    | 0.58907    | 0.58907    |   0.0 |  1.01
Other   |            | 0.1611     |            |       |  0.28

Nlocal:    19652 ave 19652 max 19652 min
Histogram: 1 0 0 0 0 0 0 0 0 0
Nghost:    17614 ave 17614 max 17614 min
Histogram: 1 0 0 0 0 0 0 0 0 0
Neighs:    1.34077e+06 ave 1.34077e+06 max 1.34077e+06 min
Histogram: 1 0 0 0 0 0 0 0 0 0

Total # of neighbors = 1340767
Ave neighs/atom = 68.2255
Neighbor list builds = 495
Dangerous builds not checked
Setting up Verlet run ...
  Unit style    : metal
  Current step  : 327176
  Time step     : 0.001
Per MPI rank memory allocation (min/avg/max) = 18.2 | 18.2 | 18.2 Mbytes
Step Temp Press TotEng PotEng Enthalpy 
  327176    274.79737   -715.93473   -87812.889   -88510.899   -87977.495 
  333348    250.10145    159.72034   -87961.846   -88597.126    -87925.18 
Loop time of 811.296 on 1 procs for 6172 steps with 19652 atoms

Performance: 0.657 ns/day, 36.513 hours/ns, 7.608 timesteps/s
98.6% CPU use with 1 MPI tasks x no OpenMP threads

MPI task timing breakdown:
Section |  min time  |  avg time  |  max time  |%varavg| %total
---------------------------------------------------------------
Pair    | 420.79     | 420.79     | 420.79     |   0.0 | 51.87
Neigh   | 373.54     | 373.54     | 373.54     |   0.0 | 46.04
Comm    | 6.309      | 6.309      | 6.309      |   0.0 |  0.78
Output  | 0.00023007 | 0.00023007 | 0.00023007 |   0.0 |  0.00
Modify  | 8.3513     | 8.3513     | 8.3513     |   0.0 |  1.03
Other   |            | 2.304      |            |       |  0.28

Nlocal:    19652 ave 19652 max 19652 min
Histogram: 1 0 0 0 0 0 0 0 0 0
Nghost:    17611 ave 17611 max 17611 min
Histogram: 1 0 0 0 0 0 0 0 0 0
Neighs:    1.34264e+06 ave 1.34264e+06 max 1.34264e+06 min
Histogram: 1 0 0 0 0 0 0 0 0 0

Total # of neighbors = 1342639
Ave neighs/atom = 68.3207
Neighbor list builds = 6172
Dangerous builds not checked
Setting up Verlet run ...
  Unit style    : metal
  Current step  : 333348
  Time step     : 0.001
Per MPI rank memory allocation (min/avg/max) = 18.2 | 18.2 | 18.2 Mbytes
Step Temp Press TotEng PotEng Enthalpy 
  333348    250.10145    159.72034   -87961.846   -88597.126    -87925.18 
  333350    250.03783    171.86443   -87961.845   -88596.964   -87922.392 
  333843    224.38553   -195.36628   -88099.862   -88669.821   -88144.689 
Loop time of 64.8582 on 1 procs for 495 steps with 19652 atoms

Performance: 0.659 ns/day, 36.396 hours/ns, 7.632 timesteps/s
99.1% CPU use with 1 MPI tasks x no OpenMP threads

MPI task timing breakdown:
Section |  min time  |  avg time  |  max time  |%varavg| %total
---------------------------------------------------------------
Pair    | 33.464     | 33.464     | 33.464     |   0.0 | 51.59
Neigh   | 29.969     | 29.969     | 29.969     |   0.0 | 46.21
Comm    | 0.51647    | 0.51647    | 0.51647    |   0.0 |  0.80
Output  | 0.049937   | 0.049937   | 0.049937   |   0.0 |  0.08
Modify  | 0.67192    | 0.67192    | 0.67192    |   0.0 |  1.04
Other   |            | 0.1875     |            |       |  0.29

Nlocal:    19652 ave 19652 max 19652 min
Histogram: 1 0 0 0 0 0 0 0 0 0
Nghost:    17623 ave 17623 max 17623 min
Histogram: 1 0 0 0 0 0 0 0 0 0
Neighs:    1.34342e+06 ave 1.34342e+06 max 1.34342e+06 min
Histogram: 1 0 0 0 0 0 0 0 0 0

Total # of neighbors = 1343418
Ave neighs/atom = 68.3604
Neighbor list builds = 495
Dangerous builds not checked
Setting up Verlet run ...
  Unit style    : metal
  Current step  : 333843
  Time step     : 0.001
Per MPI rank memory allocation (min/avg/max) = 18.2 | 18.2 | 18.2 Mbytes
Step Temp Press TotEng PotEng Enthalpy 
  333843    224.38553   -195.36628   -88099.862   -88669.821   -88144.689 
  340015    197.74139    498.93076   -88253.581   -88755.862   -88139.294 
Loop time of 794.286 on 1 procs for 6172 steps with 19652 atoms

Performance: 0.671 ns/day, 35.748 hours/ns, 7.771 timesteps/s
99.5% CPU use with 1 MPI tasks x no OpenMP threads

MPI task timing breakdown:
Section |  min time  |  avg time  |  max time  |%varavg| %total
---------------------------------------------------------------
Pair    | 410.09     | 410.09     | 410.09     |   0.0 | 51.63
Neigh   | 367.35     | 367.35     | 367.35     |   0.0 | 46.25
Comm    | 6.2466     | 6.2466     | 6.2466     |   0.0 |  0.79
Output  | 0.0002079  | 0.0002079  | 0.0002079  |   0.0 |  0.00
Modify  | 8.295      | 8.295      | 8.295      |   0.0 |  1.04
Other   |            | 2.305      |            |       |  0.29

Nlocal:    19652 ave 19652 max 19652 min
Histogram: 1 0 0 0 0 0 0 0 0 0
Nghost:    17575 ave 17575 max 17575 min
Histogram: 1 0 0 0 0 0 0 0 0 0
Neighs:    1.34515e+06 ave 1.34515e+06 max 1.34515e+06 min
Histogram: 1 0 0 0 0 0 0 0 0 0

Total # of neighbors = 1345146
Ave neighs/atom = 68.4483
Neighbor list builds = 6172
Dangerous builds not checked
Setting up Verlet run ...
  Unit style    : metal
  Current step  : 340015
  Time step     : 0.001
Per MPI rank memory allocation (min/avg/max) = 18.2 | 18.2 | 18.2 Mbytes
Step Temp Press TotEng PotEng Enthalpy 
  340015    197.74139    498.93076   -88253.581   -88755.862   -88139.294 
  340017    197.96285    498.51718    -88253.58   -88756.423   -88139.387 
  340510    175.16442    216.03896   -88373.573   -88818.507   -88324.108 
Loop time of 60.1495 on 1 procs for 495 steps with 19652 atoms

Performance: 0.711 ns/day, 33.754 hours/ns, 8.230 timesteps/s
100.0% CPU use with 1 MPI tasks x no OpenMP threads

MPI task timing breakdown:
Section |  min time  |  avg time  |  max time  |%varavg| %total
---------------------------------------------------------------
Pair    | 30.984     | 30.984     | 30.984     |   0.0 | 51.51
Neigh   | 27.879     | 27.879     | 27.879     |   0.0 | 46.35
Comm    | 0.45332    | 0.45332    | 0.45332    |   0.0 |  0.75
Output  | 0.053349   | 0.053349   | 0.053349   |   0.0 |  0.09
Modify  | 0.61068    | 0.61068    | 0.61068    |   0.0 |  1.02
Other   |            | 0.1683     |            |       |  0.28

Nlocal:    19652 ave 19652 max 19652 min
Histogram: 1 0 0 0 0 0 0 0 0 0
Nghost:    17629 ave 17629 max 17629 min
Histogram: 1 0 0 0 0 0 0 0 0 0
Neighs:    1.34558e+06 ave 1.34558e+06 max 1.34558e+06 min
Histogram: 1 0 0 0 0 0 0 0 0 0

Total # of neighbors = 1345584
Ave neighs/atom = 68.4706
Neighbor list builds = 495
Dangerous builds not checked
Setting up Verlet run ...
  Unit style    : metal
  Current step  : 340510
  Time step     : 0.001
Per MPI rank memory allocation (min/avg/max) = 18.2 | 18.2 | 18.2 Mbytes
Step Temp Press TotEng PotEng Enthalpy 
  340510    175.16442    216.03896   -88373.573   -88818.507   -88324.108 
  346682    150.57449   -282.82424   -88512.409   -88894.882   -88577.158 
Loop time of 783.224 on 1 procs for 6172 steps with 19652 atoms

Performance: 0.681 ns/day, 35.250 hours/ns, 7.880 timesteps/s
99.3% CPU use with 1 MPI tasks x no OpenMP threads

MPI task timing breakdown:
Section |  min time  |  avg time  |  max time  |%varavg| %total
---------------------------------------------------------------
Pair    | 402.2      | 402.2      | 402.2      |   0.0 | 51.35
Neigh   | 364.68     | 364.68     | 364.68     |   0.0 | 46.56
Comm    | 6.0308     | 6.0308     | 6.0308     |   0.0 |  0.77
Output  | 0.00024199 | 0.00024199 | 0.00024199 |   0.0 |  0.00
Modify  | 8.1227     | 8.1227     | 8.1227     |   0.0 |  1.04
Other   |            | 2.192      |            |       |  0.28

Nlocal:    19652 ave 19652 max 19652 min
Histogram: 1 0 0 0 0 0 0 0 0 0
Nghost:    17625 ave 17625 max 17625 min
Histogram: 1 0 0 0 0 0 0 0 0 0
Neighs:    1.34584e+06 ave 1.34584e+06 max 1.34584e+06 min
Histogram: 1 0 0 0 0 0 0 0 0 0

Total # of neighbors = 1345842
Ave neighs/atom = 68.4837
Neighbor list builds = 6172
Dangerous builds not checked
Setting up Verlet run ...
  Unit style    : metal
  Current step  : 346682
  Time step     : 0.001
Per MPI rank memory allocation (min/avg/max) = 18.2 | 18.2 | 18.2 Mbytes
Step Temp Press TotEng PotEng Enthalpy 
  346682    150.57449   -282.82424   -88512.409   -88894.882   -88577.158 
  346684    150.47915   -277.75053    -88512.41    -88894.64   -88575.997 
  347177    127.12986   -320.41593   -88633.263   -88956.184   -88706.579 
Loop time of 61.8304 on 1 procs for 495 steps with 19652 atoms

Performance: 0.692 ns/day, 34.697 hours/ns, 8.006 timesteps/s
99.8% CPU use with 1 MPI tasks x no OpenMP threads

MPI task timing breakdown:
Section |  min time  |  avg time  |  max time  |%varavg| %total
---------------------------------------------------------------
Pair    | 31.628     | 31.628     | 31.628     |   0.0 | 51.15
Neigh   | 28.859     | 28.859     | 28.859     |   0.0 | 46.68
Comm    | 0.46967    | 0.46967    | 0.46967    |   0.0 |  0.76
Output  | 0.065645   | 0.065645   | 0.065645   |   0.0 |  0.11
Modify  | 0.63452    | 0.63452    | 0.63452    |   0.0 |  1.03
Other   |            | 0.1731     |            |       |  0.28

Nlocal:    19652 ave 19652 max 19652 min
Histogram: 1 0 0 0 0 0 0 0 0 0
Nghost:    17605 ave 17605 max 17605 min
Histogram: 1 0 0 0 0 0 0 0 0 0
Neighs:    1.34666e+06 ave 1.34666e+06 max 1.34666e+06 min
Histogram: 1 0 0 0 0 0 0 0 0 0

Total # of neighbors = 1346664
Ave neighs/atom = 68.5255
Neighbor list builds = 495
Dangerous builds not checked
Setting up Verlet run ...
  Unit style    : metal
  Current step  : 347177
  Time step     : 0.001
Per MPI rank memory allocation (min/avg/max) = 18.2 | 18.2 | 18.2 Mbytes
Step Temp Press TotEng PotEng Enthalpy 
  347177    127.12986   -320.41593   -88633.263   -88956.184   -88706.579 
  353349    100.22179   -8.6446928   -88777.109   -89031.681   -88779.085 
Loop time of 748.822 on 1 procs for 6172 steps with 19652 atoms

Performance: 0.712 ns/day, 33.702 hours/ns, 8.242 timesteps/s
99.6% CPU use with 1 MPI tasks x no OpenMP threads

MPI task timing breakdown:
Section |  min time  |  avg time  |  max time  |%varavg| %total
---------------------------------------------------------------
Pair    | 383.93     | 383.93     | 383.93     |   0.0 | 51.27
Neigh   | 349.6      | 349.6      | 349.6      |   0.0 | 46.69
Comm    | 5.6049     | 5.6049     | 5.6049     |   0.0 |  0.75
Output  | 0.00022292 | 0.00022292 | 0.00022292 |   0.0 |  0.00
Modify  | 7.637      | 7.637      | 7.637      |   0.0 |  1.02
Other   |            | 2.054      |            |       |  0.27

Nlocal:    19652 ave 19652 max 19652 min
Histogram: 1 0 0 0 0 0 0 0 0 0
Nghost:    17593 ave 17593 max 17593 min
Histogram: 1 0 0 0 0 0 0 0 0 0
Neighs:    1.34788e+06 ave 1.34788e+06 max 1.34788e+06 min
Histogram: 1 0 0 0 0 0 0 0 0 0

Total # of neighbors = 1347880
Ave neighs/atom = 68.5874
Neighbor list builds = 6172
Dangerous builds not checked
Total wall time: 15:18:28
