LAMMPS (12 Dec 2018)
Lattice spacing in x,y,z = 4 4 4
Created orthogonal box = (0 0 0) to (68 68 68)
  1 by 1 by 1 MPI processor grid
Created 19652 atoms
  Time spent = 0.00325108 secs
Setting atom values ...
  19480 settings made for type/fraction
Neighbor list info ...
  update every 1 steps, delay 0 steps, check no
  max neighbors/atom: 2000, page size: 100000
  master list distance cutoff = 8.5
  ghost atom cutoff = 8.5
  binsize = 4.25, bins = 16 16 16
  1 neighbor lists, perpetual/occasional/extra = 1 0 0
  (1) pair eam/alloy, perpetual
      attributes: half, newton on
      pair build: half/bin/atomonly/newton
      stencil: half/bin/3d/newton
      bin: standard
Setting up Verlet run ...
  Unit style    : metal
  Current step  : 0
  Time step     : 0.001
Per MPI rank memory allocation (min/avg/max) = 18.19 | 18.19 | 18.19 Mbytes
Step Temp Press TotEng PotEng Enthalpy 
       0          300    644501.64   -38570.515   -39332.543    87914.888 
    1000    889.83765     635137.2   -38570.727   -40830.996    86076.875 
Loop time of 232.477 on 1 procs for 1000 steps with 19652 atoms

Performance: 0.372 ns/day, 64.577 hours/ns, 4.302 timesteps/s
77.8% CPU use with 1 MPI tasks x no OpenMP threads

MPI task timing breakdown:
Section |  min time  |  avg time  |  max time  |%varavg| %total
---------------------------------------------------------------
Pair    | 133.23     | 133.23     | 133.23     |   0.0 | 57.31
Neigh   | 96.273     | 96.273     | 96.273     |   0.0 | 41.41
Comm    | 1.7832     | 1.7832     | 1.7832     |   0.0 |  0.77
Output  | 0.00021911 | 0.00021911 | 0.00021911 |   0.0 |  0.00
Modify  | 0.6374     | 0.6374     | 0.6374     |   0.0 |  0.27
Other   |            | 0.5565     |            |       |  0.24

Nlocal:    19652 ave 19652 max 19652 min
Histogram: 1 0 0 0 0 0 0 0 0 0
Nghost:    18840 ave 18840 max 18840 min
Histogram: 1 0 0 0 0 0 0 0 0 0
Neighs:    1.58379e+06 ave 1.58379e+06 max 1.58379e+06 min
Histogram: 1 0 0 0 0 0 0 0 0 0

Total # of neighbors = 1583790
Ave neighs/atom = 80.5918
Neighbor list builds = 1000
Dangerous builds not checked
Setting up Verlet run ...
  Unit style    : metal
  Current step  : 1000
  Time step     : 0.001
Per MPI rank memory allocation (min/avg/max) = 18.19 | 18.19 | 18.19 Mbytes
Step Temp Press TotEng PotEng Enthalpy 
    1000    889.83765     635137.2   -38570.727   -40830.996    86076.875 
    2000    347.86461    -99.05673   -81212.375   -82095.983   -81252.528 
Loop time of 159.833 on 1 procs for 1000 steps with 19652 atoms

Performance: 0.541 ns/day, 44.398 hours/ns, 6.257 timesteps/s
80.0% CPU use with 1 MPI tasks x no OpenMP threads

MPI task timing breakdown:
Section |  min time  |  avg time  |  max time  |%varavg| %total
---------------------------------------------------------------
Pair    | 85.424     | 85.424     | 85.424     |   0.0 | 53.45
Neigh   | 70.194     | 70.194     | 70.194     |   0.0 | 43.92
Comm    | 1.4523     | 1.4523     | 1.4523     |   0.0 |  0.91
Output  | 0.13818    | 0.13818    | 0.13818    |   0.0 |  0.09
Modify  | 2.107      | 2.107      | 2.107      |   0.0 |  1.32
Other   |            | 0.5176     |            |       |  0.32

Nlocal:    19652 ave 19652 max 19652 min
Histogram: 1 0 0 0 0 0 0 0 0 0
Nghost:    14050 ave 14050 max 14050 min
Histogram: 1 0 0 0 0 0 0 0 0 0
Neighs:    721910 ave 721910 max 721910 min
Histogram: 1 0 0 0 0 0 0 0 0 0

Total # of neighbors = 721910
Ave neighs/atom = 36.7347
Neighbor list builds = 1000
Dangerous builds not checked
Setting up Verlet run ...
  Unit style    : metal
  Current step  : 2000
  Time step     : 0.001
Per MPI rank memory allocation (min/avg/max) = 18.2 | 18.2 | 18.2 Mbytes
Step Temp Press TotEng PotEng Enthalpy 
    2000    347.86461    -99.05673   -81212.375   -82095.983   -81252.528 
    4000    794.05948   -440.75915   -79352.261   -81369.244   -79533.326 
    6000    1363.2651    483.03922   -76136.114   -79598.931   -75934.226 
    8000    1896.0821    210.10548   -72543.684   -77359.905   -72453.604 
   10000    2463.0584   -449.63729   -69087.677   -75344.069   -69285.765 
Loop time of 1092.38 on 1 procs for 8000 steps with 19652 atoms

Performance: 0.633 ns/day, 37.930 hours/ns, 7.323 timesteps/s
77.8% CPU use with 1 MPI tasks x no OpenMP threads

MPI task timing breakdown:
Section |  min time  |  avg time  |  max time  |%varavg| %total
---------------------------------------------------------------
Pair    | 562.13     | 562.13     | 562.13     |   0.0 | 51.46
Neigh   | 497.12     | 497.12     | 497.12     |   0.0 | 45.51
Comm    | 11.456     | 11.456     | 11.456     |   0.0 |  1.05
Output  | 0.30917    | 0.30917    | 0.30917    |   0.0 |  0.03
Modify  | 17.043     | 17.043     | 17.043     |   0.0 |  1.56
Other   |            | 4.315      |            |       |  0.40

Nlocal:    19652 ave 19652 max 19652 min
Histogram: 1 0 0 0 0 0 0 0 0 0
Nghost:    13631 ave 13631 max 13631 min
Histogram: 1 0 0 0 0 0 0 0 0 0
Neighs:    684047 ave 684047 max 684047 min
Histogram: 1 0 0 0 0 0 0 0 0 0

Total # of neighbors = 684047
Ave neighs/atom = 34.808
Neighbor list builds = 8000
Dangerous builds not checked
Setting up Verlet run ...
  Unit style    : metal
  Current step  : 10000
  Time step     : 0.001
Per MPI rank memory allocation (min/avg/max) = 18.2 | 18.2 | 18.2 Mbytes
Step Temp Press TotEng PotEng Enthalpy 
   10000    2463.0584   -449.63729   -69087.677   -75344.069   -69285.765 
   12000    2411.2975   -436.40608   -68994.828   -75119.744   -69187.265 
   14000    2475.4436    805.23105   -68911.654   -75199.507   -68557.961 
   16000    2461.8323    121.27051   -68948.844   -75202.123   -68895.482 
   18000    2469.1608    666.65576   -68989.839   -75261.732   -68697.105 
   20000    2449.8129     115.2106   -68949.442    -75172.19   -68898.683 
   22000    2485.8456   -196.12329   -68872.948   -75187.223   -68959.421 
   24000    2443.0076    672.76485   -68990.778    -75196.24   -68695.031 
   26000     2468.982    321.03987   -68839.493   -75110.932   -68698.117 
   28000    2458.9258    142.81777   -68903.197   -75149.093   -68840.325 
   30000    2481.2351   -1.3248529   -68898.048   -75200.611   -68898.632 
   32000    2464.8228    543.75255   -68877.594   -75138.468   -68638.393 
   34000    2449.2733    942.70443   -68971.877   -75193.254     -68557.9 
   36000    2448.3996    521.26692   -68952.056   -75171.214    -68722.89 
   38000    2448.8998    349.06696   -68951.404   -75171.833    -68797.84 
   40000    2442.4508   -65.691766   -68995.077   -75199.124   -69024.025 
Loop time of 3465.35 on 1 procs for 30000 steps with 19652 atoms

Performance: 0.748 ns/day, 32.087 hours/ns, 8.657 timesteps/s
95.3% CPU use with 1 MPI tasks x no OpenMP threads

MPI task timing breakdown:
Section |  min time  |  avg time  |  max time  |%varavg| %total
---------------------------------------------------------------
Pair    | 1772.5     | 1772.5     | 1772.5     |   0.0 | 51.15
Neigh   | 1588.5     | 1588.5     | 1588.5     |   0.0 | 45.84
Comm    | 36.656     | 36.656     | 36.656     |   0.0 |  1.06
Output  | 1.2689     | 1.2689     | 1.2689     |   0.0 |  0.04
Modify  | 53.347     | 53.347     | 53.347     |   0.0 |  1.54
Other   |            | 13.06      |            |       |  0.38

Nlocal:    19652 ave 19652 max 19652 min
Histogram: 1 0 0 0 0 0 0 0 0 0
Nghost:    13584 ave 13584 max 13584 min
Histogram: 1 0 0 0 0 0 0 0 0 0
Neighs:    684349 ave 684349 max 684349 min
Histogram: 1 0 0 0 0 0 0 0 0 0

Total # of neighbors = 684349
Ave neighs/atom = 34.8234
Neighbor list builds = 30000
Dangerous builds not checked
Setting up Verlet run ...
  Unit style    : metal
  Current step  : 40000
  Time step     : 0.001
Per MPI rank memory allocation (min/avg/max) = 18.2 | 18.2 | 18.2 Mbytes
Step Temp Press TotEng PotEng Enthalpy 
   40000    2442.4508   -65.691766   -68995.077   -75199.124   -69024.025 
   40495    2418.7366   -254.87131   -69177.771   -75321.583   -69289.832 
Loop time of 51.9748 on 1 procs for 495 steps with 19652 atoms

Performance: 0.823 ns/day, 29.167 hours/ns, 9.524 timesteps/s
99.6% CPU use with 1 MPI tasks x no OpenMP threads

MPI task timing breakdown:
Section |  min time  |  avg time  |  max time  |%varavg| %total
---------------------------------------------------------------
Pair    | 26.268     | 26.268     | 26.268     |   0.0 | 50.54
Neigh   | 24.129     | 24.129     | 24.129     |   0.0 | 46.43
Comm    | 0.55751    | 0.55751    | 0.55751    |   0.0 |  1.07
Output  | 0.00023794 | 0.00023794 | 0.00023794 |   0.0 |  0.00
Modify  | 0.82037    | 0.82037    | 0.82037    |   0.0 |  1.58
Other   |            | 0.1997     |            |       |  0.38

Nlocal:    19652 ave 19652 max 19652 min
Histogram: 1 0 0 0 0 0 0 0 0 0
Nghost:    13622 ave 13622 max 13622 min
Histogram: 1 0 0 0 0 0 0 0 0 0
Neighs:    685462 ave 685462 max 685462 min
Histogram: 1 0 0 0 0 0 0 0 0 0

Total # of neighbors = 685462
Ave neighs/atom = 34.88
Neighbor list builds = 495
Dangerous builds not checked
Setting up Verlet run ...
  Unit style    : metal
  Current step  : 40495
  Time step     : 0.001
Per MPI rank memory allocation (min/avg/max) = 18.2 | 18.2 | 18.2 Mbytes
Step Temp Press TotEng PotEng Enthalpy 
   40495    2418.7366   -254.87131   -69177.771   -75321.583   -69289.832 
   42000    2394.8202   -799.06807   -69214.851   -75297.913   -69567.274 
Loop time of 158.394 on 1 procs for 1505 steps with 19652 atoms

Performance: 0.821 ns/day, 29.235 hours/ns, 9.502 timesteps/s
99.7% CPU use with 1 MPI tasks x no OpenMP threads

MPI task timing breakdown:
Section |  min time  |  avg time  |  max time  |%varavg| %total
---------------------------------------------------------------
Pair    | 80.037     | 80.037     | 80.037     |   0.0 | 50.53
Neigh   | 73.575     | 73.575     | 73.575     |   0.0 | 46.45
Comm    | 1.666      | 1.666      | 1.666      |   0.0 |  1.05
Output  | 0.0683     | 0.0683     | 0.0683     |   0.0 |  0.04
Modify  | 2.4368     | 2.4368     | 2.4368     |   0.0 |  1.54
Other   |            | 0.6112     |            |       |  0.39

Nlocal:    19652 ave 19652 max 19652 min
Histogram: 1 0 0 0 0 0 0 0 0 0
Nghost:    13551 ave 13551 max 13551 min
Histogram: 1 0 0 0 0 0 0 0 0 0
Neighs:    683115 ave 683115 max 683115 min
Histogram: 1 0 0 0 0 0 0 0 0 0

Total # of neighbors = 683115
Ave neighs/atom = 34.7606
Neighbor list builds = 1505
Dangerous builds not checked
Setting up Verlet run ...
  Unit style    : metal
  Current step  : 42000
  Time step     : 0.001
Per MPI rank memory allocation (min/avg/max) = 18.2 | 18.2 | 18.2 Mbytes
Step Temp Press TotEng PotEng Enthalpy 
   42000    2394.8202   -799.06807   -69214.851   -75297.913   -69567.274 
   42495    2346.4362    362.68934   -69499.637   -75459.799   -69340.697 
Loop time of 50.9268 on 1 procs for 495 steps with 19652 atoms

Performance: 0.840 ns/day, 28.578 hours/ns, 9.720 timesteps/s
99.9% CPU use with 1 MPI tasks x no OpenMP threads

MPI task timing breakdown:
Section |  min time  |  avg time  |  max time  |%varavg| %total
---------------------------------------------------------------
Pair    | 25.606     | 25.606     | 25.606     |   0.0 | 50.28
Neigh   | 23.823     | 23.823     | 23.823     |   0.0 | 46.78
Comm    | 0.52671    | 0.52671    | 0.52671    |   0.0 |  1.03
Output  | 0.00025201 | 0.00025201 | 0.00025201 |   0.0 |  0.00
Modify  | 0.77272    | 0.77272    | 0.77272    |   0.0 |  1.52
Other   |            | 0.1985     |            |       |  0.39

Nlocal:    19652 ave 19652 max 19652 min
Histogram: 1 0 0 0 0 0 0 0 0 0
Nghost:    13563 ave 13563 max 13563 min
Histogram: 1 0 0 0 0 0 0 0 0 0
Neighs:    687508 ave 687508 max 687508 min
Histogram: 1 0 0 0 0 0 0 0 0 0

Total # of neighbors = 687508
Ave neighs/atom = 34.9841
Neighbor list builds = 495
Dangerous builds not checked
Setting up Verlet run ...
  Unit style    : metal
  Current step  : 42495
  Time step     : 0.001
Per MPI rank memory allocation (min/avg/max) = 18.2 | 18.2 | 18.2 Mbytes
Step Temp Press TotEng PotEng Enthalpy 
   42495    2346.4362    362.68934   -69499.637   -75459.799   -69340.697 
   44000    2345.1783   -944.65902   -69595.654    -75552.62    -70011.15 
Loop time of 163.551 on 1 procs for 1505 steps with 19652 atoms

Performance: 0.795 ns/day, 30.187 hours/ns, 9.202 timesteps/s
99.7% CPU use with 1 MPI tasks x no OpenMP threads

MPI task timing breakdown:
Section |  min time  |  avg time  |  max time  |%varavg| %total
---------------------------------------------------------------
Pair    | 83.728     | 83.728     | 83.728     |   0.0 | 51.19
Neigh   | 74.802     | 74.802     | 74.802     |   0.0 | 45.74
Comm    | 1.78       | 1.78       | 1.78       |   0.0 |  1.09
Output  | 0.061051   | 0.061051   | 0.061051   |   0.0 |  0.04
Modify  | 2.5524     | 2.5524     | 2.5524     |   0.0 |  1.56
Other   |            | 0.6279     |            |       |  0.38

Nlocal:    19652 ave 19652 max 19652 min
Histogram: 1 0 0 0 0 0 0 0 0 0
Nghost:    13525 ave 13525 max 13525 min
Histogram: 1 0 0 0 0 0 0 0 0 0
Neighs:    684588 ave 684588 max 684588 min
Histogram: 1 0 0 0 0 0 0 0 0 0

Total # of neighbors = 684588
Ave neighs/atom = 34.8355
Neighbor list builds = 1505
Dangerous builds not checked
Setting up Verlet run ...
  Unit style    : metal
  Current step  : 44000
  Time step     : 0.001
Per MPI rank memory allocation (min/avg/max) = 18.2 | 18.2 | 18.2 Mbytes
Step Temp Press TotEng PotEng Enthalpy 
   44000    2345.1783   -944.65902   -69595.654    -75552.62    -70011.15 
   44495    2310.8604    -502.5401   -69727.516   -75597.311   -69948.044 
Loop time of 56.6666 on 1 procs for 495 steps with 19652 atoms

Performance: 0.755 ns/day, 31.799 hours/ns, 8.735 timesteps/s
99.1% CPU use with 1 MPI tasks x no OpenMP threads

MPI task timing breakdown:
Section |  min time  |  avg time  |  max time  |%varavg| %total
---------------------------------------------------------------
Pair    | 29.558     | 29.558     | 29.558     |   0.0 | 52.16
Neigh   | 25.309     | 25.309     | 25.309     |   0.0 | 44.66
Comm    | 0.65663    | 0.65663    | 0.65663    |   0.0 |  1.16
Output  | 0.00024104 | 0.00024104 | 0.00024104 |   0.0 |  0.00
Modify  | 0.92974    | 0.92974    | 0.92974    |   0.0 |  1.64
Other   |            | 0.2136     |            |       |  0.38

Nlocal:    19652 ave 19652 max 19652 min
Histogram: 1 0 0 0 0 0 0 0 0 0
Nghost:    13612 ave 13612 max 13612 min
Histogram: 1 0 0 0 0 0 0 0 0 0
Neighs:    685996 ave 685996 max 685996 min
Histogram: 1 0 0 0 0 0 0 0 0 0

Total # of neighbors = 685996
Ave neighs/atom = 34.9072
Neighbor list builds = 495
Dangerous builds not checked
Setting up Verlet run ...
  Unit style    : metal
  Current step  : 44495
  Time step     : 0.001
Per MPI rank memory allocation (min/avg/max) = 18.2 | 18.2 | 18.2 Mbytes
Step Temp Press TotEng PotEng Enthalpy 
   44495    2310.8604    -502.5401   -69727.516   -75597.311   -69948.044 
   46000    2303.5787   -541.07401   -69801.353   -75652.653   -70038.802 
Loop time of 158.801 on 1 procs for 1505 steps with 19652 atoms

Performance: 0.819 ns/day, 29.310 hours/ns, 9.477 timesteps/s
99.6% CPU use with 1 MPI tasks x no OpenMP threads

MPI task timing breakdown:
Section |  min time  |  avg time  |  max time  |%varavg| %total
---------------------------------------------------------------
Pair    | 79.471     | 79.471     | 79.471     |   0.0 | 50.04
Neigh   | 74.516     | 74.516     | 74.516     |   0.0 | 46.92
Comm    | 1.6437     | 1.6437     | 1.6437     |   0.0 |  1.04
Output  | 0.064424   | 0.064424   | 0.064424   |   0.0 |  0.04
Modify  | 2.4863     | 2.4863     | 2.4863     |   0.0 |  1.57
Other   |            | 0.62       |            |       |  0.39

Nlocal:    19652 ave 19652 max 19652 min
Histogram: 1 0 0 0 0 0 0 0 0 0
Nghost:    13570 ave 13570 max 13570 min
Histogram: 1 0 0 0 0 0 0 0 0 0
Neighs:    685965 ave 685965 max 685965 min
Histogram: 1 0 0 0 0 0 0 0 0 0

Total # of neighbors = 685965
Ave neighs/atom = 34.9056
Neighbor list builds = 1505
Dangerous builds not checked
Setting up Verlet run ...
  Unit style    : metal
  Current step  : 46000
  Time step     : 0.001
Per MPI rank memory allocation (min/avg/max) = 18.2 | 18.2 | 18.2 Mbytes
Step Temp Press TotEng PotEng Enthalpy 
   46000    2303.5787   -541.07401   -69801.353   -75652.653   -70038.802 
   46495    2261.8396   -71.450286   -70064.907   -75810.185   -70096.124 
Loop time of 52.4304 on 1 procs for 495 steps with 19652 atoms

Performance: 0.816 ns/day, 29.422 hours/ns, 9.441 timesteps/s
100.0% CPU use with 1 MPI tasks x no OpenMP threads

MPI task timing breakdown:
Section |  min time  |  avg time  |  max time  |%varavg| %total
---------------------------------------------------------------
Pair    | 26.847     | 26.847     | 26.847     |   0.0 | 51.21
Neigh   | 24.018     | 24.018     | 24.018     |   0.0 | 45.81
Comm    | 0.56107    | 0.56107    | 0.56107    |   0.0 |  1.07
Output  | 0.00027299 | 0.00027299 | 0.00027299 |   0.0 |  0.00
Modify  | 0.80069    | 0.80069    | 0.80069    |   0.0 |  1.53
Other   |            | 0.2031     |            |       |  0.39

Nlocal:    19652 ave 19652 max 19652 min
Histogram: 1 0 0 0 0 0 0 0 0 0
Nghost:    13554 ave 13554 max 13554 min
Histogram: 1 0 0 0 0 0 0 0 0 0
Neighs:    688580 ave 688580 max 688580 min
Histogram: 1 0 0 0 0 0 0 0 0 0

Total # of neighbors = 688580
Ave neighs/atom = 35.0387
Neighbor list builds = 495
Dangerous builds not checked
Setting up Verlet run ...
  Unit style    : metal
  Current step  : 46495
  Time step     : 0.001
Per MPI rank memory allocation (min/avg/max) = 18.2 | 18.2 | 18.2 Mbytes
Step Temp Press TotEng PotEng Enthalpy 
   46495    2261.8396   -71.450286   -70064.907   -75810.185   -70096.124 
   48000    2258.6233   -45.171013   -70121.976   -75859.085   -70141.713 
Loop time of 163.765 on 1 procs for 1505 steps with 19652 atoms

Performance: 0.794 ns/day, 30.226 hours/ns, 9.190 timesteps/s
98.0% CPU use with 1 MPI tasks x no OpenMP threads

MPI task timing breakdown:
Section |  min time  |  avg time  |  max time  |%varavg| %total
---------------------------------------------------------------
Pair    | 82.245     | 82.245     | 82.245     |   0.0 | 50.22
Neigh   | 74.54      | 74.54      | 74.54      |   0.0 | 45.52
Comm    | 1.6829     | 1.6829     | 1.6829     |   0.0 |  1.03
Output  | 2.2119     | 2.2119     | 2.2119     |   0.0 |  1.35
Modify  | 2.4593     | 2.4593     | 2.4593     |   0.0 |  1.50
Other   |            | 0.6256     |            |       |  0.38

Nlocal:    19652 ave 19652 max 19652 min
Histogram: 1 0 0 0 0 0 0 0 0 0
Nghost:    13616 ave 13616 max 13616 min
Histogram: 1 0 0 0 0 0 0 0 0 0
Neighs:    688607 ave 688607 max 688607 min
Histogram: 1 0 0 0 0 0 0 0 0 0

Total # of neighbors = 688607
Ave neighs/atom = 35.04
Neighbor list builds = 1505
Dangerous builds not checked
Setting up Verlet run ...
  Unit style    : metal
  Current step  : 48000
  Time step     : 0.001
Per MPI rank memory allocation (min/avg/max) = 18.2 | 18.2 | 18.2 Mbytes
Step Temp Press TotEng PotEng Enthalpy 
   48000    2258.6233   -45.171013   -70121.976   -75859.085   -70141.713 
   48495    2198.1474    150.99253   -70374.535    -75958.03   -70308.706 
Loop time of 50.6645 on 1 procs for 495 steps with 19652 atoms

Performance: 0.844 ns/day, 28.431 hours/ns, 9.770 timesteps/s
99.0% CPU use with 1 MPI tasks x no OpenMP threads

MPI task timing breakdown:
Section |  min time  |  avg time  |  max time  |%varavg| %total
---------------------------------------------------------------
Pair    | 25.32      | 25.32      | 25.32      |   0.0 | 49.98
Neigh   | 23.815     | 23.815     | 23.815     |   0.0 | 47.00
Comm    | 0.52555    | 0.52555    | 0.52555    |   0.0 |  1.04
Output  | 0.00022602 | 0.00022602 | 0.00022602 |   0.0 |  0.00
Modify  | 0.80276    | 0.80276    | 0.80276    |   0.0 |  1.58
Other   |            | 0.2016     |            |       |  0.40

Nlocal:    19652 ave 19652 max 19652 min
Histogram: 1 0 0 0 0 0 0 0 0 0
Nghost:    13552 ave 13552 max 13552 min
Histogram: 1 0 0 0 0 0 0 0 0 0
Neighs:    689356 ave 689356 max 689356 min
Histogram: 1 0 0 0 0 0 0 0 0 0

Total # of neighbors = 689356
Ave neighs/atom = 35.0782
Neighbor list builds = 495
Dangerous builds not checked
Setting up Verlet run ...
  Unit style    : metal
  Current step  : 48495
  Time step     : 0.001
Per MPI rank memory allocation (min/avg/max) = 18.2 | 18.2 | 18.2 Mbytes
Step Temp Press TotEng PotEng Enthalpy 
   48495    2198.1474    150.99253   -70374.535    -75958.03   -70308.706 
   50000    2197.6637   -600.49258   -70381.271   -75963.537   -70643.845 
Loop time of 164.868 on 1 procs for 1505 steps with 19652 atoms

Performance: 0.789 ns/day, 30.430 hours/ns, 9.129 timesteps/s
99.3% CPU use with 1 MPI tasks x no OpenMP threads

MPI task timing breakdown:
Section |  min time  |  avg time  |  max time  |%varavg| %total
---------------------------------------------------------------
Pair    | 84.039     | 84.039     | 84.039     |   0.0 | 50.97
Neigh   | 75.518     | 75.518     | 75.518     |   0.0 | 45.81
Comm    | 1.7415     | 1.7415     | 1.7415     |   0.0 |  1.06
Output  | 0.41111    | 0.41111    | 0.41111    |   0.0 |  0.25
Modify  | 2.5317     | 2.5317     | 2.5317     |   0.0 |  1.54
Other   |            | 0.6267     |            |       |  0.38

Nlocal:    19652 ave 19652 max 19652 min
Histogram: 1 0 0 0 0 0 0 0 0 0
Nghost:    13598 ave 13598 max 13598 min
Histogram: 1 0 0 0 0 0 0 0 0 0
Neighs:    687355 ave 687355 max 687355 min
Histogram: 1 0 0 0 0 0 0 0 0 0

Total # of neighbors = 687355
Ave neighs/atom = 34.9763
Neighbor list builds = 1505
Dangerous builds not checked
Setting up Verlet run ...
  Unit style    : metal
  Current step  : 50000
  Time step     : 0.001
Per MPI rank memory allocation (min/avg/max) = 18.2 | 18.2 | 18.2 Mbytes
Step Temp Press TotEng PotEng Enthalpy 
   50000    2197.6637   -600.49258   -70381.271   -75963.537   -70643.845 
   50495    2146.5331   -109.99198   -70622.129   -76074.518   -70670.051 
Loop time of 50.183 on 1 procs for 495 steps with 19652 atoms

Performance: 0.852 ns/day, 28.161 hours/ns, 9.864 timesteps/s
99.4% CPU use with 1 MPI tasks x no OpenMP threads

MPI task timing breakdown:
Section |  min time  |  avg time  |  max time  |%varavg| %total
---------------------------------------------------------------
Pair    | 25.013     | 25.013     | 25.013     |   0.0 | 49.84
Neigh   | 23.652     | 23.652     | 23.652     |   0.0 | 47.13
Comm    | 0.52428    | 0.52428    | 0.52428    |   0.0 |  1.04
Output  | 0.00023699 | 0.00023699 | 0.00023699 |   0.0 |  0.00
Modify  | 0.79196    | 0.79196    | 0.79196    |   0.0 |  1.58
Other   |            | 0.2014     |            |       |  0.40

Nlocal:    19652 ave 19652 max 19652 min
Histogram: 1 0 0 0 0 0 0 0 0 0
Nghost:    13613 ave 13613 max 13613 min
Histogram: 1 0 0 0 0 0 0 0 0 0
Neighs:    689959 ave 689959 max 689959 min
Histogram: 1 0 0 0 0 0 0 0 0 0

Total # of neighbors = 689959
Ave neighs/atom = 35.1088
Neighbor list builds = 495
Dangerous builds not checked
Setting up Verlet run ...
  Unit style    : metal
  Current step  : 50495
  Time step     : 0.001
Per MPI rank memory allocation (min/avg/max) = 18.2 | 18.2 | 18.2 Mbytes
Step Temp Press TotEng PotEng Enthalpy 
   50495    2146.5331   -109.99198   -70622.129   -76074.518   -70670.051 
   52000    2149.5919    154.21099   -70736.037   -76196.196   -70668.985 
Loop time of 166.34 on 1 procs for 1505 steps with 19652 atoms

Performance: 0.782 ns/day, 30.701 hours/ns, 9.048 timesteps/s
99.1% CPU use with 1 MPI tasks x no OpenMP threads

MPI task timing breakdown:
Section |  min time  |  avg time  |  max time  |%varavg| %total
---------------------------------------------------------------
Pair    | 84.556     | 84.556     | 84.556     |   0.0 | 50.83
Neigh   | 76.764     | 76.764     | 76.764     |   0.0 | 46.15
Comm    | 1.7197     | 1.7197     | 1.7197     |   0.0 |  1.03
Output  | 0.073132   | 0.073132   | 0.073132   |   0.0 |  0.04
Modify  | 2.5885     | 2.5885     | 2.5885     |   0.0 |  1.56
Other   |            | 0.6388     |            |       |  0.38

Nlocal:    19652 ave 19652 max 19652 min
Histogram: 1 0 0 0 0 0 0 0 0 0
Nghost:    13612 ave 13612 max 13612 min
Histogram: 1 0 0 0 0 0 0 0 0 0
Neighs:    690627 ave 690627 max 690627 min
Histogram: 1 0 0 0 0 0 0 0 0 0

Total # of neighbors = 690627
Ave neighs/atom = 35.1428
Neighbor list builds = 1505
Dangerous builds not checked
Setting up Verlet run ...
  Unit style    : metal
  Current step  : 52000
  Time step     : 0.001
Per MPI rank memory allocation (min/avg/max) = 18.2 | 18.2 | 18.2 Mbytes
Step Temp Press TotEng PotEng Enthalpy 
   52000    2149.5919    154.21099   -70736.037   -76196.196   -70668.985 
   52495    2100.8837   -110.25841   -70961.885   -76298.321   -71009.748 
Loop time of 53.1966 on 1 procs for 495 steps with 19652 atoms

Performance: 0.804 ns/day, 29.852 hours/ns, 9.305 timesteps/s
96.6% CPU use with 1 MPI tasks x no OpenMP threads

MPI task timing breakdown:
Section |  min time  |  avg time  |  max time  |%varavg| %total
---------------------------------------------------------------
Pair    | 26.887     | 26.887     | 26.887     |   0.0 | 50.54
Neigh   | 24.774     | 24.774     | 24.774     |   0.0 | 46.57
Comm    | 0.54757    | 0.54757    | 0.54757    |   0.0 |  1.03
Output  | 0.0002799  | 0.0002799  | 0.0002799  |   0.0 |  0.00
Modify  | 0.78743    | 0.78743    | 0.78743    |   0.0 |  1.48
Other   |            | 0.2003     |            |       |  0.38

Nlocal:    19652 ave 19652 max 19652 min
Histogram: 1 0 0 0 0 0 0 0 0 0
Nghost:    13612 ave 13612 max 13612 min
Histogram: 1 0 0 0 0 0 0 0 0 0
Neighs:    692088 ave 692088 max 692088 min
Histogram: 1 0 0 0 0 0 0 0 0 0

Total # of neighbors = 692088
Ave neighs/atom = 35.2172
Neighbor list builds = 495
Dangerous builds not checked
Setting up Verlet run ...
  Unit style    : metal
  Current step  : 52495
  Time step     : 0.001
Per MPI rank memory allocation (min/avg/max) = 18.2 | 18.2 | 18.2 Mbytes
Step Temp Press TotEng PotEng Enthalpy 
   52495    2100.8837   -110.25841   -70961.885   -76298.321   -71009.748 
   54000    2087.9785    262.03332   -71138.068   -76441.724   -71024.601 
Loop time of 168.181 on 1 procs for 1505 steps with 19652 atoms

Performance: 0.773 ns/day, 31.041 hours/ns, 8.949 timesteps/s
98.1% CPU use with 1 MPI tasks x no OpenMP threads

MPI task timing breakdown:
Section |  min time  |  avg time  |  max time  |%varavg| %total
---------------------------------------------------------------
Pair    | 86.953     | 86.953     | 86.953     |   0.0 | 51.70
Neigh   | 75.987     | 75.987     | 75.987     |   0.0 | 45.18
Comm    | 1.8625     | 1.8625     | 1.8625     |   0.0 |  1.11
Output  | 0.068425   | 0.068425   | 0.068425   |   0.0 |  0.04
Modify  | 2.6759     | 2.6759     | 2.6759     |   0.0 |  1.59
Other   |            | 0.6337     |            |       |  0.38

Nlocal:    19652 ave 19652 max 19652 min
Histogram: 1 0 0 0 0 0 0 0 0 0
Nghost:    13566 ave 13566 max 13566 min
Histogram: 1 0 0 0 0 0 0 0 0 0
Neighs:    693496 ave 693496 max 693496 min
Histogram: 1 0 0 0 0 0 0 0 0 0

Total # of neighbors = 693496
Ave neighs/atom = 35.2888
Neighbor list builds = 1505
Dangerous builds not checked
Setting up Verlet run ...
  Unit style    : metal
  Current step  : 54000
  Time step     : 0.001
Per MPI rank memory allocation (min/avg/max) = 18.2 | 18.2 | 18.2 Mbytes
Step Temp Press TotEng PotEng Enthalpy 
   54000    2087.9785    262.03332   -71138.068   -76441.724   -71024.601 
   54495    2061.9253    147.07874   -71281.908   -76519.386   -71218.229 
Loop time of 52.5099 on 1 procs for 495 steps with 19652 atoms

Performance: 0.814 ns/day, 29.467 hours/ns, 9.427 timesteps/s
99.7% CPU use with 1 MPI tasks x no OpenMP threads

MPI task timing breakdown:
Section |  min time  |  avg time  |  max time  |%varavg| %total
---------------------------------------------------------------
Pair    | 26.505     | 26.505     | 26.505     |   0.0 | 50.48
Neigh   | 24.437     | 24.437     | 24.437     |   0.0 | 46.54
Comm    | 0.54877    | 0.54877    | 0.54877    |   0.0 |  1.05
Output  | 0.00021505 | 0.00021505 | 0.00021505 |   0.0 |  0.00
Modify  | 0.81728    | 0.81728    | 0.81728    |   0.0 |  1.56
Other   |            | 0.2019     |            |       |  0.38

Nlocal:    19652 ave 19652 max 19652 min
Histogram: 1 0 0 0 0 0 0 0 0 0
Nghost:    13593 ave 13593 max 13593 min
Histogram: 1 0 0 0 0 0 0 0 0 0
Neighs:    692757 ave 692757 max 692757 min
Histogram: 1 0 0 0 0 0 0 0 0 0

Total # of neighbors = 692757
Ave neighs/atom = 35.2512
Neighbor list builds = 495
Dangerous builds not checked
Setting up Verlet run ...
  Unit style    : metal
  Current step  : 54495
  Time step     : 0.001
Per MPI rank memory allocation (min/avg/max) = 18.2 | 18.2 | 18.2 Mbytes
Step Temp Press TotEng PotEng Enthalpy 
   54495    2061.9253    147.07874   -71281.908   -76519.386   -71218.229 
   56000    2034.2867   -526.65483   -71382.905   -76550.179   -71611.312 
Loop time of 159.95 on 1 procs for 1505 steps with 19652 atoms

Performance: 0.813 ns/day, 29.522 hours/ns, 9.409 timesteps/s
99.2% CPU use with 1 MPI tasks x no OpenMP threads

MPI task timing breakdown:
Section |  min time  |  avg time  |  max time  |%varavg| %total
---------------------------------------------------------------
Pair    | 81.23      | 81.23      | 81.23      |   0.0 | 50.78
Neigh   | 73.825     | 73.825     | 73.825     |   0.0 | 46.16
Comm    | 1.7019     | 1.7019     | 1.7019     |   0.0 |  1.06
Output  | 0.063143   | 0.063143   | 0.063143   |   0.0 |  0.04
Modify  | 2.5091     | 2.5091     | 2.5091     |   0.0 |  1.57
Other   |            | 0.621      |            |       |  0.39

Nlocal:    19652 ave 19652 max 19652 min
Histogram: 1 0 0 0 0 0 0 0 0 0
Nghost:    13644 ave 13644 max 13644 min
Histogram: 1 0 0 0 0 0 0 0 0 0
Neighs:    691485 ave 691485 max 691485 min
Histogram: 1 0 0 0 0 0 0 0 0 0

Total # of neighbors = 691485
Ave neighs/atom = 35.1865
Neighbor list builds = 1505
Dangerous builds not checked
Setting up Verlet run ...
  Unit style    : metal
  Current step  : 56000
  Time step     : 0.001
Per MPI rank memory allocation (min/avg/max) = 18.2 | 18.2 | 18.2 Mbytes
Step Temp Press TotEng PotEng Enthalpy 
   56000    2034.2867   -526.65483   -71382.905   -76550.179   -71611.312 
   56495    1997.5731   -287.19388   -71622.619   -76696.637   -71746.913 
Loop time of 53.963 on 1 procs for 495 steps with 19652 atoms

Performance: 0.793 ns/day, 30.282 hours/ns, 9.173 timesteps/s
100.0% CPU use with 1 MPI tasks x no OpenMP threads

MPI task timing breakdown:
Section |  min time  |  avg time  |  max time  |%varavg| %total
---------------------------------------------------------------
Pair    | 27.704     | 27.704     | 27.704     |   0.0 | 51.34
Neigh   | 24.547     | 24.547     | 24.547     |   0.0 | 45.49
Comm    | 0.6111     | 0.6111     | 0.6111     |   0.0 |  1.13
Output  | 0.00020814 | 0.00020814 | 0.00020814 |   0.0 |  0.00
Modify  | 0.89091    | 0.89091    | 0.89091    |   0.0 |  1.65
Other   |            | 0.2101     |            |       |  0.39

Nlocal:    19652 ave 19652 max 19652 min
Histogram: 1 0 0 0 0 0 0 0 0 0
Nghost:    13640 ave 13640 max 13640 min
Histogram: 1 0 0 0 0 0 0 0 0 0
Neighs:    692479 ave 692479 max 692479 min
Histogram: 1 0 0 0 0 0 0 0 0 0

Total # of neighbors = 692479
Ave neighs/atom = 35.2371
Neighbor list builds = 495
Dangerous builds not checked
Setting up Verlet run ...
  Unit style    : metal
  Current step  : 56495
  Time step     : 0.001
Per MPI rank memory allocation (min/avg/max) = 18.2 | 18.2 | 18.2 Mbytes
Step Temp Press TotEng PotEng Enthalpy 
   56495    1997.5731   -287.19388   -71622.619   -76696.637   -71746.913 
   58000    2001.0764    481.05269   -71714.606   -76797.523   -71507.253 
Loop time of 161.809 on 1 procs for 1505 steps with 19652 atoms

Performance: 0.804 ns/day, 29.865 hours/ns, 9.301 timesteps/s
99.8% CPU use with 1 MPI tasks x no OpenMP threads

MPI task timing breakdown:
Section |  min time  |  avg time  |  max time  |%varavg| %total
---------------------------------------------------------------
Pair    | 82.27      | 82.27      | 82.27      |   0.0 | 50.84
Neigh   | 74.621     | 74.621     | 74.621     |   0.0 | 46.12
Comm    | 1.7001     | 1.7001     | 1.7001     |   0.0 |  1.05
Output  | 0.063173   | 0.063173   | 0.063173   |   0.0 |  0.04
Modify  | 2.5274     | 2.5274     | 2.5274     |   0.0 |  1.56
Other   |            | 0.6266     |            |       |  0.39

Nlocal:    19652 ave 19652 max 19652 min
Histogram: 1 0 0 0 0 0 0 0 0 0
Nghost:    13616 ave 13616 max 13616 min
Histogram: 1 0 0 0 0 0 0 0 0 0
Neighs:    694972 ave 694972 max 694972 min
Histogram: 1 0 0 0 0 0 0 0 0 0

Total # of neighbors = 694972
Ave neighs/atom = 35.3639
Neighbor list builds = 1505
Dangerous builds not checked
Setting up Verlet run ...
  Unit style    : metal
  Current step  : 58000
  Time step     : 0.001
Per MPI rank memory allocation (min/avg/max) = 18.2 | 18.2 | 18.2 Mbytes
Step Temp Press TotEng PotEng Enthalpy 
   58000    2001.0764    481.05269   -71714.606   -76797.523   -71507.253 
   58495    1964.2894    493.27384   -71939.317   -76928.791   -71727.029 
Loop time of 52.8406 on 1 procs for 495 steps with 19652 atoms

Performance: 0.809 ns/day, 29.652 hours/ns, 9.368 timesteps/s
99.3% CPU use with 1 MPI tasks x no OpenMP threads

MPI task timing breakdown:
Section |  min time  |  avg time  |  max time  |%varavg| %total
---------------------------------------------------------------
Pair    | 26.975     | 26.975     | 26.975     |   0.0 | 51.05
Neigh   | 24.23      | 24.23      | 24.23      |   0.0 | 45.85
Comm    | 0.57524    | 0.57524    | 0.57524    |   0.0 |  1.09
Output  | 0.00027704 | 0.00027704 | 0.00027704 |   0.0 |  0.00
Modify  | 0.85263    | 0.85263    | 0.85263    |   0.0 |  1.61
Other   |            | 0.2074     |            |       |  0.39

Nlocal:    19652 ave 19652 max 19652 min
Histogram: 1 0 0 0 0 0 0 0 0 0
Nghost:    13718 ave 13718 max 13718 min
Histogram: 1 0 0 0 0 0 0 0 0 0
Neighs:    696090 ave 696090 max 696090 min
Histogram: 1 0 0 0 0 0 0 0 0 0

Total # of neighbors = 696090
Ave neighs/atom = 35.4208
Neighbor list builds = 495
Dangerous builds not checked
Setting up Verlet run ...
  Unit style    : metal
  Current step  : 58495
  Time step     : 0.001
Per MPI rank memory allocation (min/avg/max) = 18.2 | 18.2 | 18.2 Mbytes
Step Temp Press TotEng PotEng Enthalpy 
   58495    1964.2894    493.27384   -71939.317   -76928.791   -71727.029 
   60000    1947.9281    334.27297    -72012.13   -76960.045   -71868.214 
Loop time of 168.326 on 1 procs for 1505 steps with 19652 atoms

Performance: 0.773 ns/day, 31.068 hours/ns, 8.941 timesteps/s
98.9% CPU use with 1 MPI tasks x no OpenMP threads

MPI task timing breakdown:
Section |  min time  |  avg time  |  max time  |%varavg| %total
---------------------------------------------------------------
Pair    | 87.178     | 87.178     | 87.178     |   0.0 | 51.79
Neigh   | 75.903     | 75.903     | 75.903     |   0.0 | 45.09
Comm    | 1.8897     | 1.8897     | 1.8897     |   0.0 |  1.12
Output  | 0.061851   | 0.061851   | 0.061851   |   0.0 |  0.04
Modify  | 2.6565     | 2.6565     | 2.6565     |   0.0 |  1.58
Other   |            | 0.6368     |            |       |  0.38

Nlocal:    19652 ave 19652 max 19652 min
Histogram: 1 0 0 0 0 0 0 0 0 0
Nghost:    13704 ave 13704 max 13704 min
Histogram: 1 0 0 0 0 0 0 0 0 0
Neighs:    695766 ave 695766 max 695766 min
Histogram: 1 0 0 0 0 0 0 0 0 0

Total # of neighbors = 695766
Ave neighs/atom = 35.4043
Neighbor list builds = 1505
Dangerous builds not checked
Setting up Verlet run ...
  Unit style    : metal
  Current step  : 60000
  Time step     : 0.001
Per MPI rank memory allocation (min/avg/max) = 18.2 | 18.2 | 18.2 Mbytes
Step Temp Press TotEng PotEng Enthalpy 
   60000    1947.9281    334.27297    -72012.13   -76960.045   -71868.214 
   60495    1929.5014     379.7482   -72165.591     -77066.7   -72002.319 
Loop time of 52.3231 on 1 procs for 495 steps with 19652 atoms

Performance: 0.817 ns/day, 29.362 hours/ns, 9.460 timesteps/s
99.5% CPU use with 1 MPI tasks x no OpenMP threads

MPI task timing breakdown:
Section |  min time  |  avg time  |  max time  |%varavg| %total
---------------------------------------------------------------
Pair    | 26.468     | 26.468     | 26.468     |   0.0 | 50.59
Neigh   | 24.263     | 24.263     | 24.263     |   0.0 | 46.37
Comm    | 0.55199    | 0.55199    | 0.55199    |   0.0 |  1.05
Output  | 0.000211   | 0.000211   | 0.000211   |   0.0 |  0.00
Modify  | 0.83551    | 0.83551    | 0.83551    |   0.0 |  1.60
Other   |            | 0.2044     |            |       |  0.39

Nlocal:    19652 ave 19652 max 19652 min
Histogram: 1 0 0 0 0 0 0 0 0 0
Nghost:    13618 ave 13618 max 13618 min
Histogram: 1 0 0 0 0 0 0 0 0 0
Neighs:    696214 ave 696214 max 696214 min
Histogram: 1 0 0 0 0 0 0 0 0 0

Total # of neighbors = 696214
Ave neighs/atom = 35.4271
Neighbor list builds = 495
Dangerous builds not checked
Setting up Verlet run ...
  Unit style    : metal
  Current step  : 60495
  Time step     : 0.001
Per MPI rank memory allocation (min/avg/max) = 18.2 | 18.2 | 18.2 Mbytes
Step Temp Press TotEng PotEng Enthalpy 
   60495    1929.5014     379.7482   -72165.591     -77066.7   -72002.319 
   62000    1900.0022    427.47412   -72323.694   -77149.873   -72140.091 
Loop time of 161.979 on 1 procs for 1505 steps with 19652 atoms

Performance: 0.803 ns/day, 29.896 hours/ns, 9.291 timesteps/s
99.6% CPU use with 1 MPI tasks x no OpenMP threads

MPI task timing breakdown:
Section |  min time  |  avg time  |  max time  |%varavg| %total
---------------------------------------------------------------
Pair    | 82.503     | 82.503     | 82.503     |   0.0 | 50.93
Neigh   | 74.455     | 74.455     | 74.455     |   0.0 | 45.97
Comm    | 1.7458     | 1.7458     | 1.7458     |   0.0 |  1.08
Output  | 0.064965   | 0.064965   | 0.064965   |   0.0 |  0.04
Modify  | 2.582      | 2.582      | 2.582      |   0.0 |  1.59
Other   |            | 0.6286     |            |       |  0.39

Nlocal:    19652 ave 19652 max 19652 min
Histogram: 1 0 0 0 0 0 0 0 0 0
Nghost:    13678 ave 13678 max 13678 min
Histogram: 1 0 0 0 0 0 0 0 0 0
Neighs:    697454 ave 697454 max 697454 min
Histogram: 1 0 0 0 0 0 0 0 0 0

Total # of neighbors = 697454
Ave neighs/atom = 35.4902
Neighbor list builds = 1505
Dangerous builds not checked
Setting up Verlet run ...
  Unit style    : metal
  Current step  : 62000
  Time step     : 0.001
Per MPI rank memory allocation (min/avg/max) = 18.2 | 18.2 | 18.2 Mbytes
Step Temp Press TotEng PotEng Enthalpy 
   62000    1900.0022    427.47412   -72323.694   -77149.873   -72140.091 
   62495    1861.1008    359.27533   -72500.125    -77227.49   -72346.022 
Loop time of 53.4602 on 1 procs for 495 steps with 19652 atoms

Performance: 0.800 ns/day, 30.000 hours/ns, 9.259 timesteps/s
99.7% CPU use with 1 MPI tasks x no OpenMP threads

MPI task timing breakdown:
Section |  min time  |  avg time  |  max time  |%varavg| %total
---------------------------------------------------------------
Pair    | 27.26      | 27.26      | 27.26      |   0.0 | 50.99
Neigh   | 24.552     | 24.552     | 24.552     |   0.0 | 45.93
Comm    | 0.57942    | 0.57942    | 0.57942    |   0.0 |  1.08
Output  | 0.00025296 | 0.00025296 | 0.00025296 |   0.0 |  0.00
Modify  | 0.86255    | 0.86255    | 0.86255    |   0.0 |  1.61
Other   |            | 0.2062     |            |       |  0.39

Nlocal:    19652 ave 19652 max 19652 min
Histogram: 1 0 0 0 0 0 0 0 0 0
Nghost:    13711 ave 13711 max 13711 min
Histogram: 1 0 0 0 0 0 0 0 0 0
Neighs:    697679 ave 697679 max 697679 min
Histogram: 1 0 0 0 0 0 0 0 0 0

Total # of neighbors = 697679
Ave neighs/atom = 35.5017
Neighbor list builds = 495
Dangerous builds not checked
Setting up Verlet run ...
  Unit style    : metal
  Current step  : 62495
  Time step     : 0.001
Per MPI rank memory allocation (min/avg/max) = 18.2 | 18.2 | 18.2 Mbytes
Step Temp Press TotEng PotEng Enthalpy 
   62495    1861.1008    359.27533   -72500.125    -77227.49   -72346.022 
   64000    1850.8159   -32.438429   -72599.251   -77300.492    -72613.17 
Loop time of 161.072 on 1 procs for 1505 steps with 19652 atoms

Performance: 0.807 ns/day, 29.729 hours/ns, 9.344 timesteps/s
99.4% CPU use with 1 MPI tasks x no OpenMP threads

MPI task timing breakdown:
Section |  min time  |  avg time  |  max time  |%varavg| %total
---------------------------------------------------------------
Pair    | 81.731     | 81.731     | 81.731     |   0.0 | 50.74
Neigh   | 74.317     | 74.317     | 74.317     |   0.0 | 46.14
Comm    | 1.7269     | 1.7269     | 1.7269     |   0.0 |  1.07
Output  | 0.10614    | 0.10614    | 0.10614    |   0.0 |  0.07
Modify  | 2.5614     | 2.5614     | 2.5614     |   0.0 |  1.59
Other   |            | 0.6293     |            |       |  0.39

Nlocal:    19652 ave 19652 max 19652 min
Histogram: 1 0 0 0 0 0 0 0 0 0
Nghost:    13691 ave 13691 max 13691 min
Histogram: 1 0 0 0 0 0 0 0 0 0
Neighs:    697219 ave 697219 max 697219 min
Histogram: 1 0 0 0 0 0 0 0 0 0

Total # of neighbors = 697219
Ave neighs/atom = 35.4783
Neighbor list builds = 1505
Dangerous builds not checked
Setting up Verlet run ...
  Unit style    : metal
  Current step  : 64000
  Time step     : 0.001
Per MPI rank memory allocation (min/avg/max) = 18.2 | 18.2 | 18.2 Mbytes
Step Temp Press TotEng PotEng Enthalpy 
   64000    1850.8159   -32.438429   -72599.251   -77300.492    -72613.17 
   64495    1811.4973    79.745647   -72819.779   -77421.147   -72785.599 
Loop time of 42.6964 on 1 procs for 495 steps with 19652 atoms

Performance: 1.002 ns/day, 23.960 hours/ns, 11.593 timesteps/s
99.8% CPU use with 1 MPI tasks x no OpenMP threads

MPI task timing breakdown:
Section |  min time  |  avg time  |  max time  |%varavg| %total
---------------------------------------------------------------
Pair    | 20.831     | 20.831     | 20.831     |   0.0 | 48.79
Neigh   | 20.564     | 20.564     | 20.564     |   0.0 | 48.16
Comm    | 0.45788    | 0.45788    | 0.45788    |   0.0 |  1.07
Output  | 0.00021601 | 0.00021601 | 0.00021601 |   0.0 |  0.00
Modify  | 0.66559    | 0.66559    | 0.66559    |   0.0 |  1.56
Other   |            | 0.1771     |            |       |  0.41

Nlocal:    19652 ave 19652 max 19652 min
Histogram: 1 0 0 0 0 0 0 0 0 0
Nghost:    13720 ave 13720 max 13720 min
Histogram: 1 0 0 0 0 0 0 0 0 0
Neighs:    697660 ave 697660 max 697660 min
Histogram: 1 0 0 0 0 0 0 0 0 0

Total # of neighbors = 697660
Ave neighs/atom = 35.5007
Neighbor list builds = 495
Dangerous builds not checked
Setting up Verlet run ...
  Unit style    : metal
  Current step  : 64495
  Time step     : 0.001
Per MPI rank memory allocation (min/avg/max) = 18.2 | 18.2 | 18.2 Mbytes
Step Temp Press TotEng PotEng Enthalpy 
   64495    1811.4973    79.745647   -72819.779   -77421.147   -72785.599 
   66000    1803.7724    86.489284   -72932.073    -77513.82   -72895.044 
Loop time of 159.079 on 1 procs for 1505 steps with 19652 atoms

Performance: 0.817 ns/day, 29.361 hours/ns, 9.461 timesteps/s
99.8% CPU use with 1 MPI tasks x no OpenMP threads

MPI task timing breakdown:
Section |  min time  |  avg time  |  max time  |%varavg| %total
---------------------------------------------------------------
Pair    | 80.449     | 80.449     | 80.449     |   0.0 | 50.57
Neigh   | 73.68      | 73.68      | 73.68      |   0.0 | 46.32
Comm    | 1.7222     | 1.7222     | 1.7222     |   0.0 |  1.08
Output  | 0.06541    | 0.06541    | 0.06541    |   0.0 |  0.04
Modify  | 2.5468     | 2.5468     | 2.5468     |   0.0 |  1.60
Other   |            | 0.6164     |            |       |  0.39

Nlocal:    19652 ave 19652 max 19652 min
Histogram: 1 0 0 0 0 0 0 0 0 0
Nghost:    13738 ave 13738 max 13738 min
Histogram: 1 0 0 0 0 0 0 0 0 0
Neighs:    697884 ave 697884 max 697884 min
Histogram: 1 0 0 0 0 0 0 0 0 0

Total # of neighbors = 697884
Ave neighs/atom = 35.5121
Neighbor list builds = 1505
Dangerous builds not checked
Setting up Verlet run ...
  Unit style    : metal
  Current step  : 66000
  Time step     : 0.001
Per MPI rank memory allocation (min/avg/max) = 18.2 | 18.2 | 18.2 Mbytes
Step Temp Press TotEng PotEng Enthalpy 
   66000    1803.7724    86.489284   -72932.073    -77513.82   -72895.044 
   66495    1765.1814    110.86963   -73125.607   -77609.328   -73078.209 
Loop time of 48.0554 on 1 procs for 495 steps with 19652 atoms

Performance: 0.890 ns/day, 26.967 hours/ns, 10.301 timesteps/s
99.7% CPU use with 1 MPI tasks x no OpenMP threads

MPI task timing breakdown:
Section |  min time  |  avg time  |  max time  |%varavg| %total
---------------------------------------------------------------
Pair    | 23.876     | 23.876     | 23.876     |   0.0 | 49.69
Neigh   | 22.732     | 22.732     | 22.732     |   0.0 | 47.30
Comm    | 0.50249    | 0.50249    | 0.50249    |   0.0 |  1.05
Output  | 0.00026989 | 0.00026989 | 0.00026989 |   0.0 |  0.00
Modify  | 0.75581    | 0.75581    | 0.75581    |   0.0 |  1.57
Other   |            | 0.188      |            |       |  0.39

Nlocal:    19652 ave 19652 max 19652 min
Histogram: 1 0 0 0 0 0 0 0 0 0
Nghost:    13730 ave 13730 max 13730 min
Histogram: 1 0 0 0 0 0 0 0 0 0
Neighs:    698863 ave 698863 max 698863 min
Histogram: 1 0 0 0 0 0 0 0 0 0

Total # of neighbors = 698863
Ave neighs/atom = 35.5619
Neighbor list builds = 495
Dangerous builds not checked
Setting up Verlet run ...
  Unit style    : metal
  Current step  : 66495
  Time step     : 0.001
Per MPI rank memory allocation (min/avg/max) = 18.2 | 18.2 | 18.2 Mbytes
Step Temp Press TotEng PotEng Enthalpy 
   66495    1765.1814    110.86963   -73125.607   -77609.328   -73078.209 
   68000    1742.7453   -287.26901   -73285.863   -77712.595   -73408.751 
Loop time of 138.04 on 1 procs for 1505 steps with 19652 atoms

Performance: 0.942 ns/day, 25.478 hours/ns, 10.903 timesteps/s
100.0% CPU use with 1 MPI tasks x no OpenMP threads

MPI task timing breakdown:
Section |  min time  |  avg time  |  max time  |%varavg| %total
---------------------------------------------------------------
Pair    | 67.772     | 67.772     | 67.772     |   0.0 | 49.10
Neigh   | 66.05      | 66.05      | 66.05      |   0.0 | 47.85
Comm    | 1.4565     | 1.4565     | 1.4565     |   0.0 |  1.06
Output  | 0.054116   | 0.054116   | 0.054116   |   0.0 |  0.04
Modify  | 2.1654     | 2.1654     | 2.1654     |   0.0 |  1.57
Other   |            | 0.5414     |            |       |  0.39

Nlocal:    19652 ave 19652 max 19652 min
Histogram: 1 0 0 0 0 0 0 0 0 0
Nghost:    13715 ave 13715 max 13715 min
Histogram: 1 0 0 0 0 0 0 0 0 0
Neighs:    697580 ave 697580 max 697580 min
Histogram: 1 0 0 0 0 0 0 0 0 0

Total # of neighbors = 697580
Ave neighs/atom = 35.4966
Neighbor list builds = 1505
Dangerous builds not checked
Setting up Verlet run ...
  Unit style    : metal
  Current step  : 68000
  Time step     : 0.001
Per MPI rank memory allocation (min/avg/max) = 18.2 | 18.2 | 18.2 Mbytes
Step Temp Press TotEng PotEng Enthalpy 
   68000    1742.7453   -287.26901   -73285.863   -77712.595   -73408.751 
   68495    1720.8617   -408.58332   -73509.583   -77880.729   -73684.008 
Loop time of 45.2497 on 1 procs for 495 steps with 19652 atoms

Performance: 0.945 ns/day, 25.393 hours/ns, 10.939 timesteps/s
100.0% CPU use with 1 MPI tasks x no OpenMP threads

MPI task timing breakdown:
Section |  min time  |  avg time  |  max time  |%varavg| %total
---------------------------------------------------------------
Pair    | 22.192     | 22.192     | 22.192     |   0.0 | 49.04
Neigh   | 21.685     | 21.685     | 21.685     |   0.0 | 47.92
Comm    | 0.48202    | 0.48202    | 0.48202    |   0.0 |  1.07
Output  | 0.00020599 | 0.00020599 | 0.00020599 |   0.0 |  0.00
Modify  | 0.71367    | 0.71367    | 0.71367    |   0.0 |  1.58
Other   |            | 0.1763     |            |       |  0.39

Nlocal:    19652 ave 19652 max 19652 min
Histogram: 1 0 0 0 0 0 0 0 0 0
Nghost:    13709 ave 13709 max 13709 min
Histogram: 1 0 0 0 0 0 0 0 0 0
Neighs:    698362 ave 698362 max 698362 min
Histogram: 1 0 0 0 0 0 0 0 0 0

Total # of neighbors = 698362
Ave neighs/atom = 35.5364
Neighbor list builds = 495
Dangerous builds not checked
Setting up Verlet run ...
  Unit style    : metal
  Current step  : 68495
  Time step     : 0.001
Per MPI rank memory allocation (min/avg/max) = 18.2 | 18.2 | 18.2 Mbytes
Step Temp Press TotEng PotEng Enthalpy 
   68495    1720.8617   -408.58332   -73509.583   -77880.729   -73684.008 
   70000    1702.9731     251.9735   -73606.165   -77931.871   -73498.875 
Loop time of 142.05 on 1 procs for 1505 steps with 19652 atoms

Performance: 0.915 ns/day, 26.218 hours/ns, 10.595 timesteps/s
99.8% CPU use with 1 MPI tasks x no OpenMP threads

MPI task timing breakdown:
Section |  min time  |  avg time  |  max time  |%varavg| %total
---------------------------------------------------------------
Pair    | 69.978     | 69.978     | 69.978     |   0.0 | 49.26
Neigh   | 67.651     | 67.651     | 67.651     |   0.0 | 47.63
Comm    | 1.5191     | 1.5191     | 1.5191     |   0.0 |  1.07
Output  | 0.10924    | 0.10924    | 0.10924    |   0.0 |  0.08
Modify  | 2.2323     | 2.2323     | 2.2323     |   0.0 |  1.57
Other   |            | 0.5594     |            |       |  0.39

Nlocal:    19652 ave 19652 max 19652 min
Histogram: 1 0 0 0 0 0 0 0 0 0
Nghost:    13637 ave 13637 max 13637 min
Histogram: 1 0 0 0 0 0 0 0 0 0
Neighs:    700081 ave 700081 max 700081 min
Histogram: 1 0 0 0 0 0 0 0 0 0

Total # of neighbors = 700081
Ave neighs/atom = 35.6239
Neighbor list builds = 1505
Dangerous builds not checked
Setting up Verlet run ...
  Unit style    : metal
  Current step  : 70000
  Time step     : 0.001
Per MPI rank memory allocation (min/avg/max) = 18.2 | 18.2 | 18.2 Mbytes
Step Temp Press TotEng PotEng Enthalpy 
   70000    1702.9731     251.9735   -73606.165   -77931.871   -73498.875 
   70495    1665.9033    363.59659   -73797.056   -78028.602   -73642.391 
Loop time of 46.3231 on 1 procs for 495 steps with 19652 atoms

Performance: 0.923 ns/day, 25.995 hours/ns, 10.686 timesteps/s
99.2% CPU use with 1 MPI tasks x no OpenMP threads

MPI task timing breakdown:
Section |  min time  |  avg time  |  max time  |%varavg| %total
---------------------------------------------------------------
Pair    | 22.952     | 22.952     | 22.952     |   0.0 | 49.55
Neigh   | 21.938     | 21.938     | 21.938     |   0.0 | 47.36
Comm    | 0.51298    | 0.51298    | 0.51298    |   0.0 |  1.11
Output  | 0.00020099 | 0.00020099 | 0.00020099 |   0.0 |  0.00
Modify  | 0.73518    | 0.73518    | 0.73518    |   0.0 |  1.59
Other   |            | 0.1846     |            |       |  0.40

Nlocal:    19652 ave 19652 max 19652 min
Histogram: 1 0 0 0 0 0 0 0 0 0
Nghost:    13695 ave 13695 max 13695 min
Histogram: 1 0 0 0 0 0 0 0 0 0
Neighs:    700551 ave 700551 max 700551 min
Histogram: 1 0 0 0 0 0 0 0 0 0

Total # of neighbors = 700551
Ave neighs/atom = 35.6478
Neighbor list builds = 495
Dangerous builds not checked
Setting up Verlet run ...
  Unit style    : metal
  Current step  : 70495
  Time step     : 0.001
Per MPI rank memory allocation (min/avg/max) = 18.2 | 18.2 | 18.2 Mbytes
Step Temp Press TotEng PotEng Enthalpy 
   70495    1665.9033    363.59659   -73797.056   -78028.602   -73642.391 
   72000    1644.1154    538.02181   -73899.515   -78075.717   -73671.035 
Loop time of 139.791 on 1 procs for 1505 steps with 19652 atoms

Performance: 0.930 ns/day, 25.801 hours/ns, 10.766 timesteps/s
99.9% CPU use with 1 MPI tasks x no OpenMP threads

MPI task timing breakdown:
Section |  min time  |  avg time  |  max time  |%varavg| %total
---------------------------------------------------------------
Pair    | 68.725     | 68.725     | 68.725     |   0.0 | 49.16
Neigh   | 66.788     | 66.788     | 66.788     |   0.0 | 47.78
Comm    | 1.4845     | 1.4845     | 1.4845     |   0.0 |  1.06
Output  | 0.054962   | 0.054962   | 0.054962   |   0.0 |  0.04
Modify  | 2.1917     | 2.1917     | 2.1917     |   0.0 |  1.57
Other   |            | 0.5466     |            |       |  0.39

Nlocal:    19652 ave 19652 max 19652 min
Histogram: 1 0 0 0 0 0 0 0 0 0
Nghost:    13789 ave 13789 max 13789 min
Histogram: 1 0 0 0 0 0 0 0 0 0
Neighs:    701650 ave 701650 max 701650 min
Histogram: 1 0 0 0 0 0 0 0 0 0

Total # of neighbors = 701650
Ave neighs/atom = 35.7037
Neighbor list builds = 1505
Dangerous builds not checked
Setting up Verlet run ...
  Unit style    : metal
  Current step  : 72000
  Time step     : 0.001
Per MPI rank memory allocation (min/avg/max) = 18.2 | 18.2 | 18.2 Mbytes
Step Temp Press TotEng PotEng Enthalpy 
   72000    1644.1154    538.02181   -73899.515   -78075.717   -73671.035 
   72495    1627.7473    452.13054   -74131.834   -78266.461   -73940.092 
Loop time of 43.1327 on 1 procs for 495 steps with 19652 atoms

Performance: 0.992 ns/day, 24.205 hours/ns, 11.476 timesteps/s
100.0% CPU use with 1 MPI tasks x no OpenMP threads

MPI task timing breakdown:
Section |  min time  |  avg time  |  max time  |%varavg| %total
---------------------------------------------------------------
Pair    | 20.95      | 20.95      | 20.95      |   0.0 | 48.57
Neigh   | 20.891     | 20.891     | 20.891     |   0.0 | 48.43
Comm    | 0.45183    | 0.45183    | 0.45183    |   0.0 |  1.05
Output  | 0.00015187 | 0.00015187 | 0.00015187 |   0.0 |  0.00
Modify  | 0.67025    | 0.67025    | 0.67025    |   0.0 |  1.55
Other   |            | 0.1696     |            |       |  0.39

Nlocal:    19652 ave 19652 max 19652 min
Histogram: 1 0 0 0 0 0 0 0 0 0
Nghost:    13764 ave 13764 max 13764 min
Histogram: 1 0 0 0 0 0 0 0 0 0
Neighs:    701812 ave 701812 max 701812 min
Histogram: 1 0 0 0 0 0 0 0 0 0

Total # of neighbors = 701812
Ave neighs/atom = 35.712
Neighbor list builds = 495
Dangerous builds not checked
Setting up Verlet run ...
  Unit style    : metal
  Current step  : 72495
  Time step     : 0.001
Per MPI rank memory allocation (min/avg/max) = 18.2 | 18.2 | 18.2 Mbytes
Step Temp Press TotEng PotEng Enthalpy 
   72495    1627.7473    452.13054   -74131.834   -78266.461   -73940.092 
   74000    1592.0854   -662.02385   -74309.121   -78353.163   -74590.344 
Loop time of 144.076 on 1 procs for 1505 steps with 19652 atoms

Performance: 0.903 ns/day, 26.592 hours/ns, 10.446 timesteps/s
99.8% CPU use with 1 MPI tasks x no OpenMP threads

MPI task timing breakdown:
Section |  min time  |  avg time  |  max time  |%varavg| %total
---------------------------------------------------------------
Pair    | 71.312     | 71.312     | 71.312     |   0.0 | 49.50
Neigh   | 68.255     | 68.255     | 68.255     |   0.0 | 47.37
Comm    | 1.5335     | 1.5335     | 1.5335     |   0.0 |  1.06
Output  | 0.12125    | 0.12125    | 0.12125    |   0.0 |  0.08
Modify  | 2.2861     | 2.2861     | 2.2861     |   0.0 |  1.59
Other   |            | 0.5686     |            |       |  0.39

Nlocal:    19652 ave 19652 max 19652 min
Histogram: 1 0 0 0 0 0 0 0 0 0
Nghost:    13768 ave 13768 max 13768 min
Histogram: 1 0 0 0 0 0 0 0 0 0
Neighs:    700299 ave 700299 max 700299 min
Histogram: 1 0 0 0 0 0 0 0 0 0

Total # of neighbors = 700299
Ave neighs/atom = 35.635
Neighbor list builds = 1505
Dangerous builds not checked
Setting up Verlet run ...
  Unit style    : metal
  Current step  : 74000
  Time step     : 0.001
Per MPI rank memory allocation (min/avg/max) = 18.2 | 18.2 | 18.2 Mbytes
Step Temp Press TotEng PotEng Enthalpy 
   74000    1592.0854   -662.02385   -74309.121   -78353.163   -74590.344 
   74495    1551.8116   -517.85788   -74504.685   -78446.428   -74724.405 
Loop time of 47.6137 on 1 procs for 495 steps with 19652 atoms

Performance: 0.898 ns/day, 26.719 hours/ns, 10.396 timesteps/s
99.9% CPU use with 1 MPI tasks x no OpenMP threads

MPI task timing breakdown:
Section |  min time  |  avg time  |  max time  |%varavg| %total
---------------------------------------------------------------
Pair    | 23.683     | 23.683     | 23.683     |   0.0 | 49.74
Neigh   | 22.474     | 22.474     | 22.474     |   0.0 | 47.20
Comm    | 0.51125    | 0.51125    | 0.51125    |   0.0 |  1.07
Output  | 0.00024104 | 0.00024104 | 0.00024104 |   0.0 |  0.00
Modify  | 0.75273    | 0.75273    | 0.75273    |   0.0 |  1.58
Other   |            | 0.1916     |            |       |  0.40

Nlocal:    19652 ave 19652 max 19652 min
Histogram: 1 0 0 0 0 0 0 0 0 0
Nghost:    13727 ave 13727 max 13727 min
Histogram: 1 0 0 0 0 0 0 0 0 0
Neighs:    700945 ave 700945 max 700945 min
Histogram: 1 0 0 0 0 0 0 0 0 0

Total # of neighbors = 700945
Ave neighs/atom = 35.6679
Neighbor list builds = 495
Dangerous builds not checked
Setting up Verlet run ...
  Unit style    : metal
  Current step  : 74495
  Time step     : 0.001
Per MPI rank memory allocation (min/avg/max) = 18.2 | 18.2 | 18.2 Mbytes
Step Temp Press TotEng PotEng Enthalpy 
   74495    1551.8116   -517.85788   -74504.685   -78446.428   -74724.405 
   76000    1525.8228   -1036.4041   -74681.813   -78557.542   -75121.574 
Loop time of 140.683 on 1 procs for 1505 steps with 19652 atoms

Performance: 0.924 ns/day, 25.966 hours/ns, 10.698 timesteps/s
99.9% CPU use with 1 MPI tasks x no OpenMP threads

MPI task timing breakdown:
Section |  min time  |  avg time  |  max time  |%varavg| %total
---------------------------------------------------------------
Pair    | 69.557     | 69.557     | 69.557     |   0.0 | 49.44
Neigh   | 66.817     | 66.817     | 66.817     |   0.0 | 47.49
Comm    | 1.4896     | 1.4896     | 1.4896     |   0.0 |  1.06
Output  | 0.053465   | 0.053465   | 0.053465   |   0.0 |  0.04
Modify  | 2.2058     | 2.2058     | 2.2058     |   0.0 |  1.57
Other   |            | 0.5597     |            |       |  0.40

Nlocal:    19652 ave 19652 max 19652 min
Histogram: 1 0 0 0 0 0 0 0 0 0
Nghost:    13756 ave 13756 max 13756 min
Histogram: 1 0 0 0 0 0 0 0 0 0
Neighs:    700357 ave 700357 max 700357 min
Histogram: 1 0 0 0 0 0 0 0 0 0

Total # of neighbors = 700357
Ave neighs/atom = 35.638
Neighbor list builds = 1505
Dangerous builds not checked
Setting up Verlet run ...
  Unit style    : metal
  Current step  : 76000
  Time step     : 0.001
Per MPI rank memory allocation (min/avg/max) = 18.2 | 18.2 | 18.2 Mbytes
Step Temp Press TotEng PotEng Enthalpy 
   76000    1525.8228   -1036.4041   -74681.813   -78557.542   -75121.574 
   76495    1500.6654   -885.84641   -74791.228   -78603.055    -75166.53 
Loop time of 49.8634 on 1 procs for 495 steps with 19652 atoms

Performance: 0.858 ns/day, 27.982 hours/ns, 9.927 timesteps/s
99.6% CPU use with 1 MPI tasks x no OpenMP threads

MPI task timing breakdown:
Section |  min time  |  avg time  |  max time  |%varavg| %total
---------------------------------------------------------------
Pair    | 25.065     | 25.065     | 25.065     |   0.0 | 50.27
Neigh   | 23.281     | 23.281     | 23.281     |   0.0 | 46.69
Comm    | 0.5252     | 0.5252     | 0.5252     |   0.0 |  1.05
Output  | 0.0002718  | 0.0002718  | 0.0002718  |   0.0 |  0.00
Modify  | 0.79622    | 0.79622    | 0.79622    |   0.0 |  1.60
Other   |            | 0.1966     |            |       |  0.39

Nlocal:    19652 ave 19652 max 19652 min
Histogram: 1 0 0 0 0 0 0 0 0 0
Nghost:    13711 ave 13711 max 13711 min
Histogram: 1 0 0 0 0 0 0 0 0 0
Neighs:    700945 ave 700945 max 700945 min
Histogram: 1 0 0 0 0 0 0 0 0 0

Total # of neighbors = 700945
Ave neighs/atom = 35.6679
Neighbor list builds = 495
Dangerous builds not checked
Setting up Verlet run ...
  Unit style    : metal
  Current step  : 76495
  Time step     : 0.001
Per MPI rank memory allocation (min/avg/max) = 18.2 | 18.2 | 18.2 Mbytes
Step Temp Press TotEng PotEng Enthalpy 
   76495    1500.6654   -885.84641   -74791.228   -78603.055    -75166.53 
   78000    1507.1866   -631.89932   -74933.161   -78761.553   -75200.344 
Loop time of 143.324 on 1 procs for 1505 steps with 19652 atoms

Performance: 0.907 ns/day, 26.453 hours/ns, 10.501 timesteps/s
99.7% CPU use with 1 MPI tasks x no OpenMP threads

MPI task timing breakdown:
Section |  min time  |  avg time  |  max time  |%varavg| %total
---------------------------------------------------------------
Pair    | 70.981     | 70.981     | 70.981     |   0.0 | 49.52
Neigh   | 67.919     | 67.919     | 67.919     |   0.0 | 47.39
Comm    | 1.5303     | 1.5303     | 1.5303     |   0.0 |  1.07
Output  | 0.054715   | 0.054715   | 0.054715   |   0.0 |  0.04
Modify  | 2.2658     | 2.2658     | 2.2658     |   0.0 |  1.58
Other   |            | 0.5735     |            |       |  0.40

Nlocal:    19652 ave 19652 max 19652 min
Histogram: 1 0 0 0 0 0 0 0 0 0
Nghost:    13788 ave 13788 max 13788 min
Histogram: 1 0 0 0 0 0 0 0 0 0
Neighs:    702031 ave 702031 max 702031 min
Histogram: 1 0 0 0 0 0 0 0 0 0

Total # of neighbors = 702031
Ave neighs/atom = 35.7231
Neighbor list builds = 1505
Dangerous builds not checked
Setting up Verlet run ...
  Unit style    : metal
  Current step  : 78000
  Time step     : 0.001
Per MPI rank memory allocation (min/avg/max) = 18.2 | 18.2 | 18.2 Mbytes
Step Temp Press TotEng PotEng Enthalpy 
   78000    1507.1866   -631.89932   -74933.161   -78761.553   -75200.344 
   78495    1457.4795   -505.79892   -75138.835   -78840.966   -75352.366 
Loop time of 43.8363 on 1 procs for 495 steps with 19652 atoms

Performance: 0.976 ns/day, 24.599 hours/ns, 11.292 timesteps/s
100.0% CPU use with 1 MPI tasks x no OpenMP threads

MPI task timing breakdown:
Section |  min time  |  avg time  |  max time  |%varavg| %total
---------------------------------------------------------------
Pair    | 21.399     | 21.399     | 21.399     |   0.0 | 48.82
Neigh   | 21.109     | 21.109     | 21.109     |   0.0 | 48.15
Comm    | 0.46318    | 0.46318    | 0.46318    |   0.0 |  1.06
Output  | 0.00022411 | 0.00022411 | 0.00022411 |   0.0 |  0.00
Modify  | 0.68998    | 0.68998    | 0.68998    |   0.0 |  1.57
Other   |            | 0.1746     |            |       |  0.40

Nlocal:    19652 ave 19652 max 19652 min
Histogram: 1 0 0 0 0 0 0 0 0 0
Nghost:    13765 ave 13765 max 13765 min
Histogram: 1 0 0 0 0 0 0 0 0 0
Neighs:    702943 ave 702943 max 702943 min
Histogram: 1 0 0 0 0 0 0 0 0 0

Total # of neighbors = 702943
Ave neighs/atom = 35.7695
Neighbor list builds = 495
Dangerous builds not checked
Setting up Verlet run ...
  Unit style    : metal
  Current step  : 78495
  Time step     : 0.001
Per MPI rank memory allocation (min/avg/max) = 18.2 | 18.2 | 18.2 Mbytes
Step Temp Press TotEng PotEng Enthalpy 
   78495    1457.4795   -505.79892   -75138.835   -78840.966   -75352.366 
   80000    1440.2727    217.04018    -75279.56   -78937.984   -75188.206 
Loop time of 139.766 on 1 procs for 1505 steps with 19652 atoms

Performance: 0.930 ns/day, 25.797 hours/ns, 10.768 timesteps/s
99.8% CPU use with 1 MPI tasks x no OpenMP threads

MPI task timing breakdown:
Section |  min time  |  avg time  |  max time  |%varavg| %total
---------------------------------------------------------------
Pair    | 69.199     | 69.199     | 69.199     |   0.0 | 49.51
Neigh   | 66.261     | 66.261     | 66.261     |   0.0 | 47.41
Comm    | 1.4862     | 1.4862     | 1.4862     |   0.0 |  1.06
Output  | 0.080526   | 0.080526   | 0.080526   |   0.0 |  0.06
Modify  | 2.1904     | 2.1904     | 2.1904     |   0.0 |  1.57
Other   |            | 0.5486     |            |       |  0.39

Nlocal:    19652 ave 19652 max 19652 min
Histogram: 1 0 0 0 0 0 0 0 0 0
Nghost:    13838 ave 13838 max 13838 min
Histogram: 1 0 0 0 0 0 0 0 0 0
Neighs:    704579 ave 704579 max 704579 min
Histogram: 1 0 0 0 0 0 0 0 0 0

Total # of neighbors = 704579
Ave neighs/atom = 35.8528
Neighbor list builds = 1505
Dangerous builds not checked
Setting up Verlet run ...
  Unit style    : metal
  Current step  : 80000
  Time step     : 0.001
Per MPI rank memory allocation (min/avg/max) = 18.2 | 18.2 | 18.2 Mbytes
Step Temp Press TotEng PotEng Enthalpy 
   80000    1440.2727    217.04018    -75279.56   -78937.984   -75188.206 
   80495     1410.365    50.454642   -75470.209   -79052.665   -75448.982 
Loop time of 43.8925 on 1 procs for 495 steps with 19652 atoms

Performance: 0.974 ns/day, 24.631 hours/ns, 11.278 timesteps/s
100.0% CPU use with 1 MPI tasks x no OpenMP threads

MPI task timing breakdown:
Section |  min time  |  avg time  |  max time  |%varavg| %total
---------------------------------------------------------------
Pair    | 21.432     | 21.432     | 21.432     |   0.0 | 48.83
Neigh   | 21.139     | 21.139     | 21.139     |   0.0 | 48.16
Comm    | 0.46157    | 0.46157    | 0.46157    |   0.0 |  1.05
Output  | 0.00018501 | 0.00018501 | 0.00018501 |   0.0 |  0.00
Modify  | 0.68661    | 0.68661    | 0.68661    |   0.0 |  1.56
Other   |            | 0.1732     |            |       |  0.39

Nlocal:    19652 ave 19652 max 19652 min
Histogram: 1 0 0 0 0 0 0 0 0 0
Nghost:    13855 ave 13855 max 13855 min
Histogram: 1 0 0 0 0 0 0 0 0 0
Neighs:    704116 ave 704116 max 704116 min
Histogram: 1 0 0 0 0 0 0 0 0 0

Total # of neighbors = 704116
Ave neighs/atom = 35.8292
Neighbor list builds = 495
Dangerous builds not checked
Setting up Verlet run ...
  Unit style    : metal
  Current step  : 80495
  Time step     : 0.001
Per MPI rank memory allocation (min/avg/max) = 18.2 | 18.2 | 18.2 Mbytes
Step Temp Press TotEng PotEng Enthalpy 
   80495     1410.365    50.454642   -75470.209   -79052.665   -75448.982 
   82000    1392.0318    97.723814   -75613.872   -79149.759   -75572.815 
Loop time of 131.313 on 1 procs for 1505 steps with 19652 atoms

Performance: 0.990 ns/day, 24.236 hours/ns, 11.461 timesteps/s
99.8% CPU use with 1 MPI tasks x no OpenMP threads

MPI task timing breakdown:
Section |  min time  |  avg time  |  max time  |%varavg| %total
---------------------------------------------------------------
Pair    | 64.07      | 64.07      | 64.07      |   0.0 | 48.79
Neigh   | 63.209     | 63.209     | 63.209     |   0.0 | 48.14
Comm    | 1.3955     | 1.3955     | 1.3955     |   0.0 |  1.06
Output  | 0.091862   | 0.091862   | 0.091862   |   0.0 |  0.07
Modify  | 2.0332     | 2.0332     | 2.0332     |   0.0 |  1.55
Other   |            | 0.513      |            |       |  0.39

Nlocal:    19652 ave 19652 max 19652 min
Histogram: 1 0 0 0 0 0 0 0 0 0
Nghost:    13764 ave 13764 max 13764 min
Histogram: 1 0 0 0 0 0 0 0 0 0
Neighs:    704908 ave 704908 max 704908 min
Histogram: 1 0 0 0 0 0 0 0 0 0

Total # of neighbors = 704908
Ave neighs/atom = 35.8695
Neighbor list builds = 1505
Dangerous builds not checked
Setting up Verlet run ...
  Unit style    : metal
  Current step  : 82000
  Time step     : 0.001
Per MPI rank memory allocation (min/avg/max) = 18.2 | 18.2 | 18.2 Mbytes
Step Temp Press TotEng PotEng Enthalpy 
   82000    1392.0318    97.723814   -75613.872   -79149.759   -75572.815 
   82495    1365.4649    24.712809   -75814.481   -79282.887   -75804.111 
Loop time of 39.8686 on 1 procs for 495 steps with 19652 atoms

Performance: 1.073 ns/day, 22.373 hours/ns, 12.416 timesteps/s
100.0% CPU use with 1 MPI tasks x no OpenMP threads

MPI task timing breakdown:
Section |  min time  |  avg time  |  max time  |%varavg| %total
---------------------------------------------------------------
Pair    | 19.157     | 19.157     | 19.157     |   0.0 | 48.05
Neigh   | 19.517     | 19.517     | 19.517     |   0.0 | 48.95
Comm    | 0.41755    | 0.41755    | 0.41755    |   0.0 |  1.05
Output  | 0.00022197 | 0.00022197 | 0.00022197 |   0.0 |  0.00
Modify  | 0.61865    | 0.61865    | 0.61865    |   0.0 |  1.55
Other   |            | 0.1574     |            |       |  0.39

Nlocal:    19652 ave 19652 max 19652 min
Histogram: 1 0 0 0 0 0 0 0 0 0
Nghost:    13807 ave 13807 max 13807 min
Histogram: 1 0 0 0 0 0 0 0 0 0
Neighs:    705116 ave 705116 max 705116 min
Histogram: 1 0 0 0 0 0 0 0 0 0

Total # of neighbors = 705116
Ave neighs/atom = 35.8801
Neighbor list builds = 495
Dangerous builds not checked
Setting up Verlet run ...
  Unit style    : metal
  Current step  : 82495
  Time step     : 0.001
Per MPI rank memory allocation (min/avg/max) = 18.2 | 18.2 | 18.2 Mbytes
Step Temp Press TotEng PotEng Enthalpy 
   82495    1365.4649    24.712809   -75814.481   -79282.887   -75804.111 
   84000    1338.6033    115.70367    -75941.54   -79341.714   -75893.044 
Loop time of 134.245 on 1 procs for 1505 steps with 19652 atoms

Performance: 0.969 ns/day, 24.778 hours/ns, 11.211 timesteps/s
99.6% CPU use with 1 MPI tasks x no OpenMP threads

MPI task timing breakdown:
Section |  min time  |  avg time  |  max time  |%varavg| %total
---------------------------------------------------------------
Pair    | 66.205     | 66.205     | 66.205     |   0.0 | 49.32
Neigh   | 63.962     | 63.962     | 63.962     |   0.0 | 47.65
Comm    | 1.4138     | 1.4138     | 1.4138     |   0.0 |  1.05
Output  | 0.069004   | 0.069004   | 0.069004   |   0.0 |  0.05
Modify  | 2.074      | 2.074      | 2.074      |   0.0 |  1.54
Other   |            | 0.5224     |            |       |  0.39

Nlocal:    19652 ave 19652 max 19652 min
Histogram: 1 0 0 0 0 0 0 0 0 0
Nghost:    13800 ave 13800 max 13800 min
Histogram: 1 0 0 0 0 0 0 0 0 0
Neighs:    705517 ave 705517 max 705517 min
Histogram: 1 0 0 0 0 0 0 0 0 0

Total # of neighbors = 705517
Ave neighs/atom = 35.9005
Neighbor list builds = 1505
Dangerous builds not checked
Setting up Verlet run ...
  Unit style    : metal
  Current step  : 84000
  Time step     : 0.001
Per MPI rank memory allocation (min/avg/max) = 18.2 | 18.2 | 18.2 Mbytes
Step Temp Press TotEng PotEng Enthalpy 
   84000    1338.6033    115.70367    -75941.54   -79341.714   -75893.044 
   84495    1323.1266   -126.71847   -76133.339   -79494.201   -76186.408 
Loop time of 48.1637 on 1 procs for 495 steps with 19652 atoms

Performance: 0.888 ns/day, 27.028 hours/ns, 10.277 timesteps/s
99.7% CPU use with 1 MPI tasks x no OpenMP threads

MPI task timing breakdown:
Section |  min time  |  avg time  |  max time  |%varavg| %total
---------------------------------------------------------------
Pair    | 24.16      | 24.16      | 24.16      |   0.0 | 50.16
Neigh   | 22.536     | 22.536     | 22.536     |   0.0 | 46.79
Comm    | 0.51138    | 0.51138    | 0.51138    |   0.0 |  1.06
Output  | 0.00021982 | 0.00021982 | 0.00021982 |   0.0 |  0.00
Modify  | 0.7644     | 0.7644     | 0.7644     |   0.0 |  1.59
Other   |            | 0.192      |            |       |  0.40

Nlocal:    19652 ave 19652 max 19652 min
Histogram: 1 0 0 0 0 0 0 0 0 0
Nghost:    13786 ave 13786 max 13786 min
Histogram: 1 0 0 0 0 0 0 0 0 0
Neighs:    705474 ave 705474 max 705474 min
Histogram: 1 0 0 0 0 0 0 0 0 0

Total # of neighbors = 705474
Ave neighs/atom = 35.8983
Neighbor list builds = 495
Dangerous builds not checked
Setting up Verlet run ...
  Unit style    : metal
  Current step  : 84495
  Time step     : 0.001
Per MPI rank memory allocation (min/avg/max) = 18.2 | 18.2 | 18.2 Mbytes
Step Temp Press TotEng PotEng Enthalpy 
   84495    1323.1266   -126.71847   -76133.339   -79494.201   -76186.408 
   86000    1308.0222    99.441184   -76260.812   -79583.308   -76219.222 
Loop time of 136.254 on 1 procs for 1505 steps with 19652 atoms

Performance: 0.954 ns/day, 25.148 hours/ns, 11.046 timesteps/s
99.8% CPU use with 1 MPI tasks x no OpenMP threads

MPI task timing breakdown:
Section |  min time  |  avg time  |  max time  |%varavg| %total
---------------------------------------------------------------
Pair    | 67.167     | 67.167     | 67.167     |   0.0 | 49.30
Neigh   | 64.924     | 64.924     | 64.924     |   0.0 | 47.65
Comm    | 1.4404     | 1.4404     | 1.4404     |   0.0 |  1.06
Output  | 0.043191   | 0.043191   | 0.043191   |   0.0 |  0.03
Modify  | 2.1388     | 2.1388     | 2.1388     |   0.0 |  1.57
Other   |            | 0.5396     |            |       |  0.40

Nlocal:    19652 ave 19652 max 19652 min
Histogram: 1 0 0 0 0 0 0 0 0 0
Nghost:    13810 ave 13810 max 13810 min
Histogram: 1 0 0 0 0 0 0 0 0 0
Neighs:    705991 ave 705991 max 705991 min
Histogram: 1 0 0 0 0 0 0 0 0 0

Total # of neighbors = 705991
Ave neighs/atom = 35.9246
Neighbor list builds = 1505
Dangerous builds not checked
Setting up Verlet run ...
  Unit style    : metal
  Current step  : 86000
  Time step     : 0.001
Per MPI rank memory allocation (min/avg/max) = 18.2 | 18.2 | 18.2 Mbytes
Step Temp Press TotEng PotEng Enthalpy 
   86000    1308.0222    99.441184   -76260.812   -79583.308   -76219.222 
   86495    1272.2946   -168.00265    -76475.27   -79707.014   -76545.496 
Loop time of 45.429 on 1 procs for 495 steps with 19652 atoms

Performance: 0.941 ns/day, 25.493 hours/ns, 10.896 timesteps/s
99.8% CPU use with 1 MPI tasks x no OpenMP threads

MPI task timing breakdown:
Section |  min time  |  avg time  |  max time  |%varavg| %total
---------------------------------------------------------------
Pair    | 22.533     | 22.533     | 22.533     |   0.0 | 49.60
Neigh   | 21.516     | 21.516     | 21.516     |   0.0 | 47.36
Comm    | 0.47793    | 0.47793    | 0.47793    |   0.0 |  1.05
Output  | 0.00025201 | 0.00025201 | 0.00025201 |   0.0 |  0.00
Modify  | 0.72265    | 0.72265    | 0.72265    |   0.0 |  1.59
Other   |            | 0.1787     |            |       |  0.39

Nlocal:    19652 ave 19652 max 19652 min
Histogram: 1 0 0 0 0 0 0 0 0 0
Nghost:    13803 ave 13803 max 13803 min
Histogram: 1 0 0 0 0 0 0 0 0 0
Neighs:    705545 ave 705545 max 705545 min
Histogram: 1 0 0 0 0 0 0 0 0 0

Total # of neighbors = 705545
Ave neighs/atom = 35.9019
Neighbor list builds = 495
Dangerous builds not checked
Setting up Verlet run ...
  Unit style    : metal
  Current step  : 86495
  Time step     : 0.001
Per MPI rank memory allocation (min/avg/max) = 18.2 | 18.2 | 18.2 Mbytes
Step Temp Press TotEng PotEng Enthalpy 
   86495    1272.2946   -168.00265    -76475.27   -79707.014   -76545.496 
   88000    1243.0933    587.77726   -76651.031   -79808.601   -76406.106 
Loop time of 128.977 on 1 procs for 1505 steps with 19652 atoms

Performance: 1.008 ns/day, 23.805 hours/ns, 11.669 timesteps/s
99.9% CPU use with 1 MPI tasks x no OpenMP threads

MPI task timing breakdown:
Section |  min time  |  avg time  |  max time  |%varavg| %total
---------------------------------------------------------------
Pair    | 62.67      | 62.67      | 62.67      |   0.0 | 48.59
Neigh   | 62.345     | 62.345     | 62.345     |   0.0 | 48.34
Comm    | 1.3543     | 1.3543     | 1.3543     |   0.0 |  1.05
Output  | 0.072848   | 0.072848   | 0.072848   |   0.0 |  0.06
Modify  | 2.018      | 2.018      | 2.018      |   0.0 |  1.56
Other   |            | 0.5163     |            |       |  0.40

Nlocal:    19652 ave 19652 max 19652 min
Histogram: 1 0 0 0 0 0 0 0 0 0
Nghost:    13812 ave 13812 max 13812 min
Histogram: 1 0 0 0 0 0 0 0 0 0
Neighs:    707195 ave 707195 max 707195 min
Histogram: 1 0 0 0 0 0 0 0 0 0

Total # of neighbors = 707195
Ave neighs/atom = 35.9859
Neighbor list builds = 1505
Dangerous builds not checked
Setting up Verlet run ...
  Unit style    : metal
  Current step  : 88000
  Time step     : 0.001
Per MPI rank memory allocation (min/avg/max) = 18.2 | 18.2 | 18.2 Mbytes
Step Temp Press TotEng PotEng Enthalpy 
   88000    1243.0933    587.77726   -76651.031   -79808.601   -76406.106 
   88495      1218.12    388.79368    -76822.09   -79916.226   -76660.211 
Loop time of 44.8897 on 1 procs for 495 steps with 19652 atoms

Performance: 0.953 ns/day, 25.191 hours/ns, 11.027 timesteps/s
99.9% CPU use with 1 MPI tasks x no OpenMP threads

MPI task timing breakdown:
Section |  min time  |  avg time  |  max time  |%varavg| %total
---------------------------------------------------------------
Pair    | 22.233     | 22.233     | 22.233     |   0.0 | 49.53
Neigh   | 21.295     | 21.295     | 21.295     |   0.0 | 47.44
Comm    | 0.474      | 0.474      | 0.474      |   0.0 |  1.06
Output  | 0.00022507 | 0.00022507 | 0.00022507 |   0.0 |  0.00
Modify  | 0.7109     | 0.7109     | 0.7109     |   0.0 |  1.58
Other   |            | 0.1769     |            |       |  0.39

Nlocal:    19652 ave 19652 max 19652 min
Histogram: 1 0 0 0 0 0 0 0 0 0
Nghost:    13825 ave 13825 max 13825 min
Histogram: 1 0 0 0 0 0 0 0 0 0
Neighs:    707435 ave 707435 max 707435 min
Histogram: 1 0 0 0 0 0 0 0 0 0

Total # of neighbors = 707435
Ave neighs/atom = 35.9981
Neighbor list builds = 495
Dangerous builds not checked
Setting up Verlet run ...
  Unit style    : metal
  Current step  : 88495
  Time step     : 0.001
Per MPI rank memory allocation (min/avg/max) = 18.2 | 18.2 | 18.2 Mbytes
Step Temp Press TotEng PotEng Enthalpy 
   88495      1218.12    388.79368    -76822.09   -79916.226   -76660.211 
   90000    1191.3036   -201.13116     -76949.4    -79975.42   -77033.217 
Loop time of 140.354 on 1 procs for 1505 steps with 19652 atoms

Performance: 0.926 ns/day, 25.905 hours/ns, 10.723 timesteps/s
99.8% CPU use with 1 MPI tasks x no OpenMP threads

MPI task timing breakdown:
Section |  min time  |  avg time  |  max time  |%varavg| %total
---------------------------------------------------------------
Pair    | 69.585     | 69.585     | 69.585     |   0.0 | 49.58
Neigh   | 66.439     | 66.439     | 66.439     |   0.0 | 47.34
Comm    | 1.4919     | 1.4919     | 1.4919     |   0.0 |  1.06
Output  | 0.066567   | 0.066567   | 0.066567   |   0.0 |  0.05
Modify  | 2.218      | 2.218      | 2.218      |   0.0 |  1.58
Other   |            | 0.5543     |            |       |  0.39

Nlocal:    19652 ave 19652 max 19652 min
Histogram: 1 0 0 0 0 0 0 0 0 0
Nghost:    13816 ave 13816 max 13816 min
Histogram: 1 0 0 0 0 0 0 0 0 0
Neighs:    706233 ave 706233 max 706233 min
Histogram: 1 0 0 0 0 0 0 0 0 0

Total # of neighbors = 706233
Ave neighs/atom = 35.937
Neighbor list builds = 1505
Dangerous builds not checked
Setting up Verlet run ...
  Unit style    : metal
  Current step  : 90000
  Time step     : 0.001
Per MPI rank memory allocation (min/avg/max) = 18.2 | 18.2 | 18.2 Mbytes
Step Temp Press TotEng PotEng Enthalpy 
   90000    1191.3036   -201.13116     -76949.4    -79975.42   -77033.217 
   90495    1162.6403    132.97457   -77138.925   -80092.138   -77083.622 
Loop time of 43.8197 on 1 procs for 495 steps with 19652 atoms

Performance: 0.976 ns/day, 24.590 hours/ns, 11.296 timesteps/s
99.8% CPU use with 1 MPI tasks x no OpenMP threads

MPI task timing breakdown:
Section |  min time  |  avg time  |  max time  |%varavg| %total
---------------------------------------------------------------
Pair    | 21.466     | 21.466     | 21.466     |   0.0 | 48.99
Neigh   | 21.018     | 21.018     | 21.018     |   0.0 | 47.96
Comm    | 0.46153    | 0.46153    | 0.46153    |   0.0 |  1.05
Output  | 0.000211   | 0.000211   | 0.000211   |   0.0 |  0.00
Modify  | 0.69911    | 0.69911    | 0.69911    |   0.0 |  1.60
Other   |            | 0.1748     |            |       |  0.40

Nlocal:    19652 ave 19652 max 19652 min
Histogram: 1 0 0 0 0 0 0 0 0 0
Nghost:    13824 ave 13824 max 13824 min
Histogram: 1 0 0 0 0 0 0 0 0 0
Neighs:    707305 ave 707305 max 707305 min
Histogram: 1 0 0 0 0 0 0 0 0 0

Total # of neighbors = 707305
Ave neighs/atom = 35.9915
Neighbor list builds = 495
Dangerous builds not checked
Setting up Verlet run ...
  Unit style    : metal
  Current step  : 90495
  Time step     : 0.001
Per MPI rank memory allocation (min/avg/max) = 18.2 | 18.2 | 18.2 Mbytes
Step Temp Press TotEng PotEng Enthalpy 
   90495    1162.6403    132.97457   -77138.925   -80092.138   -77083.622 
   92000    1153.1494    224.94815   -77251.201   -80180.305   -77157.718 
Loop time of 123.295 on 1 procs for 1505 steps with 19652 atoms

Performance: 1.055 ns/day, 22.757 hours/ns, 12.206 timesteps/s
99.8% CPU use with 1 MPI tasks x no OpenMP threads

MPI task timing breakdown:
Section |  min time  |  avg time  |  max time  |%varavg| %total
[...]
Nghost:    13991 ave 13991 max 13991 min
Histogram: 1 0 0 0 0 0 0 0 0 0
Neighs:    710757 ave 710757 max 710757 min
Histogram: 1 0 0 0 0 0 0 0 0 0

Total # of neighbors = 710757
Ave neighs/atom = 36.1672
Neighbor list builds = 1505
Dangerous builds not checked
Setting up Verlet run ...
  Unit style    : metal
  Current step  : 120000
  Time step     : 0.001
Per MPI rank memory allocation (min/avg/max) = 18.2 | 18.2 | 18.2 Mbytes
Step Temp Press TotEng PotEng Enthalpy 
  120000    449.92865    251.00819   -81618.759   -82761.619   -81517.289 
  120495    422.93081     242.8179   -81780.719   -82855.002   -81682.648 
Loop time of 43.5814 on 1 procs for 495 steps with 19652 atoms

Performance: 0.981 ns/day, 24.456 hours/ns, 11.358 timesteps/s
99.8% CPU use with 1 MPI tasks x no OpenMP threads

MPI task timing breakdown:
Section |  min time  |  avg time  |  max time  |%varavg| %total
---------------------------------------------------------------
Pair    | 21.646     | 21.646     | 21.646     |   0.0 | 49.67
Neigh   | 20.603     | 20.603     | 20.603     |   0.0 | 47.28
Comm    | 0.46389    | 0.46389    | 0.46389    |   0.0 |  1.06
Output  | 0.00026798 | 0.00026798 | 0.00026798 |   0.0 |  0.00
Modify  | 0.69259    | 0.69259    | 0.69259    |   0.0 |  1.59
Other   |            | 0.1753     |            |       |  0.40

Nlocal:    19652 ave 19652 max 19652 min
Histogram: 1 0 0 0 0 0 0 0 0 0
Nghost:    14003 ave 14003 max 14003 min
Histogram: 1 0 0 0 0 0 0 0 0 0
Neighs:    711161 ave 711161 max 711161 min
Histogram: 1 0 0 0 0 0 0 0 0 0

Total # of neighbors = 711161
Ave neighs/atom = 36.1877
Neighbor list builds = 495
Dangerous builds not checked
Setting up Verlet run ...
  Unit style    : metal
  Current step  : 120495
  Time step     : 0.001
Per MPI rank memory allocation (min/avg/max) = 18.2 | 18.2 | 18.2 Mbytes
Step Temp Press TotEng PotEng Enthalpy 
  120495    422.93081     242.8179   -81780.719   -82855.002   -81682.648 
  122000      400.331   -289.15288   -81901.216   -82918.093   -82018.057 
Loop time of 136.328 on 1 procs for 1505 steps with 19652 atoms

Performance: 0.954 ns/day, 25.162 hours/ns, 11.040 timesteps/s
99.8% CPU use with 1 MPI tasks x no OpenMP threads

MPI task timing breakdown:
Section |  min time  |  avg time  |  max time  |%varavg| %total
---------------------------------------------------------------
Pair    | 68.104     | 68.104     | 68.104     |   0.0 | 49.96
Neigh   | 64.013     | 64.013     | 64.013     |   0.0 | 46.96
Comm    | 1.437      | 1.437      | 1.437      |   0.0 |  1.05
Output  | 0.067055   | 0.067055   | 0.067055   |   0.0 |  0.05
Modify  | 2.1638     | 2.1638     | 2.1638     |   0.0 |  1.59
Other   |            | 0.5421     |            |       |  0.40

Nlocal:    19652 ave 19652 max 19652 min
Histogram: 1 0 0 0 0 0 0 0 0 0
Nghost:    13980 ave 13980 max 13980 min
Histogram: 1 0 0 0 0 0 0 0 0 0
Neighs:    710489 ave 710489 max 710489 min
Histogram: 1 0 0 0 0 0 0 0 0 0

Total # of neighbors = 710489
Ave neighs/atom = 36.1535
Neighbor list builds = 1505
Dangerous builds not checked
Setting up Verlet run ...
  Unit style    : metal
  Current step  : 122000
  Time step     : 0.001
Per MPI rank memory allocation (min/avg/max) = 18.2 | 18.2 | 18.2 Mbytes
Step Temp Press TotEng PotEng Enthalpy 
  122000      400.331   -289.15288   -81901.216   -82918.093   -82018.057 
  122495    370.47439   -142.95534   -82054.084   -82995.122   -82111.783 
Loop time of 44.0941 on 1 procs for 495 steps with 19652 atoms

Performance: 0.970 ns/day, 24.744 hours/ns, 11.226 timesteps/s
99.4% CPU use with 1 MPI tasks x no OpenMP threads

MPI task timing breakdown:
Section |  min time  |  avg time  |  max time  |%varavg| %total
---------------------------------------------------------------
Pair    | 21.918     | 21.918     | 21.918     |   0.0 | 49.71
Neigh   | 20.855     | 20.855     | 20.855     |   0.0 | 47.30
Comm    | 0.45531    | 0.45531    | 0.45531    |   0.0 |  1.03
Output  | 0.00017381 | 0.00017381 | 0.00017381 |   0.0 |  0.00
Modify  | 0.69257    | 0.69257    | 0.69257    |   0.0 |  1.57
Other   |            | 0.173      |            |       |  0.39

Nlocal:    19652 ave 19652 max 19652 min
Histogram: 1 0 0 0 0 0 0 0 0 0
Nghost:    14036 ave 14036 max 14036 min
Histogram: 1 0 0 0 0 0 0 0 0 0
Neighs:    710864 ave 710864 max 710864 min
Histogram: 1 0 0 0 0 0 0 0 0 0

Total # of neighbors = 710864
Ave neighs/atom = 36.1726
Neighbor list builds = 495
Dangerous builds not checked
Setting up Verlet run ...
  Unit style    : metal
  Current step  : 122495
  Time step     : 0.001
Per MPI rank memory allocation (min/avg/max) = 18.2 | 18.2 | 18.2 Mbytes
Step Temp Press TotEng PotEng Enthalpy 
  122495    370.47439   -142.95534   -82054.084   -82995.122   -82111.783 
  124000    348.21921    96.398209   -82184.934   -83069.442    -82146.08 
Loop time of 133.351 on 1 procs for 1505 steps with 19652 atoms

Performance: 0.975 ns/day, 24.613 hours/ns, 11.286 timesteps/s
99.7% CPU use with 1 MPI tasks x no OpenMP threads

MPI task timing breakdown:
Section |  min time  |  avg time  |  max time  |%varavg| %total
---------------------------------------------------------------
Pair    | 65.946     | 65.946     | 65.946     |   0.0 | 49.45
Neigh   | 63.288     | 63.288     | 63.288     |   0.0 | 47.46
Comm    | 1.3963     | 1.3963     | 1.3963     |   0.0 |  1.05
Output  | 0.061594   | 0.061594   | 0.061594   |   0.0 |  0.05
Modify  | 2.1303     | 2.1303     | 2.1303     |   0.0 |  1.60
Other   |            | 0.5282     |            |       |  0.40

Nlocal:    19652 ave 19652 max 19652 min
Histogram: 1 0 0 0 0 0 0 0 0 0
Nghost:    14015 ave 14015 max 14015 min
Histogram: 1 0 0 0 0 0 0 0 0 0
Neighs:    711625 ave 711625 max 711625 min
Histogram: 1 0 0 0 0 0 0 0 0 0

Total # of neighbors = 711625
Ave neighs/atom = 36.2113
Neighbor list builds = 1505
Dangerous builds not checked
Setting up Verlet run ...
  Unit style    : metal
  Current step  : 124000
  Time step     : 0.001
Per MPI rank memory allocation (min/avg/max) = 18.2 | 18.2 | 18.2 Mbytes
Step Temp Press TotEng PotEng Enthalpy 
  124000    348.21921    96.398209   -82184.934   -83069.442    -82146.08 
  124495     322.3039   -90.355761   -82322.137   -83140.818   -82358.544 
Loop time of 45.2495 on 1 procs for 495 steps with 19652 atoms

Performance: 0.945 ns/day, 25.393 hours/ns, 10.939 timesteps/s
99.6% CPU use with 1 MPI tasks x no OpenMP threads

MPI task timing breakdown:
Section |  min time  |  avg time  |  max time  |%varavg| %total
---------------------------------------------------------------
Pair    | 22.61      | 22.61      | 22.61      |   0.0 | 49.97
Neigh   | 21.26      | 21.26      | 21.26      |   0.0 | 46.98
Comm    | 0.47636    | 0.47636    | 0.47636    |   0.0 |  1.05
Output  | 0.00021696 | 0.00021696 | 0.00021696 |   0.0 |  0.00
Modify  | 0.72264    | 0.72264    | 0.72264    |   0.0 |  1.60
Other   |            | 0.1799     |            |       |  0.40

Nlocal:    19652 ave 19652 max 19652 min
Histogram: 1 0 0 0 0 0 0 0 0 0
Nghost:    14032 ave 14032 max 14032 min
Histogram: 1 0 0 0 0 0 0 0 0 0
Neighs:    711580 ave 711580 max 711580 min
Histogram: 1 0 0 0 0 0 0 0 0 0

Total # of neighbors = 711580
Ave neighs/atom = 36.209
Neighbor list builds = 495
Dangerous builds not checked
Setting up Verlet run ...
  Unit style    : metal
  Current step  : 124495
  Time step     : 0.001
Per MPI rank memory allocation (min/avg/max) = 18.2 | 18.2 | 18.2 Mbytes
Step Temp Press TotEng PotEng Enthalpy 
  124495     322.3039   -90.355761   -82322.137   -83140.818   -82358.544 
  126000    302.71347   -41.929177   -82439.431   -83208.351    -82456.31 
Loop time of 135.443 on 1 procs for 1505 steps with 19652 atoms

Performance: 0.960 ns/day, 24.999 hours/ns, 11.112 timesteps/s
99.6% CPU use with 1 MPI tasks x no OpenMP threads

MPI task timing breakdown:
Section |  min time  |  avg time  |  max time  |%varavg| %total
---------------------------------------------------------------
Pair    | 67.394     | 67.394     | 67.394     |   0.0 | 49.76
Neigh   | 63.851     | 63.851     | 63.851     |   0.0 | 47.14
Comm    | 1.4231     | 1.4231     | 1.4231     |   0.0 |  1.05
Output  | 0.067767   | 0.067767   | 0.067767   |   0.0 |  0.05
Modify  | 2.1723     | 2.1723     | 2.1723     |   0.0 |  1.60
Other   |            | 0.5352     |            |       |  0.40

Nlocal:    19652 ave 19652 max 19652 min
Histogram: 1 0 0 0 0 0 0 0 0 0
Nghost:    14003 ave 14003 max 14003 min
Histogram: 1 0 0 0 0 0 0 0 0 0
Neighs:    711627 ave 711627 max 711627 min
Histogram: 1 0 0 0 0 0 0 0 0 0

Total # of neighbors = 711627
Ave neighs/atom = 36.2114
Neighbor list builds = 1505
Dangerous builds not checked
Setting up Verlet run ...
  Unit style    : metal
  Current step  : 126000
  Time step     : 0.001
Per MPI rank memory allocation (min/avg/max) = 18.2 | 18.2 | 18.2 Mbytes
Step Temp Press TotEng PotEng Enthalpy 
  126000    302.71347   -41.929177   -82439.431   -83208.351    -82456.31 
  126495    273.74435   -14.371633   -82581.257   -83276.592   -82587.037 
Loop time of 44.8079 on 1 procs for 495 steps with 19652 atoms

Performance: 0.954 ns/day, 25.145 hours/ns, 11.047 timesteps/s
99.8% CPU use with 1 MPI tasks x no OpenMP threads

MPI task timing breakdown:
Section |  min time  |  avg time  |  max time  |%varavg| %total
---------------------------------------------------------------
Pair    | 22.331     | 22.331     | 22.331     |   0.0 | 49.84
Neigh   | 21.123     | 21.123     | 21.123     |   0.0 | 47.14
Comm    | 0.46567    | 0.46567    | 0.46567    |   0.0 |  1.04
Output  | 0.00022388 | 0.00022388 | 0.00022388 |   0.0 |  0.00
Modify  | 0.71157    | 0.71157    | 0.71157    |   0.0 |  1.59
Other   |            | 0.1764     |            |       |  0.39

Nlocal:    19652 ave 19652 max 19652 min
Histogram: 1 0 0 0 0 0 0 0 0 0
Nghost:    13983 ave 13983 max 13983 min
Histogram: 1 0 0 0 0 0 0 0 0 0
Neighs:    711979 ave 711979 max 711979 min
Histogram: 1 0 0 0 0 0 0 0 0 0

Total # of neighbors = 711979
Ave neighs/atom = 36.2293
Neighbor list builds = 495
Dangerous builds not checked
Setting up Verlet run ...
  Unit style    : metal
  Current step  : 126495
  Time step     : 0.001
Per MPI rank memory allocation (min/avg/max) = 18.2 | 18.2 | 18.2 Mbytes
Step Temp Press TotEng PotEng Enthalpy 
  126495    273.74435   -14.371633   -82581.257   -83276.592   -82587.037 
  128000    250.26397   -25.206215   -82707.157   -83342.851   -82717.287 
Loop time of 136.954 on 1 procs for 1505 steps with 19652 atoms

Performance: 0.949 ns/day, 25.278 hours/ns, 10.989 timesteps/s
99.9% CPU use with 1 MPI tasks x no OpenMP threads

MPI task timing breakdown:
Section |  min time  |  avg time  |  max time  |%varavg| %total
---------------------------------------------------------------
Pair    | 68.417     | 68.417     | 68.417     |   0.0 | 49.96
Neigh   | 64.319     | 64.319     | 64.319     |   0.0 | 46.96
Comm    | 1.4329     | 1.4329     | 1.4329     |   0.0 |  1.05
Output  | 0.063455   | 0.063455   | 0.063455   |   0.0 |  0.05
Modify  | 2.1804     | 2.1804     | 2.1804     |   0.0 |  1.59
Other   |            | 0.5418     |            |       |  0.40

Nlocal:    19652 ave 19652 max 19652 min
Histogram: 1 0 0 0 0 0 0 0 0 0
Nghost:    14003 ave 14003 max 14003 min
Histogram: 1 0 0 0 0 0 0 0 0 0
Neighs:    712181 ave 712181 max 712181 min
Histogram: 1 0 0 0 0 0 0 0 0 0

Total # of neighbors = 712181
Ave neighs/atom = 36.2396
Neighbor list builds = 1505
Dangerous builds not checked
Setting up Verlet run ...
  Unit style    : metal
  Current step  : 128000
  Time step     : 0.001
Per MPI rank memory allocation (min/avg/max) = 18.2 | 18.2 | 18.2 Mbytes
Step Temp Press TotEng PotEng Enthalpy 
  128000    250.26397   -25.206215   -82707.157   -83342.851   -82717.287 
  128495    225.29412   -24.611354    -82840.43   -83412.697   -82850.314 
Loop time of 40.5396 on 1 procs for 495 steps with 19652 atoms

Performance: 1.055 ns/day, 22.750 hours/ns, 12.210 timesteps/s
100.0% CPU use with 1 MPI tasks x no OpenMP threads

MPI task timing breakdown:
Section |  min time  |  avg time  |  max time  |%varavg| %total
---------------------------------------------------------------
Pair    | 19.823     | 19.823     | 19.823     |   0.0 | 48.90
Neigh   | 19.502     | 19.502     | 19.502     |   0.0 | 48.11
Comm    | 0.418      | 0.418      | 0.418      |   0.0 |  1.03
Output  | 0.00023007 | 0.00023007 | 0.00023007 |   0.0 |  0.00
Modify  | 0.63641    | 0.63641    | 0.63641    |   0.0 |  1.57
Other   |            | 0.1602     |            |       |  0.40

Nlocal:    19652 ave 19652 max 19652 min
Histogram: 1 0 0 0 0 0 0 0 0 0
Nghost:    14003 ave 14003 max 14003 min
Histogram: 1 0 0 0 0 0 0 0 0 0
Neighs:    712417 ave 712417 max 712417 min
Histogram: 1 0 0 0 0 0 0 0 0 0

Total # of neighbors = 712417
Ave neighs/atom = 36.2516
Neighbor list builds = 495
Dangerous builds not checked
Setting up Verlet run ...
  Unit style    : metal
  Current step  : 128495
  Time step     : 0.001
Per MPI rank memory allocation (min/avg/max) = 18.2 | 18.2 | 18.2 Mbytes
Step Temp Press TotEng PotEng Enthalpy 
  128495    225.29412   -24.611354    -82840.43   -83412.697   -82850.314 
  130000     199.8396    19.835759   -82970.918   -83478.529    -82962.96 
Loop time of 123.346 on 1 procs for 1505 steps with 19652 atoms

Performance: 1.054 ns/day, 22.766 hours/ns, 12.201 timesteps/s
100.0% CPU use with 1 MPI tasks x no OpenMP threads

MPI task timing breakdown:
Section |  min time  |  avg time  |  max time  |%varavg| %total
---------------------------------------------------------------
Pair    | 60.344     | 60.344     | 60.344     |   0.0 | 48.92
Neigh   | 59.24      | 59.24      | 59.24      |   0.0 | 48.03
Comm    | 1.2904     | 1.2904     | 1.2904     |   0.0 |  1.05
Output  | 0.054092   | 0.054092   | 0.054092   |   0.0 |  0.04
Modify  | 1.9307     | 1.9307     | 1.9307     |   0.0 |  1.57
Other   |            | 0.4863     |            |       |  0.39

Nlocal:    19652 ave 19652 max 19652 min
Histogram: 1 0 0 0 0 0 0 0 0 0
Nghost:    14021 ave 14021 max 14021 min
Histogram: 1 0 0 0 0 0 0 0 0 0
Neighs:    712483 ave 712483 max 712483 min
Histogram: 1 0 0 0 0 0 0 0 0 0

Total # of neighbors = 712483
Ave neighs/atom = 36.255
Neighbor list builds = 1505
Dangerous builds not checked
Setting up Verlet run ...
  Unit style    : metal
  Current step  : 130000
  Time step     : 0.001
Per MPI rank memory allocation (min/avg/max) = 18.2 | 18.2 | 18.2 Mbytes
Step Temp Press TotEng PotEng Enthalpy 
  130000     199.8396    19.835759   -82970.918   -83478.529    -82962.96 
  130495    175.64532   -50.685881   -83096.844   -83542.999   -83117.169 
Loop time of 40.1091 on 1 procs for 495 steps with 19652 atoms

Performance: 1.066 ns/day, 22.508 hours/ns, 12.341 timesteps/s
100.0% CPU use with 1 MPI tasks x no OpenMP threads

MPI task timing breakdown:
Section |  min time  |  avg time  |  max time  |%varavg| %total
---------------------------------------------------------------
Pair    | 19.452     | 19.452     | 19.452     |   0.0 | 48.50
Neigh   | 19.466     | 19.466     | 19.466     |   0.0 | 48.53
Comm    | 0.41031    | 0.41031    | 0.41031    |   0.0 |  1.02
Output  | 0.000175   | 0.000175   | 0.000175   |   0.0 |  0.00
Modify  | 0.6224     | 0.6224     | 0.6224     |   0.0 |  1.55
Other   |            | 0.158      |            |       |  0.39

Nlocal:    19652 ave 19652 max 19652 min
Histogram: 1 0 0 0 0 0 0 0 0 0
Nghost:    13997 ave 13997 max 13997 min
Histogram: 1 0 0 0 0 0 0 0 0 0
Neighs:    712720 ave 712720 max 712720 min
Histogram: 1 0 0 0 0 0 0 0 0 0

Total # of neighbors = 712720
Ave neighs/atom = 36.267
Neighbor list builds = 495
Dangerous builds not checked
Setting up Verlet run ...
  Unit style    : metal
  Current step  : 130495
  Time step     : 0.001
Per MPI rank memory allocation (min/avg/max) = 18.2 | 18.2 | 18.2 Mbytes
Step Temp Press TotEng PotEng Enthalpy 
  130495    175.64532   -50.685881   -83096.844   -83542.999   -83117.169 
  132000    150.95765    166.45276   -83232.368   -83615.814   -83165.707 
Loop time of 135.077 on 1 procs for 1505 steps with 19652 atoms

Performance: 0.963 ns/day, 24.931 hours/ns, 11.142 timesteps/s
99.8% CPU use with 1 MPI tasks x no OpenMP threads

MPI task timing breakdown:
Section |  min time  |  avg time  |  max time  |%varavg| %total
---------------------------------------------------------------
Pair    | 67.224     | 67.224     | 67.224     |   0.0 | 49.77
Neigh   | 63.626     | 63.626     | 63.626     |   0.0 | 47.10
Comm    | 1.4225     | 1.4225     | 1.4225     |   0.0 |  1.05
Output  | 0.091794   | 0.091794   | 0.091794   |   0.0 |  0.07
Modify  | 2.1719     | 2.1719     | 2.1719     |   0.0 |  1.61
Other   |            | 0.5409     |            |       |  0.40

Nlocal:    19652 ave 19652 max 19652 min
Histogram: 1 0 0 0 0 0 0 0 0 0
Nghost:    14040 ave 14040 max 14040 min
Histogram: 1 0 0 0 0 0 0 0 0 0
Neighs:    713143 ave 713143 max 713143 min
Histogram: 1 0 0 0 0 0 0 0 0 0

Total # of neighbors = 713143
Ave neighs/atom = 36.2886
Neighbor list builds = 1505
Dangerous builds not checked
Setting up Verlet run ...
  Unit style    : metal
  Current step  : 132000
  Time step     : 0.001
Per MPI rank memory allocation (min/avg/max) = 18.2 | 18.2 | 18.2 Mbytes
Step Temp Press TotEng PotEng Enthalpy 
  132000    150.95765    166.45276   -83232.368   -83615.814   -83165.707 
  132495    126.58266   -126.92589   -83349.565   -83671.096   -83400.398 
Loop time of 45.2311 on 1 procs for 495 steps with 19652 atoms

Performance: 0.946 ns/day, 25.382 hours/ns, 10.944 timesteps/s
99.2% CPU use with 1 MPI tasks x no OpenMP threads

MPI task timing breakdown:
Section |  min time  |  avg time  |  max time  |%varavg| %total
---------------------------------------------------------------
Pair    | 22.569     | 22.569     | 22.569     |   0.0 | 49.90
Neigh   | 21.276     | 21.276     | 21.276     |   0.0 | 47.04
Comm    | 0.47863    | 0.47863    | 0.47863    |   0.0 |  1.06
Output  | 0.00017118 | 0.00017118 | 0.00017118 |   0.0 |  0.00
Modify  | 0.72818    | 0.72818    | 0.72818    |   0.0 |  1.61
Other   |            | 0.1788     |            |       |  0.40

Nlocal:    19652 ave 19652 max 19652 min
Histogram: 1 0 0 0 0 0 0 0 0 0
Nghost:    14027 ave 14027 max 14027 min
Histogram: 1 0 0 0 0 0 0 0 0 0
Neighs:    712785 ave 712785 max 712785 min
Histogram: 1 0 0 0 0 0 0 0 0 0

Total # of neighbors = 712785
Ave neighs/atom = 36.2704
Neighbor list builds = 495
Dangerous builds not checked
Setting up Verlet run ...
  Unit style    : metal
  Current step  : 132495
  Time step     : 0.001
Per MPI rank memory allocation (min/avg/max) = 18.2 | 18.2 | 18.2 Mbytes
Step Temp Press TotEng PotEng Enthalpy 
  132495    126.58266   -126.92589   -83349.565   -83671.096   -83400.398 
  134000     99.64798   -313.01685   -83489.356   -83742.471   -83614.668 
Loop time of 131.841 on 1 procs for 1505 steps with 19652 atoms

Performance: 0.986 ns/day, 24.334 hours/ns, 11.415 timesteps/s
99.9% CPU use with 1 MPI tasks x no OpenMP threads

MPI task timing breakdown:
Section |  min time  |  avg time  |  max time  |%varavg| %total
---------------------------------------------------------------
Pair    | 65.408     | 65.408     | 65.408     |   0.0 | 49.61
Neigh   | 62.356     | 62.356     | 62.356     |   0.0 | 47.30
Comm    | 1.3867     | 1.3867     | 1.3867     |   0.0 |  1.05
Output  | 0.062809   | 0.062809   | 0.062809   |   0.0 |  0.05
Modify  | 2.103      | 2.103      | 2.103      |   0.0 |  1.60
Other   |            | 0.5242     |            |       |  0.40

Nlocal:    19652 ave 19652 max 19652 min
Histogram: 1 0 0 0 0 0 0 0 0 0
Nghost:    14024 ave 14024 max 14024 min
Histogram: 1 0 0 0 0 0 0 0 0 0
Neighs:    712736 ave 712736 max 712736 min
Histogram: 1 0 0 0 0 0 0 0 0 0

Total # of neighbors = 712736
Ave neighs/atom = 36.2679
Neighbor list builds = 1505
Dangerous builds not checked
Total wall time: 3:49:58
