LAMMPS (12 Dec 2018)
Lattice spacing in x,y,z = 4 4 4
Created orthogonal box = (0 0 0) to (68 68 68)
  1 by 1 by 1 MPI processor grid
Created 19652 atoms
  Time spent = 0.00306702 secs
Setting atom values ...
  19480 settings made for type/fraction
Neighbor list info ...
  update every 1 steps, delay 0 steps, check no
  max neighbors/atom: 2000, page size: 100000
  master list distance cutoff = 8.5
  ghost atom cutoff = 8.5
  binsize = 4.25, bins = 16 16 16
  1 neighbor lists, perpetual/occasional/extra = 1 0 0
  (1) pair eam/alloy, perpetual
      attributes: half, newton on
      pair build: half/bin/atomonly/newton
      stencil: half/bin/3d/newton
      bin: standard
Setting up Verlet run ...
  Unit style    : metal
  Current step  : 0
  Time step     : 0.001
Per MPI rank memory allocation (min/avg/max) = 18.19 | 18.19 | 18.19 Mbytes
Step Temp Press TotEng PotEng Enthalpy 
       0          300   -183049.92   -61915.329   -62677.356   -97839.431 
    1000    502.35627   -83216.848   -61915.357   -63191.388   -78246.916 
Loop time of 139.896 on 1 procs for 1000 steps with 19652 atoms

Performance: 0.618 ns/day, 38.860 hours/ns, 7.148 timesteps/s
99.6% CPU use with 1 MPI tasks x no OpenMP threads

MPI task timing breakdown:
Section |  min time  |  avg time  |  max time  |%varavg| %total
---------------------------------------------------------------
Pair    | 76.906     | 76.906     | 76.906     |   0.0 | 54.97
Neigh   | 61.25      | 61.25      | 61.25      |   0.0 | 43.78
Comm    | 1.0303     | 1.0303     | 1.0303     |   0.0 |  0.74
Output  | 0.00033402 | 0.00033402 | 0.00033402 |   0.0 |  0.00
Modify  | 0.36677    | 0.36677    | 0.36677    |   0.0 |  0.26
Other   |            | 0.3425     |            |       |  0.24

Nlocal:    19652 ave 19652 max 19652 min
Histogram: 1 0 0 0 0 0 0 0 0 0
Nghost:    19208 ave 19208 max 19208 min
Histogram: 1 0 0 0 0 0 0 0 0 0
Neighs:    1.58209e+06 ave 1.58209e+06 max 1.58209e+06 min
Histogram: 1 0 0 0 0 0 0 0 0 0

Total # of neighbors = 1582090
Ave neighs/atom = 80.5053
Neighbor list builds = 1000
Dangerous builds not checked
Setting up Verlet run ...
  Unit style    : metal
  Current step  : 1000
  Time step     : 0.001
Per MPI rank memory allocation (min/avg/max) = 18.19 | 18.19 | 18.19 Mbytes
Step Temp Press TotEng PotEng Enthalpy 
    1000    502.35627   -83216.848   -61915.357   -63191.388   -78246.916 
    2000    397.07682   -1852.4745   -66452.561   -67461.173   -66736.514 
Loop time of 163.889 on 1 procs for 1000 steps with 19652 atoms

Performance: 0.527 ns/day, 45.525 hours/ns, 6.102 timesteps/s
99.5% CPU use with 1 MPI tasks x no OpenMP threads

MPI task timing breakdown:
Section |  min time  |  avg time  |  max time  |%varavg| %total
---------------------------------------------------------------
Pair    | 87.703     | 87.703     | 87.703     |   0.0 | 53.51
Neigh   | 73.786     | 73.786     | 73.786     |   0.0 | 45.02
Comm    | 0.90241    | 0.90241    | 0.90241    |   0.0 |  0.55
Output  | 0.00013494 | 0.00013494 | 0.00013494 |   0.0 |  0.00
Modify  | 1.1775     | 1.1775     | 1.1775     |   0.0 |  0.72
Other   |            | 0.3204     |            |       |  0.20

Nlocal:    19652 ave 19652 max 19652 min
Histogram: 1 0 0 0 0 0 0 0 0 0
Nghost:    20317 ave 20317 max 20317 min
Histogram: 1 0 0 0 0 0 0 0 0 0
Neighs:    1.99953e+06 ave 1.99953e+06 max 1.99953e+06 min
Histogram: 1 0 0 0 0 0 0 0 0 0

Total # of neighbors = 1999529
Ave neighs/atom = 101.747
Neighbor list builds = 1000
Dangerous builds not checked
Setting up Verlet run ...
  Unit style    : metal
  Current step  : 2000
  Time step     : 0.001
Per MPI rank memory allocation (min/avg/max) = 19.33 | 19.33 | 19.33 Mbytes
Step Temp Press TotEng PotEng Enthalpy 
    2000    397.07682   -1852.4745   -66452.561   -67461.173   -66736.514 
    5000    1086.0331   -816.03004    -63826.86   -66585.483   -63953.119 
   10000    2450.0417    542.68231   -53635.111   -59858.441   -53535.991 
Loop time of 1616.41 on 1 procs for 8000 steps with 19652 atoms

Performance: 0.428 ns/day, 56.126 hours/ns, 4.949 timesteps/s
93.7% CPU use with 1 MPI tasks x no OpenMP threads

MPI task timing breakdown:
Section |  min time  |  avg time  |  max time  |%varavg| %total
---------------------------------------------------------------
Pair    | 870.23     | 870.23     | 870.23     |   0.0 | 53.84
Neigh   | 721.1      | 721.1      | 721.1      |   0.0 | 44.61
Comm    | 9.3476     | 9.3476     | 9.3476     |   0.0 |  0.58
Output  | 0.2242     | 0.2242     | 0.2242     |   0.0 |  0.01
Modify  | 12.222     | 12.222     | 12.222     |   0.0 |  0.76
Other   |            | 3.293      |            |       |  0.20

Nlocal:    19652 ave 19652 max 19652 min
Histogram: 1 0 0 0 0 0 0 0 0 0
Nghost:    19310 ave 19310 max 19310 min
Histogram: 1 0 0 0 0 0 0 0 0 0
Neighs:    1.68362e+06 ave 1.68362e+06 max 1.68362e+06 min
Histogram: 1 0 0 0 0 0 0 0 0 0

Total # of neighbors = 1683625
Ave neighs/atom = 85.6719
Neighbor list builds = 8000
Dangerous builds not checked
Setting up Verlet run ...
  Unit style    : metal
  Current step  : 10000
  Time step     : 0.001
Per MPI rank memory allocation (min/avg/max) = 19.34 | 19.34 | 19.34 Mbytes
Step Temp Press TotEng PotEng Enthalpy 
   10000    2450.0417    542.68231   -53635.111   -59858.441   -53535.991 
   15000    2447.0978    -497.7345   -53563.299    -59779.15   -53654.557 
   20000    2440.2306   -1112.8908   -53550.395   -59748.803   -53754.675 
   25000    2444.6065   -557.29736   -53520.985   -59730.508   -53623.311 
   30000    2457.7911   -228.98421   -53482.008   -59725.021   -53524.064 
   35000    2454.4951    2726.8177    -53522.68   -59757.321   -53023.919 
   40000    2455.5752    27.069043   -53586.714   -59824.098   -53581.759 
Loop time of 6295.93 on 1 procs for 30000 steps with 19652 atoms

Performance: 0.412 ns/day, 58.296 hours/ns, 4.765 timesteps/s
91.5% CPU use with 1 MPI tasks x no OpenMP threads

MPI task timing breakdown:
Section |  min time  |  avg time  |  max time  |%varavg| %total
---------------------------------------------------------------
Pair    | 3394.2     | 3394.2     | 3394.2     |   0.0 | 53.91
Neigh   | 2799.6     | 2799.6     | 2799.6     |   0.0 | 44.47
Comm    | 37.561     | 37.561     | 37.561     |   0.0 |  0.60
Output  | 0.40104    | 0.40104    | 0.40104    |   0.0 |  0.01
Modify  | 50.72      | 50.72      | 50.72      |   0.0 |  0.81
Other   |            | 13.43      |            |       |  0.21

Nlocal:    19652 ave 19652 max 19652 min
Histogram: 1 0 0 0 0 0 0 0 0 0
Nghost:    19322 ave 19322 max 19322 min
Histogram: 1 0 0 0 0 0 0 0 0 0
Neighs:    1.68117e+06 ave 1.68117e+06 max 1.68117e+06 min
Histogram: 1 0 0 0 0 0 0 0 0 0

Total # of neighbors = 1681167
Ave neighs/atom = 85.5469
Neighbor list builds = 30000
Dangerous builds not checked
Setting up Verlet run ...
  Unit style    : metal
  Current step  : 40000
  Time step     : 0.001
Per MPI rank memory allocation (min/avg/max) = 19.34 | 19.34 | 19.34 Mbytes
Step Temp Press TotEng PotEng Enthalpy 
   40000    2455.5752    27.069043   -53586.714   -59824.098   -53581.759 
   40495    2412.8292    560.51554    -53755.38   -59884.186   -53653.033 
Loop time of 97.4049 on 1 procs for 495 steps with 19652 atoms

Performance: 0.439 ns/day, 54.660 hours/ns, 5.082 timesteps/s
94.2% CPU use with 1 MPI tasks x no OpenMP threads

MPI task timing breakdown:
Section |  min time  |  avg time  |  max time  |%varavg| %total
---------------------------------------------------------------
Pair    | 52.222     | 52.222     | 52.222     |   0.0 | 53.61
Neigh   | 43.561     | 43.561     | 43.561     |   0.0 | 44.72
Comm    | 0.58796    | 0.58796    | 0.58796    |   0.0 |  0.60
Output  | 0.00021505 | 0.00021505 | 0.00021505 |   0.0 |  0.00
Modify  | 0.82223    | 0.82223    | 0.82223    |   0.0 |  0.84
Other   |            | 0.2115     |            |       |  0.22

Nlocal:    19652 ave 19652 max 19652 min
Histogram: 1 0 0 0 0 0 0 0 0 0
Nghost:    19288 ave 19288 max 19288 min
Histogram: 1 0 0 0 0 0 0 0 0 0
Neighs:    1.68512e+06 ave 1.68512e+06 max 1.68512e+06 min
Histogram: 1 0 0 0 0 0 0 0 0 0

Total # of neighbors = 1685120
Ave neighs/atom = 85.748
Neighbor list builds = 495
Dangerous builds not checked
Setting up Verlet run ...
  Unit style    : metal
  Current step  : 40495
  Time step     : 0.001
Per MPI rank memory allocation (min/avg/max) = 19.34 | 19.34 | 19.34 Mbytes
Step Temp Press TotEng PotEng Enthalpy 
   40495    2412.8292    560.51554    -53755.38   -59884.186   -53653.033 
   45000    2430.8273    227.52896    -53763.05   -59937.573   -53721.544 
Loop time of 891.723 on 1 procs for 4505 steps with 19652 atoms

Performance: 0.436 ns/day, 54.984 hours/ns, 5.052 timesteps/s
96.7% CPU use with 1 MPI tasks x no OpenMP threads

MPI task timing breakdown:
Section |  min time  |  avg time  |  max time  |%varavg| %total
---------------------------------------------------------------
Pair    | 483.53     | 483.53     | 483.53     |   0.0 | 54.22
Neigh   | 393.65     | 393.65     | 393.65     |   0.0 | 44.15
Comm    | 5.4271     | 5.4271     | 5.4271     |   0.0 |  0.61
Output  | 0.064893   | 0.064893   | 0.064893   |   0.0 |  0.01
Modify  | 7.1654     | 7.1654     | 7.1654     |   0.0 |  0.80
Other   |            | 1.885      |            |       |  0.21

Nlocal:    19652 ave 19652 max 19652 min
Histogram: 1 0 0 0 0 0 0 0 0 0
Nghost:    19343 ave 19343 max 19343 min
Histogram: 1 0 0 0 0 0 0 0 0 0
Neighs:    1.68607e+06 ave 1.68607e+06 max 1.68607e+06 min
Histogram: 1 0 0 0 0 0 0 0 0 0

Total # of neighbors = 1686071
Ave neighs/atom = 85.7964
Neighbor list builds = 4505
Dangerous builds not checked
Setting up Verlet run ...
  Unit style    : metal
  Current step  : 45000
  Time step     : 0.001
Per MPI rank memory allocation (min/avg/max) = 19.34 | 19.34 | 19.34 Mbytes
Step Temp Press TotEng PotEng Enthalpy 
   45000    2430.8273    227.52896    -53763.05   -59937.573   -53721.544 
   45495    2347.7173    965.04405   -54009.656   -59973.072   -53834.042 
Loop time of 95.3366 on 1 procs for 495 steps with 19652 atoms

Performance: 0.449 ns/day, 53.500 hours/ns, 5.192 timesteps/s
98.4% CPU use with 1 MPI tasks x no OpenMP threads

MPI task timing breakdown:
Section |  min time  |  avg time  |  max time  |%varavg| %total
---------------------------------------------------------------
Pair    | 51.835     | 51.835     | 51.835     |   0.0 | 54.37
Neigh   | 41.965     | 41.965     | 41.965     |   0.0 | 44.02
Comm    | 0.56897    | 0.56897    | 0.56897    |   0.0 |  0.60
Output  | 0.0002501  | 0.0002501  | 0.0002501  |   0.0 |  0.00
Modify  | 0.75398    | 0.75398    | 0.75398    |   0.0 |  0.79
Other   |            | 0.2132     |            |       |  0.22

Nlocal:    19652 ave 19652 max 19652 min
Histogram: 1 0 0 0 0 0 0 0 0 0
Nghost:    19343 ave 19343 max 19343 min
Histogram: 1 0 0 0 0 0 0 0 0 0
Neighs:    1.69032e+06 ave 1.69032e+06 max 1.69032e+06 min
Histogram: 1 0 0 0 0 0 0 0 0 0

Total # of neighbors = 1690325
Ave neighs/atom = 86.0129
Neighbor list builds = 495
Dangerous builds not checked
Setting up Verlet run ...
  Unit style    : metal
  Current step  : 45495
  Time step     : 0.001
Per MPI rank memory allocation (min/avg/max) = 19.34 | 19.34 | 19.34 Mbytes
Step Temp Press TotEng PotEng Enthalpy 
   45495    2347.7173    965.04405   -54009.656   -59973.072   -53834.042 
   50000    2338.3353    1663.8807    -54084.58   -60024.164   -53782.371 
Loop time of 901.014 on 1 procs for 4505 steps with 19652 atoms

Performance: 0.432 ns/day, 55.556 hours/ns, 5.000 timesteps/s
98.0% CPU use with 1 MPI tasks x no OpenMP threads

MPI task timing breakdown:
Section |  min time  |  avg time  |  max time  |%varavg| %total
---------------------------------------------------------------
Pair    | 488.12     | 488.12     | 488.12     |   0.0 | 54.17
Neigh   | 398.46     | 398.46     | 398.46     |   0.0 | 44.22
Comm    | 5.4035     | 5.4035     | 5.4035     |   0.0 |  0.60
Output  | 0.064568   | 0.064568   | 0.064568   |   0.0 |  0.01
Modify  | 7.094      | 7.094      | 7.094      |   0.0 |  0.79
Other   |            | 1.873      |            |       |  0.21

Nlocal:    19652 ave 19652 max 19652 min
Histogram: 1 0 0 0 0 0 0 0 0 0
Nghost:    19334 ave 19334 max 19334 min
Histogram: 1 0 0 0 0 0 0 0 0 0
Neighs:    1.69391e+06 ave 1.69391e+06 max 1.69391e+06 min
Histogram: 1 0 0 0 0 0 0 0 0 0

Total # of neighbors = 1693907
Ave neighs/atom = 86.1951
Neighbor list builds = 4505
Dangerous builds not checked
Setting up Verlet run ...
  Unit style    : metal
  Current step  : 50000
  Time step     : 0.001
Per MPI rank memory allocation (min/avg/max) = 19.34 | 19.34 | 19.34 Mbytes
Step Temp Press TotEng PotEng Enthalpy 
   50000    2338.3353    1663.8807    -54084.58   -60024.164   -53782.371 
   50495    2329.4887    229.22458   -54315.942   -60233.055   -54274.454 
Loop time of 101.662 on 1 procs for 495 steps with 19652 atoms

Performance: 0.421 ns/day, 57.050 hours/ns, 4.869 timesteps/s
96.3% CPU use with 1 MPI tasks x no OpenMP threads

MPI task timing breakdown:
Section |  min time  |  avg time  |  max time  |%varavg| %total
---------------------------------------------------------------
Pair    | 55.372     | 55.372     | 55.372     |   0.0 | 54.47
Neigh   | 44.674     | 44.674     | 44.674     |   0.0 | 43.94
Comm    | 0.61321    | 0.61321    | 0.61321    |   0.0 |  0.60
Output  | 0.000278   | 0.000278   | 0.000278   |   0.0 |  0.00
Modify  | 0.79378    | 0.79378    | 0.79378    |   0.0 |  0.78
Other   |            | 0.2094     |            |       |  0.21

Nlocal:    19652 ave 19652 max 19652 min
Histogram: 1 0 0 0 0 0 0 0 0 0
Nghost:    19385 ave 19385 max 19385 min
Histogram: 1 0 0 0 0 0 0 0 0 0
Neighs:    1.69949e+06 ave 1.69949e+06 max 1.69949e+06 min
Histogram: 1 0 0 0 0 0 0 0 0 0

Total # of neighbors = 1699490
Ave neighs/atom = 86.4792
Neighbor list builds = 495
Dangerous builds not checked
Setting up Verlet run ...
  Unit style    : metal
  Current step  : 50495
  Time step     : 0.001
Per MPI rank memory allocation (min/avg/max) = 19.34 | 19.34 | 19.34 Mbytes
Step Temp Press TotEng PotEng Enthalpy 
   50495    2329.4887    229.22458   -54315.942   -60233.055   -54274.454 
   55000    2302.8721    495.38864   -54481.328   -60330.833   -54391.944 
Loop time of 922.915 on 1 procs for 4505 steps with 19652 atoms

Performance: 0.422 ns/day, 56.907 hours/ns, 4.881 timesteps/s
97.9% CPU use with 1 MPI tasks x no OpenMP threads

MPI task timing breakdown:
Section |  min time  |  avg time  |  max time  |%varavg| %total
---------------------------------------------------------------
Pair    | 500.71     | 500.71     | 500.71     |   0.0 | 54.25
Neigh   | 407.49     | 407.49     | 407.49     |   0.0 | 44.15
Comm    | 5.4952     | 5.4952     | 5.4952     |   0.0 |  0.60
Output  | 0.061448   | 0.061448   | 0.061448   |   0.0 |  0.01
Modify  | 7.317      | 7.317      | 7.317      |   0.0 |  0.79
Other   |            | 1.845      |            |       |  0.20

Nlocal:    19652 ave 19652 max 19652 min
Histogram: 1 0 0 0 0 0 0 0 0 0
Nghost:    19401 ave 19401 max 19401 min
Histogram: 1 0 0 0 0 0 0 0 0 0
Neighs:    1.70444e+06 ave 1.70444e+06 max 1.70444e+06 min
Histogram: 1 0 0 0 0 0 0 0 0 0

Total # of neighbors = 1704442
Ave neighs/atom = 86.7312
Neighbor list builds = 4505
Dangerous builds not checked
Setting up Verlet run ...
  Unit style    : metal
  Current step  : 55000
  Time step     : 0.001
Per MPI rank memory allocation (min/avg/max) = 19.34 | 19.34 | 19.34 Mbytes
Step Temp Press TotEng PotEng Enthalpy 
   55000    2302.8721    495.38864   -54481.328   -60330.833   -54391.944 
   55495    2245.5537    1185.0203    -54661.18   -60365.091   -54447.887 
Loop time of 97.2999 on 1 procs for 495 steps with 19652 atoms

Performance: 0.440 ns/day, 54.601 hours/ns, 5.087 timesteps/s
99.2% CPU use with 1 MPI tasks x no OpenMP threads

MPI task timing breakdown:
Section |  min time  |  avg time  |  max time  |%varavg| %total
---------------------------------------------------------------
Pair    | 53.14      | 53.14      | 53.14      |   0.0 | 54.61
Neigh   | 42.626     | 42.626     | 42.626     |   0.0 | 43.81
Comm    | 0.56694    | 0.56694    | 0.56694    |   0.0 |  0.58
Output  | 0.00027204 | 0.00027204 | 0.00027204 |   0.0 |  0.00
Modify  | 0.76696    | 0.76696    | 0.76696    |   0.0 |  0.79
Other   |            | 0.1992     |            |       |  0.20

Nlocal:    19652 ave 19652 max 19652 min
Histogram: 1 0 0 0 0 0 0 0 0 0
Nghost:    19310 ave 19310 max 19310 min
Histogram: 1 0 0 0 0 0 0 0 0 0
Neighs:    1.70896e+06 ave 1.70896e+06 max 1.70896e+06 min
Histogram: 1 0 0 0 0 0 0 0 0 0

Total # of neighbors = 1708961
Ave neighs/atom = 86.9612
Neighbor list builds = 495
Dangerous builds not checked
Setting up Verlet run ...
  Unit style    : metal
  Current step  : 55495
  Time step     : 0.001
Per MPI rank memory allocation (min/avg/max) = 19.34 | 19.34 | 19.34 Mbytes
Step Temp Press TotEng PotEng Enthalpy 
   55495    2245.5537    1185.0203    -54661.18   -60365.091   -54447.887 
   60000     2214.806   -208.50275   -54815.139   -60440.948   -54852.633 
Loop time of 916.48 on 1 procs for 4505 steps with 19652 atoms

Performance: 0.425 ns/day, 56.510 hours/ns, 4.916 timesteps/s
98.4% CPU use with 1 MPI tasks x no OpenMP threads

MPI task timing breakdown:
Section |  min time  |  avg time  |  max time  |%varavg| %total
---------------------------------------------------------------
Pair    | 498.91     | 498.91     | 498.91     |   0.0 | 54.44
Neigh   | 402.91     | 402.91     | 402.91     |   0.0 | 43.96
Comm    | 5.4118     | 5.4118     | 5.4118     |   0.0 |  0.59
Output  | 0.068265   | 0.068265   | 0.068265   |   0.0 |  0.01
Modify  | 7.3252     | 7.3252     | 7.3252     |   0.0 |  0.80
Other   |            | 1.849      |            |       |  0.20

Nlocal:    19652 ave 19652 max 19652 min
Histogram: 1 0 0 0 0 0 0 0 0 0
Nghost:    19381 ave 19381 max 19381 min
Histogram: 1 0 0 0 0 0 0 0 0 0
Neighs:    1.71042e+06 ave 1.71042e+06 max 1.71042e+06 min
Histogram: 1 0 0 0 0 0 0 0 0 0

Total # of neighbors = 1710416
Ave neighs/atom = 87.0352
Neighbor list builds = 4505
Dangerous builds not checked
Setting up Verlet run ...
  Unit style    : metal
  Current step  : 60000
  Time step     : 0.001
Per MPI rank memory allocation (min/avg/max) = 19.34 | 19.34 | 19.34 Mbytes
Step Temp Press TotEng PotEng Enthalpy 
   60000     2214.806   -208.50275   -54815.139   -60440.948   -54852.633 
   60495    2209.3788   -685.74718    -54901.06   -60513.084   -55024.243 
Loop time of 101.02 on 1 procs for 495 steps with 19652 atoms

Performance: 0.423 ns/day, 56.689 hours/ns, 4.900 timesteps/s
97.2% CPU use with 1 MPI tasks x no OpenMP threads

MPI task timing breakdown:
Section |  min time  |  avg time  |  max time  |%varavg| %total
---------------------------------------------------------------
Pair    | 55.249     | 55.249     | 55.249     |   0.0 | 54.69
Neigh   | 44.176     | 44.176     | 44.176     |   0.0 | 43.73
Comm    | 0.59742    | 0.59742    | 0.59742    |   0.0 |  0.59
Output  | 0.00019288 | 0.00019288 | 0.00019288 |   0.0 |  0.00
Modify  | 0.79827    | 0.79827    | 0.79827    |   0.0 |  0.79
Other   |            | 0.1987     |            |       |  0.20

Nlocal:    19652 ave 19652 max 19652 min
Histogram: 1 0 0 0 0 0 0 0 0 0
Nghost:    19387 ave 19387 max 19387 min
Histogram: 1 0 0 0 0 0 0 0 0 0
Neighs:    1.71152e+06 ave 1.71152e+06 max 1.71152e+06 min
Histogram: 1 0 0 0 0 0 0 0 0 0

Total # of neighbors = 1711525
Ave neighs/atom = 87.0916
Neighbor list builds = 495
Dangerous builds not checked
Setting up Verlet run ...
  Unit style    : metal
  Current step  : 60495
  Time step     : 0.001
Per MPI rank memory allocation (min/avg/max) = 19.34 | 19.34 | 19.34 Mbytes
Step Temp Press TotEng PotEng Enthalpy 
   60495    2209.3788   -685.74718    -54901.06   -60513.084   -55024.243 
   65000    2197.0036   -1227.6525   -54901.492   -60482.081   -55122.268 
Loop time of 928.92 on 1 procs for 4505 steps with 19652 atoms

Performance: 0.419 ns/day, 57.277 hours/ns, 4.850 timesteps/s
98.3% CPU use with 1 MPI tasks x no OpenMP threads

MPI task timing breakdown:
Section |  min time  |  avg time  |  max time  |%varavg| %total
---------------------------------------------------------------
Pair    | 504.63     | 504.63     | 504.63     |   0.0 | 54.32
Neigh   | 409.56     | 409.56     | 409.56     |   0.0 | 44.09
Comm    | 5.4168     | 5.4168     | 5.4168     |   0.0 |  0.58
Output  | 0.065163   | 0.065163   | 0.065163   |   0.0 |  0.01
Modify  | 7.3769     | 7.3769     | 7.3769     |   0.0 |  0.79
Other   |            | 1.877      |            |       |  0.20

Nlocal:    19652 ave 19652 max 19652 min
Histogram: 1 0 0 0 0 0 0 0 0 0
Nghost:    19423 ave 19423 max 19423 min
Histogram: 1 0 0 0 0 0 0 0 0 0
Neighs:    1.70994e+06 ave 1.70994e+06 max 1.70994e+06 min
Histogram: 1 0 0 0 0 0 0 0 0 0

Total # of neighbors = 1709942
Ave neighs/atom = 87.0111
Neighbor list builds = 4505
Dangerous builds not checked
Setting up Verlet run ...
  Unit style    : metal
  Current step  : 65000
  Time step     : 0.001
Per MPI rank memory allocation (min/avg/max) = 19.34 | 19.34 | 19.34 Mbytes
Step Temp Press TotEng PotEng Enthalpy 
   65000    2197.0036   -1227.6525   -54901.492   -60482.081   -55122.268 
   65495     2165.866    -466.5673    -55244.38   -60745.877   -55327.666 
Loop time of 98.4151 on 1 procs for 495 steps with 19652 atoms

Performance: 0.435 ns/day, 55.227 hours/ns, 5.030 timesteps/s
98.4% CPU use with 1 MPI tasks x no OpenMP threads

MPI task timing breakdown:
Section |  min time  |  avg time  |  max time  |%varavg| %total
---------------------------------------------------------------
Pair    | 53.397     | 53.397     | 53.397     |   0.0 | 54.26
Neigh   | 43.434     | 43.434     | 43.434     |   0.0 | 44.13
Comm    | 0.57645    | 0.57645    | 0.57645    |   0.0 |  0.59
Output  | 0.00019312 | 0.00019312 | 0.00019312 |   0.0 |  0.00
Modify  | 0.80589    | 0.80589    | 0.80589    |   0.0 |  0.82
Other   |            | 0.2015     |            |       |  0.20

Nlocal:    19652 ave 19652 max 19652 min
Histogram: 1 0 0 0 0 0 0 0 0 0
Nghost:    19520 ave 19520 max 19520 min
Histogram: 1 0 0 0 0 0 0 0 0 0
Neighs:    1.72314e+06 ave 1.72314e+06 max 1.72314e+06 min
Histogram: 1 0 0 0 0 0 0 0 0 0

Total # of neighbors = 1723141
Ave neighs/atom = 87.6827
Neighbor list builds = 495
Dangerous builds not checked
Setting up Verlet run ...
  Unit style    : metal
  Current step  : 65495
  Time step     : 0.001
Per MPI rank memory allocation (min/avg/max) = 19.34 | 19.34 | 19.34 Mbytes
Step Temp Press TotEng PotEng Enthalpy 
   65495     2165.866    -466.5673    -55244.38   -60745.877   -55327.666 
   70000    2148.8613   -97.306118   -55253.374   -60711.678   -55270.751 
Loop time of 919.153 on 1 procs for 4505 steps with 19652 atoms

Performance: 0.423 ns/day, 56.675 hours/ns, 4.901 timesteps/s
98.0% CPU use with 1 MPI tasks x no OpenMP threads

MPI task timing breakdown:
Section |  min time  |  avg time  |  max time  |%varavg| %total
---------------------------------------------------------------
Pair    | 501.22     | 501.22     | 501.22     |   0.0 | 54.53
Neigh   | 403.26     | 403.26     | 403.26     |   0.0 | 43.87
Comm    | 5.3879     | 5.3879     | 5.3879     |   0.0 |  0.59
Output  | 0.097612   | 0.097612   | 0.097612   |   0.0 |  0.01
Modify  | 7.3121     | 7.3121     | 7.3121     |   0.0 |  0.80
Other   |            | 1.876      |            |       |  0.20

Nlocal:    19652 ave 19652 max 19652 min
Histogram: 1 0 0 0 0 0 0 0 0 0
Nghost:    19413 ave 19413 max 19413 min
Histogram: 1 0 0 0 0 0 0 0 0 0
Neighs:    1.72206e+06 ave 1.72206e+06 max 1.72206e+06 min
Histogram: 1 0 0 0 0 0 0 0 0 0

Total # of neighbors = 1722056
Ave neighs/atom = 87.6275
Neighbor list builds = 4505
Dangerous builds not checked
Setting up Verlet run ...
  Unit style    : metal
  Current step  : 70000
  Time step     : 0.001
Per MPI rank memory allocation (min/avg/max) = 19.34 | 19.34 | 19.34 Mbytes
Step Temp Press TotEng PotEng Enthalpy 
   70000    2148.8613   -97.306118   -55253.374   -60711.678   -55270.751 
   70495    2104.3193    694.97736   -55495.547    -60840.71   -55372.074 
Loop time of 97.0773 on 1 procs for 495 steps with 19652 atoms

Performance: 0.441 ns/day, 54.477 hours/ns, 5.099 timesteps/s
97.8% CPU use with 1 MPI tasks x no OpenMP threads

MPI task timing breakdown:
Section |  min time  |  avg time  |  max time  |%varavg| %total
---------------------------------------------------------------
Pair    | 53.068     | 53.068     | 53.068     |   0.0 | 54.67
Neigh   | 42.454     | 42.454     | 42.454     |   0.0 | 43.73
Comm    | 0.58107    | 0.58107    | 0.58107    |   0.0 |  0.60
Output  | 0.00017595 | 0.00017595 | 0.00017595 |   0.0 |  0.00
Modify  | 0.77298    | 0.77298    | 0.77298    |   0.0 |  0.80
Other   |            | 0.2009     |            |       |  0.21

Nlocal:    19652 ave 19652 max 19652 min
Histogram: 1 0 0 0 0 0 0 0 0 0
Nghost:    19499 ave 19499 max 19499 min
Histogram: 1 0 0 0 0 0 0 0 0 0
Neighs:    1.73033e+06 ave 1.73033e+06 max 1.73033e+06 min
Histogram: 1 0 0 0 0 0 0 0 0 0

Total # of neighbors = 1730333
Ave neighs/atom = 88.0487
Neighbor list builds = 495
Dangerous builds not checked
Setting up Verlet run ...
  Unit style    : metal
  Current step  : 70495
  Time step     : 0.001
Per MPI rank memory allocation (min/avg/max) = 19.34 | 19.34 | 19.34 Mbytes
Step Temp Press TotEng PotEng Enthalpy 
   70495    2104.3193    694.97736   -55495.547    -60840.71   -55372.074 
   75000    2079.9737    -22.61877   -55623.886   -60907.209   -55627.902 
Loop time of 922.165 on 1 procs for 4505 steps with 19652 atoms

Performance: 0.422 ns/day, 56.861 hours/ns, 4.885 timesteps/s
97.8% CPU use with 1 MPI tasks x no OpenMP threads

MPI task timing breakdown:
Section |  min time  |  avg time  |  max time  |%varavg| %total
---------------------------------------------------------------
Pair    | 504.14     | 504.14     | 504.14     |   0.0 | 54.67
Neigh   | 403.29     | 403.29     | 403.29     |   0.0 | 43.73
Comm    | 5.4394     | 5.4394     | 5.4394     |   0.0 |  0.59
Output  | 0.077018   | 0.077018   | 0.077018   |   0.0 |  0.01
Modify  | 7.3514     | 7.3514     | 7.3514     |   0.0 |  0.80
Other   |            | 1.863      |            |       |  0.20

Nlocal:    19652 ave 19652 max 19652 min
Histogram: 1 0 0 0 0 0 0 0 0 0
Nghost:    19423 ave 19423 max 19423 min
Histogram: 1 0 0 0 0 0 0 0 0 0
Neighs:    1.73134e+06 ave 1.73134e+06 max 1.73134e+06 min
Histogram: 1 0 0 0 0 0 0 0 0 0

Total # of neighbors = 1731340
Ave neighs/atom = 88.0999
Neighbor list builds = 4505
Dangerous builds not checked
Setting up Verlet run ...
  Unit style    : metal
  Current step  : 75000
  Time step     : 0.001
Per MPI rank memory allocation (min/avg/max) = 19.34 | 19.34 | 19.34 Mbytes
Step Temp Press TotEng PotEng Enthalpy 
   75000    2079.9737    -22.61877   -55623.886   -60907.209   -55627.902 
   75495    2082.0633   -640.46746   -55836.709    -61125.34   -55949.952 
Loop time of 99.6152 on 1 procs for 495 steps with 19652 atoms

Performance: 0.429 ns/day, 55.901 hours/ns, 4.969 timesteps/s
99.4% CPU use with 1 MPI tasks x no OpenMP threads

MPI task timing breakdown:
Section |  min time  |  avg time  |  max time  |%varavg| %total
---------------------------------------------------------------
Pair    | 54.595     | 54.595     | 54.595     |   0.0 | 54.81
Neigh   | 43.428     | 43.428     | 43.428     |   0.0 | 43.60
Comm    | 0.58886    | 0.58886    | 0.58886    |   0.0 |  0.59
Output  | 0.00021195 | 0.00021195 | 0.00021195 |   0.0 |  0.00
Modify  | 0.80148    | 0.80148    | 0.80148    |   0.0 |  0.80
Other   |            | 0.2011     |            |       |  0.20

Nlocal:    19652 ave 19652 max 19652 min
Histogram: 1 0 0 0 0 0 0 0 0 0
Nghost:    19558 ave 19558 max 19558 min
Histogram: 1 0 0 0 0 0 0 0 0 0
Neighs:    1.73831e+06 ave 1.73831e+06 max 1.73831e+06 min
Histogram: 1 0 0 0 0 0 0 0 0 0

Total # of neighbors = 1738314
Ave neighs/atom = 88.4548
Neighbor list builds = 495
Dangerous builds not checked
Setting up Verlet run ...
  Unit style    : metal
  Current step  : 75495
  Time step     : 0.001
Per MPI rank memory allocation (min/avg/max) = 19.34 | 19.34 | 19.34 Mbytes
Step Temp Press TotEng PotEng Enthalpy 
   75495    2082.0633   -640.46746   -55836.709    -61125.34   -55949.952 
   80000    2057.2973   -1745.8132   -55862.048    -61087.77   -56171.124 
Loop time of 841.091 on 1 procs for 4505 steps with 19652 atoms

Performance: 0.463 ns/day, 51.862 hours/ns, 5.356 timesteps/s
99.3% CPU use with 1 MPI tasks x no OpenMP threads

MPI task timing breakdown:
Section |  min time  |  avg time  |  max time  |%varavg| %total
---------------------------------------------------------------
Pair    | 458.31     | 458.31     | 458.31     |   0.0 | 54.49
Neigh   | 369.36     | 369.36     | 369.36     |   0.0 | 43.91
Comm    | 5.0008     | 5.0008     | 5.0008     |   0.0 |  0.59
Output  | 0.064702   | 0.064702   | 0.064702   |   0.0 |  0.01
Modify  | 6.6274     | 6.6274     | 6.6274     |   0.0 |  0.79
Other   |            | 1.736      |            |       |  0.21

Nlocal:    19652 ave 19652 max 19652 min
Histogram: 1 0 0 0 0 0 0 0 0 0
Nghost:    19540 ave 19540 max 19540 min
Histogram: 1 0 0 0 0 0 0 0 0 0
Neighs:    1.73682e+06 ave 1.73682e+06 max 1.73682e+06 min
Histogram: 1 0 0 0 0 0 0 0 0 0

Total # of neighbors = 1736820
Ave neighs/atom = 88.3788
Neighbor list builds = 4505
Dangerous builds not checked
Setting up Verlet run ...
  Unit style    : metal
  Current step  : 80000
  Time step     : 0.001
Per MPI rank memory allocation (min/avg/max) = 19.34 | 19.34 | 19.34 Mbytes
Step Temp Press TotEng PotEng Enthalpy 
   80000    2057.2973   -1745.8132   -55862.048    -61087.77   -56171.124 
   80495     2000.372   -352.40192   -56122.564   -61203.691   -56184.664 
Loop time of 79.2821 on 1 procs for 495 steps with 19652 atoms

Performance: 0.539 ns/day, 44.490 hours/ns, 6.244 timesteps/s
99.9% CPU use with 1 MPI tasks x no OpenMP threads

MPI task timing breakdown:
Section |  min time  |  avg time  |  max time  |%varavg| %total
---------------------------------------------------------------
Pair    | 42.782     | 42.782     | 42.782     |   0.0 | 53.96
Neigh   | 35.238     | 35.238     | 35.238     |   0.0 | 44.45
Comm    | 0.46702    | 0.46702    | 0.46702    |   0.0 |  0.59
Output  | 0.00026107 | 0.00026107 | 0.00026107 |   0.0 |  0.00
Modify  | 0.62903    | 0.62903    | 0.62903    |   0.0 |  0.79
Other   |            | 0.1659     |            |       |  0.21

Nlocal:    19652 ave 19652 max 19652 min
Histogram: 1 0 0 0 0 0 0 0 0 0
Nghost:    19557 ave 19557 max 19557 min
Histogram: 1 0 0 0 0 0 0 0 0 0
Neighs:    1.74472e+06 ave 1.74472e+06 max 1.74472e+06 min
Histogram: 1 0 0 0 0 0 0 0 0 0

Total # of neighbors = 1744717
Ave neighs/atom = 88.7806
Neighbor list builds = 495
Dangerous builds not checked
Setting up Verlet run ...
  Unit style    : metal
  Current step  : 80495
  Time step     : 0.001
Per MPI rank memory allocation (min/avg/max) = 19.34 | 19.34 | 19.34 Mbytes
Step Temp Press TotEng PotEng Enthalpy 
   80495     2000.372   -352.40192   -56122.564   -61203.691   -56184.664 
   85000    1999.5463    281.84855   -56165.088   -61244.118   -56115.496 
Loop time of 721.486 on 1 procs for 4505 steps with 19652 atoms

Performance: 0.539 ns/day, 44.487 hours/ns, 6.244 timesteps/s
99.9% CPU use with 1 MPI tasks x no OpenMP threads

MPI task timing breakdown:
Section |  min time  |  avg time  |  max time  |%varavg| %total
---------------------------------------------------------------
Pair    | 389.55     | 389.55     | 389.55     |   0.0 | 53.99
Neigh   | 320.51     | 320.51     | 320.51     |   0.0 | 44.42
Comm    | 4.2864     | 4.2864     | 4.2864     |   0.0 |  0.59
Output  | 0.063948   | 0.063948   | 0.063948   |   0.0 |  0.01
Modify  | 5.5993     | 5.5993     | 5.5993     |   0.0 |  0.78
Other   |            | 1.477      |            |       |  0.20

Nlocal:    19652 ave 19652 max 19652 min
Histogram: 1 0 0 0 0 0 0 0 0 0
Nghost:    19601 ave 19601 max 19601 min
Histogram: 1 0 0 0 0 0 0 0 0 0
Neighs:    1.7465e+06 ave 1.7465e+06 max 1.7465e+06 min
Histogram: 1 0 0 0 0 0 0 0 0 0

Total # of neighbors = 1746497
Ave neighs/atom = 88.8712
Neighbor list builds = 4505
Dangerous builds not checked
Setting up Verlet run ...
  Unit style    : metal
  Current step  : 85000
  Time step     : 0.001
Per MPI rank memory allocation (min/avg/max) = 19.34 | 19.34 | 19.34 Mbytes
Step Temp Press TotEng PotEng Enthalpy 
   85000    1999.5463    281.84855   -56165.088   -61244.118   -56115.496 
   85495    1959.0116     680.1912   -56387.253   -61363.321   -56268.001 
Loop time of 80.9571 on 1 procs for 495 steps with 19652 atoms

Performance: 0.528 ns/day, 45.430 hours/ns, 6.114 timesteps/s
99.6% CPU use with 1 MPI tasks x no OpenMP threads

MPI task timing breakdown:
Section |  min time  |  avg time  |  max time  |%varavg| %total
---------------------------------------------------------------
Pair    | 43.761     | 43.761     | 43.761     |   0.0 | 54.05
Neigh   | 35.678     | 35.678     | 35.678     |   0.0 | 44.07
Comm    | 0.47694    | 0.47694    | 0.47694    |   0.0 |  0.59
Output  | 0.23686    | 0.23686    | 0.23686    |   0.0 |  0.29
Modify  | 0.63441    | 0.63441    | 0.63441    |   0.0 |  0.78
Other   |            | 0.1695     |            |       |  0.21

Nlocal:    19652 ave 19652 max 19652 min
Histogram: 1 0 0 0 0 0 0 0 0 0
Nghost:    19562 ave 19562 max 19562 min
Histogram: 1 0 0 0 0 0 0 0 0 0
Neighs:    1.7531e+06 ave 1.7531e+06 max 1.7531e+06 min
Histogram: 1 0 0 0 0 0 0 0 0 0

Total # of neighbors = 1753097
Ave neighs/atom = 89.2071
Neighbor list builds = 495
Dangerous builds not checked
Setting up Verlet run ...
  Unit style    : metal
  Current step  : 85495
  Time step     : 0.001
Per MPI rank memory allocation (min/avg/max) = 19.34 | 19.34 | 19.34 Mbytes
Step Temp Press TotEng PotEng Enthalpy 
   85495    1959.0116     680.1912   -56387.253   -61363.321   -56268.001 
   90000    1929.7426   -153.47145   -56556.786   -61458.509   -56583.646 
Loop time of 729.738 on 1 procs for 4505 steps with 19652 atoms

Performance: 0.533 ns/day, 44.996 hours/ns, 6.173 timesteps/s
99.9% CPU use with 1 MPI tasks x no OpenMP threads

MPI task timing breakdown:
Section |  min time  |  avg time  |  max time  |%varavg| %total
---------------------------------------------------------------
Pair    | 395.08     | 395.08     | 395.08     |   0.0 | 54.14
Neigh   | 323.13     | 323.13     | 323.13     |   0.0 | 44.28
Comm    | 4.3357     | 4.3357     | 4.3357     |   0.0 |  0.59
Output  | 0.046948   | 0.046948   | 0.046948   |   0.0 |  0.01
Modify  | 5.6374     | 5.6374     | 5.6374     |   0.0 |  0.77
Other   |            | 1.505      |            |       |  0.21

Nlocal:    19652 ave 19652 max 19652 min
Histogram: 1 0 0 0 0 0 0 0 0 0
Nghost:    19693 ave 19693 max 19693 min
Histogram: 1 0 0 0 0 0 0 0 0 0
Neighs:    1.75597e+06 ave 1.75597e+06 max 1.75597e+06 min
Histogram: 1 0 0 0 0 0 0 0 0 0

Total # of neighbors = 1755971
Ave neighs/atom = 89.3533
Neighbor list builds = 4505
Dangerous builds not checked
Setting up Verlet run ...
  Unit style    : metal
  Current step  : 90000
  Time step     : 0.001
Per MPI rank memory allocation (min/avg/max) = 19.34 | 19.34 | 19.34 Mbytes
Step Temp Press TotEng PotEng Enthalpy 
   90000    1929.7426   -153.47145   -56556.786   -61458.509   -56583.646 
   90495    1903.3182   -354.99942   -56693.654   -61528.256   -56755.668 
Loop time of 79.6688 on 1 procs for 495 steps with 19652 atoms

Performance: 0.537 ns/day, 44.708 hours/ns, 6.213 timesteps/s
100.0% CPU use with 1 MPI tasks x no OpenMP threads

MPI task timing breakdown:
Section |  min time  |  avg time  |  max time  |%varavg| %total
---------------------------------------------------------------
Pair    | 43.176     | 43.176     | 43.176     |   0.0 | 54.19
Neigh   | 35.217     | 35.217     | 35.217     |   0.0 | 44.20
Comm    | 0.47496    | 0.47496    | 0.47496    |   0.0 |  0.60
Output  | 0.00017905 | 0.00017905 | 0.00017905 |   0.0 |  0.00
Modify  | 0.63351    | 0.63351    | 0.63351    |   0.0 |  0.80
Other   |            | 0.1673     |            |       |  0.21

Nlocal:    19652 ave 19652 max 19652 min
Histogram: 1 0 0 0 0 0 0 0 0 0
Nghost:    19624 ave 19624 max 19624 min
Histogram: 1 0 0 0 0 0 0 0 0 0
Neighs:    1.75905e+06 ave 1.75905e+06 max 1.75905e+06 min
Histogram: 1 0 0 0 0 0 0 0 0 0

Total # of neighbors = 1759048
Ave neighs/atom = 89.5099
Neighbor list builds = 495
Dangerous builds not checked
Setting up Verlet run ...
  Unit style    : metal
  Current step  : 90495
  Time step     : 0.001
Per MPI rank memory allocation (min/avg/max) = 19.34 | 19.34 | 19.34 Mbytes
Step Temp Press TotEng PotEng Enthalpy 
   90495    1903.3182   -354.99942   -56693.654   -61528.256   -56755.668 
   95000    1885.5601    431.38389   -56838.658   -61628.153   -56763.569 
Loop time of 799.73 on 1 procs for 4505 steps with 19652 atoms

Performance: 0.487 ns/day, 49.311 hours/ns, 5.633 timesteps/s
99.9% CPU use with 1 MPI tasks x no OpenMP threads

MPI task timing breakdown:
Section |  min time  |  avg time  |  max time  |%varavg| %total
---------------------------------------------------------------
Pair    | 436.71     | 436.71     | 436.71     |   0.0 | 54.61
Neigh   | 350.27     | 350.27     | 350.27     |   0.0 | 43.80
Comm    | 4.7631     | 4.7631     | 4.7631     |   0.0 |  0.60
Output  | 0.064982   | 0.064982   | 0.064982   |   0.0 |  0.01
Modify  | 6.2658     | 6.2658     | 6.2658     |   0.0 |  0.78
Other   |            | 1.655      |            |       |  0.21

Nlocal:    19652 ave 19652 max 19652 min
Histogram: 1 0 0 0 0 0 0 0 0 0
Nghost:    19686 ave 19686 max 19686 min
Histogram: 1 0 0 0 0 0 0 0 0 0
Neighs:    1.76494e+06 ave 1.76494e+06 max 1.76494e+06 min
Histogram: 1 0 0 0 0 0 0 0 0 0

Total # of neighbors = 1764943
Ave neighs/atom = 89.8098
Neighbor list builds = 4505
Dangerous builds not checked
Setting up Verlet run ...
  Unit style    : metal
  Current step  : 95000
  Time step     : 0.001
Per MPI rank memory allocation (min/avg/max) = 19.34 | 19.34 | 19.34 Mbytes
Step Temp Press TotEng PotEng Enthalpy 
   95000    1885.5601    431.38389   -56838.658   -61628.153   -56763.569 
   95495     1861.419   -1207.6645   -56986.776    -61714.95   -57197.029 
Loop time of 82.5687 on 1 procs for 495 steps with 19652 atoms

Performance: 0.518 ns/day, 46.335 hours/ns, 5.995 timesteps/s
100.0% CPU use with 1 MPI tasks x no OpenMP threads

MPI task timing breakdown:
Section |  min time  |  avg time  |  max time  |%varavg| %total
---------------------------------------------------------------
Pair    | 44.942     | 44.942     | 44.942     |   0.0 | 54.43
Neigh   | 36.303     | 36.303     | 36.303     |   0.0 | 43.97
Comm    | 0.49047    | 0.49047    | 0.49047    |   0.0 |  0.59
Output  | 0.00015998 | 0.00015998 | 0.00015998 |   0.0 |  0.00
Modify  | 0.6588     | 0.6588     | 0.6588     |   0.0 |  0.80
Other   |            | 0.1745     |            |       |  0.21

Nlocal:    19652 ave 19652 max 19652 min
Histogram: 1 0 0 0 0 0 0 0 0 0
Nghost:    19566 ave 19566 max 19566 min
Histogram: 1 0 0 0 0 0 0 0 0 0
Neighs:    1.7647e+06 ave 1.7647e+06 max 1.7647e+06 min
Histogram: 1 0 0 0 0 0 0 0 0 0

Total # of neighbors = 1764698
Ave neighs/atom = 89.7974
Neighbor list builds = 495
Dangerous builds not checked
Setting up Verlet run ...
  Unit style    : metal
  Current step  : 95495
  Time step     : 0.001
Per MPI rank memory allocation (min/avg/max) = 19.34 | 19.34 | 19.34 Mbytes
Step Temp Press TotEng PotEng Enthalpy 
   95495     1861.419   -1207.6645   -56986.776    -61714.95   -57197.029 
  100000    1837.2179   -772.41611   -57178.845   -61845.546   -57312.749 
Loop time of 737.065 on 1 procs for 4505 steps with 19652 atoms

Performance: 0.528 ns/day, 45.447 hours/ns, 6.112 timesteps/s
99.9% CPU use with 1 MPI tasks x no OpenMP threads

MPI task timing breakdown:
Section |  min time  |  avg time  |  max time  |%varavg| %total
---------------------------------------------------------------
Pair    | 400.86     | 400.86     | 400.86     |   0.0 | 54.39
Neigh   | 324.53     | 324.53     | 324.53     |   0.0 | 44.03
Comm    | 4.3845     | 4.3845     | 4.3845     |   0.0 |  0.59
Output  | 0.071022   | 0.071022   | 0.071022   |   0.0 |  0.01
Modify  | 5.7055     | 5.7055     | 5.7055     |   0.0 |  0.77
Other   |            | 1.519      |            |       |  0.21

Nlocal:    19652 ave 19652 max 19652 min
Histogram: 1 0 0 0 0 0 0 0 0 0
Nghost:    19656 ave 19656 max 19656 min
Histogram: 1 0 0 0 0 0 0 0 0 0
Neighs:    1.77176e+06 ave 1.77176e+06 max 1.77176e+06 min
Histogram: 1 0 0 0 0 0 0 0 0 0

Total # of neighbors = 1771755
Ave neighs/atom = 90.1565
Neighbor list builds = 4505
Dangerous builds not checked
Setting up Verlet run ...
  Unit style    : metal
  Current step  : 100000
  Time step     : 0.001
Per MPI rank memory allocation (min/avg/max) = 19.34 | 19.34 | 19.34 Mbytes
Step Temp Press TotEng PotEng Enthalpy 
  100000    1837.2179   -772.41611   -57178.845   -61845.546   -57312.749 
  100495    1808.5246    626.05119   -57284.848   -61878.665   -57176.589 
Loop time of 92.3949 on 1 procs for 495 steps with 19652 atoms

Performance: 0.463 ns/day, 51.849 hours/ns, 5.357 timesteps/s
98.8% CPU use with 1 MPI tasks x no OpenMP threads

MPI task timing breakdown:
Section |  min time  |  avg time  |  max time  |%varavg| %total
---------------------------------------------------------------
Pair    | 50.68      | 50.68      | 50.68      |   0.0 | 54.85
Neigh   | 40.225     | 40.225     | 40.225     |   0.0 | 43.54
Comm    | 0.55016    | 0.55016    | 0.55016    |   0.0 |  0.60
Output  | 0.00020623 | 0.00020623 | 0.00020623 |   0.0 |  0.00
Modify  | 0.74133    | 0.74133    | 0.74133    |   0.0 |  0.80
Other   |            | 0.1981     |            |       |  0.21

Nlocal:    19652 ave 19652 max 19652 min
Histogram: 1 0 0 0 0 0 0 0 0 0
Nghost:    19662 ave 19662 max 19662 min
Histogram: 1 0 0 0 0 0 0 0 0 0
Neighs:    1.77694e+06 ave 1.77694e+06 max 1.77694e+06 min
Histogram: 1 0 0 0 0 0 0 0 0 0

Total # of neighbors = 1776936
Ave neighs/atom = 90.4201
Neighbor list builds = 495
Dangerous builds not checked
Setting up Verlet run ...
  Unit style    : metal
  Current step  : 100495
  Time step     : 0.001
Per MPI rank memory allocation (min/avg/max) = 19.34 | 19.34 | 19.34 Mbytes
Step Temp Press TotEng PotEng Enthalpy 
  100495    1808.5246    626.05119   -57284.848   -61878.665   -57176.589 
  105000    1807.6153    1065.9508   -57396.154   -61987.661   -57212.416 
Loop time of 859.108 on 1 procs for 4505 steps with 19652 atoms

Performance: 0.453 ns/day, 52.973 hours/ns, 5.244 timesteps/s
99.8% CPU use with 1 MPI tasks x no OpenMP threads

MPI task timing breakdown:
Section |  min time  |  avg time  |  max time  |%varavg| %total
---------------------------------------------------------------
Pair    | 471.34     | 471.34     | 471.34     |   0.0 | 54.86
Neigh   | 373.94     | 373.94     | 373.94     |   0.0 | 43.53
Comm    | 5.1124     | 5.1124     | 5.1124     |   0.0 |  0.60
Output  | 0.064418   | 0.064418   | 0.064418   |   0.0 |  0.01
Modify  | 6.8299     | 6.8299     | 6.8299     |   0.0 |  0.80
Other   |            | 1.822      |            |       |  0.21

Nlocal:    19652 ave 19652 max 19652 min
Histogram: 1 0 0 0 0 0 0 0 0 0
Nghost:    19775 ave 19775 max 19775 min
Histogram: 1 0 0 0 0 0 0 0 0 0
Neighs:    1.78189e+06 ave 1.78189e+06 max 1.78189e+06 min
Histogram: 1 0 0 0 0 0 0 0 0 0

Total # of neighbors = 1781889
Ave neighs/atom = 90.6721
Neighbor list builds = 4505
Dangerous builds not checked
Setting up Verlet run ...
  Unit style    : metal
  Current step  : 105000
  Time step     : 0.001
Per MPI rank memory allocation (min/avg/max) = 19.34 | 19.34 | 19.34 Mbytes
Step Temp Press TotEng PotEng Enthalpy 
  105000    1807.6153    1065.9508   -57396.154   -61987.661   -57212.416 
  105495    1770.8345    1072.6488     -57584.8   -62082.881   -57400.245 
Loop time of 92.7363 on 1 procs for 495 steps with 19652 atoms

Performance: 0.461 ns/day, 52.041 hours/ns, 5.338 timesteps/s
99.9% CPU use with 1 MPI tasks x no OpenMP threads

MPI task timing breakdown:
Section |  min time  |  avg time  |  max time  |%varavg| %total
---------------------------------------------------------------
Pair    | 50.885     | 50.885     | 50.885     |   0.0 | 54.87
Neigh   | 40.355     | 40.355     | 40.355     |   0.0 | 43.52
Comm    | 0.55031    | 0.55031    | 0.55031    |   0.0 |  0.59
Output  | 0.00020218 | 0.00020218 | 0.00020218 |   0.0 |  0.00
Modify  | 0.74764    | 0.74764    | 0.74764    |   0.0 |  0.81
Other   |            | 0.1979     |            |       |  0.21

Nlocal:    19652 ave 19652 max 19652 min
Histogram: 1 0 0 0 0 0 0 0 0 0
Nghost:    19699 ave 19699 max 19699 min
Histogram: 1 0 0 0 0 0 0 0 0 0
Neighs:    1.78547e+06 ave 1.78547e+06 max 1.78547e+06 min
Histogram: 1 0 0 0 0 0 0 0 0 0

Total # of neighbors = 1785472
Ave neighs/atom = 90.8545
Neighbor list builds = 495
Dangerous builds not checked
Setting up Verlet run ...
  Unit style    : metal
  Current step  : 105495
  Time step     : 0.001
Per MPI rank memory allocation (min/avg/max) = 19.34 | 19.34 | 19.34 Mbytes
Step Temp Press TotEng PotEng Enthalpy 
  105495    1770.8345    1072.6488     -57584.8   -62082.881   -57400.245 
  110000    1735.6368    20.941991   -57785.587   -62194.263   -57781.991 
Loop time of 858.68 on 1 procs for 4505 steps with 19652 atoms

Performance: 0.453 ns/day, 52.946 hours/ns, 5.246 timesteps/s
99.8% CPU use with 1 MPI tasks x no OpenMP threads

MPI task timing breakdown:
Section |  min time  |  avg time  |  max time  |%varavg| %total
---------------------------------------------------------------
Pair    | 471.7      | 471.7      | 471.7      |   0.0 | 54.93
Neigh   | 373.18     | 373.18     | 373.18     |   0.0 | 43.46
Comm    | 5.0992     | 5.0992     | 5.0992     |   0.0 |  0.59
Output  | 0.070071   | 0.070071   | 0.070071   |   0.0 |  0.01
Modify  | 6.8225     | 6.8225     | 6.8225     |   0.0 |  0.79
Other   |            | 1.808      |            |       |  0.21

Nlocal:    19652 ave 19652 max 19652 min
Histogram: 1 0 0 0 0 0 0 0 0 0
Nghost:    19725 ave 19725 max 19725 min
Histogram: 1 0 0 0 0 0 0 0 0 0
Neighs:    1.78856e+06 ave 1.78856e+06 max 1.78856e+06 min
Histogram: 1 0 0 0 0 0 0 0 0 0

Total # of neighbors = 1788565
Ave neighs/atom = 91.0119
Neighbor list builds = 4505
Dangerous builds not checked
Setting up Verlet run ...
  Unit style    : metal
  Current step  : 110000
  Time step     : 0.001
Per MPI rank memory allocation (min/avg/max) = 19.34 | 19.34 | 19.34 Mbytes
Step Temp Press TotEng PotEng Enthalpy 
  110000    1735.6368    20.941991   -57785.587   -62194.263   -57781.991 
  110495    1706.6382    349.15656   -57951.244    -62286.26   -57891.489 
Loop time of 94.1397 on 1 procs for 495 steps with 19652 atoms

Performance: 0.454 ns/day, 52.828 hours/ns, 5.258 timesteps/s
99.9% CPU use with 1 MPI tasks x no OpenMP threads

MPI task timing breakdown:
Section |  min time  |  avg time  |  max time  |%varavg| %total
---------------------------------------------------------------
Pair    | 51.852     | 51.852     | 51.852     |   0.0 | 55.08
Neigh   | 40.756     | 40.756     | 40.756     |   0.0 | 43.29
Comm    | 0.56642    | 0.56642    | 0.56642    |   0.0 |  0.60
Output  | 0.00022316 | 0.00022316 | 0.00022316 |   0.0 |  0.00
Modify  | 0.7592     | 0.7592     | 0.7592     |   0.0 |  0.81
Other   |            | 0.2056     |            |       |  0.22

Nlocal:    19652 ave 19652 max 19652 min
Histogram: 1 0 0 0 0 0 0 0 0 0
Nghost:    19806 ave 19806 max 19806 min
Histogram: 1 0 0 0 0 0 0 0 0 0
Neighs:    1.79419e+06 ave 1.79419e+06 max 1.79419e+06 min
Histogram: 1 0 0 0 0 0 0 0 0 0

Total # of neighbors = 1794191
Ave neighs/atom = 91.2981
Neighbor list builds = 495
Dangerous builds not checked
Setting up Verlet run ...
  Unit style    : metal
  Current step  : 110495
  Time step     : 0.001
Per MPI rank memory allocation (min/avg/max) = 19.34 | 19.34 | 19.34 Mbytes
Step Temp Press TotEng PotEng Enthalpy 
  110495    1706.6382    349.15656   -57951.244    -62286.26   -57891.489 
  115000    1709.4537    1682.9873   -58048.008   -62390.176   -57760.998 
Loop time of 864.397 on 1 procs for 4505 steps with 19652 atoms

Performance: 0.450 ns/day, 53.299 hours/ns, 5.212 timesteps/s
99.1% CPU use with 1 MPI tasks x no OpenMP threads

MPI task timing breakdown:
Section |  min time  |  avg time  |  max time  |%varavg| %total
---------------------------------------------------------------
Pair    | 475.42     | 475.42     | 475.42     |   0.0 | 55.00
Neigh   | 374.3      | 374.3      | 374.3      |   0.0 | 43.30
Comm    | 5.1587     | 5.1587     | 5.1587     |   0.0 |  0.60
Output  | 0.83706    | 0.83706    | 0.83706    |   0.0 |  0.10
Modify  | 6.8648     | 6.8648     | 6.8648     |   0.0 |  0.79
Other   |            | 1.819      |            |       |  0.21

Nlocal:    19652 ave 19652 max 19652 min
Histogram: 1 0 0 0 0 0 0 0 0 0
Nghost:    19811 ave 19811 max 19811 min
Histogram: 1 0 0 0 0 0 0 0 0 0
Neighs:    1.80058e+06 ave 1.80058e+06 max 1.80058e+06 min
Histogram: 1 0 0 0 0 0 0 0 0 0

Total # of neighbors = 1800578
Ave neighs/atom = 91.6231
Neighbor list builds = 4505
Dangerous builds not checked
Setting up Verlet run ...
  Unit style    : metal
  Current step  : 115000
  Time step     : 0.001
Per MPI rank memory allocation (min/avg/max) = 19.34 | 19.34 | 19.34 Mbytes
Step Temp Press TotEng PotEng Enthalpy 
  115000    1709.4537    1682.9873   -58048.008   -62390.176   -57760.998 
  115495    1671.1922    1625.2227   -58236.402   -62481.382   -57959.888 
Loop time of 111.649 on 1 procs for 495 steps with 19652 atoms

Performance: 0.383 ns/day, 62.654 hours/ns, 4.434 timesteps/s
88.5% CPU use with 1 MPI tasks x no OpenMP threads

MPI task timing breakdown:
Section |  min time  |  avg time  |  max time  |%varavg| %total
---------------------------------------------------------------
Pair    | 61.503     | 61.503     | 61.503     |   0.0 | 55.09
Neigh   | 48.414     | 48.414     | 48.414     |   0.0 | 43.36
Comm    | 0.6163     | 0.6163     | 0.6163     |   0.0 |  0.55
Output  | 0.00030708 | 0.00030708 | 0.00030708 |   0.0 |  0.00
Modify  | 0.88969    | 0.88969    | 0.88969    |   0.0 |  0.80
Other   |            | 0.2265     |            |       |  0.20

Nlocal:    19652 ave 19652 max 19652 min
Histogram: 1 0 0 0 0 0 0 0 0 0
Nghost:    19854 ave 19854 max 19854 min
Histogram: 1 0 0 0 0 0 0 0 0 0
Neighs:    1.80504e+06 ave 1.80504e+06 max 1.80504e+06 min
Histogram: 1 0 0 0 0 0 0 0 0 0

Total # of neighbors = 1805041
Ave neighs/atom = 91.8502
Neighbor list builds = 495
Dangerous builds not checked
Setting up Verlet run ...
  Unit style    : metal
  Current step  : 115495
  Time step     : 0.001
Per MPI rank memory allocation (min/avg/max) = 19.34 | 19.34 | 19.34 Mbytes
Step Temp Press TotEng PotEng Enthalpy 
  115495    1671.1922    1625.2227   -58236.402   -62481.382   -57959.888 
  120000    1655.3935   -576.79589   -58338.324   -62543.174   -58436.495 
Loop time of 960.758 on 1 procs for 4505 steps with 19652 atoms

Performance: 0.405 ns/day, 59.240 hours/ns, 4.689 timesteps/s
91.7% CPU use with 1 MPI tasks x no OpenMP threads

MPI task timing breakdown:
Section |  min time  |  avg time  |  max time  |%varavg| %total
---------------------------------------------------------------
Pair    | 531.44     | 531.44     | 531.44     |   0.0 | 55.31
Neigh   | 414.04     | 414.04     | 414.04     |   0.0 | 43.10
Comm    | 5.6254     | 5.6254     | 5.6254     |   0.0 |  0.59
Output  | 0.061458   | 0.061458   | 0.061458   |   0.0 |  0.01
Modify  | 7.5612     | 7.5612     | 7.5612     |   0.0 |  0.79
Other   |            | 2.03       |            |       |  0.21

Nlocal:    19652 ave 19652 max 19652 min
Histogram: 1 0 0 0 0 0 0 0 0 0
Nghost:    19829 ave 19829 max 19829 min
Histogram: 1 0 0 0 0 0 0 0 0 0
Neighs:    1.80313e+06 ave 1.80313e+06 max 1.80313e+06 min
Histogram: 1 0 0 0 0 0 0 0 0 0

Total # of neighbors = 1803127
Ave neighs/atom = 91.7528
Neighbor list builds = 4505
Dangerous builds not checked
Setting up Verlet run ...
  Unit style    : metal
  Current step  : 120000
  Time step     : 0.001
Per MPI rank memory allocation (min/avg/max) = 19.34 | 19.34 | 19.34 Mbytes
Step Temp Press TotEng PotEng Enthalpy 
  120000    1655.3935   -576.79589   -58338.324   -62543.174   -58436.495 
  120495    1613.8986   -234.91929   -58538.994   -62638.444    -58578.87 
Loop time of 101.437 on 1 procs for 495 steps with 19652 atoms

Performance: 0.422 ns/day, 56.923 hours/ns, 4.880 timesteps/s
92.8% CPU use with 1 MPI tasks x no OpenMP threads

MPI task timing breakdown:
Section |  min time  |  avg time  |  max time  |%varavg| %total
---------------------------------------------------------------
Pair    | 55.771     | 55.771     | 55.771     |   0.0 | 54.98
Neigh   | 44.031     | 44.031     | 44.031     |   0.0 | 43.41
Comm    | 0.61771    | 0.61771    | 0.61771    |   0.0 |  0.61
Output  | 0.0002439  | 0.0002439  | 0.0002439  |   0.0 |  0.00
Modify  | 0.81005    | 0.81005    | 0.81005    |   0.0 |  0.80
Other   |            | 0.2065     |            |       |  0.20

Nlocal:    19652 ave 19652 max 19652 min
Histogram: 1 0 0 0 0 0 0 0 0 0
Nghost:    19865 ave 19865 max 19865 min
Histogram: 1 0 0 0 0 0 0 0 0 0
Neighs:    1.80797e+06 ave 1.80797e+06 max 1.80797e+06 min
Histogram: 1 0 0 0 0 0 0 0 0 0

Total # of neighbors = 1807973
Ave neighs/atom = 91.9994
Neighbor list builds = 495
Dangerous builds not checked
Setting up Verlet run ...
  Unit style    : metal
  Current step  : 120495
  Time step     : 0.001
Per MPI rank memory allocation (min/avg/max) = 19.34 | 19.34 | 19.34 Mbytes
Step Temp Press TotEng PotEng Enthalpy 
  120495    1613.8986   -234.91929   -58538.994   -62638.444    -58578.87 
  125000    1610.3514    213.98041   -58631.234   -62721.673   -58595.007 
Loop time of 933.944 on 1 procs for 4505 steps with 19652 atoms

Performance: 0.417 ns/day, 57.587 hours/ns, 4.824 timesteps/s
94.4% CPU use with 1 MPI tasks x no OpenMP threads

MPI task timing breakdown:
Section |  min time  |  avg time  |  max time  |%varavg| %total
---------------------------------------------------------------
Pair    | 515.83     | 515.83     | 515.83     |   0.0 | 55.23
Neigh   | 403.22     | 403.22     | 403.22     |   0.0 | 43.17
Comm    | 5.4806     | 5.4806     | 5.4806     |   0.0 |  0.59
Output  | 0.069567   | 0.069567   | 0.069567   |   0.0 |  0.01
Modify  | 7.389      | 7.389      | 7.389      |   0.0 |  0.79
Other   |            | 1.951      |            |       |  0.21

Nlocal:    19652 ave 19652 max 19652 min
Histogram: 1 0 0 0 0 0 0 0 0 0
Nghost:    19984 ave 19984 max 19984 min
Histogram: 1 0 0 0 0 0 0 0 0 0
Neighs:    1.81263e+06 ave 1.81263e+06 max 1.81263e+06 min
Histogram: 1 0 0 0 0 0 0 0 0 0

Total # of neighbors = 1812628
Ave neighs/atom = 92.2363
Neighbor list builds = 4505
Dangerous builds not checked
Setting up Verlet run ...
  Unit style    : metal
  Current step  : 125000
  Time step     : 0.001
Per MPI rank memory allocation (min/avg/max) = 19.34 | 19.34 | 19.34 Mbytes
Step Temp Press TotEng PotEng Enthalpy 
  125000    1610.3514    213.98041   -58631.234   -62721.673   -58595.007 
  125495    1562.9089    762.51468   -58860.008   -62829.939   -58731.295 
Loop time of 103.623 on 1 procs for 495 steps with 19652 atoms

Performance: 0.413 ns/day, 58.150 hours/ns, 4.777 timesteps/s
90.8% CPU use with 1 MPI tasks x no OpenMP threads

MPI task timing breakdown:
Section |  min time  |  avg time  |  max time  |%varavg| %total
---------------------------------------------------------------
Pair    | 57.815     | 57.815     | 57.815     |   0.0 | 55.79
Neigh   | 44.171     | 44.171     | 44.171     |   0.0 | 42.63
Comm    | 0.59899    | 0.59899    | 0.59899    |   0.0 |  0.58
Output  | 0.0002079  | 0.0002079  | 0.0002079  |   0.0 |  0.00
Modify  | 0.83183    | 0.83183    | 0.83183    |   0.0 |  0.80
Other   |            | 0.2057     |            |       |  0.20

Nlocal:    19652 ave 19652 max 19652 min
Histogram: 1 0 0 0 0 0 0 0 0 0
Nghost:    19925 ave 19925 max 19925 min
Histogram: 1 0 0 0 0 0 0 0 0 0
Neighs:    1.81877e+06 ave 1.81877e+06 max 1.81877e+06 min
Histogram: 1 0 0 0 0 0 0 0 0 0

Total # of neighbors = 1818774
Ave neighs/atom = 92.5491
Neighbor list builds = 495
Dangerous builds not checked
Setting up Verlet run ...
  Unit style    : metal
  Current step  : 125495
  Time step     : 0.001
Per MPI rank memory allocation (min/avg/max) = 19.34 | 19.34 | 19.34 Mbytes
Step Temp Press TotEng PotEng Enthalpy 
  125495    1562.9089    762.51468   -58860.008   -62829.939   -58731.295 
  130000    1558.5941    100.52547   -58912.944   -62871.915   -58895.981 
Loop time of 916.691 on 1 procs for 4505 steps with 19652 atoms

Performance: 0.425 ns/day, 56.523 hours/ns, 4.914 timesteps/s
96.0% CPU use with 1 MPI tasks x no OpenMP threads

MPI task timing breakdown:
Section |  min time  |  avg time  |  max time  |%varavg| %total
---------------------------------------------------------------
Pair    | 508.67     | 508.67     | 508.67     |   0.0 | 55.49
Neigh   | 393.31     | 393.31     | 393.31     |   0.0 | 42.91
Comm    | 5.3935     | 5.3935     | 5.3935     |   0.0 |  0.59
Output  | 0.098358   | 0.098358   | 0.098358   |   0.0 |  0.01
Modify  | 7.278      | 7.278      | 7.278      |   0.0 |  0.79
Other   |            | 1.935      |            |       |  0.21

Nlocal:    19652 ave 19652 max 19652 min
Histogram: 1 0 0 0 0 0 0 0 0 0
Nghost:    19911 ave 19911 max 19911 min
Histogram: 1 0 0 0 0 0 0 0 0 0
Neighs:    1.81914e+06 ave 1.81914e+06 max 1.81914e+06 min
Histogram: 1 0 0 0 0 0 0 0 0 0

Total # of neighbors = 1819141
Ave neighs/atom = 92.5677
Neighbor list builds = 4505
Dangerous builds not checked
Setting up Verlet run ...
  Unit style    : metal
  Current step  : 130000
  Time step     : 0.001
Per MPI rank memory allocation (min/avg/max) = 19.34 | 19.34 | 19.34 Mbytes
Step Temp Press TotEng PotEng Enthalpy 
  130000    1558.5941    100.52547   -58912.944   -62871.915   -58895.981 
  130495    1517.9674   -485.55962   -59168.644    -63024.42   -59250.301 
Loop time of 104.297 on 1 procs for 495 steps with 19652 atoms

Performance: 0.410 ns/day, 58.528 hours/ns, 4.746 timesteps/s
90.3% CPU use with 1 MPI tasks x no OpenMP threads

MPI task timing breakdown:
Section |  min time  |  avg time  |  max time  |%varavg| %total
---------------------------------------------------------------
Pair    | 57.938     | 57.938     | 57.938     |   0.0 | 55.55
Neigh   | 44.686     | 44.686     | 44.686     |   0.0 | 42.85
Comm    | 0.62465    | 0.62465    | 0.62465    |   0.0 |  0.60
Output  | 0.00020981 | 0.00020981 | 0.00020981 |   0.0 |  0.00
Modify  | 0.82012    | 0.82012    | 0.82012    |   0.0 |  0.79
Other   |            | 0.2278     |            |       |  0.22

Nlocal:    19652 ave 19652 max 19652 min
Histogram: 1 0 0 0 0 0 0 0 0 0
Nghost:    19963 ave 19963 max 19963 min
Histogram: 1 0 0 0 0 0 0 0 0 0
Neighs:    1.82425e+06 ave 1.82425e+06 max 1.82425e+06 min
Histogram: 1 0 0 0 0 0 0 0 0 0

Total # of neighbors = 1824250
Ave neighs/atom = 92.8277
Neighbor list builds = 495
Dangerous builds not checked
Setting up Verlet run ...
  Unit style    : metal
  Current step  : 130495
  Time step     : 0.001
Per MPI rank memory allocation (min/avg/max) = 19.34 | 19.34 | 19.34 Mbytes
Step Temp Press TotEng PotEng Enthalpy 
  130495    1517.9674   -485.55962   -59168.644    -63024.42   -59250.301 
  135000    1517.0921    2363.5883   -59238.111   -63091.663   -58842.392 
Loop time of 1031.81 on 1 procs for 4505 steps with 19652 atoms

Performance: 0.377 ns/day, 63.621 hours/ns, 4.366 timesteps/s
85.8% CPU use with 1 MPI tasks x no OpenMP threads

MPI task timing breakdown:
Section |  min time  |  avg time  |  max time  |%varavg| %total
---------------------------------------------------------------
Pair    | 574.01     | 574.01     | 574.01     |   0.0 | 55.63
Neigh   | 441.31     | 441.31     | 441.31     |   0.0 | 42.77
Comm    | 6.0852     | 6.0852     | 6.0852     |   0.0 |  0.59
Output  | 0.18036    | 0.18036    | 0.18036    |   0.0 |  0.02
Modify  | 8.0619     | 8.0619     | 8.0619     |   0.0 |  0.78
Other   |            | 2.161      |            |       |  0.21

Nlocal:    19652 ave 19652 max 19652 min
Histogram: 1 0 0 0 0 0 0 0 0 0
Nghost:    19979 ave 19979 max 19979 min
Histogram: 1 0 0 0 0 0 0 0 0 0
Neighs:    1.83289e+06 ave 1.83289e+06 max 1.83289e+06 min
Histogram: 1 0 0 0 0 0 0 0 0 0

Total # of neighbors = 1832889
Ave neighs/atom = 93.2673
Neighbor list builds = 4505
Dangerous builds not checked
Setting up Verlet run ...
  Unit style    : metal
  Current step  : 135000
  Time step     : 0.001
Per MPI rank memory allocation (min/avg/max) = 19.34 | 19.34 | 19.34 Mbytes
Step Temp Press TotEng PotEng Enthalpy 
  135000    1517.0921    2363.5883   -59238.111   -63091.663   -58842.392 
  135495    1477.8352    976.29848   -59485.005   -63238.841   -59321.896 
Loop time of 101.267 on 1 procs for 495 steps with 19652 atoms

Performance: 0.422 ns/day, 56.828 hours/ns, 4.888 timesteps/s
89.6% CPU use with 1 MPI tasks x no OpenMP threads

MPI task timing breakdown:
Section |  min time  |  avg time  |  max time  |%varavg| %total
---------------------------------------------------------------
Pair    | 55.981     | 55.981     | 55.981     |   0.0 | 55.28
Neigh   | 43.643     | 43.643     | 43.643     |   0.0 | 43.10
Comm    | 0.60255    | 0.60255    | 0.60255    |   0.0 |  0.60
Output  | 0.00021315 | 0.00021315 | 0.00021315 |   0.0 |  0.00
Modify  | 0.81729    | 0.81729    | 0.81729    |   0.0 |  0.81
Other   |            | 0.2217     |            |       |  0.22

Nlocal:    19652 ave 19652 max 19652 min
Histogram: 1 0 0 0 0 0 0 0 0 0
Nghost:    19993 ave 19993 max 19993 min
Histogram: 1 0 0 0 0 0 0 0 0 0
Neighs:    1.83625e+06 ave 1.83625e+06 max 1.83625e+06 min
Histogram: 1 0 0 0 0 0 0 0 0 0

Total # of neighbors = 1836250
Ave neighs/atom = 93.4383
Neighbor list builds = 495
Dangerous builds not checked
Setting up Verlet run ...
  Unit style    : metal
  Current step  : 135495
  Time step     : 0.001
Per MPI rank memory allocation (min/avg/max) = 19.34 | 19.34 | 19.34 Mbytes
Step Temp Press TotEng PotEng Enthalpy 
  135495    1477.8352    976.29848   -59485.005   -63238.841   -59321.896 
  140000    1451.4906   -1079.9268   -59639.909   -63326.828   -59820.266 
Loop time of 951.975 on 1 procs for 4505 steps with 19652 atoms

Performance: 0.409 ns/day, 58.699 hours/ns, 4.732 timesteps/s
93.2% CPU use with 1 MPI tasks x no OpenMP threads

MPI task timing breakdown:
Section |  min time  |  avg time  |  max time  |%varavg| %total
---------------------------------------------------------------
Pair    | 529.55     | 529.55     | 529.55     |   0.0 | 55.63
Neigh   | 407.19     | 407.19     | 407.19     |   0.0 | 42.77
Comm    | 5.6155     | 5.6155     | 5.6155     |   0.0 |  0.59
Output  | 0.064756   | 0.064756   | 0.064756   |   0.0 |  0.01
Modify  | 7.488      | 7.488      | 7.488      |   0.0 |  0.79
Other   |            | 2.071      |            |       |  0.22

Nlocal:    19652 ave 19652 max 19652 min
Histogram: 1 0 0 0 0 0 0 0 0 0
Nghost:    20002 ave 20002 max 20002 min
Histogram: 1 0 0 0 0 0 0 0 0 0
Neighs:    1.83614e+06 ave 1.83614e+06 max 1.83614e+06 min
Histogram: 1 0 0 0 0 0 0 0 0 0

Total # of neighbors = 1836141
Ave neighs/atom = 93.4328
Neighbor list builds = 4505
Dangerous builds not checked
Setting up Verlet run ...
  Unit style    : metal
  Current step  : 140000
  Time step     : 0.001
Per MPI rank memory allocation (min/avg/max) = 19.34 | 19.34 | 19.34 Mbytes
Step Temp Press TotEng PotEng Enthalpy 
  140000    1451.4906   -1079.9268   -59639.909   -63326.828   -59820.266 
  140495    1417.7631    462.60622    -59839.65   -63440.897   -59762.704 
Loop time of 99.4427 on 1 procs for 495 steps with 19652 atoms

Performance: 0.430 ns/day, 55.804 hours/ns, 4.978 timesteps/s
95.0% CPU use with 1 MPI tasks x no OpenMP threads

MPI task timing breakdown:
Section |  min time  |  avg time  |  max time  |%varavg| %total
---------------------------------------------------------------
Pair    | 55.445     | 55.445     | 55.445     |   0.0 | 55.76
Neigh   | 42.396     | 42.396     | 42.396     |   0.0 | 42.63
Comm    | 0.58586    | 0.58586    | 0.58586    |   0.0 |  0.59
Output  | 0.00020695 | 0.00020695 | 0.00020695 |   0.0 |  0.00
Modify  | 0.77371    | 0.77371    | 0.77371    |   0.0 |  0.78
Other   |            | 0.2416     |            |       |  0.24

Nlocal:    19652 ave 19652 max 19652 min
Histogram: 1 0 0 0 0 0 0 0 0 0
Nghost:    20072 ave 20072 max 20072 min
Histogram: 1 0 0 0 0 0 0 0 0 0
Neighs:    1.84363e+06 ave 1.84363e+06 max 1.84363e+06 min
Histogram: 1 0 0 0 0 0 0 0 0 0

Total # of neighbors = 1843634
Ave neighs/atom = 93.8141
Neighbor list builds = 495
Dangerous builds not checked
Setting up Verlet run ...
  Unit style    : metal
  Current step  : 140495
  Time step     : 0.001
Per MPI rank memory allocation (min/avg/max) = 19.34 | 19.34 | 19.34 Mbytes
Step Temp Press TotEng PotEng Enthalpy 
  140495    1417.7631    462.60622    -59839.65   -63440.897   -59762.704 
  145000    1394.7823   -402.46275   -59994.962   -63537.836   -60061.819 
Loop time of 981.505 on 1 procs for 4505 steps with 19652 atoms

Performance: 0.397 ns/day, 60.519 hours/ns, 4.590 timesteps/s
90.8% CPU use with 1 MPI tasks x no OpenMP threads

MPI task timing breakdown:
Section |  min time  |  avg time  |  max time  |%varavg| %total
---------------------------------------------------------------
Pair    | 546.92     | 546.92     | 546.92     |   0.0 | 55.72
Neigh   | 419.07     | 419.07     | 419.07     |   0.0 | 42.70
Comm    | 5.6884     | 5.6884     | 5.6884     |   0.0 |  0.58
Output  | 0.070345   | 0.070345   | 0.070345   |   0.0 |  0.01
Modify  | 7.7615     | 7.7615     | 7.7615     |   0.0 |  0.79
Other   |            | 1.997      |            |       |  0.20

Nlocal:    19652 ave 19652 max 19652 min
Histogram: 1 0 0 0 0 0 0 0 0 0
Nghost:    20000 ave 20000 max 20000 min
Histogram: 1 0 0 0 0 0 0 0 0 0
Neighs:    1.84624e+06 ave 1.84624e+06 max 1.84624e+06 min
Histogram: 1 0 0 0 0 0 0 0 0 0

Total # of neighbors = 1846245
Ave neighs/atom = 93.9469
Neighbor list builds = 4505
Dangerous builds not checked
Setting up Verlet run ...
  Unit style    : metal
  Current step  : 145000
  Time step     : 0.001
Per MPI rank memory allocation (min/avg/max) = 19.34 | 19.34 | 19.34 Mbytes
Step Temp Press TotEng PotEng Enthalpy 
  145000    1394.7823   -402.46275   -59994.962   -63537.836   -60061.819 
  145495    1356.4481    673.25383   -60161.127   -63606.629   -60049.652 
Loop time of 107.962 on 1 procs for 495 steps with 19652 atoms

Performance: 0.396 ns/day, 60.585 hours/ns, 4.585 timesteps/s
88.9% CPU use with 1 MPI tasks x no OpenMP threads

MPI task timing breakdown:
Section |  min time  |  avg time  |  max time  |%varavg| %total
---------------------------------------------------------------
Pair    | 59.915     | 59.915     | 59.915     |   0.0 | 55.50
Neigh   | 46.273     | 46.273     | 46.273     |   0.0 | 42.86
Comm    | 0.64765    | 0.64765    | 0.64765    |   0.0 |  0.60
Output  | 0.00019097 | 0.00019097 | 0.00019097 |   0.0 |  0.00
Modify  | 0.88756    | 0.88756    | 0.88756    |   0.0 |  0.82
Other   |            | 0.2391     |            |       |  0.22

Nlocal:    19652 ave 19652 max 19652 min
Histogram: 1 0 0 0 0 0 0 0 0 0
Nghost:    20040 ave 20040 max 20040 min
Histogram: 1 0 0 0 0 0 0 0 0 0
Neighs:    1.85202e+06 ave 1.85202e+06 max 1.85202e+06 min
Histogram: 1 0 0 0 0 0 0 0 0 0

Total # of neighbors = 1852020
Ave neighs/atom = 94.2408
Neighbor list builds = 495
Dangerous builds not checked
Setting up Verlet run ...
  Unit style    : metal
  Current step  : 145495
  Time step     : 0.001
Per MPI rank memory allocation (min/avg/max) = 19.34 | 19.34 | 19.34 Mbytes
Step Temp Press TotEng PotEng Enthalpy 
  145495    1356.4481    673.25383   -60161.127   -63606.629   -60049.652 
  150000    1351.4168    1459.6599   -60255.069   -63687.791   -60014.013 
Loop time of 976.294 on 1 procs for 4505 steps with 19652 atoms

Performance: 0.399 ns/day, 60.198 hours/ns, 4.614 timesteps/s
90.8% CPU use with 1 MPI tasks x no OpenMP threads

MPI task timing breakdown:
Section |  min time  |  avg time  |  max time  |%varavg| %total
---------------------------------------------------------------
Pair    | 544.32     | 544.32     | 544.32     |   0.0 | 55.75
Neigh   | 416.54     | 416.54     | 416.54     |   0.0 | 42.67
Comm    | 5.6407     | 5.6407     | 5.6407     |   0.0 |  0.58
Output  | 0.062512   | 0.062512   | 0.062512   |   0.0 |  0.01
Modify  | 7.6549     | 7.6549     | 7.6549     |   0.0 |  0.78
Other   |            | 2.077      |            |       |  0.21

Nlocal:    19652 ave 19652 max 19652 min
Histogram: 1 0 0 0 0 0 0 0 0 0
Nghost:    20105 ave 20105 max 20105 min
Histogram: 1 0 0 0 0 0 0 0 0 0
Neighs:    1.85651e+06 ave 1.85651e+06 max 1.85651e+06 min
Histogram: 1 0 0 0 0 0 0 0 0 0

Total # of neighbors = 1856508
Ave neighs/atom = 94.4692
Neighbor list builds = 4505
Dangerous builds not checked
Setting up Verlet run ...
  Unit style    : metal
  Current step  : 150000
  Time step     : 0.001
Per MPI rank memory allocation (min/avg/max) = 19.34 | 19.34 | 19.34 Mbytes
Step Temp Press TotEng PotEng Enthalpy 
  150000    1351.4168    1459.6599   -60255.069   -63687.791   -60014.013 
  150495    1325.1283   -293.39101    -60455.59   -63821.536   -60503.979 
Loop time of 99.8441 on 1 procs for 495 steps with 19652 atoms

Performance: 0.428 ns/day, 56.029 hours/ns, 4.958 timesteps/s
97.7% CPU use with 1 MPI tasks x no OpenMP threads

MPI task timing breakdown:
Section |  min time  |  avg time  |  max time  |%varavg| %total
---------------------------------------------------------------
Pair    | 56.404     | 56.404     | 56.404     |   0.0 | 56.49
Neigh   | 41.891     | 41.891     | 41.891     |   0.0 | 41.96
Comm    | 0.5671     | 0.5671     | 0.5671     |   0.0 |  0.57
Output  | 0.00035906 | 0.00035906 | 0.00035906 |   0.0 |  0.00
Modify  | 0.77558    | 0.77558    | 0.77558    |   0.0 |  0.78
Other   |            | 0.2061     |            |       |  0.21

Nlocal:    19652 ave 19652 max 19652 min
Histogram: 1 0 0 0 0 0 0 0 0 0
Nghost:    20155 ave 20155 max 20155 min
Histogram: 1 0 0 0 0 0 0 0 0 0
Neighs:    1.85784e+06 ave 1.85784e+06 max 1.85784e+06 min
Histogram: 1 0 0 0 0 0 0 0 0 0

Total # of neighbors = 1857835
Ave neighs/atom = 94.5367
Neighbor list builds = 495
Dangerous builds not checked
Setting up Verlet run ...
  Unit style    : metal
  Current step  : 150495
  Time step     : 0.001
Per MPI rank memory allocation (min/avg/max) = 19.34 | 19.34 | 19.34 Mbytes
Step Temp Press TotEng PotEng Enthalpy 
  150495    1325.1283   -293.39101    -60455.59   -63821.536   -60503.979 
  155000    1291.9157   -1592.7548   -60648.052   -63929.635   -60910.299 
Loop time of 912.633 on 1 procs for 4505 steps with 19652 atoms

Performance: 0.426 ns/day, 56.273 hours/ns, 4.936 timesteps/s
95.9% CPU use with 1 MPI tasks x no OpenMP threads

MPI task timing breakdown:
Section |  min time  |  avg time  |  max time  |%varavg| %total
---------------------------------------------------------------
Pair    | 509.19     | 509.19     | 509.19     |   0.0 | 55.79
Neigh   | 388.92     | 388.92     | 388.92     |   0.0 | 42.62
Comm    | 5.3205     | 5.3205     | 5.3205     |   0.0 |  0.58
Output  | 0.063253   | 0.063253   | 0.063253   |   0.0 |  0.01
Modify  | 7.1748     | 7.1748     | 7.1748     |   0.0 |  0.79
Other   |            | 1.967      |            |       |  0.22

Nlocal:    19652 ave 19652 max 19652 min
Histogram: 1 0 0 0 0 0 0 0 0 0
Nghost:    20124 ave 20124 max 20124 min
Histogram: 1 0 0 0 0 0 0 0 0 0
Neighs:    1.8605e+06 ave 1.8605e+06 max 1.8605e+06 min
Histogram: 1 0 0 0 0 0 0 0 0 0

Total # of neighbors = 1860495
Ave neighs/atom = 94.672
Neighbor list builds = 4505
Dangerous builds not checked
Setting up Verlet run ...
  Unit style    : metal
  Current step  : 155000
  Time step     : 0.001
Per MPI rank memory allocation (min/avg/max) = 19.34 | 19.34 | 19.34 Mbytes
Step Temp Press TotEng PotEng Enthalpy 
  155000    1291.9157   -1592.7548   -60648.052   -63929.635   -60910.299 
  155495    1261.7532   -997.46864    -60817.37   -64022.338   -60981.186 
Loop time of 100.129 on 1 procs for 495 steps with 19652 atoms

Performance: 0.427 ns/day, 56.189 hours/ns, 4.944 timesteps/s
95.9% CPU use with 1 MPI tasks x no OpenMP threads

MPI task timing breakdown:
Section |  min time  |  avg time  |  max time  |%varavg| %total
---------------------------------------------------------------
Pair    | 56.072     | 56.072     | 56.072     |   0.0 | 56.00
Neigh   | 42.478     | 42.478     | 42.478     |   0.0 | 42.42
Comm    | 0.57445    | 0.57445    | 0.57445    |   0.0 |  0.57
Output  | 0.00019288 | 0.00019288 | 0.00019288 |   0.0 |  0.00
Modify  | 0.8005     | 0.8005     | 0.8005     |   0.0 |  0.80
Other   |            | 0.2041     |            |       |  0.20

Nlocal:    19652 ave 19652 max 19652 min
Histogram: 1 0 0 0 0 0 0 0 0 0
Nghost:    20163 ave 20163 max 20163 min
Histogram: 1 0 0 0 0 0 0 0 0 0
Neighs:    1.86603e+06 ave 1.86603e+06 max 1.86603e+06 min
Histogram: 1 0 0 0 0 0 0 0 0 0

Total # of neighbors = 1866029
Ave neighs/atom = 94.9536
Neighbor list builds = 495
Dangerous builds not checked
Setting up Verlet run ...
  Unit style    : metal
  Current step  : 155495
  Time step     : 0.001
Per MPI rank memory allocation (min/avg/max) = 19.34 | 19.34 | 19.34 Mbytes
Step Temp Press TotEng PotEng Enthalpy 
  155495    1261.7532   -997.46864    -60817.37   -64022.338   -60981.186 
  160000    1240.8411    797.84347   -60944.212   -64096.061   -60813.651 
Loop time of 892.562 on 1 procs for 4505 steps with 19652 atoms

Performance: 0.436 ns/day, 55.035 hours/ns, 5.047 timesteps/s
98.4% CPU use with 1 MPI tasks x no OpenMP threads

MPI task timing breakdown:
Section |  min time  |  avg time  |  max time  |%varavg| %total
---------------------------------------------------------------
Pair    | 499.13     | 499.13     | 499.13     |   0.0 | 55.92
Neigh   | 379.12     | 379.12     | 379.12     |   0.0 | 42.48
Comm    | 5.2171     | 5.2171     | 5.2171     |   0.0 |  0.58
Output  | 0.066286   | 0.066286   | 0.066286   |   0.0 |  0.01
Modify  | 6.9797     | 6.9797     | 6.9797     |   0.0 |  0.78
Other   |            | 2.047      |            |       |  0.23

Nlocal:    19652 ave 19652 max 19652 min
Histogram: 1 0 0 0 0 0 0 0 0 0
Nghost:    20179 ave 20179 max 20179 min
Histogram: 1 0 0 0 0 0 0 0 0 0
Neighs:    1.87161e+06 ave 1.87161e+06 max 1.87161e+06 min
Histogram: 1 0 0 0 0 0 0 0 0 0

Total # of neighbors = 1871614
Ave neighs/atom = 95.2378
Neighbor list builds = 4505
Dangerous builds not checked
Setting up Verlet run ...
  Unit style    : metal
  Current step  : 160000
  Time step     : 0.001
Per MPI rank memory allocation (min/avg/max) = 19.34 | 19.34 | 19.34 Mbytes
Step Temp Press TotEng PotEng Enthalpy 
  160000    1240.8411    797.84347   -60944.212   -64096.061   -60813.651 
  160495     1216.718    504.35443   -61165.509   -64256.084    -61083.25 
Loop time of 94.5229 on 1 procs for 495 steps with 19652 atoms

Performance: 0.452 ns/day, 53.043 hours/ns, 5.237 timesteps/s
98.0% CPU use with 1 MPI tasks x no OpenMP threads

MPI task timing breakdown:
Section |  min time  |  avg time  |  max time  |%varavg| %total
---------------------------------------------------------------
Pair    | 52.848     | 52.848     | 52.848     |   0.0 | 55.91
Neigh   | 40.02      | 40.02      | 40.02      |   0.0 | 42.34
Comm    | 0.54547    | 0.54547    | 0.54547    |   0.0 |  0.58
Output  | 0.00022101 | 0.00022101 | 0.00022101 |   0.0 |  0.00
Modify  | 0.73145    | 0.73145    | 0.73145    |   0.0 |  0.77
Other   |            | 0.3772     |            |       |  0.40

Nlocal:    19652 ave 19652 max 19652 min
Histogram: 1 0 0 0 0 0 0 0 0 0
Nghost:    20262 ave 20262 max 20262 min
Histogram: 1 0 0 0 0 0 0 0 0 0
Neighs:    1.87819e+06 ave 1.87819e+06 max 1.87819e+06 min
Histogram: 1 0 0 0 0 0 0 0 0 0

Total # of neighbors = 1878194
Ave neighs/atom = 95.5727
Neighbor list builds = 495
Dangerous builds not checked
Setting up Verlet run ...
  Unit style    : metal
  Current step  : 160495
  Time step     : 0.001
Per MPI rank memory allocation (min/avg/max) = 19.34 | 19.34 | 19.34 Mbytes
Step Temp Press TotEng PotEng Enthalpy 
  160495     1216.718    504.35443   -61165.509   -64256.084    -61083.25 
  165000    1201.2383    1282.9401   -61292.533   -64343.787    -61083.94 
Loop time of 866.947 on 1 procs for 4505 steps with 19652 atoms

Performance: 0.449 ns/day, 53.456 hours/ns, 5.196 timesteps/s
99.5% CPU use with 1 MPI tasks x no OpenMP threads

MPI task timing breakdown:
Section |  min time  |  avg time  |  max time  |%varavg| %total
---------------------------------------------------------------
Pair    | 486.19     | 486.19     | 486.19     |   0.0 | 56.08
Neigh   | 367.08     | 367.08     | 367.08     |   0.0 | 42.34
Comm    | 5.0533     | 5.0533     | 5.0533     |   0.0 |  0.58
Output  | 0.064152   | 0.064152   | 0.064152   |   0.0 |  0.01
Modify  | 6.7607     | 6.7607     | 6.7607     |   0.0 |  0.78
Other   |            | 1.796      |            |       |  0.21

Nlocal:    19652 ave 19652 max 19652 min
Histogram: 1 0 0 0 0 0 0 0 0 0
Nghost:    20216 ave 20216 max 20216 min
Histogram: 1 0 0 0 0 0 0 0 0 0
Neighs:    1.88396e+06 ave 1.88396e+06 max 1.88396e+06 min
Histogram: 1 0 0 0 0 0 0 0 0 0

Total # of neighbors = 1883956
Ave neighs/atom = 95.8659
Neighbor list builds = 4505
Dangerous builds not checked
Setting up Verlet run ...
  Unit style    : metal
  Current step  : 165000
  Time step     : 0.001
Per MPI rank memory allocation (min/avg/max) = 19.34 | 19.34 | 19.34 Mbytes
Step Temp Press TotEng PotEng Enthalpy 
  165000    1201.2383    1282.9401   -61292.533   -64343.787    -61083.94 
  165495    1182.9311   -162.83716   -61485.172   -64489.925   -61511.607 
Loop time of 94.0006 on 1 procs for 495 steps with 19652 atoms

Performance: 0.455 ns/day, 52.750 hours/ns, 5.266 timesteps/s
98.6% CPU use with 1 MPI tasks x no OpenMP threads

MPI task timing breakdown:
Section |  min time  |  avg time  |  max time  |%varavg| %total
---------------------------------------------------------------
Pair    | 52.467     | 52.467     | 52.467     |   0.0 | 55.82
Neigh   | 40.039     | 40.039     | 40.039     |   0.0 | 42.59
Comm    | 0.56498    | 0.56498    | 0.56498    |   0.0 |  0.60
Output  | 0.00020909 | 0.00020909 | 0.00020909 |   0.0 |  0.00
Modify  | 0.73285    | 0.73285    | 0.73285    |   0.0 |  0.78
Other   |            | 0.1967     |            |       |  0.21

Nlocal:    19652 ave 19652 max 19652 min
Histogram: 1 0 0 0 0 0 0 0 0 0
Nghost:    20254 ave 20254 max 20254 min
Histogram: 1 0 0 0 0 0 0 0 0 0
Neighs:    1.88647e+06 ave 1.88647e+06 max 1.88647e+06 min
Histogram: 1 0 0 0 0 0 0 0 0 0

Total # of neighbors = 1886468
Ave neighs/atom = 95.9937
Neighbor list builds = 495
Dangerous builds not checked
Setting up Verlet run ...
  Unit style    : metal
  Current step  : 165495
  Time step     : 0.001
Per MPI rank memory allocation (min/avg/max) = 19.34 | 19.34 | 19.34 Mbytes
Step Temp Press TotEng PotEng Enthalpy 
  165495    1182.9311   -162.83716   -61485.172   -64489.925   -61511.607 
  170000    1163.0931    1356.7834   -61603.547    -64557.91   -61383.944 
Loop time of 873.444 on 1 procs for 4505 steps with 19652 atoms

[...]
Setting up Verlet run ...
  Unit style    : metal
  Current step  : 240000
  Time step     : 0.001
Per MPI rank memory allocation (min/avg/max) = 19.35 | 19.35 | 19.35 Mbytes
Step Temp Press TotEng PotEng Enthalpy 
  240000    451.28781   -1231.5372   -66330.891   -67477.203   -66518.147 
  240495    423.14019   -917.20292    -66489.76   -67564.575   -66628.945 
Loop time of 113.657 on 1 procs for 495 steps with 19652 atoms

Performance: 0.376 ns/day, 63.781 hours/ns, 4.355 timesteps/s
90.4% CPU use with 1 MPI tasks x no OpenMP threads

MPI task timing breakdown:
Section |  min time  |  avg time  |  max time  |%varavg| %total
---------------------------------------------------------------
Pair    | 61.62      | 61.62      | 61.62      |   0.0 | 54.22
Neigh   | 50.366     | 50.366     | 50.366     |   0.0 | 44.31
Comm    | 0.63676    | 0.63676    | 0.63676    |   0.0 |  0.56
Output  | 0.00019193 | 0.00019193 | 0.00019193 |   0.0 |  0.00
Modify  | 0.80928    | 0.80928    | 0.80928    |   0.0 |  0.71
Other   |            | 0.2254     |            |       |  0.20

Nlocal:    19652 ave 19652 max 19652 min
Histogram: 1 0 0 0 0 0 0 0 0 0
Nghost:    20821 ave 20821 max 20821 min
Histogram: 1 0 0 0 0 0 0 0 0 0
Neighs:    2.01403e+06 ave 2.01403e+06 max 2.01403e+06 min
Histogram: 1 0 0 0 0 0 0 0 0 0

Total # of neighbors = 2014028
Ave neighs/atom = 102.485
Neighbor list builds = 495
Dangerous builds not checked
Setting up Verlet run ...
  Unit style    : metal
  Current step  : 240495
  Time step     : 0.001
Per MPI rank memory allocation (min/avg/max) = 19.35 | 19.35 | 19.35 Mbytes
Step Temp Press TotEng PotEng Enthalpy 
  240495    423.14019   -917.20292    -66489.76   -67564.575   -66628.945 
  245000    403.12294   -534.26628   -66620.983   -67644.952   -66701.882 
Loop time of 1057.64 on 1 procs for 4505 steps with 19652 atoms

Performance: 0.368 ns/day, 65.214 hours/ns, 4.259 timesteps/s
88.8% CPU use with 1 MPI tasks x no OpenMP threads

MPI task timing breakdown:
Section |  min time  |  avg time  |  max time  |%varavg| %total
---------------------------------------------------------------
Pair    | 579.33     | 579.33     | 579.33     |   0.0 | 54.78
Neigh   | 462.62     | 462.62     | 462.62     |   0.0 | 43.74
Comm    | 5.6768     | 5.6768     | 5.6768     |   0.0 |  0.54
Output  | 0.06484    | 0.06484    | 0.06484    |   0.0 |  0.01
Modify  | 7.8949     | 7.8949     | 7.8949     |   0.0 |  0.75
Other   |            | 2.056      |            |       |  0.19

Nlocal:    19652 ave 19652 max 19652 min
Histogram: 1 0 0 0 0 0 0 0 0 0
Nghost:    20868 ave 20868 max 20868 min
Histogram: 1 0 0 0 0 0 0 0 0 0
Neighs:    2.0183e+06 ave 2.0183e+06 max 2.0183e+06 min
Histogram: 1 0 0 0 0 0 0 0 0 0

Total # of neighbors = 2018295
Ave neighs/atom = 102.702
Neighbor list builds = 4505
Dangerous builds not checked
Setting up Verlet run ...
  Unit style    : metal
  Current step  : 245000
  Time step     : 0.001
Per MPI rank memory allocation (min/avg/max) = 19.35 | 19.35 | 19.35 Mbytes
Step Temp Press TotEng PotEng Enthalpy 
  245000    403.12294   -534.26628   -66620.983   -67644.952   -66701.882 
  245495    373.53761   -196.52209   -66772.908   -67721.728   -66802.608 
Loop time of 119.409 on 1 procs for 495 steps with 19652 atoms

Performance: 0.358 ns/day, 67.008 hours/ns, 4.145 timesteps/s
86.9% CPU use with 1 MPI tasks x no OpenMP threads

MPI task timing breakdown:
Section |  min time  |  avg time  |  max time  |%varavg| %total
---------------------------------------------------------------
Pair    | 65.965     | 65.965     | 65.965     |   0.0 | 55.24
Neigh   | 51.728     | 51.728     | 51.728     |   0.0 | 43.32
Comm    | 0.64736    | 0.64736    | 0.64736    |   0.0 |  0.54
Output  | 0.00017309 | 0.00017309 | 0.00017309 |   0.0 |  0.00
Modify  | 0.84351    | 0.84351    | 0.84351    |   0.0 |  0.71
Other   |            | 0.2244     |            |       |  0.19

Nlocal:    19652 ave 19652 max 19652 min
Histogram: 1 0 0 0 0 0 0 0 0 0
Nghost:    20838 ave 20838 max 20838 min
Histogram: 1 0 0 0 0 0 0 0 0 0
Neighs:    2.02255e+06 ave 2.02255e+06 max 2.02255e+06 min
Histogram: 1 0 0 0 0 0 0 0 0 0

Total # of neighbors = 2022548
Ave neighs/atom = 102.918
Neighbor list builds = 495
Dangerous builds not checked
Setting up Verlet run ...
  Unit style    : metal
  Current step  : 245495
  Time step     : 0.001
Per MPI rank memory allocation (min/avg/max) = 19.35 | 19.35 | 19.35 Mbytes
Step Temp Press TotEng PotEng Enthalpy 
  245495    373.53761   -196.52209   -66772.908   -67721.728   -66802.608 
  250000    349.54623   -446.95192   -66899.118   -67786.997   -66966.591 
Loop time of 1161.55 on 1 procs for 4505 steps with 19652 atoms

Performance: 0.335 ns/day, 71.621 hours/ns, 3.878 timesteps/s
81.3% CPU use with 1 MPI tasks x no OpenMP threads

MPI task timing breakdown:
Section |  min time  |  avg time  |  max time  |%varavg| %total
---------------------------------------------------------------
Pair    | 638.08     | 638.08     | 638.08     |   0.0 | 54.93
Neigh   | 506.35     | 506.35     | 506.35     |   0.0 | 43.59
Comm    | 6.2041     | 6.2041     | 6.2041     |   0.0 |  0.53
Output  | 0.064423   | 0.064423   | 0.064423   |   0.0 |  0.01
Modify  | 8.6263     | 8.6263     | 8.6263     |   0.0 |  0.74
Other   |            | 2.22       |            |       |  0.19

Nlocal:    19652 ave 19652 max 19652 min
Histogram: 1 0 0 0 0 0 0 0 0 0
Nghost:    20900 ave 20900 max 20900 min
Histogram: 1 0 0 0 0 0 0 0 0 0
Neighs:    2.02562e+06 ave 2.02562e+06 max 2.02562e+06 min
Histogram: 1 0 0 0 0 0 0 0 0 0

Total # of neighbors = 2025620
Ave neighs/atom = 103.074
Neighbor list builds = 4505
Dangerous builds not checked
Setting up Verlet run ...
  Unit style    : metal
  Current step  : 250000
  Time step     : 0.001
Per MPI rank memory allocation (min/avg/max) = 19.35 | 19.35 | 19.35 Mbytes
Step Temp Press TotEng PotEng Enthalpy 
  250000    349.54623   -446.95192   -66899.118   -67786.997   -66966.591 
  250495    322.06463    303.20943   -67045.962   -67864.036   -67000.298 
Loop time of 127.774 on 1 procs for 495 steps with 19652 atoms

Performance: 0.335 ns/day, 71.702 hours/ns, 3.874 timesteps/s
80.8% CPU use with 1 MPI tasks x no OpenMP threads

MPI task timing breakdown:
Section |  min time  |  avg time  |  max time  |%varavg| %total
---------------------------------------------------------------
Pair    | 70.194     | 70.194     | 70.194     |   0.0 | 54.94
Neigh   | 55.727     | 55.727     | 55.727     |   0.0 | 43.61
Comm    | 0.6699     | 0.6699     | 0.6699     |   0.0 |  0.52
Output  | 0.00018406 | 0.00018406 | 0.00018406 |   0.0 |  0.00
Modify  | 0.94928    | 0.94928    | 0.94928    |   0.0 |  0.74
Other   |            | 0.234      |            |       |  0.18

Nlocal:    19652 ave 19652 max 19652 min
Histogram: 1 0 0 0 0 0 0 0 0 0
Nghost:    20878 ave 20878 max 20878 min
Histogram: 1 0 0 0 0 0 0 0 0 0
Neighs:    2.03054e+06 ave 2.03054e+06 max 2.03054e+06 min
Histogram: 1 0 0 0 0 0 0 0 0 0

Total # of neighbors = 2030541
Ave neighs/atom = 103.325
Neighbor list builds = 495
Dangerous builds not checked
Setting up Verlet run ...
  Unit style    : metal
  Current step  : 250495
  Time step     : 0.001
Per MPI rank memory allocation (min/avg/max) = 19.35 | 19.35 | 19.35 Mbytes
Step Temp Press TotEng PotEng Enthalpy 
  250495    322.06463    303.20943   -67045.962   -67864.036   -67000.298 
  255000    297.36285   -103.84053   -67176.903   -67932.232   -67192.524 
Loop time of 1043.01 on 1 procs for 4505 steps with 19652 atoms

Performance: 0.373 ns/day, 64.312 hours/ns, 4.319 timesteps/s
89.2% CPU use with 1 MPI tasks x no OpenMP threads

MPI task timing breakdown:
Section |  min time  |  avg time  |  max time  |%varavg| %total
---------------------------------------------------------------
Pair    | 570.22     | 570.22     | 570.22     |   0.0 | 54.67
Neigh   | 457.58     | 457.58     | 457.58     |   0.0 | 43.87
Comm    | 5.6312     | 5.6312     | 5.6312     |   0.0 |  0.54
Output  | 0.065963   | 0.065963   | 0.065963   |   0.0 |  0.01
Modify  | 7.5107     | 7.5107     | 7.5107     |   0.0 |  0.72
Other   |            | 2.006      |            |       |  0.19

Nlocal:    19652 ave 19652 max 19652 min
Histogram: 1 0 0 0 0 0 0 0 0 0
Nghost:    20919 ave 20919 max 20919 min
Histogram: 1 0 0 0 0 0 0 0 0 0
Neighs:    2.03308e+06 ave 2.03308e+06 max 2.03308e+06 min
Histogram: 1 0 0 0 0 0 0 0 0 0

Total # of neighbors = 2033081
Ave neighs/atom = 103.454
Neighbor list builds = 4505
Dangerous builds not checked
Setting up Verlet run ...
  Unit style    : metal
  Current step  : 255000
  Time step     : 0.001
Per MPI rank memory allocation (min/avg/max) = 19.35 | 19.35 | 19.35 Mbytes
Step Temp Press TotEng PotEng Enthalpy 
  255000    297.36285   -103.84053   -67176.903   -67932.232   -67192.524 
  255495    272.73405    -660.5184   -67314.538   -68007.307   -67413.783 
Loop time of 114.613 on 1 procs for 495 steps with 19652 atoms

Performance: 0.373 ns/day, 64.317 hours/ns, 4.319 timesteps/s
89.6% CPU use with 1 MPI tasks x no OpenMP threads

MPI task timing breakdown:
Section |  min time  |  avg time  |  max time  |%varavg| %total
---------------------------------------------------------------
Pair    | 63.047     | 63.047     | 63.047     |   0.0 | 55.01
Neigh   | 49.867     | 49.867     | 49.867     |   0.0 | 43.51
Comm    | 0.64036    | 0.64036    | 0.64036    |   0.0 |  0.56
Output  | 0.00018001 | 0.00018001 | 0.00018001 |   0.0 |  0.00
Modify  | 0.84186    | 0.84186    | 0.84186    |   0.0 |  0.73
Other   |            | 0.2159     |            |       |  0.19

Nlocal:    19652 ave 19652 max 19652 min
Histogram: 1 0 0 0 0 0 0 0 0 0
Nghost:    20929 ave 20929 max 20929 min
Histogram: 1 0 0 0 0 0 0 0 0 0
Neighs:    2.03618e+06 ave 2.03618e+06 max 2.03618e+06 min
Histogram: 1 0 0 0 0 0 0 0 0 0

Total # of neighbors = 2036183
Ave neighs/atom = 103.612
Neighbor list builds = 495
Dangerous builds not checked
Setting up Verlet run ...
  Unit style    : metal
  Current step  : 255495
  Time step     : 0.001
Per MPI rank memory allocation (min/avg/max) = 19.35 | 19.35 | 19.35 Mbytes
Step Temp Press TotEng PotEng Enthalpy 
  255495    272.73405    -660.5184   -67314.538   -68007.307   -67413.783 
  260000    250.99622    628.75937   -67445.043   -68082.597   -67350.803 
Loop time of 990.741 on 1 procs for 4505 steps with 19652 atoms

Performance: 0.393 ns/day, 61.089 hours/ns, 4.547 timesteps/s
94.4% CPU use with 1 MPI tasks x no OpenMP threads

MPI task timing breakdown:
Section |  min time  |  avg time  |  max time  |%varavg| %total
---------------------------------------------------------------
Pair    | 543.73     | 543.73     | 543.73     |   0.0 | 54.88
Neigh   | 432.39     | 432.39     | 432.39     |   0.0 | 43.64
Comm    | 5.3635     | 5.3635     | 5.3635     |   0.0 |  0.54
Output  | 0.07047    | 0.07047    | 0.07047    |   0.0 |  0.01
Modify  | 7.292      | 7.292      | 7.292      |   0.0 |  0.74
Other   |            | 1.9        |            |       |  0.19

Nlocal:    19652 ave 19652 max 19652 min
Histogram: 1 0 0 0 0 0 0 0 0 0
Nghost:    20972 ave 20972 max 20972 min
Histogram: 1 0 0 0 0 0 0 0 0 0
Neighs:    2.04206e+06 ave 2.04206e+06 max 2.04206e+06 min
Histogram: 1 0 0 0 0 0 0 0 0 0

Total # of neighbors = 2042061
Ave neighs/atom = 103.911
Neighbor list builds = 4505
Dangerous builds not checked
Setting up Verlet run ...
  Unit style    : metal
  Current step  : 260000
  Time step     : 0.001
Per MPI rank memory allocation (min/avg/max) = 19.35 | 19.35 | 19.35 Mbytes
Step Temp Press TotEng PotEng Enthalpy 
  260000    250.99622    628.75937   -67445.043   -68082.597   -67350.803 
  260495    224.99211    695.54786   -67578.237   -68149.737   -67474.149 
Loop time of 102.329 on 1 procs for 495 steps with 19652 atoms

Performance: 0.418 ns/day, 57.424 hours/ns, 4.837 timesteps/s
99.3% CPU use with 1 MPI tasks x no OpenMP threads

MPI task timing breakdown:
Section |  min time  |  avg time  |  max time  |%varavg| %total
---------------------------------------------------------------
Pair    | 56.038     | 56.038     | 56.038     |   0.0 | 54.76
Neigh   | 44.764     | 44.764     | 44.764     |   0.0 | 43.75
Comm    | 0.56345    | 0.56345    | 0.56345    |   0.0 |  0.55
Output  | 0.00022101 | 0.00022101 | 0.00022101 |   0.0 |  0.00
Modify  | 0.76286    | 0.76286    | 0.76286    |   0.0 |  0.75
Other   |            | 0.2008     |            |       |  0.20

Nlocal:    19652 ave 19652 max 19652 min
Histogram: 1 0 0 0 0 0 0 0 0 0
Nghost:    21001 ave 21001 max 21001 min
Histogram: 1 0 0 0 0 0 0 0 0 0
Neighs:    2.04596e+06 ave 2.04596e+06 max 2.04596e+06 min
Histogram: 1 0 0 0 0 0 0 0 0 0

Total # of neighbors = 2045958
Ave neighs/atom = 104.109
Neighbor list builds = 495
Dangerous builds not checked
Setting up Verlet run ...
  Unit style    : metal
  Current step  : 260495
  Time step     : 0.001
Per MPI rank memory allocation (min/avg/max) = 19.35 | 19.35 | 19.35 Mbytes
Step Temp Press TotEng PotEng Enthalpy 
  260495    224.99211    695.54786   -67578.237   -68149.737   -67474.149 
  265000    201.19585    372.62598   -67707.382   -68218.437   -67651.683 
Loop time of 932.83 on 1 procs for 4505 steps with 19652 atoms

Performance: 0.417 ns/day, 57.518 hours/ns, 4.829 timesteps/s
99.4% CPU use with 1 MPI tasks x no OpenMP threads

MPI task timing breakdown:
Section |  min time  |  avg time  |  max time  |%varavg| %total
---------------------------------------------------------------
Pair    | 512.57     | 512.57     | 512.57     |   0.0 | 54.95
Neigh   | 406.43     | 406.43     | 406.43     |   0.0 | 43.57
Comm    | 5.0669     | 5.0669     | 5.0669     |   0.0 |  0.54
Output  | 0.062478   | 0.062478   | 0.062478   |   0.0 |  0.01
Modify  | 6.882      | 6.882      | 6.882      |   0.0 |  0.74
Other   |            | 1.815      |            |       |  0.19

Nlocal:    19652 ave 19652 max 19652 min
Histogram: 1 0 0 0 0 0 0 0 0 0
Nghost:    20985 ave 20985 max 20985 min
Histogram: 1 0 0 0 0 0 0 0 0 0
Neighs:    2.0484e+06 ave 2.0484e+06 max 2.0484e+06 min
Histogram: 1 0 0 0 0 0 0 0 0 0

Total # of neighbors = 2048400
Ave neighs/atom = 104.234
Neighbor list builds = 4505
Dangerous builds not checked
Setting up Verlet run ...
  Unit style    : metal
  Current step  : 265000
  Time step     : 0.001
Per MPI rank memory allocation (min/avg/max) = 19.35 | 19.35 | 19.35 Mbytes
Step Temp Press TotEng PotEng Enthalpy 
  265000    201.19585    372.62598   -67707.382   -68218.437   -67651.683 
  265495    175.50547   -318.12033   -67838.896   -68284.695   -67886.401 
Loop time of 102.181 on 1 procs for 495 steps with 19652 atoms

Performance: 0.419 ns/day, 57.341 hours/ns, 4.844 timesteps/s
99.8% CPU use with 1 MPI tasks x no OpenMP threads

MPI task timing breakdown:
Section |  min time  |  avg time  |  max time  |%varavg| %total
---------------------------------------------------------------
Pair    | 56.174     | 56.174     | 56.174     |   0.0 | 54.97
Neigh   | 44.502     | 44.502     | 44.502     |   0.0 | 43.55
Comm    | 0.55241    | 0.55241    | 0.55241    |   0.0 |  0.54
Output  | 0.00020123 | 0.00020123 | 0.00020123 |   0.0 |  0.00
Modify  | 0.75383    | 0.75383    | 0.75383    |   0.0 |  0.74
Other   |            | 0.1993     |            |       |  0.20

Nlocal:    19652 ave 19652 max 19652 min
Histogram: 1 0 0 0 0 0 0 0 0 0
Nghost:    21005 ave 21005 max 21005 min
Histogram: 1 0 0 0 0 0 0 0 0 0
Neighs:    2.05132e+06 ave 2.05132e+06 max 2.05132e+06 min
Histogram: 1 0 0 0 0 0 0 0 0 0

Total # of neighbors = 2051315
Ave neighs/atom = 104.382
Neighbor list builds = 495
Dangerous builds not checked
Setting up Verlet run ...
  Unit style    : metal
  Current step  : 265495
  Time step     : 0.001
Per MPI rank memory allocation (min/avg/max) = 19.35 | 19.35 | 19.35 Mbytes
Step Temp Press TotEng PotEng Enthalpy 
  265495    175.50547   -318.12033   -67838.896   -68284.695   -67886.401 
  270000     148.7837    349.34831   -67977.991   -68355.915   -67925.932 
Loop time of 927.141 on 1 procs for 4505 steps with 19652 atoms

Performance: 0.420 ns/day, 57.167 hours/ns, 4.859 timesteps/s
99.4% CPU use with 1 MPI tasks x no OpenMP threads

MPI task timing breakdown:
Section |  min time  |  avg time  |  max time  |%varavg| %total
---------------------------------------------------------------
Pair    | 511.4      | 511.4      | 511.4      |   0.0 | 55.16
Neigh   | 402.08     | 402.08     | 402.08     |   0.0 | 43.37
Comm    | 5.0328     | 5.0328     | 5.0328     |   0.0 |  0.54
Output  | 0.07017    | 0.07017    | 0.07017    |   0.0 |  0.01
Modify  | 6.7528     | 6.7528     | 6.7528     |   0.0 |  0.73
Other   |            | 1.813      |            |       |  0.20

Nlocal:    19652 ave 19652 max 19652 min
Histogram: 1 0 0 0 0 0 0 0 0 0
Nghost:    21021 ave 21021 max 21021 min
Histogram: 1 0 0 0 0 0 0 0 0 0
Neighs:    2.05556e+06 ave 2.05556e+06 max 2.05556e+06 min
Histogram: 1 0 0 0 0 0 0 0 0 0

Total # of neighbors = 2055555
Ave neighs/atom = 104.598
Neighbor list builds = 4505
Dangerous builds not checked
Setting up Verlet run ...
  Unit style    : metal
  Current step  : 270000
  Time step     : 0.001
Per MPI rank memory allocation (min/avg/max) = 19.35 | 19.35 | 19.35 Mbytes
Step Temp Press TotEng PotEng Enthalpy 
  270000     148.7837    349.34831   -67977.991   -68355.915   -67925.932 
  270495    127.04502    285.77841   -68093.748   -68416.454   -68051.214 
Loop time of 100.012 on 1 procs for 495 steps with 19652 atoms

Performance: 0.428 ns/day, 56.123 hours/ns, 4.949 timesteps/s
99.1% CPU use with 1 MPI tasks x no OpenMP threads

MPI task timing breakdown:
Section |  min time  |  avg time  |  max time  |%varavg| %total
---------------------------------------------------------------
Pair    | 54.883     | 54.883     | 54.883     |   0.0 | 54.88
Neigh   | 43.671     | 43.671     | 43.671     |   0.0 | 43.67
Comm    | 0.54188    | 0.54188    | 0.54188    |   0.0 |  0.54
Output  | 0.00026798 | 0.00026798 | 0.00026798 |   0.0 |  0.00
Modify  | 0.71916    | 0.71916    | 0.71916    |   0.0 |  0.72
Other   |            | 0.1962     |            |       |  0.20

Nlocal:    19652 ave 19652 max 19652 min
Histogram: 1 0 0 0 0 0 0 0 0 0
Nghost:    20978 ave 20978 max 20978 min
Histogram: 1 0 0 0 0 0 0 0 0 0
Neighs:    2.05904e+06 ave 2.05904e+06 max 2.05904e+06 min
Histogram: 1 0 0 0 0 0 0 0 0 0

Total # of neighbors = 2059044
Ave neighs/atom = 104.775
Neighbor list builds = 495
Dangerous builds not checked
Setting up Verlet run ...
  Unit style    : metal
  Current step  : 270495
  Time step     : 0.001
Per MPI rank memory allocation (min/avg/max) = 19.35 | 19.35 | 19.35 Mbytes
Step Temp Press TotEng PotEng Enthalpy 
  270495    127.04502    285.77841   -68093.748   -68416.454   -68051.214 
  275000    99.957904    -228.8184   -68233.542   -68487.445   -68267.558 
Loop time of 883.054 on 1 procs for 4505 steps with 19652 atoms

Performance: 0.441 ns/day, 54.449 hours/ns, 5.102 timesteps/s
99.3% CPU use with 1 MPI tasks x no OpenMP threads

MPI task timing breakdown:
Section |  min time  |  avg time  |  max time  |%varavg| %total
---------------------------------------------------------------
Pair    | 486.97     | 486.97     | 486.97     |   0.0 | 55.15
Neigh   | 383.03     | 383.03     | 383.03     |   0.0 | 43.38
Comm    | 4.8327     | 4.8327     | 4.8327     |   0.0 |  0.55
Output  | 0.070343   | 0.070343   | 0.070343   |   0.0 |  0.01
Modify  | 6.4404     | 6.4404     | 6.4404     |   0.0 |  0.73
Other   |            | 1.714      |            |       |  0.19

Nlocal:    19652 ave 19652 max 19652 min
Histogram: 1 0 0 0 0 0 0 0 0 0
Nghost:    21004 ave 21004 max 21004 min
Histogram: 1 0 0 0 0 0 0 0 0 0
Neighs:    2.06167e+06 ave 2.06167e+06 max 2.06167e+06 min
Histogram: 1 0 0 0 0 0 0 0 0 0

Total # of neighbors = 2061667
Ave neighs/atom = 104.909
Neighbor list builds = 4505
Dangerous builds not checked
Total wall time: 15:32:52
