LAMMPS (12 Dec 2018)
Lattice spacing in x,y,z = 4 4 4
Created orthogonal box = (0 0 0) to (68 68 68)
  1 by 1 by 1 MPI processor grid
Created 19652 atoms
  Time spent = 0.00423408 secs
Setting atom values ...
  19652 settings made for type/fraction
Neighbor list info ...
  update every 1 steps, delay 0 steps, check no
  max neighbors/atom: 2000, page size: 100000
  master list distance cutoff = 8.5
  ghost atom cutoff = 8.5
  binsize = 4.25, bins = 16 16 16
  1 neighbor lists, perpetual/occasional/extra = 1 0 0
  (1) pair eam/alloy, perpetual
      attributes: half, newton on
      pair build: half/bin/atomonly/newton
      stencil: half/bin/3d/newton
      bin: standard
Setting up Verlet run ...
  Unit style    : metal
  Current step  : 0
  Time step     : 0.001
Per MPI rank memory allocation (min/avg/max) = 18.19 | 18.19 | 18.19 Mbytes
Step Temp Press TotEng PotEng Enthalpy 
       0          300   -186199.32   -61187.265   -61949.292   -97729.446 
    1000    543.37018   -72313.431   -61187.302   -62567.511   -75379.032 
Loop time of 169.632 on 1 procs for 1000 steps with 19652 atoms

Performance: 0.509 ns/day, 47.120 hours/ns, 5.895 timesteps/s
98.9% CPU use with 1 MPI tasks x no OpenMP threads

MPI task timing breakdown:
Section |  min time  |  avg time  |  max time  |%varavg| %total
---------------------------------------------------------------
Pair    | 96.531     | 96.531     | 96.531     |   0.0 | 56.91
Neigh   | 70.716     | 70.716     | 70.716     |   0.0 | 41.69
Comm    | 1.4427     | 1.4427     | 1.4427     |   0.0 |  0.85
Output  | 0.00022316 | 0.00022316 | 0.00022316 |   0.0 |  0.00
Modify  | 0.49822    | 0.49822    | 0.49822    |   0.0 |  0.29
Other   |            | 0.444      |            |       |  0.26

Nlocal:    19652 ave 19652 max 19652 min
Histogram: 1 0 0 0 0 0 0 0 0 0
Nghost:    18751 ave 18751 max 18751 min
Histogram: 1 0 0 0 0 0 0 0 0 0
Neighs:    1.58678e+06 ave 1.58678e+06 max 1.58678e+06 min
Histogram: 1 0 0 0 0 0 0 0 0 0

Total # of neighbors = 1586778
Ave neighs/atom = 80.7438
Neighbor list builds = 1000
Dangerous builds not checked
Setting up Verlet run ...
  Unit style    : metal
  Current step  : 1000
  Time step     : 0.001
Per MPI rank memory allocation (min/avg/max) = 18.19 | 18.19 | 18.19 Mbytes
Step Temp Press TotEng PotEng Enthalpy 
    1000    543.37018   -72313.431   -61187.302   -62567.511   -75379.032 
    2000    393.62198   -1943.7648   -65655.752   -66655.588   -65954.187 
Loop time of 203.287 on 1 procs for 1000 steps with 19652 atoms

Performance: 0.425 ns/day, 56.469 hours/ns, 4.919 timesteps/s
98.8% CPU use with 1 MPI tasks x no OpenMP threads

MPI task timing breakdown:
Section |  min time  |  avg time  |  max time  |%varavg| %total
---------------------------------------------------------------
Pair    | 113.13     | 113.13     | 113.13     |   0.0 | 55.65
Neigh   | 86.884     | 86.884     | 86.884     |   0.0 | 42.74
Comm    | 1.3003     | 1.3003     | 1.3003     |   0.0 |  0.64
Output  | 0.00021505 | 0.00021505 | 0.00021505 |   0.0 |  0.00
Modify  | 1.5387     | 1.5387     | 1.5387     |   0.0 |  0.76
Other   |            | 0.4296     |            |       |  0.21

Nlocal:    19652 ave 19652 max 19652 min
Histogram: 1 0 0 0 0 0 0 0 0 0
Nghost:    20406 ave 20406 max 20406 min
Histogram: 1 0 0 0 0 0 0 0 0 0
Neighs:    1.99988e+06 ave 1.99988e+06 max 1.99988e+06 min
Histogram: 1 0 0 0 0 0 0 0 0 0

Total # of neighbors = 1999883
Ave neighs/atom = 101.765
Neighbor list builds = 1000
Dangerous builds not checked
Setting up Verlet run ...
  Unit style    : metal
  Current step  : 2000
  Time step     : 0.001
Per MPI rank memory allocation (min/avg/max) = 19.34 | 19.34 | 19.34 Mbytes
Step Temp Press TotEng PotEng Enthalpy 
    2000    393.62198   -1943.7648   -65655.752   -66655.588   -65954.187 
    6667    1524.9343    649.77133   -60173.685   -64047.157   -60069.377 
   10000    2428.6572   -145.51057   -53092.721   -59261.732   -53119.208 
Loop time of 1854.85 on 1 procs for 8000 steps with 19652 atoms

Performance: 0.373 ns/day, 64.404 hours/ns, 4.313 timesteps/s
99.4% CPU use with 1 MPI tasks x no OpenMP threads

MPI task timing breakdown:
Section |  min time  |  avg time  |  max time  |%varavg| %total
---------------------------------------------------------------
Pair    | 1036       | 1036       | 1036       |   0.0 | 55.85
Neigh   | 787.11     | 787.11     | 787.11     |   0.0 | 42.44
Comm    | 13.019     | 13.019     | 13.019     |   0.0 |  0.70
Output  | 0.075484   | 0.075484   | 0.075484   |   0.0 |  0.00
Modify  | 14.422     | 14.422     | 14.422     |   0.0 |  0.78
Other   |            | 4.241      |            |       |  0.23

Nlocal:    19652 ave 19652 max 19652 min
Histogram: 1 0 0 0 0 0 0 0 0 0
Nghost:    19333 ave 19333 max 19333 min
Histogram: 1 0 0 0 0 0 0 0 0 0
Neighs:    1.68967e+06 ave 1.68967e+06 max 1.68967e+06 min
Histogram: 1 0 0 0 0 0 0 0 0 0

Total # of neighbors = 1689668
Ave neighs/atom = 85.9794
Neighbor list builds = 8000
Dangerous builds not checked
Setting up Verlet run ...
  Unit style    : metal
  Current step  : 10000
  Time step     : 0.001
Per MPI rank memory allocation (min/avg/max) = 19.34 | 19.34 | 19.34 Mbytes
Step Temp Press TotEng PotEng Enthalpy 
   10000    2428.6572   -145.51057   -53092.721   -59261.732   -53119.208 
   13334    2424.3682     1109.842   -53032.594    -59190.71   -52830.623 
   20001    2463.3184   -1135.6522   -52870.582   -59127.635   -53078.285 
   26668    2452.4368    1487.0637   -52990.013   -59219.426   -52719.411 
   33335    2460.1769    254.45814   -52998.913   -59247.986    -52952.59 
   40000    2446.8353   -475.20048   -53056.399   -59271.584   -53142.878 
Loop time of 6641.03 on 1 procs for 30000 steps with 19652 atoms

Performance: 0.390 ns/day, 61.491 hours/ns, 4.517 timesteps/s
99.1% CPU use with 1 MPI tasks x no OpenMP threads

MPI task timing breakdown:
Section |  min time  |  avg time  |  max time  |%varavg| %total
---------------------------------------------------------------
Pair    | 3740.3     | 3740.3     | 3740.3     |   0.0 | 56.32
Neigh   | 2787       | 2787       | 2787       |   0.0 | 41.97
Comm    | 46.172     | 46.172     | 46.172     |   0.0 |  0.70
Output  | 0.34228    | 0.34228    | 0.34228    |   0.0 |  0.01
Modify  | 52.548     | 52.548     | 52.548     |   0.0 |  0.79
Other   |            | 14.72      |            |       |  0.22

Nlocal:    19652 ave 19652 max 19652 min
Histogram: 1 0 0 0 0 0 0 0 0 0
Nghost:    19345 ave 19345 max 19345 min
Histogram: 1 0 0 0 0 0 0 0 0 0
Neighs:    1.69054e+06 ave 1.69054e+06 max 1.69054e+06 min
Histogram: 1 0 0 0 0 0 0 0 0 0

Total # of neighbors = 1690541
Ave neighs/atom = 86.0239
Neighbor list builds = 30000
Dangerous builds not checked
Setting up Verlet run ...
  Unit style    : metal
  Current step  : 40000
  Time step     : 0.001
Per MPI rank memory allocation (min/avg/max) = 19.34 | 19.34 | 19.34 Mbytes
Step Temp Press TotEng PotEng Enthalpy 
   40000    2446.8353   -475.20048   -53056.399   -59271.584   -53142.878 
   40002    2447.9989   -481.85596   -53056.406   -59274.547   -53144.096 
   40495    2415.5121   -1384.2723   -53135.586   -59271.207   -53387.828 
Loop time of 98.4669 on 1 procs for 495 steps with 19652 atoms

Performance: 0.434 ns/day, 55.256 hours/ns, 5.027 timesteps/s
99.8% CPU use with 1 MPI tasks x no OpenMP threads

MPI task timing breakdown:
Section |  min time  |  avg time  |  max time  |%varavg| %total
---------------------------------------------------------------
Pair    | 54.801     | 54.801     | 54.801     |   0.0 | 55.65
Neigh   | 41.911     | 41.911     | 41.911     |   0.0 | 42.56
Comm    | 0.67043    | 0.67043    | 0.67043    |   0.0 |  0.68
Output  | 0.063051   | 0.063051   | 0.063051   |   0.0 |  0.06
Modify  | 0.79056    | 0.79056    | 0.79056    |   0.0 |  0.80
Other   |            | 0.2304     |            |       |  0.23

Nlocal:    19652 ave 19652 max 19652 min
Histogram: 1 0 0 0 0 0 0 0 0 0
Nghost:    19415 ave 19415 max 19415 min
Histogram: 1 0 0 0 0 0 0 0 0 0
Neighs:    1.68832e+06 ave 1.68832e+06 max 1.68832e+06 min
Histogram: 1 0 0 0 0 0 0 0 0 0

Total # of neighbors = 1688325
Ave neighs/atom = 85.9111
Neighbor list builds = 495
Dangerous builds not checked
Setting up Verlet run ...
  Unit style    : metal
  Current step  : 40495
  Time step     : 0.001
Per MPI rank memory allocation (min/avg/max) = 19.34 | 19.34 | 19.34 Mbytes
Step Temp Press TotEng PotEng Enthalpy 
   40495    2415.5121   -1384.2723   -53135.586   -59271.207   -53387.828 
   46667    2399.4327    722.71744   -53328.719   -59423.496   -53197.849 
Loop time of 1228.74 on 1 procs for 6172 steps with 19652 atoms

Performance: 0.434 ns/day, 55.301 hours/ns, 5.023 timesteps/s
98.6% CPU use with 1 MPI tasks x no OpenMP threads

MPI task timing breakdown:
Section |  min time  |  avg time  |  max time  |%varavg| %total
---------------------------------------------------------------
Pair    | 680.56     | 680.56     | 680.56     |   0.0 | 55.39
Neigh   | 527.24     | 527.24     | 527.24     |   0.0 | 42.91
Comm    | 8.065      | 8.065      | 8.065      |   0.0 |  0.66
Output  | 0.63157    | 0.63157    | 0.63157    |   0.0 |  0.05
Modify  | 9.5759     | 9.5759     | 9.5759     |   0.0 |  0.78
Other   |            | 2.673      |            |       |  0.22

Nlocal:    19652 ave 19652 max 19652 min
Histogram: 1 0 0 0 0 0 0 0 0 0
Nghost:    19274 ave 19274 max 19274 min
Histogram: 1 0 0 0 0 0 0 0 0 0
Neighs:    1.69858e+06 ave 1.69858e+06 max 1.69858e+06 min
Histogram: 1 0 0 0 0 0 0 0 0 0

Total # of neighbors = 1698577
Ave neighs/atom = 86.4328
Neighbor list builds = 6172
Dangerous builds not checked
Setting up Verlet run ...
  Unit style    : metal
  Current step  : 46667
  Time step     : 0.001
Per MPI rank memory allocation (min/avg/max) = 19.34 | 19.34 | 19.34 Mbytes
Step Temp Press TotEng PotEng Enthalpy 
   46667    2399.4327    722.71744   -53328.719   -59423.496   -53197.849 
   46669    2397.5397    839.27479   -53328.714   -59418.684   -53176.739 
   47162    2361.0347    449.72392   -53464.397    -59461.64   -53383.064 
Loop time of 91.4072 on 1 procs for 495 steps with 19652 atoms

Performance: 0.468 ns/day, 51.295 hours/ns, 5.415 timesteps/s
99.1% CPU use with 1 MPI tasks x no OpenMP threads

MPI task timing breakdown:
Section |  min time  |  avg time  |  max time  |%varavg| %total
---------------------------------------------------------------
Pair    | 50.879     | 50.879     | 50.879     |   0.0 | 55.66
Neigh   | 38.875     | 38.875     | 38.875     |   0.0 | 42.53
Comm    | 0.61281    | 0.61281    | 0.61281    |   0.0 |  0.67
Output  | 0.08414    | 0.08414    | 0.08414    |   0.0 |  0.09
Modify  | 0.75756    | 0.75756    | 0.75756    |   0.0 |  0.83
Other   |            | 0.1991     |            |       |  0.22

Nlocal:    19652 ave 19652 max 19652 min
Histogram: 1 0 0 0 0 0 0 0 0 0
Nghost:    19362 ave 19362 max 19362 min
Histogram: 1 0 0 0 0 0 0 0 0 0
Neighs:    1.70076e+06 ave 1.70076e+06 max 1.70076e+06 min
Histogram: 1 0 0 0 0 0 0 0 0 0

Total # of neighbors = 1700759
Ave neighs/atom = 86.5438
Neighbor list builds = 495
Dangerous builds not checked
Setting up Verlet run ...
  Unit style    : metal
  Current step  : 47162
  Time step     : 0.001
Per MPI rank memory allocation (min/avg/max) = 19.34 | 19.34 | 19.34 Mbytes
Step Temp Press TotEng PotEng Enthalpy 
   47162    2361.0347    449.72392   -53464.397    -59461.64   -53383.064 
   53334    2366.0669   -953.75832   -53510.816   -59520.842   -53683.346 
Loop time of 1243.19 on 1 procs for 6172 steps with 19652 atoms

Performance: 0.429 ns/day, 55.951 hours/ns, 4.965 timesteps/s
98.7% CPU use with 1 MPI tasks x no OpenMP threads

MPI task timing breakdown:
Section |  min time  |  avg time  |  max time  |%varavg| %total
---------------------------------------------------------------
Pair    | 692.22     | 692.22     | 692.22     |   0.0 | 55.68
Neigh   | 530.58     | 530.58     | 530.58     |   0.0 | 42.68
Comm    | 8.1611     | 8.1611     | 8.1611     |   0.0 |  0.66
Output  | 0.000144   | 0.000144   | 0.000144   |   0.0 |  0.00
Modify  | 9.5566     | 9.5566     | 9.5566     |   0.0 |  0.77
Other   |            | 2.678      |            |       |  0.22

Nlocal:    19652 ave 19652 max 19652 min
Histogram: 1 0 0 0 0 0 0 0 0 0
Nghost:    19330 ave 19330 max 19330 min
Histogram: 1 0 0 0 0 0 0 0 0 0
Neighs:    1.70016e+06 ave 1.70016e+06 max 1.70016e+06 min
Histogram: 1 0 0 0 0 0 0 0 0 0

Total # of neighbors = 1700165
Ave neighs/atom = 86.5136
Neighbor list builds = 6172
Dangerous builds not checked
Setting up Verlet run ...
  Unit style    : metal
  Current step  : 53334
  Time step     : 0.001
Per MPI rank memory allocation (min/avg/max) = 19.34 | 19.34 | 19.34 Mbytes
Step Temp Press TotEng PotEng Enthalpy 
   53334    2366.0669   -953.75832   -53510.816   -59520.842   -53683.346 
   53336    2368.1517   -1073.3921   -53510.841   -59526.162   -53705.012 
   53829    2313.0713    138.18119   -53780.034   -59655.445   -53755.184 
Loop time of 96.034 on 1 procs for 495 steps with 19652 atoms

Performance: 0.445 ns/day, 53.891 hours/ns, 5.154 timesteps/s
99.5% CPU use with 1 MPI tasks x no OpenMP threads

MPI task timing breakdown:
Section |  min time  |  avg time  |  max time  |%varavg| %total
---------------------------------------------------------------
Pair    | 53.065     | 53.065     | 53.065     |   0.0 | 55.26
Neigh   | 41.318     | 41.318     | 41.318     |   0.0 | 43.02
Comm    | 0.62459    | 0.62459    | 0.62459    |   0.0 |  0.65
Output  | 0.063192   | 0.063192   | 0.063192   |   0.0 |  0.07
Modify  | 0.74444    | 0.74444    | 0.74444    |   0.0 |  0.78
Other   |            | 0.2191     |            |       |  0.23

Nlocal:    19652 ave 19652 max 19652 min
Histogram: 1 0 0 0 0 0 0 0 0 0
Nghost:    19296 ave 19296 max 19296 min
Histogram: 1 0 0 0 0 0 0 0 0 0
Neighs:    1.71039e+06 ave 1.71039e+06 max 1.71039e+06 min
Histogram: 1 0 0 0 0 0 0 0 0 0

Total # of neighbors = 1710388
Ave neighs/atom = 87.0338
Neighbor list builds = 495
Dangerous builds not checked
Setting up Verlet run ...
  Unit style    : metal
  Current step  : 53829
  Time step     : 0.001
Per MPI rank memory allocation (min/avg/max) = 19.34 | 19.34 | 19.34 Mbytes
Step Temp Press TotEng PotEng Enthalpy 
   53829    2313.0713    138.18119   -53780.034   -59655.445   -53755.184 
   60001    2287.6963   -561.25625   -53892.618   -59703.575   -53993.507 
Loop time of 1285.61 on 1 procs for 6172 steps with 19652 atoms

Performance: 0.415 ns/day, 57.861 hours/ns, 4.801 timesteps/s
98.7% CPU use with 1 MPI tasks x no OpenMP threads

MPI task timing breakdown:
Section |  min time  |  avg time  |  max time  |%varavg| %total
---------------------------------------------------------------
Pair    | 718.02     | 718.02     | 718.02     |   0.0 | 55.85
Neigh   | 546.57     | 546.57     | 546.57     |   0.0 | 42.51
Comm    | 8.5066     | 8.5066     | 8.5066     |   0.0 |  0.66
Output  | 0.00016212 | 0.00016212 | 0.00016212 |   0.0 |  0.00
Modify  | 9.746      | 9.746      | 9.746      |   0.0 |  0.76
Other   |            | 2.774      |            |       |  0.22

Nlocal:    19652 ave 19652 max 19652 min
Histogram: 1 0 0 0 0 0 0 0 0 0
Nghost:    19425 ave 19425 max 19425 min
Histogram: 1 0 0 0 0 0 0 0 0 0
Neighs:    1.70998e+06 ave 1.70998e+06 max 1.70998e+06 min
Histogram: 1 0 0 0 0 0 0 0 0 0

Total # of neighbors = 1709982
Ave neighs/atom = 87.0131
Neighbor list builds = 6172
Dangerous builds not checked
Setting up Verlet run ...
  Unit style    : metal
  Current step  : 60001
  Time step     : 0.001
Per MPI rank memory allocation (min/avg/max) = 19.34 | 19.34 | 19.34 Mbytes
Step Temp Press TotEng PotEng Enthalpy 
   60001    2287.6963   -561.25625   -53892.618   -59703.575   -53993.507 
   60003    2286.6151   -544.09403   -53892.604   -59700.814   -53990.408 
   60496    2269.0012    -22.84429   -54017.507   -59780.976   -54021.602 
Loop time of 83.6662 on 1 procs for 495 steps with 19652 atoms

Performance: 0.511 ns/day, 46.951 hours/ns, 5.916 timesteps/s
99.8% CPU use with 1 MPI tasks x no OpenMP threads

MPI task timing breakdown:
Section |  min time  |  avg time  |  max time  |%varavg| %total
---------------------------------------------------------------
Pair    | 45.802     | 45.802     | 45.802     |   0.0 | 54.74
Neigh   | 36.412     | 36.412     | 36.412     |   0.0 | 43.52
Comm    | 0.53624    | 0.53624    | 0.53624    |   0.0 |  0.64
Output  | 0.083541   | 0.083541   | 0.083541   |   0.0 |  0.10
Modify  | 0.65088    | 0.65088    | 0.65088    |   0.0 |  0.78
Other   |            | 0.1813     |            |       |  0.22

Nlocal:    19652 ave 19652 max 19652 min
Histogram: 1 0 0 0 0 0 0 0 0 0
Nghost:    19441 ave 19441 max 19441 min
Histogram: 1 0 0 0 0 0 0 0 0 0
Neighs:    1.71525e+06 ave 1.71525e+06 max 1.71525e+06 min
Histogram: 1 0 0 0 0 0 0 0 0 0

Total # of neighbors = 1715246
Ave neighs/atom = 87.281
Neighbor list builds = 495
Dangerous builds not checked
Setting up Verlet run ...
  Unit style    : metal
  Current step  : 60496
  Time step     : 0.001
Per MPI rank memory allocation (min/avg/max) = 19.34 | 19.34 | 19.34 Mbytes
Step Temp Press TotEng PotEng Enthalpy 
   60496    2269.0012    -22.84429   -54017.507   -59780.976   -54021.602 
   66668    2249.5439   -1299.6161   -54129.704    -59843.75   -54362.651 
Loop time of 1244.19 on 1 procs for 6172 steps with 19652 atoms

Performance: 0.429 ns/day, 55.996 hours/ns, 4.961 timesteps/s
99.0% CPU use with 1 MPI tasks x no OpenMP threads

MPI task timing breakdown:
Section |  min time  |  avg time  |  max time  |%varavg| %total
---------------------------------------------------------------
Pair    | 693.28     | 693.28     | 693.28     |   0.0 | 55.72
Neigh   | 530.86     | 530.86     | 530.86     |   0.0 | 42.67
Comm    | 8.0333     | 8.0333     | 8.0333     |   0.0 |  0.65
Output  | 0.00015116 | 0.00015116 | 0.00015116 |   0.0 |  0.00
Modify  | 9.353      | 9.353      | 9.353      |   0.0 |  0.75
Other   |            | 2.654      |            |       |  0.21

Nlocal:    19652 ave 19652 max 19652 min
Histogram: 1 0 0 0 0 0 0 0 0 0
Nghost:    19455 ave 19455 max 19455 min
Histogram: 1 0 0 0 0 0 0 0 0 0
Neighs:    1.71569e+06 ave 1.71569e+06 max 1.71569e+06 min
Histogram: 1 0 0 0 0 0 0 0 0 0

Total # of neighbors = 1715689
Ave neighs/atom = 87.3035
Neighbor list builds = 6172
Dangerous builds not checked
Setting up Verlet run ...
  Unit style    : metal
  Current step  : 66668
  Time step     : 0.001
Per MPI rank memory allocation (min/avg/max) = 19.34 | 19.34 | 19.34 Mbytes
Step Temp Press TotEng PotEng Enthalpy 
   66668    2249.5439   -1299.6161   -54129.704    -59843.75   -54362.651 
   66670    2249.1953   -1302.3193   -54129.703   -59842.864   -54363.135 
   67163    2209.2465   -296.45937   -54350.037   -59961.725   -54402.945 
Loop time of 87.8727 on 1 procs for 495 steps with 19652 atoms

Performance: 0.487 ns/day, 49.311 hours/ns, 5.633 timesteps/s
99.6% CPU use with 1 MPI tasks x no OpenMP threads

MPI task timing breakdown:
Section |  min time  |  avg time  |  max time  |%varavg| %total
---------------------------------------------------------------
Pair    | 48.591     | 48.591     | 48.591     |   0.0 | 55.30
Neigh   | 37.744     | 37.744     | 37.744     |   0.0 | 42.95
Comm    | 0.55862    | 0.55862    | 0.55862    |   0.0 |  0.64
Output  | 0.10155    | 0.10155    | 0.10155    |   0.0 |  0.12
Modify  | 0.68828    | 0.68828    | 0.68828    |   0.0 |  0.78
Other   |            | 0.1897     |            |       |  0.22

Nlocal:    19652 ave 19652 max 19652 min
Histogram: 1 0 0 0 0 0 0 0 0 0
Nghost:    19557 ave 19557 max 19557 min
Histogram: 1 0 0 0 0 0 0 0 0 0
Neighs:    1.72286e+06 ave 1.72286e+06 max 1.72286e+06 min
Histogram: 1 0 0 0 0 0 0 0 0 0

Total # of neighbors = 1722863
Ave neighs/atom = 87.6686
Neighbor list builds = 495
Dangerous builds not checked
Setting up Verlet run ...
  Unit style    : metal
  Current step  : 67163
  Time step     : 0.001
Per MPI rank memory allocation (min/avg/max) = 19.34 | 19.34 | 19.34 Mbytes
Step Temp Press TotEng PotEng Enthalpy 
   67163    2209.2465   -296.45937   -54350.037   -59961.725   -54402.945 
   73335    2170.9917   -2586.7792   -54458.089   -59972.605   -54920.959 
Loop time of 1234.63 on 1 procs for 6172 steps with 19652 atoms

Performance: 0.432 ns/day, 55.566 hours/ns, 4.999 timesteps/s
99.2% CPU use with 1 MPI tasks x no OpenMP threads

MPI task timing breakdown:
Section |  min time  |  avg time  |  max time  |%varavg| %total
---------------------------------------------------------------
Pair    | 686.56     | 686.56     | 686.56     |   0.0 | 55.61
Neigh   | 528.05     | 528.05     | 528.05     |   0.0 | 42.77
Comm    | 7.9541     | 7.9541     | 7.9541     |   0.0 |  0.64
Output  | 0.00014591 | 0.00014591 | 0.00014591 |   0.0 |  0.00
Modify  | 9.3878     | 9.3878     | 9.3878     |   0.0 |  0.76
Other   |            | 2.671      |            |       |  0.22

Nlocal:    19652 ave 19652 max 19652 min
Histogram: 1 0 0 0 0 0 0 0 0 0
Nghost:    19470 ave 19470 max 19470 min
Histogram: 1 0 0 0 0 0 0 0 0 0
Neighs:    1.71836e+06 ave 1.71836e+06 max 1.71836e+06 min
Histogram: 1 0 0 0 0 0 0 0 0 0

Total # of neighbors = 1718361
Ave neighs/atom = 87.4395
Neighbor list builds = 6172
Dangerous builds not checked
Setting up Verlet run ...
  Unit style    : metal
  Current step  : 73335
  Time step     : 0.001
Per MPI rank memory allocation (min/avg/max) = 19.34 | 19.34 | 19.34 Mbytes
Step Temp Press TotEng PotEng Enthalpy 
   73335    2170.9917   -2586.7792   -54458.089   -59972.605   -54920.959 
   73337    2171.1805   -2591.7053   -54458.064    -59973.06   -54921.815 
   73830    2164.9713   -658.42701   -54650.872   -60150.097   -54767.886 
Loop time of 94.8745 on 1 procs for 495 steps with 19652 atoms

Performance: 0.451 ns/day, 53.240 hours/ns, 5.217 timesteps/s
99.2% CPU use with 1 MPI tasks x no OpenMP threads

MPI task timing breakdown:
Section |  min time  |  avg time  |  max time  |%varavg| %total
---------------------------------------------------------------
Pair    | 52.63      | 52.63      | 52.63      |   0.0 | 55.47
Neigh   | 40.609     | 40.609     | 40.609     |   0.0 | 42.80
Comm    | 0.61127    | 0.61127    | 0.61127    |   0.0 |  0.64
Output  | 0.080108   | 0.080108   | 0.080108   |   0.0 |  0.08
Modify  | 0.736      | 0.736      | 0.736      |   0.0 |  0.78
Other   |            | 0.2086     |            |       |  0.22

Nlocal:    19652 ave 19652 max 19652 min
Histogram: 1 0 0 0 0 0 0 0 0 0
Nghost:    19544 ave 19544 max 19544 min
Histogram: 1 0 0 0 0 0 0 0 0 0
Neighs:    1.72973e+06 ave 1.72973e+06 max 1.72973e+06 min
Histogram: 1 0 0 0 0 0 0 0 0 0

Total # of neighbors = 1729727
Ave neighs/atom = 88.0179
Neighbor list builds = 495
Dangerous builds not checked
Setting up Verlet run ...
  Unit style    : metal
  Current step  : 73830
  Time step     : 0.001
Per MPI rank memory allocation (min/avg/max) = 19.34 | 19.34 | 19.34 Mbytes
Step Temp Press TotEng PotEng Enthalpy 
   73830    2164.9713   -658.42701   -54650.872   -60150.097   -54767.886 
   80002    2160.8625   -681.97845   -54679.241   -60168.028   -54800.257 
Loop time of 1199.52 on 1 procs for 6172 steps with 19652 atoms

Performance: 0.445 ns/day, 53.986 hours/ns, 5.145 timesteps/s
99.1% CPU use with 1 MPI tasks x no OpenMP threads

MPI task timing breakdown:
Section |  min time  |  avg time  |  max time  |%varavg| %total
---------------------------------------------------------------
Pair    | 665.88     | 665.88     | 665.88     |   0.0 | 55.51
Neigh   | 514.01     | 514.01     | 514.01     |   0.0 | 42.85
Comm    | 7.8204     | 7.8204     | 7.8204     |   0.0 |  0.65
Output  | 0.00016904 | 0.00016904 | 0.00016904 |   0.0 |  0.00
Modify  | 9.2185     | 9.2185     | 9.2185     |   0.0 |  0.77
Other   |            | 2.587      |            |       |  0.22

Nlocal:    19652 ave 19652 max 19652 min
Histogram: 1 0 0 0 0 0 0 0 0 0
Nghost:    19531 ave 19531 max 19531 min
Histogram: 1 0 0 0 0 0 0 0 0 0
Neighs:    1.73245e+06 ave 1.73245e+06 max 1.73245e+06 min
Histogram: 1 0 0 0 0 0 0 0 0 0

Total # of neighbors = 1732453
Ave neighs/atom = 88.1566
Neighbor list builds = 6172
Dangerous builds not checked
Setting up Verlet run ...
  Unit style    : metal
  Current step  : 80002
  Time step     : 0.001
Per MPI rank memory allocation (min/avg/max) = 19.34 | 19.34 | 19.34 Mbytes
Step Temp Press TotEng PotEng Enthalpy 
   80002    2160.8625   -681.97845   -54679.241   -60168.028   -54800.257 
   80004    2161.1977   -689.40212   -54679.256   -60168.896    -54801.59 
   80497    2111.1401    68.979521   -54949.655   -60312.144   -54937.469 
Loop time of 87.4007 on 1 procs for 495 steps with 19652 atoms

Performance: 0.489 ns/day, 49.046 hours/ns, 5.664 timesteps/s
99.3% CPU use with 1 MPI tasks x no OpenMP threads

MPI task timing breakdown:
Section |  min time  |  avg time  |  max time  |%varavg| %total
---------------------------------------------------------------
Pair    | 48.276     | 48.276     | 48.276     |   0.0 | 55.24
Neigh   | 37.443     | 37.443     | 37.443     |   0.0 | 42.84
Comm    | 0.56217    | 0.56217    | 0.56217    |   0.0 |  0.64
Output  | 0.24358    | 0.24358    | 0.24358    |   0.0 |  0.28
Modify  | 0.68376    | 0.68376    | 0.68376    |   0.0 |  0.78
Other   |            | 0.1917     |            |       |  0.22

Nlocal:    19652 ave 19652 max 19652 min
Histogram: 1 0 0 0 0 0 0 0 0 0
Nghost:    19517 ave 19517 max 19517 min
Histogram: 1 0 0 0 0 0 0 0 0 0
Neighs:    1.73958e+06 ave 1.73958e+06 max 1.73958e+06 min
Histogram: 1 0 0 0 0 0 0 0 0 0

Total # of neighbors = 1739583
Ave neighs/atom = 88.5194
Neighbor list builds = 495
Dangerous builds not checked
Setting up Verlet run ...
  Unit style    : metal
  Current step  : 80497
  Time step     : 0.001
Per MPI rank memory allocation (min/avg/max) = 19.34 | 19.34 | 19.34 Mbytes
Step Temp Press TotEng PotEng Enthalpy 
   80497    2111.1401    68.979521   -54949.655   -60312.144   -54937.469 
   86669    2117.4954     759.6218   -54993.621   -60372.252   -54859.704 
Loop time of 1213.12 on 1 procs for 6172 steps with 19652 atoms

Performance: 0.440 ns/day, 54.598 hours/ns, 5.088 timesteps/s
99.2% CPU use with 1 MPI tasks x no OpenMP threads

MPI task timing breakdown:
Section |  min time  |  avg time  |  max time  |%varavg| %total
---------------------------------------------------------------
Pair    | 679.23     | 679.23     | 679.23     |   0.0 | 55.99
Neigh   | 514.02     | 514.02     | 514.02     |   0.0 | 42.37
Comm    | 7.9875     | 7.9875     | 7.9875     |   0.0 |  0.66
Output  | 0.00020099 | 0.00020099 | 0.00020099 |   0.0 |  0.00
Modify  | 9.2208     | 9.2208     | 9.2208     |   0.0 |  0.76
Other   |            | 2.664      |            |       |  0.22

Nlocal:    19652 ave 19652 max 19652 min
Histogram: 1 0 0 0 0 0 0 0 0 0
Nghost:    19583 ave 19583 max 19583 min
Histogram: 1 0 0 0 0 0 0 0 0 0
Neighs:    1.74381e+06 ave 1.74381e+06 max 1.74381e+06 min
Histogram: 1 0 0 0 0 0 0 0 0 0

Total # of neighbors = 1743813
Ave neighs/atom = 88.7346
Neighbor list builds = 6172
Dangerous builds not checked
Setting up Verlet run ...
  Unit style    : metal
  Current step  : 86669
  Time step     : 0.001
Per MPI rank memory allocation (min/avg/max) = 19.34 | 19.34 | 19.34 Mbytes
Step Temp Press TotEng PotEng Enthalpy 
   86669    2117.4954     759.6218   -54993.621   -60372.252   -54859.704 
   86671    2118.9971    726.48819   -54993.646   -60376.092   -54865.571 
   87164    2067.3957    1646.0034   -55231.109   -60482.483    -54942.22 
Loop time of 99.1833 on 1 procs for 495 steps with 19652 atoms

Performance: 0.431 ns/day, 55.658 hours/ns, 4.991 timesteps/s
99.5% CPU use with 1 MPI tasks x no OpenMP threads

MPI task timing breakdown:
Section |  min time  |  avg time  |  max time  |%varavg| %total
---------------------------------------------------------------
Pair    | 55.684     | 55.684     | 55.684     |   0.0 | 56.14
Neigh   | 41.59      | 41.59      | 41.59      |   0.0 | 41.93
Comm    | 0.69495    | 0.69495    | 0.69495    |   0.0 |  0.70
Output  | 0.18945    | 0.18945    | 0.18945    |   0.0 |  0.19
Modify  | 0.79343    | 0.79343    | 0.79343    |   0.0 |  0.80
Other   |            | 0.2315     |            |       |  0.23

Nlocal:    19652 ave 19652 max 19652 min
Histogram: 1 0 0 0 0 0 0 0 0 0
Nghost:    19627 ave 19627 max 19627 min
Histogram: 1 0 0 0 0 0 0 0 0 0
Neighs:    1.75101e+06 ave 1.75101e+06 max 1.75101e+06 min
Histogram: 1 0 0 0 0 0 0 0 0 0

Total # of neighbors = 1751010
Ave neighs/atom = 89.1009
Neighbor list builds = 495
Dangerous builds not checked
Setting up Verlet run ...
  Unit style    : metal
  Current step  : 87164
  Time step     : 0.001
Per MPI rank memory allocation (min/avg/max) = 19.34 | 19.34 | 19.34 Mbytes
Step Temp Press TotEng PotEng Enthalpy 
   87164    2067.3957    1646.0034   -55231.109   -60482.483    -54942.22 
   93336    2065.6136    1087.4952   -55289.936   -60536.783   -55099.169 
Loop time of 1272.57 on 1 procs for 6172 steps with 19652 atoms

Performance: 0.419 ns/day, 57.274 hours/ns, 4.850 timesteps/s
98.7% CPU use with 1 MPI tasks x no OpenMP threads

MPI task timing breakdown:
Section |  min time  |  avg time  |  max time  |%varavg| %total
---------------------------------------------------------------
Pair    | 717.57     | 717.57     | 717.57     |   0.0 | 56.39
Neigh   | 533.9      | 533.9      | 533.9      |   0.0 | 41.95
Comm    | 8.6105     | 8.6105     | 8.6105     |   0.0 |  0.68
Output  | 0.00013709 | 0.00013709 | 0.00013709 |   0.0 |  0.00
Modify  | 9.6921     | 9.6921     | 9.6921     |   0.0 |  0.76
Other   |            | 2.794      |            |       |  0.22

Nlocal:    19652 ave 19652 max 19652 min
Histogram: 1 0 0 0 0 0 0 0 0 0
Nghost:    19530 ave 19530 max 19530 min
Histogram: 1 0 0 0 0 0 0 0 0 0
Neighs:    1.75168e+06 ave 1.75168e+06 max 1.75168e+06 min
Histogram: 1 0 0 0 0 0 0 0 0 0

Total # of neighbors = 1751683
Ave neighs/atom = 89.1351
Neighbor list builds = 6172
Dangerous builds not checked
Setting up Verlet run ...
  Unit style    : metal
  Current step  : 93336
  Time step     : 0.001
Per MPI rank memory allocation (min/avg/max) = 19.34 | 19.34 | 19.34 Mbytes
Step Temp Press TotEng PotEng Enthalpy 
   93336    2065.6136    1087.4952   -55289.936   -60536.783   -55099.169 
   93338    2066.2952    1069.2455   -55289.952    -60538.53   -55102.386 
   93831    2012.5231    1013.6009    -55548.47   -60660.462   -55371.269 
Loop time of 91.3191 on 1 procs for 495 steps with 19652 atoms

Performance: 0.468 ns/day, 51.245 hours/ns, 5.421 timesteps/s
99.1% CPU use with 1 MPI tasks x no OpenMP threads

MPI task timing breakdown:
Section |  min time  |  avg time  |  max time  |%varavg| %total
---------------------------------------------------------------
Pair    | 50.7       | 50.7       | 50.7       |   0.0 | 55.52
Neigh   | 39.075     | 39.075     | 39.075     |   0.0 | 42.79
Comm    | 0.57801    | 0.57801    | 0.57801    |   0.0 |  0.63
Output  | 0.093725   | 0.093725   | 0.093725   |   0.0 |  0.10
Modify  | 0.68605    | 0.68605    | 0.68605    |   0.0 |  0.75
Other   |            | 0.1859     |            |       |  0.20

Nlocal:    19652 ave 19652 max 19652 min
Histogram: 1 0 0 0 0 0 0 0 0 0
Nghost:    19587 ave 19587 max 19587 min
Histogram: 1 0 0 0 0 0 0 0 0 0
Neighs:    1.7587e+06 ave 1.7587e+06 max 1.7587e+06 min
Histogram: 1 0 0 0 0 0 0 0 0 0

Total # of neighbors = 1758697
Ave neighs/atom = 89.492
Neighbor list builds = 495
Dangerous builds not checked
Setting up Verlet run ...
  Unit style    : metal
  Current step  : 93831
  Time step     : 0.001
Per MPI rank memory allocation (min/avg/max) = 19.34 | 19.34 | 19.34 Mbytes
Step Temp Press TotEng PotEng Enthalpy 
   93831    2012.5231    1013.6009    -55548.47   -60660.462   -55371.269 
  100003    1992.3903   -216.02348   -55603.509   -60664.362   -55641.326 
Loop time of 1145.59 on 1 procs for 6172 steps with 19652 atoms

Performance: 0.465 ns/day, 51.558 hours/ns, 5.388 timesteps/s
99.2% CPU use with 1 MPI tasks x no OpenMP threads

MPI task timing breakdown:
Section |  min time  |  avg time  |  max time  |%varavg| %total
---------------------------------------------------------------
Pair    | 637.85     | 637.85     | 637.85     |   0.0 | 55.68
Neigh   | 489.48     | 489.48     | 489.48     |   0.0 | 42.73
Comm    | 7.253      | 7.253      | 7.253      |   0.0 |  0.63
Output  | 0.00018501 | 0.00018501 | 0.00018501 |   0.0 |  0.00
Modify  | 8.564      | 8.564      | 8.564      |   0.0 |  0.75
Other   |            | 2.444      |            |       |  0.21

Nlocal:    19652 ave 19652 max 19652 min
Histogram: 1 0 0 0 0 0 0 0 0 0
Nghost:    19675 ave 19675 max 19675 min
Histogram: 1 0 0 0 0 0 0 0 0 0
Neighs:    1.75642e+06 ave 1.75642e+06 max 1.75642e+06 min
Histogram: 1 0 0 0 0 0 0 0 0 0

Total # of neighbors = 1756415
Ave neighs/atom = 89.3759
Neighbor list builds = 6172
Dangerous builds not checked
Setting up Verlet run ...
  Unit style    : metal
  Current step  : 100003
  Time step     : 0.001
Per MPI rank memory allocation (min/avg/max) = 19.34 | 19.34 | 19.34 Mbytes
Step Temp Press TotEng PotEng Enthalpy 
  100003    1992.3903   -216.02348   -55603.509   -60664.362   -55641.326 
  100005    1993.5167   -260.21394   -55603.499   -60667.213   -55649.052 
  100498    1954.2042      368.312   -55857.077   -60820.934   -55792.939 
Loop time of 91.4617 on 1 procs for 495 steps with 19652 atoms

Performance: 0.468 ns/day, 51.325 hours/ns, 5.412 timesteps/s
99.2% CPU use with 1 MPI tasks x no OpenMP threads

MPI task timing breakdown:
Section |  min time  |  avg time  |  max time  |%varavg| %total
---------------------------------------------------------------
Pair    | 50.691     | 50.691     | 50.691     |   0.0 | 55.42
Neigh   | 39.182     | 39.182     | 39.182     |   0.0 | 42.84
Comm    | 0.59679    | 0.59679    | 0.59679    |   0.0 |  0.65
Output  | 0.078775   | 0.078775   | 0.078775   |   0.0 |  0.09
Modify  | 0.70019    | 0.70019    | 0.70019    |   0.0 |  0.77
Other   |            | 0.2125     |            |       |  0.23

Nlocal:    19652 ave 19652 max 19652 min
Histogram: 1 0 0 0 0 0 0 0 0 0
Nghost:    19717 ave 19717 max 19717 min
Histogram: 1 0 0 0 0 0 0 0 0 0
Neighs:    1.76456e+06 ave 1.76456e+06 max 1.76456e+06 min
Histogram: 1 0 0 0 0 0 0 0 0 0

Total # of neighbors = 1764555
Ave neighs/atom = 89.7901
Neighbor list builds = 495
Dangerous builds not checked
Setting up Verlet run ...
  Unit style    : metal
  Current step  : 100498
  Time step     : 0.001
Per MPI rank memory allocation (min/avg/max) = 19.34 | 19.34 | 19.34 Mbytes
Step Temp Press TotEng PotEng Enthalpy 
  100498    1954.2042      368.312   -55857.077   -60820.934   -55792.939 
  106670    1965.0649    699.10805   -55940.762   -60932.205   -55819.367 
Loop time of 1243.92 on 1 procs for 6172 steps with 19652 atoms

Performance: 0.429 ns/day, 55.984 hours/ns, 4.962 timesteps/s
99.1% CPU use with 1 MPI tasks x no OpenMP threads

MPI task timing breakdown:
Section |  min time  |  avg time  |  max time  |%varavg| %total
---------------------------------------------------------------
Pair    | 697.18     | 697.18     | 697.18     |   0.0 | 56.05
Neigh   | 525.91     | 525.91     | 525.91     |   0.0 | 42.28
Comm    | 8.481      | 8.481      | 8.481      |   0.0 |  0.68
Output  | 0.00019002 | 0.00019002 | 0.00019002 |   0.0 |  0.00
Modify  | 9.5408     | 9.5408     | 9.5408     |   0.0 |  0.77
Other   |            | 2.809      |            |       |  0.23

Nlocal:    19652 ave 19652 max 19652 min
Histogram: 1 0 0 0 0 0 0 0 0 0
Nghost:    19655 ave 19655 max 19655 min
Histogram: 1 0 0 0 0 0 0 0 0 0
Neighs:    1.76931e+06 ave 1.76931e+06 max 1.76931e+06 min
Histogram: 1 0 0 0 0 0 0 0 0 0

Total # of neighbors = 1769312
Ave neighs/atom = 90.0322
Neighbor list builds = 6172
Dangerous builds not checked
Setting up Verlet run ...
  Unit style    : metal
  Current step  : 106670
  Time step     : 0.001
Per MPI rank memory allocation (min/avg/max) = 19.34 | 19.34 | 19.34 Mbytes
Step Temp Press TotEng PotEng Enthalpy 
  106670    1965.0649    699.10805   -55940.762   -60932.205   -55819.367 
  106672    1965.1232    698.43502   -55940.778   -60932.369     -55819.5 
  107165    1912.2532    249.28476   -56135.811   -60993.109   -56092.586 
Loop time of 103.831 on 1 procs for 495 steps with 19652 atoms

Performance: 0.412 ns/day, 58.266 hours/ns, 4.767 timesteps/s
99.6% CPU use with 1 MPI tasks x no OpenMP threads

MPI task timing breakdown:
Section |  min time  |  avg time  |  max time  |%varavg| %total
---------------------------------------------------------------
Pair    | 58.309     | 58.309     | 58.309     |   0.0 | 56.16
Neigh   | 43.555     | 43.555     | 43.555     |   0.0 | 41.95
Comm    | 0.74685    | 0.74685    | 0.74685    |   0.0 |  0.72
Output  | 0.10388    | 0.10388    | 0.10388    |   0.0 |  0.10
Modify  | 0.87112    | 0.87112    | 0.87112    |   0.0 |  0.84
Other   |            | 0.2453     |            |       |  0.24

Nlocal:    19652 ave 19652 max 19652 min
Histogram: 1 0 0 0 0 0 0 0 0 0
Nghost:    19684 ave 19684 max 19684 min
Histogram: 1 0 0 0 0 0 0 0 0 0
Neighs:    1.77234e+06 ave 1.77234e+06 max 1.77234e+06 min
Histogram: 1 0 0 0 0 0 0 0 0 0

Total # of neighbors = 1772338
Ave neighs/atom = 90.1861
Neighbor list builds = 495
Dangerous builds not checked
Setting up Verlet run ...
  Unit style    : metal
  Current step  : 107165
  Time step     : 0.001
Per MPI rank memory allocation (min/avg/max) = 19.34 | 19.34 | 19.34 Mbytes
Step Temp Press TotEng PotEng Enthalpy 
  107165    1912.2532    249.28476   -56135.811   -60993.109   -56092.586 
  113337    1900.4544    589.60589   -56272.404   -61099.731    -56170.49 
Loop time of 1251.62 on 1 procs for 6172 steps with 19652 atoms

Performance: 0.426 ns/day, 56.330 hours/ns, 4.931 timesteps/s
98.4% CPU use with 1 MPI tasks x no OpenMP threads

MPI task timing breakdown:
Section |  min time  |  avg time  |  max time  |%varavg| %total
---------------------------------------------------------------
Pair    | 703.34     | 703.34     | 703.34     |   0.0 | 56.19
Neigh   | 527.24     | 527.24     | 527.24     |   0.0 | 42.12
Comm    | 8.5305     | 8.5305     | 8.5305     |   0.0 |  0.68
Output  | 0.00015998 | 0.00015998 | 0.00015998 |   0.0 |  0.00
Modify  | 9.7354     | 9.7354     | 9.7354     |   0.0 |  0.78
Other   |            | 2.776      |            |       |  0.22

Nlocal:    19652 ave 19652 max 19652 min
Histogram: 1 0 0 0 0 0 0 0 0 0
Nghost:    19732 ave 19732 max 19732 min
Histogram: 1 0 0 0 0 0 0 0 0 0
Neighs:    1.77716e+06 ave 1.77716e+06 max 1.77716e+06 min
Histogram: 1 0 0 0 0 0 0 0 0 0

Total # of neighbors = 1777163
Ave neighs/atom = 90.4317
Neighbor list builds = 6172
Dangerous builds not checked
Setting up Verlet run ...
  Unit style    : metal
  Current step  : 113337
  Time step     : 0.001
Per MPI rank memory allocation (min/avg/max) = 19.34 | 19.34 | 19.34 Mbytes
Step Temp Press TotEng PotEng Enthalpy 
  113337    1900.4544    589.60589   -56272.404   -61099.731    -56170.49 
  113339    1899.6266    613.52057   -56272.401   -61097.626   -56166.354 
  113832    1865.9351    1010.4111   -56474.181   -61213.826   -56300.046 
Loop time of 97.7277 on 1 procs for 495 steps with 19652 atoms

Performance: 0.438 ns/day, 54.842 hours/ns, 5.065 timesteps/s
97.9% CPU use with 1 MPI tasks x no OpenMP threads

MPI task timing breakdown:
Section |  min time  |  avg time  |  max time  |%varavg| %total
---------------------------------------------------------------
Pair    | 54.8       | 54.8       | 54.8       |   0.0 | 56.07
Neigh   | 41.095     | 41.095     | 41.095     |   0.0 | 42.05
Comm    | 0.69576    | 0.69576    | 0.69576    |   0.0 |  0.71
Output  | 0.11696    | 0.11696    | 0.11696    |   0.0 |  0.12
Modify  | 0.78393    | 0.78393    | 0.78393    |   0.0 |  0.80
Other   |            | 0.2359     |            |       |  0.24

Nlocal:    19652 ave 19652 max 19652 min
Histogram: 1 0 0 0 0 0 0 0 0 0
Nghost:    19763 ave 19763 max 19763 min
Histogram: 1 0 0 0 0 0 0 0 0 0
Neighs:    1.78208e+06 ave 1.78208e+06 max 1.78208e+06 min
Histogram: 1 0 0 0 0 0 0 0 0 0

Total # of neighbors = 1782083
Ave neighs/atom = 90.682
Neighbor list builds = 495
Dangerous builds not checked
Setting up Verlet run ...
  Unit style    : metal
  Current step  : 113832
  Time step     : 0.001
Per MPI rank memory allocation (min/avg/max) = 19.34 | 19.34 | 19.34 Mbytes
Step Temp Press TotEng PotEng Enthalpy 
  113832    1865.9351    1010.4111   -56474.181   -61213.826   -56300.046 
  120004    1855.9939   -248.76021   -56548.185   -61262.579   -56591.046 
Loop time of 1218.7 on 1 procs for 6172 steps with 19652 atoms

Performance: 0.438 ns/day, 54.849 hours/ns, 5.064 timesteps/s
99.4% CPU use with 1 MPI tasks x no OpenMP threads

MPI task timing breakdown:
Section |  min time  |  avg time  |  max time  |%varavg| %total
---------------------------------------------------------------
Pair    | 682.95     | 682.95     | 682.95     |   0.0 | 56.04
Neigh   | 515.07     | 515.07     | 515.07     |   0.0 | 42.26
Comm    | 8.5058     | 8.5058     | 8.5058     |   0.0 |  0.70
Output  | 0.00021791 | 0.00021791 | 0.00021791 |   0.0 |  0.00
Modify  | 9.4166     | 9.4166     | 9.4166     |   0.0 |  0.77
Other   |            | 2.758      |            |       |  0.23

Nlocal:    19652 ave 19652 max 19652 min
Histogram: 1 0 0 0 0 0 0 0 0 0
Nghost:    19723 ave 19723 max 19723 min
Histogram: 1 0 0 0 0 0 0 0 0 0
Neighs:    1.78263e+06 ave 1.78263e+06 max 1.78263e+06 min
Histogram: 1 0 0 0 0 0 0 0 0 0

Total # of neighbors = 1782629
Ave neighs/atom = 90.7098
Neighbor list builds = 6172
Dangerous builds not checked
Setting up Verlet run ...
  Unit style    : metal
  Current step  : 120004
  Time step     : 0.001
Per MPI rank memory allocation (min/avg/max) = 19.34 | 19.34 | 19.34 Mbytes
Step Temp Press TotEng PotEng Enthalpy 
  120004    1855.9939   -248.76021   -56548.185   -61262.579   -56591.046 
  120006    1855.4192   -224.75383   -56548.191   -61261.125   -56586.916 
  120499    1812.7541    1160.0799   -56750.943   -61355.504    -56551.78 
Loop time of 93.2033 on 1 procs for 495 steps with 19652 atoms

Performance: 0.459 ns/day, 52.303 hours/ns, 5.311 timesteps/s
99.2% CPU use with 1 MPI tasks x no OpenMP threads

MPI task timing breakdown:
Section |  min time  |  avg time  |  max time  |%varavg| %total
---------------------------------------------------------------
Pair    | 51.913     | 51.913     | 51.913     |   0.0 | 55.70
Neigh   | 39.367     | 39.367     | 39.367     |   0.0 | 42.24
Comm    | 0.62516    | 0.62516    | 0.62516    |   0.0 |  0.67
Output  | 0.35146    | 0.35146    | 0.35146    |   0.0 |  0.38
Modify  | 0.73938    | 0.73938    | 0.73938    |   0.0 |  0.79
Other   |            | 0.208      |            |       |  0.22

Nlocal:    19652 ave 19652 max 19652 min
Histogram: 1 0 0 0 0 0 0 0 0 0
Nghost:    19792 ave 19792 max 19792 min
Histogram: 1 0 0 0 0 0 0 0 0 0
Neighs:    1.78933e+06 ave 1.78933e+06 max 1.78933e+06 min
Histogram: 1 0 0 0 0 0 0 0 0 0

Total # of neighbors = 1789329
Ave neighs/atom = 91.0507
Neighbor list builds = 495
Dangerous builds not checked
Setting up Verlet run ...
  Unit style    : metal
  Current step  : 120499
  Time step     : 0.001
Per MPI rank memory allocation (min/avg/max) = 19.34 | 19.34 | 19.34 Mbytes
Step Temp Press TotEng PotEng Enthalpy 
  120499    1812.7541    1160.0799   -56750.943   -61355.504    -56551.78 
  126671    1790.7435   -1239.3318   -56862.329    -61410.98   -57075.083 
Loop time of 1265.53 on 1 procs for 6172 steps with 19652 atoms

Performance: 0.421 ns/day, 56.957 hours/ns, 4.877 timesteps/s
98.6% CPU use with 1 MPI tasks x no OpenMP threads

MPI task timing breakdown:
Section |  min time  |  avg time  |  max time  |%varavg| %total
---------------------------------------------------------------
Pair    | 713.5      | 713.5      | 713.5      |   0.0 | 56.38
Neigh   | 530.35     | 530.35     | 530.35     |   0.0 | 41.91
Comm    | 8.8022     | 8.8022     | 8.8022     |   0.0 |  0.70
Output  | 0.00019789 | 0.00019789 | 0.00019789 |   0.0 |  0.00
Modify  | 9.9493     | 9.9493     | 9.9493     |   0.0 |  0.79
Other   |            | 2.928      |            |       |  0.23

Nlocal:    19652 ave 19652 max 19652 min
Histogram: 1 0 0 0 0 0 0 0 0 0
Nghost:    19735 ave 19735 max 19735 min
Histogram: 1 0 0 0 0 0 0 0 0 0
Neighs:    1.78912e+06 ave 1.78912e+06 max 1.78912e+06 min
Histogram: 1 0 0 0 0 0 0 0 0 0

Total # of neighbors = 1789118
Ave neighs/atom = 91.04
Neighbor list builds = 6172
Dangerous builds not checked
Setting up Verlet run ...
  Unit style    : metal
  Current step  : 126671
  Time step     : 0.001
Per MPI rank memory allocation (min/avg/max) = 19.34 | 19.34 | 19.34 Mbytes
Step Temp Press TotEng PotEng Enthalpy 
  126671    1790.7435   -1239.3318   -56862.329    -61410.98   -57075.083 
  126673    1791.4755   -1287.6121   -56862.321   -61412.832   -57083.363 
  127166    1754.0894   -681.95644   -57066.697   -61522.244   -57183.464 
Loop time of 98.9195 on 1 procs for 495 steps with 19652 atoms

Performance: 0.432 ns/day, 55.510 hours/ns, 5.004 timesteps/s
98.1% CPU use with 1 MPI tasks x no OpenMP threads

MPI task timing breakdown:
Section |  min time  |  avg time  |  max time  |%varavg| %total
---------------------------------------------------------------
Pair    | 55.575     | 55.575     | 55.575     |   0.0 | 56.18
Neigh   | 41.372     | 41.372     | 41.372     |   0.0 | 41.82
Comm    | 0.7491     | 0.7491     | 0.7491     |   0.0 |  0.76
Output  | 0.14968    | 0.14968    | 0.14968    |   0.0 |  0.15
Modify  | 0.83037    | 0.83037    | 0.83037    |   0.0 |  0.84
Other   |            | 0.244      |            |       |  0.25

Nlocal:    19652 ave 19652 max 19652 min
Histogram: 1 0 0 0 0 0 0 0 0 0
Nghost:    19795 ave 19795 max 19795 min
Histogram: 1 0 0 0 0 0 0 0 0 0
Neighs:    1.79363e+06 ave 1.79363e+06 max 1.79363e+06 min
Histogram: 1 0 0 0 0 0 0 0 0 0

Total # of neighbors = 1793634
Ave neighs/atom = 91.2698
Neighbor list builds = 495
Dangerous builds not checked
Setting up Verlet run ...
  Unit style    : metal
  Current step  : 127166
  Time step     : 0.001
Per MPI rank memory allocation (min/avg/max) = 19.34 | 19.34 | 19.34 Mbytes
Step Temp Press TotEng PotEng Enthalpy 
  127166    1754.0894   -681.95644   -57066.697   -61522.244   -57183.464 
  133338    1741.5187    1453.3059    -57142.42   -61566.036   -56894.528 
Loop time of 1202.17 on 1 procs for 6172 steps with 19652 atoms

Performance: 0.444 ns/day, 54.105 hours/ns, 5.134 timesteps/s
99.1% CPU use with 1 MPI tasks x no OpenMP threads

MPI task timing breakdown:
Section |  min time  |  avg time  |  max time  |%varavg| %total
---------------------------------------------------------------
Pair    | 674.68     | 674.68     | 674.68     |   0.0 | 56.12
Neigh   | 507.44     | 507.44     | 507.44     |   0.0 | 42.21
Comm    | 8.0714     | 8.0714     | 8.0714     |   0.0 |  0.67
Output  | 0.00020695 | 0.00020695 | 0.00020695 |   0.0 |  0.00
Modify  | 9.2664     | 9.2664     | 9.2664     |   0.0 |  0.77
Other   |            | 2.709      |            |       |  0.23

Nlocal:    19652 ave 19652 max 19652 min
Histogram: 1 0 0 0 0 0 0 0 0 0
Nghost:    19880 ave 19880 max 19880 min
Histogram: 1 0 0 0 0 0 0 0 0 0
Neighs:    1.79996e+06 ave 1.79996e+06 max 1.79996e+06 min
Histogram: 1 0 0 0 0 0 0 0 0 0

Total # of neighbors = 1799955
Ave neighs/atom = 91.5914
Neighbor list builds = 6172
Dangerous builds not checked
Setting up Verlet run ...
  Unit style    : metal
  Current step  : 133338
  Time step     : 0.001
Per MPI rank memory allocation (min/avg/max) = 19.34 | 19.34 | 19.34 Mbytes
Step Temp Press TotEng PotEng Enthalpy 
  133338    1741.5187    1453.3059    -57142.42   -61566.036   -56894.528 
  133340    1741.9954    1402.4763   -57142.414   -61567.241   -56903.191 
  133833    1706.0905    1767.3884   -57371.338   -61704.964   -57071.006 
Loop time of 106.92 on 1 procs for 495 steps with 19652 atoms

Performance: 0.400 ns/day, 60.000 hours/ns, 4.630 timesteps/s
96.4% CPU use with 1 MPI tasks x no OpenMP threads

MPI task timing breakdown:
Section |  min time  |  avg time  |  max time  |%varavg| %total
---------------------------------------------------------------
Pair    | 60.206     | 60.206     | 60.206     |   0.0 | 56.31
Neigh   | 44.804     | 44.804     | 44.804     |   0.0 | 41.90
Comm    | 0.7428     | 0.7428     | 0.7428     |   0.0 |  0.69
Output  | 0.078085   | 0.078085   | 0.078085   |   0.0 |  0.07
Modify  | 0.84123    | 0.84123    | 0.84123    |   0.0 |  0.79
Other   |            | 0.2472     |            |       |  0.23

Nlocal:    19652 ave 19652 max 19652 min
Histogram: 1 0 0 0 0 0 0 0 0 0
Nghost:    19895 ave 19895 max 19895 min
Histogram: 1 0 0 0 0 0 0 0 0 0
Neighs:    1.80678e+06 ave 1.80678e+06 max 1.80678e+06 min
Histogram: 1 0 0 0 0 0 0 0 0 0

Total # of neighbors = 1806785
Ave neighs/atom = 91.939
Neighbor list builds = 495
Dangerous builds not checked
Setting up Verlet run ...
  Unit style    : metal
  Current step  : 133833
  Time step     : 0.001
Per MPI rank memory allocation (min/avg/max) = 19.34 | 19.34 | 19.34 Mbytes
Step Temp Press TotEng PotEng Enthalpy 
  133833    1706.0905    1767.3884   -57371.338   -61704.964   -57071.006 
  140005    1700.1712   -836.84674   -57462.676   -61781.266   -57604.945 
Loop time of 1199.63 on 1 procs for 6172 steps with 19652 atoms

Performance: 0.445 ns/day, 53.991 hours/ns, 5.145 timesteps/s
98.6% CPU use with 1 MPI tasks x no OpenMP threads

MPI task timing breakdown:
Section |  min time  |  avg time  |  max time  |%varavg| %total
---------------------------------------------------------------
Pair    | 671.63     | 671.63     | 671.63     |   0.0 | 55.99
Neigh   | 508.63     | 508.63     | 508.63     |   0.0 | 42.40
Comm    | 7.6618     | 7.6618     | 7.6618     |   0.0 |  0.64
Output  | 0.00019312 | 0.00019312 | 0.00019312 |   0.0 |  0.00
Modify  | 9.0959     | 9.0959     | 9.0959     |   0.0 |  0.76
Other   |            | 2.61       |            |       |  0.22

Nlocal:    19652 ave 19652 max 19652 min
Histogram: 1 0 0 0 0 0 0 0 0 0
Nghost:    19876 ave 19876 max 19876 min
Histogram: 1 0 0 0 0 0 0 0 0 0
Neighs:    1.80543e+06 ave 1.80543e+06 max 1.80543e+06 min
Histogram: 1 0 0 0 0 0 0 0 0 0

Total # of neighbors = 1805430
Ave neighs/atom = 91.87
Neighbor list builds = 6172
Dangerous builds not checked
Setting up Verlet run ...
  Unit style    : metal
  Current step  : 140005
  Time step     : 0.001
Per MPI rank memory allocation (min/avg/max) = 19.34 | 19.34 | 19.34 Mbytes
Step Temp Press TotEng PotEng Enthalpy 
  140005    1700.1712   -836.84674   -57462.676   -61781.266   -57604.945 
  140007    1700.6237   -841.20701   -57462.677   -61782.416   -57605.687 
  140500    1670.5884     342.7773    -57659.87   -61903.317   -57601.828 
Loop time of 97.2147 on 1 procs for 495 steps with 19652 atoms

Performance: 0.440 ns/day, 54.554 hours/ns, 5.092 timesteps/s
97.7% CPU use with 1 MPI tasks x no OpenMP threads

MPI task timing breakdown:
Section |  min time  |  avg time  |  max time  |%varavg| %total
---------------------------------------------------------------
Pair    | 54.443     | 54.443     | 54.443     |   0.0 | 56.00
Neigh   | 40.953     | 40.953     | 40.953     |   0.0 | 42.13
Comm    | 0.62651    | 0.62651    | 0.62651    |   0.0 |  0.64
Output  | 0.24143    | 0.24143    | 0.24143    |   0.0 |  0.25
Modify  | 0.74201    | 0.74201    | 0.74201    |   0.0 |  0.76
Other   |            | 0.2086     |            |       |  0.21

Nlocal:    19652 ave 19652 max 19652 min
Histogram: 1 0 0 0 0 0 0 0 0 0
Nghost:    19917 ave 19917 max 19917 min
Histogram: 1 0 0 0 0 0 0 0 0 0
Neighs:    1.81354e+06 ave 1.81354e+06 max 1.81354e+06 min
Histogram: 1 0 0 0 0 0 0 0 0 0

Total # of neighbors = 1813544
Ave neighs/atom = 92.2829
Neighbor list builds = 495
Dangerous builds not checked
Setting up Verlet run ...
  Unit style    : metal
  Current step  : 140500
  Time step     : 0.001
Per MPI rank memory allocation (min/avg/max) = 19.34 | 19.34 | 19.34 Mbytes
Step Temp Press TotEng PotEng Enthalpy 
  140500    1670.5884     342.7773    -57659.87   -61903.317   -57601.828 
  146672    1636.3411   -1791.6353   -57810.117   -61966.572   -58113.545 
Loop time of 1239.53 on 1 procs for 6172 steps with 19652 atoms

Performance: 0.430 ns/day, 55.786 hours/ns, 4.979 timesteps/s
99.1% CPU use with 1 MPI tasks x no OpenMP threads

MPI task timing breakdown:
Section |  min time  |  avg time  |  max time  |%varavg| %total
---------------------------------------------------------------
Pair    | 698.97     | 698.97     | 698.97     |   0.0 | 56.39
Neigh   | 520.1      | 520.1      | 520.1      |   0.0 | 41.96
Comm    | 8.1909     | 8.1909     | 8.1909     |   0.0 |  0.66
Output  | 0.00020599 | 0.00020599 | 0.00020599 |   0.0 |  0.00
Modify  | 9.5776     | 9.5776     | 9.5776     |   0.0 |  0.77
Other   |            | 2.685      |            |       |  0.22

Nlocal:    19652 ave 19652 max 19652 min
Histogram: 1 0 0 0 0 0 0 0 0 0
Nghost:    19912 ave 19912 max 19912 min
Histogram: 1 0 0 0 0 0 0 0 0 0
Neighs:    1.8125e+06 ave 1.8125e+06 max 1.8125e+06 min
Histogram: 1 0 0 0 0 0 0 0 0 0

Total # of neighbors = 1812498
Ave neighs/atom = 92.2297
Neighbor list builds = 6172
Dangerous builds not checked
Setting up Verlet run ...
  Unit style    : metal
  Current step  : 146672
  Time step     : 0.001
Per MPI rank memory allocation (min/avg/max) = 19.34 | 19.34 | 19.34 Mbytes
Step Temp Press TotEng PotEng Enthalpy 
  146672    1636.3411   -1791.6353   -57810.117   -61966.572   -58113.545 
  146674    1637.0385   -1801.5793   -57810.106   -61968.333   -58115.218 
  147167    1611.2581   -7.7078275   -57983.087   -62075.829   -57984.386 
Loop time of 96.8994 on 1 procs for 495 steps with 19652 atoms

Performance: 0.441 ns/day, 54.377 hours/ns, 5.108 timesteps/s
98.0% CPU use with 1 MPI tasks x no OpenMP threads

MPI task timing breakdown:
Section |  min time  |  avg time  |  max time  |%varavg| %total
---------------------------------------------------------------
Pair    | 54.339     | 54.339     | 54.339     |   0.0 | 56.08
Neigh   | 40.825     | 40.825     | 40.825     |   0.0 | 42.13
Comm    | 0.66727    | 0.66727    | 0.66727    |   0.0 |  0.69
Output  | 0.078174   | 0.078174   | 0.078174   |   0.0 |  0.08
Modify  | 0.77918    | 0.77918    | 0.77918    |   0.0 |  0.80
Other   |            | 0.21       |            |       |  0.22

Nlocal:    19652 ave 19652 max 19652 min
Histogram: 1 0 0 0 0 0 0 0 0 0
Nghost:    19918 ave 19918 max 19918 min
Histogram: 1 0 0 0 0 0 0 0 0 0
Neighs:    1.82036e+06 ave 1.82036e+06 max 1.82036e+06 min
Histogram: 1 0 0 0 0 0 0 0 0 0

Total # of neighbors = 1820356
Ave neighs/atom = 92.6296
Neighbor list builds = 495
Dangerous builds not checked
Setting up Verlet run ...
  Unit style    : metal
  Current step  : 147167
  Time step     : 0.001
Per MPI rank memory allocation (min/avg/max) = 19.34 | 19.34 | 19.34 Mbytes
Step Temp Press TotEng PotEng Enthalpy 
  147167    1611.2581   -7.7078275   -57983.087   -62075.829   -57984.386 
  153339    1594.0785    78.218162   -58165.662   -62214.767   -58152.521 
Loop time of 1283.39 on 1 procs for 6172 steps with 19652 atoms

Performance: 0.416 ns/day, 57.760 hours/ns, 4.809 timesteps/s
98.3% CPU use with 1 MPI tasks x no OpenMP threads

MPI task timing breakdown:
Section |  min time  |  avg time  |  max time  |%varavg| %total
---------------------------------------------------------------
Pair    | 729.21     | 729.21     | 729.21     |   0.0 | 56.82
Neigh   | 533.05     | 533.05     | 533.05     |   0.0 | 41.53
Comm    | 8.3408     | 8.3408     | 8.3408     |   0.0 |  0.65
Output  | 0.00018191 | 0.00018191 | 0.00018191 |   0.0 |  0.00
Modify  | 10.087     | 10.087     | 10.087     |   0.0 |  0.79
Other   |            | 2.705      |            |       |  0.21

Nlocal:    19652 ave 19652 max 19652 min
Histogram: 1 0 0 0 0 0 0 0 0 0
Nghost:    19926 ave 19926 max 19926 min
Histogram: 1 0 0 0 0 0 0 0 0 0
Neighs:    1.8262e+06 ave 1.8262e+06 max 1.8262e+06 min
Histogram: 1 0 0 0 0 0 0 0 0 0

Total # of neighbors = 1826199
Ave neighs/atom = 92.9269
Neighbor list builds = 6172
Dangerous builds not checked
Setting up Verlet run ...
  Unit style    : metal
  Current step  : 153339
  Time step     : 0.001
Per MPI rank memory allocation (min/avg/max) = 19.34 | 19.34 | 19.34 Mbytes
Step Temp Press TotEng PotEng Enthalpy 
  153339    1594.0785    78.218162   -58165.662   -62214.767   -58152.521 
  153341    1594.0649    94.406138   -58165.656   -62214.726   -58149.795 
  153834    1563.7102    543.83704   -58317.316   -62289.282   -58226.155 
Loop time of 89.5699 on 1 procs for 495 steps with 19652 atoms

Performance: 0.477 ns/day, 50.264 hours/ns, 5.526 timesteps/s
99.6% CPU use with 1 MPI tasks x no OpenMP threads

MPI task timing breakdown:
Section |  min time  |  avg time  |  max time  |%varavg| %total
---------------------------------------------------------------
Pair    | 50.353     | 50.353     | 50.353     |   0.0 | 56.22
Neigh   | 37.689     | 37.689     | 37.689     |   0.0 | 42.08
Comm    | 0.5635     | 0.5635     | 0.5635     |   0.0 |  0.63
Output  | 0.076605   | 0.076605   | 0.076605   |   0.0 |  0.09
Modify  | 0.69647    | 0.69647    | 0.69647    |   0.0 |  0.78
Other   |            | 0.191      |            |       |  0.21

Nlocal:    19652 ave 19652 max 19652 min
Histogram: 1 0 0 0 0 0 0 0 0 0
Nghost:    19968 ave 19968 max 19968 min
Histogram: 1 0 0 0 0 0 0 0 0 0
Neighs:    1.8305e+06 ave 1.8305e+06 max 1.8305e+06 min
Histogram: 1 0 0 0 0 0 0 0 0 0

Total # of neighbors = 1830496
Ave neighs/atom = 93.1455
Neighbor list builds = 495
Dangerous builds not checked
Setting up Verlet run ...
  Unit style    : metal
  Current step  : 153834
  Time step     : 0.001
Per MPI rank memory allocation (min/avg/max) = 19.34 | 19.34 | 19.34 Mbytes
Step Temp Press TotEng PotEng Enthalpy 
  153834    1563.7102    543.83704   -58317.316   -62289.282   -58226.155 
  160006    1551.0879   -1517.7958    -58449.06   -62388.964   -58703.387 
Loop time of 1307.4 on 1 procs for 6172 steps with 19652 atoms

Performance: 0.408 ns/day, 58.841 hours/ns, 4.721 timesteps/s
98.7% CPU use with 1 MPI tasks x no OpenMP threads

MPI task timing breakdown:
Section |  min time  |  avg time  |  max time  |%varavg| %total
---------------------------------------------------------------
Pair    | 742.17     | 742.17     | 742.17     |   0.0 | 56.77
Neigh   | 543.61     | 543.61     | 543.61     |   0.0 | 41.58
Comm    | 8.6416     | 8.6416     | 8.6416     |   0.0 |  0.66
Output  | 0.00021005 | 0.00021005 | 0.00021005 |   0.0 |  0.00
Modify  | 10.136     | 10.136     | 10.136     |   0.0 |  0.78
Other   |            | 2.844      |            |       |  0.22

Nlocal:    19652 ave 19652 max 19652 min
Histogram: 1 0 0 0 0 0 0 0 0 0
Nghost:    19962 ave 19962 max 19962 min
Histogram: 1 0 0 0 0 0 0 0 0 0
Neighs:    1.83044e+06 ave 1.83044e+06 max 1.83044e+06 min
Histogram: 1 0 0 0 0 0 0 0 0 0

Total # of neighbors = 1830445
Ave neighs/atom = 93.1429
Neighbor list builds = 6172
Dangerous builds not checked
Setting up Verlet run ...
  Unit style    : metal
  Current step  : 160006
  Time step     : 0.001
Per MPI rank memory allocation (min/avg/max) = 19.34 | 19.34 | 19.34 Mbytes
Step Temp Press TotEng PotEng Enthalpy 
  160006    1551.0879   -1517.7958    -58449.06   -62388.964   -58703.387 
  160008    1549.6709   -1444.4198   -58449.059   -62385.364   -58691.091 
  160501    1518.6769   -233.92099    -58619.91   -62477.488   -58658.971 
Loop time of 106.338 on 1 procs for 495 steps with 19652 atoms

Performance: 0.402 ns/day, 59.673 hours/ns, 4.655 timesteps/s
98.6% CPU use with 1 MPI tasks x no OpenMP threads

MPI task timing breakdown:
Section |  min time  |  avg time  |  max time  |%varavg| %total
---------------------------------------------------------------
Pair    | 60.706     | 60.706     | 60.706     |   0.0 | 57.09
Neigh   | 43.658     | 43.658     | 43.658     |   0.0 | 41.06
Comm    | 0.75841    | 0.75841    | 0.75841    |   0.0 |  0.71
Output  | 0.086191   | 0.086191   | 0.086191   |   0.0 |  0.08
Modify  | 0.889      | 0.889      | 0.889      |   0.0 |  0.84
Other   |            | 0.2401     |            |       |  0.23

Nlocal:    19652 ave 19652 max 19652 min
Histogram: 1 0 0 0 0 0 0 0 0 0
Nghost:    20026 ave 20026 max 20026 min
Histogram: 1 0 0 0 0 0 0 0 0 0
Neighs:    1.83708e+06 ave 1.83708e+06 max 1.83708e+06 min
Histogram: 1 0 0 0 0 0 0 0 0 0

Total # of neighbors = 1837075
Ave neighs/atom = 93.4803
Neighbor list builds = 495
Dangerous builds not checked
Setting up Verlet run ...
  Unit style    : metal
  Current step  : 160501
  Time step     : 0.001
Per MPI rank memory allocation (min/avg/max) = 19.34 | 19.34 | 19.34 Mbytes
Step Temp Press TotEng PotEng Enthalpy 
  160501    1518.6769   -233.92099    -58619.91   -62477.488   -58658.971 
  166673     1514.649    2589.7043   -58689.304   -62536.651   -58258.607 
Loop time of 1254.72 on 1 procs for 6172 steps with 19652 atoms

Performance: 0.425 ns/day, 56.470 hours/ns, 4.919 timesteps/s
98.4% CPU use with 1 MPI tasks x no OpenMP threads

MPI task timing breakdown:
Section |  min time  |  avg time  |  max time  |%varavg| %total
---------------------------------------------------------------
Pair    | 710.07     | 710.07     | 710.07     |   0.0 | 56.59
Neigh   | 524.35     | 524.35     | 524.35     |   0.0 | 41.79
Comm    | 7.9519     | 7.9519     | 7.9519     |   0.0 |  0.63
Output  | 0.00016403 | 0.00016403 | 0.00016403 |   0.0 |  0.00
Modify  | 9.6315     | 9.6315     | 9.6315     |   0.0 |  0.77
Other   |            | 2.705      |            |       |  0.22

Nlocal:    19652 ave 19652 max 19652 min
Histogram: 1 0 0 0 0 0 0 0 0 0
Nghost:    20061 ave 20061 max 20061 min
Histogram: 1 0 0 0 0 0 0 0 0 0
Neighs:    1.84436e+06 ave 1.84436e+06 max 1.84436e+06 min
Histogram: 1 0 0 0 0 0 0 0 0 0

Total # of neighbors = 1844358
Ave neighs/atom = 93.8509
Neighbor list builds = 6172
Dangerous builds not checked
Setting up Verlet run ...
  Unit style    : metal
  Current step  : 166673
  Time step     : 0.001
Per MPI rank memory allocation (min/avg/max) = 19.34 | 19.34 | 19.34 Mbytes
Step Temp Press TotEng PotEng Enthalpy 
  166673     1514.649    2589.7043   -58689.304   -62536.651   -58258.607 
  166675    1515.3908    2552.3728   -58689.322   -62538.552   -58264.833 
  167168    1470.4464     1715.942   -58905.635   -62640.703   -58620.904 
Loop time of 98.3042 on 1 procs for 495 steps with 19652 atoms

Performance: 0.435 ns/day, 55.165 hours/ns, 5.035 timesteps/s
99.7% CPU use with 1 MPI tasks x no OpenMP threads

MPI task timing breakdown:
Section |  min time  |  avg time  |  max time  |%varavg| %total
---------------------------------------------------------------
Pair    | 55.838     | 55.838     | 55.838     |   0.0 | 56.80
Neigh   | 40.631     | 40.631     | 40.631     |   0.0 | 41.33
Comm    | 0.63677    | 0.63677    | 0.63677    |   0.0 |  0.65
Output  | 0.17928    | 0.17928    | 0.17928    |   0.0 |  0.18
Modify  | 0.80329    | 0.80329    | 0.80329    |   0.0 |  0.82
Other   |            | 0.216      |            |       |  0.22

Nlocal:    19652 ave 19652 max 19652 min
Histogram: 1 0 0 0 0 0 0 0 0 0
Nghost:    20082 ave 20082 max 20082 min
Histogram: 1 0 0 0 0 0 0 0 0 0
Neighs:    1.84892e+06 ave 1.84892e+06 max 1.84892e+06 min
Histogram: 1 0 0 0 0 0 0 0 0 0

Total # of neighbors = 1848915
Ave neighs/atom = 94.0828
Neighbor list builds = 495
Dangerous builds not checked
Setting up Verlet run ...
  Unit style    : metal
  Current step  : 167168
  Time step     : 0.001
Per MPI rank memory allocation (min/avg/max) = 19.34 | 19.34 | 19.34 Mbytes
Step Temp Press TotEng PotEng Enthalpy 
  167168    1470.4464     1715.942   -58905.635   -62640.703   -58620.904 
  173340    1440.7695   -142.55285   -59098.345   -62758.031   -59121.974 
Loop time of 1251.21 on 1 procs for 6172 steps with 19652 atoms

Performance: 0.426 ns/day, 56.312 hours/ns, 4.933 timesteps/s
98.3% CPU use with 1 MPI tasks x no OpenMP threads

MPI task timing breakdown:
Section |  min time  |  avg time  |  max time  |%varavg| %total
---------------------------------------------------------------
Pair    | 710.17     | 710.17     | 710.17     |   0.0 | 56.76
Neigh   | 520.62     | 520.62     | 520.62     |   0.0 | 41.61
Comm    | 7.9144     | 7.9144     | 7.9144     |   0.0 |  0.63
Output  | 0.00021696 | 0.00021696 | 0.00021696 |   0.0 |  0.00
Modify  | 9.8124     | 9.8124     | 9.8124     |   0.0 |  0.78
Other   |            | 2.686      |            |       |  0.21

Nlocal:    19652 ave 19652 max 19652 min
Histogram: 1 0 0 0 0 0 0 0 0 0
Nghost:    20057 ave 20057 max 20057 min
Histogram: 1 0 0 0 0 0 0 0 0 0
Neighs:    1.85041e+06 ave 1.85041e+06 max 1.85041e+06 min
Histogram: 1 0 0 0 0 0 0 0 0 0

Total # of neighbors = 1850409
Ave neighs/atom = 94.1588
Neighbor list builds = 6172
Dangerous builds not checked
Setting up Verlet run ...
  Unit style    : metal
  Current step  : 173340
  Time step     : 0.001
Per MPI rank memory allocation (min/avg/max) = 19.34 | 19.34 | 19.34 Mbytes
Step Temp Press TotEng PotEng Enthalpy 
  173340    1440.7695   -142.55285   -59098.345   -62758.031   -59121.974 
  173342    1440.8621   -137.46164   -59098.337   -62758.258   -59121.122 
  173835    1417.7773    247.36842   -59244.691   -62845.975   -59203.788 
Loop time of 106.782 on 1 procs for 495 steps with 19652 atoms

Performance: 0.401 ns/day, 59.923 hours/ns, 4.636 timesteps/s
95.6% CPU use with 1 MPI tasks x no OpenMP threads

MPI task timing breakdown:
Section |  min time  |  avg time  |  max time  |%varavg| %total
---------------------------------------------------------------
Pair    | 60.38      | 60.38      | 60.38      |   0.0 | 56.54
Neigh   | 44.595     | 44.595     | 44.595     |   0.0 | 41.76
Comm    | 0.6427     | 0.6427     | 0.6427     |   0.0 |  0.60
Output  | 0.083725   | 0.083725   | 0.083725   |   0.0 |  0.08
Modify  | 0.83771    | 0.83771    | 0.83771    |   0.0 |  0.78
Other   |            | 0.2434     |            |       |  0.23

Nlocal:    19652 ave 19652 max 19652 min
Histogram: 1 0 0 0 0 0 0 0 0 0
Nghost:    20082 ave 20082 max 20082 min
Histogram: 1 0 0 0 0 0 0 0 0 0
Neighs:    1.85464e+06 ave 1.85464e+06 max 1.85464e+06 min
Histogram: 1 0 0 0 0 0 0 0 0 0

Total # of neighbors = 1854640
Ave neighs/atom = 94.3741
Neighbor list builds = 495
Dangerous builds not checked
Setting up Verlet run ...
  Unit style    : metal
  Current step  : 173835
  Time step     : 0.001
Per MPI rank memory allocation (min/avg/max) = 19.34 | 19.34 | 19.34 Mbytes
Step Temp Press TotEng PotEng Enthalpy 
  173835    1417.7773    247.36842   -59244.691   -62845.975   -59203.788 
  180007    1415.9013    408.79483   -59299.401    -62895.92   -59231.889 
Loop time of 1275.36 on 1 procs for 6172 steps with 19652 atoms

Performance: 0.418 ns/day, 57.399 hours/ns, 4.839 timesteps/s
98.5% CPU use with 1 MPI tasks x no OpenMP threads

MPI task timing breakdown:
Section |  min time  |  avg time  |  max time  |%varavg| %total
---------------------------------------------------------------
Pair    | 722.48     | 722.48     | 722.48     |   0.0 | 56.65
Neigh   | 532.64     | 532.64     | 532.64     |   0.0 | 41.76
Comm    | 7.8621     | 7.8621     | 7.8621     |   0.0 |  0.62
Output  | 0.00019097 | 0.00019097 | 0.00019097 |   0.0 |  0.00
Modify  | 9.6981     | 9.6981     | 9.6981     |   0.0 |  0.76
Other   |            | 2.676      |            |       |  0.21

Nlocal:    19652 ave 19652 max 19652 min
Histogram: 1 0 0 0 0 0 0 0 0 0
Nghost:    20139 ave 20139 max 20139 min
Histogram: 1 0 0 0 0 0 0 0 0 0
Neighs:    1.85661e+06 ave 1.85661e+06 max 1.85661e+06 min
Histogram: 1 0 0 0 0 0 0 0 0 0

Total # of neighbors = 1856613
Ave neighs/atom = 94.4745
Neighbor list builds = 6172
Dangerous builds not checked
Setting up Verlet run ...
  Unit style    : metal
  Current step  : 180007
  Time step     : 0.001
Per MPI rank memory allocation (min/avg/max) = 19.34 | 19.34 | 19.34 Mbytes
Step Temp Press TotEng PotEng Enthalpy 
  180007    1415.9013    408.79483   -59299.401    -62895.92   -59231.889 
  180009    1416.8099    357.15326   -59299.419   -62898.246   -59240.436 
  180502    1355.3008     198.1125   -59580.491   -63023.078   -59547.889 
Loop time of 101.222 on 1 procs for 495 steps with 19652 atoms

Performance: 0.423 ns/day, 56.803 hours/ns, 4.890 timesteps/s
98.6% CPU use with 1 MPI tasks x no OpenMP threads

MPI task timing breakdown:
Section |  min time  |  avg time  |  max time  |%varavg| %total
---------------------------------------------------------------
Pair    | 57.277     | 57.277     | 57.277     |   0.0 | 56.59
Neigh   | 42.191     | 42.191     | 42.191     |   0.0 | 41.68
Comm    | 0.66119    | 0.66119    | 0.66119    |   0.0 |  0.65
Output  | 0.088097   | 0.088097   | 0.088097   |   0.0 |  0.09
Modify  | 0.77267    | 0.77267    | 0.77267    |   0.0 |  0.76
Other   |            | 0.233      |            |       |  0.23

Nlocal:    19652 ave 19652 max 19652 min
Histogram: 1 0 0 0 0 0 0 0 0 0
Nghost:    20080 ave 20080 max 20080 min
Histogram: 1 0 0 0 0 0 0 0 0 0
Neighs:    1.86328e+06 ave 1.86328e+06 max 1.86328e+06 min
Histogram: 1 0 0 0 0 0 0 0 0 0

Total # of neighbors = 1863284
Ave neighs/atom = 94.814
Neighbor list builds = 495
Dangerous builds not checked
Setting up Verlet run ...
  Unit style    : metal
  Current step  : 180502
  Time step     : 0.001
Per MPI rank memory allocation (min/avg/max) = 19.34 | 19.34 | 19.34 Mbytes
Step Temp Press TotEng PotEng Enthalpy 
  180502    1355.3008     198.1125   -59580.491   -63023.078   -59547.889 
  186674    1348.4001   -983.14148   -59687.907   -63112.966   -59849.602 
Loop time of 1368.76 on 1 procs for 6172 steps with 19652 atoms

Performance: 0.390 ns/day, 61.602 hours/ns, 4.509 timesteps/s
97.9% CPU use with 1 MPI tasks x no OpenMP threads

MPI task timing breakdown:
Section |  min time  |  avg time  |  max time  |%varavg| %total
---------------------------------------------------------------
Pair    | 785.44     | 785.44     | 785.44     |   0.0 | 57.38
Neigh   | 559.21     | 559.21     | 559.21     |   0.0 | 40.86
Comm    | 8.9243     | 8.9243     | 8.9243     |   0.0 |  0.65
Output  | 1.4348     | 1.4348     | 1.4348     |   0.0 |  0.10
Modify  | 10.781     | 10.781     | 10.781     |   0.0 |  0.79
Other   |            | 2.968      |            |       |  0.22

Nlocal:    19652 ave 19652 max 19652 min
Histogram: 1 0 0 0 0 0 0 0 0 0
Nghost:    20222 ave 20222 max 20222 min
Histogram: 1 0 0 0 0 0 0 0 0 0
Neighs:    1.86337e+06 ave 1.86337e+06 max 1.86337e+06 min
Histogram: 1 0 0 0 0 0 0 0 0 0

Total # of neighbors = 1863373
Ave neighs/atom = 94.8185
Neighbor list builds = 6172
Dangerous builds not checked
Setting up Verlet run ...
  Unit style    : metal
  Current step  : 186674
  Time step     : 0.001
Per MPI rank memory allocation (min/avg/max) = 19.34 | 19.34 | 19.34 Mbytes
Step Temp Press TotEng PotEng Enthalpy 
  186674    1348.4001   -983.14148   -59687.907   -63112.966   -59849.602 
  186676    1348.4234   -977.85485   -59687.906   -63113.025   -59848.732 
  187169    1309.7787   -322.34327   -59918.579   -63245.537   -59971.389 
Loop time of 104.32 on 1 procs for 495 steps with 19652 atoms

Performance: 0.410 ns/day, 58.541 hours/ns, 4.745 timesteps/s
97.9% CPU use with 1 MPI tasks x no OpenMP threads

MPI task timing breakdown:
Section |  min time  |  avg time  |  max time  |%varavg| %total
---------------------------------------------------------------
Pair    | 59.588     | 59.588     | 59.588     |   0.0 | 57.12
Neigh   | 42.903     | 42.903     | 42.903     |   0.0 | 41.13
Comm    | 0.67477    | 0.67477    | 0.67477    |   0.0 |  0.65
Output  | 0.085824   | 0.085824   | 0.085824   |   0.0 |  0.08
Modify  | 0.83918    | 0.83918    | 0.83918    |   0.0 |  0.80
Other   |            | 0.2297     |            |       |  0.22

Nlocal:    19652 ave 19652 max 19652 min
Histogram: 1 0 0 0 0 0 0 0 0 0
Nghost:    20228 ave 20228 max 20228 min
Histogram: 1 0 0 0 0 0 0 0 0 0
Neighs:    1.87068e+06 ave 1.87068e+06 max 1.87068e+06 min
Histogram: 1 0 0 0 0 0 0 0 0 0

Total # of neighbors = 1870682
Ave neighs/atom = 95.1904
Neighbor list builds = 495
Dangerous builds not checked
Setting up Verlet run ...
  Unit style    : metal
  Current step  : 187169
  Time step     : 0.001
Per MPI rank memory allocation (min/avg/max) = 19.34 | 19.34 | 19.34 Mbytes
Step Temp Press TotEng PotEng Enthalpy 
  187169    1309.7787   -322.34327   -59918.579   -63245.537   -59971.389 
  193341    1284.1695    -268.0455   -60076.222   -63338.129   -60120.019 
Loop time of 1346.7 on 1 procs for 6172 steps with 19652 atoms

Performance: 0.396 ns/day, 60.610 hours/ns, 4.583 timesteps/s
99.1% CPU use with 1 MPI tasks x no OpenMP threads

MPI task timing breakdown:
Section |  min time  |  avg time  |  max time  |%varavg| %total
---------------------------------------------------------------
Pair    | 773.64     | 773.64     | 773.64     |   0.0 | 57.45
Neigh   | 550.91     | 550.91     | 550.91     |   0.0 | 40.91
Comm    | 8.6886     | 8.6886     | 8.6886     |   0.0 |  0.65
Output  | 0.00020599 | 0.00020599 | 0.00020599 |   0.0 |  0.00
Modify  | 10.544     | 10.544     | 10.544     |   0.0 |  0.78
Other   |            | 2.912      |            |       |  0.22

Nlocal:    19652 ave 19652 max 19652 min
Histogram: 1 0 0 0 0 0 0 0 0 0
Nghost:    20207 ave 20207 max 20207 min
Histogram: 1 0 0 0 0 0 0 0 0 0
Neighs:    1.87557e+06 ave 1.87557e+06 max 1.87557e+06 min
Histogram: 1 0 0 0 0 0 0 0 0 0

Total # of neighbors = 1875569
Ave neighs/atom = 95.4391
Neighbor list builds = 6172
Dangerous builds not checked
Setting up Verlet run ...
  Unit style    : metal
  Current step  : 193341
  Time step     : 0.001
Per MPI rank memory allocation (min/avg/max) = 19.34 | 19.34 | 19.34 Mbytes
Step Temp Press TotEng PotEng Enthalpy 
  193341    1284.1695    -268.0455   -60076.222   -63338.129   -60120.019 
  193343     1284.022   -267.58471   -60076.205   -63337.738   -60119.927 
  193836    1266.9517   -626.81298   -60251.433   -63469.606   -60353.614 
Loop time of 114.68 on 1 procs for 495 steps with 19652 atoms

Performance: 0.373 ns/day, 64.354 hours/ns, 4.316 timesteps/s
100.0% CPU use with 1 MPI tasks x no OpenMP threads

MPI task timing breakdown:
Section |  min time  |  avg time  |  max time  |%varavg| %total
---------------------------------------------------------------
Pair    | 68.11      | 68.11      | 68.11      |   0.0 | 59.39
Neigh   | 44.465     | 44.465     | 44.465     |   0.0 | 38.77
Comm    | 0.81459    | 0.81459    | 0.81459    |   0.0 |  0.71
Output  | 0.077007   | 0.077007   | 0.077007   |   0.0 |  0.07
Modify  | 0.96375    | 0.96375    | 0.96375    |   0.0 |  0.84
Other   |            | 0.2491     |            |       |  0.22

Nlocal:    19652 ave 19652 max 19652 min
Histogram: 1 0 0 0 0 0 0 0 0 0
Nghost:    20160 ave 20160 max 20160 min
Histogram: 1 0 0 0 0 0 0 0 0 0
Neighs:    1.87941e+06 ave 1.87941e+06 max 1.87941e+06 min
Histogram: 1 0 0 0 0 0 0 0 0 0

Total # of neighbors = 1879410
Ave neighs/atom = 95.6345
Neighbor list builds = 495
Dangerous builds not checked
Setting up Verlet run ...
  Unit style    : metal
  Current step  : 193836
  Time step     : 0.001
Per MPI rank memory allocation (min/avg/max) = 19.34 | 19.34 | 19.34 Mbytes
Step Temp Press TotEng PotEng Enthalpy 
  193836    1266.9517   -626.81298   -60251.433   -63469.606   -60353.614 
  200008    1259.2203     1505.159   -60369.186    -63567.72   -60124.861 
Loop time of 1282.61 on 1 procs for 6172 steps with 19652 atoms

Performance: 0.416 ns/day, 57.725 hours/ns, 4.812 timesteps/s
98.3% CPU use with 1 MPI tasks x no OpenMP threads

MPI task timing breakdown:
Section |  min time  |  avg time  |  max time  |%varavg| %total
---------------------------------------------------------------
Pair    | 731.67     | 731.67     | 731.67     |   0.0 | 57.05
Neigh   | 530.45     | 530.45     | 530.45     |   0.0 | 41.36
Comm    | 7.9413     | 7.9413     | 7.9413     |   0.0 |  0.62
Output  | 0.00017715 | 0.00017715 | 0.00017715 |   0.0 |  0.00
Modify  | 9.8845     | 9.8845     | 9.8845     |   0.0 |  0.77
Other   |            | 2.665      |            |       |  0.21

Nlocal:    19652 ave 19652 max 19652 min
Histogram: 1 0 0 0 0 0 0 0 0 0
Nghost:    20265 ave 20265 max 20265 min
Histogram: 1 0 0 0 0 0 0 0 0 0
Neighs:    1.88769e+06 ave 1.88769e+06 max 1.88769e+06 min
Histogram: 1 0 0 0 0 0 0 0 0 0

Total # of neighbors = 1887694
Ave neighs/atom = 96.0561
Neighbor list builds = 6172
Dangerous builds not checked
Setting up Verlet run ...
  Unit style    : metal
  Current step  : 200008
  Time step     : 0.001
Per MPI rank memory allocation (min/avg/max) = 19.34 | 19.34 | 19.34 Mbytes
Step Temp Press TotEng PotEng Enthalpy 
  200008    1259.2203     1505.159   -60369.186    -63567.72   -60124.861 
  200010    1258.5208    1541.9627   -60369.194   -63565.952   -60118.895 
  200503    1209.6196    -1.258011   -60571.923   -63644.467   -60572.127 
Loop time of 100.632 on 1 procs for 495 steps with 19652 atoms

Performance: 0.425 ns/day, 56.471 hours/ns, 4.919 timesteps/s
97.1% CPU use with 1 MPI tasks x no OpenMP threads

MPI task timing breakdown:
Section |  min time  |  avg time  |  max time  |%varavg| %total
---------------------------------------------------------------
Pair    | 57.412     | 57.412     | 57.412     |   0.0 | 57.05
Neigh   | 41.501     | 41.501     | 41.501     |   0.0 | 41.24
Comm    | 0.62009    | 0.62009    | 0.62009    |   0.0 |  0.62
Output  | 0.090513   | 0.090513   | 0.090513   |   0.0 |  0.09
Modify  | 0.80529    | 0.80529    | 0.80529    |   0.0 |  0.80
Other   |            | 0.2028     |            |       |  0.20

Nlocal:    19652 ave 19652 max 19652 min
Histogram: 1 0 0 0 0 0 0 0 0 0
Nghost:    20217 ave 20217 max 20217 min
Histogram: 1 0 0 0 0 0 0 0 0 0
Neighs:    1.88885e+06 ave 1.88885e+06 max 1.88885e+06 min
Histogram: 1 0 0 0 0 0 0 0 0 0

Total # of neighbors = 1888849
Ave neighs/atom = 96.1148
Neighbor list builds = 495
Dangerous builds not checked
Setting up Verlet run ...
  Unit style    : metal
  Current step  : 200503
  Time step     : 0.001
Per MPI rank memory allocation (min/avg/max) = 19.34 | 19.34 | 19.34 Mbytes
Step Temp Press TotEng PotEng Enthalpy 
  200503    1209.6196    -1.258011   -60571.923   -63644.467   -60572.127 
  206675    1201.2859    1392.0287   -60695.899   -63747.275   -60470.971 
Loop time of 1316.16 on 1 procs for 6172 steps with 19652 atoms

Performance: 0.405 ns/day, 59.235 hours/ns, 4.689 timesteps/s
97.6% CPU use with 1 MPI tasks x no OpenMP threads

MPI task timing breakdown:
Section |  min time  |  avg time  |  max time  |%varavg| %total
---------------------------------------------------------------
Pair    | 736.75     | 736.75     | 736.75     |   0.0 | 55.98
Neigh   | 559.09     | 559.09     | 559.09     |   0.0 | 42.48
Comm    | 7.8022     | 7.8022     | 7.8022     |   0.0 |  0.59
Output  | 0.00024605 | 0.00024605 | 0.00024605 |   0.0 |  0.00
Modify  | 9.8708     | 9.8708     | 9.8708     |   0.0 |  0.75
Other   |            | 2.641      |            |       |  0.20

Nlocal:    19652 ave 19652 max 19652 min
Histogram: 1 0 0 0 0 0 0 0 0 0
Nghost:    20287 ave 20287 max 20287 min
Histogram: 1 0 0 0 0 0 0 0 0 0
Neighs:    1.89587e+06 ave 1.89587e+06 max 1.89587e+06 min
Histogram: 1 0 0 0 0 0 0 0 0 0

Total # of neighbors = 1895869
Ave neighs/atom = 96.4721
Neighbor list builds = 6172
Dangerous builds not checked
Setting up Verlet run ...
  Unit style    : metal
  Current step  : 206675
  Time step     : 0.001
[...]

Performance: 0.410 ns/day, 58.479 hours/ns, 4.750 timesteps/s
96.8% CPU use with 1 MPI tasks x no OpenMP threads

MPI task timing breakdown:
Section |  min time  |  avg time  |  max time  |%varavg| %total
---------------------------------------------------------------
Pair    | 57.55      | 57.55      | 57.55      |   0.0 | 55.23
Neigh   | 45.027     | 45.027     | 45.027     |   0.0 | 43.21
Comm    | 0.60064    | 0.60064    | 0.60064    |   0.0 |  0.58
Output  | 0.083788   | 0.083788   | 0.083788   |   0.0 |  0.08
Modify  | 0.7461     | 0.7461     | 0.7461     |   0.0 |  0.72
Other   |            | 0.2016     |            |       |  0.19

Nlocal:    19652 ave 19652 max 19652 min
Histogram: 1 0 0 0 0 0 0 0 0 0
Nghost:    20905 ave 20905 max 20905 min
Histogram: 1 0 0 0 0 0 0 0 0 0
Neighs:    2.0341e+06 ave 2.0341e+06 max 2.0341e+06 min
Histogram: 1 0 0 0 0 0 0 0 0 0

Total # of neighbors = 2034096
Ave neighs/atom = 103.506
Neighbor list builds = 495
Dangerous builds not checked
Setting up Verlet run ...
  Unit style    : metal
  Current step  : 307175
  Time step     : 0.001
Per MPI rank memory allocation (min/avg/max) = 19.35 | 19.35 | 19.35 Mbytes
Step Temp Press TotEng PotEng Enthalpy 
  307175    423.11396    520.02624   -65943.098   -67017.846   -65864.937 
  313347    401.65126    1809.1142   -66074.016   -67094.247   -65802.806 
Loop time of 1240.81 on 1 procs for 6172 steps with 19652 atoms

Performance: 0.430 ns/day, 55.844 hours/ns, 4.974 timesteps/s
99.0% CPU use with 1 MPI tasks x no OpenMP threads

MPI task timing breakdown:
Section |  min time  |  avg time  |  max time  |%varavg| %total
---------------------------------------------------------------
Pair    | 683.3      | 683.3      | 683.3      |   0.0 | 55.07
Neigh   | 538.9      | 538.9      | 538.9      |   0.0 | 43.43
Comm    | 7.1668     | 7.1668     | 7.1668     |   0.0 |  0.58
Output  | 0.00016308 | 0.00016308 | 0.00016308 |   0.0 |  0.00
Modify  | 9.0214     | 9.0214     | 9.0214     |   0.0 |  0.73
Other   |            | 2.426      |            |       |  0.20

Nlocal:    19652 ave 19652 max 19652 min
Histogram: 1 0 0 0 0 0 0 0 0 0
Nghost:    20907 ave 20907 max 20907 min
Histogram: 1 0 0 0 0 0 0 0 0 0
Neighs:    2.0394e+06 ave 2.0394e+06 max 2.0394e+06 min
Histogram: 1 0 0 0 0 0 0 0 0 0

Total # of neighbors = 2039398
Ave neighs/atom = 103.776
Neighbor list builds = 6172
Dangerous builds not checked
Setting up Verlet run ...
  Unit style    : metal
  Current step  : 313347
  Time step     : 0.001
Per MPI rank memory allocation (min/avg/max) = 19.35 | 19.35 | 19.35 Mbytes
Step Temp Press TotEng PotEng Enthalpy 
  313347    401.65126    1809.1142   -66074.016   -67094.247   -65802.806 
  313349    401.65123    1812.1005   -66074.019    -67094.25   -65802.361 
  313842     371.5153   -682.68882   -66224.141   -67167.823    -66326.51 
Loop time of 102.883 on 1 procs for 495 steps with 19652 atoms

Performance: 0.416 ns/day, 57.735 hours/ns, 4.811 timesteps/s
98.8% CPU use with 1 MPI tasks x no OpenMP threads

MPI task timing breakdown:
Section |  min time  |  avg time  |  max time  |%varavg| %total
---------------------------------------------------------------
Pair    | 57.111     | 57.111     | 57.111     |   0.0 | 55.51
Neigh   | 44.121     | 44.121     | 44.121     |   0.0 | 42.88
Comm    | 0.60144    | 0.60144    | 0.60144    |   0.0 |  0.58
Output  | 0.080205   | 0.080205   | 0.080205   |   0.0 |  0.08
Modify  | 0.76866    | 0.76866    | 0.76866    |   0.0 |  0.75
Other   |            | 0.2017     |            |       |  0.20

Nlocal:    19652 ave 19652 max 19652 min
Histogram: 1 0 0 0 0 0 0 0 0 0
Nghost:    20869 ave 20869 max 20869 min
Histogram: 1 0 0 0 0 0 0 0 0 0
Neighs:    2.03885e+06 ave 2.03885e+06 max 2.03885e+06 min
Histogram: 1 0 0 0 0 0 0 0 0 0

Total # of neighbors = 2038849
Ave neighs/atom = 103.748
Neighbor list builds = 495
Dangerous builds not checked
Setting up Verlet run ...
  Unit style    : metal
  Current step  : 313842
  Time step     : 0.001
Per MPI rank memory allocation (min/avg/max) = 19.35 | 19.35 | 19.35 Mbytes
Step Temp Press TotEng PotEng Enthalpy 
  313842     371.5153   -682.68882   -66224.141   -67167.823    -66326.51 
  320014    350.09985   -131.36777   -66357.253   -67246.539   -66376.909 
Loop time of 1245.99 on 1 procs for 6172 steps with 19652 atoms

Performance: 0.428 ns/day, 56.077 hours/ns, 4.954 timesteps/s
98.9% CPU use with 1 MPI tasks x no OpenMP threads

MPI task timing breakdown:
Section |  min time  |  avg time  |  max time  |%varavg| %total
---------------------------------------------------------------
Pair    | 691.48     | 691.48     | 691.48     |   0.0 | 55.50
Neigh   | 535.34     | 535.34     | 535.34     |   0.0 | 42.96
Comm    | 7.5214     | 7.5214     | 7.5214     |   0.0 |  0.60
Output  | 0.00011492 | 0.00011492 | 0.00011492 |   0.0 |  0.00
Modify  | 9.1249     | 9.1249     | 9.1249     |   0.0 |  0.73
Other   |            | 2.523      |            |       |  0.20

Nlocal:    19652 ave 19652 max 19652 min
Histogram: 1 0 0 0 0 0 0 0 0 0
Nghost:    20991 ave 20991 max 20991 min
Histogram: 1 0 0 0 0 0 0 0 0 0
Neighs:    2.04381e+06 ave 2.04381e+06 max 2.04381e+06 min
Histogram: 1 0 0 0 0 0 0 0 0 0

Total # of neighbors = 2043810
Ave neighs/atom = 104
Neighbor list builds = 6172
Dangerous builds not checked
Setting up Verlet run ...
  Unit style    : metal
  Current step  : 320014
  Time step     : 0.001
Per MPI rank memory allocation (min/avg/max) = 19.35 | 19.35 | 19.35 Mbytes
Step Temp Press TotEng PotEng Enthalpy 
  320014    350.09985   -131.36777   -66357.253   -67246.539   -66376.909 
  320016    350.10945   -135.92486   -66357.253   -67246.563   -66377.591 
  320509    319.34991   -344.75589    -66501.46   -67312.638    -66552.98 
Loop time of 90.3771 on 1 procs for 495 steps with 19652 atoms

Performance: 0.473 ns/day, 50.717 hours/ns, 5.477 timesteps/s
98.7% CPU use with 1 MPI tasks x no OpenMP threads

MPI task timing breakdown:
Section |  min time  |  avg time  |  max time  |%varavg| %total
---------------------------------------------------------------
Pair    | 49.194     | 49.194     | 49.194     |   0.0 | 54.43
Neigh   | 39.453     | 39.453     | 39.453     |   0.0 | 43.65
Comm    | 0.5141     | 0.5141     | 0.5141     |   0.0 |  0.57
Output  | 0.392      | 0.392      | 0.392      |   0.0 |  0.43
Modify  | 0.64673    | 0.64673    | 0.64673    |   0.0 |  0.72
Other   |            | 0.177      |            |       |  0.20

Nlocal:    19652 ave 19652 max 19652 min
Histogram: 1 0 0 0 0 0 0 0 0 0
Nghost:    20946 ave 20946 max 20946 min
Histogram: 1 0 0 0 0 0 0 0 0 0
Neighs:    2.04674e+06 ave 2.04674e+06 max 2.04674e+06 min
Histogram: 1 0 0 0 0 0 0 0 0 0

Total # of neighbors = 2046736
Ave neighs/atom = 104.149
Neighbor list builds = 495
Dangerous builds not checked
Setting up Verlet run ...
  Unit style    : metal
  Current step  : 320509
  Time step     : 0.001
Per MPI rank memory allocation (min/avg/max) = 19.35 | 19.35 | 19.35 Mbytes
Step Temp Press TotEng PotEng Enthalpy 
  320509    319.34991   -344.75589    -66501.46   -67312.638    -66552.98 
  326681    300.34699    1277.4644   -66631.287   -67394.196   -66440.944 
Loop time of 1255.72 on 1 procs for 6172 steps with 19652 atoms

Performance: 0.425 ns/day, 56.515 hours/ns, 4.915 timesteps/s
99.2% CPU use with 1 MPI tasks x no OpenMP threads

MPI task timing breakdown:
Section |  min time  |  avg time  |  max time  |%varavg| %total
---------------------------------------------------------------
Pair    | 700.28     | 700.28     | 700.28     |   0.0 | 55.77
Neigh   | 535.73     | 535.73     | 535.73     |   0.0 | 42.66
Comm    | 7.7709     | 7.7709     | 7.7709     |   0.0 |  0.62
Output  | 0.00019908 | 0.00019908 | 0.00019908 |   0.0 |  0.00
Modify  | 9.2923     | 9.2923     | 9.2923     |   0.0 |  0.74
Other   |            | 2.643      |            |       |  0.21

Nlocal:    19652 ave 19652 max 19652 min
Histogram: 1 0 0 0 0 0 0 0 0 0
Nghost:    20997 ave 20997 max 20997 min
Histogram: 1 0 0 0 0 0 0 0 0 0
Neighs:    2.0533e+06 ave 2.0533e+06 max 2.0533e+06 min
Histogram: 1 0 0 0 0 0 0 0 0 0

Total # of neighbors = 2053304
Ave neighs/atom = 104.483
Neighbor list builds = 6172
Dangerous builds not checked
Setting up Verlet run ...
  Unit style    : metal
  Current step  : 326681
  Time step     : 0.001
Per MPI rank memory allocation (min/avg/max) = 19.35 | 19.35 | 19.35 Mbytes
Step Temp Press TotEng PotEng Enthalpy 
  326681    300.34699    1277.4644   -66631.287   -67394.196   -66440.944 
  326683    300.34751    1271.5156   -66631.288   -67394.198   -66441.831 
  327176    273.23127   -446.47156   -66770.227   -67464.259   -66836.731 
Loop time of 99.7113 on 1 procs for 495 steps with 19652 atoms

Performance: 0.429 ns/day, 55.955 hours/ns, 4.964 timesteps/s
98.9% CPU use with 1 MPI tasks x no OpenMP threads

MPI task timing breakdown:
Section |  min time  |  avg time  |  max time  |%varavg| %total
---------------------------------------------------------------
Pair    | 56.191     | 56.191     | 56.191     |   0.0 | 56.35
Neigh   | 41.859     | 41.859     | 41.859     |   0.0 | 41.98
Comm    | 0.6301     | 0.6301     | 0.6301     |   0.0 |  0.63
Output  | 0.064521   | 0.064521   | 0.064521   |   0.0 |  0.06
Modify  | 0.75627    | 0.75627    | 0.75627    |   0.0 |  0.76
Other   |            | 0.2095     |            |       |  0.21

Nlocal:    19652 ave 19652 max 19652 min
Histogram: 1 0 0 0 0 0 0 0 0 0
Nghost:    21049 ave 21049 max 21049 min
Histogram: 1 0 0 0 0 0 0 0 0 0
Neighs:    2.05411e+06 ave 2.05411e+06 max 2.05411e+06 min
Histogram: 1 0 0 0 0 0 0 0 0 0

Total # of neighbors = 2054112
Ave neighs/atom = 104.524
Neighbor list builds = 495
Dangerous builds not checked
Setting up Verlet run ...
  Unit style    : metal
  Current step  : 327176
  Time step     : 0.001
Per MPI rank memory allocation (min/avg/max) = 19.35 | 19.35 | 19.35 Mbytes
Step Temp Press TotEng PotEng Enthalpy 
  327176    273.23127   -446.47156   -66770.227   -67464.259   -66836.731 
  333348    248.91534    276.21531   -66898.282    -67530.55    -66857.22 
Loop time of 1290.99 on 1 procs for 6172 steps with 19652 atoms

Performance: 0.413 ns/day, 58.103 hours/ns, 4.781 timesteps/s
98.4% CPU use with 1 MPI tasks x no OpenMP threads

MPI task timing breakdown:
Section |  min time  |  avg time  |  max time  |%varavg| %total
---------------------------------------------------------------
Pair    | 725.15     | 725.15     | 725.15     |   0.0 | 56.17
Neigh   | 545.16     | 545.16     | 545.16     |   0.0 | 42.23
Comm    | 8.1537     | 8.1537     | 8.1537     |   0.0 |  0.63
Output  | 0.00020289 | 0.00020289 | 0.00020289 |   0.0 |  0.00
Modify  | 9.8507     | 9.8507     | 9.8507     |   0.0 |  0.76
Other   |            | 2.684      |            |       |  0.21

Nlocal:    19652 ave 19652 max 19652 min
Histogram: 1 0 0 0 0 0 0 0 0 0
Nghost:    20988 ave 20988 max 20988 min
Histogram: 1 0 0 0 0 0 0 0 0 0
Neighs:    2.0591e+06 ave 2.0591e+06 max 2.0591e+06 min
Histogram: 1 0 0 0 0 0 0 0 0 0

Total # of neighbors = 2059099
Ave neighs/atom = 104.778
Neighbor list builds = 6172
Dangerous builds not checked
Setting up Verlet run ...
  Unit style    : metal
  Current step  : 333348
  Time step     : 0.001
Per MPI rank memory allocation (min/avg/max) = 19.73 | 19.73 | 19.73 Mbytes
Step Temp Press TotEng PotEng Enthalpy 
  333348    248.91534    276.21531   -66898.282    -67530.55    -66857.22 
  333350    248.94259    272.96222   -66898.281   -67530.618   -66857.702 
  333843    225.93699    268.38775   -67031.402   -67605.302   -66991.566 
Loop time of 98.4832 on 1 procs for 495 steps with 19652 atoms

Performance: 0.434 ns/day, 55.266 hours/ns, 5.026 timesteps/s
99.9% CPU use with 1 MPI tasks x no OpenMP threads

MPI task timing breakdown:
Section |  min time  |  avg time  |  max time  |%varavg| %total
---------------------------------------------------------------
Pair    | 55.436     | 55.436     | 55.436     |   0.0 | 56.29
Neigh   | 41.383     | 41.383     | 41.383     |   0.0 | 42.02
Comm    | 0.6269     | 0.6269     | 0.6269     |   0.0 |  0.64
Output  | 0.082731   | 0.082731   | 0.082731   |   0.0 |  0.08
Modify  | 0.74627    | 0.74627    | 0.74627    |   0.0 |  0.76
Other   |            | 0.2087     |            |       |  0.21

Nlocal:    19652 ave 19652 max 19652 min
Histogram: 1 0 0 0 0 0 0 0 0 0
Nghost:    21033 ave 21033 max 21033 min
Histogram: 1 0 0 0 0 0 0 0 0 0
Neighs:    2.06303e+06 ave 2.06303e+06 max 2.06303e+06 min
Histogram: 1 0 0 0 0 0 0 0 0 0

Total # of neighbors = 2063031
Ave neighs/atom = 104.978
Neighbor list builds = 495
Dangerous builds not checked
Setting up Verlet run ...
  Unit style    : metal
  Current step  : 333843
  Time step     : 0.001
Per MPI rank memory allocation (min/avg/max) = 19.73 | 19.73 | 19.73 Mbytes
Step Temp Press TotEng PotEng Enthalpy 
  333843    225.93699    268.38775   -67031.402   -67605.302   -66991.566 
  340015    199.21315    357.61754   -67164.169   -67670.189   -67111.167 
Loop time of 1216.21 on 1 procs for 6172 steps with 19652 atoms

Performance: 0.438 ns/day, 54.737 hours/ns, 5.075 timesteps/s
98.6% CPU use with 1 MPI tasks x no OpenMP threads

MPI task timing breakdown:
Section |  min time  |  avg time  |  max time  |%varavg| %total
---------------------------------------------------------------
Pair    | 676.53     | 676.53     | 676.53     |   0.0 | 55.63
Neigh   | 521.08     | 521.08     | 521.08     |   0.0 | 42.84
Comm    | 7.2393     | 7.2393     | 7.2393     |   0.0 |  0.60
Output  | 0.000175   | 0.000175   | 0.000175   |   0.0 |  0.00
Modify  | 8.8566     | 8.8566     | 8.8566     |   0.0 |  0.73
Other   |            | 2.501      |            |       |  0.21

Nlocal:    19652 ave 19652 max 19652 min
Histogram: 1 0 0 0 0 0 0 0 0 0
Nghost:    21024 ave 21024 max 21024 min
Histogram: 1 0 0 0 0 0 0 0 0 0
Neighs:    2.06638e+06 ave 2.06638e+06 max 2.06638e+06 min
Histogram: 1 0 0 0 0 0 0 0 0 0

Total # of neighbors = 2066377
Ave neighs/atom = 105.148
Neighbor list builds = 6172
Dangerous builds not checked
Setting up Verlet run ...
  Unit style    : metal
  Current step  : 340015
  Time step     : 0.001
Per MPI rank memory allocation (min/avg/max) = 19.73 | 19.73 | 19.73 Mbytes
Step Temp Press TotEng PotEng Enthalpy 
  340015    199.21315    357.61754   -67164.169   -67670.189   -67111.167 
  340017    199.29971    352.71575   -67164.169   -67670.408   -67111.893 
  340510    175.29425   -297.78954     -67291.6   -67736.863   -67335.691 
Loop time of 93.3611 on 1 procs for 495 steps with 19652 atoms

Performance: 0.458 ns/day, 52.391 hours/ns, 5.302 timesteps/s
98.4% CPU use with 1 MPI tasks x no OpenMP threads

MPI task timing breakdown:
Section |  min time  |  avg time  |  max time  |%varavg| %total
---------------------------------------------------------------
Pair    | 51.481     | 51.481     | 51.481     |   0.0 | 55.14
Neigh   | 40.403     | 40.403     | 40.403     |   0.0 | 43.28
Comm    | 0.53938    | 0.53938    | 0.53938    |   0.0 |  0.58
Output  | 0.084777   | 0.084777   | 0.084777   |   0.0 |  0.09
Modify  | 0.67212    | 0.67212    | 0.67212    |   0.0 |  0.72
Other   |            | 0.1813     |            |       |  0.19

Nlocal:    19652 ave 19652 max 19652 min
Histogram: 1 0 0 0 0 0 0 0 0 0
Nghost:    21072 ave 21072 max 21072 min
Histogram: 1 0 0 0 0 0 0 0 0 0
Neighs:    2.0683e+06 ave 2.0683e+06 max 2.0683e+06 min
Histogram: 1 0 0 0 0 0 0 0 0 0

Total # of neighbors = 2068302
Ave neighs/atom = 105.246
Neighbor list builds = 495
Dangerous builds not checked
Setting up Verlet run ...
  Unit style    : metal
  Current step  : 340510
  Time step     : 0.001
Per MPI rank memory allocation (min/avg/max) = 19.73 | 19.73 | 19.73 Mbytes
Step Temp Press TotEng PotEng Enthalpy 
  340510    175.29425   -297.78954     -67291.6   -67736.863   -67335.691 
  346682    150.52403     504.6021   -67427.235    -67809.58   -67352.689 
Loop time of 1196.98 on 1 procs for 6172 steps with 19652 atoms

Performance: 0.446 ns/day, 53.871 hours/ns, 5.156 timesteps/s
98.6% CPU use with 1 MPI tasks x no OpenMP threads

MPI task timing breakdown:
Section |  min time  |  avg time  |  max time  |%varavg| %total
---------------------------------------------------------------
Pair    | 667.67     | 667.67     | 667.67     |   0.0 | 55.78
Neigh   | 510.96     | 510.96     | 510.96     |   0.0 | 42.69
Comm    | 7.1112     | 7.1112     | 7.1112     |   0.0 |  0.59
Output  | 0.00017786 | 0.00017786 | 0.00017786 |   0.0 |  0.00
Modify  | 8.8465     | 8.8465     | 8.8465     |   0.0 |  0.74
Other   |            | 2.389      |            |       |  0.20

Nlocal:    19652 ave 19652 max 19652 min
Histogram: 1 0 0 0 0 0 0 0 0 0
Nghost:    21073 ave 21073 max 21073 min
Histogram: 1 0 0 0 0 0 0 0 0 0
Neighs:    2.07358e+06 ave 2.07358e+06 max 2.07358e+06 min
Histogram: 1 0 0 0 0 0 0 0 0 0

Total # of neighbors = 2073581
Ave neighs/atom = 105.515
Neighbor list builds = 6172
Dangerous builds not checked
Setting up Verlet run ...
  Unit style    : metal
  Current step  : 346682
  Time step     : 0.001
Per MPI rank memory allocation (min/avg/max) = 19.73 | 19.73 | 19.73 Mbytes
Step Temp Press TotEng PotEng Enthalpy 
  346682    150.52403     504.6021   -67427.235    -67809.58   -67352.689 
  346684    150.61186    497.15913   -67427.236   -67809.804    -67353.79 
  347177    126.42799    304.03562   -67544.888   -67866.026   -67500.023 
Loop time of 98.885 on 1 procs for 495 steps with 19652 atoms

Performance: 0.433 ns/day, 55.491 hours/ns, 5.006 timesteps/s
99.2% CPU use with 1 MPI tasks x no OpenMP threads

MPI task timing breakdown:
Section |  min time  |  avg time  |  max time  |%varavg| %total
---------------------------------------------------------------
Pair    | 55.056     | 55.056     | 55.056     |   0.0 | 55.68
Neigh   | 42.264     | 42.264     | 42.264     |   0.0 | 42.74
Comm    | 0.58372    | 0.58372    | 0.58372    |   0.0 |  0.59
Output  | 0.077627   | 0.077627   | 0.077627   |   0.0 |  0.08
Modify  | 0.7052     | 0.7052     | 0.7052     |   0.0 |  0.71
Other   |            | 0.1985     |            |       |  0.20

Nlocal:    19652 ave 19652 max 19652 min
Histogram: 1 0 0 0 0 0 0 0 0 0
Nghost:    21062 ave 21062 max 21062 min
Histogram: 1 0 0 0 0 0 0 0 0 0
Neighs:    2.0762e+06 ave 2.0762e+06 max 2.0762e+06 min
Histogram: 1 0 0 0 0 0 0 0 0 0

Total # of neighbors = 2076204
Ave neighs/atom = 105.648
Neighbor list builds = 495
Dangerous builds not checked
Setting up Verlet run ...
  Unit style    : metal
  Current step  : 347177
  Time step     : 0.001
Per MPI rank memory allocation (min/avg/max) = 19.73 | 19.73 | 19.73 Mbytes
Step Temp Press TotEng PotEng Enthalpy 
  347177    126.42799    304.03562   -67544.888   -67866.026   -67500.023 
  353349    99.619171    -2.455051    -67686.65   -67939.691   -67687.011 
Loop time of 1256.94 on 1 procs for 6172 steps with 19652 atoms

Performance: 0.424 ns/day, 56.570 hours/ns, 4.910 timesteps/s
98.2% CPU use with 1 MPI tasks x no OpenMP threads

MPI task timing breakdown:
Section |  min time  |  avg time  |  max time  |%varavg| %total
---------------------------------------------------------------
Pair    | 705.31     | 705.31     | 705.31     |   0.0 | 56.11
Neigh   | 531.64     | 531.64     | 531.64     |   0.0 | 42.30
Comm    | 7.8763     | 7.8763     | 7.8763     |   0.0 |  0.63
Output  | 0.00017285 | 0.00017285 | 0.00017285 |   0.0 |  0.00
Modify  | 9.4704     | 9.4704     | 9.4704     |   0.0 |  0.75
Other   |            | 2.641      |            |       |  0.21

Nlocal:    19652 ave 19652 max 19652 min
Histogram: 1 0 0 0 0 0 0 0 0 0
Nghost:    21096 ave 21096 max 21096 min
Histogram: 1 0 0 0 0 0 0 0 0 0
Neighs:    2.08e+06 ave 2.08e+06 max 2.08e+06 min
Histogram: 1 0 0 0 0 0 0 0 0 0

Total # of neighbors = 2080003
Ave neighs/atom = 105.842
Neighbor list builds = 6172
Dangerous builds not checked
Total wall time: 20:34:43
