LAMMPS (12 Dec 2018)
Lattice spacing in x,y,z = 4 4 4
Created orthogonal box = (0 0 0) to (68 68 68)
  1 by 1 by 1 MPI processor grid
Created 19652 atoms
  Time spent = 0.003793 secs
Setting atom values ...
  19652 settings made for type/fraction
Neighbor list info ...
  update every 1 steps, delay 0 steps, check no
  max neighbors/atom: 2000, page size: 100000
  master list distance cutoff = 8.5
  ghost atom cutoff = 8.5
  binsize = 4.25, bins = 16 16 16
  1 neighbor lists, perpetual/occasional/extra = 1 0 0
  (1) pair eam/alloy, perpetual
      attributes: half, newton on
      pair build: half/bin/atomonly/newton
      stencil: half/bin/3d/newton
      bin: standard
Setting up Verlet run ...
  Unit style    : metal
  Current step  : 0
  Time step     : 0.001
Per MPI rank memory allocation (min/avg/max) = 18.19 | 18.19 | 18.19 Mbytes
Step Temp Press TotEng PotEng Enthalpy 
       0          300    646743.88   -38638.853    -39400.88    88286.597 
    1000    917.40209    639351.52   -38639.076   -40969.361    86835.599 
Loop time of 168.931 on 1 procs for 1000 steps with 19652 atoms

Performance: 0.511 ns/day, 46.925 hours/ns, 5.920 timesteps/s
89.4% CPU use with 1 MPI tasks x no OpenMP threads

MPI task timing breakdown:
Section |  min time  |  avg time  |  max time  |%varavg| %total
---------------------------------------------------------------
Pair    | 94.843     | 94.843     | 94.843     |   0.0 | 56.14
Neigh   | 70.245     | 70.245     | 70.245     |   0.0 | 41.58
Comm    | 2.017      | 2.017      | 2.017      |   0.0 |  1.19
Output  | 0.00019097 | 0.00019097 | 0.00019097 |   0.0 |  0.00
Modify  | 0.94565    | 0.94565    | 0.94565    |   0.0 |  0.56
Other   |            | 0.8803     |            |       |  0.52

Nlocal:    19652 ave 19652 max 19652 min
Histogram: 1 0 0 0 0 0 0 0 0 0
Nghost:    18777 ave 18777 max 18777 min
Histogram: 1 0 0 0 0 0 0 0 0 0
Neighs:    1.58309e+06 ave 1.58309e+06 max 1.58309e+06 min
Histogram: 1 0 0 0 0 0 0 0 0 0

Total # of neighbors = 1583091
Ave neighs/atom = 80.5562
Neighbor list builds = 1000
Dangerous builds not checked
Setting up Verlet run ...
  Unit style    : metal
  Current step  : 1000
  Time step     : 0.001
Per MPI rank memory allocation (min/avg/max) = 18.19 | 18.19 | 18.19 Mbytes
Step Temp Press TotEng PotEng Enthalpy 
    1000    917.40209    639351.52   -38639.076   -40969.361    86835.599 
    2000    350.22492   -92.396031   -81659.559   -82549.162   -81697.097 
Loop time of 116.877 on 1 procs for 1000 steps with 19652 atoms

Performance: 0.739 ns/day, 32.466 hours/ns, 8.556 timesteps/s
88.8% CPU use with 1 MPI tasks x no OpenMP threads

MPI task timing breakdown:
Section |  min time  |  avg time  |  max time  |%varavg| %total
---------------------------------------------------------------
Pair    | 61.599     | 61.599     | 61.599     |   0.0 | 52.70
Neigh   | 50.773     | 50.773     | 50.773     |   0.0 | 43.44
Comm    | 1.4277     | 1.4277     | 1.4277     |   0.0 |  1.22
Output  | 0.063085   | 0.063085   | 0.063085   |   0.0 |  0.05
Modify  | 2.1991     | 2.1991     | 2.1991     |   0.0 |  1.88
Other   |            | 0.8151     |            |       |  0.70

Nlocal:    19652 ave 19652 max 19652 min
Histogram: 1 0 0 0 0 0 0 0 0 0
Nghost:    13996 ave 13996 max 13996 min
Histogram: 1 0 0 0 0 0 0 0 0 0
Neighs:    719975 ave 719975 max 719975 min
Histogram: 1 0 0 0 0 0 0 0 0 0

Total # of neighbors = 719975
Ave neighs/atom = 36.6362
Neighbor list builds = 1000
Dangerous builds not checked
Setting up Verlet run ...
  Unit style    : metal
  Current step  : 2000
  Time step     : 0.001
Per MPI rank memory allocation (min/avg/max) = 18.2 | 18.2 | 18.2 Mbytes
Step Temp Press TotEng PotEng Enthalpy 
    2000    350.22492   -92.396031   -81659.559   -82549.162   -81697.097 
    4000    800.10632    581.42728   -79803.824   -81836.167   -79565.179 
    6000    1363.0443   -191.28271   -76598.095   -80060.351   -76678.341 
    8000    1913.0968    516.97205   -72962.462   -77821.902   -72740.551 
   10000     2470.231    1300.2308   -69546.264   -75820.876   -68976.133 
Loop time of 712.636 on 1 procs for 8000 steps with 19652 atoms

Performance: 0.970 ns/day, 24.744 hours/ns, 11.226 timesteps/s
95.1% CPU use with 1 MPI tasks x no OpenMP threads

MPI task timing breakdown:
Section |  min time  |  avg time  |  max time  |%varavg| %total
---------------------------------------------------------------
Pair    | 358.49     | 358.49     | 358.49     |   0.0 | 50.30
Neigh   | 323.11     | 323.11     | 323.11     |   0.0 | 45.34
Comm    | 9.8159     | 9.8159     | 9.8159     |   0.0 |  1.38
Output  | 0.1693     | 0.1693     | 0.1693     |   0.0 |  0.02
Modify  | 15.361     | 15.361     | 15.361     |   0.0 |  2.16
Other   |            | 5.693      |            |       |  0.80

Nlocal:    19652 ave 19652 max 19652 min
Histogram: 1 0 0 0 0 0 0 0 0 0
Nghost:    13640 ave 13640 max 13640 min
Histogram: 1 0 0 0 0 0 0 0 0 0
Neighs:    686544 ave 686544 max 686544 min
Histogram: 1 0 0 0 0 0 0 0 0 0

Total # of neighbors = 686544
Ave neighs/atom = 34.9351
Neighbor list builds = 8000
Dangerous builds not checked
Setting up Verlet run ...
  Unit style    : metal
  Current step  : 10000
  Time step     : 0.001
Per MPI rank memory allocation (min/avg/max) = 18.2 | 18.2 | 18.2 Mbytes
Step Temp Press TotEng PotEng Enthalpy 
   10000     2470.231    1300.2308   -69546.264   -75820.876   -68976.133 
   12000     2436.637   -364.47499   -69379.778   -75569.058   -69540.677 
   14000    2510.7664    181.74696   -69215.801   -75593.376   -69135.603 
   16000    2459.8271    966.98693   -69457.714   -75705.899    -69032.89 
   18000    2423.7011    29.260916   -69464.138    -75620.56   -69451.241 
   20000    2460.5467    190.68244   -69408.127    -75658.14   -69324.083 
   22000    2428.5376    474.98176   -69459.262   -75627.969   -69250.107 
   24000     2439.954    -588.0655   -69424.142   -75621.847   -69683.974 
   26000    2451.2131   -247.52406   -69372.084   -75598.389   -69481.399 
   28000    2482.6884     435.3547   -69308.541   -75614.795    -69116.88 
   30000    2428.1071   -6.8819614   -69528.632   -75696.246   -69531.664 
   32000    2472.4406   -64.282231    -69338.59   -75618.815   -69366.962 
   34000     2469.318     874.7419   -69384.861   -75657.154   -69000.349 
   36000    2440.8656    934.87328     -69456.4   -75656.421   -69045.333 
   38000    2455.7115    191.21136   -69397.037   -75634.768   -69312.741 
   40000    2451.4429   -176.12026   -69415.667   -75642.555   -69493.409 
Loop time of 2537.83 on 1 procs for 30000 steps with 19652 atoms

Performance: 1.021 ns/day, 23.498 hours/ns, 11.821 timesteps/s
99.5% CPU use with 1 MPI tasks x no OpenMP threads

MPI task timing breakdown:
Section |  min time  |  avg time  |  max time  |%varavg| %total
---------------------------------------------------------------
Pair    | 1237.8     | 1237.8     | 1237.8     |   0.0 | 48.77
Neigh   | 1180.6     | 1180.6     | 1180.6     |   0.0 | 46.52
Comm    | 37.302     | 37.302     | 37.302     |   0.0 |  1.47
Output  | 0.65354    | 0.65354    | 0.65354    |   0.0 |  0.03
Modify  | 60.016     | 60.016     | 60.016     |   0.0 |  2.36
Other   |            | 21.52      |            |       |  0.85

Nlocal:    19652 ave 19652 max 19652 min
Histogram: 1 0 0 0 0 0 0 0 0 0
Nghost:    13530 ave 13530 max 13530 min
Histogram: 1 0 0 0 0 0 0 0 0 0
Neighs:    682762 ave 682762 max 682762 min
Histogram: 1 0 0 0 0 0 0 0 0 0

Total # of neighbors = 682762
Ave neighs/atom = 34.7426
Neighbor list builds = 30000
Dangerous builds not checked
Setting up Verlet run ...
  Unit style    : metal
  Current step  : 40000
  Time step     : 0.001
Per MPI rank memory allocation (min/avg/max) = 18.2 | 18.2 | 18.2 Mbytes
Step Temp Press TotEng PotEng Enthalpy 
   40000    2451.4429   -176.12026   -69415.667   -75642.555   -69493.409 
   40495    2407.2877    -63.41426   -69573.282   -75688.012   -69601.247 
Loop time of 49.1312 on 1 procs for 495 steps with 19652 atoms

Performance: 0.870 ns/day, 27.571 hours/ns, 10.075 timesteps/s
97.5% CPU use with 1 MPI tasks x no OpenMP threads

MPI task timing breakdown:
Section |  min time  |  avg time  |  max time  |%varavg| %total
---------------------------------------------------------------
Pair    | 24.539     | 24.539     | 24.539     |   0.0 | 49.95
Neigh   | 21.234     | 21.234     | 21.234     |   0.0 | 43.22
Comm    | 0.96912    | 0.96912    | 0.96912    |   0.0 |  1.97
Output  | 0.00026608 | 0.00026608 | 0.00026608 |   0.0 |  0.00
Modify  | 1.8001     | 1.8001     | 1.8001     |   0.0 |  3.66
Other   |            | 0.5888     |            |       |  1.20

Nlocal:    19652 ave 19652 max 19652 min
Histogram: 1 0 0 0 0 0 0 0 0 0
Nghost:    13529 ave 13529 max 13529 min
Histogram: 1 0 0 0 0 0 0 0 0 0
Neighs:    683433 ave 683433 max 683433 min
Histogram: 1 0 0 0 0 0 0 0 0 0

Total # of neighbors = 683433
Ave neighs/atom = 34.7768
Neighbor list builds = 495
Dangerous builds not checked
Setting up Verlet run ...
  Unit style    : metal
  Current step  : 40495
  Time step     : 0.001
Per MPI rank memory allocation (min/avg/max) = 18.2 | 18.2 | 18.2 Mbytes
Step Temp Press TotEng PotEng Enthalpy 
   40495    2407.2877    -63.41426   -69573.282   -75688.012   -69601.247 
   42000    2406.6546   -858.17614   -69694.212   -75807.334   -70073.331 
Loop time of 123.161 on 1 procs for 1505 steps with 19652 atoms

Performance: 1.056 ns/day, 22.732 hours/ns, 12.220 timesteps/s
98.8% CPU use with 1 MPI tasks x no OpenMP threads

MPI task timing breakdown:
Section |  min time  |  avg time  |  max time  |%varavg| %total
---------------------------------------------------------------
Pair    | 59.64      | 59.64      | 59.64      |   0.0 | 48.42
Neigh   | 57.549     | 57.549     | 57.549     |   0.0 | 46.73
Comm    | 1.8004     | 1.8004     | 1.8004     |   0.0 |  1.46
Output  | 0.040272   | 0.040272   | 0.040272   |   0.0 |  0.03
Modify  | 3.071      | 3.071      | 3.071      |   0.0 |  2.49
Other   |            | 1.061      |            |       |  0.86

Nlocal:    19652 ave 19652 max 19652 min
Histogram: 1 0 0 0 0 0 0 0 0 0
Nghost:    13505 ave 13505 max 13505 min
Histogram: 1 0 0 0 0 0 0 0 0 0
Neighs:    681487 ave 681487 max 681487 min
Histogram: 1 0 0 0 0 0 0 0 0 0

Total # of neighbors = 681487
Ave neighs/atom = 34.6777
Neighbor list builds = 1505
Dangerous builds not checked
Setting up Verlet run ...
  Unit style    : metal
  Current step  : 42000
  Time step     : 0.001
Per MPI rank memory allocation (min/avg/max) = 18.2 | 18.2 | 18.2 Mbytes
Step Temp Press TotEng PotEng Enthalpy 
   42000    2406.6546   -858.17614   -69694.212   -75807.334   -70073.331 
   42495    2362.5721   -335.30353    -69945.28   -75946.428   -70092.704 
Loop time of 36.1811 on 1 procs for 495 steps with 19652 atoms

Performance: 1.182 ns/day, 20.304 hours/ns, 13.681 timesteps/s
99.9% CPU use with 1 MPI tasks x no OpenMP threads

MPI task timing breakdown:
Section |  min time  |  avg time  |  max time  |%varavg| %total
---------------------------------------------------------------
Pair    | 17.204     | 17.204     | 17.204     |   0.0 | 47.55
Neigh   | 17.594     | 17.594     | 17.594     |   0.0 | 48.63
Comm    | 0.43499    | 0.43499    | 0.43499    |   0.0 |  1.20
Output  | 0.000283   | 0.000283   | 0.000283   |   0.0 |  0.00
Modify  | 0.71087    | 0.71087    | 0.71087    |   0.0 |  1.96
Other   |            | 0.2374     |            |       |  0.66

Nlocal:    19652 ave 19652 max 19652 min
Histogram: 1 0 0 0 0 0 0 0 0 0
Nghost:    13508 ave 13508 max 13508 min
Histogram: 1 0 0 0 0 0 0 0 0 0
Neighs:    684858 ave 684858 max 684858 min
Histogram: 1 0 0 0 0 0 0 0 0 0

Total # of neighbors = 684858
Ave neighs/atom = 34.8493
Neighbor list builds = 495
Dangerous builds not checked
Setting up Verlet run ...
  Unit style    : metal
  Current step  : 42495
  Time step     : 0.001
Per MPI rank memory allocation (min/avg/max) = 18.2 | 18.2 | 18.2 Mbytes
Step Temp Press TotEng PotEng Enthalpy 
   42495    2362.5721   -335.30353    -69945.28   -75946.428   -70092.704 
   44000    2353.7418   -64.198437    -70019.98   -75998.699    -70048.17 
Loop time of 118.678 on 1 procs for 1505 steps with 19652 atoms

Performance: 1.096 ns/day, 21.904 hours/ns, 12.681 timesteps/s
99.1% CPU use with 1 MPI tasks x no OpenMP threads

MPI task timing breakdown:
Section |  min time  |  avg time  |  max time  |%varavg| %total
---------------------------------------------------------------
Pair    | 57.11      | 57.11      | 57.11      |   0.0 | 48.12
Neigh   | 56.557     | 56.557     | 56.557     |   0.0 | 47.66
Comm    | 1.5744     | 1.5744     | 1.5744     |   0.0 |  1.33
Output  | 0.042234   | 0.042234   | 0.042234   |   0.0 |  0.04
Modify  | 2.5491     | 2.5491     | 2.5491     |   0.0 |  2.15
Other   |            | 0.8445     |            |       |  0.71

Nlocal:    19652 ave 19652 max 19652 min
Histogram: 1 0 0 0 0 0 0 0 0 0
Nghost:    13545 ave 13545 max 13545 min
Histogram: 1 0 0 0 0 0 0 0 0 0
Neighs:    685727 ave 685727 max 685727 min
Histogram: 1 0 0 0 0 0 0 0 0 0

Total # of neighbors = 685727
Ave neighs/atom = 34.8935
Neighbor list builds = 1505
Dangerous builds not checked
Setting up Verlet run ...
  Unit style    : metal
  Current step  : 44000
  Time step     : 0.001
Per MPI rank memory allocation (min/avg/max) = 18.2 | 18.2 | 18.2 Mbytes
Step Temp Press TotEng PotEng Enthalpy 
   44000    2353.7418   -64.198437    -70019.98   -75998.699    -70048.17 
   44495    2320.1364    251.60467    -70212.82   -76106.178   -70102.504 
Loop time of 41.5949 on 1 procs for 495 steps with 19652 atoms

Performance: 1.028 ns/day, 23.342 hours/ns, 11.901 timesteps/s
99.6% CPU use with 1 MPI tasks x no OpenMP threads

MPI task timing breakdown:
Section |  min time  |  avg time  |  max time  |%varavg| %total
---------------------------------------------------------------
Pair    | 20.636     | 20.636     | 20.636     |   0.0 | 49.61
Neigh   | 19.01      | 19.01      | 19.01      |   0.0 | 45.70
Comm    | 0.64489    | 0.64489    | 0.64489    |   0.0 |  1.55
Output  | 0.00036407 | 0.00036407 | 0.00036407 |   0.0 |  0.00
Modify  | 0.98311    | 0.98311    | 0.98311    |   0.0 |  2.36
Other   |            | 0.32       |            |       |  0.77

Nlocal:    19652 ave 19652 max 19652 min
Histogram: 1 0 0 0 0 0 0 0 0 0
Nghost:    13621 ave 13621 max 13621 min
Histogram: 1 0 0 0 0 0 0 0 0 0
Neighs:    686005 ave 686005 max 686005 min
Histogram: 1 0 0 0 0 0 0 0 0 0

Total # of neighbors = 686005
Ave neighs/atom = 34.9076
Neighbor list builds = 495
Dangerous builds not checked
Setting up Verlet run ...
  Unit style    : metal
  Current step  : 44495
  Time step     : 0.001
Per MPI rank memory allocation (min/avg/max) = 18.2 | 18.2 | 18.2 Mbytes
Step Temp Press TotEng PotEng Enthalpy 
   44495    2320.1364    251.60467    -70212.82   -76106.178   -70102.504 
   46000    2313.6388   -791.57367   -70206.321   -76083.175   -70554.174 
Loop time of 118.587 on 1 procs for 1505 steps with 19652 atoms

Performance: 1.097 ns/day, 21.888 hours/ns, 12.691 timesteps/s
99.4% CPU use with 1 MPI tasks x no OpenMP threads

MPI task timing breakdown:
Section |  min time  |  avg time  |  max time  |%varavg| %total
---------------------------------------------------------------
Pair    | 57.408     | 57.408     | 57.408     |   0.0 | 48.41
Neigh   | 56.147     | 56.147     | 56.147     |   0.0 | 47.35
Comm    | 1.6086     | 1.6086     | 1.6086     |   0.0 |  1.36
Output  | 0.041044   | 0.041044   | 0.041044   |   0.0 |  0.03
Modify  | 2.5249     | 2.5249     | 2.5249     |   0.0 |  2.13
Other   |            | 0.8573     |            |       |  0.72

Nlocal:    19652 ave 19652 max 19652 min
Histogram: 1 0 0 0 0 0 0 0 0 0
Nghost:    13567 ave 13567 max 13567 min
Histogram: 1 0 0 0 0 0 0 0 0 0
Neighs:    685254 ave 685254 max 685254 min
Histogram: 1 0 0 0 0 0 0 0 0 0

Total # of neighbors = 685254
Ave neighs/atom = 34.8694
Neighbor list builds = 1505
Dangerous builds not checked
Setting up Verlet run ...
  Unit style    : metal
  Current step  : 46000
  Time step     : 0.001
Per MPI rank memory allocation (min/avg/max) = 18.2 | 18.2 | 18.2 Mbytes
Step Temp Press TotEng PotEng Enthalpy 
   46000    2313.6388   -791.57367   -70206.321   -76083.175   -70554.174 
   46495    2262.3995   -262.19794   -70522.778   -76269.479   -70637.642 
Loop time of 37.5056 on 1 procs for 495 steps with 19652 atoms

Performance: 1.140 ns/day, 21.047 hours/ns, 13.198 timesteps/s
99.3% CPU use with 1 MPI tasks x no OpenMP threads

MPI task timing breakdown:
Section |  min time  |  avg time  |  max time  |%varavg| %total
---------------------------------------------------------------
Pair    | 17.995     | 17.995     | 17.995     |   0.0 | 47.98
Neigh   | 18.001     | 18.001     | 18.001     |   0.0 | 47.99
Comm    | 0.47834    | 0.47834    | 0.47834    |   0.0 |  1.28
Output  | 0.00030899 | 0.00030899 | 0.00030899 |   0.0 |  0.00
Modify  | 0.76643    | 0.76643    | 0.76643    |   0.0 |  2.04
Other   |            | 0.2648     |            |       |  0.71

Nlocal:    19652 ave 19652 max 19652 min
Histogram: 1 0 0 0 0 0 0 0 0 0
Nghost:    13556 ave 13556 max 13556 min
Histogram: 1 0 0 0 0 0 0 0 0 0
Neighs:    686258 ave 686258 max 686258 min
Histogram: 1 0 0 0 0 0 0 0 0 0

Total # of neighbors = 686258
Ave neighs/atom = 34.9205
Neighbor list builds = 495
Dangerous builds not checked
Setting up Verlet run ...
  Unit style    : metal
  Current step  : 46495
  Time step     : 0.001
Per MPI rank memory allocation (min/avg/max) = 18.2 | 18.2 | 18.2 Mbytes
Step Temp Press TotEng PotEng Enthalpy 
   46495    2262.3995   -262.19794   -70522.778   -76269.479   -70637.642 
   48000    2266.8041    229.29701   -70556.827   -76314.715   -70456.577 
Loop time of 122.182 on 1 procs for 1505 steps with 19652 atoms

Performance: 1.064 ns/day, 22.551 hours/ns, 12.318 timesteps/s
99.8% CPU use with 1 MPI tasks x no OpenMP threads

MPI task timing breakdown:
Section |  min time  |  avg time  |  max time  |%varavg| %total
---------------------------------------------------------------
Pair    | 59.386     | 59.386     | 59.386     |   0.0 | 48.60
Neigh   | 57.284     | 57.284     | 57.284     |   0.0 | 46.88
Comm    | 1.7211     | 1.7211     | 1.7211     |   0.0 |  1.41
Output  | 0.039397   | 0.039397   | 0.039397   |   0.0 |  0.03
Modify  | 2.7974     | 2.7974     | 2.7974     |   0.0 |  2.29
Other   |            | 0.9538     |            |       |  0.78

Nlocal:    19652 ave 19652 max 19652 min
Histogram: 1 0 0 0 0 0 0 0 0 0
Nghost:    13596 ave 13596 max 13596 min
Histogram: 1 0 0 0 0 0 0 0 0 0
Neighs:    687917 ave 687917 max 687917 min
Histogram: 1 0 0 0 0 0 0 0 0 0

Total # of neighbors = 687917
Ave neighs/atom = 35.0049
Neighbor list builds = 1505
Dangerous builds not checked
Setting up Verlet run ...
  Unit style    : metal
  Current step  : 48000
  Time step     : 0.001
Per MPI rank memory allocation (min/avg/max) = 18.2 | 18.2 | 18.2 Mbytes
Step Temp Press TotEng PotEng Enthalpy 
   48000    2266.8041    229.29701   -70556.827   -76314.715   -70456.577 
   48495    2208.4991    234.46761   -70805.518   -76415.307   -70703.176 
Loop time of 39.5824 on 1 procs for 495 steps with 19652 atoms

Performance: 1.080 ns/day, 22.212 hours/ns, 12.506 timesteps/s
99.7% CPU use with 1 MPI tasks x no OpenMP threads

MPI task timing breakdown:
Section |  min time  |  avg time  |  max time  |%varavg| %total
---------------------------------------------------------------
Pair    | 19.148     | 19.148     | 19.148     |   0.0 | 48.37
Neigh   | 18.556     | 18.556     | 18.556     |   0.0 | 46.88
Comm    | 0.56742    | 0.56742    | 0.56742    |   0.0 |  1.43
Output  | 0.00027204 | 0.00027204 | 0.00027204 |   0.0 |  0.00
Modify  | 0.98998    | 0.98998    | 0.98998    |   0.0 |  2.50
Other   |            | 0.3209     |            |       |  0.81

Nlocal:    19652 ave 19652 max 19652 min
Histogram: 1 0 0 0 0 0 0 0 0 0
Nghost:    13636 ave 13636 max 13636 min
Histogram: 1 0 0 0 0 0 0 0 0 0
Neighs:    688794 ave 688794 max 688794 min
Histogram: 1 0 0 0 0 0 0 0 0 0

Total # of neighbors = 688794
Ave neighs/atom = 35.0496
Neighbor list builds = 495
Dangerous builds not checked
Setting up Verlet run ...
  Unit style    : metal
  Current step  : 48495
  Time step     : 0.001
Per MPI rank memory allocation (min/avg/max) = 18.2 | 18.2 | 18.2 Mbytes
Step Temp Press TotEng PotEng Enthalpy 
   48495    2208.4991    234.46761   -70805.518   -76415.307   -70703.176 
   50000    2213.9704   -633.56564   -70837.637   -76461.324   -71114.902 
Loop time of 143.798 on 1 procs for 1505 steps with 19652 atoms

Performance: 0.904 ns/day, 26.541 hours/ns, 10.466 timesteps/s
99.7% CPU use with 1 MPI tasks x no OpenMP threads

MPI task timing breakdown:
Section |  min time  |  avg time  |  max time  |%varavg| %total
---------------------------------------------------------------
Pair    | 71.868     | 71.868     | 71.868     |   0.0 | 49.98
Neigh   | 62.614     | 62.614     | 62.614     |   0.0 | 43.54
Comm    | 2.6986     | 2.6986     | 2.6986     |   0.0 |  1.88
Output  | 0.040354   | 0.040354   | 0.040354   |   0.0 |  0.03
Modify  | 4.9523     | 4.9523     | 4.9523     |   0.0 |  3.44
Other   |            | 1.624      |            |       |  1.13

Nlocal:    19652 ave 19652 max 19652 min
Histogram: 1 0 0 0 0 0 0 0 0 0
Nghost:    13513 ave 13513 max 13513 min
Histogram: 1 0 0 0 0 0 0 0 0 0
Neighs:    686959 ave 686959 max 686959 min
Histogram: 1 0 0 0 0 0 0 0 0 0

Total # of neighbors = 686959
Ave neighs/atom = 34.9562
Neighbor list builds = 1505
Dangerous builds not checked
Setting up Verlet run ...
  Unit style    : metal
  Current step  : 50000
  Time step     : 0.001
Per MPI rank memory allocation (min/avg/max) = 18.2 | 18.2 | 18.2 Mbytes
Step Temp Press TotEng PotEng Enthalpy 
   50000    2213.9704   -633.56564   -70837.637   -76461.324   -71114.902 
   50495    2153.3817   -395.27369    -71138.08   -76607.866   -71310.485 
Loop time of 36.556 on 1 procs for 495 steps with 19652 atoms

Performance: 1.170 ns/day, 20.514 hours/ns, 13.541 timesteps/s
99.6% CPU use with 1 MPI tasks x no OpenMP threads

MPI task timing breakdown:
Section |  min time  |  avg time  |  max time  |%varavg| %total
---------------------------------------------------------------
Pair    | 17.466     | 17.466     | 17.466     |   0.0 | 47.78
Neigh   | 17.709     | 17.709     | 17.709     |   0.0 | 48.44
Comm    | 0.4353     | 0.4353     | 0.4353     |   0.0 |  1.19
Output  | 0.00020814 | 0.00020814 | 0.00020814 |   0.0 |  0.00
Modify  | 0.70955    | 0.70955    | 0.70955    |   0.0 |  1.94
Other   |            | 0.2365     |            |       |  0.65

Nlocal:    19652 ave 19652 max 19652 min
Histogram: 1 0 0 0 0 0 0 0 0 0
Nghost:    13622 ave 13622 max 13622 min
Histogram: 1 0 0 0 0 0 0 0 0 0
Neighs:    689049 ave 689049 max 689049 min
Histogram: 1 0 0 0 0 0 0 0 0 0

Total # of neighbors = 689049
Ave neighs/atom = 35.0625
Neighbor list builds = 495
Dangerous builds not checked
Setting up Verlet run ...
  Unit style    : metal
  Current step  : 50495
  Time step     : 0.001
Per MPI rank memory allocation (min/avg/max) = 18.2 | 18.2 | 18.2 Mbytes
Step Temp Press TotEng PotEng Enthalpy 
   50495    2153.3817   -395.27369    -71138.08   -76607.866   -71310.485 
   52000    2159.1554   -69.058797   -71157.328    -76641.78   -71187.404 
Loop time of 134.253 on 1 procs for 1505 steps with 19652 atoms

Performance: 0.969 ns/day, 24.779 hours/ns, 11.210 timesteps/s
98.9% CPU use with 1 MPI tasks x no OpenMP threads

MPI task timing breakdown:
Section |  min time  |  avg time  |  max time  |%varavg| %total
---------------------------------------------------------------
Pair    | 66.588     | 66.588     | 66.588     |   0.0 | 49.60
Neigh   | 60.363     | 60.363     | 60.363     |   0.0 | 44.96
Comm    | 2.2144     | 2.2144     | 2.2144     |   0.0 |  1.65
Output  | 0.041785   | 0.041785   | 0.041785   |   0.0 |  0.03
Modify  | 3.7897     | 3.7897     | 3.7897     |   0.0 |  2.82
Other   |            | 1.257      |            |       |  0.94

Nlocal:    19652 ave 19652 max 19652 min
Histogram: 1 0 0 0 0 0 0 0 0 0
Nghost:    13555 ave 13555 max 13555 min
Histogram: 1 0 0 0 0 0 0 0 0 0
Neighs:    689929 ave 689929 max 689929 min
Histogram: 1 0 0 0 0 0 0 0 0 0

Total # of neighbors = 689929
Ave neighs/atom = 35.1073
Neighbor list builds = 1505
Dangerous builds not checked
Setting up Verlet run ...
  Unit style    : metal
  Current step  : 52000
  Time step     : 0.001
Per MPI rank memory allocation (min/avg/max) = 18.2 | 18.2 | 18.2 Mbytes
Step Temp Press TotEng PotEng Enthalpy 
   52000    2159.1554   -69.058797   -71157.328    -76641.78   -71187.404 
   52495    2110.0426    230.71301   -71442.824   -76802.524   -71342.633 
Loop time of 38.8748 on 1 procs for 495 steps with 19652 atoms

Performance: 1.100 ns/day, 21.815 hours/ns, 12.733 timesteps/s
99.3% CPU use with 1 MPI tasks x no OpenMP threads

MPI task timing breakdown:
Section |  min time  |  avg time  |  max time  |%varavg| %total
---------------------------------------------------------------
Pair    | 18.89      | 18.89      | 18.89      |   0.0 | 48.59
Neigh   | 18.42      | 18.42      | 18.42      |   0.0 | 47.38
Comm    | 0.49061    | 0.49061    | 0.49061    |   0.0 |  1.26
Output  | 0.00024295 | 0.00024295 | 0.00024295 |   0.0 |  0.00
Modify  | 0.78021    | 0.78021    | 0.78021    |   0.0 |  2.01
Other   |            | 0.2935     |            |       |  0.75

Nlocal:    19652 ave 19652 max 19652 min
Histogram: 1 0 0 0 0 0 0 0 0 0
Nghost:    13604 ave 13604 max 13604 min
Histogram: 1 0 0 0 0 0 0 0 0 0
Neighs:    691496 ave 691496 max 691496 min
Histogram: 1 0 0 0 0 0 0 0 0 0

Total # of neighbors = 691496
Ave neighs/atom = 35.1871
Neighbor list builds = 495
Dangerous builds not checked
Setting up Verlet run ...
  Unit style    : metal
  Current step  : 52495
  Time step     : 0.001
Per MPI rank memory allocation (min/avg/max) = 18.2 | 18.2 | 18.2 Mbytes
Step Temp Press TotEng PotEng Enthalpy 
   52495    2110.0426    230.71301   -71442.824   -76802.524   -71342.633 
   54000    2098.1485    202.25333   -71493.817   -76823.305   -71405.912 
Loop time of 115.425 on 1 procs for 1505 steps with 19652 atoms

Performance: 1.127 ns/day, 21.304 hours/ns, 13.039 timesteps/s
99.6% CPU use with 1 MPI tasks x no OpenMP threads

MPI task timing breakdown:
Section |  min time  |  avg time  |  max time  |%varavg| %total
---------------------------------------------------------------
Pair    | 55.736     | 55.736     | 55.736     |   0.0 | 48.29
Neigh   | 55.002     | 55.002     | 55.002     |   0.0 | 47.65
Comm    | 1.4893     | 1.4893     | 1.4893     |   0.0 |  1.29
Output  | 0.040046   | 0.040046   | 0.040046   |   0.0 |  0.03
Modify  | 2.3493     | 2.3493     | 2.3493     |   0.0 |  2.04
Other   |            | 0.8082     |            |       |  0.70

Nlocal:    19652 ave 19652 max 19652 min
Histogram: 1 0 0 0 0 0 0 0 0 0
Nghost:    13557 ave 13557 max 13557 min
Histogram: 1 0 0 0 0 0 0 0 0 0
Neighs:    690771 ave 690771 max 690771 min
Histogram: 1 0 0 0 0 0 0 0 0 0

Total # of neighbors = 690771
Ave neighs/atom = 35.1502
Neighbor list builds = 1505
Dangerous builds not checked
Setting up Verlet run ...
  Unit style    : metal
  Current step  : 54000
  Time step     : 0.001
Per MPI rank memory allocation (min/avg/max) = 18.2 | 18.2 | 18.2 Mbytes
Step Temp Press TotEng PotEng Enthalpy 
   54000    2098.1485    202.25333   -71493.817   -76823.305   -71405.912 
   54495    2054.4195   -87.414127    -71752.92   -76971.333   -71790.842 
Loop time of 42.9518 on 1 procs for 495 steps with 19652 atoms

Performance: 0.996 ns/day, 24.103 hours/ns, 11.525 timesteps/s
99.9% CPU use with 1 MPI tasks x no OpenMP threads

MPI task timing breakdown:
Section |  min time  |  avg time  |  max time  |%varavg| %total
---------------------------------------------------------------
Pair    | 21.31      | 21.31      | 21.31      |   0.0 | 49.61
Neigh   | 19.266     | 19.266     | 19.266     |   0.0 | 44.85
Comm    | 0.71947    | 0.71947    | 0.71947    |   0.0 |  1.68
Output  | 0.00037503 | 0.00037503 | 0.00037503 |   0.0 |  0.00
Modify  | 1.252      | 1.252      | 1.252      |   0.0 |  2.91
Other   |            | 0.4038     |            |       |  0.94

Nlocal:    19652 ave 19652 max 19652 min
Histogram: 1 0 0 0 0 0 0 0 0 0
Nghost:    13620 ave 13620 max 13620 min
Histogram: 1 0 0 0 0 0 0 0 0 0
Neighs:    691666 ave 691666 max 691666 min
Histogram: 1 0 0 0 0 0 0 0 0 0

Total # of neighbors = 691666
Ave neighs/atom = 35.1957
Neighbor list builds = 495
Dangerous builds not checked
Setting up Verlet run ...
  Unit style    : metal
  Current step  : 54495
  Time step     : 0.001
Per MPI rank memory allocation (min/avg/max) = 18.2 | 18.2 | 18.2 Mbytes
Step Temp Press TotEng PotEng Enthalpy 
   54495    2054.4195   -87.414127    -71752.92   -76971.333   -71790.842 
   56000    2054.6515   -556.25319   -71767.674   -76986.676   -72009.421 
Loop time of 124.625 on 1 procs for 1505 steps with 19652 atoms

Performance: 1.043 ns/day, 23.002 hours/ns, 12.076 timesteps/s
99.9% CPU use with 1 MPI tasks x no OpenMP threads

MPI task timing breakdown:
Section |  min time  |  avg time  |  max time  |%varavg| %total
---------------------------------------------------------------
Pair    | 61.497     | 61.497     | 61.497     |   0.0 | 49.35
Neigh   | 57.327     | 57.327     | 57.327     |   0.0 | 46.00
Comm    | 1.8758     | 1.8758     | 1.8758     |   0.0 |  1.51
Output  | 0.039994   | 0.039994   | 0.039994   |   0.0 |  0.03
Modify  | 2.9252     | 2.9252     | 2.9252     |   0.0 |  2.35
Other   |            | 0.9596     |            |       |  0.77

Nlocal:    19652 ave 19652 max 19652 min
Histogram: 1 0 0 0 0 0 0 0 0 0
Nghost:    13614 ave 13614 max 13614 min
Histogram: 1 0 0 0 0 0 0 0 0 0
Neighs:    690183 ave 690183 max 690183 min
Histogram: 1 0 0 0 0 0 0 0 0 0

Total # of neighbors = 690183
Ave neighs/atom = 35.1202
Neighbor list builds = 1505
Dangerous builds not checked
Setting up Verlet run ...
  Unit style    : metal
  Current step  : 56000
  Time step     : 0.001
Per MPI rank memory allocation (min/avg/max) = 18.2 | 18.2 | 18.2 Mbytes
Step Temp Press TotEng PotEng Enthalpy 
   56000    2054.6515   -556.25319   -71767.674   -76986.676   -72009.421 
   56495    2020.9991   -239.01497   -72023.054   -77156.576   -72126.642 
Loop time of 36.9694 on 1 procs for 495 steps with 19652 atoms

Performance: 1.157 ns/day, 20.746 hours/ns, 13.389 timesteps/s
99.9% CPU use with 1 MPI tasks x no OpenMP threads

MPI task timing breakdown:
Section |  min time  |  avg time  |  max time  |%varavg| %total
---------------------------------------------------------------
Pair    | 17.826     | 17.826     | 17.826     |   0.0 | 48.22
Neigh   | 17.703     | 17.703     | 17.703     |   0.0 | 47.89
Comm    | 0.45704    | 0.45704    | 0.45704    |   0.0 |  1.24
Output  | 0.00017309 | 0.00017309 | 0.00017309 |   0.0 |  0.00
Modify  | 0.73813    | 0.73813    | 0.73813    |   0.0 |  2.00
Other   |            | 0.2453     |            |       |  0.66

Nlocal:    19652 ave 19652 max 19652 min
Histogram: 1 0 0 0 0 0 0 0 0 0
Nghost:    13609 ave 13609 max 13609 min
Histogram: 1 0 0 0 0 0 0 0 0 0
Neighs:    691797 ave 691797 max 691797 min
Histogram: 1 0 0 0 0 0 0 0 0 0

Total # of neighbors = 691797
Ave neighs/atom = 35.2024
Neighbor list builds = 495
Dangerous builds not checked
Setting up Verlet run ...
  Unit style    : metal
  Current step  : 56495
  Time step     : 0.001
Per MPI rank memory allocation (min/avg/max) = 18.2 | 18.2 | 18.2 Mbytes
Step Temp Press TotEng PotEng Enthalpy 
   56495    2020.9991   -239.01497   -72023.054   -77156.576   -72126.642 
   58000    1998.5714      88.8971   -72201.188   -77277.741   -72162.768 
Loop time of 112.573 on 1 procs for 1505 steps with 19652 atoms

Performance: 1.155 ns/day, 20.778 hours/ns, 13.369 timesteps/s
99.9% CPU use with 1 MPI tasks x no OpenMP threads

MPI task timing breakdown:
Section |  min time  |  avg time  |  max time  |%varavg| %total
---------------------------------------------------------------
Pair    | 54.05      | 54.05      | 54.05      |   0.0 | 48.01
Neigh   | 54.143     | 54.143     | 54.143     |   0.0 | 48.10
Comm    | 1.3782     | 1.3782     | 1.3782     |   0.0 |  1.22
Output  | 0.042809   | 0.042809   | 0.042809   |   0.0 |  0.04
Modify  | 2.2183     | 2.2183     | 2.2183     |   0.0 |  1.97
Other   |            | 0.7406     |            |       |  0.66

Nlocal:    19652 ave 19652 max 19652 min
Histogram: 1 0 0 0 0 0 0 0 0 0
Nghost:    13670 ave 13670 max 13670 min
Histogram: 1 0 0 0 0 0 0 0 0 0
Neighs:    693464 ave 693464 max 693464 min
Histogram: 1 0 0 0 0 0 0 0 0 0

Total # of neighbors = 693464
Ave neighs/atom = 35.2872
Neighbor list builds = 1505
Dangerous builds not checked
Setting up Verlet run ...
  Unit style    : metal
  Current step  : 58000
  Time step     : 0.001
Per MPI rank memory allocation (min/avg/max) = 18.2 | 18.2 | 18.2 Mbytes
Step Temp Press TotEng PotEng Enthalpy 
   58000    1998.5714      88.8971   -72201.188   -77277.741   -72162.768 
   58495    1961.1962    187.56779   -72403.153    -77384.77   -72322.233 
Loop time of 43.897 on 1 procs for 495 steps with 19652 atoms

Performance: 0.974 ns/day, 24.634 hours/ns, 11.276 timesteps/s
98.0% CPU use with 1 MPI tasks x no OpenMP threads

MPI task timing breakdown:
Section |  min time  |  avg time  |  max time  |%varavg| %total
---------------------------------------------------------------
Pair    | 22.116     | 22.116     | 22.116     |   0.0 | 50.38
Neigh   | 19.676     | 19.676     | 19.676     |   0.0 | 44.82
Comm    | 0.68234    | 0.68234    | 0.68234    |   0.0 |  1.55
Output  | 0.00027204 | 0.00027204 | 0.00027204 |   0.0 |  0.00
Modify  | 1.0508     | 1.0508     | 1.0508     |   0.0 |  2.39
Other   |            | 0.3719     |            |       |  0.85

Nlocal:    19652 ave 19652 max 19652 min
Histogram: 1 0 0 0 0 0 0 0 0 0
Nghost:    13671 ave 13671 max 13671 min
Histogram: 1 0 0 0 0 0 0 0 0 0
Neighs:    694184 ave 694184 max 694184 min
Histogram: 1 0 0 0 0 0 0 0 0 0

Total # of neighbors = 694184
Ave neighs/atom = 35.3238
Neighbor list builds = 495
Dangerous builds not checked
Setting up Verlet run ...
  Unit style    : metal
  Current step  : 58495
  Time step     : 0.001
Per MPI rank memory allocation (min/avg/max) = 18.2 | 18.2 | 18.2 Mbytes
Step Temp Press TotEng PotEng Enthalpy 
   58495    1961.1962    187.56779   -72403.153    -77384.77   -72322.233 
   60000    1964.5355    974.41909   -72402.328   -77392.428   -71982.872 
Loop time of 128.191 on 1 procs for 1505 steps with 19652 atoms

Performance: 1.014 ns/day, 23.660 hours/ns, 11.740 timesteps/s
99.2% CPU use with 1 MPI tasks x no OpenMP threads

MPI task timing breakdown:
Section |  min time  |  avg time  |  max time  |%varavg| %total
---------------------------------------------------------------
Pair    | 63.666     | 63.666     | 63.666     |   0.0 | 49.66
Neigh   | 58.54      | 58.54      | 58.54      |   0.0 | 45.67
Comm    | 1.9473     | 1.9473     | 1.9473     |   0.0 |  1.52
Output  | 0.040196   | 0.040196   | 0.040196   |   0.0 |  0.03
Modify  | 2.9148     | 2.9148     | 2.9148     |   0.0 |  2.27
Other   |            | 1.083      |            |       |  0.84

Nlocal:    19652 ave 19652 max 19652 min
Histogram: 1 0 0 0 0 0 0 0 0 0
Nghost:    13687 ave 13687 max 13687 min
Histogram: 1 0 0 0 0 0 0 0 0 0
Neighs:    695446 ave 695446 max 695446 min
Histogram: 1 0 0 0 0 0 0 0 0 0

Total # of neighbors = 695446
Ave neighs/atom = 35.3881
Neighbor list builds = 1505
Dangerous builds not checked
Setting up Verlet run ...
  Unit style    : metal
  Current step  : 60000
  Time step     : 0.001
Per MPI rank memory allocation (min/avg/max) = 18.2 | 18.2 | 18.2 Mbytes
Step Temp Press TotEng PotEng Enthalpy 
   60000    1964.5355    974.41909   -72402.328   -77392.428   -71982.872 
   60495    1903.2034    731.11991   -72650.082   -77484.392   -72335.459 
Loop time of 36.8884 on 1 procs for 495 steps with 19652 atoms

Performance: 1.159 ns/day, 20.701 hours/ns, 13.419 timesteps/s
99.8% CPU use with 1 MPI tasks x no OpenMP threads

MPI task timing breakdown:
Section |  min time  |  avg time  |  max time  |%varavg| %total
---------------------------------------------------------------
Pair    | 17.773     | 17.773     | 17.773     |   0.0 | 48.18
Neigh   | 17.676     | 17.676     | 17.676     |   0.0 | 47.92
Comm    | 0.4542     | 0.4542     | 0.4542     |   0.0 |  1.23
Output  | 0.00018883 | 0.00018883 | 0.00018883 |   0.0 |  0.00
Modify  | 0.73613    | 0.73613    | 0.73613    |   0.0 |  2.00
Other   |            | 0.2494     |            |       |  0.68

Nlocal:    19652 ave 19652 max 19652 min
Histogram: 1 0 0 0 0 0 0 0 0 0
Nghost:    13653 ave 13653 max 13653 min
Histogram: 1 0 0 0 0 0 0 0 0 0
Neighs:    695922 ave 695922 max 695922 min
Histogram: 1 0 0 0 0 0 0 0 0 0

Total # of neighbors = 695922
Ave neighs/atom = 35.4123
Neighbor list builds = 495
Dangerous builds not checked
Setting up Verlet run ...
  Unit style    : metal
  Current step  : 60495
  Time step     : 0.001
Per MPI rank memory allocation (min/avg/max) = 18.2 | 18.2 | 18.2 Mbytes
Step Temp Press TotEng PotEng Enthalpy 
   60495    1903.2034    731.11991   -72650.082   -77484.392   -72335.459 
   62000    1909.1493    640.66085   -72821.413   -77670.826   -72546.131 
Loop time of 112.689 on 1 procs for 1505 steps with 19652 atoms

Performance: 1.154 ns/day, 20.799 hours/ns, 13.355 timesteps/s
99.9% CPU use with 1 MPI tasks x no OpenMP threads

MPI task timing breakdown:
Section |  min time  |  avg time  |  max time  |%varavg| %total
---------------------------------------------------------------
Pair    | 54.262     | 54.262     | 54.262     |   0.0 | 48.15
Neigh   | 54.015     | 54.015     | 54.015     |   0.0 | 47.93
Comm    | 1.3843     | 1.3843     | 1.3843     |   0.0 |  1.23
Output  | 0.040766   | 0.040766   | 0.040766   |   0.0 |  0.04
Modify  | 2.229      | 2.229      | 2.229      |   0.0 |  1.98
Other   |            | 0.7579     |            |       |  0.67

Nlocal:    19652 ave 19652 max 19652 min
Histogram: 1 0 0 0 0 0 0 0 0 0
Nghost:    13630 ave 13630 max 13630 min
Histogram: 1 0 0 0 0 0 0 0 0 0
Neighs:    696341 ave 696341 max 696341 min
Histogram: 1 0 0 0 0 0 0 0 0 0

Total # of neighbors = 696341
Ave neighs/atom = 35.4336
Neighbor list builds = 1505
Dangerous builds not checked
Setting up Verlet run ...
  Unit style    : metal
  Current step  : 62000
  Time step     : 0.001
Per MPI rank memory allocation (min/avg/max) = 18.2 | 18.2 | 18.2 Mbytes
Step Temp Press TotEng PotEng Enthalpy 
   62000    1909.1493    640.66085   -72821.413   -77670.826   -72546.131 
   62495    1871.5335    429.29225   -73014.376   -77768.241   -72830.073 
Loop time of 36.8665 on 1 procs for 495 steps with 19652 atoms

Performance: 1.160 ns/day, 20.688 hours/ns, 13.427 timesteps/s
99.9% CPU use with 1 MPI tasks x no OpenMP threads

MPI task timing breakdown:
Section |  min time  |  avg time  |  max time  |%varavg| %total
---------------------------------------------------------------
Pair    | 17.797     | 17.797     | 17.797     |   0.0 | 48.27
Neigh   | 17.633     | 17.633     | 17.633     |   0.0 | 47.83
Comm    | 0.45252    | 0.45252    | 0.45252    |   0.0 |  1.23
Output  | 0.000175   | 0.000175   | 0.000175   |   0.0 |  0.00
Modify  | 0.73422    | 0.73422    | 0.73422    |   0.0 |  1.99
Other   |            | 0.2492     |            |       |  0.68

Nlocal:    19652 ave 19652 max 19652 min
Histogram: 1 0 0 0 0 0 0 0 0 0
Nghost:    13678 ave 13678 max 13678 min
Histogram: 1 0 0 0 0 0 0 0 0 0
Neighs:    696818 ave 696818 max 696818 min
Histogram: 1 0 0 0 0 0 0 0 0 0

Total # of neighbors = 696818
Ave neighs/atom = 35.4579
Neighbor list builds = 495
Dangerous builds not checked
Setting up Verlet run ...
  Unit style    : metal
  Current step  : 62495
  Time step     : 0.001
Per MPI rank memory allocation (min/avg/max) = 18.2 | 18.2 | 18.2 Mbytes
Step Temp Press TotEng PotEng Enthalpy 
   62495    1871.5335    429.29225   -73014.376   -77768.241   -72830.073 
   64000    1852.3179     496.2344   -73122.607   -77827.663   -72909.781 
Loop time of 114.706 on 1 procs for 1505 steps with 19652 atoms

Performance: 1.134 ns/day, 21.171 hours/ns, 13.120 timesteps/s
99.7% CPU use with 1 MPI tasks x no OpenMP threads

MPI task timing breakdown:
Section |  min time  |  avg time  |  max time  |%varavg| %total
---------------------------------------------------------------
Pair    | 55.469     | 55.469     | 55.469     |   0.0 | 48.36
Neigh   | 54.711     | 54.711     | 54.711     |   0.0 | 47.70
Comm    | 1.4197     | 1.4197     | 1.4197     |   0.0 |  1.24
Output  | 0.042764   | 0.042764   | 0.042764   |   0.0 |  0.04
Modify  | 2.2631     | 2.2631     | 2.2631     |   0.0 |  1.97
Other   |            | 0.801      |            |       |  0.70

Nlocal:    19652 ave 19652 max 19652 min
Histogram: 1 0 0 0 0 0 0 0 0 0
Nghost:    13655 ave 13655 max 13655 min
Histogram: 1 0 0 0 0 0 0 0 0 0
Neighs:    696880 ave 696880 max 696880 min
Histogram: 1 0 0 0 0 0 0 0 0 0

Total # of neighbors = 696880
Ave neighs/atom = 35.461
Neighbor list builds = 1505
Dangerous builds not checked
Setting up Verlet run ...
  Unit style    : metal
  Current step  : 64000
  Time step     : 0.001
Per MPI rank memory allocation (min/avg/max) = 18.2 | 18.2 | 18.2 Mbytes
Step Temp Press TotEng PotEng Enthalpy 
   64000    1852.3179     496.2344   -73122.607   -77827.663   -72909.781 
   64495    1812.8171    323.99635   -73335.957   -77940.678   -73197.082 
Loop time of 38.5983 on 1 procs for 495 steps with 19652 atoms

Performance: 1.108 ns/day, 21.660 hours/ns, 12.824 timesteps/s
99.6% CPU use with 1 MPI tasks x no OpenMP threads

MPI task timing breakdown:
Section |  min time  |  avg time  |  max time  |%varavg| %total
---------------------------------------------------------------
Pair    | 18.819     | 18.819     | 18.819     |   0.0 | 48.76
Neigh   | 18.232     | 18.232     | 18.232     |   0.0 | 47.24
Comm    | 0.48328    | 0.48328    | 0.48328    |   0.0 |  1.25
Output  | 0.00021791 | 0.00021791 | 0.00021791 |   0.0 |  0.00
Modify  | 0.76765    | 0.76765    | 0.76765    |   0.0 |  1.99
Other   |            | 0.2963     |            |       |  0.77

Nlocal:    19652 ave 19652 max 19652 min
Histogram: 1 0 0 0 0 0 0 0 0 0
Nghost:    13680 ave 13680 max 13680 min
Histogram: 1 0 0 0 0 0 0 0 0 0
Neighs:    696950 ave 696950 max 696950 min
Histogram: 1 0 0 0 0 0 0 0 0 0

Total # of neighbors = 696950
Ave neighs/atom = 35.4646
Neighbor list builds = 495
Dangerous builds not checked
Setting up Verlet run ...
  Unit style    : metal
  Current step  : 64495
  Time step     : 0.001
Per MPI rank memory allocation (min/avg/max) = 18.2 | 18.2 | 18.2 Mbytes
Step Temp Press TotEng PotEng Enthalpy 
   64495    1812.8171    323.99635   -73335.957   -77940.678   -73197.082 
   66000    1804.8148   -440.73336   -73405.329   -77989.723   -73594.598 
Loop time of 121.007 on 1 procs for 1505 steps with 19652 atoms

Performance: 1.075 ns/day, 22.334 hours/ns, 12.437 timesteps/s
99.0% CPU use with 1 MPI tasks x no OpenMP threads

MPI task timing breakdown:
Section |  min time  |  avg time  |  max time  |%varavg| %total
---------------------------------------------------------------
Pair    | 59.245     | 59.245     | 59.245     |   0.0 | 48.96
Neigh   | 56.788     | 56.788     | 56.788     |   0.0 | 46.93
Comm    | 1.5484     | 1.5484     | 1.5484     |   0.0 |  1.28
Output  | 0.045743   | 0.045743   | 0.045743   |   0.0 |  0.04
Modify  | 2.4444     | 2.4444     | 2.4444     |   0.0 |  2.02
Other   |            | 0.9357     |            |       |  0.77

Nlocal:    19652 ave 19652 max 19652 min
Histogram: 1 0 0 0 0 0 0 0 0 0
Nghost:    13656 ave 13656 max 13656 min
Histogram: 1 0 0 0 0 0 0 0 0 0
Neighs:    695549 ave 695549 max 695549 min
Histogram: 1 0 0 0 0 0 0 0 0 0

Total # of neighbors = 695549
Ave neighs/atom = 35.3933
Neighbor list builds = 1505
Dangerous builds not checked
Setting up Verlet run ...
  Unit style    : metal
  Current step  : 66000
  Time step     : 0.001
Per MPI rank memory allocation (min/avg/max) = 18.2 | 18.2 | 18.2 Mbytes
Step Temp Press TotEng PotEng Enthalpy 
   66000    1804.8148   -440.73336   -73405.329   -77989.723   -73594.598 
   66495    1755.3862   -240.89487   -73630.192   -78089.033   -73733.428 
Loop time of 43.0831 on 1 procs for 495 steps with 19652 atoms

Performance: 0.993 ns/day, 24.177 hours/ns, 11.489 timesteps/s
99.7% CPU use with 1 MPI tasks x no OpenMP threads

MPI task timing breakdown:
Section |  min time  |  avg time  |  max time  |%varavg| %total
---------------------------------------------------------------
Pair    | 21.741     | 21.741     | 21.741     |   0.0 | 50.46
Neigh   | 19.283     | 19.283     | 19.283     |   0.0 | 44.76
Comm    | 0.66646    | 0.66646    | 0.66646    |   0.0 |  1.55
Output  | 0.00019908 | 0.00019908 | 0.00019908 |   0.0 |  0.00
Modify  | 1.0051     | 1.0051     | 1.0051     |   0.0 |  2.33
Other   |            | 0.3866     |            |       |  0.90

Nlocal:    19652 ave 19652 max 19652 min
Histogram: 1 0 0 0 0 0 0 0 0 0
Nghost:    13645 ave 13645 max 13645 min
Histogram: 1 0 0 0 0 0 0 0 0 0
Neighs:    696740 ave 696740 max 696740 min
Histogram: 1 0 0 0 0 0 0 0 0 0

Total # of neighbors = 696740
Ave neighs/atom = 35.4539
Neighbor list builds = 495
Dangerous builds not checked
Setting up Verlet run ...
  Unit style    : metal
  Current step  : 66495
  Time step     : 0.001
Per MPI rank memory allocation (min/avg/max) = 18.2 | 18.2 | 18.2 Mbytes
Step Temp Press TotEng PotEng Enthalpy 
   66495    1755.3862   -240.89487   -73630.192   -78089.033   -73733.428 
   68000      1736.45   -408.24805   -73722.162   -78132.904   -73897.032 
Loop time of 123.22 on 1 procs for 1505 steps with 19652 atoms

Performance: 1.055 ns/day, 22.743 hours/ns, 12.214 timesteps/s
99.1% CPU use with 1 MPI tasks x no OpenMP threads

MPI task timing breakdown:
Section |  min time  |  avg time  |  max time  |%varavg| %total
---------------------------------------------------------------
Pair    | 60.658     | 60.658     | 60.658     |   0.0 | 49.23
Neigh   | 57.115     | 57.115     | 57.115     |   0.0 | 46.35
Comm    | 1.655      | 1.655      | 1.655      |   0.0 |  1.34
Output  | 0.045689   | 0.045689   | 0.045689   |   0.0 |  0.04
Modify  | 2.7538     | 2.7538     | 2.7538     |   0.0 |  2.23
Other   |            | 0.9936     |            |       |  0.81

Nlocal:    19652 ave 19652 max 19652 min
Histogram: 1 0 0 0 0 0 0 0 0 0
Nghost:    13728 ave 13728 max 13728 min
Histogram: 1 0 0 0 0 0 0 0 0 0
Neighs:    696949 ave 696949 max 696949 min
Histogram: 1 0 0 0 0 0 0 0 0 0

Total # of neighbors = 696949
Ave neighs/atom = 35.4645
Neighbor list builds = 1505
Dangerous builds not checked
Setting up Verlet run ...
  Unit style    : metal
  Current step  : 68000
  Time step     : 0.001
Per MPI rank memory allocation (min/avg/max) = 18.2 | 18.2 | 18.2 Mbytes
Step Temp Press TotEng PotEng Enthalpy 
   68000      1736.45   -408.24805   -73722.162   -78132.904   -73897.032 
   68495    1705.3456   -45.901487   -73960.229   -78291.962    -73979.85 
Loop time of 39.6491 on 1 procs for 495 steps with 19652 atoms

Performance: 1.079 ns/day, 22.250 hours/ns, 12.485 timesteps/s
99.9% CPU use with 1 MPI tasks x no OpenMP threads

MPI task timing breakdown:
Section |  min time  |  avg time  |  max time  |%varavg| %total
---------------------------------------------------------------
Pair    | 19.592     | 19.592     | 19.592     |   0.0 | 49.41
Neigh   | 18.372     | 18.372     | 18.372     |   0.0 | 46.34
Comm    | 0.53395    | 0.53395    | 0.53395    |   0.0 |  1.35
Output  | 0.00017786 | 0.00017786 | 0.00017786 |   0.0 |  0.00
Modify  | 0.82924    | 0.82924    | 0.82924    |   0.0 |  2.09
Other   |            | 0.3215     |            |       |  0.81

Nlocal:    19652 ave 19652 max 19652 min
Histogram: 1 0 0 0 0 0 0 0 0 0
Nghost:    13750 ave 13750 max 13750 min
Histogram: 1 0 0 0 0 0 0 0 0 0
Neighs:    698024 ave 698024 max 698024 min
Histogram: 1 0 0 0 0 0 0 0 0 0

Total # of neighbors = 698024
Ave neighs/atom = 35.5192
Neighbor list builds = 495
Dangerous builds not checked
Setting up Verlet run ...
  Unit style    : metal
  Current step  : 68495
  Time step     : 0.001
Per MPI rank memory allocation (min/avg/max) = 18.2 | 18.2 | 18.2 Mbytes
Step Temp Press TotEng PotEng Enthalpy 
   68495    1705.3456   -45.901487   -73960.229   -78291.962    -73979.85 
   70000    1697.4082   -882.91162   -74059.578   -78371.149   -74437.332 
Loop time of 117.808 on 1 procs for 1505 steps with 19652 atoms

Performance: 1.104 ns/day, 21.744 hours/ns, 12.775 timesteps/s
99.8% CPU use with 1 MPI tasks x no OpenMP threads

MPI task timing breakdown:
Section |  min time  |  avg time  |  max time  |%varavg| %total
---------------------------------------------------------------
Pair    | 57.534     | 57.534     | 57.534     |   0.0 | 48.84
Neigh   | 55.561     | 55.561     | 55.561     |   0.0 | 47.16
Comm    | 1.4615     | 1.4615     | 1.4615     |   0.0 |  1.24
Output  | 0.043754   | 0.043754   | 0.043754   |   0.0 |  0.04
Modify  | 2.312      | 2.312      | 2.312      |   0.0 |  1.96
Other   |            | 0.8954     |            |       |  0.76

Nlocal:    19652 ave 19652 max 19652 min
Histogram: 1 0 0 0 0 0 0 0 0 0
Nghost:    13700 ave 13700 max 13700 min
Histogram: 1 0 0 0 0 0 0 0 0 0
Neighs:    697008 ave 697008 max 697008 min
Histogram: 1 0 0 0 0 0 0 0 0 0

Total # of neighbors = 697008
Ave neighs/atom = 35.4675
Neighbor list builds = 1505
Dangerous builds not checked
Setting up Verlet run ...
  Unit style    : metal
  Current step  : 70000
  Time step     : 0.001
Per MPI rank memory allocation (min/avg/max) = 18.2 | 18.2 | 18.2 Mbytes
Step Temp Press TotEng PotEng Enthalpy 
   70000    1697.4082   -882.91162   -74059.578   -78371.149   -74437.332 
   70495    1657.6724   -707.22059   -74294.065   -78504.704   -74596.054 
Loop time of 38.6235 on 1 procs for 495 steps with 19652 atoms

Performance: 1.107 ns/day, 21.674 hours/ns, 12.816 timesteps/s
99.5% CPU use with 1 MPI tasks x no OpenMP threads

MPI task timing breakdown:
Section |  min time  |  avg time  |  max time  |%varavg| %total
---------------------------------------------------------------
Pair    | 18.914     | 18.914     | 18.914     |   0.0 | 48.97
Neigh   | 18.166     | 18.166     | 18.166     |   0.0 | 47.03
Comm    | 0.47715    | 0.47715    | 0.47715    |   0.0 |  1.24
Output  | 0.00019884 | 0.00019884 | 0.00019884 |   0.0 |  0.00
Modify  | 0.77122    | 0.77122    | 0.77122    |   0.0 |  2.00
Other   |            | 0.295      |            |       |  0.76

Nlocal:    19652 ave 19652 max 19652 min
Histogram: 1 0 0 0 0 0 0 0 0 0
Nghost:    13764 ave 13764 max 13764 min
Histogram: 1 0 0 0 0 0 0 0 0 0
Neighs:    697538 ave 697538 max 697538 min
Histogram: 1 0 0 0 0 0 0 0 0 0

Total # of neighbors = 697538
Ave neighs/atom = 35.4945
Neighbor list builds = 495
Dangerous builds not checked
Setting up Verlet run ...
  Unit style    : metal
  Current step  : 70495
  Time step     : 0.001
Per MPI rank memory allocation (min/avg/max) = 18.2 | 18.2 | 18.2 Mbytes
Step Temp Press TotEng PotEng Enthalpy 
   70495    1657.6724   -707.22059   -74294.065   -78504.704   -74596.054 
   72000     1642.172   -536.12922   -74432.063    -78603.33    -74660.69 
Loop time of 128.451 on 1 procs for 1505 steps with 19652 atoms

Performance: 1.012 ns/day, 23.708 hours/ns, 11.717 timesteps/s
99.2% CPU use with 1 MPI tasks x no OpenMP threads

MPI task timing breakdown:
Section |  min time  |  avg time  |  max time  |%varavg| %total
---------------------------------------------------------------
Pair    | 63.708     | 63.708     | 63.708     |   0.0 | 49.60
Neigh   | 58.078     | 58.078     | 58.078     |   0.0 | 45.21
Comm    | 1.9983     | 1.9983     | 1.9983     |   0.0 |  1.56
Output  | 0.042632   | 0.042632   | 0.042632   |   0.0 |  0.03
Modify  | 3.3908     | 3.3908     | 3.3908     |   0.0 |  2.64
Other   |            | 1.233      |            |       |  0.96

Nlocal:    19652 ave 19652 max 19652 min
Histogram: 1 0 0 0 0 0 0 0 0 0
Nghost:    13812 ave 13812 max 13812 min
Histogram: 1 0 0 0 0 0 0 0 0 0
Neighs:    698404 ave 698404 max 698404 min
Histogram: 1 0 0 0 0 0 0 0 0 0

Total # of neighbors = 698404
Ave neighs/atom = 35.5386
Neighbor list builds = 1505
Dangerous builds not checked
Setting up Verlet run ...
  Unit style    : metal
  Current step  : 72000
  Time step     : 0.001
Per MPI rank memory allocation (min/avg/max) = 18.2 | 18.2 | 18.2 Mbytes
Step Temp Press TotEng PotEng Enthalpy 
   72000     1642.172   -536.12922   -74432.063    -78603.33    -74660.69 
   72495    1626.4975   -474.90646   -74554.194   -78685.646   -74756.551 
Loop time of 38.4535 on 1 procs for 495 steps with 19652 atoms

Performance: 1.112 ns/day, 21.579 hours/ns, 12.873 timesteps/s
99.7% CPU use with 1 MPI tasks x no OpenMP threads

MPI task timing breakdown:
Section |  min time  |  avg time  |  max time  |%varavg| %total
---------------------------------------------------------------
Pair    | 18.816     | 18.816     | 18.816     |   0.0 | 48.93
Neigh   | 18.116     | 18.116     | 18.116     |   0.0 | 47.11
Comm    | 0.47526    | 0.47526    | 0.47526    |   0.0 |  1.24
Output  | 0.00028205 | 0.00028205 | 0.00028205 |   0.0 |  0.00
Modify  | 0.75269    | 0.75269    | 0.75269    |   0.0 |  1.96
Other   |            | 0.2935     |            |       |  0.76

Nlocal:    19652 ave 19652 max 19652 min
Histogram: 1 0 0 0 0 0 0 0 0 0
Nghost:    13757 ave 13757 max 13757 min
Histogram: 1 0 0 0 0 0 0 0 0 0
Neighs:    698828 ave 698828 max 698828 min
Histogram: 1 0 0 0 0 0 0 0 0 0

Total # of neighbors = 698828
Ave neighs/atom = 35.5601
Neighbor list builds = 495
Dangerous builds not checked
Setting up Verlet run ...
  Unit style    : metal
  Current step  : 72495
  Time step     : 0.001
Per MPI rank memory allocation (min/avg/max) = 18.2 | 18.2 | 18.2 Mbytes
Step Temp Press TotEng PotEng Enthalpy 
   72495    1626.4975   -474.90646   -74554.194   -78685.646   -74756.551 
   74000    1597.0186     -851.827   -74745.725   -78802.298   -75108.446 
Loop time of 115.861 on 1 procs for 1505 steps with 19652 atoms

Performance: 1.122 ns/day, 21.384 hours/ns, 12.990 timesteps/s
99.1% CPU use with 1 MPI tasks x no OpenMP threads

MPI task timing breakdown:
Section |  min time  |  avg time  |  max time  |%varavg| %total
---------------------------------------------------------------
Pair    | 56.494     | 56.494     | 56.494     |   0.0 | 48.76
Neigh   | 54.802     | 54.802     | 54.802     |   0.0 | 47.30
Comm    | 1.4192     | 1.4192     | 1.4192     |   0.0 |  1.22
Output  | 0.040675   | 0.040675   | 0.040675   |   0.0 |  0.04
Modify  | 2.2831     | 2.2831     | 2.2831     |   0.0 |  1.97
Other   |            | 0.8218     |            |       |  0.71

Nlocal:    19652 ave 19652 max 19652 min
Histogram: 1 0 0 0 0 0 0 0 0 0
Nghost:    13705 ave 13705 max 13705 min
Histogram: 1 0 0 0 0 0 0 0 0 0
Neighs:    698615 ave 698615 max 698615 min
Histogram: 1 0 0 0 0 0 0 0 0 0

Total # of neighbors = 698615
Ave neighs/atom = 35.5493
Neighbor list builds = 1505
Dangerous builds not checked
Setting up Verlet run ...
  Unit style    : metal
  Current step  : 74000
  Time step     : 0.001
Per MPI rank memory allocation (min/avg/max) = 18.2 | 18.2 | 18.2 Mbytes
Step Temp Press TotEng PotEng Enthalpy 
   74000    1597.0186     -851.827   -74745.725   -78802.298   -75108.446 
   74495    1555.3588   -621.09347   -74939.492   -78890.245   -75203.537 
Loop time of 36.9674 on 1 procs for 495 steps with 19652 atoms

Performance: 1.157 ns/day, 20.745 hours/ns, 13.390 timesteps/s
99.9% CPU use with 1 MPI tasks x no OpenMP threads

MPI task timing breakdown:
Section |  min time  |  avg time  |  max time  |%varavg| %total
---------------------------------------------------------------
Pair    | 17.939     | 17.939     | 17.939     |   0.0 | 48.53
Neigh   | 17.597     | 17.597     | 17.597     |   0.0 | 47.60
Comm    | 0.45179    | 0.45179    | 0.45179    |   0.0 |  1.22
Output  | 0.00018191 | 0.00018191 | 0.00018191 |   0.0 |  0.00
Modify  | 0.73154    | 0.73154    | 0.73154    |   0.0 |  1.98
Other   |            | 0.248      |            |       |  0.67

Nlocal:    19652 ave 19652 max 19652 min
Histogram: 1 0 0 0 0 0 0 0 0 0
Nghost:    13786 ave 13786 max 13786 min
Histogram: 1 0 0 0 0 0 0 0 0 0
Neighs:    699319 ave 699319 max 699319 min
Histogram: 1 0 0 0 0 0 0 0 0 0

Total # of neighbors = 699319
Ave neighs/atom = 35.5851
Neighbor list builds = 495
Dangerous builds not checked
Setting up Verlet run ...
  Unit style    : metal
  Current step  : 74495
  Time step     : 0.001
Per MPI rank memory allocation (min/avg/max) = 18.2 | 18.2 | 18.2 Mbytes
Step Temp Press TotEng PotEng Enthalpy 
   74495    1555.3588   -621.09347   -74939.492   -78890.245   -75203.537 
   76000    1550.4053   -679.66864   -75092.213   -79030.384   -75380.904 
Loop time of 113.005 on 1 procs for 1505 steps with 19652 atoms

Performance: 1.151 ns/day, 20.857 hours/ns, 13.318 timesteps/s
99.6% CPU use with 1 MPI tasks x no OpenMP threads

MPI task timing breakdown:
Section |  min time  |  avg time  |  max time  |%varavg| %total
---------------------------------------------------------------
Pair    | 54.791     | 54.791     | 54.791     |   0.0 | 48.49
Neigh   | 53.847     | 53.847     | 53.847     |   0.0 | 47.65
Comm    | 1.371      | 1.371      | 1.371      |   0.0 |  1.21
Output  | 0.040316   | 0.040316   | 0.040316   |   0.0 |  0.04
Modify  | 2.2087     | 2.2087     | 2.2087     |   0.0 |  1.95
Other   |            | 0.7469     |            |       |  0.66

Nlocal:    19652 ave 19652 max 19652 min
Histogram: 1 0 0 0 0 0 0 0 0 0
Nghost:    13796 ave 13796 max 13796 min
Histogram: 1 0 0 0 0 0 0 0 0 0
Neighs:    699390 ave 699390 max 699390 min
Histogram: 1 0 0 0 0 0 0 0 0 0

Total # of neighbors = 699390
Ave neighs/atom = 35.5887
Neighbor list builds = 1505
Dangerous builds not checked
Setting up Verlet run ...
  Unit style    : metal
  Current step  : 76000
  Time step     : 0.001
Per MPI rank memory allocation (min/avg/max) = 18.2 | 18.2 | 18.2 Mbytes
Step Temp Press TotEng PotEng Enthalpy 
   76000    1550.4053   -679.66864   -75092.213   -79030.384   -75380.904 
   76495    1497.4441   -440.58341   -75272.896   -79076.541   -75459.655 
Loop time of 36.9589 on 1 procs for 495 steps with 19652 atoms

Performance: 1.157 ns/day, 20.740 hours/ns, 13.393 timesteps/s
99.7% CPU use with 1 MPI tasks x no OpenMP threads

MPI task timing breakdown:
Section |  min time  |  avg time  |  max time  |%varavg| %total
---------------------------------------------------------------
Pair    | 17.94      | 17.94      | 17.94      |   0.0 | 48.54
Neigh   | 17.599     | 17.599     | 17.599     |   0.0 | 47.62
Comm    | 0.44795    | 0.44795    | 0.44795    |   0.0 |  1.21
Output  | 0.00027299 | 0.00027299 | 0.00027299 |   0.0 |  0.00
Modify  | 0.7259     | 0.7259     | 0.7259     |   0.0 |  1.96
Other   |            | 0.2459     |            |       |  0.67

Nlocal:    19652 ave 19652 max 19652 min
Histogram: 1 0 0 0 0 0 0 0 0 0
Nghost:    13765 ave 13765 max 13765 min
Histogram: 1 0 0 0 0 0 0 0 0 0
Neighs:    700798 ave 700798 max 700798 min
Histogram: 1 0 0 0 0 0 0 0 0 0

Total # of neighbors = 700798
Ave neighs/atom = 35.6604
Neighbor list builds = 495
Dangerous builds not checked
Setting up Verlet run ...
  Unit style    : metal
  Current step  : 76495
  Time step     : 0.001
Per MPI rank memory allocation (min/avg/max) = 18.2 | 18.2 | 18.2 Mbytes
Step Temp Press TotEng PotEng Enthalpy 
   76495    1497.4441   -440.58341   -75272.896   -79076.541   -75459.655 
   78000    1495.1058    -872.8584   -75407.207   -79204.912   -75777.149 
Loop time of 112.811 on 1 procs for 1505 steps with 19652 atoms

Performance: 1.153 ns/day, 20.821 hours/ns, 13.341 timesteps/s
99.7% CPU use with 1 MPI tasks x no OpenMP threads

MPI task timing breakdown:
Section |  min time  |  avg time  |  max time  |%varavg| %total
---------------------------------------------------------------
Pair    | 54.694     | 54.694     | 54.694     |   0.0 | 48.48
Neigh   | 53.776     | 53.776     | 53.776     |   0.0 | 47.67
Comm    | 1.3584     | 1.3584     | 1.3584     |   0.0 |  1.20
Output  | 0.040105   | 0.040105   | 0.040105   |   0.0 |  0.04
Modify  | 2.1979     | 2.1979     | 2.1979     |   0.0 |  1.95
Other   |            | 0.7436     |            |       |  0.66

Nlocal:    19652 ave 19652 max 19652 min
Histogram: 1 0 0 0 0 0 0 0 0 0
Nghost:    13729 ave 13729 max 13729 min
Histogram: 1 0 0 0 0 0 0 0 0 0
Neighs:    700035 ave 700035 max 700035 min
Histogram: 1 0 0 0 0 0 0 0 0 0

Total # of neighbors = 700035
Ave neighs/atom = 35.6216
Neighbor list builds = 1505
Dangerous builds not checked
Setting up Verlet run ...
  Unit style    : metal
  Current step  : 78000
  Time step     : 0.001
Per MPI rank memory allocation (min/avg/max) = 18.2 | 18.2 | 18.2 Mbytes
Step Temp Press TotEng PotEng Enthalpy 
   78000    1495.1058    -872.8584   -75407.207   -79204.912   -75777.149 
   78495    1462.2098   -682.91554   -75609.006   -79323.152   -75897.857 
Loop time of 37.8287 on 1 procs for 495 steps with 19652 atoms

Performance: 1.131 ns/day, 21.228 hours/ns, 13.085 timesteps/s
99.7% CPU use with 1 MPI tasks x no OpenMP threads

MPI task timing breakdown:
Section |  min time  |  avg time  |  max time  |%varavg| %total
---------------------------------------------------------------
Pair    | 18.453     | 18.453     | 18.453     |   0.0 | 48.78
Neigh   | 17.923     | 17.923     | 17.923     |   0.0 | 47.38
Comm    | 0.45317    | 0.45317    | 0.45317    |   0.0 |  1.20
Output  | 0.00029016 | 0.00029016 | 0.00029016 |   0.0 |  0.00
Modify  | 0.72873    | 0.72873    | 0.72873    |   0.0 |  1.93
Other   |            | 0.2703     |            |       |  0.71

Nlocal:    19652 ave 19652 max 19652 min
Histogram: 1 0 0 0 0 0 0 0 0 0
Nghost:    13787 ave 13787 max 13787 min
Histogram: 1 0 0 0 0 0 0 0 0 0
Neighs:    701387 ave 701387 max 701387 min
Histogram: 1 0 0 0 0 0 0 0 0 0

Total # of neighbors = 701387
Ave neighs/atom = 35.6904
Neighbor list builds = 495
Dangerous builds not checked
Setting up Verlet run ...
  Unit style    : metal
  Current step  : 78495
  Time step     : 0.001
Per MPI rank memory allocation (min/avg/max) = 18.2 | 18.2 | 18.2 Mbytes
Step Temp Press TotEng PotEng Enthalpy 
   78495    1462.2098   -682.91554   -75609.006   -79323.152   -75897.857 
   80000    1454.8231   -67.141927   -75692.465   -79387.849   -75720.829 
Loop time of 126.294 on 1 procs for 1505 steps with 19652 atoms

Performance: 1.030 ns/day, 23.310 hours/ns, 11.917 timesteps/s
99.5% CPU use with 1 MPI tasks x no OpenMP threads

MPI task timing breakdown:
Section |  min time  |  avg time  |  max time  |%varavg| %total
---------------------------------------------------------------
Pair    | 63.492     | 63.492     | 63.492     |   0.0 | 50.27
Neigh   | 57.08      | 57.08      | 57.08      |   0.0 | 45.20
Comm    | 1.8726     | 1.8726     | 1.8726     |   0.0 |  1.48
Output  | 0.043214   | 0.043214   | 0.043214   |   0.0 |  0.03
Modify  | 2.8637     | 2.8637     | 2.8637     |   0.0 |  2.27
Other   |            | 0.9429     |            |       |  0.75

Nlocal:    19652 ave 19652 max 19652 min
Histogram: 1 0 0 0 0 0 0 0 0 0
Nghost:    13714 ave 13714 max 13714 min
Histogram: 1 0 0 0 0 0 0 0 0 0
Neighs:    701399 ave 701399 max 701399 min
Histogram: 1 0 0 0 0 0 0 0 0 0

Total # of neighbors = 701399
Ave neighs/atom = 35.691
Neighbor list builds = 1505
Dangerous builds not checked
Setting up Verlet run ...
  Unit style    : metal
  Current step  : 80000
  Time step     : 0.001
Per MPI rank memory allocation (min/avg/max) = 18.2 | 18.2 | 18.2 Mbytes
Step Temp Press TotEng PotEng Enthalpy 
   80000    1454.8231   -67.141927   -75692.465   -79387.849   -75720.829 
   80495    1400.6756    30.020624   -75917.983   -79475.827   -75905.327 
Loop time of 40.5029 on 1 procs for 495 steps with 19652 atoms

Performance: 1.056 ns/day, 22.729 hours/ns, 12.221 timesteps/s
99.8% CPU use with 1 MPI tasks x no OpenMP threads

MPI task timing breakdown:
Section |  min time  |  avg time  |  max time  |%varavg| %total
---------------------------------------------------------------
Pair    | 20.355     | 20.355     | 20.355     |   0.0 | 50.26
Neigh   | 18.32      | 18.32      | 18.32      |   0.0 | 45.23
Comm    | 0.60052    | 0.60052    | 0.60052    |   0.0 |  1.48
Output  | 0.000283   | 0.000283   | 0.000283   |   0.0 |  0.00
Modify  | 0.92788    | 0.92788    | 0.92788    |   0.0 |  2.29
Other   |            | 0.299      |            |       |  0.74

Nlocal:    19652 ave 19652 max 19652 min
Histogram: 1 0 0 0 0 0 0 0 0 0
Nghost:    13734 ave 13734 max 13734 min
Histogram: 1 0 0 0 0 0 0 0 0 0
Neighs:    702374 ave 702374 max 702374 min
Histogram: 1 0 0 0 0 0 0 0 0 0

Total # of neighbors = 702374
Ave neighs/atom = 35.7406
Neighbor list builds = 495
Dangerous builds not checked
Setting up Verlet run ...
  Unit style    : metal
  Current step  : 80495
  Time step     : 0.001
Per MPI rank memory allocation (min/avg/max) = 18.2 | 18.2 | 18.2 Mbytes
Step Temp Press TotEng PotEng Enthalpy 
   80495    1400.6756    30.020624   -75917.983   -79475.827   -75905.327 
   82000    1389.5598   -439.48967   -76077.013   -79606.622    -76262.29 
Loop time of 124.95 on 1 procs for 1505 steps with 19652 atoms

Performance: 1.041 ns/day, 23.062 hours/ns, 12.045 timesteps/s
99.3% CPU use with 1 MPI tasks x no OpenMP threads

MPI task timing breakdown:
Section |  min time  |  avg time  |  max time  |%varavg| %total
---------------------------------------------------------------
Pair    | 62.638     | 62.638     | 62.638     |   0.0 | 50.13
Neigh   | 56.746     | 56.746     | 56.746     |   0.0 | 45.41
Comm    | 1.816      | 1.816      | 1.816      |   0.0 |  1.45
Output  | 0.042852   | 0.042852   | 0.042852   |   0.0 |  0.03
Modify  | 2.7827     | 2.7827     | 2.7827     |   0.0 |  2.23
Other   |            | 0.925      |            |       |  0.74

Nlocal:    19652 ave 19652 max 19652 min
Histogram: 1 0 0 0 0 0 0 0 0 0
Nghost:    13811 ave 13811 max 13811 min
Histogram: 1 0 0 0 0 0 0 0 0 0
Neighs:    702295 ave 702295 max 702295 min
Histogram: 1 0 0 0 0 0 0 0 0 0

Total # of neighbors = 702295
Ave neighs/atom = 35.7366
Neighbor list builds = 1505
Dangerous builds not checked
Setting up Verlet run ...
  Unit style    : metal
  Current step  : 82000
  Time step     : 0.001
Per MPI rank memory allocation (min/avg/max) = 18.2 | 18.2 | 18.2 Mbytes
Step Temp Press TotEng PotEng Enthalpy 
   82000    1389.5598   -439.48967   -76077.013   -79606.622    -76262.29 
   82495     1356.165   -148.95111   -76271.884   -79716.667    -76334.55 
Loop time of 43.7347 on 1 procs for 495 steps with 19652 atoms

Performance: 0.978 ns/day, 24.542 hours/ns, 11.318 timesteps/s
99.1% CPU use with 1 MPI tasks x no OpenMP threads

MPI task timing breakdown:
Section |  min time  |  avg time  |  max time  |%varavg| %total
---------------------------------------------------------------
Pair    | 22.26      | 22.26      | 22.26      |   0.0 | 50.90
Neigh   | 19.125     | 19.125     | 19.125     |   0.0 | 43.73
Comm    | 0.75531    | 0.75531    | 0.75531    |   0.0 |  1.73
Output  | 0.00048208 | 0.00048208 | 0.00048208 |   0.0 |  0.00
Modify  | 1.199      | 1.199      | 1.199      |   0.0 |  2.74
Other   |            | 0.3952     |            |       |  0.90

Nlocal:    19652 ave 19652 max 19652 min
Histogram: 1 0 0 0 0 0 0 0 0 0
Nghost:    13764 ave 13764 max 13764 min
Histogram: 1 0 0 0 0 0 0 0 0 0
Neighs:    702989 ave 702989 max 702989 min
Histogram: 1 0 0 0 0 0 0 0 0 0

Total # of neighbors = 702989
Ave neighs/atom = 35.7719
Neighbor list builds = 495
Dangerous builds not checked
Setting up Verlet run ...
  Unit style    : metal
  Current step  : 82495
  Time step     : 0.001
Per MPI rank memory allocation (min/avg/max) = 18.2 | 18.2 | 18.2 Mbytes
Step Temp Press TotEng PotEng Enthalpy 
   82495     1356.165   -148.95111   -76271.884   -79716.667    -76334.55 
   84000    1337.0294    599.65243   -76414.357   -79810.534   -76162.995 
Loop time of 137.855 on 1 procs for 1505 steps with 19652 atoms

Performance: 0.943 ns/day, 25.444 hours/ns, 10.917 timesteps/s
99.8% CPU use with 1 MPI tasks x no OpenMP threads

MPI task timing breakdown:
Section |  min time  |  avg time  |  max time  |%varavg| %total
---------------------------------------------------------------
Pair    | 69.842     | 69.842     | 69.842     |   0.0 | 50.66
Neigh   | 59.478     | 59.478     | 59.478     |   0.0 | 43.15
Comm    | 2.49       | 2.49       | 2.49       |   0.0 |  1.81
Output  | 0.049834   | 0.049834   | 0.049834   |   0.0 |  0.04
Modify  | 4.4575     | 4.4575     | 4.4575     |   0.0 |  3.23
Other   |            | 1.537      |            |       |  1.11

Nlocal:    19652 ave 19652 max 19652 min
Histogram: 1 0 0 0 0 0 0 0 0 0
Nghost:    13893 ave 13893 max 13893 min
Histogram: 1 0 0 0 0 0 0 0 0 0
Neighs:    705104 ave 705104 max 705104 min
Histogram: 1 0 0 0 0 0 0 0 0 0

Total # of neighbors = 705104
Ave neighs/atom = 35.8795
Neighbor list builds = 1505
Dangerous builds not checked
Setting up Verlet run ...
  Unit style    : metal
  Current step  : 84000
  Time step     : 0.001
Per MPI rank memory allocation (min/avg/max) = 18.2 | 18.2 | 18.2 Mbytes
Step Temp Press TotEng PotEng Enthalpy 
   84000    1337.0294    599.65243   -76414.357   -79810.534   -76162.995 
   84495    1325.6194    704.66488    -76581.98   -79949.174   -76286.937 
Loop time of 43.3535 on 1 procs for 495 steps with 19652 atoms

Performance: 0.986 ns/day, 24.329 hours/ns, 11.418 timesteps/s
99.8% CPU use with 1 MPI tasks x no OpenMP threads

MPI task timing breakdown:
Section |  min time  |  avg time  |  max time  |%varavg| %total
---------------------------------------------------------------
Pair    | 21.881     | 21.881     | 21.881     |   0.0 | 50.47
Neigh   | 18.98      | 18.98      | 18.98      |   0.0 | 43.78
Comm    | 0.73602    | 0.73602    | 0.73602    |   0.0 |  1.70
Output  | 0.00018311 | 0.00018311 | 0.00018311 |   0.0 |  0.00
Modify  | 1.3021     | 1.3021     | 1.3021     |   0.0 |  3.00
Other   |            | 0.4543     |            |       |  1.05

Nlocal:    19652 ave 19652 max 19652 min
Histogram: 1 0 0 0 0 0 0 0 0 0
Nghost:    13834 ave 13834 max 13834 min
Histogram: 1 0 0 0 0 0 0 0 0 0
Neighs:    705776 ave 705776 max 705776 min
Histogram: 1 0 0 0 0 0 0 0 0 0

Total # of neighbors = 705776
Ave neighs/atom = 35.9137
Neighbor list builds = 495
Dangerous builds not checked
Setting up Verlet run ...
  Unit style    : metal
  Current step  : 84495
  Time step     : 0.001
Per MPI rank memory allocation (min/avg/max) = 18.2 | 18.2 | 18.2 Mbytes
Step Temp Press TotEng PotEng Enthalpy 
   84495    1325.6194    704.66488    -76581.98   -79949.174   -76286.937 
   86000    1295.2968   -813.67482   -76728.615   -80018.787   -77070.453 
Loop time of 125.349 on 1 procs for 1505 steps with 19652 atoms

Performance: 1.037 ns/day, 23.136 hours/ns, 12.007 timesteps/s
99.5% CPU use with 1 MPI tasks x no OpenMP threads

MPI task timing breakdown:
Section |  min time  |  avg time  |  max time  |%varavg| %total
---------------------------------------------------------------
Pair    | 63.016     | 63.016     | 63.016     |   0.0 | 50.27
Neigh   | 56.711     | 56.711     | 56.711     |   0.0 | 45.24
Comm    | 1.8193     | 1.8193     | 1.8193     |   0.0 |  1.45
Output  | 0.042954   | 0.042954   | 0.042954   |   0.0 |  0.03
Modify  | 2.8039     | 2.8039     | 2.8039     |   0.0 |  2.24
Other   |            | 0.9546     |            |       |  0.76

Nlocal:    19652 ave 19652 max 19652 min
Histogram: 1 0 0 0 0 0 0 0 0 0
Nghost:    13807 ave 13807 max 13807 min
Histogram: 1 0 0 0 0 0 0 0 0 0
Neighs:    702431 ave 702431 max 702431 min
Histogram: 1 0 0 0 0 0 0 0 0 0

Total # of neighbors = 702431
Ave neighs/atom = 35.7435
Neighbor list builds = 1505
Dangerous builds not checked
Setting up Verlet run ...
  Unit style    : metal
  Current step  : 86000
  Time step     : 0.001
Per MPI rank memory allocation (min/avg/max) = 18.2 | 18.2 | 18.2 Mbytes
Step Temp Press TotEng PotEng Enthalpy 
   86000    1295.2968   -813.67482   -76728.615   -80018.787   -77070.453 
   86495    1256.6203   -504.34552   -76928.756   -80120.686    -77140.17 
Loop time of 41.9946 on 1 procs for 495 steps with 19652 atoms

Performance: 1.018 ns/day, 23.566 hours/ns, 11.787 timesteps/s
99.4% CPU use with 1 MPI tasks x no OpenMP threads

MPI task timing breakdown:
Section |  min time  |  avg time  |  max time  |%varavg| %total
---------------------------------------------------------------
Pair    | 21.377     | 21.377     | 21.377     |   0.0 | 50.90
Neigh   | 18.665     | 18.665     | 18.665     |   0.0 | 44.45
Comm    | 0.64405    | 0.64405    | 0.64405    |   0.0 |  1.53
Output  | 0.00027204 | 0.00027204 | 0.00027204 |   0.0 |  0.00
Modify  | 0.98254    | 0.98254    | 0.98254    |   0.0 |  2.34
Other   |            | 0.3253     |            |       |  0.77

Nlocal:    19652 ave 19652 max 19652 min
Histogram: 1 0 0 0 0 0 0 0 0 0
Nghost:    13846 ave 13846 max 13846 min
Histogram: 1 0 0 0 0 0 0 0 0 0
Neighs:    704155 ave 704155 max 704155 min
Histogram: 1 0 0 0 0 0 0 0 0 0

Total # of neighbors = 704155
Ave neighs/atom = 35.8312
Neighbor list builds = 495
Dangerous builds not checked
Setting up Verlet run ...
  Unit style    : metal
  Current step  : 86495
  Time step     : 0.001
Per MPI rank memory allocation (min/avg/max) = 18.2 | 18.2 | 18.2 Mbytes
Step Temp Press TotEng PotEng Enthalpy 
   86495    1256.6203   -504.34552   -76928.756   -80120.686    -77140.17 
   88000    1242.4113    849.66109   -77050.319   -80206.157   -76695.776 
Loop time of 130.009 on 1 procs for 1505 steps with 19652 atoms

Performance: 1.000 ns/day, 23.996 hours/ns, 11.576 timesteps/s
99.1% CPU use with 1 MPI tasks x no OpenMP threads

MPI task timing breakdown:
Section |  min time  |  avg time  |  max time  |%varavg| %total
---------------------------------------------------------------
Pair    | 66.035     | 66.035     | 66.035     |   0.0 | 50.79
Neigh   | 57.826     | 57.826     | 57.826     |   0.0 | 44.48
Comm    | 2.0412     | 2.0412     | 2.0412     |   0.0 |  1.57
Output  | 0.047298   | 0.047298   | 0.047298   |   0.0 |  0.04
Modify  | 3.0341     | 3.0341     | 3.0341     |   0.0 |  2.33
Other   |            | 1.025      |            |       |  0.79

Nlocal:    19652 ave 19652 max 19652 min
Histogram: 1 0 0 0 0 0 0 0 0 0
Nghost:    13797 ave 13797 max 13797 min
Histogram: 1 0 0 0 0 0 0 0 0 0
Neighs:    706394 ave 706394 max 706394 min
Histogram: 1 0 0 0 0 0 0 0 0 0

Total # of neighbors = 706394
Ave neighs/atom = 35.9451
Neighbor list builds = 1505
Dangerous builds not checked
Setting up Verlet run ...
  Unit style    : metal
  Current step  : 88000
  Time step     : 0.001
Per MPI rank memory allocation (min/avg/max) = 18.2 | 18.2 | 18.2 Mbytes
Step Temp Press TotEng PotEng Enthalpy 
   88000    1242.4113    849.66109   -77050.319   -80206.157   -76695.776 
   88495    1216.8867     476.2281   -77260.192   -80351.195   -77061.535 
Loop time of 43.3729 on 1 procs for 495 steps with 19652 atoms

Performance: 0.986 ns/day, 24.339 hours/ns, 11.413 timesteps/s
99.8% CPU use with 1 MPI tasks x no OpenMP threads

MPI task timing breakdown:
Section |  min time  |  avg time  |  max time  |%varavg| %total
---------------------------------------------------------------
Pair    | 22.373     | 22.373     | 22.373     |   0.0 | 51.58
Neigh   | 18.915     | 18.915     | 18.915     |   0.0 | 43.61
Comm    | 0.66567    | 0.66567    | 0.66567    |   0.0 |  1.53
Output  | 0.00027704 | 0.00027704 | 0.00027704 |   0.0 |  0.00
Modify  | 1.0268     | 1.0268     | 1.0268     |   0.0 |  2.37
Other   |            | 0.3924     |            |       |  0.90

Nlocal:    19652 ave 19652 max 19652 min
Histogram: 1 0 0 0 0 0 0 0 0 0
Nghost:    13850 ave 13850 max 13850 min
Histogram: 1 0 0 0 0 0 0 0 0 0
Neighs:    706048 ave 706048 max 706048 min
Histogram: 1 0 0 0 0 0 0 0 0 0

Total # of neighbors = 706048
Ave neighs/atom = 35.9275
Neighbor list builds = 495
Dangerous builds not checked
Setting up Verlet run ...
  Unit style    : metal
  Current step  : 88495
  Time step     : 0.001
Per MPI rank memory allocation (min/avg/max) = 18.2 | 18.2 | 18.2 Mbytes
Step Temp Press TotEng PotEng Enthalpy 
   88495    1216.8867     476.2281   -77260.192   -80351.195   -77061.535 
   90000    1206.4465   -787.31198   -77360.183   -80424.667   -77689.565 
Loop time of 123.386 on 1 procs for 1505 steps with 19652 atoms

Performance: 1.054 ns/day, 22.773 hours/ns, 12.197 timesteps/s
98.9% CPU use with 1 MPI tasks x no OpenMP threads

MPI task timing breakdown:
Section |  min time  |  avg time  |  max time  |%varavg| %total
---------------------------------------------------------------
Pair    | 61.572     | 61.572     | 61.572     |   0.0 | 49.90
Neigh   | 56.616     | 56.616     | 56.616     |   0.0 | 45.89
Comm    | 1.6375     | 1.6375     | 1.6375     |   0.0 |  1.33
Output  | 0.042583   | 0.042583   | 0.042583   |   0.0 |  0.03
Modify  | 2.5491     | 2.5491     | 2.5491     |   0.0 |  2.07
Other   |            | 0.969      |            |       |  0.79

Nlocal:    19652 ave 19652 max 19652 min
Histogram: 1 0 0 0 0 0 0 0 0 0
Nghost:    13831 ave 13831 max 13831 min
Histogram: 1 0 0 0 0 0 0 0 0 0
Neighs:    703262 ave 703262 max 703262 min
Histogram: 1 0 0 0 0 0 0 0 0 0

Total # of neighbors = 703262
Ave neighs/atom = 35.7858
Neighbor list builds = 1505
Dangerous builds not checked
Setting up Verlet run ...
  Unit style    : metal
  Current step  : 90000
  Time step     : 0.001
Per MPI rank memory allocation (min/avg/max) = 18.2 | 18.2 | 18.2 Mbytes
Step Temp Press TotEng PotEng Enthalpy 
   90000    1206.4465   -787.31198   -77360.183   -80424.667   -77689.565 
   90495    1168.9169   -408.99366    -77595.63   -80564.785   -77766.356 
Loop time of 38.6043 on 1 procs for 495 steps with 19652 atoms

Performance: 1.108 ns/day, 21.663 hours/ns, 12.822 timesteps/s
99.8% CPU use with 1 MPI tasks x no OpenMP threads

MPI task timing breakdown:
Section |  min time  |  avg time  |  max time  |%varavg| %total
---------------------------------------------------------------
Pair    | 19.034     | 19.034     | 19.034     |   0.0 | 49.31
Neigh   | 18.044     | 18.044     | 18.044     |   0.0 | 46.74
Comm    | 0.4755     | 0.4755     | 0.4755     |   0.0 |  1.23
Output  | 0.00018597 | 0.00018597 | 0.00018597 |   0.0 |  0.00
Modify  | 0.75632    | 0.75632    | 0.75632    |   0.0 |  1.96
Other   |            | 0.2942     |            |       |  0.76

Nlocal:    19652 ave 19652 max 19652 min
Histogram: 1 0 0 0 0 0 0 0 0 0
Nghost:    13872 ave 13872 max 13872 min
Histogram: 1 0 0 0 0 0 0 0 0 0
Neighs:    704609 ave 704609 max 704609 min
Histogram: 1 0 0 0 0 0 0 0 0 0

Total # of neighbors = 704609
Ave neighs/atom = 35.8543
Neighbor list builds = 495
Dangerous builds not checked
Setting up Verlet run ...
  Unit style    : metal
  Current step  : 90495
  Time step     : 0.001
Per MPI rank memory allocation (min/avg/max) = 18.2 | 18.2 | 18.2 Mbytes
Step Temp Press TotEng PotEng Enthalpy 
   90495    1168.9169   -408.99366    -77595.63   -80564.785   -77766.356 
   92000     1149.476    743.07089   -77690.813   -80610.587   -77382.029 
Loop time of 143.796 on 1 procs for 1505 steps with 19652 atoms

Performance: 0.904 ns/day, 26.540 hours/ns, 10.466 timesteps/s
99.8% CPU use with 1 MPI tasks x no OpenMP threads

MPI task timing breakdown:
Section |  min time  |  avg time  |  max time  |%varavg| %total
[...]
Nghost:    14023 ave 14023 max 14023 min
Histogram: 1 0 0 0 0 0 0 0 0 0
Neighs:    708767 ave 708767 max 708767 min
Histogram: 1 0 0 0 0 0 0 0 0 0

Total # of neighbors = 708767
Ave neighs/atom = 36.0659
Neighbor list builds = 1505
Dangerous builds not checked
Setting up Verlet run ...
  Unit style    : metal
  Current step  : 120000
  Time step     : 0.001
Per MPI rank memory allocation (min/avg/max) = 18.2 | 18.2 | 18.2 Mbytes
Step Temp Press TotEng PotEng Enthalpy 
  120000    449.08637   -225.98984   -82072.774   -83213.494   -82164.452 
  120495    421.96673   -91.423102   -82233.934   -83305.768   -82270.971 
Loop time of 38.9874 on 1 procs for 495 steps with 19652 atoms

Performance: 1.097 ns/day, 21.878 hours/ns, 12.696 timesteps/s
99.6% CPU use with 1 MPI tasks x no OpenMP threads

MPI task timing breakdown:
Section |  min time  |  avg time  |  max time  |%varavg| %total
---------------------------------------------------------------
Pair    | 19.515     | 19.515     | 19.515     |   0.0 | 50.06
Neigh   | 17.928     | 17.928     | 17.928     |   0.0 | 45.98
Comm    | 0.47606    | 0.47606    | 0.47606    |   0.0 |  1.22
Output  | 0.000278   | 0.000278   | 0.000278   |   0.0 |  0.00
Modify  | 0.76761    | 0.76761    | 0.76761    |   0.0 |  1.97
Other   |            | 0.3002     |            |       |  0.77

Nlocal:    19652 ave 19652 max 19652 min
Histogram: 1 0 0 0 0 0 0 0 0 0
Nghost:    14031 ave 14031 max 14031 min
Histogram: 1 0 0 0 0 0 0 0 0 0
Neighs:    708931 ave 708931 max 708931 min
Histogram: 1 0 0 0 0 0 0 0 0 0

Total # of neighbors = 708931
Ave neighs/atom = 36.0742
Neighbor list builds = 495
Dangerous builds not checked
Setting up Verlet run ...
  Unit style    : metal
  Current step  : 120495
  Time step     : 0.001
Per MPI rank memory allocation (min/avg/max) = 18.2 | 18.2 | 18.2 Mbytes
Step Temp Press TotEng PotEng Enthalpy 
  120495    421.96673   -91.423102   -82233.934   -83305.768   -82270.971 
  122000    399.11697     340.0463   -82348.485   -83362.278   -82210.968 
Loop time of 116.396 on 1 procs for 1505 steps with 19652 atoms

Performance: 1.117 ns/day, 21.483 hours/ns, 12.930 timesteps/s
99.4% CPU use with 1 MPI tasks x no OpenMP threads

MPI task timing breakdown:
Section |  min time  |  avg time  |  max time  |%varavg| %total
---------------------------------------------------------------
Pair    | 57.975     | 57.975     | 57.975     |   0.0 | 49.81
Neigh   | 53.915     | 53.915     | 53.915     |   0.0 | 46.32
Comm    | 1.3895     | 1.3895     | 1.3895     |   0.0 |  1.19
Output  | 0.040509   | 0.040509   | 0.040509   |   0.0 |  0.03
Modify  | 2.237      | 2.237      | 2.237      |   0.0 |  1.92
Other   |            | 0.8386     |            |       |  0.72

Nlocal:    19652 ave 19652 max 19652 min
Histogram: 1 0 0 0 0 0 0 0 0 0
Nghost:    14048 ave 14048 max 14048 min
Histogram: 1 0 0 0 0 0 0 0 0 0
Neighs:    709793 ave 709793 max 709793 min
Histogram: 1 0 0 0 0 0 0 0 0 0

Total # of neighbors = 709793
Ave neighs/atom = 36.1181
Neighbor list builds = 1505
Dangerous builds not checked
Setting up Verlet run ...
  Unit style    : metal
  Current step  : 122000
  Time step     : 0.001
Per MPI rank memory allocation (min/avg/max) = 18.2 | 18.2 | 18.2 Mbytes
Step Temp Press TotEng PotEng Enthalpy 
  122000    399.11697     340.0463   -82348.485   -83362.278   -82210.968 
  122495    372.19076    314.73825   -82499.574   -83444.972   -82372.412 
Loop time of 38.543 on 1 procs for 495 steps with 19652 atoms

Performance: 1.110 ns/day, 21.629 hours/ns, 12.843 timesteps/s
98.2% CPU use with 1 MPI tasks x no OpenMP threads

MPI task timing breakdown:
Section |  min time  |  avg time  |  max time  |%varavg| %total
---------------------------------------------------------------
Pair    | 19.237     | 19.237     | 19.237     |   0.0 | 49.91
Neigh   | 17.832     | 17.832     | 17.832     |   0.0 | 46.27
Comm    | 0.45767    | 0.45767    | 0.45767    |   0.0 |  1.19
Output  | 0.00027895 | 0.00027895 | 0.00027895 |   0.0 |  0.00
Modify  | 0.74263    | 0.74263    | 0.74263    |   0.0 |  1.93
Other   |            | 0.2734     |            |       |  0.71

Nlocal:    19652 ave 19652 max 19652 min
Histogram: 1 0 0 0 0 0 0 0 0 0
Nghost:    14048 ave 14048 max 14048 min
Histogram: 1 0 0 0 0 0 0 0 0 0
Neighs:    710604 ave 710604 max 710604 min
Histogram: 1 0 0 0 0 0 0 0 0 0

Total # of neighbors = 710604
Ave neighs/atom = 36.1594
Neighbor list builds = 495
Dangerous builds not checked
Setting up Verlet run ...
  Unit style    : metal
  Current step  : 122495
  Time step     : 0.001
Per MPI rank memory allocation (min/avg/max) = 18.2 | 18.2 | 18.2 Mbytes
Step Temp Press TotEng PotEng Enthalpy 
  122495    372.19076    314.73825   -82499.574   -83444.972   -82372.412 
  124000     349.6919    569.95563   -82616.491    -83504.74   -82386.511 
Loop time of 117.522 on 1 procs for 1505 steps with 19652 atoms

Performance: 1.106 ns/day, 21.691 hours/ns, 12.806 timesteps/s
99.9% CPU use with 1 MPI tasks x no OpenMP threads

MPI task timing breakdown:
Section |  min time  |  avg time  |  max time  |%varavg| %total
---------------------------------------------------------------
Pair    | 59.154     | 59.154     | 59.154     |   0.0 | 50.33
Neigh   | 53.831     | 53.831     | 53.831     |   0.0 | 45.81
Comm    | 1.3984     | 1.3984     | 1.3984     |   0.0 |  1.19
Output  | 0.043101   | 0.043101   | 0.043101   |   0.0 |  0.04
Modify  | 2.2667     | 2.2667     | 2.2667     |   0.0 |  1.93
Other   |            | 0.8284     |            |       |  0.70

Nlocal:    19652 ave 19652 max 19652 min
Histogram: 1 0 0 0 0 0 0 0 0 0
Nghost:    14040 ave 14040 max 14040 min
Histogram: 1 0 0 0 0 0 0 0 0 0
Neighs:    710785 ave 710785 max 710785 min
Histogram: 1 0 0 0 0 0 0 0 0 0

Total # of neighbors = 710785
Ave neighs/atom = 36.1686
Neighbor list builds = 1505
Dangerous builds not checked
Setting up Verlet run ...
  Unit style    : metal
  Current step  : 124000
  Time step     : 0.001
Per MPI rank memory allocation (min/avg/max) = 18.2 | 18.2 | 18.2 Mbytes
Step Temp Press TotEng PotEng Enthalpy 
  124000     349.6919    569.95563   -82616.491    -83504.74   -82386.511 
  124495     324.0478   -217.95646   -82763.505   -83586.616   -82851.548 
Loop time of 39.0166 on 1 procs for 495 steps with 19652 atoms

Performance: 1.096 ns/day, 21.895 hours/ns, 12.687 timesteps/s
98.6% CPU use with 1 MPI tasks x no OpenMP threads

MPI task timing breakdown:
Section |  min time  |  avg time  |  max time  |%varavg| %total
---------------------------------------------------------------
Pair    | 19.585     | 19.585     | 19.585     |   0.0 | 50.20
Neigh   | 17.886     | 17.886     | 17.886     |   0.0 | 45.84
Comm    | 0.47895    | 0.47895    | 0.47895    |   0.0 |  1.23
Output  | 0.0004499  | 0.0004499  | 0.0004499  |   0.0 |  0.00
Modify  | 0.78682    | 0.78682    | 0.78682    |   0.0 |  2.02
Other   |            | 0.2794     |            |       |  0.72

Nlocal:    19652 ave 19652 max 19652 min
Histogram: 1 0 0 0 0 0 0 0 0 0
Nghost:    14053 ave 14053 max 14053 min
Histogram: 1 0 0 0 0 0 0 0 0 0
Neighs:    709597 ave 709597 max 709597 min
Histogram: 1 0 0 0 0 0 0 0 0 0

Total # of neighbors = 709597
Ave neighs/atom = 36.1081
Neighbor list builds = 495
Dangerous builds not checked
Setting up Verlet run ...
  Unit style    : metal
  Current step  : 124495
  Time step     : 0.001
Per MPI rank memory allocation (min/avg/max) = 18.2 | 18.2 | 18.2 Mbytes
Step Temp Press TotEng PotEng Enthalpy 
  124495     324.0478   -217.95646   -82763.505   -83586.616   -82851.548 
  126000    301.14728    554.41311   -82893.785   -83658.727   -82670.433 
Loop time of 142.525 on 1 procs for 1505 steps with 19652 atoms

Performance: 0.912 ns/day, 26.306 hours/ns, 10.560 timesteps/s
99.8% CPU use with 1 MPI tasks x no OpenMP threads

MPI task timing breakdown:
Section |  min time  |  avg time  |  max time  |%varavg| %total
---------------------------------------------------------------
Pair    | 74.017     | 74.017     | 74.017     |   0.0 | 51.93
Neigh   | 58.579     | 58.579     | 58.579     |   0.0 | 41.10
Comm    | 2.8731     | 2.8731     | 2.8731     |   0.0 |  2.02
Output  | 0.050122   | 0.050122   | 0.050122   |   0.0 |  0.04
Modify  | 5.2654     | 5.2654     | 5.2654     |   0.0 |  3.69
Other   |            | 1.74       |            |       |  1.22

Nlocal:    19652 ave 19652 max 19652 min
Histogram: 1 0 0 0 0 0 0 0 0 0
Nghost:    14055 ave 14055 max 14055 min
Histogram: 1 0 0 0 0 0 0 0 0 0
Neighs:    711132 ave 711132 max 711132 min
Histogram: 1 0 0 0 0 0 0 0 0 0

Total # of neighbors = 711132
Ave neighs/atom = 36.1862
Neighbor list builds = 1505
Dangerous builds not checked
Setting up Verlet run ...
  Unit style    : metal
  Current step  : 126000
  Time step     : 0.001
Per MPI rank memory allocation (min/avg/max) = 18.2 | 18.2 | 18.2 Mbytes
Step Temp Press TotEng PotEng Enthalpy 
  126000    301.14728    554.41311   -82893.785   -83658.727   -82670.433 
  126495    272.78258   -417.96235   -83033.228   -83726.121   -83201.874 
Loop time of 40.2025 on 1 procs for 495 steps with 19652 atoms

Performance: 1.064 ns/day, 22.560 hours/ns, 12.313 timesteps/s
99.0% CPU use with 1 MPI tasks x no OpenMP threads

MPI task timing breakdown:
Section |  min time  |  avg time  |  max time  |%varavg| %total
---------------------------------------------------------------
Pair    | 20.38      | 20.38      | 20.38      |   0.0 | 50.69
Neigh   | 18.041     | 18.041     | 18.041     |   0.0 | 44.87
Comm    | 0.54124    | 0.54124    | 0.54124    |   0.0 |  1.35
Output  | 0.00028801 | 0.00028801 | 0.00028801 |   0.0 |  0.00
Modify  | 0.91661    | 0.91661    | 0.91661    |   0.0 |  2.28
Other   |            | 0.3232     |            |       |  0.80

Nlocal:    19652 ave 19652 max 19652 min
Histogram: 1 0 0 0 0 0 0 0 0 0
Nghost:    14053 ave 14053 max 14053 min
Histogram: 1 0 0 0 0 0 0 0 0 0
Neighs:    709413 ave 709413 max 709413 min
Histogram: 1 0 0 0 0 0 0 0 0 0

Total # of neighbors = 709413
Ave neighs/atom = 36.0988
Neighbor list builds = 495
Dangerous builds not checked
Setting up Verlet run ...
  Unit style    : metal
  Current step  : 126495
  Time step     : 0.001
Per MPI rank memory allocation (min/avg/max) = 18.2 | 18.2 | 18.2 Mbytes
Step Temp Press TotEng PotEng Enthalpy 
  126495    272.78258   -417.96235   -83033.228   -83726.121   -83201.874 
  128000     250.4775   -9.9109438   -83156.105   -83792.341   -83160.097 
Loop time of 119.566 on 1 procs for 1505 steps with 19652 atoms

Performance: 1.088 ns/day, 22.068 hours/ns, 12.587 timesteps/s
98.7% CPU use with 1 MPI tasks x no OpenMP threads

MPI task timing breakdown:
Section |  min time  |  avg time  |  max time  |%varavg| %total
---------------------------------------------------------------
Pair    | 60.355     | 60.355     | 60.355     |   0.0 | 50.48
Neigh   | 54.513     | 54.513     | 54.513     |   0.0 | 45.59
Comm    | 1.447      | 1.447      | 1.447      |   0.0 |  1.21
Output  | 0.046435   | 0.046435   | 0.046435   |   0.0 |  0.04
Modify  | 2.3284     | 2.3284     | 2.3284     |   0.0 |  1.95
Other   |            | 0.8767     |            |       |  0.73

Nlocal:    19652 ave 19652 max 19652 min
Histogram: 1 0 0 0 0 0 0 0 0 0
Nghost:    14072 ave 14072 max 14072 min
Histogram: 1 0 0 0 0 0 0 0 0 0
Neighs:    710189 ave 710189 max 710189 min
Histogram: 1 0 0 0 0 0 0 0 0 0

Total # of neighbors = 710189
Ave neighs/atom = 36.1383
Neighbor list builds = 1505
Dangerous builds not checked
Setting up Verlet run ...
  Unit style    : metal
  Current step  : 128000
  Time step     : 0.001
Per MPI rank memory allocation (min/avg/max) = 18.2 | 18.2 | 18.2 Mbytes
Step Temp Press TotEng PotEng Enthalpy 
  128000     250.4775   -9.9109438   -83156.105   -83792.341   -83160.097 
  128495    226.16462   -26.627874   -83291.012   -83865.491   -83301.729 
Loop time of 43.1313 on 1 procs for 495 steps with 19652 atoms

Performance: 0.992 ns/day, 24.204 hours/ns, 11.477 timesteps/s
99.8% CPU use with 1 MPI tasks x no OpenMP threads

MPI task timing breakdown:
Section |  min time  |  avg time  |  max time  |%varavg| %total
---------------------------------------------------------------
Pair    | 22.488     | 22.488     | 22.488     |   0.0 | 52.14
Neigh   | 18.499     | 18.499     | 18.499     |   0.0 | 42.89
Comm    | 0.69618    | 0.69618    | 0.69618    |   0.0 |  1.61
Output  | 0.00039506 | 0.00039506 | 0.00039506 |   0.0 |  0.00
Modify  | 1.0455     | 1.0455     | 1.0455     |   0.0 |  2.42
Other   |            | 0.402      |            |       |  0.93

Nlocal:    19652 ave 19652 max 19652 min
Histogram: 1 0 0 0 0 0 0 0 0 0
Nghost:    14058 ave 14058 max 14058 min
Histogram: 1 0 0 0 0 0 0 0 0 0
Neighs:    710506 ave 710506 max 710506 min
Histogram: 1 0 0 0 0 0 0 0 0 0

Total # of neighbors = 710506
Ave neighs/atom = 36.1544
Neighbor list builds = 495
Dangerous builds not checked
Setting up Verlet run ...
  Unit style    : metal
  Current step  : 128495
  Time step     : 0.001
Per MPI rank memory allocation (min/avg/max) = 18.2 | 18.2 | 18.2 Mbytes
Step Temp Press TotEng PotEng Enthalpy 
  128495    226.16462   -26.627874   -83291.012   -83865.491   -83301.729 
  130000    196.99301   -55.159727   -83427.844   -83928.225   -83450.031 
Loop time of 124.527 on 1 procs for 1505 steps with 19652 atoms

Performance: 1.044 ns/day, 22.984 hours/ns, 12.086 timesteps/s
99.7% CPU use with 1 MPI tasks x no OpenMP threads

MPI task timing breakdown:
Section |  min time  |  avg time  |  max time  |%varavg| %total
---------------------------------------------------------------
Pair    | 63.875     | 63.875     | 63.875     |   0.0 | 51.29
Neigh   | 55.073     | 55.073     | 55.073     |   0.0 | 44.23
Comm    | 1.7653     | 1.7653     | 1.7653     |   0.0 |  1.42
Output  | 0.042352   | 0.042352   | 0.042352   |   0.0 |  0.03
Modify  | 2.7204     | 2.7204     | 2.7204     |   0.0 |  2.18
Other   |            | 1.051      |            |       |  0.84

Nlocal:    19652 ave 19652 max 19652 min
Histogram: 1 0 0 0 0 0 0 0 0 0
Nghost:    14098 ave 14098 max 14098 min
Histogram: 1 0 0 0 0 0 0 0 0 0
Neighs:    710702 ave 710702 max 710702 min
Histogram: 1 0 0 0 0 0 0 0 0 0

Total # of neighbors = 710702
Ave neighs/atom = 36.1644
Neighbor list builds = 1505
Dangerous builds not checked
Setting up Verlet run ...
  Unit style    : metal
  Current step  : 130000
  Time step     : 0.001
Per MPI rank memory allocation (min/avg/max) = 18.2 | 18.2 | 18.2 Mbytes
Step Temp Press TotEng PotEng Enthalpy 
  130000    196.99301   -55.159727   -83427.844   -83928.225   -83450.031 
  130495    175.47069   -71.568991   -83548.844   -83994.556   -83577.612 
Loop time of 38.7313 on 1 procs for 495 steps with 19652 atoms

Performance: 1.104 ns/day, 21.735 hours/ns, 12.780 timesteps/s
99.8% CPU use with 1 MPI tasks x no OpenMP threads

MPI task timing breakdown:
Section |  min time  |  avg time  |  max time  |%varavg| %total
---------------------------------------------------------------
Pair    | 19.476     | 19.476     | 19.476     |   0.0 | 50.28
Neigh   | 17.726     | 17.726     | 17.726     |   0.0 | 45.77
Comm    | 0.47383    | 0.47383    | 0.47383    |   0.0 |  1.22
Output  | 0.00027895 | 0.00027895 | 0.00027895 |   0.0 |  0.00
Modify  | 0.76045    | 0.76045    | 0.76045    |   0.0 |  1.96
Other   |            | 0.2945     |            |       |  0.76

Nlocal:    19652 ave 19652 max 19652 min
Histogram: 1 0 0 0 0 0 0 0 0 0
Nghost:    14072 ave 14072 max 14072 min
Histogram: 1 0 0 0 0 0 0 0 0 0
Neighs:    711013 ave 711013 max 711013 min
Histogram: 1 0 0 0 0 0 0 0 0 0

Total # of neighbors = 711013
Ave neighs/atom = 36.1802
Neighbor list builds = 495
Dangerous builds not checked
Setting up Verlet run ...
  Unit style    : metal
  Current step  : 130495
  Time step     : 0.001
Per MPI rank memory allocation (min/avg/max) = 18.2 | 18.2 | 18.2 Mbytes
Step Temp Press TotEng PotEng Enthalpy 
  130495    175.47069   -71.568991   -83548.844   -83994.556   -83577.612 
  132000    150.36858   -16.190449    -83683.73    -84065.68    -83690.23 
Loop time of 116.802 on 1 procs for 1505 steps with 19652 atoms

Performance: 1.113 ns/day, 21.558 hours/ns, 12.885 timesteps/s
99.7% CPU use with 1 MPI tasks x no OpenMP threads

MPI task timing breakdown:
Section |  min time  |  avg time  |  max time  |%varavg| %total
---------------------------------------------------------------
Pair    | 58.621     | 58.621     | 58.621     |   0.0 | 50.19
Neigh   | 53.545     | 53.545     | 53.545     |   0.0 | 45.84
Comm    | 1.4327     | 1.4327     | 1.4327     |   0.0 |  1.23
Output  | 0.042121   | 0.042121   | 0.042121   |   0.0 |  0.04
Modify  | 2.317      | 2.317      | 2.317      |   0.0 |  1.98
Other   |            | 0.8444     |            |       |  0.72

Nlocal:    19652 ave 19652 max 19652 min
Histogram: 1 0 0 0 0 0 0 0 0 0
Nghost:    14091 ave 14091 max 14091 min
Histogram: 1 0 0 0 0 0 0 0 0 0
Neighs:    711010 ave 711010 max 711010 min
Histogram: 1 0 0 0 0 0 0 0 0 0

Total # of neighbors = 711010
Ave neighs/atom = 36.18
Neighbor list builds = 1505
Dangerous builds not checked
Setting up Verlet run ...
  Unit style    : metal
  Current step  : 132000
  Time step     : 0.001
Per MPI rank memory allocation (min/avg/max) = 18.2 | 18.2 | 18.2 Mbytes
Step Temp Press TotEng PotEng Enthalpy 
  132000    150.36858   -16.190449    -83683.73    -84065.68    -83690.23 
  132495    126.63698    19.856456   -83800.088   -84121.758   -83792.121 
Loop time of 38.1138 on 1 procs for 495 steps with 19652 atoms

Performance: 1.122 ns/day, 21.388 hours/ns, 12.987 timesteps/s
99.9% CPU use with 1 MPI tasks x no OpenMP threads

MPI task timing breakdown:
Section |  min time  |  avg time  |  max time  |%varavg| %total
---------------------------------------------------------------
Pair    | 19.082     | 19.082     | 19.082     |   0.0 | 50.07
Neigh   | 17.581     | 17.581     | 17.581     |   0.0 | 46.13
Comm    | 0.44755    | 0.44755    | 0.44755    |   0.0 |  1.17
Output  | 0.00018907 | 0.00018907 | 0.00018907 |   0.0 |  0.00
Modify  | 0.72747    | 0.72747    | 0.72747    |   0.0 |  1.91
Other   |            | 0.2753     |            |       |  0.72

Nlocal:    19652 ave 19652 max 19652 min
Histogram: 1 0 0 0 0 0 0 0 0 0
Nghost:    14094 ave 14094 max 14094 min
Histogram: 1 0 0 0 0 0 0 0 0 0
Neighs:    711169 ave 711169 max 711169 min
Histogram: 1 0 0 0 0 0 0 0 0 0

Total # of neighbors = 711169
Ave neighs/atom = 36.1881
Neighbor list builds = 495
Dangerous builds not checked
Setting up Verlet run ...
  Unit style    : metal
  Current step  : 132495
  Time step     : 0.001
Per MPI rank memory allocation (min/avg/max) = 18.2 | 18.2 | 18.2 Mbytes
Step Temp Press TotEng PotEng Enthalpy 
  132495    126.63698    19.856456   -83800.088   -84121.758   -83792.121 
  134000    99.791745    96.367338   -83944.192   -84197.672   -83905.568 
Loop time of 115.992 on 1 procs for 1505 steps with 19652 atoms

Performance: 1.121 ns/day, 21.409 hours/ns, 12.975 timesteps/s
99.9% CPU use with 1 MPI tasks x no OpenMP threads

MPI task timing breakdown:
Section |  min time  |  avg time  |  max time  |%varavg| %total
---------------------------------------------------------------
Pair    | 58.108     | 58.108     | 58.108     |   0.0 | 50.10
Neigh   | 53.434     | 53.434     | 53.434     |   0.0 | 46.07
Comm    | 1.3627     | 1.3627     | 1.3627     |   0.0 |  1.17
Output  | 0.041687   | 0.041687   | 0.041687   |   0.0 |  0.04
Modify  | 2.2092     | 2.2092     | 2.2092     |   0.0 |  1.90
Other   |            | 0.8362     |            |       |  0.72

Nlocal:    19652 ave 19652 max 19652 min
Histogram: 1 0 0 0 0 0 0 0 0 0
Nghost:    14125 ave 14125 max 14125 min
Histogram: 1 0 0 0 0 0 0 0 0 0
Neighs:    711821 ave 711821 max 711821 min
Histogram: 1 0 0 0 0 0 0 0 0 0

Total # of neighbors = 711821
Ave neighs/atom = 36.2213
Neighbor list builds = 1505
Dangerous builds not checked
Total wall time: 3:06:49
