LAMMPS (12 Dec 2018)
Lattice spacing in x,y,z = 4 4 4
Created orthogonal box = (0 0 0) to (68 68 68)
  1 by 1 by 1 MPI processor grid
Created 19652 atoms
  Time spent = 0.00307393 secs
Setting atom values ...
  206 settings made for type/fraction
Neighbor list info ...
  update every 1 steps, delay 0 steps, check no
  max neighbors/atom: 2000, page size: 100000
  master list distance cutoff = 8.2
  ghost atom cutoff = 8.2
  binsize = 4.1, bins = 17 17 17
  1 neighbor lists, perpetual/occasional/extra = 1 0 0
  (1) pair eam/alloy, perpetual
      attributes: half, newton on
      pair build: half/bin/atomonly/newton
      stencil: half/bin/3d/newton
      bin: standard
Setting up Verlet run ...
  Unit style    : metal
  Current step  : 0
  Time step     : 0.001
Per MPI rank memory allocation (min/avg/max) = 17.03 | 17.03 | 17.03 Mbytes
Step Temp Press TotEng PotEng Enthalpy Volume 
       0          300   -242575.04   -60023.057   -60785.085   -107629.14       314432 
    1000    670.78256   -76165.298   -60023.134   -61726.983   -74970.805       314432 
Loop time of 130.264 on 1 procs for 1000 steps with 19652 atoms

Performance: 0.663 ns/day, 36.184 hours/ns, 7.677 timesteps/s
98.2% CPU use with 1 MPI tasks x no OpenMP threads

MPI task timing breakdown:
Section |  min time  |  avg time  |  max time  |%varavg| %total
---------------------------------------------------------------
Pair    | 69.014     | 69.014     | 69.014     |   0.0 | 52.98
Neigh   | 58.48      | 58.48      | 58.48      |   0.0 | 44.89
Comm    | 1.434      | 1.434      | 1.434      |   0.0 |  1.10
Output  | 0.042677   | 0.042677   | 0.042677   |   0.0 |  0.03
Modify  | 0.65934    | 0.65934    | 0.65934    |   0.0 |  0.51
Other   |            | 0.6336     |            |       |  0.49

Nlocal:    19652 ave 19652 max 19652 min
Histogram: 1 0 0 0 0 0 0 0 0 0
Nghost:    18348 ave 18348 max 18348 min
Histogram: 1 0 0 0 0 0 0 0 0 0
Neighs:    1.43564e+06 ave 1.43564e+06 max 1.43564e+06 min
Histogram: 1 0 0 0 0 0 0 0 0 0

Total # of neighbors = 1435638
Ave neighs/atom = 73.053
Neighbor list builds = 1000
Dangerous builds not checked
Setting up Verlet run ...
  Unit style    : metal
  Current step  : 1000
  Time step     : 0.001
Per MPI rank memory allocation (min/avg/max) = 17.03 | 17.03 | 17.03 Mbytes
Step Temp Press TotEng PotEng Enthalpy Volume 
    1000    670.78256   -76165.298   -60023.134   -61726.983   -74970.805       314432 
    2000    398.84212   -2011.4383   -65478.497   -66491.592   -65787.899    246449.12 
Loop time of 158.312 on 1 procs for 1000 steps with 19652 atoms

Performance: 0.546 ns/day, 43.976 hours/ns, 6.317 timesteps/s
98.2% CPU use with 1 MPI tasks x no OpenMP threads

MPI task timing breakdown:
Section |  min time  |  avg time  |  max time  |%varavg| %total
---------------------------------------------------------------
Pair    | 83.826     | 83.826     | 83.826     |   0.0 | 52.95
Neigh   | 70.775     | 70.775     | 70.775     |   0.0 | 44.71
Comm    | 1.1727     | 1.1727     | 1.1727     |   0.0 |  0.74
Output  | 0.34954    | 0.34954    | 0.34954    |   0.0 |  0.22
Modify  | 1.556      | 1.556      | 1.556      |   0.0 |  0.98
Other   |            | 0.6324     |            |       |  0.40

Nlocal:    19652 ave 19652 max 19652 min
Histogram: 1 0 0 0 0 0 0 0 0 0
Nghost:    20005 ave 20005 max 20005 min
Histogram: 1 0 0 0 0 0 0 0 0 0
Neighs:    1.78753e+06 ave 1.78753e+06 max 1.78753e+06 min
Histogram: 1 0 0 0 0 0 0 0 0 0

Total # of neighbors = 1787532
Ave neighs/atom = 90.9593
Neighbor list builds = 1000
Dangerous builds not checked
Setting up Verlet run ...
  Unit style    : metal
  Current step  : 2000
  Time step     : 0.001
Per MPI rank memory allocation (min/avg/max) = 18.56 | 18.56 | 18.56 Mbytes
Step Temp Press TotEng PotEng Enthalpy Volume 
    2000    398.84212   -2011.4383   -65478.497   -66491.592   -65787.899    246449.12 
    3000    560.15673   -297.68754   -65678.256   -67101.105   -65722.808    239783.43 
    4000     813.4899    730.57166   -64773.737   -66840.076   -64663.912    240852.17 
    5000    1075.8172     -1361.79   -63501.243   -66233.917   -63708.531    243878.65 
    6000    1360.0214    449.39479   -62014.542    -65469.12   -61945.231    247106.21 
    7000     1609.449    1590.9592   -60227.541   -64315.688   -59977.102    252205.04 
    8000    1852.3175    1106.7171   -58019.288   -62724.343   -57839.563    260183.82 
    9000    2143.9426   -1044.6446   -54939.578   -60385.388    -55118.05     273722.6 
   10000    2429.8736    357.47031   -53001.821   -59173.921   -52939.197    280676.62 
Loop time of 1298.47 on 1 procs for 8000 steps with 19652 atoms

Performance: 0.532 ns/day, 45.086 hours/ns, 6.161 timesteps/s
97.7% CPU use with 1 MPI tasks x no OpenMP threads

MPI task timing breakdown:
Section |  min time  |  avg time  |  max time  |%varavg| %total
---------------------------------------------------------------
Pair    | 703.64     | 703.64     | 703.64     |   0.0 | 54.19
Neigh   | 566.44     | 566.44     | 566.44     |   0.0 | 43.62
Comm    | 9.7483     | 9.7483     | 9.7483     |   0.0 |  0.75
Output  | 0.35343    | 0.35343    | 0.35343    |   0.0 |  0.03
Modify  | 12.901     | 12.901     | 12.901     |   0.0 |  0.99
Other   |            | 5.394      |            |       |  0.42

Nlocal:    19652 ave 19652 max 19652 min
Histogram: 1 0 0 0 0 0 0 0 0 0
Nghost:    18798 ave 18798 max 18798 min
Histogram: 1 0 0 0 0 0 0 0 0 0
Neighs:    1.5748e+06 ave 1.5748e+06 max 1.5748e+06 min
Histogram: 1 0 0 0 0 0 0 0 0 0

Total # of neighbors = 1574797
Ave neighs/atom = 80.1342
Neighbor list builds = 8000
Dangerous builds not checked
Setting up Verlet run ...
  Unit style    : metal
  Current step  : 10000
  Time step     : 0.001
Per MPI rank memory allocation (min/avg/max) = 18.56 | 18.56 | 18.56 Mbytes
Step Temp Press TotEng PotEng Enthalpy Volume 
   10000    2429.8736    357.47031   -53001.821   -59173.921   -52939.197    280676.62 
   11000    2435.6102   -3096.9814   -52953.502   -59140.174   -53497.935    281654.12 
   12000    2431.6574   -358.72451   -52953.759   -59130.391   -53016.701    281117.95 
   13000    2451.5264   -637.59014    -52965.67   -59192.771   -53077.436    280850.85 
   14000    2455.4866   -596.94221   -52851.874   -59089.033    -52956.69    281325.17 
   15000    2438.8543    291.79324   -52990.739   -59185.651   -52939.611    280737.67 
   16000    2454.0371    -2014.793   -52791.892    -59025.37   -53146.775    282205.36 
   17000    2433.6512    838.01891   -52923.266   -59104.961   -52776.317    280944.69 
   18000    2458.8033    2543.0522   -52994.551   -59240.135   -52550.255    279915.83 
   19000     2461.551    620.13681   -52899.934   -59152.498   -52791.228    280851.89 
   20000    2434.6785   -2504.1547    -52931.45   -59115.755   -53371.959    281841.33 
   21000     2437.751   -1318.7019   -52970.454   -59162.564   -53201.966    281279.46 
   22000    2419.5913    561.27054   -52991.892   -59137.874    -52893.53     280778.5 
   23000    2422.6456   -2088.7369   -52946.934   -59100.675    -53314.21    281721.34 
   24000    2433.2669   -342.09065   -52918.365   -59099.085   -52978.442    281369.27 
   25000    2454.8931    661.21223   -52869.597   -59105.249   -52753.521    281262.68 
   26000     2452.632    3076.0215   -52930.288   -59160.197   -52392.226    280254.77 
   27000     2453.217    1052.1506   -52943.875    -59175.27   -52759.663    280511.42 
   28000    2467.5479    1646.1861   -52792.987   -59060.783   -52504.166    281099.25 
   29000    2468.3271    1112.3887   -52909.696   -59179.472   -52714.854    280632.13 
   30000    2472.6339    429.75806   -52805.381   -59086.097   -52729.952    281207.45 
   31000    2460.1706    332.14212   -52857.715   -59106.772   -52799.403    281281.43 
   32000     2463.173    793.75343   -52873.742   -59130.426   -52734.526    281005.05 
   33000    2455.3582    1444.9557   -52907.817    -59144.65    -52654.61    280757.04 
   34000    2434.8259   -563.14423    -52999.59   -59184.269   -53098.344    280961.22 
   35000    2447.3175    1055.7797   -52993.556   -59209.966   -52808.736    280470.31 
   36000    2481.8188   -574.82662   -52866.413   -59170.459   -52967.252    281062.15 
   37000    2435.4909   -249.95219   -52926.176   -59112.545   -52970.022    281046.69 
   38000    2436.4606   -2186.1058   -52977.464   -59166.296   -53361.433    281407.29 
   39000    2451.1699   -452.65538   -52923.181   -59149.375    -53002.61    281142.43 
   40000    2467.6545   -1372.0558   -52779.111   -59047.178   -53020.558    281942.26 
Loop time of 4773.48 on 1 procs for 30000 steps with 19652 atoms

Performance: 0.543 ns/day, 44.199 hours/ns, 6.285 timesteps/s
99.4% CPU use with 1 MPI tasks x no OpenMP threads

MPI task timing breakdown:
Section |  min time  |  avg time  |  max time  |%varavg| %total
---------------------------------------------------------------
Pair    | 2446.2     | 2446.2     | 2446.2     |   0.0 | 51.25
Neigh   | 2222.5     | 2222.5     | 2222.5     |   0.0 | 46.56
Comm    | 35.764     | 35.764     | 35.764     |   0.0 |  0.75
Output  | 1.3843     | 1.3843     | 1.3843     |   0.0 |  0.03
Modify  | 47.759     | 47.759     | 47.759     |   0.0 |  1.00
Other   |            | 19.89      |            |       |  0.42

Nlocal:    19652 ave 19652 max 19652 min
Histogram: 1 0 0 0 0 0 0 0 0 0
Nghost:    18753 ave 18753 max 18753 min
Histogram: 1 0 0 0 0 0 0 0 0 0
Neighs:    1.56817e+06 ave 1.56817e+06 max 1.56817e+06 min
Histogram: 1 0 0 0 0 0 0 0 0 0

Total # of neighbors = 1568170
Ave neighs/atom = 79.797
Neighbor list builds = 30000
Dangerous builds not checked
Setting up Verlet run ...
  Unit style    : metal
  Current step  : 40000
  Time step     : 0.001
Per MPI rank memory allocation (min/avg/max) = 18.58 | 18.58 | 18.58 Mbytes
Step Temp Press TotEng PotEng Enthalpy Volume 
   40000    2467.6545   -1372.0558   -52779.111   -59047.178   -53020.558    281942.26 
   40495    2414.0113   -1493.5006   -53121.608   -59253.416   -53383.209    280637.03 
Loop time of 79.2868 on 1 procs for 495 steps with 19652 atoms

Performance: 0.539 ns/day, 44.493 hours/ns, 6.243 timesteps/s
99.9% CPU use with 1 MPI tasks x no OpenMP threads

MPI task timing breakdown:
Section |  min time  |  avg time  |  max time  |%varavg| %total
---------------------------------------------------------------
Pair    | 40.865     | 40.865     | 40.865     |   0.0 | 51.54
Neigh   | 36.594     | 36.594     | 36.594     |   0.0 | 46.15
Comm    | 0.63971    | 0.63971    | 0.63971    |   0.0 |  0.81
Output  | 0.00020504 | 0.00020504 | 0.00020504 |   0.0 |  0.00
Modify  | 0.83899    | 0.83899    | 0.83899    |   0.0 |  1.06
Other   |            | 0.3488     |            |       |  0.44

Nlocal:    19652 ave 19652 max 19652 min
Histogram: 1 0 0 0 0 0 0 0 0 0
Nghost:    18685 ave 18685 max 18685 min
Histogram: 1 0 0 0 0 0 0 0 0 0
Neighs:    1.57494e+06 ave 1.57494e+06 max 1.57494e+06 min
Histogram: 1 0 0 0 0 0 0 0 0 0

Total # of neighbors = 1574939
Ave neighs/atom = 80.1414
Neighbor list builds = 495
Dangerous builds not checked
Setting up Verlet run ...
  Unit style    : metal
  Current step  : 40495
  Time step     : 0.001
Per MPI rank memory allocation (min/avg/max) = 18.58 | 18.58 | 18.58 Mbytes
Step Temp Press TotEng PotEng Enthalpy Volume 
   40495    2414.0113   -1493.5006   -53121.608   -59253.416   -53383.209    280637.03 
   41000    2400.7057   -249.68383   -53215.059    -59313.07   -53258.701    280041.42 
Loop time of 76.193 on 1 procs for 505 steps with 19652 atoms

Performance: 0.573 ns/day, 41.910 hours/ns, 6.628 timesteps/s
99.4% CPU use with 1 MPI tasks x no OpenMP threads

MPI task timing breakdown:
Section |  min time  |  avg time  |  max time  |%varavg| %total
---------------------------------------------------------------
Pair    | 39.252     | 39.252     | 39.252     |   0.0 | 51.52
Neigh   | 35.275     | 35.275     | 35.275     |   0.0 | 46.30
Comm    | 0.55888    | 0.55888    | 0.55888    |   0.0 |  0.73
Output  | 0.042417   | 0.042417   | 0.042417   |   0.0 |  0.06
Modify  | 0.75987    | 0.75987    | 0.75987    |   0.0 |  1.00
Other   |            | 0.3051     |            |       |  0.40

Nlocal:    19652 ave 19652 max 19652 min
Histogram: 1 0 0 0 0 0 0 0 0 0
Nghost:    18787 ave 18787 max 18787 min
Histogram: 1 0 0 0 0 0 0 0 0 0
Neighs:    1.57825e+06 ave 1.57825e+06 max 1.57825e+06 min
Histogram: 1 0 0 0 0 0 0 0 0 0

Total # of neighbors = 1578246
Ave neighs/atom = 80.3097
Neighbor list builds = 505
Dangerous builds not checked
Setting up Verlet run ...
  Unit style    : metal
  Current step  : 41000
  Time step     : 0.001
Per MPI rank memory allocation (min/avg/max) = 18.58 | 18.58 | 18.58 Mbytes
Step Temp Press TotEng PotEng Enthalpy Volume 
   41000    2400.7057   -249.68383   -53215.059    -59313.07   -53258.701    280041.42 
   41495    2358.0989    1162.6227   -53432.821   -59422.607   -53230.365    278998.21 
Loop time of 74.256 on 1 procs for 495 steps with 19652 atoms

Performance: 0.576 ns/day, 41.670 hours/ns, 6.666 timesteps/s
99.7% CPU use with 1 MPI tasks x no OpenMP threads

MPI task timing breakdown:
Section |  min time  |  avg time  |  max time  |%varavg| %total
---------------------------------------------------------------
Pair    | 38.289     | 38.289     | 38.289     |   0.0 | 51.56
Neigh   | 34.408     | 34.408     | 34.408     |   0.0 | 46.34
Comm    | 0.53436    | 0.53436    | 0.53436    |   0.0 |  0.72
Output  | 0.00019693 | 0.00019693 | 0.00019693 |   0.0 |  0.00
Modify  | 0.73274    | 0.73274    | 0.73274    |   0.0 |  0.99
Other   |            | 0.2916     |            |       |  0.39

Nlocal:    19652 ave 19652 max 19652 min
Histogram: 1 0 0 0 0 0 0 0 0 0
Nghost:    18816 ave 18816 max 18816 min
Histogram: 1 0 0 0 0 0 0 0 0 0
Neighs:    1.5844e+06 ave 1.5844e+06 max 1.5844e+06 min
Histogram: 1 0 0 0 0 0 0 0 0 0

Total # of neighbors = 1584400
Ave neighs/atom = 80.6228
Neighbor list builds = 495
Dangerous builds not checked
Setting up Verlet run ...
  Unit style    : metal
  Current step  : 41495
  Time step     : 0.001
Per MPI rank memory allocation (min/avg/max) = 18.58 | 18.58 | 18.58 Mbytes
Step Temp Press TotEng PotEng Enthalpy Volume 
   41495    2358.0989    1162.6227   -53432.821   -59422.607   -53230.365    278998.21 
   42000    2353.5888    2.4827097    -53502.17     -59480.5   -53501.738    278888.35 
Loop time of 75.8205 on 1 procs for 505 steps with 19652 atoms

Performance: 0.575 ns/day, 41.705 hours/ns, 6.660 timesteps/s
99.7% CPU use with 1 MPI tasks x no OpenMP threads

MPI task timing breakdown:
Section |  min time  |  avg time  |  max time  |%varavg| %total
---------------------------------------------------------------
Pair    | 39.089     | 39.089     | 39.089     |   0.0 | 51.55
Neigh   | 35.09      | 35.09      | 35.09      |   0.0 | 46.28
Comm    | 0.54708    | 0.54708    | 0.54708    |   0.0 |  0.72
Output  | 0.042855   | 0.042855   | 0.042855   |   0.0 |  0.06
Modify  | 0.75337    | 0.75337    | 0.75337    |   0.0 |  0.99
Other   |            | 0.2984     |            |       |  0.39

Nlocal:    19652 ave 19652 max 19652 min
Histogram: 1 0 0 0 0 0 0 0 0 0
Nghost:    18848 ave 18848 max 18848 min
Histogram: 1 0 0 0 0 0 0 0 0 0
Neighs:    1.58482e+06 ave 1.58482e+06 max 1.58482e+06 min
Histogram: 1 0 0 0 0 0 0 0 0 0

Total # of neighbors = 1584822
Ave neighs/atom = 80.6443
Neighbor list builds = 505
Dangerous builds not checked
Setting up Verlet run ...
  Unit style    : metal
  Current step  : 42000
  Time step     : 0.001
Per MPI rank memory allocation (min/avg/max) = 18.58 | 18.58 | 18.58 Mbytes
Step Temp Press TotEng PotEng Enthalpy Volume 
   42000    2353.5888    2.4827097    -53502.17     -59480.5   -53501.738    278888.35 
   42495    2321.6863    725.49422   -53701.501   -59598.796   -53575.593    278053.92 
Loop time of 74.5367 on 1 procs for 495 steps with 19652 atoms

Performance: 0.574 ns/day, 41.828 hours/ns, 6.641 timesteps/s
99.5% CPU use with 1 MPI tasks x no OpenMP threads

MPI task timing breakdown:
Section |  min time  |  avg time  |  max time  |%varavg| %total
---------------------------------------------------------------
Pair    | 38.469     | 38.469     | 38.469     |   0.0 | 51.61
Neigh   | 34.486     | 34.486     | 34.486     |   0.0 | 46.27
Comm    | 0.54538    | 0.54538    | 0.54538    |   0.0 |  0.73
Output  | 0.00016499 | 0.00016499 | 0.00016499 |   0.0 |  0.00
Modify  | 0.7422     | 0.7422     | 0.7422     |   0.0 |  1.00
Other   |            | 0.2943     |            |       |  0.39

Nlocal:    19652 ave 19652 max 19652 min
Histogram: 1 0 0 0 0 0 0 0 0 0
Nghost:    18759 ave 18759 max 18759 min
Histogram: 1 0 0 0 0 0 0 0 0 0
Neighs:    1.58913e+06 ave 1.58913e+06 max 1.58913e+06 min
Histogram: 1 0 0 0 0 0 0 0 0 0

Total # of neighbors = 1589132
Ave neighs/atom = 80.8636
Neighbor list builds = 495
Dangerous builds not checked
Setting up Verlet run ...
  Unit style    : metal
  Current step  : 42495
  Time step     : 0.001
Per MPI rank memory allocation (min/avg/max) = 18.58 | 18.58 | 18.58 Mbytes
Step Temp Press TotEng PotEng Enthalpy Volume 
   42495    2321.6863    725.49422   -53701.501   -59598.796   -53575.593    278053.92 
   43000    2298.2474    1130.6234   -53889.318   -59727.075   -53693.671    277245.98 
Loop time of 76.065 on 1 procs for 505 steps with 19652 atoms

Performance: 0.574 ns/day, 41.840 hours/ns, 6.639 timesteps/s
99.6% CPU use with 1 MPI tasks x no OpenMP threads

MPI task timing breakdown:
Section |  min time  |  avg time  |  max time  |%varavg| %total
---------------------------------------------------------------
Pair    | 39.257     | 39.257     | 39.257     |   0.0 | 51.61
Neigh   | 35.135     | 35.135     | 35.135     |   0.0 | 46.19
Comm    | 0.54825    | 0.54825    | 0.54825    |   0.0 |  0.72
Output  | 0.067565   | 0.067565   | 0.067565   |   0.0 |  0.09
Modify  | 0.75785    | 0.75785    | 0.75785    |   0.0 |  1.00
Other   |            | 0.2991     |            |       |  0.39

Nlocal:    19652 ave 19652 max 19652 min
Histogram: 1 0 0 0 0 0 0 0 0 0
Nghost:    18905 ave 18905 max 18905 min
Histogram: 1 0 0 0 0 0 0 0 0 0
Neighs:    1.59377e+06 ave 1.59377e+06 max 1.59377e+06 min
Histogram: 1 0 0 0 0 0 0 0 0 0

Total # of neighbors = 1593771
Ave neighs/atom = 81.0997
Neighbor list builds = 505
Dangerous builds not checked
Setting up Verlet run ...
  Unit style    : metal
  Current step  : 43000
  Time step     : 0.001
Per MPI rank memory allocation (min/avg/max) = 18.58 | 18.58 | 18.58 Mbytes
Step Temp Press TotEng PotEng Enthalpy Volume 
   43000    2298.2474    1130.6234   -53889.318   -59727.075   -53693.671    277245.98 
   43495    2255.4814    1780.0754   -54081.352   -59810.481   -53774.015    276622.52 
Loop time of 74.5621 on 1 procs for 495 steps with 19652 atoms

Performance: 0.574 ns/day, 41.842 hours/ns, 6.639 timesteps/s
99.7% CPU use with 1 MPI tasks x no OpenMP threads

MPI task timing breakdown:
Section |  min time  |  avg time  |  max time  |%varavg| %total
---------------------------------------------------------------
Pair    | 38.574     | 38.574     | 38.574     |   0.0 | 51.73
Neigh   | 34.413     | 34.413     | 34.413     |   0.0 | 46.15
Comm    | 0.54165    | 0.54165    | 0.54165    |   0.0 |  0.73
Output  | 0.00017881 | 0.00017881 | 0.00017881 |   0.0 |  0.00
Modify  | 0.73751    | 0.73751    | 0.73751    |   0.0 |  0.99
Other   |            | 0.2954     |            |       |  0.40

Nlocal:    19652 ave 19652 max 19652 min
Histogram: 1 0 0 0 0 0 0 0 0 0
Nghost:    18846 ave 18846 max 18846 min
Histogram: 1 0 0 0 0 0 0 0 0 0
Neighs:    1.59644e+06 ave 1.59644e+06 max 1.59644e+06 min
Histogram: 1 0 0 0 0 0 0 0 0 0

Total # of neighbors = 1596444
Ave neighs/atom = 81.2357
Neighbor list builds = 495
Dangerous builds not checked
Setting up Verlet run ...
  Unit style    : metal
  Current step  : 43495
  Time step     : 0.001
Per MPI rank memory allocation (min/avg/max) = 18.58 | 18.58 | 18.58 Mbytes
Step Temp Press TotEng PotEng Enthalpy Volume 
   43495    2255.4814    1780.0754   -54081.352   -59810.481   -53774.015    276622.52 
   44000    2265.0048     2728.193   -54120.546   -59873.865   -53650.677    275938.44 
Loop time of 76.4587 on 1 procs for 505 steps with 19652 atoms

Performance: 0.571 ns/day, 42.056 hours/ns, 6.605 timesteps/s
99.5% CPU use with 1 MPI tasks x no OpenMP threads

MPI task timing breakdown:
Section |  min time  |  avg time  |  max time  |%varavg| %total
---------------------------------------------------------------
Pair    | 39.542     | 39.542     | 39.542     |   0.0 | 51.72
Neigh   | 35.26      | 35.26      | 35.26      |   0.0 | 46.12
Comm    | 0.55146    | 0.55146    | 0.55146    |   0.0 |  0.72
Output  | 0.043139   | 0.043139   | 0.043139   |   0.0 |  0.06
Modify  | 0.75308    | 0.75308    | 0.75308    |   0.0 |  0.98
Other   |            | 0.3093     |            |       |  0.40

Nlocal:    19652 ave 19652 max 19652 min
Histogram: 1 0 0 0 0 0 0 0 0 0
Nghost:    18923 ave 18923 max 18923 min
Histogram: 1 0 0 0 0 0 0 0 0 0
Neighs:    1.60153e+06 ave 1.60153e+06 max 1.60153e+06 min
Histogram: 1 0 0 0 0 0 0 0 0 0

Total # of neighbors = 1601532
Ave neighs/atom = 81.4946
Neighbor list builds = 505
Dangerous builds not checked
Setting up Verlet run ...
  Unit style    : metal
  Current step  : 44000
  Time step     : 0.001
Per MPI rank memory allocation (min/avg/max) = 18.58 | 18.58 | 18.58 Mbytes
Step Temp Press TotEng PotEng Enthalpy Volume 
   44000    2265.0048     2728.193   -54120.546   -59873.865   -53650.677    275938.44 
   44495    2216.3029    647.76816   -54365.999    -59995.61   -54254.562    275624.79 
Loop time of 75.4364 on 1 procs for 495 steps with 19652 atoms

Performance: 0.567 ns/day, 42.332 hours/ns, 6.562 timesteps/s
99.5% CPU use with 1 MPI tasks x no OpenMP threads

MPI task timing breakdown:
Section |  min time  |  avg time  |  max time  |%varavg| %total
---------------------------------------------------------------
Pair    | 39.116     | 39.116     | 39.116     |   0.0 | 51.85
Neigh   | 34.701     | 34.701     | 34.701     |   0.0 | 46.00
Comm    | 0.56316    | 0.56316    | 0.56316    |   0.0 |  0.75
Output  | 0.00016999 | 0.00016999 | 0.00016999 |   0.0 |  0.00
Modify  | 0.75298    | 0.75298    | 0.75298    |   0.0 |  1.00
Other   |            | 0.3028     |            |       |  0.40

Nlocal:    19652 ave 19652 max 19652 min
Histogram: 1 0 0 0 0 0 0 0 0 0
Nghost:    18910 ave 18910 max 18910 min
Histogram: 1 0 0 0 0 0 0 0 0 0
Neighs:    1.60286e+06 ave 1.60286e+06 max 1.60286e+06 min
Histogram: 1 0 0 0 0 0 0 0 0 0

Total # of neighbors = 1602855
Ave neighs/atom = 81.5619
Neighbor list builds = 495
Dangerous builds not checked
Setting up Verlet run ...
  Unit style    : metal
  Current step  : 44495
  Time step     : 0.001
Per MPI rank memory allocation (min/avg/max) = 18.58 | 18.58 | 18.58 Mbytes
Step Temp Press TotEng PotEng Enthalpy Volume 
   44495    2216.3029    647.76816   -54365.999    -59995.61   -54254.562    275624.79 
   45000    2197.2492    1473.7075   -54396.396   -59977.609   -54142.966    275522.37 
Loop time of 77.4652 on 1 procs for 505 steps with 19652 atoms

Performance: 0.563 ns/day, 42.610 hours/ns, 6.519 timesteps/s
99.7% CPU use with 1 MPI tasks x no OpenMP threads

MPI task timing breakdown:
Section |  min time  |  avg time  |  max time  |%varavg| %total
---------------------------------------------------------------
Pair    | 40.25      | 40.25      | 40.25      |   0.0 | 51.96
Neigh   | 35.502     | 35.502     | 35.502     |   0.0 | 45.83
Comm    | 0.57581    | 0.57581    | 0.57581    |   0.0 |  0.74
Output  | 0.042915   | 0.042915   | 0.042915   |   0.0 |  0.06
Modify  | 0.7748     | 0.7748     | 0.7748     |   0.0 |  1.00
Other   |            | 0.3203     |            |       |  0.41

Nlocal:    19652 ave 19652 max 19652 min
Histogram: 1 0 0 0 0 0 0 0 0 0
Nghost:    18935 ave 18935 max 18935 min
Histogram: 1 0 0 0 0 0 0 0 0 0
Neighs:    1.60371e+06 ave 1.60371e+06 max 1.60371e+06 min
Histogram: 1 0 0 0 0 0 0 0 0 0

Total # of neighbors = 1603711
Ave neighs/atom = 81.6055
Neighbor list builds = 505
Dangerous builds not checked
Setting up Verlet run ...
  Unit style    : metal
  Current step  : 45000
  Time step     : 0.001
Per MPI rank memory allocation (min/avg/max) = 18.58 | 18.58 | 18.58 Mbytes
Step Temp Press TotEng PotEng Enthalpy Volume 
   45000    2197.2492    1473.7075   -54396.396   -59977.609   -54142.966    275522.37 
   45495    2160.9797    1645.8868   -54644.883   -60133.968   -54362.774       274617 
Loop time of 77.6715 on 1 procs for 495 steps with 19652 atoms

Performance: 0.551 ns/day, 43.587 hours/ns, 6.373 timesteps/s
98.4% CPU use with 1 MPI tasks x no OpenMP threads

MPI task timing breakdown:
Section |  min time  |  avg time  |  max time  |%varavg| %total
---------------------------------------------------------------
Pair    | 40.343     | 40.343     | 40.343     |   0.0 | 51.94
Neigh   | 35.648     | 35.648     | 35.648     |   0.0 | 45.90
Comm    | 0.58255    | 0.58255    | 0.58255    |   0.0 |  0.75
Output  | 0.00017095 | 0.00017095 | 0.00017095 |   0.0 |  0.00
Modify  | 0.77982    | 0.77982    | 0.77982    |   0.0 |  1.00
Other   |            | 0.3182     |            |       |  0.41

Nlocal:    19652 ave 19652 max 19652 min
Histogram: 1 0 0 0 0 0 0 0 0 0
Nghost:    18971 ave 18971 max 18971 min
Histogram: 1 0 0 0 0 0 0 0 0 0
Neighs:    1.60845e+06 ave 1.60845e+06 max 1.60845e+06 min
Histogram: 1 0 0 0 0 0 0 0 0 0

Total # of neighbors = 1608452
Ave neighs/atom = 81.8467
Neighbor list builds = 495
Dangerous builds not checked
Setting up Verlet run ...
  Unit style    : metal
  Current step  : 45495
  Time step     : 0.001
Per MPI rank memory allocation (min/avg/max) = 18.58 | 18.58 | 18.58 Mbytes
Step Temp Press TotEng PotEng Enthalpy Volume 
   45495    2160.9797    1645.8868   -54644.883   -60133.968   -54362.774       274617 
   46000    2150.7597     1057.691   -54734.206   -60197.332   -54553.125    274299.68 
Loop time of 78.6602 on 1 procs for 505 steps with 19652 atoms

Performance: 0.555 ns/day, 43.267 hours/ns, 6.420 timesteps/s
99.6% CPU use with 1 MPI tasks x no OpenMP threads

MPI task timing breakdown:
Section |  min time  |  avg time  |  max time  |%varavg| %total
---------------------------------------------------------------
Pair    | 40.964     | 40.964     | 40.964     |   0.0 | 52.08
Neigh   | 35.934     | 35.934     | 35.934     |   0.0 | 45.68
Comm    | 0.5937     | 0.5937     | 0.5937     |   0.0 |  0.75
Output  | 0.044812   | 0.044812   | 0.044812   |   0.0 |  0.06
Modify  | 0.79574    | 0.79574    | 0.79574    |   0.0 |  1.01
Other   |            | 0.3278     |            |       |  0.42

Nlocal:    19652 ave 19652 max 19652 min
Histogram: 1 0 0 0 0 0 0 0 0 0
Nghost:    18988 ave 18988 max 18988 min
Histogram: 1 0 0 0 0 0 0 0 0 0
Neighs:    1.60995e+06 ave 1.60995e+06 max 1.60995e+06 min
Histogram: 1 0 0 0 0 0 0 0 0 0

Total # of neighbors = 1609952
Ave neighs/atom = 81.9231
Neighbor list builds = 505
Dangerous builds not checked
Setting up Verlet run ...
  Unit style    : metal
  Current step  : 46000
  Time step     : 0.001
Per MPI rank memory allocation (min/avg/max) = 18.58 | 18.58 | 18.58 Mbytes
Step Temp Press TotEng PotEng Enthalpy Volume 
   46000    2150.7597     1057.691   -54734.206   -60197.332   -54553.125    274299.68 
   46495    2115.0391    1079.7298   -54971.451   -60343.843   -54787.109     273539.2 
Loop time of 76.5961 on 1 procs for 495 steps with 19652 atoms

Performance: 0.558 ns/day, 42.983 hours/ns, 6.462 timesteps/s
99.7% CPU use with 1 MPI tasks x no OpenMP threads

MPI task timing breakdown:
Section |  min time  |  avg time  |  max time  |%varavg| %total
---------------------------------------------------------------
Pair    | 39.966     | 39.966     | 39.966     |   0.0 | 52.18
Neigh   | 34.95      | 34.95      | 34.95      |   0.0 | 45.63
Comm    | 0.58048    | 0.58048    | 0.58048    |   0.0 |  0.76
Output  | 0.00019789 | 0.00019789 | 0.00019789 |   0.0 |  0.00
Modify  | 0.77567    | 0.77567    | 0.77567    |   0.0 |  1.01
Other   |            | 0.3233     |            |       |  0.42

Nlocal:    19652 ave 19652 max 19652 min
Histogram: 1 0 0 0 0 0 0 0 0 0
Nghost:    18963 ave 18963 max 18963 min
Histogram: 1 0 0 0 0 0 0 0 0 0
Neighs:    1.61416e+06 ave 1.61416e+06 max 1.61416e+06 min
Histogram: 1 0 0 0 0 0 0 0 0 0

Total # of neighbors = 1614160
Ave neighs/atom = 82.1372
Neighbor list builds = 495
Dangerous builds not checked
Setting up Verlet run ...
  Unit style    : metal
  Current step  : 46495
  Time step     : 0.001
Per MPI rank memory allocation (min/avg/max) = 18.58 | 18.58 | 18.58 Mbytes
Step Temp Press TotEng PotEng Enthalpy Volume 
   46495    2115.0391    1079.7298   -54971.451   -60343.843   -54787.109     273539.2 
   47000    2113.1569   -203.11735   -55036.757   -60404.368   -55071.427    273477.23 
Loop time of 78.1482 on 1 procs for 505 steps with 19652 atoms

Performance: 0.558 ns/day, 42.986 hours/ns, 6.462 timesteps/s
99.3% CPU use with 1 MPI tasks x no OpenMP threads

MPI task timing breakdown:
Section |  min time  |  avg time  |  max time  |%varavg| %total
---------------------------------------------------------------
Pair    | 40.749     | 40.749     | 40.749     |   0.0 | 52.14
Neigh   | 35.63      | 35.63      | 35.63      |   0.0 | 45.59
Comm    | 0.58666    | 0.58666    | 0.58666    |   0.0 |  0.75
Output  | 0.062477   | 0.062477   | 0.062477   |   0.0 |  0.08
Modify  | 0.79093    | 0.79093    | 0.79093    |   0.0 |  1.01
Other   |            | 0.3291     |            |       |  0.42

Nlocal:    19652 ave 19652 max 19652 min
Histogram: 1 0 0 0 0 0 0 0 0 0
Nghost:    18927 ave 18927 max 18927 min
Histogram: 1 0 0 0 0 0 0 0 0 0
Neighs:    1.61462e+06 ave 1.61462e+06 max 1.61462e+06 min
Histogram: 1 0 0 0 0 0 0 0 0 0

Total # of neighbors = 1614622
Ave neighs/atom = 82.1607
Neighbor list builds = 505
Dangerous builds not checked
Setting up Verlet run ...
  Unit style    : metal
  Current step  : 47000
  Time step     : 0.001
Per MPI rank memory allocation (min/avg/max) = 18.58 | 18.58 | 18.58 Mbytes
Step Temp Press TotEng PotEng Enthalpy Volume 
   47000    2113.1569   -203.11735   -55036.757   -60404.368   -55071.427    273477.23 
   47495    2069.7289    701.70133   -55283.959   -60541.259   -55164.631    272459.06 
Loop time of 78.5615 on 1 procs for 495 steps with 19652 atoms

Performance: 0.544 ns/day, 44.086 hours/ns, 6.301 timesteps/s
98.8% CPU use with 1 MPI tasks x no OpenMP threads

MPI task timing breakdown:
Section |  min time  |  avg time  |  max time  |%varavg| %total
---------------------------------------------------------------
Pair    | 41.229     | 41.229     | 41.229     |   0.0 | 52.48
Neigh   | 35.587     | 35.587     | 35.587     |   0.0 | 45.30
Comm    | 0.60244    | 0.60244    | 0.60244    |   0.0 |  0.77
Output  | 0.00016117 | 0.00016117 | 0.00016117 |   0.0 |  0.00
Modify  | 0.80599    | 0.80599    | 0.80599    |   0.0 |  1.03
Other   |            | 0.3376     |            |       |  0.43

Nlocal:    19652 ave 19652 max 19652 min
Histogram: 1 0 0 0 0 0 0 0 0 0
Nghost:    19013 ave 19013 max 19013 min
Histogram: 1 0 0 0 0 0 0 0 0 0
Neighs:    1.62073e+06 ave 1.62073e+06 max 1.62073e+06 min
Histogram: 1 0 0 0 0 0 0 0 0 0

Total # of neighbors = 1620730
Ave neighs/atom = 82.4715
Neighbor list builds = 495
Dangerous builds not checked
Setting up Verlet run ...
  Unit style    : metal
  Current step  : 47495
  Time step     : 0.001
Per MPI rank memory allocation (min/avg/max) = 18.58 | 18.58 | 18.58 Mbytes
Step Temp Press TotEng PotEng Enthalpy Volume 
   47495    2069.7289    701.70133   -55283.959   -60541.259   -55164.631    272459.06 
   48000    2036.8944    673.15818   -55457.872    -60631.77   -55343.604    271968.94 
Loop time of 79.0698 on 1 procs for 505 steps with 19652 atoms

Performance: 0.552 ns/day, 43.493 hours/ns, 6.387 timesteps/s
99.2% CPU use with 1 MPI tasks x no OpenMP threads

MPI task timing breakdown:
Section |  min time  |  avg time  |  max time  |%varavg| %total
---------------------------------------------------------------
Pair    | 41.347     | 41.347     | 41.347     |   0.0 | 52.29
Neigh   | 35.924     | 35.924     | 35.924     |   0.0 | 45.43
Comm    | 0.60625    | 0.60625    | 0.60625    |   0.0 |  0.77
Output  | 0.043011   | 0.043011   | 0.043011   |   0.0 |  0.05
Modify  | 0.81732    | 0.81732    | 0.81732    |   0.0 |  1.03
Other   |            | 0.3322     |            |       |  0.42

Nlocal:    19652 ave 19652 max 19652 min
Histogram: 1 0 0 0 0 0 0 0 0 0
Nghost:    19040 ave 19040 max 19040 min
Histogram: 1 0 0 0 0 0 0 0 0 0
Neighs:    1.62291e+06 ave 1.62291e+06 max 1.62291e+06 min
Histogram: 1 0 0 0 0 0 0 0 0 0

Total # of neighbors = 1622912
Ave neighs/atom = 82.5825
Neighbor list builds = 505
Dangerous builds not checked
Setting up Verlet run ...
  Unit style    : metal
  Current step  : 48000
  Time step     : 0.001
Per MPI rank memory allocation (min/avg/max) = 18.58 | 18.58 | 18.58 Mbytes
Step Temp Press TotEng PotEng Enthalpy Volume 
   48000    2036.8944    673.15818   -55457.872    -60631.77   -55343.604    271968.94 
   48495    2017.4794    457.27086   -55544.609    -60669.19   -55467.042    271775.45 
Loop time of 77.9565 on 1 procs for 495 steps with 19652 atoms

Performance: 0.549 ns/day, 43.747 hours/ns, 6.350 timesteps/s
99.0% CPU use with 1 MPI tasks x no OpenMP threads

MPI task timing breakdown:
Section |  min time  |  avg time  |  max time  |%varavg| %total
---------------------------------------------------------------
Pair    | 40.821     | 40.821     | 40.821     |   0.0 | 52.36
Neigh   | 35.403     | 35.403     | 35.403     |   0.0 | 45.41
Comm    | 0.59952    | 0.59952    | 0.59952    |   0.0 |  0.77
Output  | 0.00017405 | 0.00017405 | 0.00017405 |   0.0 |  0.00
Modify  | 0.79698    | 0.79698    | 0.79698    |   0.0 |  1.02
Other   |            | 0.3361     |            |       |  0.43

Nlocal:    19652 ave 19652 max 19652 min
Histogram: 1 0 0 0 0 0 0 0 0 0
Nghost:    18989 ave 18989 max 18989 min
Histogram: 1 0 0 0 0 0 0 0 0 0
Neighs:    1.62343e+06 ave 1.62343e+06 max 1.62343e+06 min
Histogram: 1 0 0 0 0 0 0 0 0 0

Total # of neighbors = 1623434
Ave neighs/atom = 82.6091
Neighbor list builds = 495
Dangerous builds not checked
Setting up Verlet run ...
  Unit style    : metal
  Current step  : 48495
  Time step     : 0.001
Per MPI rank memory allocation (min/avg/max) = 18.58 | 18.58 | 18.58 Mbytes
Step Temp Press TotEng PotEng Enthalpy Volume 
   48495    2017.4794    457.27086   -55544.609    -60669.19   -55467.042    271775.45 
   49000    2002.1996    -850.6007    -55707.57   -60793.339   -55851.617    271324.11 
Loop time of 79.3078 on 1 procs for 505 steps with 19652 atoms

Performance: 0.550 ns/day, 43.624 hours/ns, 6.368 timesteps/s
99.2% CPU use with 1 MPI tasks x no OpenMP threads

MPI task timing breakdown:
Section |  min time  |  avg time  |  max time  |%varavg| %total
---------------------------------------------------------------
Pair    | 41.579     | 41.579     | 41.579     |   0.0 | 52.43
Neigh   | 35.931     | 35.931     | 35.931     |   0.0 | 45.31
Comm    | 0.60648    | 0.60648    | 0.60648    |   0.0 |  0.76
Output  | 0.044474   | 0.044474   | 0.044474   |   0.0 |  0.06
Modify  | 0.80781    | 0.80781    | 0.80781    |   0.0 |  1.02
Other   |            | 0.3394     |            |       |  0.43

Nlocal:    19652 ave 19652 max 19652 min
Histogram: 1 0 0 0 0 0 0 0 0 0
Nghost:    19048 ave 19048 max 19048 min
Histogram: 1 0 0 0 0 0 0 0 0 0
Neighs:    1.62657e+06 ave 1.62657e+06 max 1.62657e+06 min
Histogram: 1 0 0 0 0 0 0 0 0 0

Total # of neighbors = 1626572
Ave neighs/atom = 82.7688
Neighbor list builds = 505
Dangerous builds not checked
Setting up Verlet run ...
  Unit style    : metal
  Current step  : 49000
  Time step     : 0.001
Per MPI rank memory allocation (min/avg/max) = 18.58 | 18.58 | 18.58 Mbytes
Step Temp Press TotEng PotEng Enthalpy Volume 
   49000    2002.1996    -850.6007    -55707.57   -60793.339   -55851.617    271324.11 
   49495    1963.5154   -2073.3859   -55899.775   -60887.283   -56250.404    270943.13 
Loop time of 77.8838 on 1 procs for 495 steps with 19652 atoms

Performance: 0.549 ns/day, 43.706 hours/ns, 6.356 timesteps/s
98.6% CPU use with 1 MPI tasks x no OpenMP threads

MPI task timing breakdown:
Section |  min time  |  avg time  |  max time  |%varavg| %total
---------------------------------------------------------------
Pair    | 40.954     | 40.954     | 40.954     |   0.0 | 52.58
Neigh   | 35.199     | 35.199     | 35.199     |   0.0 | 45.19
Comm    | 0.59916    | 0.59916    | 0.59916    |   0.0 |  0.77
Output  | 0.00017285 | 0.00017285 | 0.00017285 |   0.0 |  0.00
Modify  | 0.79205    | 0.79205    | 0.79205    |   0.0 |  1.02
Other   |            | 0.3397     |            |       |  0.44

Nlocal:    19652 ave 19652 max 19652 min
Histogram: 1 0 0 0 0 0 0 0 0 0
Nghost:    19099 ave 19099 max 19099 min
Histogram: 1 0 0 0 0 0 0 0 0 0
Neighs:    1.62835e+06 ave 1.62835e+06 max 1.62835e+06 min
Histogram: 1 0 0 0 0 0 0 0 0 0

Total # of neighbors = 1628353
Ave neighs/atom = 82.8594
Neighbor list builds = 495
Dangerous builds not checked
Setting up Verlet run ...
  Unit style    : metal
  Current step  : 49495
  Time step     : 0.001
Per MPI rank memory allocation (min/avg/max) = 18.58 | 18.58 | 18.58 Mbytes
Step Temp Press TotEng PotEng Enthalpy Volume 
   49495    1963.5154   -2073.3859   -55899.775   -60887.283   -56250.404    270943.13 
   50000    1942.0882    663.76348   -56023.522   -60956.603    -55911.68    269962.28 
Loop time of 79.7276 on 1 procs for 505 steps with 19652 atoms

Performance: 0.547 ns/day, 43.855 hours/ns, 6.334 timesteps/s
98.7% CPU use with 1 MPI tasks x no OpenMP threads

MPI task timing breakdown:
Section |  min time  |  avg time  |  max time  |%varavg| %total
---------------------------------------------------------------
Pair    | 41.904     | 41.904     | 41.904     |   0.0 | 52.56
Neigh   | 35.992     | 35.992     | 35.992     |   0.0 | 45.14
Comm    | 0.60667    | 0.60667    | 0.60667    |   0.0 |  0.76
Output  | 0.043024   | 0.043024   | 0.043024   |   0.0 |  0.05
Modify  | 0.82913    | 0.82913    | 0.82913    |   0.0 |  1.04
Other   |            | 0.3526     |            |       |  0.44

Nlocal:    19652 ave 19652 max 19652 min
Histogram: 1 0 0 0 0 0 0 0 0 0
Nghost:    19010 ave 19010 max 19010 min
Histogram: 1 0 0 0 0 0 0 0 0 0
Neighs:    1.63457e+06 ave 1.63457e+06 max 1.63457e+06 min
Histogram: 1 0 0 0 0 0 0 0 0 0

Total # of neighbors = 1634566
Ave neighs/atom = 83.1756
Neighbor list builds = 505
Dangerous builds not checked
Setting up Verlet run ...
  Unit style    : metal
  Current step  : 50000
  Time step     : 0.001
Per MPI rank memory allocation (min/avg/max) = 18.58 | 18.58 | 18.58 Mbytes
Step Temp Press TotEng PotEng Enthalpy Volume 
   50000    1942.0882    663.76348   -56023.522   -60956.603    -55911.68    269962.28 
   50495    1916.3246    1650.5177   -56238.362   -61106.001   -55961.299    268947.88 
Loop time of 77.9119 on 1 procs for 495 steps with 19652 atoms

Performance: 0.549 ns/day, 43.722 hours/ns, 6.353 timesteps/s
99.3% CPU use with 1 MPI tasks x no OpenMP threads

MPI task timing breakdown:
Section |  min time  |  avg time  |  max time  |%varavg| %total
---------------------------------------------------------------
Pair    | 40.995     | 40.995     | 40.995     |   0.0 | 52.62
Neigh   | 35.181     | 35.181     | 35.181     |   0.0 | 45.16
Comm    | 0.59585    | 0.59585    | 0.59585    |   0.0 |  0.76
Output  | 0.00018787 | 0.00018787 | 0.00018787 |   0.0 |  0.00
Modify  | 0.79573    | 0.79573    | 0.79573    |   0.0 |  1.02
Other   |            | 0.344      |            |       |  0.44

Nlocal:    19652 ave 19652 max 19652 min
Histogram: 1 0 0 0 0 0 0 0 0 0
Nghost:    19163 ave 19163 max 19163 min
Histogram: 1 0 0 0 0 0 0 0 0 0
Neighs:    1.63994e+06 ave 1.63994e+06 max 1.63994e+06 min
Histogram: 1 0 0 0 0 0 0 0 0 0

Total # of neighbors = 1639937
Ave neighs/atom = 83.4489
Neighbor list builds = 495
Dangerous builds not checked
Setting up Verlet run ...
  Unit style    : metal
  Current step  : 50495
  Time step     : 0.001
Per MPI rank memory allocation (min/avg/max) = 18.58 | 18.58 | 18.58 Mbytes
Step Temp Press TotEng PotEng Enthalpy Volume 
   50495    1916.3246    1650.5177   -56238.362   -61106.001   -55961.299    268947.88 
   51000     1901.986    987.89206   -56336.911   -61168.128   -56171.179    268785.32 
Loop time of 80.3808 on 1 procs for 505 steps with 19652 atoms

Performance: 0.543 ns/day, 44.214 hours/ns, 6.283 timesteps/s
99.0% CPU use with 1 MPI tasks x no OpenMP threads

MPI task timing breakdown:
Section |  min time  |  avg time  |  max time  |%varavg| %total
---------------------------------------------------------------
Pair    | 42.445     | 42.445     | 42.445     |   0.0 | 52.81
Neigh   | 36.06      | 36.06      | 36.06      |   0.0 | 44.86
Comm    | 0.62472    | 0.62472    | 0.62472    |   0.0 |  0.78
Output  | 0.066772   | 0.066772   | 0.066772   |   0.0 |  0.08
Modify  | 0.82607    | 0.82607    | 0.82607    |   0.0 |  1.03
Other   |            | 0.3576     |            |       |  0.44

Nlocal:    19652 ave 19652 max 19652 min
Histogram: 1 0 0 0 0 0 0 0 0 0
Nghost:    19110 ave 19110 max 19110 min
Histogram: 1 0 0 0 0 0 0 0 0 0
Neighs:    1.64101e+06 ave 1.64101e+06 max 1.64101e+06 min
Histogram: 1 0 0 0 0 0 0 0 0 0

Total # of neighbors = 1641006
Ave neighs/atom = 83.5033
Neighbor list builds = 505
Dangerous builds not checked
Setting up Verlet run ...
  Unit style    : metal
  Current step  : 51000
  Time step     : 0.001
Per MPI rank memory allocation (min/avg/max) = 18.58 | 18.58 | 18.58 Mbytes
Step Temp Press TotEng PotEng Enthalpy Volume 
   51000     1901.986    987.89206   -56336.911   -61168.128   -56171.179    268785.32 
   51495    1856.3255    663.60013   -56564.288   -61279.524   -56453.197    268214.32 
Loop time of 79.1418 on 1 procs for 495 steps with 19652 atoms

Performance: 0.540 ns/day, 44.412 hours/ns, 6.255 timesteps/s
98.8% CPU use with 1 MPI tasks x no OpenMP threads

MPI task timing breakdown:
Section |  min time  |  avg time  |  max time  |%varavg| %total
---------------------------------------------------------------
Pair    | 41.859     | 41.859     | 41.859     |   0.0 | 52.89
Neigh   | 35.486     | 35.486     | 35.486     |   0.0 | 44.84
Comm    | 0.61946    | 0.61946    | 0.61946    |   0.0 |  0.78
Output  | 0.00021195 | 0.00021195 | 0.00021195 |   0.0 |  0.00
Modify  | 0.82562    | 0.82562    | 0.82562    |   0.0 |  1.04
Other   |            | 0.3513     |            |       |  0.44

Nlocal:    19652 ave 19652 max 19652 min
Histogram: 1 0 0 0 0 0 0 0 0 0
Nghost:    19191 ave 19191 max 19191 min
Histogram: 1 0 0 0 0 0 0 0 0 0
Neighs:    1.6441e+06 ave 1.6441e+06 max 1.6441e+06 min
Histogram: 1 0 0 0 0 0 0 0 0 0

Total # of neighbors = 1644099
Ave neighs/atom = 83.6606
Neighbor list builds = 495
Dangerous builds not checked
Setting up Verlet run ...
  Unit style    : metal
  Current step  : 51495
  Time step     : 0.001
Per MPI rank memory allocation (min/avg/max) = 18.58 | 18.58 | 18.58 Mbytes
Step Temp Press TotEng PotEng Enthalpy Volume 
   51495    1856.3255    663.60013   -56564.288   -61279.524   -56453.197    268214.32 
   52000    1839.2168    32.964896   -56633.028   -61304.806    -56627.51    268167.01 
Loop time of 80.0288 on 1 procs for 505 steps with 19652 atoms

Performance: 0.545 ns/day, 44.020 hours/ns, 6.310 timesteps/s
99.5% CPU use with 1 MPI tasks x no OpenMP threads

MPI task timing breakdown:
Section |  min time  |  avg time  |  max time  |%varavg| %total
---------------------------------------------------------------
Pair    | 42.225     | 42.225     | 42.225     |   0.0 | 52.76
Neigh   | 35.954     | 35.954     | 35.954     |   0.0 | 44.93
Comm    | 0.62665    | 0.62665    | 0.62665    |   0.0 |  0.78
Output  | 0.040397   | 0.040397   | 0.040397   |   0.0 |  0.05
Modify  | 0.8285     | 0.8285     | 0.8285     |   0.0 |  1.04
Other   |            | 0.3535     |            |       |  0.44

Nlocal:    19652 ave 19652 max 19652 min
Histogram: 1 0 0 0 0 0 0 0 0 0
Nghost:    19173 ave 19173 max 19173 min
Histogram: 1 0 0 0 0 0 0 0 0 0
Neighs:    1.64392e+06 ave 1.64392e+06 max 1.64392e+06 min
Histogram: 1 0 0 0 0 0 0 0 0 0

Total # of neighbors = 1643921
Ave neighs/atom = 83.6516
Neighbor list builds = 505
Dangerous builds not checked
Setting up Verlet run ...
  Unit style    : metal
  Current step  : 52000
  Time step     : 0.001
Per MPI rank memory allocation (min/avg/max) = 18.58 | 18.58 | 18.58 Mbytes
Step Temp Press TotEng PotEng Enthalpy Volume 
   52000    1839.2168    32.964896   -56633.028   -61304.806    -56627.51    268167.01 
   52495    1818.8579   -181.38731   -56887.429   -61507.493   -56917.667     267096.3 
Loop time of 79.819 on 1 procs for 495 steps with 19652 atoms

Performance: 0.536 ns/day, 44.792 hours/ns, 6.202 timesteps/s
99.2% CPU use with 1 MPI tasks x no OpenMP threads

MPI task timing breakdown:
Section |  min time  |  avg time  |  max time  |%varavg| %total
---------------------------------------------------------------
Pair    | 42.249     | 42.249     | 42.249     |   0.0 | 52.93
Neigh   | 35.727     | 35.727     | 35.727     |   0.0 | 44.76
Comm    | 0.63841    | 0.63841    | 0.63841    |   0.0 |  0.80
Output  | 0.00022888 | 0.00022888 | 0.00022888 |   0.0 |  0.00
Modify  | 0.84542    | 0.84542    | 0.84542    |   0.0 |  1.06
Other   |            | 0.3595     |            |       |  0.45

Nlocal:    19652 ave 19652 max 19652 min
Histogram: 1 0 0 0 0 0 0 0 0 0
Nghost:    19150 ave 19150 max 19150 min
Histogram: 1 0 0 0 0 0 0 0 0 0
Neighs:    1.6504e+06 ave 1.6504e+06 max 1.6504e+06 min
Histogram: 1 0 0 0 0 0 0 0 0 0

Total # of neighbors = 1650399
Ave neighs/atom = 83.9812
Neighbor list builds = 495
Dangerous builds not checked
Setting up Verlet run ...
  Unit style    : metal
  Current step  : 52495
  Time step     : 0.001
Per MPI rank memory allocation (min/avg/max) = 18.58 | 18.58 | 18.58 Mbytes
Step Temp Press TotEng PotEng Enthalpy Volume 
   52495    1818.8579   -181.38731   -56887.429   -61507.493   -56917.667     267096.3 
   53000    1800.4321    413.08679   -57014.726   -61587.988   -56945.995    266578.37 
Loop time of 80.7568 on 1 procs for 505 steps with 19652 atoms

Performance: 0.540 ns/day, 44.421 hours/ns, 6.253 timesteps/s
98.4% CPU use with 1 MPI tasks x no OpenMP threads

MPI task timing breakdown:
Section |  min time  |  avg time  |  max time  |%varavg| %total
---------------------------------------------------------------
Pair    | 42.682     | 42.682     | 42.682     |   0.0 | 52.85
Neigh   | 36.222     | 36.222     | 36.222     |   0.0 | 44.85
Comm    | 0.62704    | 0.62704    | 0.62704    |   0.0 |  0.78
Output  | 0.045836   | 0.045836   | 0.045836   |   0.0 |  0.06
Modify  | 0.82915    | 0.82915    | 0.82915    |   0.0 |  1.03
Other   |            | 0.3506     |            |       |  0.43

Nlocal:    19652 ave 19652 max 19652 min
Histogram: 1 0 0 0 0 0 0 0 0 0
Nghost:    19130 ave 19130 max 19130 min
Histogram: 1 0 0 0 0 0 0 0 0 0
Neighs:    1.65341e+06 ave 1.65341e+06 max 1.65341e+06 min
Histogram: 1 0 0 0 0 0 0 0 0 0

Total # of neighbors = 1653410
Ave neighs/atom = 84.1344
Neighbor list builds = 505
Dangerous builds not checked
Setting up Verlet run ...
  Unit style    : metal
  Current step  : 53000
  Time step     : 0.001
Per MPI rank memory allocation (min/avg/max) = 18.58 | 18.58 | 18.58 Mbytes
Step Temp Press TotEng PotEng Enthalpy Volume 
   53000    1800.4321    413.08679   -57014.726   -61587.988   -56945.995    266578.37 
   53495     1765.378    359.40487   -57202.096   -61686.317   -57142.443    265927.72 
Loop time of 78.5921 on 1 procs for 495 steps with 19652 atoms

Performance: 0.544 ns/day, 44.103 hours/ns, 6.298 timesteps/s
99.1% CPU use with 1 MPI tasks x no OpenMP threads

MPI task timing breakdown:
Section |  min time  |  avg time  |  max time  |%varavg| %total
---------------------------------------------------------------
Pair    | 41.653     | 41.653     | 41.653     |   0.0 | 53.00
Neigh   | 35.177     | 35.177     | 35.177     |   0.0 | 44.76
Comm    | 0.607      | 0.607      | 0.607      |   0.0 |  0.77
Output  | 0.00016999 | 0.00016999 | 0.00016999 |   0.0 |  0.00
Modify  | 0.80673    | 0.80673    | 0.80673    |   0.0 |  1.03
Other   |            | 0.3481     |            |       |  0.44

Nlocal:    19652 ave 19652 max 19652 min
Histogram: 1 0 0 0 0 0 0 0 0 0
Nghost:    19194 ave 19194 max 19194 min
Histogram: 1 0 0 0 0 0 0 0 0 0
Neighs:    1.65719e+06 ave 1.65719e+06 max 1.65719e+06 min
Histogram: 1 0 0 0 0 0 0 0 0 0

Total # of neighbors = 1657191
Ave neighs/atom = 84.3268
Neighbor list builds = 495
Dangerous builds not checked
Setting up Verlet run ...
  Unit style    : metal
  Current step  : 53495
  Time step     : 0.001
Per MPI rank memory allocation (min/avg/max) = 18.58 | 18.58 | 18.58 Mbytes
Step Temp Press TotEng PotEng Enthalpy Volume 
   53495     1765.378    359.40487   -57202.096   -61686.317   -57142.443    265927.72 
   54000    1739.9715      392.521   -57317.247   -61736.933   -57252.158    265676.29 
Loop time of 76.8568 on 1 procs for 505 steps with 19652 atoms

Performance: 0.568 ns/day, 42.275 hours/ns, 6.571 timesteps/s
99.8% CPU use with 1 MPI tasks x no OpenMP threads

MPI task timing breakdown:
Section |  min time  |  avg time  |  max time  |%varavg| %total
---------------------------------------------------------------
Pair    | 40.506     | 40.506     | 40.506     |   0.0 | 52.70
Neigh   | 34.704     | 34.704     | 34.704     |   0.0 | 45.15
Comm    | 0.55231    | 0.55231    | 0.55231    |   0.0 |  0.72
Output  | 0.042374   | 0.042374   | 0.042374   |   0.0 |  0.06
Modify  | 0.74975    | 0.74975    | 0.74975    |   0.0 |  0.98
Other   |            | 0.3029     |            |       |  0.39

Nlocal:    19652 ave 19652 max 19652 min
Histogram: 1 0 0 0 0 0 0 0 0 0
Nghost:    19184 ave 19184 max 19184 min
Histogram: 1 0 0 0 0 0 0 0 0 0
Neighs:    1.65807e+06 ave 1.65807e+06 max 1.65807e+06 min
Histogram: 1 0 0 0 0 0 0 0 0 0

Total # of neighbors = 1658068
Ave neighs/atom = 84.3715
Neighbor list builds = 505
Dangerous builds not checked
Setting up Verlet run ...
  Unit style    : metal
  Current step  : 54000
  Time step     : 0.001
Per MPI rank memory allocation (min/avg/max) = 18.58 | 18.58 | 18.58 Mbytes
Step Temp Press TotEng PotEng Enthalpy Volume 
   54000    1739.9715      392.521   -57317.247   -61736.933   -57252.158    265676.29 
   54495    1719.4567    1925.7838   -57496.926   -61864.503   -57178.699    264752.72 
Loop time of 75.3322 on 1 procs for 495 steps with 19652 atoms

Performance: 0.568 ns/day, 42.274 hours/ns, 6.571 timesteps/s
99.7% CPU use with 1 MPI tasks x no OpenMP threads

MPI task timing breakdown:
Section |  min time  |  avg time  |  max time  |%varavg| %total
---------------------------------------------------------------
Pair    | 39.71      | 39.71      | 39.71      |   0.0 | 52.71
Neigh   | 34.04      | 34.04      | 34.04      |   0.0 | 45.19
Comm    | 0.54128    | 0.54128    | 0.54128    |   0.0 |  0.72
Output  | 0.0001688  | 0.0001688  | 0.0001688  |   0.0 |  0.00
Modify  | 0.74531    | 0.74531    | 0.74531    |   0.0 |  0.99
Other   |            | 0.2953     |            |       |  0.39

Nlocal:    19652 ave 19652 max 19652 min
Histogram: 1 0 0 0 0 0 0 0 0 0
Nghost:    19180 ave 19180 max 19180 min
Histogram: 1 0 0 0 0 0 0 0 0 0
Neighs:    1.66418e+06 ave 1.66418e+06 max 1.66418e+06 min
Histogram: 1 0 0 0 0 0 0 0 0 0

Total # of neighbors = 1664179
Ave neighs/atom = 84.6824
Neighbor list builds = 495
Dangerous builds not checked
Setting up Verlet run ...
  Unit style    : metal
  Current step  : 54495
  Time step     : 0.001
Per MPI rank memory allocation (min/avg/max) = 18.58 | 18.58 | 18.58 Mbytes
Step Temp Press TotEng PotEng Enthalpy Volume 
   54495    1719.4567    1925.7838   -57496.926   -61864.503   -57178.699    264752.72 
   55000    1691.0718    528.14835   -57682.971   -61978.448   -57595.823    264369.65 
Loop time of 77.0839 on 1 procs for 505 steps with 19652 atoms

Performance: 0.566 ns/day, 42.400 hours/ns, 6.551 timesteps/s
99.6% CPU use with 1 MPI tasks x no OpenMP threads

MPI task timing breakdown:
Section |  min time  |  avg time  |  max time  |%varavg| %total
---------------------------------------------------------------
Pair    | 40.686     | 40.686     | 40.686     |   0.0 | 52.78
Neigh   | 34.725     | 34.725     | 34.725     |   0.0 | 45.05
Comm    | 0.55438    | 0.55438    | 0.55438    |   0.0 |  0.72
Output  | 0.059389   | 0.059389   | 0.059389   |   0.0 |  0.08
Modify  | 0.75457    | 0.75457    | 0.75457    |   0.0 |  0.98
Other   |            | 0.3052     |            |       |  0.40

Nlocal:    19652 ave 19652 max 19652 min
Histogram: 1 0 0 0 0 0 0 0 0 0
Nghost:    19280 ave 19280 max 19280 min
Histogram: 1 0 0 0 0 0 0 0 0 0
Neighs:    1.66608e+06 ave 1.66608e+06 max 1.66608e+06 min
Histogram: 1 0 0 0 0 0 0 0 0 0

Total # of neighbors = 1666078
Ave neighs/atom = 84.7791
Neighbor list builds = 505
Dangerous builds not checked
Setting up Verlet run ...
  Unit style    : metal
  Current step  : 55000
  Time step     : 0.001
Per MPI rank memory allocation (min/avg/max) = 18.58 | 18.58 | 18.58 Mbytes
Step Temp Press TotEng PotEng Enthalpy Volume 
   55000    1691.0718    528.14835   -57682.971   -61978.448   -57595.823    264369.65 
   55495    1659.1316    1264.9174   -57830.329   -62044.674   -57622.066     263790.8 
Loop time of 75.8011 on 1 procs for 495 steps with 19652 atoms

Performance: 0.564 ns/day, 42.537 hours/ns, 6.530 timesteps/s
99.3% CPU use with 1 MPI tasks x no OpenMP threads

MPI task timing breakdown:
Section |  min time  |  avg time  |  max time  |%varavg| %total
---------------------------------------------------------------
Pair    | 40.155     | 40.155     | 40.155     |   0.0 | 52.97
Neigh   | 34.064     | 34.064     | 34.064     |   0.0 | 44.94
Comm    | 0.54202    | 0.54202    | 0.54202    |   0.0 |  0.72
Output  | 0.00032902 | 0.00032902 | 0.00032902 |   0.0 |  0.00
Modify  | 0.74169    | 0.74169    | 0.74169    |   0.0 |  0.98
Other   |            | 0.2981     |            |       |  0.39

Nlocal:    19652 ave 19652 max 19652 min
Histogram: 1 0 0 0 0 0 0 0 0 0
Nghost:    19276 ave 19276 max 19276 min
Histogram: 1 0 0 0 0 0 0 0 0 0
Neighs:    1.66976e+06 ave 1.66976e+06 max 1.66976e+06 min
Histogram: 1 0 0 0 0 0 0 0 0 0

Total # of neighbors = 1669763
Ave neighs/atom = 84.9666
Neighbor list builds = 495
Dangerous builds not checked
Setting up Verlet run ...
  Unit style    : metal
  Current step  : 55495
  Time step     : 0.001
Per MPI rank memory allocation (min/avg/max) = 18.58 | 18.58 | 18.58 Mbytes
Step Temp Press TotEng PotEng Enthalpy Volume 
   55495    1659.1316    1264.9174   -57830.329   -62044.674   -57622.066     263790.8 
   56000    1632.0266    17.679339    -57984.02   -62129.516   -57981.111    263569.63 
Loop time of 77.0159 on 1 procs for 505 steps with 19652 atoms

Performance: 0.567 ns/day, 42.363 hours/ns, 6.557 timesteps/s
99.4% CPU use with 1 MPI tasks x no OpenMP threads

MPI task timing breakdown:
Section |  min time  |  avg time  |  max time  |%varavg| %total
---------------------------------------------------------------
Pair    | 40.791     | 40.791     | 40.791     |   0.0 | 52.96
Neigh   | 34.582     | 34.582     | 34.582     |   0.0 | 44.90
Comm    | 0.5505     | 0.5505     | 0.5505     |   0.0 |  0.71
Output  | 0.042974   | 0.042974   | 0.042974   |   0.0 |  0.06
Modify  | 0.74917    | 0.74917    | 0.74917    |   0.0 |  0.97
Other   |            | 0.3004     |            |       |  0.39

Nlocal:    19652 ave 19652 max 19652 min
Histogram: 1 0 0 0 0 0 0 0 0 0
Nghost:    19261 ave 19261 max 19261 min
Histogram: 1 0 0 0 0 0 0 0 0 0
Neighs:    1.67113e+06 ave 1.67113e+06 max 1.67113e+06 min
Histogram: 1 0 0 0 0 0 0 0 0 0

Total # of neighbors = 1671126
Ave neighs/atom = 85.0359
Neighbor list builds = 505
Dangerous builds not checked
Setting up Verlet run ...
  Unit style    : metal
  Current step  : 56000
  Time step     : 0.001
Per MPI rank memory allocation (min/avg/max) = 18.58 | 18.58 | 18.58 Mbytes
Step Temp Press TotEng PotEng Enthalpy Volume 
   56000    1632.0266    17.679339    -57984.02   -62129.516   -57981.111    263569.63 
   56495    1607.4442    1015.4065     -58142.3   -62225.355   -57975.695    262880.46 
Loop time of 75.688 on 1 procs for 495 steps with 19652 atoms

Performance: 0.565 ns/day, 42.474 hours/ns, 6.540 timesteps/s
99.5% CPU use with 1 MPI tasks x no OpenMP threads

MPI task timing breakdown:
Section |  min time  |  avg time  |  max time  |%varavg| %total
---------------------------------------------------------------
Pair    | 40.048     | 40.048     | 40.048     |   0.0 | 52.91
Neigh   | 34.069     | 34.069     | 34.069     |   0.0 | 45.01
Comm    | 0.54069    | 0.54069    | 0.54069    |   0.0 |  0.71
Output  | 0.00019813 | 0.00019813 | 0.00019813 |   0.0 |  0.00
Modify  | 0.73404    | 0.73404    | 0.73404    |   0.0 |  0.97
Other   |            | 0.2962     |            |       |  0.39

Nlocal:    19652 ave 19652 max 19652 min
Histogram: 1 0 0 0 0 0 0 0 0 0
Nghost:    19344 ave 19344 max 19344 min
Histogram: 1 0 0 0 0 0 0 0 0 0
Neighs:    1.67476e+06 ave 1.67476e+06 max 1.67476e+06 min
Histogram: 1 0 0 0 0 0 0 0 0 0

Total # of neighbors = 1674764
Ave neighs/atom = 85.221
Neighbor list builds = 495
Dangerous builds not checked
Setting up Verlet run ...
  Unit style    : metal
  Current step  : 56495
  Time step     : 0.001
Per MPI rank memory allocation (min/avg/max) = 18.58 | 18.58 | 18.58 Mbytes
Step Temp Press TotEng PotEng Enthalpy Volume 
   56495    1607.4442    1015.4065     -58142.3   -62225.355   -57975.695    262880.46 
   57000    1597.6222   -1132.0122   -58321.903   -62380.009   -58507.362    262487.33 
Loop time of 77.3341 on 1 procs for 505 steps with 19652 atoms

Performance: 0.564 ns/day, 42.538 hours/ns, 6.530 timesteps/s
99.3% CPU use with 1 MPI tasks x no OpenMP threads

MPI task timing breakdown:
Section |  min time  |  avg time  |  max time  |%varavg| %total
---------------------------------------------------------------
Pair    | 40.955     | 40.955     | 40.955     |   0.0 | 52.96
Neigh   | 34.69      | 34.69      | 34.69      |   0.0 | 44.86
Comm    | 0.5788     | 0.5788     | 0.5788     |   0.0 |  0.75
Output  | 0.043631   | 0.043631   | 0.043631   |   0.0 |  0.06
Modify  | 0.76113    | 0.76113    | 0.76113    |   0.0 |  0.98
Other   |            | 0.3054     |            |       |  0.39

Nlocal:    19652 ave 19652 max 19652 min
Histogram: 1 0 0 0 0 0 0 0 0 0
Nghost:    19339 ave 19339 max 19339 min
Histogram: 1 0 0 0 0 0 0 0 0 0
Neighs:    1.67655e+06 ave 1.67655e+06 max 1.67655e+06 min
Histogram: 1 0 0 0 0 0 0 0 0 0

Total # of neighbors = 1676552
Ave neighs/atom = 85.312
Neighbor list builds = 505
Dangerous builds not checked
Setting up Verlet run ...
  Unit style    : metal
  Current step  : 57000
  Time step     : 0.001
Per MPI rank memory allocation (min/avg/max) = 18.58 | 18.58 | 18.58 Mbytes
Step Temp Press TotEng PotEng Enthalpy Volume 
   57000    1597.6222   -1132.0122   -58321.903   -62380.009   -58507.362    262487.33 
   57495    1567.7297    250.56997   -58512.205   -62494.381   -58471.284    261653.22 
Loop time of 75.604 on 1 procs for 495 steps with 19652 atoms

Performance: 0.566 ns/day, 42.427 hours/ns, 6.547 timesteps/s
99.7% CPU use with 1 MPI tasks x no OpenMP threads

MPI task timing breakdown:
Section |  min time  |  avg time  |  max time  |%varavg| %total
---------------------------------------------------------------
Pair    | 40.093     | 40.093     | 40.093     |   0.0 | 53.03
Neigh   | 33.93      | 33.93      | 33.93      |   0.0 | 44.88
Comm    | 0.54299    | 0.54299    | 0.54299    |   0.0 |  0.72
Output  | 0.00019121 | 0.00019121 | 0.00019121 |   0.0 |  0.00
Modify  | 0.73918    | 0.73918    | 0.73918    |   0.0 |  0.98
Other   |            | 0.2993     |            |       |  0.40

Nlocal:    19652 ave 19652 max 19652 min
Histogram: 1 0 0 0 0 0 0 0 0 0
Nghost:    19274 ave 19274 max 19274 min
Histogram: 1 0 0 0 0 0 0 0 0 0
Neighs:    1.68195e+06 ave 1.68195e+06 max 1.68195e+06 min
Histogram: 1 0 0 0 0 0 0 0 0 0

Total # of neighbors = 1681954
Ave neighs/atom = 85.5869
Neighbor list builds = 495
Dangerous builds not checked
Setting up Verlet run ...
  Unit style    : metal
  Current step  : 57495
  Time step     : 0.001
Per MPI rank memory allocation (min/avg/max) = 18.58 | 18.58 | 18.58 Mbytes
Step Temp Press TotEng PotEng Enthalpy Volume 
   57495    1567.7297    250.56997   -58512.205   -62494.381   -58471.284    261653.22 
   58000    1560.1377   -1532.1199   -58607.853   -62570.745   -58857.979    261563.31 
Loop time of 77.2318 on 1 procs for 505 steps with 19652 atoms

Performance: 0.565 ns/day, 42.482 hours/ns, 6.539 timesteps/s
99.7% CPU use with 1 MPI tasks x no OpenMP threads

MPI task timing breakdown:
Section |  min time  |  avg time  |  max time  |%varavg| %total
---------------------------------------------------------------
Pair    | 41.003     | 41.003     | 41.003     |   0.0 | 53.09
Neigh   | 34.559     | 34.559     | 34.559     |   0.0 | 44.75
Comm    | 0.55835    | 0.55835    | 0.55835    |   0.0 |  0.72
Output  | 0.043778   | 0.043778   | 0.043778   |   0.0 |  0.06
Modify  | 0.76139    | 0.76139    | 0.76139    |   0.0 |  0.99
Other   |            | 0.3063     |            |       |  0.40

Nlocal:    19652 ave 19652 max 19652 min
Histogram: 1 0 0 0 0 0 0 0 0 0
Nghost:    19310 ave 19310 max 19310 min
Histogram: 1 0 0 0 0 0 0 0 0 0
Neighs:    1.68266e+06 ave 1.68266e+06 max 1.68266e+06 min
Histogram: 1 0 0 0 0 0 0 0 0 0

Total # of neighbors = 1682657
Ave neighs/atom = 85.6227
Neighbor list builds = 505
Dangerous builds not checked
Setting up Verlet run ...
  Unit style    : metal
  Current step  : 58000
  Time step     : 0.001
Per MPI rank memory allocation (min/avg/max) = 18.58 | 18.58 | 18.58 Mbytes
Step Temp Press TotEng PotEng Enthalpy Volume 
   58000    1560.1377   -1532.1199   -58607.853   -62570.745   -58857.979    261563.31 
   58495    1507.5002    432.63699   -58813.374   -62642.561   -58742.962    260752.81 
Loop time of 75.6844 on 1 procs for 495 steps with 19652 atoms

Performance: 0.565 ns/day, 42.472 hours/ns, 6.540 timesteps/s
99.3% CPU use with 1 MPI tasks x no OpenMP threads

MPI task timing breakdown:
Section |  min time  |  avg time  |  max time  |%varavg| %total
---------------------------------------------------------------
Pair    | 40.252     | 40.252     | 40.252     |   0.0 | 53.18
Neigh   | 33.855     | 33.855     | 33.855     |   0.0 | 44.73
Comm    | 0.54171    | 0.54171    | 0.54171    |   0.0 |  0.72
Output  | 0.00015998 | 0.00015998 | 0.00015998 |   0.0 |  0.00
Modify  | 0.73645    | 0.73645    | 0.73645    |   0.0 |  0.97
Other   |            | 0.2982     |            |       |  0.39

Nlocal:    19652 ave 19652 max 19652 min
Histogram: 1 0 0 0 0 0 0 0 0 0
Nghost:    19347 ave 19347 max 19347 min
Histogram: 1 0 0 0 0 0 0 0 0 0
Neighs:    1.68676e+06 ave 1.68676e+06 max 1.68676e+06 min
Histogram: 1 0 0 0 0 0 0 0 0 0

Total # of neighbors = 1686764
Ave neighs/atom = 85.8317
Neighbor list builds = 495
Dangerous builds not checked
Setting up Verlet run ...
  Unit style    : metal
  Current step  : 58495
  Time step     : 0.001
Per MPI rank memory allocation (min/avg/max) = 18.58 | 18.58 | 18.58 Mbytes
Step Temp Press TotEng PotEng Enthalpy Volume 
   58495    1507.5002    432.63699   -58813.374   -62642.561   -58742.962    260752.81 
   59000    1497.4129   -819.08211   -58972.008   -62775.574   -59105.101    260337.97 
Loop time of 77.2482 on 1 procs for 505 steps with 19652 atoms

Performance: 0.565 ns/day, 42.491 hours/ns, 6.537 timesteps/s
99.6% CPU use with 1 MPI tasks x no OpenMP threads

MPI task timing breakdown:
Section |  min time  |  avg time  |  max time  |%varavg| %total
---------------------------------------------------------------
Pair    | 41.044     | 41.044     | 41.044     |   0.0 | 53.13
Neigh   | 34.541     | 34.541     | 34.541     |   0.0 | 44.71
Comm    | 0.55456    | 0.55456    | 0.55456    |   0.0 |  0.72
Output  | 0.058878   | 0.058878   | 0.058878   |   0.0 |  0.08
Modify  | 0.74718    | 0.74718    | 0.74718    |   0.0 |  0.97
Other   |            | 0.3028     |            |       |  0.39

Nlocal:    19652 ave 19652 max 19652 min
Histogram: 1 0 0 0 0 0 0 0 0 0
Nghost:    19325 ave 19325 max 19325 min
Histogram: 1 0 0 0 0 0 0 0 0 0
Neighs:    1.68904e+06 ave 1.68904e+06 max 1.68904e+06 min
Histogram: 1 0 0 0 0 0 0 0 0 0

Total # of neighbors = 1689042
Ave neighs/atom = 85.9476
Neighbor list builds = 505
Dangerous builds not checked
Setting up Verlet run ...
  Unit style    : metal
  Current step  : 59000
  Time step     : 0.001
Per MPI rank memory allocation (min/avg/max) = 18.58 | 18.58 | 18.58 Mbytes
Step Temp Press TotEng PotEng Enthalpy Volume 
   59000    1497.4129   -819.08211   -58972.008   -62775.574   -59105.101    260337.97 
   59495    1456.0256    1514.3408   -59135.756   -62834.194   -58890.393    259595.27 
Loop time of 75.8134 on 1 procs for 495 steps with 19652 atoms

Performance: 0.564 ns/day, 42.544 hours/ns, 6.529 timesteps/s
99.6% CPU use with 1 MPI tasks x no OpenMP threads

MPI task timing breakdown:
Section |  min time  |  avg time  |  max time  |%varavg| %total
---------------------------------------------------------------
Pair    | 40.331     | 40.331     | 40.331     |   0.0 | 53.20
Neigh   | 33.894     | 33.894     | 33.894     |   0.0 | 44.71
Comm    | 0.54794    | 0.54794    | 0.54794    |   0.0 |  0.72
Output  | 0.0001719  | 0.0001719  | 0.0001719  |   0.0 |  0.00
Modify  | 0.74058    | 0.74058    | 0.74058    |   0.0 |  0.98
Other   |            | 0.2995     |            |       |  0.40

Nlocal:    19652 ave 19652 max 19652 min
Histogram: 1 0 0 0 0 0 0 0 0 0
Nghost:    19413 ave 19413 max 19413 min
Histogram: 1 0 0 0 0 0 0 0 0 0
Neighs:    1.69377e+06 ave 1.69377e+06 max 1.69377e+06 min
Histogram: 1 0 0 0 0 0 0 0 0 0

Total # of neighbors = 1693771
Ave neighs/atom = 86.1882
Neighbor list builds = 495
Dangerous builds not checked
Setting up Verlet run ...
  Unit style    : metal
  Current step  : 59495
  Time step     : 0.001
Per MPI rank memory allocation (min/avg/max) = 18.58 | 18.58 | 18.58 Mbytes
Step Temp Press TotEng PotEng Enthalpy Volume 
   59495    1456.0256    1514.3408   -59135.756   -62834.194   -58890.393    259595.27 
   60000    1439.2368    154.65869   -59284.714   -62940.506   -59259.688    259252.48 
Loop time of 79.2561 on 1 procs for 505 steps with 19652 atoms

Performance: 0.551 ns/day, 43.595 hours/ns, 6.372 timesteps/s
98.2% CPU use with 1 MPI tasks x no OpenMP threads

MPI task timing breakdown:
Section |  min time  |  avg time  |  max time  |%varavg| %total
---------------------------------------------------------------
Pair    | 42.082     | 42.082     | 42.082     |   0.0 | 53.10
Neigh   | 35.43      | 35.43      | 35.43      |   0.0 | 44.70
Comm    | 0.58216    | 0.58216    | 0.58216    |   0.0 |  0.73
Output  | 0.067223   | 0.067223   | 0.067223   |   0.0 |  0.08
Modify  | 0.77844    | 0.77844    | 0.77844    |   0.0 |  0.98
Other   |            | 0.316      |            |       |  0.40

Nlocal:    19652 ave 19652 max 19652 min
Histogram: 1 0 0 0 0 0 0 0 0 0
Nghost:    19371 ave 19371 max 19371 min
Histogram: 1 0 0 0 0 0 0 0 0 0
Neighs:    1.69586e+06 ave 1.69586e+06 max 1.69586e+06 min
Histogram: 1 0 0 0 0 0 0 0 0 0

Total # of neighbors = 1695865
Ave neighs/atom = 86.2948
Neighbor list builds = 505
Dangerous builds not checked
Setting up Verlet run ...
  Unit style    : metal
  Current step  : 60000
  Time step     : 0.001
Per MPI rank memory allocation (min/avg/max) = 18.58 | 18.58 | 18.58 Mbytes
Step Temp Press TotEng PotEng Enthalpy Volume 
   60000    1439.2368    154.65869   -59284.714   -62940.506   -59259.688    259252.48 
   60495    1416.1297    641.23878    -59488.16   -63085.259   -59384.722    258447.27 
Loop time of 79.8183 on 1 procs for 495 steps with 19652 atoms

Performance: 0.536 ns/day, 44.791 hours/ns, 6.202 timesteps/s
99.8% CPU use with 1 MPI tasks x no OpenMP threads

MPI task timing breakdown:
Section |  min time  |  avg time  |  max time  |%varavg| %total
---------------------------------------------------------------
Pair    | 42.918     | 42.918     | 42.918     |   0.0 | 53.77
Neigh   | 35.043     | 35.043     | 35.043     |   0.0 | 43.90
Comm    | 0.65026    | 0.65026    | 0.65026    |   0.0 |  0.81
Output  | 0.00016904 | 0.00016904 | 0.00016904 |   0.0 |  0.00
Modify  | 0.85214    | 0.85214    | 0.85214    |   0.0 |  1.07
Other   |            | 0.3547     |            |       |  0.44

Nlocal:    19652 ave 19652 max 19652 min
Histogram: 1 0 0 0 0 0 0 0 0 0
Nghost:    19348 ave 19348 max 19348 min
Histogram: 1 0 0 0 0 0 0 0 0 0
Neighs:    1.70069e+06 ave 1.70069e+06 max 1.70069e+06 min
Histogram: 1 0 0 0 0 0 0 0 0 0

Total # of neighbors = 1700690
Ave neighs/atom = 86.5403
Neighbor list builds = 495
Dangerous builds not checked
Setting up Verlet run ...
  Unit style    : metal
  Current step  : 60495
  Time step     : 0.001
Per MPI rank memory allocation (min/avg/max) = 18.58 | 18.58 | 18.58 Mbytes
Step Temp Press TotEng PotEng Enthalpy Volume 
   60495    1416.1297    641.23878    -59488.16   -63085.259   -59384.722    258447.27 
   61000    1395.0026   -4.8893353   -59644.635   -63188.069   -59645.422     258008.4 
Loop time of 83.6367 on 1 procs for 505 steps with 19652 atoms

Performance: 0.522 ns/day, 46.005 hours/ns, 6.038 timesteps/s
98.8% CPU use with 1 MPI tasks x no OpenMP threads

MPI task timing breakdown:
Section |  min time  |  avg time  |  max time  |%varavg| %total
---------------------------------------------------------------
Pair    | 45.57      | 45.57      | 45.57      |   0.0 | 54.49
Neigh   | 36.013     | 36.013     | 36.013     |   0.0 | 43.06
Comm    | 0.70026    | 0.70026    | 0.70026    |   0.0 |  0.84
Output  | 0.046908   | 0.046908   | 0.046908   |   0.0 |  0.06
Modify  | 0.92964    | 0.92964    | 0.92964    |   0.0 |  1.11
Other   |            | 0.3771     |            |       |  0.45

Nlocal:    19652 ave 19652 max 19652 min
Histogram: 1 0 0 0 0 0 0 0 0 0
Nghost:    19478 ave 19478 max 19478 min
Histogram: 1 0 0 0 0 0 0 0 0 0
Neighs:    1.70224e+06 ave 1.70224e+06 max 1.70224e+06 min
Histogram: 1 0 0 0 0 0 0 0 0 0

Total # of neighbors = 1702239
Ave neighs/atom = 86.6191
Neighbor list builds = 505
Dangerous builds not checked
Setting up Verlet run ...
  Unit style    : metal
  Current step  : 61000
  Time step     : 0.001
Per MPI rank memory allocation (min/avg/max) = 18.58 | 18.58 | 18.58 Mbytes
Step Temp Press TotEng PotEng Enthalpy Volume 
   61000    1395.0026   -4.8893353   -59644.635   -63188.069   -59645.422     258008.4 
   61495    1358.2065   -78.852416   -59856.052    -63306.02   -59868.721    257428.51 
Loop time of 79.8764 on 1 procs for 495 steps with 19652 atoms

Performance: 0.535 ns/day, 44.824 hours/ns, 6.197 timesteps/s
98.6% CPU use with 1 MPI tasks x no OpenMP threads

MPI task timing breakdown:
Section |  min time  |  avg time  |  max time  |%varavg| %total
---------------------------------------------------------------
Pair    | 43.142     | 43.142     | 43.142     |   0.0 | 54.01
Neigh   | 34.906     | 34.906     | 34.906     |   0.0 | 43.70
Comm    | 0.63413    | 0.63413    | 0.63413    |   0.0 |  0.79
Output  | 0.00018406 | 0.00018406 | 0.00018406 |   0.0 |  0.00
Modify  | 0.84693    | 0.84693    | 0.84693    |   0.0 |  1.06
Other   |            | 0.3467     |            |       |  0.43

Nlocal:    19652 ave 19652 max 19652 min
Histogram: 1 0 0 0 0 0 0 0 0 0
Nghost:    19399 ave 19399 max 19399 min
Histogram: 1 0 0 0 0 0 0 0 0 0
Neighs:    1.70578e+06 ave 1.70578e+06 max 1.70578e+06 min
Histogram: 1 0 0 0 0 0 0 0 0 0

Total # of neighbors = 1705784
Ave neighs/atom = 86.7995
Neighbor list builds = 495
Dangerous builds not checked
Setting up Verlet run ...
  Unit style    : metal
  Current step  : 61495
  Time step     : 0.001
Per MPI rank memory allocation (min/avg/max) = 18.58 | 18.58 | 18.58 Mbytes
Step Temp Press TotEng PotEng Enthalpy Volume 
   61495    1358.2065   -78.852416   -59856.052    -63306.02   -59868.721    257428.51 
   62000    1362.3782   -1249.3532     -59936.6   -63397.164   -60137.135    257166.96 
Loop time of 81.6093 on 1 procs for 505 steps with 19652 atoms

Performance: 0.535 ns/day, 44.890 hours/ns, 6.188 timesteps/s
99.7% CPU use with 1 MPI tasks x no OpenMP threads

MPI task timing breakdown:
Section |  min time  |  avg time  |  max time  |%varavg| %total
---------------------------------------------------------------
Pair    | 43.917     | 43.917     | 43.917     |   0.0 | 53.81
Neigh   | 35.787     | 35.787     | 35.787     |   0.0 | 43.85
Comm    | 0.64573    | 0.64573    | 0.64573    |   0.0 |  0.79
Output  | 0.04422    | 0.04422    | 0.04422    |   0.0 |  0.05
Modify  | 0.85037    | 0.85037    | 0.85037    |   0.0 |  1.04
Other   |            | 0.3643     |            |       |  0.45

Nlocal:    19652 ave 19652 max 19652 min
Histogram: 1 0 0 0 0 0 0 0 0 0
Nghost:    19491 ave 19491 max 19491 min
Histogram: 1 0 0 0 0 0 0 0 0 0
Neighs:    1.70783e+06 ave 1.70783e+06 max 1.70783e+06 min
Histogram: 1 0 0 0 0 0 0 0 0 0

Total # of neighbors = 1707829
Ave neighs/atom = 86.9036
Neighbor list builds = 505
Dangerous builds not checked
Setting up Verlet run ...
  Unit style    : metal
  Current step  : 62000
  Time step     : 0.001
Per MPI rank memory allocation (min/avg/max) = 18.58 | 18.58 | 18.58 Mbytes
Step Temp Press TotEng PotEng Enthalpy Volume 
   62000    1362.3782   -1249.3532     -59936.6   -63397.164   -60137.135    257166.96 
   62495    1313.0601   -64.983879   -60160.207     -63495.5   -60170.609    256446.19 
Loop time of 76.9513 on 1 procs for 495 steps with 19652 atoms

Performance: 0.556 ns/day, 43.183 hours/ns, 6.433 timesteps/s
98.4% CPU use with 1 MPI tasks x no OpenMP threads

MPI task timing breakdown:
Section |  min time  |  avg time  |  max time  |%varavg| %total
---------------------------------------------------------------
Pair    | 41.15      | 41.15      | 41.15      |   0.0 | 53.47
Neigh   | 34.201     | 34.201     | 34.201     |   0.0 | 44.44
Comm    | 0.54638    | 0.54638    | 0.54638    |   0.0 |  0.71
Output  | 0.00015998 | 0.00015998 | 0.00015998 |   0.0 |  0.00
Modify  | 0.75231    | 0.75231    | 0.75231    |   0.0 |  0.98
Other   |            | 0.3019     |            |       |  0.39

Nlocal:    19652 ave 19652 max 19652 min
Histogram: 1 0 0 0 0 0 0 0 0 0
Nghost:    19483 ave 19483 max 19483 min
Histogram: 1 0 0 0 0 0 0 0 0 0
Neighs:    1.7117e+06 ave 1.7117e+06 max 1.7117e+06 min
Histogram: 1 0 0 0 0 0 0 0 0 0

Total # of neighbors = 1711700
Ave neighs/atom = 87.1005
Neighbor list builds = 495
Dangerous builds not checked
Setting up Verlet run ...
  Unit style    : metal
  Current step  : 62495
  Time step     : 0.001
Per MPI rank memory allocation (min/avg/max) = 18.58 | 18.58 | 18.58 Mbytes
Step Temp Press TotEng PotEng Enthalpy Volume 
   62495    1313.0601   -64.983879   -60160.207     -63495.5   -60170.609    256446.19 
   63000    1293.3025   -28.596814   -60313.972   -63599.078   -60318.539    255847.99 
Loop time of 79.4871 on 1 procs for 505 steps with 19652 atoms

Performance: 0.549 ns/day, 43.722 hours/ns, 6.353 timesteps/s
97.6% CPU use with 1 MPI tasks x no OpenMP threads

MPI task timing breakdown:
Section |  min time  |  avg time  |  max time  |%varavg| %total
---------------------------------------------------------------
Pair    | 42.613     | 42.613     | 42.613     |   0.0 | 53.61
Neigh   | 35.168     | 35.168     | 35.168     |   0.0 | 44.24
Comm    | 0.57484    | 0.57484    | 0.57484    |   0.0 |  0.72
Output  | 0.043227   | 0.043227   | 0.043227   |   0.0 |  0.05
Modify  | 0.77624    | 0.77624    | 0.77624    |   0.0 |  0.98
Other   |            | 0.3124     |            |       |  0.39

Nlocal:    19652 ave 19652 max 19652 min
Histogram: 1 0 0 0 0 0 0 0 0 0
Nghost:    19475 ave 19475 max 19475 min
Histogram: 1 0 0 0 0 0 0 0 0 0
Neighs:    1.71561e+06 ave 1.71561e+06 max 1.71561e+06 min
Histogram: 1 0 0 0 0 0 0 0 0 0

Total # of neighbors = 1715613
Ave neighs/atom = 87.2997
Neighbor list builds = 505
Dangerous builds not checked
Setting up Verlet run ...
  Unit style    : metal
  Current step  : 63000
  Time step     : 0.001
Per MPI rank memory allocation (min/avg/max) = 18.58 | 18.58 | 18.58 Mbytes
Step Temp Press TotEng PotEng Enthalpy Volume 
   63000    1293.3025   -28.596814   -60313.972   -63599.078   -60318.539    255847.99 
   63495    1265.5013    290.28374   -60509.988   -63724.477   -60463.742    255248.28 
Loop time of 75.9697 on 1 procs for 495 steps with 19652 atoms

Performance: 0.563 ns/day, 42.632 hours/ns, 6.516 timesteps/s
99.5% CPU use with 1 MPI tasks x no OpenMP threads

MPI task timing breakdown:
Section |  min time  |  avg time  |  max time  |%varavg| %total
---------------------------------------------------------------
Pair    | 40.675     | 40.675     | 40.675     |   0.0 | 53.54
Neigh   | 33.71      | 33.71      | 33.71      |   0.0 | 44.37
Comm    | 0.54813    | 0.54813    | 0.54813    |   0.0 |  0.72
Output  | 0.00016785 | 0.00016785 | 0.00016785 |   0.0 |  0.00
Modify  | 0.74165    | 0.74165    | 0.74165    |   0.0 |  0.98
Other   |            | 0.2948     |            |       |  0.39

Nlocal:    19652 ave 19652 max 19652 min
Histogram: 1 0 0 0 0 0 0 0 0 0
Nghost:    19511 ave 19511 max 19511 min
Histogram: 1 0 0 0 0 0 0 0 0 0
Neighs:    1.71878e+06 ave 1.71878e+06 max 1.71878e+06 min
Histogram: 1 0 0 0 0 0 0 0 0 0

Total # of neighbors = 1718775
Ave neighs/atom = 87.4606
Neighbor list builds = 495
Dangerous builds not checked
Setting up Verlet run ...
  Unit style    : metal
  Current step  : 63495
  Time step     : 0.001
Per MPI rank memory allocation (min/avg/max) = 18.58 | 18.58 | 18.58 Mbytes
Step Temp Press TotEng PotEng Enthalpy Volume 
   63495    1265.5013    290.28374   -60509.988   -63724.477   -60463.742    255248.28 
   64000    1254.1006   -643.91154   -60639.526   -63825.056   -60741.975    254910.89 
Loop time of 77.851 on 1 procs for 505 steps with 19652 atoms

Performance: 0.560 ns/day, 42.822 hours/ns, 6.487 timesteps/s
99.8% CPU use with 1 MPI tasks x no OpenMP threads

MPI task timing breakdown:
Section |  min time  |  avg time  |  max time  |%varavg| %total
---------------------------------------------------------------
Pair    | 41.687     | 41.687     | 41.687     |   0.0 | 53.55
Neigh   | 34.468     | 34.468     | 34.468     |   0.0 | 44.27
Comm    | 0.57434    | 0.57434    | 0.57434    |   0.0 |  0.74
Output  | 0.043518   | 0.043518   | 0.043518   |   0.0 |  0.06
Modify  | 0.76237    | 0.76237    | 0.76237    |   0.0 |  0.98
Other   |            | 0.3157     |            |       |  0.41

Nlocal:    19652 ave 19652 max 19652 min
Histogram: 1 0 0 0 0 0 0 0 0 0
Nghost:    19498 ave 19498 max 19498 min
Histogram: 1 0 0 0 0 0 0 0 0 0
Neighs:    1.7204e+06 ave 1.7204e+06 max 1.7204e+06 min
Histogram: 1 0 0 0 0 0 0 0 0 0

Total # of neighbors = 1720396
Ave neighs/atom = 87.543
Neighbor list builds = 505
Dangerous builds not checked
Setting up Verlet run ...
  Unit style    : metal
  Current step  : 64000
  Time step     : 0.001
Per MPI rank memory allocation (min/avg/max) = 18.58 | 18.58 | 18.58 Mbytes
Step Temp Press TotEng PotEng Enthalpy Volume 
   64000    1254.1006   -643.91154   -60639.526   -63825.056   -60741.975    254910.89 
   64495    1220.3606   -58.749911   -60833.818   -63933.645    -60843.14    254213.69 
[...]

Performance: 0.563 ns/day, 42.638 hours/ns, 6.515 timesteps/s
99.9% CPU use with 1 MPI tasks x no OpenMP threads

MPI task timing breakdown:
Section |  min time  |  avg time  |  max time  |%varavg| %total
---------------------------------------------------------------
Pair    | 41.663     | 41.663     | 41.663     |   0.0 | 54.83
Neigh   | 32.742     | 32.742     | 32.742     |   0.0 | 43.09
Comm    | 0.54491    | 0.54491    | 0.54491    |   0.0 |  0.72
Output  | 0.00018001 | 0.00018001 | 0.00018001 |   0.0 |  0.00
Modify  | 0.73774    | 0.73774    | 0.73774    |   0.0 |  0.97
Other   |            | 0.2936     |            |       |  0.39

Nlocal:    19652 ave 19652 max 19652 min
Histogram: 1 0 0 0 0 0 0 0 0 0
Nghost:    20064 ave 20064 max 20064 min
Histogram: 1 0 0 0 0 0 0 0 0 0
Neighs:    1.81311e+06 ave 1.81311e+06 max 1.81311e+06 min
Histogram: 1 0 0 0 0 0 0 0 0 0

Total # of neighbors = 1813112
Ave neighs/atom = 92.2609
Neighbor list builds = 495
Dangerous builds not checked
Setting up Verlet run ...
  Unit style    : metal
  Current step  : 80495
  Time step     : 0.001
Per MPI rank memory allocation (min/avg/max) = 18.58 | 18.58 | 18.58 Mbytes
Step Temp Press TotEng PotEng Enthalpy Volume 
   80495    418.13008    736.97804   -65950.875   -67012.964   -65840.746    239418.27 
   81000    398.34974   -638.34753   -66082.316   -67094.161   -66177.648    239272.68 
Loop time of 77.9838 on 1 procs for 505 steps with 19652 atoms

Performance: 0.560 ns/day, 42.895 hours/ns, 6.476 timesteps/s
99.8% CPU use with 1 MPI tasks x no OpenMP threads

MPI task timing breakdown:
Section |  min time  |  avg time  |  max time  |%varavg| %total
---------------------------------------------------------------
Pair    | 42.839     | 42.839     | 42.839     |   0.0 | 54.93
Neigh   | 33.458     | 33.458     | 33.458     |   0.0 | 42.90
Comm    | 0.55747    | 0.55747    | 0.55747    |   0.0 |  0.71
Output  | 0.064182   | 0.064182   | 0.064182   |   0.0 |  0.08
Modify  | 0.75492    | 0.75492    | 0.75492    |   0.0 |  0.97
Other   |            | 0.3102     |            |       |  0.40

Nlocal:    19652 ave 19652 max 19652 min
Histogram: 1 0 0 0 0 0 0 0 0 0
Nghost:    20060 ave 20060 max 20060 min
Histogram: 1 0 0 0 0 0 0 0 0 0
Neighs:    1.81422e+06 ave 1.81422e+06 max 1.81422e+06 min
Histogram: 1 0 0 0 0 0 0 0 0 0

Total # of neighbors = 1814224
Ave neighs/atom = 92.3175
Neighbor list builds = 505
Dangerous builds not checked
Setting up Verlet run ...
  Unit style    : metal
  Current step  : 81000
  Time step     : 0.001
Per MPI rank memory allocation (min/avg/max) = 18.58 | 18.58 | 18.58 Mbytes
Step Temp Press TotEng PotEng Enthalpy Volume 
   81000    398.34974   -638.34753   -66082.316   -67094.161   -66177.648    239272.68 
   81495    371.52882    743.32453   -66222.222    -67165.94   -66111.478    238700.17 
Loop time of 77.2172 on 1 procs for 495 steps with 19652 atoms

Performance: 0.554 ns/day, 43.332 hours/ns, 6.410 timesteps/s
98.7% CPU use with 1 MPI tasks x no OpenMP threads

MPI task timing breakdown:
Section |  min time  |  avg time  |  max time  |%varavg| %total
---------------------------------------------------------------
Pair    | 42.362     | 42.362     | 42.362     |   0.0 | 54.86
Neigh   | 33.235     | 33.235     | 33.235     |   0.0 | 43.04
Comm    | 0.55284    | 0.55284    | 0.55284    |   0.0 |  0.72
Output  | 0.00016189 | 0.00016189 | 0.00016189 |   0.0 |  0.00
Modify  | 0.75485    | 0.75485    | 0.75485    |   0.0 |  0.98
Other   |            | 0.3117     |            |       |  0.40

Nlocal:    19652 ave 19652 max 19652 min
Histogram: 1 0 0 0 0 0 0 0 0 0
Nghost:    20095 ave 20095 max 20095 min
Histogram: 1 0 0 0 0 0 0 0 0 0
Neighs:    1.81798e+06 ave 1.81798e+06 max 1.81798e+06 min
Histogram: 1 0 0 0 0 0 0 0 0 0

Total # of neighbors = 1817975
Ave neighs/atom = 92.5084
Neighbor list builds = 495
Dangerous builds not checked
Setting up Verlet run ...
  Unit style    : metal
  Current step  : 81495
  Time step     : 0.001
Per MPI rank memory allocation (min/avg/max) = 18.58 | 18.58 | 18.58 Mbytes
Step Temp Press TotEng PotEng Enthalpy Volume 
   81495    371.52882    743.32453   -66222.222    -67165.94   -66111.478    238700.17 
   82000    351.67622   -415.74997   -66354.681   -67247.971   -66416.578     238529.3 
Loop time of 78.8377 on 1 procs for 505 steps with 19652 atoms

Performance: 0.553 ns/day, 43.365 hours/ns, 6.406 timesteps/s
98.8% CPU use with 1 MPI tasks x no OpenMP threads

MPI task timing breakdown:
Section |  min time  |  avg time  |  max time  |%varavg| %total
---------------------------------------------------------------
Pair    | 43.317     | 43.317     | 43.317     |   0.0 | 54.94
Neigh   | 33.818     | 33.818     | 33.818     |   0.0 | 42.90
Comm    | 0.58244    | 0.58244    | 0.58244    |   0.0 |  0.74
Output  | 0.04301    | 0.04301    | 0.04301    |   0.0 |  0.05
Modify  | 0.75977    | 0.75977    | 0.75977    |   0.0 |  0.96
Other   |            | 0.318      |            |       |  0.40

Nlocal:    19652 ave 19652 max 19652 min
Histogram: 1 0 0 0 0 0 0 0 0 0
Nghost:    20059 ave 20059 max 20059 min
Histogram: 1 0 0 0 0 0 0 0 0 0
Neighs:    1.81934e+06 ave 1.81934e+06 max 1.81934e+06 min
Histogram: 1 0 0 0 0 0 0 0 0 0

Total # of neighbors = 1819342
Ave neighs/atom = 92.578
Neighbor list builds = 505
Dangerous builds not checked
Setting up Verlet run ...
  Unit style    : metal
  Current step  : 82000
  Time step     : 0.001
Per MPI rank memory allocation (min/avg/max) = 18.58 | 18.58 | 18.58 Mbytes
Step Temp Press TotEng PotEng Enthalpy Volume 
   82000    351.67622   -415.74997   -66354.681   -67247.971   -66416.578     238529.3 
   82495    324.38514    131.16669   -66496.415   -67320.383   -66476.923    238088.66 
Loop time of 76.7893 on 1 procs for 495 steps with 19652 atoms

Performance: 0.557 ns/day, 43.092 hours/ns, 6.446 timesteps/s
99.3% CPU use with 1 MPI tasks x no OpenMP threads

MPI task timing breakdown:
Section |  min time  |  avg time  |  max time  |%varavg| %total
---------------------------------------------------------------
Pair    | 42.293     | 42.293     | 42.293     |   0.0 | 55.08
Neigh   | 32.896     | 32.896     | 32.896     |   0.0 | 42.84
Comm    | 0.5512     | 0.5512     | 0.5512     |   0.0 |  0.72
Output  | 0.00017095 | 0.00017095 | 0.00017095 |   0.0 |  0.00
Modify  | 0.74317    | 0.74317    | 0.74317    |   0.0 |  0.97
Other   |            | 0.3052     |            |       |  0.40

Nlocal:    19652 ave 19652 max 19652 min
Histogram: 1 0 0 0 0 0 0 0 0 0
Nghost:    20092 ave 20092 max 20092 min
Histogram: 1 0 0 0 0 0 0 0 0 0
Neighs:    1.82274e+06 ave 1.82274e+06 max 1.82274e+06 min
Histogram: 1 0 0 0 0 0 0 0 0 0

Total # of neighbors = 1822745
Ave neighs/atom = 92.7511
Neighbor list builds = 495
Dangerous builds not checked
Setting up Verlet run ...
  Unit style    : metal
  Current step  : 82495
  Time step     : 0.001
Per MPI rank memory allocation (min/avg/max) = 18.58 | 18.58 | 18.58 Mbytes
Step Temp Press TotEng PotEng Enthalpy Volume 
   82495    324.38514    131.16669   -66496.415   -67320.383   -66476.923    238088.66 
   83000     298.0711    63.835716   -66629.923   -67387.051   -66620.448    237811.93 
Loop time of 78.1893 on 1 procs for 505 steps with 19652 atoms

Performance: 0.558 ns/day, 43.008 hours/ns, 6.459 timesteps/s
99.6% CPU use with 1 MPI tasks x no OpenMP threads

MPI task timing breakdown:
Section |  min time  |  avg time  |  max time  |%varavg| %total
---------------------------------------------------------------
Pair    | 43.05      | 43.05      | 43.05      |   0.0 | 55.06
Neigh   | 33.453     | 33.453     | 33.453     |   0.0 | 42.78
Comm    | 0.56068    | 0.56068    | 0.56068    |   0.0 |  0.72
Output  | 0.042664   | 0.042664   | 0.042664   |   0.0 |  0.05
Modify  | 0.7585     | 0.7585     | 0.7585     |   0.0 |  0.97
Other   |            | 0.3246     |            |       |  0.42

Nlocal:    19652 ave 19652 max 19652 min
Histogram: 1 0 0 0 0 0 0 0 0 0
Nghost:    20057 ave 20057 max 20057 min
Histogram: 1 0 0 0 0 0 0 0 0 0
Neighs:    1.82397e+06 ave 1.82397e+06 max 1.82397e+06 min
Histogram: 1 0 0 0 0 0 0 0 0 0

Total # of neighbors = 1823970
Ave neighs/atom = 92.8135
Neighbor list builds = 505
Dangerous builds not checked
Setting up Verlet run ...
  Unit style    : metal
  Current step  : 83000
  Time step     : 0.001
Per MPI rank memory allocation (min/avg/max) = 18.58 | 18.58 | 18.58 Mbytes
Step Temp Press TotEng PotEng Enthalpy Volume 
   83000     298.0711    63.835716   -66629.923   -67387.051   -66620.448    237811.93 
   83495     275.6847   -47.945429   -66761.301   -67461.565   -66768.408    237473.22 
Loop time of 76.5995 on 1 procs for 495 steps with 19652 atoms

Performance: 0.558 ns/day, 42.985 hours/ns, 6.462 timesteps/s
99.7% CPU use with 1 MPI tasks x no OpenMP threads

MPI task timing breakdown:
Section |  min time  |  avg time  |  max time  |%varavg| %total
---------------------------------------------------------------
Pair    | 42.203     | 42.203     | 42.203     |   0.0 | 55.10
Neigh   | 32.793     | 32.793     | 32.793     |   0.0 | 42.81
Comm    | 0.55004    | 0.55004    | 0.55004    |   0.0 |  0.72
Output  | 0.00017095 | 0.00017095 | 0.00017095 |   0.0 |  0.00
Modify  | 0.74484    | 0.74484    | 0.74484    |   0.0 |  0.97
Other   |            | 0.309      |            |       |  0.40

Nlocal:    19652 ave 19652 max 19652 min
Histogram: 1 0 0 0 0 0 0 0 0 0
Nghost:    20112 ave 20112 max 20112 min
Histogram: 1 0 0 0 0 0 0 0 0 0
Neighs:    1.82642e+06 ave 1.82642e+06 max 1.82642e+06 min
Histogram: 1 0 0 0 0 0 0 0 0 0

Total # of neighbors = 1826415
Ave neighs/atom = 92.9379
Neighbor list builds = 495
Dangerous builds not checked
Setting up Verlet run ...
  Unit style    : metal
  Current step  : 83495
  Time step     : 0.001
Per MPI rank memory allocation (min/avg/max) = 18.58 | 18.58 | 18.58 Mbytes
Step Temp Press TotEng PotEng Enthalpy Volume 
   83495     275.6847   -47.945429   -66761.301   -67461.565   -66768.408    237473.22 
   84000     249.3158    657.51562   -66893.306   -67526.591   -66796.007    237089.55 
Loop time of 78.2549 on 1 procs for 505 steps with 19652 atoms

Performance: 0.558 ns/day, 43.045 hours/ns, 6.453 timesteps/s
99.8% CPU use with 1 MPI tasks x no OpenMP threads

MPI task timing breakdown:
Section |  min time  |  avg time  |  max time  |%varavg| %total
---------------------------------------------------------------
Pair    | 43.163     | 43.163     | 43.163     |   0.0 | 55.16
Neigh   | 33.391     | 33.391     | 33.391     |   0.0 | 42.67
Comm    | 0.57114    | 0.57114    | 0.57114    |   0.0 |  0.73
Output  | 0.043431   | 0.043431   | 0.043431   |   0.0 |  0.06
Modify  | 0.76665    | 0.76665    | 0.76665    |   0.0 |  0.98
Other   |            | 0.3195     |            |       |  0.41

Nlocal:    19652 ave 19652 max 19652 min
Histogram: 1 0 0 0 0 0 0 0 0 0
Nghost:    20144 ave 20144 max 20144 min
Histogram: 1 0 0 0 0 0 0 0 0 0
Neighs:    1.82945e+06 ave 1.82945e+06 max 1.82945e+06 min
Histogram: 1 0 0 0 0 0 0 0 0 0

Total # of neighbors = 1829453
Ave neighs/atom = 93.0925
Neighbor list builds = 505
Dangerous builds not checked
Setting up Verlet run ...
  Unit style    : metal
  Current step  : 84000
  Time step     : 0.001
Per MPI rank memory allocation (min/avg/max) = 18.58 | 18.58 | 18.58 Mbytes
Step Temp Press TotEng PotEng Enthalpy Volume 
   84000     249.3158    657.51562   -66893.306   -67526.591   -66796.007    237089.55 
   84495    222.90002    22.229053   -67024.425   -67590.611   -67021.138     236853.2 
Loop time of 77.1226 on 1 procs for 495 steps with 19652 atoms

Performance: 0.555 ns/day, 43.279 hours/ns, 6.418 timesteps/s
99.2% CPU use with 1 MPI tasks x no OpenMP threads

MPI task timing breakdown:
Section |  min time  |  avg time  |  max time  |%varavg| %total
---------------------------------------------------------------
Pair    | 42.622     | 42.622     | 42.622     |   0.0 | 55.27
Neigh   | 32.872     | 32.872     | 32.872     |   0.0 | 42.62
Comm    | 0.56094    | 0.56094    | 0.56094    |   0.0 |  0.73
Output  | 0.00016809 | 0.00016809 | 0.00016809 |   0.0 |  0.00
Modify  | 0.75412    | 0.75412    | 0.75412    |   0.0 |  0.98
Other   |            | 0.3138     |            |       |  0.41

Nlocal:    19652 ave 19652 max 19652 min
Histogram: 1 0 0 0 0 0 0 0 0 0
Nghost:    20140 ave 20140 max 20140 min
Histogram: 1 0 0 0 0 0 0 0 0 0
Neighs:    1.83123e+06 ave 1.83123e+06 max 1.83123e+06 min
Histogram: 1 0 0 0 0 0 0 0 0 0

Total # of neighbors = 1831234
Ave neighs/atom = 93.1831
Neighbor list builds = 495
Dangerous builds not checked
Setting up Verlet run ...
  Unit style    : metal
  Current step  : 84495
  Time step     : 0.001
Per MPI rank memory allocation (min/avg/max) = 18.58 | 18.58 | 18.58 Mbytes
Step Temp Press TotEng PotEng Enthalpy Volume 
   84495    222.90002    22.229053   -67024.425   -67590.611   -67021.138     236853.2 
   85000    198.78246    542.37768   -67155.322   -67660.248   -67075.271    236469.12 
Loop time of 78.3595 on 1 procs for 505 steps with 19652 atoms

Performance: 0.557 ns/day, 43.102 hours/ns, 6.445 timesteps/s
99.6% CPU use with 1 MPI tasks x no OpenMP threads

MPI task timing breakdown:
Section |  min time  |  avg time  |  max time  |%varavg| %total
---------------------------------------------------------------
Pair    | 43.3       | 43.3       | 43.3       |   0.0 | 55.26
Neigh   | 33.337     | 33.337     | 33.337     |   0.0 | 42.54
Comm    | 0.57213    | 0.57213    | 0.57213    |   0.0 |  0.73
Output  | 0.062484   | 0.062484   | 0.062484   |   0.0 |  0.08
Modify  | 0.77009    | 0.77009    | 0.77009    |   0.0 |  0.98
Other   |            | 0.3182     |            |       |  0.41

Nlocal:    19652 ave 19652 max 19652 min
Histogram: 1 0 0 0 0 0 0 0 0 0
Nghost:    20148 ave 20148 max 20148 min
Histogram: 1 0 0 0 0 0 0 0 0 0
Neighs:    1.83396e+06 ave 1.83396e+06 max 1.83396e+06 min
Histogram: 1 0 0 0 0 0 0 0 0 0

Total # of neighbors = 1833958
Ave neighs/atom = 93.3217
Neighbor list builds = 505
Dangerous builds not checked
Setting up Verlet run ...
  Unit style    : metal
  Current step  : 85000
  Time step     : 0.001
Per MPI rank memory allocation (min/avg/max) = 18.58 | 18.58 | 18.58 Mbytes
Step Temp Press TotEng PotEng Enthalpy Volume 
   85000    198.78246    542.37768   -67155.322   -67660.248   -67075.271    236469.12 
   85495    175.70253   -88.580733   -67282.497   -67728.797   -67295.559    236255.15 
Loop time of 76.2936 on 1 procs for 495 steps with 19652 atoms

Performance: 0.561 ns/day, 42.813 hours/ns, 6.488 timesteps/s
99.7% CPU use with 1 MPI tasks x no OpenMP threads

MPI task timing breakdown:
Section |  min time  |  avg time  |  max time  |%varavg| %total
---------------------------------------------------------------
Pair    | 42.185     | 42.185     | 42.185     |   0.0 | 55.29
Neigh   | 32.506     | 32.506     | 32.506     |   0.0 | 42.61
Comm    | 0.54988    | 0.54988    | 0.54988    |   0.0 |  0.72
Output  | 0.00016904 | 0.00016904 | 0.00016904 |   0.0 |  0.00
Modify  | 0.74622    | 0.74622    | 0.74622    |   0.0 |  0.98
Other   |            | 0.306      |            |       |  0.40

Nlocal:    19652 ave 19652 max 19652 min
Histogram: 1 0 0 0 0 0 0 0 0 0
Nghost:    20155 ave 20155 max 20155 min
Histogram: 1 0 0 0 0 0 0 0 0 0
Neighs:    1.83518e+06 ave 1.83518e+06 max 1.83518e+06 min
Histogram: 1 0 0 0 0 0 0 0 0 0

Total # of neighbors = 1835180
Ave neighs/atom = 93.3839
Neighbor list builds = 495
Dangerous builds not checked
Setting up Verlet run ...
  Unit style    : metal
  Current step  : 85495
  Time step     : 0.001
Per MPI rank memory allocation (min/avg/max) = 18.58 | 18.58 | 18.58 Mbytes
Step Temp Press TotEng PotEng Enthalpy Volume 
   85495    175.70253   -88.580733   -67282.497   -67728.797   -67295.559    236255.15 
   86000    151.33193    282.74916   -67412.687   -67797.084   -67371.057    235894.69 
Loop time of 78.3553 on 1 procs for 505 steps with 19652 atoms

Performance: 0.557 ns/day, 43.100 hours/ns, 6.445 timesteps/s
99.2% CPU use with 1 MPI tasks x no OpenMP threads

MPI task timing breakdown:
Section |  min time  |  avg time  |  max time  |%varavg| %total
---------------------------------------------------------------
Pair    | 43.352     | 43.352     | 43.352     |   0.0 | 55.33
Neigh   | 33.326     | 33.326     | 33.326     |   0.0 | 42.53
Comm    | 0.56154    | 0.56154    | 0.56154    |   0.0 |  0.72
Output  | 0.04317    | 0.04317    | 0.04317    |   0.0 |  0.06
Modify  | 0.758      | 0.758      | 0.758      |   0.0 |  0.97
Other   |            | 0.3148     |            |       |  0.40

Nlocal:    19652 ave 19652 max 19652 min
Histogram: 1 0 0 0 0 0 0 0 0 0
Nghost:    20189 ave 20189 max 20189 min
Histogram: 1 0 0 0 0 0 0 0 0 0
Neighs:    1.83794e+06 ave 1.83794e+06 max 1.83794e+06 min
Histogram: 1 0 0 0 0 0 0 0 0 0

Total # of neighbors = 1837939
Ave neighs/atom = 93.5243
Neighbor list builds = 505
Dangerous builds not checked
Setting up Verlet run ...
  Unit style    : metal
  Current step  : 86000
  Time step     : 0.001
Per MPI rank memory allocation (min/avg/max) = 18.58 | 18.58 | 18.58 Mbytes
Step Temp Press TotEng PotEng Enthalpy Volume 
   86000    151.33193    282.74916   -67412.687   -67797.084   -67371.057    235894.69 
   86495    126.49528    20.213251   -67535.988   -67857.298   -67533.015    235651.37 
Loop time of 76.9155 on 1 procs for 495 steps with 19652 atoms

Performance: 0.556 ns/day, 43.162 hours/ns, 6.436 timesteps/s
99.2% CPU use with 1 MPI tasks x no OpenMP threads

MPI task timing breakdown:
Section |  min time  |  avg time  |  max time  |%varavg| %total
---------------------------------------------------------------
Pair    | 42.59      | 42.59      | 42.59      |   0.0 | 55.37
Neigh   | 32.692     | 32.692     | 32.692     |   0.0 | 42.50
Comm    | 0.55631    | 0.55631    | 0.55631    |   0.0 |  0.72
Output  | 0.0001719  | 0.0001719  | 0.0001719  |   0.0 |  0.00
Modify  | 0.76666    | 0.76666    | 0.76666    |   0.0 |  1.00
Other   |            | 0.3108     |            |       |  0.40

Nlocal:    19652 ave 19652 max 19652 min
Histogram: 1 0 0 0 0 0 0 0 0 0
Nghost:    20186 ave 20186 max 20186 min
Histogram: 1 0 0 0 0 0 0 0 0 0
Neighs:    1.83973e+06 ave 1.83973e+06 max 1.83973e+06 min
Histogram: 1 0 0 0 0 0 0 0 0 0

Total # of neighbors = 1839734
Ave neighs/atom = 93.6156
Neighbor list builds = 495
Dangerous builds not checked
Setting up Verlet run ...
  Unit style    : metal
  Current step  : 86495
  Time step     : 0.001
Per MPI rank memory allocation (min/avg/max) = 18.58 | 18.58 | 18.58 Mbytes
Step Temp Press TotEng PotEng Enthalpy Volume 
   86495    126.49528    20.213251   -67535.988   -67857.298   -67533.015    235651.37 
   87000    102.61898   -306.61675   -67663.108    -67923.77   -67708.155    235383.39 
Loop time of 78.1582 on 1 procs for 505 steps with 19652 atoms

Performance: 0.558 ns/day, 42.991 hours/ns, 6.461 timesteps/s
99.7% CPU use with 1 MPI tasks x no OpenMP threads

MPI task timing breakdown:
Section |  min time  |  avg time  |  max time  |%varavg| %total
---------------------------------------------------------------
Pair    | 43.354     | 43.354     | 43.354     |   0.0 | 55.47
Neigh   | 33.109     | 33.109     | 33.109     |   0.0 | 42.36
Comm    | 0.56519    | 0.56519    | 0.56519    |   0.0 |  0.72
Output  | 0.042888   | 0.042888   | 0.042888   |   0.0 |  0.05
Modify  | 0.76922    | 0.76922    | 0.76922    |   0.0 |  0.98
Other   |            | 0.3181     |            |       |  0.41

Nlocal:    19652 ave 19652 max 19652 min
Histogram: 1 0 0 0 0 0 0 0 0 0
Nghost:    20164 ave 20164 max 20164 min
Histogram: 1 0 0 0 0 0 0 0 0 0
Neighs:    1.84142e+06 ave 1.84142e+06 max 1.84142e+06 min
Histogram: 1 0 0 0 0 0 0 0 0 0

Total # of neighbors = 1841416
Ave neighs/atom = 93.7012
Neighbor list builds = 505
Dangerous builds not checked
Total wall time: 3:47:37
