LAMMPS (12 Dec 2018)
Lattice spacing in x,y,z = 4 4 4
Created orthogonal box = (0 0 0) to (68 68 68)
  1 by 1 by 2 MPI processor grid
Created 19652 atoms
  Time spent = 0.00204086 secs
Setting atom values ...
  19652 settings made for type/fraction
Neighbor list info ...
  update every 1 steps, delay 0 steps, check no
  max neighbors/atom: 2000, page size: 100000
  master list distance cutoff = 8.5
  ghost atom cutoff = 8.5
  binsize = 4.25, bins = 16 16 16
  1 neighbor lists, perpetual/occasional/extra = 1 0 0
  (1) pair eam/alloy, perpetual
      attributes: half, newton on
      pair build: half/bin/atomonly/newton
      stencil: half/bin/3d/newton
      bin: standard
Setting up Verlet run ...
  Unit style    : metal
  Current step  : 0
  Time step     : 0.001
Per MPI rank memory allocation (min/avg/max) = 11.15 | 11.15 | 11.15 Mbytes
Step Temp Press TotEng PotEng Enthalpy 
       0          300   -61779.302   -76290.537   -77052.565   -88414.913 
    1000    2099.4315    116749.99   -76291.723   -81624.471   -53379.183 
Loop time of 138.52 on 2 procs for 1000 steps with 19652 atoms

Performance: 0.624 ns/day, 38.478 hours/ns, 7.219 timesteps/s
89.1% CPU use with 2 MPI tasks x no OpenMP threads

MPI task timing breakdown:
Section |  min time  |  avg time  |  max time  |%varavg| %total
---------------------------------------------------------------
Pair    | 76.82      | 78.864     | 80.908     |  23.0 | 56.93
Neigh   | 48.578     | 48.833     | 49.088     |   3.6 | 35.25
Comm    | 8.4199     | 10.238     | 12.056     |  56.8 |  7.39
Output  | 0.00020099 | 0.0003885  | 0.00057602 |   0.0 |  0.00
Modify  | 0.26345    | 0.28228    | 0.3011     |   3.5 |  0.20
Other   |            | 0.3021     |            |       |  0.22

Nlocal:    9826 ave 9827 max 9825 min
Histogram: 1 0 0 0 0 0 0 0 0 1
Nghost:    13239 ave 13264 max 13214 min
Histogram: 1 0 0 0 0 0 0 0 0 1
Neighs:    784843 ave 785068 max 784618 min
Histogram: 1 0 0 0 0 0 0 0 0 1

Total # of neighbors = 1569686
Ave neighs/atom = 79.8741
Neighbor list builds = 1000
Dangerous builds not checked
Setting up Verlet run ...
  Unit style    : metal
  Current step  : 1000
  Time step     : 0.001
Per MPI rank memory allocation (min/avg/max) = 11.15 | 11.15 | 11.15 Mbytes
Step Temp Press TotEng PotEng Enthalpy 
    1000    2099.4315    116749.99   -76291.723   -81624.471   -53379.183 
    2000     343.8266   -68.762217   -86581.908   -87455.259   -86597.601 
Loop time of 104.573 on 2 procs for 1000 steps with 19652 atoms

Performance: 0.826 ns/day, 29.048 hours/ns, 9.563 timesteps/s
92.3% CPU use with 2 MPI tasks x no OpenMP threads

MPI task timing breakdown:
Section |  min time  |  avg time  |  max time  |%varavg| %total
---------------------------------------------------------------
Pair    | 56.086     | 56.41      | 56.735     |   4.3 | 53.94
Neigh   | 42.325     | 42.394     | 42.462     |   1.0 | 40.54
Comm    | 3.9774     | 4.392      | 4.8065     |  19.8 |  4.20
Output  | 0.000144   | 0.00038946 | 0.00063491 |   0.0 |  0.00
Modify  | 1.0945     | 1.1071     | 1.1198     |   1.2 |  1.06
Other   |            | 0.2692     |            |       |  0.26

Nlocal:    9826 ave 9829 max 9823 min
Histogram: 1 0 0 0 0 0 0 0 0 1
Nghost:    12384.5 ave 12387 max 12382 min
Histogram: 1 0 0 0 0 0 0 0 0 1
Neighs:    675500 ave 675813 max 675188 min
Histogram: 1 0 0 0 0 0 0 0 0 1

Total # of neighbors = 1351001
Ave neighs/atom = 68.7462
Neighbor list builds = 1000
Dangerous builds not checked
Setting up Verlet run ...
  Unit style    : metal
  Current step  : 2000
  Time step     : 0.001
Per MPI rank memory allocation (min/avg/max) = 11.15 | 11.15 | 11.15 Mbytes
Step Temp Press TotEng PotEng Enthalpy 
    2000     343.8266   -68.762217   -86581.908   -87455.259   -86597.601 
   10000    2457.1209   -308.90686   -75269.786   -81511.097   -75345.604 
Loop time of 815.43 on 2 procs for 8000 steps with 19652 atoms

Performance: 0.848 ns/day, 28.314 hours/ns, 9.811 timesteps/s
91.4% CPU use with 2 MPI tasks x no OpenMP threads

MPI task timing breakdown:
Section |  min time  |  avg time  |  max time  |%varavg| %total
---------------------------------------------------------------
Pair    | 436.69     | 440.49     | 444.29     |  18.1 | 54.02
Neigh   | 320.57     | 321.75     | 322.92     |   6.6 | 39.46
Comm    | 40.17      | 42.826     | 45.482     |  40.6 |  5.25
Output  | 9.8944e-05 | 0.00016141 | 0.00022388 |   0.0 |  0.00
Modify  | 8.2115     | 8.2502     | 8.2889     |   1.3 |  1.01
Other   |            | 2.115      |            |       |  0.26

Nlocal:    9826 ave 9834 max 9818 min
Histogram: 1 0 0 0 0 0 0 0 0 1
Nghost:    12012.5 ave 12036 max 11989 min
Histogram: 1 0 0 0 0 0 0 0 0 1
Neighs:    627812 ave 634836 max 620787 min
Histogram: 1 0 0 0 0 0 0 0 0 1

Total # of neighbors = 1255623
Ave neighs/atom = 63.8929
Neighbor list builds = 8000
Dangerous builds not checked
Setting up Verlet run ...
  Unit style    : metal
  Current step  : 10000
  Time step     : 0.001
Per MPI rank memory allocation (min/avg/max) = 11.16 | 11.16 | 11.16 Mbytes
Step Temp Press TotEng PotEng Enthalpy 
   10000    2457.1209   -308.90686   -75269.786   -81511.097   -75345.604 
   20000    2409.0124   -948.95765   -75378.917   -81498.028   -75611.726 
   40000     2426.497    865.34544   -75334.569   -81498.093   -75122.972 
Loop time of 3490.32 on 2 procs for 30000 steps with 19652 atoms

Performance: 0.743 ns/day, 32.318 hours/ns, 8.595 timesteps/s
88.8% CPU use with 2 MPI tasks x no OpenMP threads

MPI task timing breakdown:
Section |  min time  |  avg time  |  max time  |%varavg| %total
---------------------------------------------------------------
Pair    | 1919.3     | 1944.4     | 1969.5     |  56.9 | 55.71
Neigh   | 1294.4     | 1299       | 1303.6     |  12.7 | 37.22
Comm    | 172.98     | 202.85     | 232.73     | 209.8 |  5.81
Output  | 0.081648   | 0.081874   | 0.0821     |   0.1 |  0.00
Modify  | 35.103     | 35.411     | 35.719     |   5.2 |  1.01
Other   |            | 8.569      |            |       |  0.25

Nlocal:    9826 ave 9857 max 9795 min
Histogram: 1 0 0 0 0 0 0 0 0 1
Nghost:    11952 ave 11967 max 11937 min
Histogram: 1 0 0 0 0 0 0 0 0 1
Neighs:    629866 ave 638875 max 620857 min
Histogram: 1 0 0 0 0 0 0 0 0 1

Total # of neighbors = 1259732
Ave neighs/atom = 64.102
Neighbor list builds = 30000
Dangerous builds not checked
Setting up Verlet run ...
  Unit style    : metal
  Current step  : 40000
  Time step     : 0.001
Per MPI rank memory allocation (min/avg/max) = 11.3 | 11.3 | 11.3 Mbytes
Step Temp Press TotEng PotEng Enthalpy 
   40000     2426.497    865.34544   -75334.569   -81498.093   -75122.972 
   40495    2412.7584   -493.65249   -75427.851   -81556.477     -75548.7 
Loop time of 48.8419 on 2 procs for 495 steps with 19652 atoms

Performance: 0.876 ns/day, 27.408 hours/ns, 10.135 timesteps/s
94.4% CPU use with 2 MPI tasks x no OpenMP threads

MPI task timing breakdown:
Section |  min time  |  avg time  |  max time  |%varavg| %total
---------------------------------------------------------------
Pair    | 26.602     | 26.881     | 27.161     |   5.4 | 55.04
Neigh   | 19.125     | 19.164     | 19.202     |   0.9 | 39.24
Comm    | 1.7994     | 2.1178     | 2.4362     |  21.9 |  4.34
Output  | 0.00010395 | 0.00026202 | 0.00042009 |   0.0 |  0.00
Modify  | 0.54085    | 0.5443     | 0.54775    |   0.5 |  1.11
Other   |            | 0.1346     |            |       |  0.28

Nlocal:    9826 ave 9843 max 9809 min
Histogram: 1 0 0 0 0 0 0 0 0 1
Nghost:    12009 ave 12054 max 11964 min
Histogram: 1 0 0 0 0 0 0 0 0 1
Neighs:    629132 ave 633944 max 624321 min
Histogram: 1 0 0 0 0 0 0 0 0 1

Total # of neighbors = 1258265
Ave neighs/atom = 64.0273
Neighbor list builds = 495
Dangerous builds not checked
Setting up Verlet run ...
  Unit style    : metal
  Current step  : 40495
  Time step     : 0.001
Per MPI rank memory allocation (min/avg/max) = 11.3 | 11.3 | 11.3 Mbytes
Step Temp Press TotEng PotEng Enthalpy 
   40495    2412.7584   -493.65249   -75427.851   -81556.477     -75548.7 
   60000    2386.7097    363.74675   -75451.147   -81513.607   -75362.212 
Loop time of 1968.41 on 2 procs for 19505 steps with 19652 atoms

Performance: 0.856 ns/day, 28.033 hours/ns, 9.909 timesteps/s
94.7% CPU use with 2 MPI tasks x no OpenMP threads

MPI task timing breakdown:
Section |  min time  |  avg time  |  max time  |%varavg| %total
---------------------------------------------------------------
Pair    | 1075.8     | 1087.1     | 1098.3     |  34.2 | 55.22
Neigh   | 772.96     | 776.07     | 779.19     |  11.2 | 39.43
Comm    | 66.336     | 80.502     | 94.668     | 157.9 |  4.09
Output  | 0.035004   | 0.035047   | 0.035091   |   0.0 |  0.00
Modify  | 19.423     | 19.64      | 19.856     |   4.9 |  1.00
Other   |            | 5.108      |            |       |  0.26

Nlocal:    9826 ave 9836 max 9816 min
Histogram: 1 0 0 0 0 0 0 0 0 1
Nghost:    12063.5 ave 12077 max 12050 min
Histogram: 1 0 0 0 0 0 0 0 0 1
Neighs:    630014 ave 634044 max 625984 min
Histogram: 1 0 0 0 0 0 0 0 0 1

Total # of neighbors = 1260028
Ave neighs/atom = 64.117
Neighbor list builds = 19505
Dangerous builds not checked
Setting up Verlet run ...
  Unit style    : metal
  Current step  : 60000
  Time step     : 0.001
Per MPI rank memory allocation (min/avg/max) = 11.32 | 11.32 | 11.32 Mbytes
Step Temp Press TotEng PotEng Enthalpy 
   60000    2386.7097    363.74675   -75451.147   -81513.607   -75362.212 
   60495    2355.1013   -61.377705   -75639.841   -81622.013    -75654.83 
Loop time of 42.5945 on 2 procs for 495 steps with 19652 atoms

Performance: 1.004 ns/day, 23.903 hours/ns, 11.621 timesteps/s
99.6% CPU use with 2 MPI tasks x no OpenMP threads

MPI task timing breakdown:
Section |  min time  |  avg time  |  max time  |%varavg| %total
---------------------------------------------------------------
Pair    | 22.967     | 23.238     | 23.508     |   5.6 | 54.56
Neigh   | 17.549     | 17.571     | 17.593     |   0.5 | 41.25
Comm    | 0.9165     | 1.2114     | 1.5063     |  26.8 |  2.84
Output  | 0.0001049  | 0.00018346 | 0.00026202 |   0.0 |  0.00
Modify  | 0.44602    | 0.44768    | 0.44934    |   0.2 |  1.05
Other   |            | 0.1266     |            |       |  0.30

Nlocal:    9826 ave 9847 max 9805 min
Histogram: 1 0 0 0 0 0 0 0 0 1
Nghost:    12002 ave 12032 max 11972 min
Histogram: 1 0 0 0 0 0 0 0 0 1
Neighs:    630746 ave 634312 max 627180 min
Histogram: 1 0 0 0 0 0 0 0 0 1

Total # of neighbors = 1261492
Ave neighs/atom = 64.1915
Neighbor list builds = 495
Dangerous builds not checked
Setting up Verlet run ...
  Unit style    : metal
  Current step  : 60495
  Time step     : 0.001
Per MPI rank memory allocation (min/avg/max) = 11.32 | 11.32 | 11.32 Mbytes
Step Temp Press TotEng PotEng Enthalpy 
   60495    2355.1013   -61.377705   -75639.841   -81622.013    -75654.83 
   80000    2346.5644   -723.74286   -75637.112     -81597.6   -75814.094 
Loop time of 1779.59 on 2 procs for 19505 steps with 19652 atoms

Performance: 0.947 ns/day, 25.344 hours/ns, 10.960 timesteps/s
99.3% CPU use with 2 MPI tasks x no OpenMP threads

MPI task timing breakdown:
Section |  min time  |  avg time  |  max time  |%varavg| %total
---------------------------------------------------------------
Pair    | 972.8      | 979.93     | 987.06     |  22.8 | 55.06
Neigh   | 730.35     | 732.34     | 734.33     |   7.3 | 41.15
Comm    | 36.571     | 45.789     | 55.006     | 136.2 |  2.57
Output  | 0.035431   | 0.035564   | 0.035696   |   0.1 |  0.00
Modify  | 16.62      | 16.724     | 16.829     |   2.6 |  0.94
Other   |            | 4.778      |            |       |  0.27

Nlocal:    9826 ave 9842 max 9810 min
Histogram: 1 0 0 0 0 0 0 0 0 1
Nghost:    12059.5 ave 12072 max 12047 min
Histogram: 1 0 0 0 0 0 0 0 0 1
Neighs:    629980 ave 638075 max 621886 min
Histogram: 1 0 0 0 0 0 0 0 0 1

Total # of neighbors = 1259961
Ave neighs/atom = 64.1136
Neighbor list builds = 19505
Dangerous builds not checked
Setting up Verlet run ...
  Unit style    : metal
  Current step  : 80000
  Time step     : 0.001
Per MPI rank memory allocation (min/avg/max) = 11.33 | 11.33 | 11.33 Mbytes
Step Temp Press TotEng PotEng Enthalpy 
   80000    2346.5644   -723.74286   -75637.112     -81597.6   -75814.094 
   80495    2306.0415    251.49978   -75863.652   -81721.207   -75802.464 
Loop time of 41.3709 on 2 procs for 495 steps with 19652 atoms

Performance: 1.034 ns/day, 23.216 hours/ns, 11.965 timesteps/s
99.2% CPU use with 2 MPI tasks x no OpenMP threads

MPI task timing breakdown:
Section |  min time  |  avg time  |  max time  |%varavg| %total
---------------------------------------------------------------
Pair    | 22.074     | 22.29      | 22.507     |   4.6 | 53.88
Neigh   | 16.858     | 17.003     | 17.149     |   3.5 | 41.10
Comm    | 1.1833     | 1.551      | 1.9186     |  29.5 |  3.75
Output  | 8.4877e-05 | 0.00012791 | 0.00017095 |   0.0 |  0.00
Modify  | 0.40676    | 0.41194    | 0.41712    |   0.8 |  1.00
Other   |            | 0.1142     |            |       |  0.28

Nlocal:    9826 ave 9831 max 9821 min
Histogram: 1 0 0 0 0 0 0 0 0 1
Nghost:    12064.5 ave 12076 max 12053 min
Histogram: 1 0 0 0 0 0 0 0 0 1
Neighs:    633318 ave 639529 max 627107 min
Histogram: 1 0 0 0 0 0 0 0 0 1

Total # of neighbors = 1266636
Ave neighs/atom = 64.4533
Neighbor list builds = 495
Dangerous builds not checked
Setting up Verlet run ...
  Unit style    : metal
  Current step  : 80495
  Time step     : 0.001
Per MPI rank memory allocation (min/avg/max) = 11.33 | 11.33 | 11.33 Mbytes
Step Temp Press TotEng PotEng Enthalpy 
   80495    2306.0415    251.49978   -75863.652   -81721.207   -75802.464 
  100000    2288.2764   -978.05114   -75868.421   -81680.851   -76107.168 
Loop time of 1805.34 on 2 procs for 19505 steps with 19652 atoms

Performance: 0.933 ns/day, 25.711 hours/ns, 10.804 timesteps/s
99.3% CPU use with 2 MPI tasks x no OpenMP threads

MPI task timing breakdown:
Section |  min time  |  avg time  |  max time  |%varavg| %total
---------------------------------------------------------------
Pair    | 990.97     | 998.07     | 1005.2     |  22.5 | 55.28
Neigh   | 720.04     | 724.28     | 728.53     |  15.8 | 40.12
Comm    | 50.012     | 61.472     | 72.932     | 146.2 |  3.40
Output  | 0.038007   | 0.038066   | 0.038125   |   0.0 |  0.00
Modify  | 16.615     | 16.72      | 16.824     |   2.5 |  0.93
Other   |            | 4.757      |            |       |  0.26

Nlocal:    9826 ave 9838 max 9814 min
Histogram: 1 0 0 0 0 0 0 0 0 1
Nghost:    12053 ave 12055 max 12051 min
Histogram: 1 0 0 0 0 0 0 0 0 1
Neighs:    630902 ave 637930 max 623874 min
Histogram: 1 0 0 0 0 0 0 0 0 1

Total # of neighbors = 1261804
Ave neighs/atom = 64.2074
Neighbor list builds = 19505
Dangerous builds not checked
Setting up Verlet run ...
  Unit style    : metal
  Current step  : 100000
  Time step     : 0.001
Per MPI rank memory allocation (min/avg/max) = 11.34 | 11.34 | 11.34 Mbytes
Step Temp Press TotEng PotEng Enthalpy 
  100000    2288.2764   -978.05114   -75868.421   -81680.851   -76107.168 
  100495    2230.9537    353.76969   -76108.664   -81775.489   -76022.611 
Loop time of 45.2937 on 2 procs for 495 steps with 19652 atoms

Performance: 0.944 ns/day, 25.417 hours/ns, 10.929 timesteps/s
98.3% CPU use with 2 MPI tasks x no OpenMP threads

MPI task timing breakdown:
Section |  min time  |  avg time  |  max time  |%varavg| %total
---------------------------------------------------------------
Pair    | 24.553     | 24.805     | 25.058     |   5.1 | 54.77
Neigh   | 17.879     | 17.929     | 17.979     |   1.2 | 39.58
Comm    | 1.6836     | 1.9885     | 2.2934     |  21.6 |  4.39
Output  | 0.00010705 | 0.00019598 | 0.00028491 |   0.0 |  0.00
Modify  | 0.43943    | 0.44204    | 0.44465    |   0.4 |  0.98
Other   |            | 0.1281     |            |       |  0.28

Nlocal:    9826 ave 9870 max 9782 min
Histogram: 1 0 0 0 0 0 0 0 0 1
Nghost:    12031 ave 12054 max 12008 min
Histogram: 1 0 0 0 0 0 0 0 0 1
Neighs:    633423 ave 644548 max 622298 min
Histogram: 1 0 0 0 0 0 0 0 0 1

Total # of neighbors = 1266846
Ave neighs/atom = 64.464
Neighbor list builds = 495
Dangerous builds not checked
Setting up Verlet run ...
  Unit style    : metal
  Current step  : 100495
  Time step     : 0.001
Per MPI rank memory allocation (min/avg/max) = 11.34 | 11.34 | 11.34 Mbytes
Step Temp Press TotEng PotEng Enthalpy 
  100495    2230.9537    353.76969   -76108.664   -81775.489   -76022.611 
  120000    2265.1591   -310.14893   -76066.626   -81820.336   -76141.898 
Loop time of 1803.64 on 2 procs for 19505 steps with 19652 atoms

Performance: 0.934 ns/day, 25.686 hours/ns, 10.814 timesteps/s
99.4% CPU use with 2 MPI tasks x no OpenMP threads

MPI task timing breakdown:
Section |  min time  |  avg time  |  max time  |%varavg| %total
---------------------------------------------------------------
Pair    | 994.12     | 1001       | 1007.9     |  21.8 | 55.50
Neigh   | 707.28     | 711.25     | 715.22     |  14.9 | 39.43
Comm    | 59.364     | 70.298     | 81.233     | 130.4 |  3.90
Output  | 0.036672   | 0.0367     | 0.036728   |   0.0 |  0.00
Modify  | 16.276     | 16.355     | 16.433     |   1.9 |  0.91
Other   |            | 4.69       |            |       |  0.26

Nlocal:    9826 ave 9828 max 9824 min
Histogram: 1 0 0 0 0 0 0 0 0 1
Nghost:    12091.5 ave 12117 max 12066 min
Histogram: 1 0 0 0 0 0 0 0 0 1
Neighs:    634956 ave 641916 max 627996 min
Histogram: 1 0 0 0 0 0 0 0 0 1

Total # of neighbors = 1269912
Ave neighs/atom = 64.62
Neighbor list builds = 19505
Dangerous builds not checked
Setting up Verlet run ...
  Unit style    : metal
  Current step  : 120000
  Time step     : 0.001
Per MPI rank memory allocation (min/avg/max) = 11.34 | 11.34 | 11.34 Mbytes
Step Temp Press TotEng PotEng Enthalpy 
  120000    2265.1591   -310.14893   -76066.626   -81820.336   -76141.898 
  120495    2208.2736   -502.34593   -76300.871   -81910.088   -76422.976 
Loop time of 42.6816 on 2 procs for 495 steps with 19652 atoms

Performance: 1.002 ns/day, 23.951 hours/ns, 11.598 timesteps/s
99.5% CPU use with 2 MPI tasks x no OpenMP threads

MPI task timing breakdown:
Section |  min time  |  avg time  |  max time  |%varavg| %total
---------------------------------------------------------------
Pair    | 23.564     | 23.661     | 23.758     |   2.0 | 55.44
Neigh   | 16.228     | 16.863     | 17.499     |  15.5 | 39.51
Comm    | 0.88704    | 1.6355     | 2.384      |  58.5 |  3.83
Output  | 0.00010395 | 0.0001775  | 0.00025105 |   0.0 |  0.00
Modify  | 0.39443    | 0.40679    | 0.41914    |   1.9 |  0.95
Other   |            | 0.1149     |            |       |  0.27

Nlocal:    9826 ave 9857 max 9795 min
Histogram: 1 0 0 0 0 0 0 0 0 1
Nghost:    12048.5 ave 12058 max 12039 min
Histogram: 1 0 0 0 0 0 0 0 0 1
Neighs:    633932 ave 635904 max 631960 min
Histogram: 1 0 0 0 0 0 0 0 0 1

Total # of neighbors = 1267864
Ave neighs/atom = 64.5158
Neighbor list builds = 495
Dangerous builds not checked
Setting up Verlet run ...
  Unit style    : metal
  Current step  : 120495
  Time step     : 0.001
Per MPI rank memory allocation (min/avg/max) = 11.34 | 11.34 | 11.34 Mbytes
Step Temp Press TotEng PotEng Enthalpy 
  120495    2208.2736   -502.34593   -76300.871   -81910.088   -76422.976 
  140000    2191.3545    897.53747   -76321.753   -81887.993   -76104.391 
Loop time of 1755.52 on 2 procs for 19505 steps with 19652 atoms

Performance: 0.960 ns/day, 25.001 hours/ns, 11.111 timesteps/s
99.8% CPU use with 2 MPI tasks x no OpenMP threads

MPI task timing breakdown:
Section |  min time  |  avg time  |  max time  |%varavg| %total
---------------------------------------------------------------
Pair    | 963.48     | 971.89     | 980.3      |  27.0 | 55.36
Neigh   | 686.99     | 693.05     | 699.1      |  23.0 | 39.48
Comm    | 55.465     | 70.078     | 84.691     | 174.6 |  3.99
Output  | 0.03572    | 0.035818   | 0.035915   |   0.1 |  0.00
Modify  | 15.819     | 15.952     | 16.085     |   3.3 |  0.91
Other   |            | 4.514      |            |       |  0.26

Nlocal:    9826 ave 9859 max 9793 min
Histogram: 1 0 0 0 0 0 0 0 0 1
Nghost:    12086 ave 12092 max 12080 min
Histogram: 1 0 0 0 0 0 0 0 0 1
Neighs:    636327 ave 638022 max 634632 min
Histogram: 1 0 0 0 0 0 0 0 0 1

Total # of neighbors = 1272654
Ave neighs/atom = 64.7595
Neighbor list builds = 19505
Dangerous builds not checked
Setting up Verlet run ...
  Unit style    : metal
  Current step  : 140000
  Time step     : 0.001
Per MPI rank memory allocation (min/avg/max) = 11.34 | 11.34 | 11.34 Mbytes
Step Temp Press TotEng PotEng Enthalpy 
  140000    2191.3545    897.53747   -76321.753   -81887.993   -76104.391 
  140495    2148.0148    45.784291   -76547.633   -82003.786   -76536.557 
Loop time of 43.3335 on 2 procs for 495 steps with 19652 atoms

Performance: 0.987 ns/day, 24.317 hours/ns, 11.423 timesteps/s
98.8% CPU use with 2 MPI tasks x no OpenMP threads

MPI task timing breakdown:
Section |  min time  |  avg time  |  max time  |%varavg| %total
---------------------------------------------------------------
Pair    | 23.891     | 24.033     | 24.176     |   2.9 | 55.46
Neigh   | 16.965     | 17.28      | 17.594     |   7.6 | 39.88
Comm    | 1.3089     | 1.4869     | 1.665      |  14.6 |  3.43
Output  | 0.00011277 | 0.00016034 | 0.0002079  |   0.0 |  0.00
Modify  | 0.41231    | 0.41598    | 0.41966    |   0.6 |  0.96
Other   |            | 0.1175     |            |       |  0.27

Nlocal:    9826 ave 9846 max 9806 min
Histogram: 1 0 0 0 0 0 0 0 0 1
Nghost:    12048 ave 12072 max 12024 min
Histogram: 1 0 0 0 0 0 0 0 0 1
Neighs:    637124 ave 643842 max 630405 min
Histogram: 1 0 0 0 0 0 0 0 0 1

Total # of neighbors = 1274247
Ave neighs/atom = 64.8406
Neighbor list builds = 495
Dangerous builds not checked
Setting up Verlet run ...
  Unit style    : metal
  Current step  : 140495
  Time step     : 0.001
Per MPI rank memory allocation (min/avg/max) = 11.34 | 11.34 | 11.34 Mbytes
Step Temp Press TotEng PotEng Enthalpy 
  140495    2148.0148    45.784291   -76547.633   -82003.786   -76536.557 
  160000    2161.5113   -444.93097    -76520.81   -82011.245   -76628.771 
Loop time of 1737.74 on 2 procs for 19505 steps with 19652 atoms

Performance: 0.970 ns/day, 24.748 hours/ns, 11.224 timesteps/s
99.8% CPU use with 2 MPI tasks x no OpenMP threads

MPI task timing breakdown:
Section |  min time  |  avg time  |  max time  |%varavg| %total
---------------------------------------------------------------
Pair    | 953.86     | 961.29     | 968.72     |  24.0 | 55.32
Neigh   | 682.75     | 686.27     | 689.78     |  13.4 | 39.49
Comm    | 58.81      | 69.828     | 80.846     | 131.9 |  4.02
Output  | 0.036713   | 0.036733   | 0.036753   |   0.0 |  0.00
Modify  | 15.747     | 15.828     | 15.91      |   2.0 |  0.91
Other   |            | 4.489      |            |       |  0.26

Nlocal:    9826 ave 9839 max 9813 min
Histogram: 1 0 0 0 0 0 0 0 0 1
Nghost:    12075 ave 12096 max 12054 min
Histogram: 1 0 0 0 0 0 0 0 0 1
Neighs:    635184 ave 639759 max 630608 min
Histogram: 1 0 0 0 0 0 0 0 0 1

Total # of neighbors = 1270367
Ave neighs/atom = 64.6431
Neighbor list builds = 19505
Dangerous builds not checked
Setting up Verlet run ...
  Unit style    : metal
  Current step  : 160000
  Time step     : 0.001
Per MPI rank memory allocation (min/avg/max) = 11.34 | 11.34 | 11.35 Mbytes
Step Temp Press TotEng PotEng Enthalpy 
  160000    2161.5113   -444.93097    -76520.81   -82011.245   -76628.771 
  160495    2094.3258   -268.78684   -76782.004   -82101.782   -76846.979 
Loop time of 42.3569 on 2 procs for 495 steps with 19652 atoms

Performance: 1.010 ns/day, 23.769 hours/ns, 11.686 timesteps/s
99.9% CPU use with 2 MPI tasks x no OpenMP threads

MPI task timing breakdown:
Section |  min time  |  avg time  |  max time  |%varavg| %total
---------------------------------------------------------------
Pair    | 23.237     | 23.301     | 23.365     |   1.3 | 55.01
Neigh   | 16.699     | 17.117     | 17.535     |  10.1 | 40.41
Comm    | 0.91932    | 1.4085     | 1.8976     |  41.2 |  3.33
Output  | 9.0122e-05 | 0.00013804 | 0.00018597 |   0.0 |  0.00
Modify  | 0.40743    | 0.41328    | 0.41912    |   0.9 |  0.98
Other   |            | 0.1174     |            |       |  0.28

Nlocal:    9826 ave 9837 max 9815 min
Histogram: 1 0 0 0 0 0 0 0 0 1
Nghost:    12070.5 ave 12113 max 12028 min
Histogram: 1 0 0 0 0 0 0 0 0 1
Neighs:    637430 ave 642964 max 631896 min
Histogram: 1 0 0 0 0 0 0 0 0 1

Total # of neighbors = 1274860
Ave neighs/atom = 64.8718
Neighbor list builds = 495
Dangerous builds not checked
Setting up Verlet run ...
  Unit style    : metal
  Current step  : 160495
  Time step     : 0.001
Per MPI rank memory allocation (min/avg/max) = 11.34 | 11.34 | 11.35 Mbytes
Step Temp Press TotEng PotEng Enthalpy 
  160495    2094.3258   -268.78684   -76782.004   -82101.782   -76846.979 
  180000    2106.4668   -427.11241    -76750.21   -82100.828   -76853.424 
Loop time of 1600.76 on 2 procs for 19505 steps with 19652 atoms

Performance: 1.053 ns/day, 22.797 hours/ns, 12.185 timesteps/s
99.5% CPU use with 2 MPI tasks x no OpenMP threads

MPI task timing breakdown:
Section |  min time  |  avg time  |  max time  |%varavg| %total
---------------------------------------------------------------
Pair    | 869.32     | 875.18     | 881.05     |  19.8 | 54.67
Neigh   | 635.63     | 637.94     | 640.25     |   9.1 | 39.85
Comm    | 65.312     | 68.824     | 72.335     |  42.3 |  4.30
Output  | 0.036874   | 0.036892   | 0.03691    |   0.0 |  0.00
Modify  | 14.677     | 14.69      | 14.704     |   0.3 |  0.92
Other   |            | 4.082      |            |       |  0.26

Nlocal:    9826 ave 9844 max 9808 min
Histogram: 1 0 0 0 0 0 0 0 0 1
Nghost:    12112 ave 12127 max 12097 min
Histogram: 1 0 0 0 0 0 0 0 0 1
Neighs:    637652 ave 642649 max 632655 min
Histogram: 1 0 0 0 0 0 0 0 0 1

Total # of neighbors = 1275304
Ave neighs/atom = 64.8944
Neighbor list builds = 19505
Dangerous builds not checked
Setting up Verlet run ...
  Unit style    : metal
  Current step  : 180000
  Time step     : 0.001
Per MPI rank memory allocation (min/avg/max) = 11.35 | 11.35 | 11.35 Mbytes
Step Temp Press TotEng PotEng Enthalpy 
  180000    2106.4668   -427.11241    -76750.21   -82100.828   -76853.424 
  180495    2073.0961    446.21398   -77001.138   -82266.991   -76893.684 
Loop time of 38.7632 on 2 procs for 495 steps with 19652 atoms

Performance: 1.103 ns/day, 21.753 hours/ns, 12.770 timesteps/s
99.9% CPU use with 2 MPI tasks x no OpenMP threads

MPI task timing breakdown:
Section |  min time  |  avg time  |  max time  |%varavg| %total
---------------------------------------------------------------
Pair    | 20.939     | 21.212     | 21.484     |   5.9 | 54.72
Neigh   | 14.599     | 15.052     | 15.504     |  11.7 | 38.83
Comm    | 1.2928     | 2.0358     | 2.7788     |  52.1 |  5.25
Output  | 8.297e-05  | 0.00012493 | 0.00016689 |   0.0 |  0.00
Modify  | 0.35012    | 0.36275    | 0.37538    |   2.1 |  0.94
Other   |            | 0.1013     |            |       |  0.26

Nlocal:    9826 ave 9828 max 9824 min
Histogram: 1 0 0 0 0 0 0 0 0 1
Nghost:    12108 ave 12117 max 12099 min
Histogram: 1 0 0 0 0 0 0 0 0 1
Neighs:    639987 ave 645545 max 634429 min
Histogram: 1 0 0 0 0 0 0 0 0 1

Total # of neighbors = 1279974
Ave neighs/atom = 65.132
Neighbor list builds = 495
Dangerous builds not checked
Setting up Verlet run ...
  Unit style    : metal
  Current step  : 180495
  Time step     : 0.001
Per MPI rank memory allocation (min/avg/max) = 11.35 | 11.35 | 11.35 Mbytes
Step Temp Press TotEng PotEng Enthalpy 
  180495    2073.0961    446.21398   -77001.138   -82266.991   -76893.684 
  200000    2061.2779    1268.6092    -76995.31   -82231.144   -76690.027 
Loop time of 1518.43 on 2 procs for 19505 steps with 19652 atoms

Performance: 1.110 ns/day, 21.625 hours/ns, 12.846 timesteps/s
99.8% CPU use with 2 MPI tasks x no OpenMP threads

MPI task timing breakdown:
Section |  min time  |  avg time  |  max time  |%varavg| %total
---------------------------------------------------------------
Pair    | 823.4      | 827.57     | 831.74     |  14.5 | 54.50
Neigh   | 594.15     | 602.84     | 611.54     |  35.4 | 39.70
Comm    | 57.375     | 70.419     | 83.463     | 155.4 |  4.64
Output  | 0.030993   | 0.031017   | 0.031041   |   0.0 |  0.00
Modify  | 13.624     | 13.756     | 13.888     |   3.5 |  0.91
Other   |            | 3.811      |            |       |  0.25

Nlocal:    9826 ave 9839 max 9813 min
Histogram: 1 0 0 0 0 0 0 0 0 1
Nghost:    12099 ave 12130 max 12068 min
Histogram: 1 0 0 0 0 0 0 0 0 1
Neighs:    639963 ave 646572 max 633354 min
Histogram: 1 0 0 0 0 0 0 0 0 1

Total # of neighbors = 1279926
Ave neighs/atom = 65.1296
Neighbor list builds = 19505
Dangerous builds not checked
Setting up Verlet run ...
  Unit style    : metal
  Current step  : 200000
  Time step     : 0.001
Per MPI rank memory allocation (min/avg/max) = 11.35 | 11.35 | 11.35 Mbytes
Step Temp Press TotEng PotEng Enthalpy 
  200000    2061.2779    1268.6092    -76995.31   -82231.144   -76690.027 
  200495    2006.1507    836.35828   -77202.368   -82298.174   -77001.125 
Loop time of 36.6752 on 2 procs for 495 steps with 19652 atoms

Performance: 1.166 ns/day, 20.581 hours/ns, 13.497 timesteps/s
99.3% CPU use with 2 MPI tasks x no OpenMP threads

MPI task timing breakdown:
Section |  min time  |  avg time  |  max time  |%varavg| %total
---------------------------------------------------------------
Pair    | 19.888     | 19.934     | 19.98      |   1.0 | 54.35
Neigh   | 13.66      | 14.557     | 15.453     |  23.5 | 39.69
Comm    | 0.87267    | 1.7397     | 2.6068     |  65.7 |  4.74
Output  | 6.8903e-05 | 9.8944e-05 | 0.00012898 |   0.0 |  0.00
Modify  | 0.33787    | 0.34962    | 0.36137    |   2.0 |  0.95
Other   |            | 0.09519    |            |       |  0.26

Nlocal:    9826 ave 9875 max 9777 min
Histogram: 1 0 0 0 0 0 0 0 0 1
Nghost:    12082 ave 12096 max 12068 min
Histogram: 1 0 0 0 0 0 0 0 0 1
Neighs:    640275 ave 651192 max 629358 min
Histogram: 1 0 0 0 0 0 0 0 0 1

Total # of neighbors = 1280550
Ave neighs/atom = 65.1613
Neighbor list builds = 495
Dangerous builds not checked
Setting up Verlet run ...
  Unit style    : metal
  Current step  : 200495
  Time step     : 0.001
Per MPI rank memory allocation (min/avg/max) = 11.35 | 11.35 | 11.35 Mbytes
Step Temp Press TotEng PotEng Enthalpy 
  200495    2006.1507    836.35828   -77202.368   -82298.174   -77001.125 
  220000    2010.5883    -2061.824   -77180.596   -82287.673   -77678.816 
Loop time of 1492.38 on 2 procs for 19505 steps with 19652 atoms

Performance: 1.129 ns/day, 21.254 hours/ns, 13.070 timesteps/s
99.8% CPU use with 2 MPI tasks x no OpenMP threads

MPI task timing breakdown:
Section |  min time  |  avg time  |  max time  |%varavg| %total
---------------------------------------------------------------
Pair    | 806.32     | 811.63     | 816.95     |  18.6 | 54.39
Neigh   | 589.24     | 594.06     | 598.88     |  19.8 | 39.81
Comm    | 59.127     | 69.319     | 79.511     | 122.4 |  4.64
Output  | 0.035643   | 0.03566    | 0.035677   |   0.0 |  0.00
Modify  | 13.503     | 13.559     | 13.614     |   1.5 |  0.91
Other   |            | 3.78       |            |       |  0.25

Nlocal:    9826 ave 9844 max 9808 min
Histogram: 1 0 0 0 0 0 0 0 0 1
Nghost:    12098.5 ave 12120 max 12077 min
Histogram: 1 0 0 0 0 0 0 0 0 1
Neighs:    637562 ave 645491 max 629632 min
Histogram: 1 0 0 0 0 0 0 0 0 1

Total # of neighbors = 1275123
Ave neighs/atom = 64.8852
Neighbor list builds = 19505
Dangerous builds not checked
Setting up Verlet run ...
  Unit style    : metal
  Current step  : 220000
  Time step     : 0.001
Per MPI rank memory allocation (min/avg/max) = 11.35 | 11.35 | 11.35 Mbytes
Step Temp Press TotEng PotEng Enthalpy 
  220000    2010.5883    -2061.824   -77180.596   -82287.673   -77678.816 
  220495    1952.6517    556.62697   -77418.389   -82378.302   -77284.823 
Loop time of 36.7535 on 2 procs for 495 steps with 19652 atoms

Performance: 1.164 ns/day, 20.625 hours/ns, 13.468 timesteps/s
99.9% CPU use with 2 MPI tasks x no OpenMP threads

MPI task timing breakdown:
Section |  min time  |  avg time  |  max time  |%varavg| %total
---------------------------------------------------------------
Pair    | 19.938     | 19.973     | 20.009     |   0.8 | 54.34
Neigh   | 13.336     | 14.457     | 15.578     |  29.5 | 39.34
Comm    | 0.77726    | 1.8834     | 2.9895     |  80.6 |  5.12
Output  | 0.00017595 | 0.00021458 | 0.0002532  |   0.0 |  0.00
Modify  | 0.3284     | 0.34349    | 0.35857    |   2.6 |  0.93
Other   |            | 0.09579    |            |       |  0.26

Nlocal:    9826 ave 9848 max 9804 min
Histogram: 1 0 0 0 0 0 0 0 0 1
Nghost:    12161 ave 12181 max 12141 min
Histogram: 1 0 0 0 0 0 0 0 0 1
Neighs:    642168 ave 645909 max 638428 min
Histogram: 1 0 0 0 0 0 0 0 0 1

Total # of neighbors = 1284337
Ave neighs/atom = 65.354
Neighbor list builds = 495
Dangerous builds not checked
Setting up Verlet run ...
  Unit style    : metal
  Current step  : 220495
  Time step     : 0.001
Per MPI rank memory allocation (min/avg/max) = 11.35 | 11.35 | 11.35 Mbytes
Step Temp Press TotEng PotEng Enthalpy 
  220495    1952.6517    556.62697   -77418.389   -82378.302   -77284.823 
  240000    1945.2295   -122.96682   -77461.465   -82402.525   -77491.033 
Loop time of 1682.25 on 2 procs for 19505 steps with 19652 atoms

Performance: 1.002 ns/day, 23.957 hours/ns, 11.595 timesteps/s
99.7% CPU use with 2 MPI tasks x no OpenMP threads

MPI task timing breakdown:
Section |  min time  |  avg time  |  max time  |%varavg| %total
---------------------------------------------------------------
Pair    | 918.83     | 927.02     | 935.21     |  26.9 | 55.11
Neigh   | 671.63     | 675.36     | 679.09     |  14.4 | 40.15
Comm    | 48.122     | 60.153     | 72.185     | 155.1 |  3.58
Output  | 0.035943   | 0.035973   | 0.036002   |   0.0 |  0.00
Modify  | 15.224     | 15.326     | 15.428     |   2.6 |  0.91
Other   |            | 4.349      |            |       |  0.26

Nlocal:    9826 ave 9830 max 9822 min
Histogram: 1 0 0 0 0 0 0 0 0 1
Nghost:    12106 ave 12125 max 12087 min
Histogram: 1 0 0 0 0 0 0 0 0 1
Neighs:    640634 ave 646660 max 634608 min
Histogram: 1 0 0 0 0 0 0 0 0 1

Total # of neighbors = 1281268
Ave neighs/atom = 65.1978
Neighbor list builds = 19505
Dangerous builds not checked
Setting up Verlet run ...
  Unit style    : metal
  Current step  : 240000
  Time step     : 0.001
Per MPI rank memory allocation (min/avg/max) = 11.35 | 11.35 | 11.35 Mbytes
Step Temp Press TotEng PotEng Enthalpy 
  240000    1945.2295   -122.96682   -77461.465   -82402.525   -77491.033 
  240495    1899.5688   -743.27358   -77664.178   -82489.256   -77842.436 
Loop time of 42.5439 on 2 procs for 495 steps with 19652 atoms

Performance: 1.005 ns/day, 23.874 hours/ns, 11.635 timesteps/s
99.7% CPU use with 2 MPI tasks x no OpenMP threads

MPI task timing breakdown:
Section |  min time  |  avg time  |  max time  |%varavg| %total
---------------------------------------------------------------
Pair    | 23.27      | 23.378     | 23.487     |   2.2 | 54.95
Neigh   | 17.383     | 17.404     | 17.424     |   0.5 | 40.91
Comm    | 1.0643     | 1.1959     | 1.3276     |  12.0 |  2.81
Output  | 8.7023e-05 | 0.00012851 | 0.00016999 |   0.0 |  0.00
Modify  | 0.43782    | 0.43968    | 0.44154    |   0.3 |  1.03
Other   |            | 0.1262     |            |       |  0.30

Nlocal:    9826 ave 9853 max 9799 min
Histogram: 1 0 0 0 0 0 0 0 0 1
Nghost:    12139.5 ave 12151 max 12128 min
Histogram: 1 0 0 0 0 0 0 0 0 1
Neighs:    642593 ave 645655 max 639531 min
Histogram: 1 0 0 0 0 0 0 0 0 1

Total # of neighbors = 1285186
Ave neighs/atom = 65.3972
Neighbor list builds = 495
Dangerous builds not checked
Setting up Verlet run ...
  Unit style    : metal
  Current step  : 240495
  Time step     : 0.001
Per MPI rank memory allocation (min/avg/max) = 11.35 | 11.35 | 11.35 Mbytes
Step Temp Press TotEng PotEng Enthalpy 
  240495    1899.5688   -743.27358   -77664.178   -82489.256   -77842.436 
  260000    1911.7353    -2000.614   -77678.806   -82534.787   -78160.526 
Loop time of 1833.91 on 2 procs for 19505 steps with 19652 atoms

Performance: 0.919 ns/day, 26.117 hours/ns, 10.636 timesteps/s
97.2% CPU use with 2 MPI tasks x no OpenMP threads

MPI task timing breakdown:
Section |  min time  |  avg time  |  max time  |%varavg| %total
---------------------------------------------------------------
Pair    | 1011.4     | 1017.3     | 1023.3     |  18.8 | 55.47
Neigh   | 717.71     | 718.56     | 719.42     |   3.2 | 39.18
Comm    | 69.479     | 76.4       | 83.32      |  79.2 |  4.17
Output  | 0.037141   | 0.037225   | 0.037308   |   0.0 |  0.00
Modify  | 16.673     | 16.773     | 16.872     |   2.4 |  0.91
Other   |            | 4.796      |            |       |  0.26

Nlocal:    9826 ave 9833 max 9819 min
Histogram: 1 0 0 0 0 0 0 0 0 1
Nghost:    12121 ave 12129 max 12113 min
Histogram: 1 0 0 0 0 0 0 0 0 1
Neighs:    640162 ave 645621 max 634704 min
Histogram: 1 0 0 0 0 0 0 0 0 1

Total # of neighbors = 1280325
Ave neighs/atom = 65.1499
Neighbor list builds = 19505
Dangerous builds not checked
Setting up Verlet run ...
  Unit style    : metal
  Current step  : 260000
  Time step     : 0.001
Per MPI rank memory allocation (min/avg/max) = 11.35 | 11.35 | 11.35 Mbytes
Step Temp Press TotEng PotEng Enthalpy 
  260000    1911.7353    -2000.614   -77678.806   -82534.787   -78160.526 
  260495    1848.5167   -136.65177   -77893.413   -82588.813   -77926.149 
Loop time of 44.1734 on 2 procs for 495 steps with 19652 atoms

Performance: 0.968 ns/day, 24.789 hours/ns, 11.206 timesteps/s
97.4% CPU use with 2 MPI tasks x no OpenMP threads

MPI task timing breakdown:
Section |  min time  |  avg time  |  max time  |%varavg| %total
---------------------------------------------------------------
Pair    | 24.32      | 24.469     | 24.618     |   3.0 | 55.39
Neigh   | 17.578     | 17.78      | 17.983     |   4.8 | 40.25
Comm    | 1.0442     | 1.3962     | 1.7481     |  29.8 |  3.16
Output  | 9.8228e-05 | 0.0001421  | 0.00018597 |   0.0 |  0.00
Modify  | 0.40327    | 0.40331    | 0.40334    |   0.0 |  0.91
Other   |            | 0.1243     |            |       |  0.28

Nlocal:    9826 ave 9833 max 9819 min
Histogram: 1 0 0 0 0 0 0 0 0 1
Nghost:    12097 ave 12108 max 12086 min
Histogram: 1 0 0 0 0 0 0 0 0 1
Neighs:    643092 ave 650216 max 635969 min
Histogram: 1 0 0 0 0 0 0 0 0 1

Total # of neighbors = 1286185
Ave neighs/atom = 65.448
Neighbor list builds = 495
Dangerous builds not checked
Setting up Verlet run ...
  Unit style    : metal
  Current step  : 260495
  Time step     : 0.001
Per MPI rank memory allocation (min/avg/max) = 11.35 | 11.35 | 11.35 Mbytes
Step Temp Press TotEng PotEng Enthalpy 
  260495    1848.5167   -136.65177   -77893.413   -82588.813   -77926.149 
  280000     1847.987    103.51926   -77893.417   -82587.473   -77868.596 
Loop time of 1949.56 on 2 procs for 19505 steps with 19652 atoms

Performance: 0.864 ns/day, 27.764 hours/ns, 10.005 timesteps/s
91.7% CPU use with 2 MPI tasks x no OpenMP threads

MPI task timing breakdown:
Section |  min time  |  avg time  |  max time  |%varavg| %total
---------------------------------------------------------------
Pair    | 1063.8     | 1073.5     | 1083.2     |  29.7 | 55.07
Neigh   | 748.32     | 751.04     | 753.77     |   9.9 | 38.52
Comm    | 92.076     | 98.886     | 105.7      |  68.5 |  5.07
Output  | 0.1531     | 0.15318    | 0.15326    |   0.0 |  0.01
Modify  | 20.896     | 21.081     | 21.265     |   4.0 |  1.08
Other   |            | 4.872      |            |       |  0.25

Nlocal:    9826 ave 9836 max 9816 min
Histogram: 1 0 0 0 0 0 0 0 0 1
Nghost:    12110.5 ave 12132 max 12089 min
Histogram: 1 0 0 0 0 0 0 0 0 1
Neighs:    642852 ave 647738 max 637966 min
Histogram: 1 0 0 0 0 0 0 0 0 1

Total # of neighbors = 1285704
Ave neighs/atom = 65.4236
Neighbor list builds = 19505
Dangerous builds not checked
Setting up Verlet run ...
  Unit style    : metal
  Current step  : 280000
  Time step     : 0.001
Per MPI rank memory allocation (min/avg/max) = 11.35 | 11.35 | 11.35 Mbytes
Step Temp Press TotEng PotEng Enthalpy 
  280000     1847.987    103.51926   -77893.417   -82587.473   -77868.596 
  280495    1792.4275   -622.55147   -78113.478   -82666.407   -78262.298 
Loop time of 46.9891 on 2 procs for 495 steps with 19652 atoms

Performance: 0.910 ns/day, 26.369 hours/ns, 10.534 timesteps/s
92.1% CPU use with 2 MPI tasks x no OpenMP threads

MPI task timing breakdown:
Section |  min time  |  avg time  |  max time  |%varavg| %total
---------------------------------------------------------------
Pair    | 25.876     | 25.958     | 26.039     |   1.6 | 55.24
Neigh   | 18.007     | 18.299     | 18.592     |   6.8 | 38.94
Comm    | 1.7332     | 2.1118     | 2.4903     |  26.0 |  4.49
Output  | 9.799e-05  | 0.00020242 | 0.00030684 |   0.0 |  0.00
Modify  | 0.48487    | 0.49402    | 0.50316    |   1.3 |  1.05
Other   |            | 0.1262     |            |       |  0.27

Nlocal:    9826 ave 9828 max 9824 min
Histogram: 1 0 0 0 0 0 0 0 0 1
Nghost:    12183.5 ave 12222 max 12145 min
Histogram: 1 0 0 0 0 0 0 0 0 1
Neighs:    644934 ave 650958 max 638909 min
Histogram: 1 0 0 0 0 0 0 0 0 1

Total # of neighbors = 1289867
Ave neighs/atom = 65.6354
Neighbor list builds = 495
Dangerous builds not checked
Setting up Verlet run ...
  Unit style    : metal
  Current step  : 280495
  Time step     : 0.001
Per MPI rank memory allocation (min/avg/max) = 11.35 | 11.35 | 11.35 Mbytes
Step Temp Press TotEng PotEng Enthalpy 
  280495    1792.4275   -622.55147   -78113.478   -82666.407   -78262.298 
  300000    1787.3912    112.91819   -78166.843    -82706.98   -78139.872 
Loop time of 1920.32 on 2 procs for 19505 steps with 19652 atoms

Performance: 0.878 ns/day, 27.348 hours/ns, 10.157 timesteps/s
91.3% CPU use with 2 MPI tasks x no OpenMP threads

MPI task timing breakdown:
Section |  min time  |  avg time  |  max time  |%varavg| %total
---------------------------------------------------------------
Pair    | 1045.4     | 1053.2     | 1061       |  24.1 | 54.84
Neigh   | 743.7      | 747.53     | 751.35     |  14.0 | 38.93
Comm    | 83.025     | 95.126     | 107.23     | 124.1 |  4.95
Output  | 0.051513   | 0.05163    | 0.051747   |   0.1 |  0.00
Modify  | 19.2       | 19.659     | 20.117     |  10.3 |  1.02
Other   |            | 4.778      |            |       |  0.25

Nlocal:    9826 ave 9827 max 9825 min
Histogram: 1 0 0 0 0 0 0 0 0 1
Nghost:    12145.5 ave 12161 max 12130 min
Histogram: 1 0 0 0 0 0 0 0 0 1
Neighs:    645438 ave 652170 max 638706 min
Histogram: 1 0 0 0 0 0 0 0 0 1

Total # of neighbors = 1290876
Ave neighs/atom = 65.6867
Neighbor list builds = 19505
Dangerous builds not checked
Setting up Verlet run ...
  Unit style    : metal
  Current step  : 300000
  Time step     : 0.001
Per MPI rank memory allocation (min/avg/max) = 11.35 | 11.35 | 11.35 Mbytes
Step Temp Press TotEng PotEng Enthalpy 
  300000    1787.3912    112.91819   -78166.843    -82706.98   -78139.872 
  300495    1768.5555    734.47944   -78324.251   -82816.543    -78149.36 
Loop time of 43.9887 on 2 procs for 495 steps with 19652 atoms

Performance: 0.972 ns/day, 24.685 hours/ns, 11.253 timesteps/s
93.0% CPU use with 2 MPI tasks x no OpenMP threads

MPI task timing breakdown:
Section |  min time  |  avg time  |  max time  |%varavg| %total
---------------------------------------------------------------
Pair    | 23.914     | 24.009     | 24.103     |   1.9 | 54.58
Neigh   | 17.199     | 17.592     | 17.986     |   9.4 | 39.99
Comm    | 1.3266     | 1.8173     | 2.3081     |  36.4 |  4.13
Output  | 9.799e-05  | 0.00012648 | 0.00015497 |   0.0 |  0.00
Modify  | 0.45947    | 0.46149    | 0.46351    |   0.3 |  1.05
Other   |            | 0.1088     |            |       |  0.25

Nlocal:    9826 ave 9837 max 9815 min
Histogram: 1 0 0 0 0 0 0 0 0 1
Nghost:    12149 ave 12167 max 12131 min
Histogram: 1 0 0 0 0 0 0 0 0 1
Neighs:    647109 ave 654317 max 639901 min
Histogram: 1 0 0 0 0 0 0 0 0 1

Total # of neighbors = 1294218
Ave neighs/atom = 65.8568
Neighbor list builds = 495
Dangerous builds not checked
Setting up Verlet run ...
  Unit style    : metal
  Current step  : 300495
  Time step     : 0.001
Per MPI rank memory allocation (min/avg/max) = 11.35 | 11.35 | 11.35 Mbytes
Step Temp Press TotEng PotEng Enthalpy 
  300495    1768.5555    734.47944   -78324.251   -82816.543    -78149.36 
  320000    1754.3463   -478.97933    -78418.93    -82875.13   -78533.134 
Loop time of 1682.21 on 2 procs for 19505 steps with 19652 atoms

Performance: 1.002 ns/day, 23.957 hours/ns, 11.595 timesteps/s
96.5% CPU use with 2 MPI tasks x no OpenMP threads

MPI task timing breakdown:
Section |  min time  |  avg time  |  max time  |%varavg| %total
---------------------------------------------------------------
Pair    | 912.16     | 917.37     | 922.57     |  17.2 | 54.53
Neigh   | 672.56     | 673.69     | 674.83     |   4.4 | 40.05
Comm    | 65.939     | 69.964     | 73.988     |  48.1 |  4.16
Output  | 0.036827   | 0.036844   | 0.036861   |   0.0 |  0.00
Modify  | 16.928     | 16.937     | 16.946     |   0.2 |  1.01
Other   |            | 4.208      |            |       |  0.25

Nlocal:    9826 ave 9830 max 9822 min
Histogram: 1 0 0 0 0 0 0 0 0 1
Nghost:    12174.5 ave 12184 max 12165 min
Histogram: 1 0 0 0 0 0 0 0 0 1
Neighs:    646519 ave 652679 max 640359 min
Histogram: 1 0 0 0 0 0 0 0 0 1

Total # of neighbors = 1293038
Ave neighs/atom = 65.7968
Neighbor list builds = 19505
Dangerous builds not checked
Setting up Verlet run ...
  Unit style    : metal
  Current step  : 320000
  Time step     : 0.001
Per MPI rank memory allocation (min/avg/max) = 11.35 | 11.35 | 11.35 Mbytes
Step Temp Press TotEng PotEng Enthalpy 
  320000    1754.3463   -478.97933    -78418.93    -82875.13   -78533.134 
  320495    1718.1908   -1068.3417   -78579.102   -82943.463   -78833.344 
Loop time of 39.2053 on 2 procs for 495 steps with 19652 atoms

Performance: 1.091 ns/day, 22.001 hours/ns, 12.626 timesteps/s
98.0% CPU use with 2 MPI tasks x no OpenMP threads

MPI task timing breakdown:
Section |  min time  |  avg time  |  max time  |%varavg| %total
---------------------------------------------------------------
Pair    | 21.122     | 21.302     | 21.482     |   3.9 | 54.33
Neigh   | 15.959     | 16.119     | 16.278     |   4.0 | 41.11
Comm    | 0.95764    | 1.3017     | 1.6457     |  30.2 |  3.32
Output  | 8.4877e-05 | 0.00010347 | 0.00012207 |   0.0 |  0.00
Modify  | 0.37724    | 0.38107    | 0.3849     |   0.6 |  0.97
Other   |            | 0.1015     |            |       |  0.26

Nlocal:    9826 ave 9845 max 9807 min
Histogram: 1 0 0 0 0 0 0 0 0 1
Nghost:    12134 ave 12146 max 12122 min
Histogram: 1 0 0 0 0 0 0 0 0 1
Neighs:    647422 ave 654641 max 640202 min
Histogram: 1 0 0 0 0 0 0 0 0 1

Total # of neighbors = 1294843
Ave neighs/atom = 65.8886
Neighbor list builds = 495
Dangerous builds not checked
Setting up Verlet run ...
  Unit style    : metal
  Current step  : 320495
  Time step     : 0.001
Per MPI rank memory allocation (min/avg/max) = 11.35 | 11.35 | 11.35 Mbytes
Step Temp Press TotEng PotEng Enthalpy 
  320495    1718.1908   -1068.3417   -78579.102   -82943.463   -78833.344 
  340000    1701.7928    1302.8644   -78609.243   -82931.952   -78300.145 
Loop time of 1664.13 on 2 procs for 19505 steps with 19652 atoms

Performance: 1.013 ns/day, 23.700 hours/ns, 11.721 timesteps/s
97.1% CPU use with 2 MPI tasks x no OpenMP threads

MPI task timing breakdown:
Section |  min time  |  avg time  |  max time  |%varavg| %total
---------------------------------------------------------------
Pair    | 902.21     | 905.75     | 909.29     |  11.8 | 54.43
Neigh   | 679.38     | 679.64     | 679.9      |   1.0 | 40.84
Comm    | 54.483     | 58.241     | 62         |  49.3 |  3.50
Output  | 0.20245    | 0.20247    | 0.2025     |   0.0 |  0.01
Modify  | 16.099     | 16.106     | 16.113     |   0.2 |  0.97
Other   |            | 4.191      |            |       |  0.25

Nlocal:    9826 ave 9827 max 9825 min
Histogram: 1 0 0 0 0 0 0 0 0 1
Nghost:    12243.5 ave 12279 max 12208 min
Histogram: 1 0 0 0 0 0 0 0 0 1
Neighs:    649632 ave 655810 max 643453 min
Histogram: 1 0 0 0 0 0 0 0 0 1

Total # of neighbors = 1299263
Ave neighs/atom = 66.1135
Neighbor list builds = 19505
Dangerous builds not checked
Setting up Verlet run ...
  Unit style    : metal
  Current step  : 340000
  Time step     : 0.001
Per MPI rank memory allocation (min/avg/max) = 11.35 | 11.35 | 11.35 Mbytes
Step Temp Press TotEng PotEng Enthalpy 
  340000    1701.7928    1302.8644   -78609.243   -82931.952   -78300.145 
  340495    1653.8331    1215.7982   -78816.029   -83016.915    -78527.77 
Loop time of 40.831 on 2 procs for 495 steps with 19652 atoms

Performance: 1.047 ns/day, 22.913 hours/ns, 12.123 timesteps/s
95.8% CPU use with 2 MPI tasks x no OpenMP threads

MPI task timing breakdown:
Section |  min time  |  avg time  |  max time  |%varavg| %total
---------------------------------------------------------------
Pair    | 22.071     | 22.249     | 22.427     |   3.8 | 54.49
Neigh   | 16.12      | 16.58      | 17.041     |  11.3 | 40.61
Comm    | 1.2124     | 1.4965     | 1.7807     |  23.2 |  3.67
Output  | 0.00018716 | 0.00022101 | 0.00025487 |   0.0 |  0.00
Modify  | 0.39358    | 0.39652    | 0.39945    |   0.5 |  0.97
Other   |            | 0.1084     |            |       |  0.27

Nlocal:    9826 ave 9854 max 9798 min
Histogram: 1 0 0 0 0 0 0 0 0 1
Nghost:    12176 ave 12180 max 12172 min
Histogram: 1 0 0 0 0 0 0 0 0 1
Neighs:    650211 ave 653566 max 646856 min
Histogram: 1 0 0 0 0 0 0 0 0 1

Total # of neighbors = 1300422
Ave neighs/atom = 66.1725
Neighbor list builds = 495
Dangerous builds not checked
Setting up Verlet run ...
  Unit style    : metal
  Current step  : 340495
  Time step     : 0.001
Per MPI rank memory allocation (min/avg/max) = 11.35 | 11.35 | 11.35 Mbytes
Step Temp Press TotEng PotEng Enthalpy 
  340495    1653.8331    1215.7982   -78816.029   -83016.915    -78527.77 
  360000    1641.3643   -342.56497    -78838.71   -83007.924   -78920.205 
Loop time of 1660.28 on 2 procs for 19505 steps with 19652 atoms

Performance: 1.015 ns/day, 23.645 hours/ns, 11.748 timesteps/s
96.4% CPU use with 2 MPI tasks x no OpenMP threads

MPI task timing breakdown:
Section |  min time  |  avg time  |  max time  |%varavg| %total
---------------------------------------------------------------
Pair    | 891.9      | 898.98     | 906.05     |  23.6 | 54.15
Neigh   | 678.01     | 679.92     | 681.83     |   7.3 | 40.95
Comm    | 51.695     | 60.709     | 69.723     | 115.7 |  3.66
Output  | 0.037145   | 0.037169   | 0.037193   |   0.0 |  0.00
Modify  | 16.381     | 16.418     | 16.456     |   0.9 |  0.99
Other   |            | 4.225      |            |       |  0.25

Nlocal:    9826 ave 9829 max 9823 min
Histogram: 1 0 0 0 0 0 0 0 0 1
Nghost:    12116.5 ave 12150 max 12083 min
Histogram: 1 0 0 0 0 0 0 0 0 1
Neighs:    647965 ave 654427 max 641503 min
Histogram: 1 0 0 0 0 0 0 0 0 1

Total # of neighbors = 1295930
Ave neighs/atom = 65.9439
Neighbor list builds = 19505
Dangerous builds not checked
Setting up Verlet run ...
  Unit style    : metal
  Current step  : 360000
  Time step     : 0.001
Per MPI rank memory allocation (min/avg/max) = 11.35 | 11.35 | 11.35 Mbytes
Step Temp Press TotEng PotEng Enthalpy 
  360000    1641.3643   -342.56497    -78838.71   -83007.924   -78920.205 
  360495     1609.182    -896.2626    -79066.03   -83153.499   -79278.885 
Loop time of 40.2019 on 2 procs for 495 steps with 19652 atoms

Performance: 1.064 ns/day, 22.560 hours/ns, 12.313 timesteps/s
96.5% CPU use with 2 MPI tasks x no OpenMP threads

MPI task timing breakdown:
Section |  min time  |  avg time  |  max time  |%varavg| %total
---------------------------------------------------------------
Pair    | 21.753     | 21.913     | 22.072     |   3.4 | 54.51
Neigh   | 16.344     | 16.377     | 16.409     |   0.8 | 40.74
Comm    | 1.2305     | 1.4217     | 1.6129     |  16.0 |  3.54
Output  | 0.00011396 | 0.0001415  | 0.00016904 |   0.0 |  0.00
Modify  | 0.38651    | 0.38763    | 0.38876    |   0.2 |  0.96
Other   |            | 0.1031     |            |       |  0.26

Nlocal:    9826 ave 9838 max 9814 min
Histogram: 1 0 0 0 0 0 0 0 0 1
Nghost:    12194.5 ave 12195 max 12194 min
Histogram: 1 0 0 0 0 0 0 0 0 1
Neighs:    648880 ave 654519 max 643241 min
Histogram: 1 0 0 0 0 0 0 0 0 1

Total # of neighbors = 1297760
Ave neighs/atom = 66.037
Neighbor list builds = 495
Dangerous builds not checked
Setting up Verlet run ...
  Unit style    : metal
  Current step  : 360495
  Time step     : 0.001
Per MPI rank memory allocation (min/avg/max) = 11.35 | 11.35 | 11.35 Mbytes
Step Temp Press TotEng PotEng Enthalpy 
  360495     1609.182    -896.2626    -79066.03   -83153.499   -79278.885 
  380000     1595.569    287.37738   -79115.005   -83167.896   -79046.834 
Loop time of 1748.94 on 2 procs for 19505 steps with 19652 atoms

Performance: 0.964 ns/day, 24.907 hours/ns, 11.152 timesteps/s
93.7% CPU use with 2 MPI tasks x no OpenMP threads

MPI task timing breakdown:
Section |  min time  |  avg time  |  max time  |%varavg| %total
---------------------------------------------------------------
Pair    | 942.53     | 948        | 953.47     |  17.8 | 54.20
Neigh   | 699.73     | 703.08     | 706.43     |  12.6 | 40.20
Comm    | 66.77      | 75.655     | 84.541     | 102.2 |  4.33
Output  | 0.036569   | 0.03665    | 0.036731   |   0.0 |  0.00
Modify  | 17.692     | 17.78      | 17.868     |   2.1 |  1.02
Other   |            | 4.388      |            |       |  0.25

Nlocal:    9826 ave 9830 max 9822 min
Histogram: 1 0 0 0 0 0 0 0 0 1
Nghost:    12193.5 ave 12204 max 12183 min
Histogram: 1 0 0 0 0 0 0 0 0 1
Neighs:    649890 ave 656528 max 643252 min
Histogram: 1 0 0 0 0 0 0 0 0 1

Total # of neighbors = 1299780
Ave neighs/atom = 66.1398
Neighbor list builds = 19505
Dangerous builds not checked
Setting up Verlet run ...
  Unit style    : metal
  Current step  : 380000
  Time step     : 0.001
Per MPI rank memory allocation (min/avg/max) = 11.35 | 11.35 | 11.35 Mbytes
Step Temp Press TotEng PotEng Enthalpy 
  380000     1595.569    287.37738   -79115.005   -83167.896   -79046.834 
  380495    1557.7342    863.56776   -79296.938   -83253.725   -79092.667 
Loop time of 43.7884 on 2 procs for 495 steps with 19652 atoms

Performance: 0.977 ns/day, 24.573 hours/ns, 11.304 timesteps/s
91.5% CPU use with 2 MPI tasks x no OpenMP threads

MPI task timing breakdown:
Section |  min time  |  avg time  |  max time  |%varavg| %total
---------------------------------------------------------------
Pair    | 22.973     | 23.243     | 23.514     |   5.6 | 53.08
Neigh   | 16.775     | 17.084     | 17.393     |   7.5 | 39.02
Comm    | 2.89       | 2.9403     | 2.9906     |   2.9 |  6.71
Output  | 0.0003469  | 0.00038648 | 0.00042605 |   0.0 |  0.00
Modify  | 0.39682    | 0.4019     | 0.40699    |   0.8 |  0.92
Other   |            | 0.1182     |            |       |  0.27

Nlocal:    9826 ave 9839 max 9813 min
Histogram: 1 0 0 0 0 0 0 0 0 1
Nghost:    12240 ave 12268 max 12212 min
Histogram: 1 0 0 0 0 0 0 0 0 1
Neighs:    651755 ave 657647 max 645863 min
Histogram: 1 0 0 0 0 0 0 0 0 1

Total # of neighbors = 1303510
Ave neighs/atom = 66.3296
Neighbor list builds = 495
Dangerous builds not checked
Setting up Verlet run ...
  Unit style    : metal
  Current step  : 380495
  Time step     : 0.001
Per MPI rank memory allocation (min/avg/max) = 11.35 | 11.35 | 11.35 Mbytes
Step Temp Press TotEng PotEng Enthalpy 
  380495    1557.7342    863.56776   -79296.938   -83253.725   -79092.667 
  400000    1534.4515   -316.92016   -79367.248   -83264.894   -79442.283 
Loop time of 1667.44 on 2 procs for 19505 steps with 19652 atoms

Performance: 1.011 ns/day, 23.747 hours/ns, 11.698 timesteps/s
96.6% CPU use with 2 MPI tasks x no OpenMP threads

MPI task timing breakdown:
Section |  min time  |  avg time  |  max time  |%varavg| %total
---------------------------------------------------------------
Pair    | 909.35     | 910.2      | 911.04     |   2.8 | 54.59
Neigh   | 677.29     | 679.86     | 682.44     |   9.9 | 40.77
Comm    | 53.177     | 56.632     | 60.088     |  45.9 |  3.40
Output  | 0.036618   | 0.036636   | 0.036653   |   0.0 |  0.00
Modify  | 16.449     | 16.485     | 16.521     |   0.9 |  0.99
Other   |            | 4.225      |            |       |  0.25

Nlocal:    9826 ave 9826 max 9826 min
Histogram: 2 0 0 0 0 0 0 0 0 0
Nghost:    12164.5 ave 12175 max 12154 min
Histogram: 1 0 0 0 0 0 0 0 0 1
Neighs:    650954 ave 656421 max 645488 min
Histogram: 1 0 0 0 0 0 0 0 0 1

Total # of neighbors = 1301909
Ave neighs/atom = 66.2482
Neighbor list builds = 19505
Dangerous builds not checked
Setting up Verlet run ...
  Unit style    : metal
  Current step  : 400000
  Time step     : 0.001
Per MPI rank memory allocation (min/avg/max) = 11.35 | 11.35 | 11.35 Mbytes
Step Temp Press TotEng PotEng Enthalpy 
  400000    1534.4515   -316.92016   -79367.248   -83264.894   -79442.283 
  400495    1509.5145   -187.24369   -79542.796     -83377.1   -79587.062 
Loop time of 37.3358 on 2 procs for 495 steps with 19652 atoms

Performance: 1.145 ns/day, 20.952 hours/ns, 13.258 timesteps/s
99.9% CPU use with 2 MPI tasks x no OpenMP threads

MPI task timing breakdown:
Section |  min time  |  avg time  |  max time  |%varavg| %total
---------------------------------------------------------------
Pair    | 20.137     | 20.144     | 20.152     |   0.2 | 53.95
Neigh   | 15.301     | 15.633     | 15.965     |   8.4 | 41.87
Comm    | 0.7559     | 1.0908     | 1.4257     |  32.1 |  2.92
Output  | 9.203e-05  | 0.0001986  | 0.00030518 |   0.0 |  0.00
Modify  | 0.35957    | 0.36789    | 0.37621    |   1.4 |  0.99
Other   |            | 0.09973    |            |       |  0.27

Nlocal:    9826 ave 9839 max 9813 min
Histogram: 1 0 0 0 0 0 0 0 0 1
Nghost:    12215 ave 12225 max 12205 min
Histogram: 1 0 0 0 0 0 0 0 0 1
Neighs:    652150 ave 657041 max 647258 min
Histogram: 1 0 0 0 0 0 0 0 0 1

Total # of neighbors = 1304299
Ave neighs/atom = 66.3698
Neighbor list builds = 495
Dangerous builds not checked
Setting up Verlet run ...
  Unit style    : metal
  Current step  : 400495
  Time step     : 0.001
Per MPI rank memory allocation (min/avg/max) = 11.35 | 11.35 | 11.35 Mbytes
Step Temp Press TotEng PotEng Enthalpy 
  400495    1509.5145   -187.24369   -79542.796     -83377.1   -79587.062 
  420000    1511.6898    334.09556   -79590.422   -83430.252   -79511.511 
Loop time of 1610.41 on 2 procs for 19505 steps with 19652 atoms

Performance: 1.046 ns/day, 22.934 hours/ns, 12.112 timesteps/s
97.9% CPU use with 2 MPI tasks x no OpenMP threads

MPI task timing breakdown:
Section |  min time  |  avg time  |  max time  |%varavg| %total
---------------------------------------------------------------
Pair    | 867.55     | 872.85     | 878.15     |  17.9 | 54.20
Neigh   | 666.55     | 667.18     | 667.8      |   2.4 | 41.43
Comm    | 44.599     | 50.573     | 56.547     |  84.0 |  3.14
Output  | 0.036252   | 0.036284   | 0.036316   |   0.0 |  0.00
Modify  | 15.613     | 15.667     | 15.721     |   1.4 |  0.97
Other   |            | 4.108      |            |       |  0.26

Nlocal:    9826 ave 9840 max 9812 min
Histogram: 1 0 0 0 0 0 0 0 0 1
Nghost:    12185 ave 12212 max 12158 min
Histogram: 1 0 0 0 0 0 0 0 0 1
Neighs:    652748 ave 660273 max 645223 min
Histogram: 1 0 0 0 0 0 0 0 0 1

Total # of neighbors = 1305496
Ave neighs/atom = 66.4307
Neighbor list builds = 19505
Dangerous builds not checked
Setting up Verlet run ...
  Unit style    : metal
  Current step  : 420000
  Time step     : 0.001
Per MPI rank memory allocation (min/avg/max) = 11.35 | 11.35 | 11.35 Mbytes
Step Temp Press TotEng PotEng Enthalpy 
  420000    1511.6898    334.09556   -79590.422   -83430.252   -79511.511 
  420495    1460.1006    480.90444   -79791.111   -83499.899   -79677.719 
Loop time of 38.3562 on 2 procs for 495 steps with 19652 atoms

Performance: 1.115 ns/day, 21.524 hours/ns, 12.905 timesteps/s
98.3% CPU use with 2 MPI tasks x no OpenMP threads

MPI task timing breakdown:
Section |  min time  |  avg time  |  max time  |%varavg| %total
---------------------------------------------------------------
Pair    | 20.81      | 20.85      | 20.889     |   0.9 | 54.36
Neigh   | 16.05      | 16.176     | 16.302     |   3.1 | 42.17
Comm    | 0.68243    | 0.85081    | 1.0192     |  18.3 |  2.22
Output  | 7.1049e-05 | 0.00017345 | 0.00027585 |   0.0 |  0.00
Modify  | 0.37547    | 0.37782    | 0.38018    |   0.4 |  0.99
Other   |            | 0.102      |            |       |  0.27

Nlocal:    9826 ave 9851 max 9801 min
Histogram: 1 0 0 0 0 0 0 0 0 1
Nghost:    12254 ave 12291 max 12217 min
Histogram: 1 0 0 0 0 0 0 0 0 1
Neighs:    653886 ave 657590 max 650183 min
Histogram: 1 0 0 0 0 0 0 0 0 1

Total # of neighbors = 1307773
Ave neighs/atom = 66.5466
Neighbor list builds = 495
Dangerous builds not checked
Setting up Verlet run ...
  Unit style    : metal
  Current step  : 420495
  Time step     : 0.001
Per MPI rank memory allocation (min/avg/max) = 11.35 | 11.35 | 11.35 Mbytes
Step Temp Press TotEng PotEng Enthalpy 
  420495    1460.1006    480.90444   -79791.111   -83499.899   -79677.719 
  440000    1446.7143    294.22625   -79877.237   -83552.023   -79807.847 
Loop time of 1601.3 on 2 procs for 19505 steps with 19652 atoms

Performance: 1.052 ns/day, 22.805 hours/ns, 12.181 timesteps/s
98.0% CPU use with 2 MPI tasks x no OpenMP threads

MPI task timing breakdown:
Section |  min time  |  avg time  |  max time  |%varavg| %total
---------------------------------------------------------------
Pair    | 856.9      | 864.34     | 871.79     |  25.3 | 53.98
Neigh   | 665.04     | 665.06     | 665.08     |   0.1 | 41.53
Comm    | 44.864     | 52.407     | 59.95      | 104.2 |  3.27
Output  | 0.055925   | 0.055952   | 0.055979   |   0.0 |  0.00
Modify  | 15.264     | 15.389     | 15.513     |   3.2 |  0.96
Other   |            | 4.048      |            |       |  0.25

Nlocal:    9826 ave 9839 max 9813 min
Histogram: 1 0 0 0 0 0 0 0 0 1
Nghost:    12222.5 ave 12248 max 12197 min
Histogram: 1 0 0 0 0 0 0 0 0 1
Neighs:    653652 ave 660371 max 646933 min
Histogram: 1 0 0 0 0 0 0 0 0 1

Total # of neighbors = 1307304
Ave neighs/atom = 66.5227
Neighbor list builds = 19505
Dangerous builds not checked
Setting up Verlet run ...
  Unit style    : metal
  Current step  : 440000
  Time step     : 0.001
Per MPI rank memory allocation (min/avg/max) = 11.35 | 11.35 | 11.35 Mbytes
Step Temp Press TotEng PotEng Enthalpy 
  440000    1446.7143    294.22625   -79877.237   -83552.023   -79807.847 
  440495    1409.2988     618.8961   -80060.555   -83640.302   -79914.798 
Loop time of 38.1134 on 2 procs for 495 steps with 19652 atoms

Performance: 1.122 ns/day, 21.388 hours/ns, 12.988 timesteps/s
99.3% CPU use with 2 MPI tasks x no OpenMP threads

MPI task timing breakdown:
Section |  min time  |  avg time  |  max time  |%varavg| %total
---------------------------------------------------------------
Pair    | 20.555     | 20.632     | 20.71      |   1.7 | 54.13
Neigh   | 15.539     | 15.802     | 16.066     |   6.6 | 41.46
Comm    | 0.84783    | 1.1962     | 1.5445     |  31.8 |  3.14
Output  | 0.000103   | 0.00014448 | 0.00018597 |   0.0 |  0.00
Modify  | 0.3741     | 0.38136    | 0.38862    |   1.2 |  1.00
Other   |            | 0.101      |            |       |  0.27

Nlocal:    9826 ave 9855 max 9797 min
Histogram: 1 0 0 0 0 0 0 0 0 1
Nghost:    12195 ave 12224 max 12166 min
Histogram: 1 0 0 0 0 0 0 0 0 1
Neighs:    654827 ave 663798 max 645856 min
Histogram: 1 0 0 0 0 0 0 0 0 1

Total # of neighbors = 1309654
Ave neighs/atom = 66.6423
Neighbor list builds = 495
Dangerous builds not checked
Setting up Verlet run ...
  Unit style    : metal
  Current step  : 440495
  Time step     : 0.001
Per MPI rank memory allocation (min/avg/max) = 11.35 | 11.35 | 11.35 Mbytes
Step Temp Press TotEng PotEng Enthalpy 
  440495    1409.2988     618.8961   -80060.555   -83640.302   -79914.798 
  460000    1406.3932     144.6609   -80133.844    -83706.21    -80099.79 
Loop time of 1536.94 on 2 procs for 19505 steps with 19652 atoms

Performance: 1.096 ns/day, 21.888 hours/ns, 12.691 timesteps/s
98.8% CPU use with 2 MPI tasks x no OpenMP threads

MPI task timing breakdown:
Section |  min time  |  avg time  |  max time  |%varavg| %total
---------------------------------------------------------------
Pair    | 812.22     | 816.13     | 820.03     |  13.7 | 53.10
Neigh   | 647.16     | 647.22     | 647.27     |   0.2 | 42.11
Comm    | 51.517     | 55.216     | 58.915     |  49.8 |  3.59
Output  | 0.036146   | 0.036171   | 0.036196   |   0.0 |  0.00
Modify  | 14.292     | 14.533     | 14.774     |   6.3 |  0.95
Other   |            | 3.812      |            |       |  0.25

Nlocal:    9826 ave 9841 max 9811 min
Histogram: 1 0 0 0 0 0 0 0 0 1
Nghost:    12187.5 ave 12189 max 12186 min
Histogram: 1 0 0 0 0 0 0 0 0 1
Neighs:    655068 ave 659829 max 650308 min
Histogram: 1 0 0 0 0 0 0 0 0 1

Total # of neighbors = 1310137
Ave neighs/atom = 66.6669
Neighbor list builds = 19505
Dangerous builds not checked
Setting up Verlet run ...
  Unit style    : metal
  Current step  : 460000
  Time step     : 0.001
Per MPI rank memory allocation (min/avg/max) = 11.35 | 11.35 | 11.35 Mbytes
Step Temp Press TotEng PotEng Enthalpy 
  460000    1406.3932     144.6609   -80133.844    -83706.21    -80099.79 
  460495      1363.35    874.36807   -80303.022   -83766.055   -80097.752 
Loop time of 36.2039 on 2 procs for 495 steps with 19652 atoms

Performance: 1.181 ns/day, 20.316 hours/ns, 13.673 timesteps/s
99.1% CPU use with 2 MPI tasks x no OpenMP threads

MPI task timing breakdown:
Section |  min time  |  avg time  |  max time  |%varavg| %total
---------------------------------------------------------------
Pair    | 19.272     | 19.282     | 19.292     |   0.2 | 53.26
Neigh   | 15.113     | 15.399     | 15.684     |   7.3 | 42.53
Comm    | 0.80692    | 1.0882     | 1.3695     |  27.0 |  3.01
Output  | 8.2016e-05 | 0.00013101 | 0.00018001 |   0.0 |  0.00
Modify  | 0.33814    | 0.34238    | 0.34663    |   0.7 |  0.95
Other   |            | 0.09248    |            |       |  0.26

Nlocal:    9826 ave 9828 max 9824 min
Histogram: 1 0 0 0 0 0 0 0 0 1
Nghost:    12244.5 ave 12257 max 12232 min
Histogram: 1 0 0 0 0 0 0 0 0 1
Neighs:    656706 ave 657026 max 656387 min
Histogram: 1 0 0 0 0 0 0 0 0 1

Total # of neighbors = 1313413
Ave neighs/atom = 66.8336
Neighbor list builds = 495
Dangerous builds not checked
Setting up Verlet run ...
  Unit style    : metal
  Current step  : 460495
  Time step     : 0.001
Per MPI rank memory allocation (min/avg/max) = 11.35 | 11.35 | 11.35 Mbytes
Step Temp Press TotEng PotEng Enthalpy 
  460495      1363.35    874.36807   -80303.022   -83766.055   -80097.752 
  480000     1355.319   -444.44887   -80361.232   -83803.866   -80465.862 
Loop time of 1438.26 on 2 procs for 19505 steps with 19652 atoms

Performance: 1.172 ns/day, 20.483 hours/ns, 13.562 timesteps/s
98.4% CPU use with 2 MPI tasks x no OpenMP threads

MPI task timing breakdown:
Section |  min time  |  avg time  |  max time  |%varavg| %total
---------------------------------------------------------------
Pair    | 746.21     | 747.99     | 749.77     |   6.5 | 52.01
Neigh   | 622.94     | 623.68     | 624.42     |   3.0 | 43.36
Comm    | 48.789     | 49.696     | 50.603     |  12.9 |  3.46
Output  | 0.037446   | 0.037459   | 0.037471   |   0.0 |  0.00
Modify  | 13.192     | 13.331     | 13.469     |   3.8 |  0.93
Other   |            | 3.529      |            |       |  0.25

Nlocal:    9826 ave 9834 max 9818 min
Histogram: 1 0 0 0 0 0 0 0 0 1
Nghost:    12236.5 ave 12246 max 12227 min
Histogram: 1 0 0 0 0 0 0 0 0 1
Neighs:    654854 ave 661761 max 647947 min
Histogram: 1 0 0 0 0 0 0 0 0 1

Total # of neighbors = 1309708
Ave neighs/atom = 66.645
Neighbor list builds = 19505
Dangerous builds not checked
Setting up Verlet run ...
  Unit style    : metal
  Current step  : 480000
  Time step     : 0.001
Per MPI rank memory allocation (min/avg/max) = 11.35 | 11.35 | 11.35 Mbytes
Step Temp Press TotEng PotEng Enthalpy 
  480000     1355.319   -444.44887   -80361.232   -83803.866   -80465.862 
  480495    1304.6285   -626.56658   -80569.152   -83883.027   -80716.483 
Loop time of 42.7421 on 2 procs for 495 steps with 19652 atoms

Performance: 1.001 ns/day, 23.985 hours/ns, 11.581 timesteps/s
96.4% CPU use with 2 MPI tasks x no OpenMP threads

MPI task timing breakdown:
Section |  min time  |  avg time  |  max time  |%varavg| %total
---------------------------------------------------------------
Pair    | 22.178     | 22.356     | 22.533     |   3.8 | 52.30
Neigh   | 17.73      | 18.182     | 18.634     |  10.6 | 42.54
Comm    | 1.4212     | 1.705      | 1.9888     |  21.7 |  3.99
Output  | 9.4891e-05 | 0.00013041 | 0.00016594 |   0.0 |  0.00
Modify  | 0.38357    | 0.39303    | 0.40249    |   1.5 |  0.92
Other   |            | 0.1061     |            |       |  0.25

Nlocal:    9826 ave 9831 max 9821 min
Histogram: 1 0 0 0 0 0 0 0 0 1
Nghost:    12249 ave 12264 max 12234 min
Histogram: 1 0 0 0 0 0 0 0 0 1
Neighs:    655774 ave 656240 max 655309 min
Histogram: 1 0 0 0 0 0 0 0 0 1

Total # of neighbors = 1311549
Ave neighs/atom = 66.7387
Neighbor list builds = 495
Dangerous builds not checked
Setting up Verlet run ...
  Unit style    : metal
  Current step  : 480495
  Time step     : 0.001
Per MPI rank memory allocation (min/avg/max) = 11.35 | 11.35 | 11.35 Mbytes
Step Temp Press TotEng PotEng Enthalpy 
  480495    1304.6285   -626.56658   -80569.152   -83883.027   -80716.483 
  500000    1311.0084   -99.805739   -80637.508   -83967.588   -80660.932 
Loop time of 1710.21 on 2 procs for 19505 steps with 19652 atoms

Performance: 0.985 ns/day, 24.356 hours/ns, 11.405 timesteps/s
97.5% CPU use with 2 MPI tasks x no OpenMP threads

MPI task timing breakdown:
Section |  min time  |  avg time  |  max time  |%varavg| %total
---------------------------------------------------------------
Pair    | 901.9      | 904.05     | 906.19     |   7.1 | 52.86
Neigh   | 712.88     | 715.47     | 718.06     |   9.7 | 41.84
Comm    | 68.672     | 69.333     | 69.995     |   7.9 |  4.05
Output  | 0.038585   | 0.038618   | 0.038651   |   0.0 |  0.00
Modify  | 17.023     | 17.25      | 17.478     |   5.5 |  1.01
Other   |            | 4.069      |            |       |  0.24

Nlocal:    9826 ave 9830 max 9822 min
Histogram: 1 0 0 0 0 0 0 0 0 1
Nghost:    12234 ave 12262 max 12206 min
Histogram: 1 0 0 0 0 0 0 0 0 1
Neighs:    656655 ave 657154 max 656156 min
Histogram: 1 0 0 0 0 0 0 0 0 1

Total # of neighbors = 1313310
Ave neighs/atom = 66.8283
Neighbor list builds = 19505
Dangerous builds not checked
Setting up Verlet run ...
  Unit style    : metal
  Current step  : 500000
  Time step     : 0.001
Per MPI rank memory allocation (min/avg/max) = 11.35 | 11.35 | 11.35 Mbytes
Step Temp Press TotEng PotEng Enthalpy 
  500000    1311.0084   -99.805739   -80637.508   -83967.588   -80660.932 
  500495    1265.1099    176.84424   -80828.243   -84041.738   -80786.817 
Loop time of 42.9905 on 2 procs for 495 steps with 19652 atoms

Performance: 0.995 ns/day, 24.125 hours/ns, 11.514 timesteps/s
98.9% CPU use with 2 MPI tasks x no OpenMP threads

MPI task timing breakdown:
Section |  min time  |  avg time  |  max time  |%varavg| %total
---------------------------------------------------------------
Pair    | 22.185     | 22.244     | 22.302     |   1.2 | 51.74
Neigh   | 18.143     | 18.226     | 18.309     |   1.9 | 42.40
Comm    | 1.8745     | 1.9014     | 1.9284     |   2.0 |  4.42
Output  | 9.0122e-05 | 0.00012755 | 0.00016499 |   0.0 |  0.00
Modify  | 0.50997    | 0.51385    | 0.51774    |   0.5 |  1.20
Other   |            | 0.1055     |            |       |  0.25

Nlocal:    9826 ave 9830 max 9822 min
Histogram: 1 0 0 0 0 0 0 0 0 1
Nghost:    12287 ave 12301 max 12273 min
Histogram: 1 0 0 0 0 0 0 0 0 1
Neighs:    658162 ave 658589 max 657736 min
Histogram: 1 0 0 0 0 0 0 0 0 1

Total # of neighbors = 1316325
Ave neighs/atom = 66.9817
Neighbor list builds = 495
Dangerous builds not checked
Setting up Verlet run ...
  Unit style    : metal
  Current step  : 500495
  Time step     : 0.001
Per MPI rank memory allocation (min/avg/max) = 11.35 | 11.35 | 11.35 Mbytes
Step Temp Press TotEng PotEng Enthalpy 
  500495    1265.1099    176.84424   -80828.243   -84041.738   -80786.817 
  520000    1248.3321    914.97296   -80919.574   -84090.451    -80705.24 
Loop time of 1684.14 on 2 procs for 19505 steps with 19652 atoms

Performance: 1.001 ns/day, 23.984 hours/ns, 11.582 timesteps/s
97.5% CPU use with 2 MPI tasks x no OpenMP threads

MPI task timing breakdown:
Section |  min time  |  avg time  |  max time  |%varavg| %total
---------------------------------------------------------------
Pair    | 890.11     | 890.51     | 890.9      |   1.3 | 52.88
Neigh   | 708.63     | 709.32     | 710.01     |   2.6 | 42.12
Comm    | 64.616     | 64.931     | 65.247     |   3.9 |  3.86
Output  | 0.022832   | 0.022839   | 0.022847   |   0.0 |  0.00
Modify  | 15.318     | 15.339     | 15.359     |   0.5 |  0.91
Other   |            | 4.019      |            |       |  0.24

Nlocal:    9826 ave 9837 max 9815 min
Histogram: 1 0 0 0 0 0 0 0 0 1
Nghost:    12254 ave 12264 max 12244 min
Histogram: 1 0 0 0 0 0 0 0 0 1
Neighs:    658192 ave 658789 max 657596 min
Histogram: 1 0 0 0 0 0 0 0 0 1

Total # of neighbors = 1316385
Ave neighs/atom = 66.9848
Neighbor list builds = 19505
Dangerous builds not checked
Setting up Verlet run ...
  Unit style    : metal
  Current step  : 520000
  Time step     : 0.001
Per MPI rank memory allocation (min/avg/max) = 11.35 | 11.35 | 11.35 Mbytes
Step Temp Press TotEng PotEng Enthalpy 
  520000    1248.3321    914.97296   -80919.574   -84090.451    -80705.24 
  520495    1209.9555    579.38422   -81100.416   -84173.813    -80965.08 
Loop time of 28.9934 on 2 procs for 495 steps with 19652 atoms

Performance: 1.475 ns/day, 16.270 hours/ns, 17.073 timesteps/s
99.6% CPU use with 2 MPI tasks x no OpenMP threads

MPI task timing breakdown:
Section |  min time  |  avg time  |  max time  |%varavg| %total
---------------------------------------------------------------
Pair    | 14.713     | 14.739     | 14.765     |   0.7 | 50.83
Neigh   | 13.241     | 13.335     | 13.428     |   2.6 | 45.99
Comm    | 0.507      | 0.57567    | 0.64434    |   9.1 |  1.99
Output  | 5.1022e-05 | 7.9513e-05 | 0.000108   |   0.0 |  0.00
Modify  | 0.26737    | 0.26836    | 0.26936    |   0.2 |  0.93
Other   |            | 0.07588    |            |       |  0.26

Nlocal:    9826 ave 9834 max 9818 min
Histogram: 1 0 0 0 0 0 0 0 0 1
Nghost:    12286.5 ave 12290 max 12283 min
Histogram: 1 0 0 0 0 0 0 0 0 1
Neighs:    660030 ave 660217 max 659842 min
Histogram: 1 0 0 0 0 0 0 0 0 1

Total # of neighbors = 1320059
Ave neighs/atom = 67.1717
Neighbor list builds = 495
Dangerous builds not checked
Setting up Verlet run ...
  Unit style    : metal
  Current step  : 520495
  Time step     : 0.001
Per MPI rank memory allocation (min/avg/max) = 11.35 | 11.35 | 11.35 Mbytes
Step Temp Press TotEng PotEng Enthalpy 
  520495    1209.9555    579.38422   -81100.416   -84173.813    -80965.08 
  540000    1193.8615   -897.45722   -81215.289   -84247.806   -81425.649 
Loop time of 1267.95 on 2 procs for 19505 steps with 19652 atoms

Performance: 1.329 ns/day, 18.057 hours/ns, 15.383 timesteps/s
98.4% CPU use with 2 MPI tasks x no OpenMP threads

MPI task timing breakdown:
Section |  min time  |  avg time  |  max time  |%varavg| %total
---------------------------------------------------------------
Pair    | 654.49     | 656.39     | 658.28     |   7.4 | 51.77
Neigh   | 551.8      | 553.42     | 555.04     |   6.9 | 43.65
Comm    | 43.283     | 43.554     | 43.826     |   4.1 |  3.44
Output  | 0.024835   | 0.024851   | 0.024868   |   0.0 |  0.00
Modify  | 11.46      | 11.461     | 11.461     |   0.0 |  0.90
Other   |            | 3.102      |            |       |  0.24

Nlocal:    9826 ave 9837 max 9815 min
Histogram: 1 0 0 0 0 0 0 0 0 1
Nghost:    12264 ave 12299 max 12229 min
Histogram: 1 0 0 0 0 0 0 0 0 1
Neighs:    657680 ave 658800 max 656560 min
Histogram: 1 0 0 0 0 0 0 0 0 1

Total # of neighbors = 1315360
Ave neighs/atom = 66.9326
Neighbor list builds = 19505
Dangerous builds not checked
Setting up Verlet run ...
  Unit style    : metal
  Current step  : 540000
  Time step     : 0.001
Per MPI rank memory allocation (min/avg/max) = 11.35 | 11.35 | 11.35 Mbytes
Step Temp Press TotEng PotEng Enthalpy 
  540000    1193.8615   -897.45722   -81215.289   -84247.806   -81425.649 
  540495    1164.2398     -1178.09   -81384.206   -84341.481   -81659.885 
Loop time of 27.306 on 2 procs for 495 steps with 19652 atoms

Performance: 1.566 ns/day, 15.323 hours/ns, 18.128 timesteps/s
99.8% CPU use with 2 MPI tasks x no OpenMP threads

MPI task timing breakdown:
Section |  min time  |  avg time  |  max time  |%varavg| %total
---------------------------------------------------------------
Pair    | 13.689     | 13.754     | 13.819     |   1.8 | 50.37
Neigh   | 12.697     | 12.733     | 12.769     |   1.0 | 46.63
Comm    | 0.46648    | 0.49478    | 0.52307    |   4.0 |  1.81
Output  | 5.1975e-05 | 7.7009e-05 | 0.00010204 |   0.0 |  0.00
Modify  | 0.25145    | 0.25184    | 0.25223    |   0.1 |  0.92
Other   |            | 0.07245    |            |       |  0.27

Nlocal:    9826 ave 9833 max 9819 min
Histogram: 1 0 0 0 0 0 0 0 0 1
Nghost:    12257 ave 12277 max 12237 min
Histogram: 1 0 0 0 0 0 0 0 0 1
Neighs:    659014 ave 659758 max 658271 min
Histogram: 1 0 0 0 0 0 0 0 0 1

Total # of neighbors = 1318029
Ave neighs/atom = 67.0684
Neighbor list builds = 495
Dangerous builds not checked
Setting up Verlet run ...
  Unit style    : metal
  Current step  : 540495
  Time step     : 0.001
Per MPI rank memory allocation (min/avg/max) = 11.35 | 11.35 | 11.35 Mbytes
Step Temp Press TotEng PotEng Enthalpy 
  540495    1164.2398     -1178.09   -81384.206   -84341.481   -81659.885 
  560000    1146.4909   -367.88526   -81485.724   -84397.915   -81571.673 
Loop time of 1502.52 on 2 procs for 19505 steps with 19652 atoms

Performance: 1.122 ns/day, 21.398 hours/ns, 12.981 timesteps/s
98.4% CPU use with 2 MPI tasks x no OpenMP threads

MPI task timing breakdown:
Section |  min time  |  avg time  |  max time  |%varavg| %total
---------------------------------------------------------------
Pair    | 785.47     | 790.89     | 796.31     |  19.3 | 52.64
Neigh   | 621.11     | 634.18     | 647.25     |  51.9 | 42.21
Comm    | 52.254     | 60.049     | 67.845     | 100.6 |  4.00
Output  | 0.056576   | 0.056638   | 0.056701   |   0.0 |  0.00
Modify  | 13.622     | 13.72      | 13.818     |   2.6 |  0.91
Other   |            | 3.629      |            |       |  0.24

Nlocal:    9826 ave 9832 max 9820 min
Histogram: 1 0 0 0 0 0 0 0 0 1
Nghost:    12288.5 ave 12306 max 12271 min
Histogram: 1 0 0 0 0 0 0 0 0 1
Neighs:    660071 ave 660491 max 659651 min
Histogram: 1 0 0 0 0 0 0 0 0 1

Total # of neighbors = 1320142
Ave neighs/atom = 67.176
Neighbor list builds = 19505
Dangerous builds not checked
Setting up Verlet run ...
  Unit style    : metal
  Current step  : 560000
  Time step     : 0.001
Per MPI rank memory allocation (min/avg/max) = 11.35 | 11.35 | 11.35 Mbytes
Step Temp Press TotEng PotEng Enthalpy 
[...]
Neighs:    669088 ave 669899 max 668276 min
Histogram: 1 0 0 0 0 0 0 0 0 1

Total # of neighbors = 1338175
Ave neighs/atom = 68.0936
Neighbor list builds = 19505
Dangerous builds not checked
Setting up Verlet run ...
  Unit style    : metal
  Current step  : 840000
  Time step     : 0.001
Per MPI rank memory allocation (min/avg/max) = 11.35 | 11.35 | 11.35 Mbytes
Step Temp Press TotEng PotEng Enthalpy 
  840000    447.68856    410.33187    -86752.02   -87889.189     -86657.4 
  840495    419.89068    390.17504   -86895.044   -87961.605   -86805.093 
Loop time of 40.0582 on 2 procs for 495 steps with 19652 atoms

Performance: 1.068 ns/day, 22.479 hours/ns, 12.357 timesteps/s
99.5% CPU use with 2 MPI tasks x no OpenMP threads

MPI task timing breakdown:
Section |  min time  |  avg time  |  max time  |%varavg| %total
---------------------------------------------------------------
Pair    | 21.006     | 21.121     | 21.236     |   2.5 | 52.73
Neigh   | 16.681     | 16.732     | 16.784     |   1.3 | 41.77
Comm    | 1.6301     | 1.694      | 1.7579     |   4.9 |  4.23
Output  | 0.00010395 | 0.00013697 | 0.00016999 |   0.0 |  0.00
Modify  | 0.40337    | 0.40416    | 0.40496    |   0.1 |  1.01
Other   |            | 0.1068     |            |       |  0.27

Nlocal:    9826 ave 9835 max 9817 min
Histogram: 1 0 0 0 0 0 0 0 0 1
Nghost:    12298.5 ave 12303 max 12294 min
Histogram: 1 0 0 0 0 0 0 0 0 1
Neighs:    669456 ave 670398 max 668514 min
Histogram: 1 0 0 0 0 0 0 0 0 1

Total # of neighbors = 1338912
Ave neighs/atom = 68.1311
Neighbor list builds = 495
Dangerous builds not checked
Setting up Verlet run ...
  Unit style    : metal
  Current step  : 840495
  Time step     : 0.001
Per MPI rank memory allocation (min/avg/max) = 11.35 | 11.35 | 11.35 Mbytes
Step Temp Press TotEng PotEng Enthalpy 
  840495    419.89068    390.17504   -86895.044   -87961.605   -86805.093 
  860000     402.4587     -846.385    -87110.71   -88132.992    -87305.91 
Loop time of 1639.05 on 2 procs for 19505 steps with 19652 atoms

Performance: 1.028 ns/day, 23.342 hours/ns, 11.900 timesteps/s
99.1% CPU use with 2 MPI tasks x no OpenMP threads

MPI task timing breakdown:
Section |  min time  |  avg time  |  max time  |%varavg| %total
---------------------------------------------------------------
Pair    | 859.39     | 860.99     | 862.6      |   5.5 | 52.53
Neigh   | 683.15     | 684.69     | 686.24     |   5.9 | 41.77
Comm    | 71.237     | 71.298     | 71.359     |   0.7 |  4.35
Output  | 0.037202   | 0.03729    | 0.037379   |   0.0 |  0.00
Modify  | 17.568     | 17.584     | 17.599     |   0.4 |  1.07
Other   |            | 4.443      |            |       |  0.27

Nlocal:    9826 ave 9832 max 9820 min
Histogram: 1 0 0 0 0 0 0 0 0 1
Nghost:    12331.5 ave 12340 max 12323 min
Histogram: 1 0 0 0 0 0 0 0 0 1
Neighs:    668876 ave 669408 max 668343 min
Histogram: 1 0 0 0 0 0 0 0 0 1

Total # of neighbors = 1337751
Ave neighs/atom = 68.072
Neighbor list builds = 19505
Dangerous builds not checked
Setting up Verlet run ...
  Unit style    : metal
  Current step  : 860000
  Time step     : 0.001
Per MPI rank memory allocation (min/avg/max) = 11.35 | 11.35 | 11.35 Mbytes
Step Temp Press TotEng PotEng Enthalpy 
  860000     402.4587     -846.385    -87110.71   -88132.992    -87305.91 
  860495    372.85106    356.65105   -87265.204   -88212.279   -87183.045 
Loop time of 42.3536 on 2 procs for 495 steps with 19652 atoms

Performance: 1.010 ns/day, 23.767 hours/ns, 11.687 timesteps/s
98.7% CPU use with 2 MPI tasks x no OpenMP threads

MPI task timing breakdown:
Section |  min time  |  avg time  |  max time  |%varavg| %total
---------------------------------------------------------------
Pair    | 22.21      | 22.23      | 22.25      |   0.4 | 52.49
Neigh   | 17.424     | 17.733     | 18.041     |   7.3 | 41.87
Comm    | 1.5456     | 1.8377     | 2.1298     |  21.5 |  4.34
Output  | 0.00012398 | 0.00015938 | 0.00019479 |   0.0 |  0.00
Modify  | 0.433      | 0.43581    | 0.43861    |   0.4 |  1.03
Other   |            | 0.1168     |            |       |  0.28

Nlocal:    9826 ave 9827 max 9825 min
Histogram: 1 0 0 0 0 0 0 0 0 1
Nghost:    12329 ave 12334 max 12324 min
Histogram: 1 0 0 0 0 0 0 0 0 1
Neighs:    669519 ave 669892 max 669146 min
Histogram: 1 0 0 0 0 0 0 0 0 1

Total # of neighbors = 1339038
Ave neighs/atom = 68.1375
Neighbor list builds = 495
Dangerous builds not checked
Setting up Verlet run ...
  Unit style    : metal
  Current step  : 860495
  Time step     : 0.001
Per MPI rank memory allocation (min/avg/max) = 11.35 | 11.35 | 11.35 Mbytes
Step Temp Press TotEng PotEng Enthalpy 
  860495    372.85106    356.65105   -87265.204   -88212.279   -87183.045 
  880000    346.88959    -153.8421   -87445.551   -88326.682       -87481 
Loop time of 1680.03 on 2 procs for 19505 steps with 19652 atoms

Performance: 1.003 ns/day, 23.926 hours/ns, 11.610 timesteps/s
99.3% CPU use with 2 MPI tasks x no OpenMP threads

MPI task timing breakdown:
Section |  min time  |  avg time  |  max time  |%varavg| %total
---------------------------------------------------------------
Pair    | 884.87     | 887.01     | 889.16     |   7.2 | 52.80
Neigh   | 703.53     | 705.1      | 706.68     |   5.9 | 41.97
Comm    | 64.853     | 65.338     | 65.824     |   6.0 |  3.89
Output  | 0.034514   | 0.034531   | 0.034548   |   0.0 |  0.00
Modify  | 17.626     | 17.703     | 17.78      |   1.8 |  1.05
Other   |            | 4.836      |            |       |  0.29

Nlocal:    9826 ave 9833 max 9819 min
Histogram: 1 0 0 0 0 0 0 0 0 1
Nghost:    12344 ave 12348 max 12340 min
Histogram: 1 0 0 0 0 0 0 0 0 1
Neighs:    669413 ave 669838 max 668988 min
Histogram: 1 0 0 0 0 0 0 0 0 1

Total # of neighbors = 1338826
Ave neighs/atom = 68.1267
Neighbor list builds = 19505
Dangerous builds not checked
Setting up Verlet run ...
  Unit style    : metal
  Current step  : 880000
  Time step     : 0.001
Per MPI rank memory allocation (min/avg/max) = 11.35 | 11.35 | 11.35 Mbytes
Step Temp Press TotEng PotEng Enthalpy 
  880000    346.88959    -153.8421   -87445.551   -88326.682       -87481 
  880495    323.79698   -201.17548    -87591.64   -88414.113    -87637.96 
Loop time of 42.3034 on 2 procs for 495 steps with 19652 atoms

Performance: 1.011 ns/day, 23.739 hours/ns, 11.701 timesteps/s
99.9% CPU use with 2 MPI tasks x no OpenMP threads

MPI task timing breakdown:
Section |  min time  |  avg time  |  max time  |%varavg| %total
---------------------------------------------------------------
Pair    | 22.313     | 22.323     | 22.332     |   0.2 | 52.77
Neigh   | 18.007     | 18.027     | 18.048     |   0.5 | 42.61
Comm    | 1.3517     | 1.3801     | 1.4085     |   2.4 |  3.26
Output  | 0.00010991 | 0.00017548 | 0.00024104 |   0.0 |  0.00
Modify  | 0.44516    | 0.44652    | 0.44788    |   0.2 |  1.06
Other   |            | 0.1265     |            |       |  0.30

Nlocal:    9826 ave 9833 max 9819 min
Histogram: 1 0 0 0 0 0 0 0 0 1
Nghost:    12332.5 ave 12337 max 12328 min
Histogram: 1 0 0 0 0 0 0 0 0 1
Neighs:    669859 ave 670214 max 669504 min
Histogram: 1 0 0 0 0 0 0 0 0 1

Total # of neighbors = 1339718
Ave neighs/atom = 68.1721
Neighbor list builds = 495
Dangerous builds not checked
Setting up Verlet run ...
  Unit style    : metal
  Current step  : 880495
  Time step     : 0.001
Per MPI rank memory allocation (min/avg/max) = 11.35 | 11.35 | 11.35 Mbytes
Step Temp Press TotEng PotEng Enthalpy 
  880495    323.79698   -201.17548    -87591.64   -88414.113    -87637.96 
  900000    297.31815    786.35912   -87749.258   -88504.473   -87568.421 
Loop time of 1686.17 on 2 procs for 19505 steps with 19652 atoms

Performance: 0.999 ns/day, 24.013 hours/ns, 11.568 timesteps/s
99.5% CPU use with 2 MPI tasks x no OpenMP threads

MPI task timing breakdown:
Section |  min time  |  avg time  |  max time  |%varavg| %total
---------------------------------------------------------------
Pair    | 883.82     | 884.5      | 885.17     |   2.3 | 52.46
Neigh   | 715.14     | 717.18     | 719.22     |   7.6 | 42.53
Comm    | 59.805     | 61.185     | 62.566     |  17.6 |  3.63
Output  | 0.037407   | 0.037432   | 0.037457   |   0.0 |  0.00
Modify  | 18.213     | 18.223     | 18.234     |   0.2 |  1.08
Other   |            | 5.046      |            |       |  0.30

Nlocal:    9826 ave 9827 max 9825 min
Histogram: 1 0 0 0 0 0 0 0 0 1
Nghost:    12346.5 ave 12363 max 12330 min
Histogram: 1 0 0 0 0 0 0 0 0 1
Neighs:    670261 ave 670466 max 670056 min
Histogram: 1 0 0 0 0 0 0 0 0 1

Total # of neighbors = 1340522
Ave neighs/atom = 68.213
Neighbor list builds = 19505
Dangerous builds not checked
Setting up Verlet run ...
  Unit style    : metal
  Current step  : 900000
  Time step     : 0.001
Per MPI rank memory allocation (min/avg/max) = 11.35 | 11.35 | 11.35 Mbytes
Step Temp Press TotEng PotEng Enthalpy 
  900000    297.31815    786.35912   -87749.258   -88504.473   -87568.421 
  900495    275.87967   -240.57838   -87895.529   -88596.289   -87950.876 
Loop time of 42.2575 on 2 procs for 495 steps with 19652 atoms

Performance: 1.012 ns/day, 23.714 hours/ns, 11.714 timesteps/s
99.9% CPU use with 2 MPI tasks x no OpenMP threads

MPI task timing breakdown:
Section |  min time  |  avg time  |  max time  |%varavg| %total
---------------------------------------------------------------
Pair    | 22.114     | 22.125     | 22.136     |   0.2 | 52.36
Neigh   | 18.343     | 18.386     | 18.429     |   1.0 | 43.51
Comm    | 1.1134     | 1.1709     | 1.2284     |   5.3 |  2.77
Output  | 0.0001111  | 0.00015604 | 0.00020099 |   0.0 |  0.00
Modify  | 0.44851    | 0.4509     | 0.45329    |   0.4 |  1.07
Other   |            | 0.1249     |            |       |  0.30

Nlocal:    9826 ave 9834 max 9818 min
Histogram: 1 0 0 0 0 0 0 0 0 1
Nghost:    12342.5 ave 12346 max 12339 min
Histogram: 1 0 0 0 0 0 0 0 0 1
Neighs:    670106 ave 670887 max 669325 min
Histogram: 1 0 0 0 0 0 0 0 0 1

Total # of neighbors = 1340212
Ave neighs/atom = 68.1972
Neighbor list builds = 495
Dangerous builds not checked
Setting up Verlet run ...
  Unit style    : metal
  Current step  : 900495
  Time step     : 0.001
Per MPI rank memory allocation (min/avg/max) = 11.35 | 11.35 | 11.35 Mbytes
Step Temp Press TotEng PotEng Enthalpy 
  900495    275.87967   -240.57838   -87895.529   -88596.289   -87950.876 
  920000    251.24584    254.53559   -88037.911   -88676.099   -87979.451 
Loop time of 1672.91 on 2 procs for 19505 steps with 19652 atoms

Performance: 1.007 ns/day, 23.825 hours/ns, 11.659 timesteps/s
99.4% CPU use with 2 MPI tasks x no OpenMP threads

MPI task timing breakdown:
Section |  min time  |  avg time  |  max time  |%varavg| %total
---------------------------------------------------------------
Pair    | 874.75     | 877.85     | 880.94     |  10.5 | 52.47
Neigh   | 715.1      | 715.74     | 716.37     |   2.4 | 42.78
Comm    | 52.681     | 56.419     | 60.157     |  49.8 |  3.37
Output  | 0.037915   | 0.037934   | 0.037953   |   0.0 |  0.00
Modify  | 17.986     | 17.994     | 18.002     |   0.2 |  1.08
Other   |            | 4.881      |            |       |  0.29

Nlocal:    9826 ave 9844 max 9808 min
Histogram: 1 0 0 0 0 0 0 0 0 1
Nghost:    12359.5 ave 12381 max 12338 min
Histogram: 1 0 0 0 0 0 0 0 0 1
Neighs:    671048 ave 672648 max 669447 min
Histogram: 1 0 0 0 0 0 0 0 0 1

Total # of neighbors = 1342095
Ave neighs/atom = 68.293
Neighbor list builds = 19505
Dangerous builds not checked
Setting up Verlet run ...
  Unit style    : metal
  Current step  : 920000
  Time step     : 0.001
Per MPI rank memory allocation (min/avg/max) = 11.35 | 11.35 | 11.35 Mbytes
Step Temp Press TotEng PotEng Enthalpy 
  920000    251.24584    254.53559   -88037.911   -88676.099   -87979.451 
  920495    223.91558   -236.91954   -88175.657   -88744.423   -88230.063 
Loop time of 41.5971 on 2 procs for 495 steps with 19652 atoms

Performance: 1.028 ns/day, 23.343 hours/ns, 11.900 timesteps/s
99.4% CPU use with 2 MPI tasks x no OpenMP threads

MPI task timing breakdown:
Section |  min time  |  avg time  |  max time  |%varavg| %total
---------------------------------------------------------------
Pair    | 21.685     | 21.792     | 21.9       |   2.3 | 52.39
Neigh   | 17.813     | 17.968     | 18.123     |   3.7 | 43.19
Comm    | 1.2256     | 1.276      | 1.3264     |   4.5 |  3.07
Output  | 8.297e-05  | 0.00011504 | 0.0001471  |   0.0 |  0.00
Modify  | 0.44192    | 0.44296    | 0.44401    |   0.2 |  1.06
Other   |            | 0.1179     |            |       |  0.28

Nlocal:    9826 ave 9849 max 9803 min
Histogram: 1 0 0 0 0 0 0 0 0 1
Nghost:    12352.5 ave 12385 max 12320 min
Histogram: 1 0 0 0 0 0 0 0 0 1
Neighs:    671209 ave 673105 max 669313 min
Histogram: 1 0 0 0 0 0 0 0 0 1

Total # of neighbors = 1342418
Ave neighs/atom = 68.3095
Neighbor list builds = 495
Dangerous builds not checked
Setting up Verlet run ...
  Unit style    : metal
  Current step  : 920495
  Time step     : 0.001
Per MPI rank memory allocation (min/avg/max) = 11.35 | 11.35 | 11.35 Mbytes
Step Temp Press TotEng PotEng Enthalpy 
  920495    223.91558   -236.91954   -88175.657   -88744.423   -88230.063 
  940000     200.4964   -760.08404    -88313.96   -88823.239   -88488.539 
Loop time of 1635.54 on 2 procs for 19505 steps with 19652 atoms

Performance: 1.030 ns/day, 23.292 hours/ns, 11.926 timesteps/s
99.6% CPU use with 2 MPI tasks x no OpenMP threads

MPI task timing breakdown:
Section |  min time  |  avg time  |  max time  |%varavg| %total
---------------------------------------------------------------
Pair    | 856.8      | 856.9      | 857        |   0.3 | 52.39
Neigh   | 706.01     | 706.8      | 707.58     |   3.0 | 43.22
Comm    | 48.81      | 49.705     | 50.599     |  12.7 |  3.04
Output  | 0.036964   | 0.036992   | 0.03702    |   0.0 |  0.00
Modify  | 17.558     | 17.559     | 17.56      |   0.0 |  1.07
Other   |            | 4.541      |            |       |  0.28

Nlocal:    9826 ave 9826 max 9826 min
Histogram: 2 0 0 0 0 0 0 0 0 0
Nghost:    12392 ave 12392 max 12392 min
Histogram: 2 0 0 0 0 0 0 0 0 0
Neighs:    671150 ave 671417 max 670884 min
Histogram: 1 0 0 0 0 0 0 0 0 1

Total # of neighbors = 1342301
Ave neighs/atom = 68.3035
Neighbor list builds = 19505
Dangerous builds not checked
Setting up Verlet run ...
  Unit style    : metal
  Current step  : 940000
  Time step     : 0.001
Per MPI rank memory allocation (min/avg/max) = 11.35 | 11.35 | 11.35 Mbytes
Step Temp Press TotEng PotEng Enthalpy 
  940000     200.4964   -760.08404    -88313.96   -88823.239   -88488.539 
  940495    176.04118    133.31223   -88443.908   -88891.069    -88413.35 
Loop time of 40.9662 on 2 procs for 495 steps with 19652 atoms

Performance: 1.044 ns/day, 22.989 hours/ns, 12.083 timesteps/s
99.9% CPU use with 2 MPI tasks x no OpenMP threads

MPI task timing breakdown:
Section |  min time  |  avg time  |  max time  |%varavg| %total
---------------------------------------------------------------
Pair    | 21.205     | 21.494     | 21.782     |   6.2 | 52.47
Neigh   | 17.232     | 17.685     | 18.139     |  10.8 | 43.17
Comm    | 1.068      | 1.2418     | 1.4156     |  15.6 |  3.03
Output  | 9.3222e-05 | 0.00015759 | 0.00022197 |   0.0 |  0.00
Modify  | 0.42224    | 0.42999    | 0.43774    |   1.2 |  1.05
Other   |            | 0.1148     |            |       |  0.28

Nlocal:    9826 ave 9830 max 9822 min
Histogram: 1 0 0 0 0 0 0 0 0 1
Nghost:    12385.5 ave 12404 max 12367 min
Histogram: 1 0 0 0 0 0 0 0 0 1
Neighs:    672150 ave 672588 max 671713 min
Histogram: 1 0 0 0 0 0 0 0 0 1

Total # of neighbors = 1344301
Ave neighs/atom = 68.4053
Neighbor list builds = 495
Dangerous builds not checked
Setting up Verlet run ...
  Unit style    : metal
  Current step  : 940495
  Time step     : 0.001
Per MPI rank memory allocation (min/avg/max) = 11.35 | 11.35 | 11.35 Mbytes
Step Temp Press TotEng PotEng Enthalpy 
  940495    176.04118    133.31223   -88443.908   -88891.069    -88413.35 
  960000    149.43735   -530.37098   -88584.595   -88964.179   -88706.151 
Loop time of 1635.03 on 2 procs for 19505 steps with 19652 atoms

Performance: 1.031 ns/day, 23.285 hours/ns, 11.929 timesteps/s
99.5% CPU use with 2 MPI tasks x no OpenMP threads

MPI task timing breakdown:
Section |  min time  |  avg time  |  max time  |%varavg| %total
---------------------------------------------------------------
Pair    | 854.58     | 856.56     | 858.54     |   6.8 | 52.39
Neigh   | 706.49     | 707.31     | 708.14     |   3.1 | 43.26
Comm    | 48.061     | 49.229     | 50.396     |  16.6 |  3.01
Output  | 0.03713    | 0.037154   | 0.037178   |   0.0 |  0.00
Modify  | 17.315     | 17.335     | 17.354     |   0.5 |  1.06
Other   |            | 4.553      |            |       |  0.28

Nlocal:    9826 ave 9836 max 9816 min
Histogram: 1 0 0 0 0 0 0 0 0 1
Nghost:    12381.5 ave 12404 max 12359 min
Histogram: 1 0 0 0 0 0 0 0 0 1
Neighs:    672342 ave 673262 max 671421 min
Histogram: 1 0 0 0 0 0 0 0 0 1

Total # of neighbors = 1344683
Ave neighs/atom = 68.4247
Neighbor list builds = 19505
Dangerous builds not checked
Setting up Verlet run ...
  Unit style    : metal
  Current step  : 960000
  Time step     : 0.001
Per MPI rank memory allocation (min/avg/max) = 11.35 | 11.35 | 11.35 Mbytes
Step Temp Press TotEng PotEng Enthalpy 
  960000    149.43735   -530.37098   -88584.595   -88964.179   -88706.151 
  960495    127.95373   -331.57528   -88704.263   -89029.277   -88780.198 
Loop time of 41.3137 on 2 procs for 495 steps with 19652 atoms

Performance: 1.035 ns/day, 23.184 hours/ns, 11.981 timesteps/s
99.7% CPU use with 2 MPI tasks x no OpenMP threads

MPI task timing breakdown:
Section |  min time  |  avg time  |  max time  |%varavg| %total
---------------------------------------------------------------
Pair    | 21.399     | 21.592     | 21.786     |   4.2 | 52.26
Neigh   | 17.634     | 17.732     | 17.83      |   2.3 | 42.92
Comm    | 1.3451     | 1.439      | 1.5329     |   7.8 |  3.48
Output  | 7.4148e-05 | 0.0001651  | 0.00025606 |   0.0 |  0.00
Modify  | 0.43603    | 0.43783    | 0.43964    |   0.3 |  1.06
Other   |            | 0.1125     |            |       |  0.27

Nlocal:    9826 ave 9834 max 9818 min
Histogram: 1 0 0 0 0 0 0 0 0 1
Nghost:    12381 ave 12404 max 12358 min
Histogram: 1 0 0 0 0 0 0 0 0 1
Neighs:    672812 ave 673719 max 671904 min
Histogram: 1 0 0 0 0 0 0 0 0 1

Total # of neighbors = 1345623
Ave neighs/atom = 68.4726
Neighbor list builds = 495
Dangerous builds not checked
Setting up Verlet run ...
  Unit style    : metal
  Current step  : 960495
  Time step     : 0.001
Per MPI rank memory allocation (min/avg/max) = 11.35 | 11.35 | 11.35 Mbytes
Step Temp Press TotEng PotEng Enthalpy 
  960495    127.95373   -331.57528   -88704.263   -89029.277   -88780.198 
  980000    100.48754    95.038556   -88848.229   -89103.476   -88826.486 
Loop time of 1622.53 on 2 procs for 19505 steps with 19652 atoms

Performance: 1.039 ns/day, 23.107 hours/ns, 12.021 timesteps/s
99.3% CPU use with 2 MPI tasks x no OpenMP threads

MPI task timing breakdown:
Section |  min time  |  avg time  |  max time  |%varavg| %total
---------------------------------------------------------------
Pair    | 848.36     | 848.92     | 849.48     |   1.9 | 52.32
Neigh   | 700.86     | 702.73     | 704.6      |   7.1 | 43.31
Comm    | 47.381     | 48.707     | 50.034     |  19.0 |  3.00
Output  | 0.032289   | 0.032369   | 0.032449   |   0.0 |  0.00
Modify  | 17.678     | 17.684     | 17.691     |   0.1 |  1.09
Other   |            | 4.458      |            |       |  0.27

Nlocal:    9826 ave 9834 max 9818 min
Histogram: 1 0 0 0 0 0 0 0 0 1
Nghost:    12380.5 ave 12403 max 12358 min
Histogram: 1 0 0 0 0 0 0 0 0 1
Neighs:    673505 ave 674548 max 672462 min
Histogram: 1 0 0 0 0 0 0 0 0 1

Total # of neighbors = 1347010
Ave neighs/atom = 68.5432
Neighbor list builds = 19505
Dangerous builds not checked
Total wall time: 23:18:46
