LAMMPS (12 Dec 2018)
Lattice spacing in x,y,z = 4 4 4
Created orthogonal box = (0 0 0) to (68 68 68)
  1 by 1 by 1 MPI processor grid
Created 19652 atoms
  Time spent = 0.00283408 secs
Setting atom values ...
  206 settings made for type/fraction
Neighbor list info ...
  update every 1 steps, delay 0 steps, check no
  max neighbors/atom: 2000, page size: 100000
  master list distance cutoff = 8.5
  ghost atom cutoff = 8.5
  binsize = 4.25, bins = 16 16 16
  1 neighbor lists, perpetual/occasional/extra = 1 0 0
  (1) pair eam/alloy, perpetual
      attributes: half, newton on
      pair build: half/bin/atomonly/newton
      stencil: half/bin/3d/newton
      bin: standard
Setting up Verlet run ...
  Unit style    : metal
  Current step  : 0
  Time step     : 0.001
Per MPI rank memory allocation (min/avg/max) = 18.19 | 18.19 | 18.19 Mbytes
Step Temp Press TotEng PotEng Enthalpy Volume 
       0          300    264566.39   -21465.716   -22227.744    30456.241       314432 
     667    165.04911    261880.29   -21465.508   -21884.748    29929.294       314432 
    1000    163.48396    261870.06   -21465.506    -21880.77    29927.288       314432 
Loop time of 126.522 on 1 procs for 1000 steps with 19652 atoms

Performance: 0.683 ns/day, 35.145 hours/ns, 7.904 timesteps/s
100.1% CPU use with 1 MPI tasks x no OpenMP threads

MPI task timing breakdown:
Section |  min time  |  avg time  |  max time  |%varavg| %total
---------------------------------------------------------------
Pair    | 74.567     | 74.567     | 74.567     |   0.0 | 58.94
Neigh   | 50.224     | 50.224     | 50.224     |   0.0 | 39.70
Comm    | 0.98808    | 0.98808    | 0.98808    |   0.0 |  0.78
Output  | 0.039361   | 0.039361   | 0.039361   |   0.0 |  0.03
Modify  | 0.39374    | 0.39374    | 0.39374    |   0.0 |  0.31
Other   |            | 0.309      |            |       |  0.24

Nlocal:    19652 ave 19652 max 19652 min
Histogram: 1 0 0 0 0 0 0 0 0 0
Nghost:    20102 ave 20102 max 20102 min
Histogram: 1 0 0 0 0 0 0 0 0 0
Neighs:    1.57001e+06 ave 1.57001e+06 max 1.57001e+06 min
Histogram: 1 0 0 0 0 0 0 0 0 0

Total # of neighbors = 1570011
Ave neighs/atom = 79.8906
Neighbor list builds = 1000
Dangerous builds not checked
Setting up Verlet run ...
  Unit style    : metal
  Current step  : 1000
  Time step     : 0.001
Per MPI rank memory allocation (min/avg/max) = 18.19 | 18.19 | 18.19 Mbytes
Step Temp Press TotEng PotEng Enthalpy Volume 
    1000    163.48396    261870.06   -21465.506    -21880.77    29927.288       314432 
    1334    158.95425    26200.244   -29150.969   -29554.727   -22249.677    422022.32 
    2000    270.16673    260.08533   -28726.544   -29412.792   -28652.911    453591.19 
Loop time of 104.506 on 1 procs for 1000 steps with 19652 atoms

Performance: 0.827 ns/day, 29.029 hours/ns, 9.569 timesteps/s
100.1% CPU use with 1 MPI tasks x no OpenMP threads

MPI task timing breakdown:
Section |  min time  |  avg time  |  max time  |%varavg| %total
---------------------------------------------------------------
Pair    | 56.655     | 56.655     | 56.655     |   0.0 | 54.21
Neigh   | 45.396     | 45.396     | 45.396     |   0.0 | 43.44
Comm    | 0.81639    | 0.81639    | 0.81639    |   0.0 |  0.78
Output  | 0.038829   | 0.038829   | 0.038829   |   0.0 |  0.04
Modify  | 1.3021     | 1.3021     | 1.3021     |   0.0 |  1.25
Other   |            | 0.2976     |            |       |  0.28

Nlocal:    19652 ave 19652 max 19652 min
Histogram: 1 0 0 0 0 0 0 0 0 0
Nghost:    14814 ave 14814 max 14814 min
Histogram: 1 0 0 0 0 0 0 0 0 0
Neighs:    1.12506e+06 ave 1.12506e+06 max 1.12506e+06 min
Histogram: 1 0 0 0 0 0 0 0 0 0

Total # of neighbors = 1125061
Ave neighs/atom = 57.2492
Neighbor list builds = 1000
Dangerous builds not checked
Setting up Verlet run ...
  Unit style    : metal
  Current step  : 2000
  Time step     : 0.001
Per MPI rank memory allocation (min/avg/max) = 18.2 | 18.2 | 18.2 Mbytes
Step Temp Press TotEng PotEng Enthalpy Volume 
    2000    270.16673    260.08533   -28726.544   -29412.792   -28652.911    453591.19 
    2001    270.08987    261.16425   -28726.537    -29412.59   -28652.599    453591.29 
    2668    378.52946   -324.46684   -28166.436   -29127.935   -28259.193    458024.18 
    3335    573.32625    183.42755   -27071.648   -28527.949   -27018.386    465227.11 
    4002    798.64197   -264.89236   -25742.379   -27771.003   -25821.197    476721.59 
    4669    987.49433    204.19225   -24447.312   -26955.638   -24385.093    488196.29 
    5336     1154.523    22.547572   -23037.044   -25969.638    -23029.94    504798.79 
    6003    1328.3431    451.93325   -21209.785   -24583.898   -21059.805    531704.47 
    6670    1542.0596   -14.740177   -19738.441   -23655.413   -19743.546    554904.68 
    7337    1720.5146   -261.83911    -18620.86   -22991.124   -18714.466    572765.91 
    8004     1920.181    124.42836   -17476.246    -22353.68   -17430.389    590466.63 
    8671    2070.6393    438.13435   -16419.436   -21679.049    -16252.33     611077.3 
    9338     2276.519    48.842891   -15257.351   -21039.917   -15237.998    634827.33 
   10000    2461.5547    106.11947   -13962.788   -20215.361   -13918.579    667448.99 
Loop time of 709.311 on 1 procs for 8000 steps with 19652 atoms

Performance: 0.974 ns/day, 24.629 hours/ns, 11.279 timesteps/s
100.1% CPU use with 1 MPI tasks x no OpenMP threads

MPI task timing breakdown:
Section |  min time  |  avg time  |  max time  |%varavg| %total
---------------------------------------------------------------
Pair    | 377.06     | 377.06     | 377.06     |   0.0 | 53.16
Neigh   | 311.82     | 311.82     | 311.82     |   0.0 | 43.96
Comm    | 6.7411     | 6.7411     | 6.7411     |   0.0 |  0.95
Output  | 0.45653    | 0.45653    | 0.45653    |   0.0 |  0.06
Modify  | 10.711     | 10.711     | 10.711     |   0.0 |  1.51
Other   |            | 2.518      |            |       |  0.35

Nlocal:    19652 ave 19652 max 19652 min
Histogram: 1 0 0 0 0 0 0 0 0 0
Nghost:    13810 ave 13810 max 13810 min
Histogram: 1 0 0 0 0 0 0 0 0 0
Neighs:    735975 ave 735975 max 735975 min
Histogram: 1 0 0 0 0 0 0 0 0 0

Total # of neighbors = 735975
Ave neighs/atom = 37.4504
Neighbor list builds = 8000
Dangerous builds not checked
Setting up Verlet run ...
  Unit style    : metal
  Current step  : 10000
  Time step     : 0.001
Per MPI rank memory allocation (min/avg/max) = 18.2 | 18.2 | 18.2 Mbytes
Step Temp Press TotEng PotEng Enthalpy Volume 
   10000    2461.5547    106.11947   -13962.788   -20215.361   -13918.579    667448.99 
   10005    2459.0499    164.39833    -13962.85   -20209.061   -13894.363     667449.3 
   10672    2457.0845   -362.32876   -13722.708   -19963.926   -13876.619     680576.5 
   11339    2462.9132     59.89103    -13661.17   -19917.194   -13635.671    682155.18 
   12006    2437.1581   -262.85224   -13836.073   -20026.676   -13947.383    678475.66 
   12673     2441.514    39.045542   -13868.699   -20070.367   -13852.225    676003.79 
   13340    2414.9114   -84.221971   -13821.072   -19955.167   -13856.873       681067 
   14007    2457.6992    117.26439   -13643.987   -19886.767   -13594.115    681396.24 
   14674    2452.4121    59.286069   -13854.146   -20083.496   -13829.189    674461.68 
   15341    2453.2747   -239.59188   -13710.942   -19942.483   -13812.768    680920.04 
   16008    2419.7947   -404.96121   -13692.747   -19839.246   -13866.232    686370.66 
   16675    2459.4061    154.43887   -13761.256   -20008.371   -13695.947    677524.65 
   17342    2437.6062   -378.10462   -13841.002   -20032.744   -14001.639    680679.16 
   18009    2457.2362   -57.273079   -13677.207    -19918.81   -13701.652    683851.25 
   18676     2443.217    82.607468   -13836.207     -20042.2   -13801.307     676887.3 
   19343    2457.1613   -281.59672   -13776.445   -20017.858   -13895.826       679231 
   20010    2438.6715   -340.21661   -13758.748   -19953.196   -13903.483    681597.26 
   20677    2437.1963    136.94339   -13810.802   -20001.502   -13752.983    676449.74 
   21344    2472.6416    150.24098   -13795.761   -20076.496   -13732.454    675111.52 
   22011    2436.2206   -555.45421   -13781.236   -19969.458   -14017.594    681761.93 
   22678    2448.6265    82.151983    -13815.73   -20035.465   -13781.051    676343.03 
   23345    2447.2738   -193.45549    -13670.56   -19886.859   -13753.276    685046.43 
   24012    2452.8413   -133.56319   -13730.632   -19961.073   -13787.442    681469.24 
   24679    2463.8224    388.72327   -13764.008   -20022.342   -13599.974    676090.33 
   25346    2451.4533   -43.932812   -13698.084   -19924.998   -13716.766    681316.52 
   26013    2454.4318   -250.45335   -13795.962   -20030.443   -13902.108    679027.38 
   26680    2456.1268   -183.23218   -13626.701   -19865.487   -13705.024    684846.88 
   27347    2445.0352   -34.941964   -13816.647   -20027.259   -13831.443    678421.16 
   28014    2448.7621      456.553   -13863.829   -20083.908   -13672.096    672849.22 
   28681    2430.3778    75.114672   -13738.082   -19911.464   -13706.243    679135.65 
   29348    2436.0082    -657.6172   -13750.332   -19938.015   -14031.092    684025.64 
   30015    2454.4018    108.49375   -13876.859   -20111.263    -13831.28    673093.34 
   30682     2450.626   -111.66023   -13818.221   -20043.034   -13865.311    675682.55 
   31349    2469.4829   -56.305693   -13606.309   -19879.021   -13630.402    685550.82 
   32016    2444.8452     99.86438   -13749.202   -19959.331   -13706.842    679599.09 
   32683     2471.336    323.63494   -13774.812   -20052.231    -13638.62    674227.03 
   33350    2458.2086   -162.46304   -13829.917   -20073.991   -13898.536     676704.3 
   34017    2437.3609    141.91087   -13804.889   -19996.008   -13744.822     678161.2 
   34684    2453.4252   -76.938714   -13676.605   -19908.528   -13709.355    681991.36 
   35351    2440.5326   -193.03085    -13783.92   -19983.095   -13865.709    678855.98 
   36018    2442.2721    281.08824   -13853.645   -20057.238   -13735.512    673345.08 
   36685    2437.2617   -237.48779   -13730.569   -19921.435   -13831.703    682291.61 
   37352    2446.2065    25.551691   -13752.292    -19965.88   -13741.463    679006.92 
   38019    2437.2371    119.54696     -13959.6   -20150.405   -13909.582    670353.42 
   38686    2443.3914    108.03206   -13748.834    -19955.27   -13703.074     678645.9 
   39353    2443.5791   -394.70872   -13712.919   -19919.833   -13881.695    685084.43 
   40000    2470.7401    287.35398   -13780.274   -20056.179   -13659.309    674458.08 
Loop time of 2339.06 on 1 procs for 30000 steps with 19652 atoms

Performance: 1.108 ns/day, 21.658 hours/ns, 12.826 timesteps/s
100.1% CPU use with 1 MPI tasks x no OpenMP threads

MPI task timing breakdown:
Section |  min time  |  avg time  |  max time  |%varavg| %total
---------------------------------------------------------------
Pair    | 1172.8     | 1172.8     | 1172.8     |   0.0 | 50.14
Neigh   | 1088.7     | 1088.7     | 1088.7     |   0.0 | 46.54
Comm    | 25.845     | 25.845     | 25.845     |   0.0 |  1.10
Output  | 1.7934     | 1.7934     | 1.7934     |   0.0 |  0.08
Modify  | 40.36      | 40.36      | 40.36      |   0.0 |  1.73
Other   |            | 9.549      |            |       |  0.41

Nlocal:    19652 ave 19652 max 19652 min
Histogram: 1 0 0 0 0 0 0 0 0 0
Nghost:    13766 ave 13766 max 13766 min
Histogram: 1 0 0 0 0 0 0 0 0 0
Neighs:    728692 ave 728692 max 728692 min
Histogram: 1 0 0 0 0 0 0 0 0 0

Total # of neighbors = 728692
Ave neighs/atom = 37.0798
Neighbor list builds = 30000
Dangerous builds not checked
Setting up Verlet run ...
  Unit style    : metal
  Current step  : 40000
  Time step     : 0.001
Per MPI rank memory allocation (min/avg/max) = 18.2 | 18.2 | 18.2 Mbytes
Step Temp Press TotEng PotEng Enthalpy Volume 
   40000    2470.7401    287.35398   -13780.274   -20056.179   -13659.309    674458.08 
   40020    2471.0957     333.0712   -13782.103   -20058.911   -13641.889    674470.94 
   40495    2403.7229   -508.46706   -14002.528   -20108.203   -14217.047    675949.18 
Loop time of 38.4652 on 1 procs for 495 steps with 19652 atoms

Performance: 1.112 ns/day, 21.585 hours/ns, 12.869 timesteps/s
100.1% CPU use with 1 MPI tasks x no OpenMP threads

MPI task timing breakdown:
Section |  min time  |  avg time  |  max time  |%varavg| %total
---------------------------------------------------------------
Pair    | 19.486     | 19.486     | 19.486     |   0.0 | 50.66
Neigh   | 17.674     | 17.674     | 17.674     |   0.0 | 45.95
Comm    | 0.42333    | 0.42333    | 0.42333    |   0.0 |  1.10
Output  | 0.040755   | 0.040755   | 0.040755   |   0.0 |  0.11
Modify  | 0.67348    | 0.67348    | 0.67348    |   0.0 |  1.75
Other   |            | 0.1676     |            |       |  0.44

Nlocal:    19652 ave 19652 max 19652 min
Histogram: 1 0 0 0 0 0 0 0 0 0
Nghost:    13897 ave 13897 max 13897 min
Histogram: 1 0 0 0 0 0 0 0 0 0
Neighs:    727268 ave 727268 max 727268 min
Histogram: 1 0 0 0 0 0 0 0 0 0

Total # of neighbors = 727268
Ave neighs/atom = 37.0073
Neighbor list builds = 495
Dangerous builds not checked
Setting up Verlet run ...
  Unit style    : metal
  Current step  : 40495
  Time step     : 0.001
Per MPI rank memory allocation (min/avg/max) = 18.2 | 18.2 | 18.2 Mbytes
Step Temp Press TotEng PotEng Enthalpy Volume 
   40495    2403.7229   -508.46706   -14002.528   -20108.203   -14217.047    675949.18 
   40667    2412.8144   -8.2402062   -13942.761   -20071.529   -13946.233     675089.5 
Loop time of 13.0351 on 1 procs for 172 steps with 19652 atoms

Performance: 1.140 ns/day, 21.052 hours/ns, 13.195 timesteps/s
100.1% CPU use with 1 MPI tasks x no OpenMP threads

MPI task timing breakdown:
Section |  min time  |  avg time  |  max time  |%varavg| %total
---------------------------------------------------------------
Pair    | 6.5904     | 6.5904     | 6.5904     |   0.0 | 50.56
Neigh   | 6.0091     | 6.0091     | 6.0091     |   0.0 | 46.10
Comm    | 0.14319    | 0.14319    | 0.14319    |   0.0 |  1.10
Output  | 0.0001421  | 0.0001421  | 0.0001421  |   0.0 |  0.00
Modify  | 0.23484    | 0.23484    | 0.23484    |   0.0 |  1.80
Other   |            | 0.05739    |            |       |  0.44

Nlocal:    19652 ave 19652 max 19652 min
Histogram: 1 0 0 0 0 0 0 0 0 0
Nghost:    13898 ave 13898 max 13898 min
Histogram: 1 0 0 0 0 0 0 0 0 0
Neighs:    728250 ave 728250 max 728250 min
Histogram: 1 0 0 0 0 0 0 0 0 0

Total # of neighbors = 728250
Ave neighs/atom = 37.0573
Neighbor list builds = 172
Dangerous builds not checked
Setting up Verlet run ...
  Unit style    : metal
  Current step  : 40667
  Time step     : 0.001
Per MPI rank memory allocation (min/avg/max) = 18.2 | 18.2 | 18.2 Mbytes
Step Temp Press TotEng PotEng Enthalpy Volume 
   40667    2412.8144   -8.2402062   -13942.761   -20071.529   -13946.233     675089.5 
   40687    2420.8978    17.285006   -13944.592   -20093.893   -13937.309    675089.39 
   41162    2367.8504   -76.996295   -14268.762   -20283.318   -14300.832    667331.46 
Loop time of 37.9608 on 1 procs for 495 steps with 19652 atoms

Performance: 1.127 ns/day, 21.302 hours/ns, 13.040 timesteps/s
100.1% CPU use with 1 MPI tasks x no OpenMP threads

MPI task timing breakdown:
Section |  min time  |  avg time  |  max time  |%varavg| %total
---------------------------------------------------------------
Pair    | 19.258     | 19.258     | 19.258     |   0.0 | 50.73
Neigh   | 17.411     | 17.411     | 17.411     |   0.0 | 45.86
Comm    | 0.41493    | 0.41493    | 0.41493    |   0.0 |  1.09
Output  | 0.040643   | 0.040643   | 0.040643   |   0.0 |  0.11
Modify  | 0.67089    | 0.67089    | 0.67089    |   0.0 |  1.77
Other   |            | 0.1661     |            |       |  0.44

Nlocal:    19652 ave 19652 max 19652 min
Histogram: 1 0 0 0 0 0 0 0 0 0
Nghost:    13963 ave 13963 max 13963 min
Histogram: 1 0 0 0 0 0 0 0 0 0
Neighs:    736385 ave 736385 max 736385 min
Histogram: 1 0 0 0 0 0 0 0 0 0

Total # of neighbors = 736385
Ave neighs/atom = 37.4712
Neighbor list builds = 495
Dangerous builds not checked
Setting up Verlet run ...
  Unit style    : metal
  Current step  : 41162
  Time step     : 0.001
Per MPI rank memory allocation (min/avg/max) = 18.2 | 18.2 | 18.2 Mbytes
Step Temp Press TotEng PotEng Enthalpy Volume 
   41162    2367.8504   -76.996295   -14268.762   -20283.318   -14300.832    667331.46 
   41334     2331.582   -599.51478   -14361.589    -20284.02   -14610.997    666531.59 
Loop time of 13.1026 on 1 procs for 172 steps with 19652 atoms

Performance: 1.134 ns/day, 21.161 hours/ns, 13.127 timesteps/s
100.1% CPU use with 1 MPI tasks x no OpenMP threads

MPI task timing breakdown:
Section |  min time  |  avg time  |  max time  |%varavg| %total
---------------------------------------------------------------
Pair    | 6.6655     | 6.6655     | 6.6655     |   0.0 | 50.87
Neigh   | 6.0051     | 6.0051     | 6.0051     |   0.0 | 45.83
Comm    | 0.14221    | 0.14221    | 0.14221    |   0.0 |  1.09
Output  | 0.00013208 | 0.00013208 | 0.00013208 |   0.0 |  0.00
Modify  | 0.23273    | 0.23273    | 0.23273    |   0.0 |  1.78
Other   |            | 0.05695    |            |       |  0.43

Nlocal:    19652 ave 19652 max 19652 min
Histogram: 1 0 0 0 0 0 0 0 0 0
Nghost:    13999 ave 13999 max 13999 min
Histogram: 1 0 0 0 0 0 0 0 0 0
Neighs:    737088 ave 737088 max 737088 min
Histogram: 1 0 0 0 0 0 0 0 0 0

Total # of neighbors = 737088
Ave neighs/atom = 37.507
Neighbor list builds = 172
Dangerous builds not checked
Setting up Verlet run ...
  Unit style    : metal
  Current step  : 41334
  Time step     : 0.001
Per MPI rank memory allocation (min/avg/max) = 18.2 | 18.2 | 18.2 Mbytes
Step Temp Press TotEng PotEng Enthalpy Volume 
   41334     2331.582   -599.51478   -14361.589    -20284.02   -14610.997    666531.59 
   41354    2335.8998    -559.7014    -14359.73   -20293.128   -14592.566     666507.8 
   41829    2321.9975    -275.5996   -14661.824   -20559.909   -14774.732     656381.1 
Loop time of 38.7797 on 1 procs for 495 steps with 19652 atoms

Performance: 1.103 ns/day, 21.762 hours/ns, 12.764 timesteps/s
100.1% CPU use with 1 MPI tasks x no OpenMP threads

MPI task timing breakdown:
Section |  min time  |  avg time  |  max time  |%varavg| %total
---------------------------------------------------------------
Pair    | 19.79      | 19.79      | 19.79      |   0.0 | 51.03
Neigh   | 17.673     | 17.673     | 17.673     |   0.0 | 45.57
Comm    | 0.43044    | 0.43044    | 0.43044    |   0.0 |  1.11
Output  | 0.04055    | 0.04055    | 0.04055    |   0.0 |  0.10
Modify  | 0.67756    | 0.67756    | 0.67756    |   0.0 |  1.75
Other   |            | 0.1674     |            |       |  0.43

Nlocal:    19652 ave 19652 max 19652 min
Histogram: 1 0 0 0 0 0 0 0 0 0
Nghost:    14033 ave 14033 max 14033 min
Histogram: 1 0 0 0 0 0 0 0 0 0
Neighs:    748252 ave 748252 max 748252 min
Histogram: 1 0 0 0 0 0 0 0 0 0

Total # of neighbors = 748252
Ave neighs/atom = 38.0751
Neighbor list builds = 495
Dangerous builds not checked
Setting up Verlet run ...
  Unit style    : metal
  Current step  : 41829
  Time step     : 0.001
Per MPI rank memory allocation (min/avg/max) = 18.2 | 18.2 | 18.2 Mbytes
Step Temp Press TotEng PotEng Enthalpy Volume 
   41829    2321.9975    -275.5996   -14661.824   -20559.909   -14774.732     656381.1 
   42001    2292.8989    -364.7504   -14748.634   -20572.806   -14897.838     655382.2 
Loop time of 13.1183 on 1 procs for 172 steps with 19652 atoms

Performance: 1.133 ns/day, 21.186 hours/ns, 13.111 timesteps/s
100.1% CPU use with 1 MPI tasks x no OpenMP threads

MPI task timing breakdown:
Section |  min time  |  avg time  |  max time  |%varavg| %total
---------------------------------------------------------------
Pair    | 6.7044     | 6.7044     | 6.7044     |   0.0 | 51.11
Neigh   | 5.9945     | 5.9945     | 5.9945     |   0.0 | 45.70
Comm    | 0.13519    | 0.13519    | 0.13519    |   0.0 |  1.03
Output  | 0.00013399 | 0.00013399 | 0.00013399 |   0.0 |  0.00
Modify  | 0.22742    | 0.22742    | 0.22742    |   0.0 |  1.73
Other   |            | 0.05668    |            |       |  0.43

Nlocal:    19652 ave 19652 max 19652 min
Histogram: 1 0 0 0 0 0 0 0 0 0
Nghost:    14008 ave 14008 max 14008 min
Histogram: 1 0 0 0 0 0 0 0 0 0
Neighs:    749722 ave 749722 max 749722 min
Histogram: 1 0 0 0 0 0 0 0 0 0

Total # of neighbors = 749722
Ave neighs/atom = 38.1499
Neighbor list builds = 172
Dangerous builds not checked
Setting up Verlet run ...
  Unit style    : metal
  Current step  : 42001
  Time step     : 0.001
Per MPI rank memory allocation (min/avg/max) = 18.2 | 18.2 | 18.2 Mbytes
Step Temp Press TotEng PotEng Enthalpy Volume 
   42001    2292.8989    -364.7504   -14748.634   -20572.806   -14897.838     655382.2 
   42021    2308.9899   -531.34475   -14748.615    -20613.66    -14965.96    655364.34 
   42496    2277.2146   -409.48621    -15004.39   -20788.723   -15169.602    646414.87 
Loop time of 38.6779 on 1 procs for 495 steps with 19652 atoms

Performance: 1.106 ns/day, 21.705 hours/ns, 12.798 timesteps/s
100.1% CPU use with 1 MPI tasks x no OpenMP threads

MPI task timing breakdown:
Section |  min time  |  avg time  |  max time  |%varavg| %total
---------------------------------------------------------------
Pair    | 19.823     | 19.823     | 19.823     |   0.0 | 51.25
Neigh   | 17.594     | 17.594     | 17.594     |   0.0 | 45.49
Comm    | 0.40049    | 0.40049    | 0.40049    |   0.0 |  1.04
Output  | 0.039542   | 0.039542   | 0.039542   |   0.0 |  0.10
Modify  | 0.65688    | 0.65688    | 0.65688    |   0.0 |  1.70
Other   |            | 0.1643     |            |       |  0.42

Nlocal:    19652 ave 19652 max 19652 min
Histogram: 1 0 0 0 0 0 0 0 0 0
Nghost:    14136 ave 14136 max 14136 min
Histogram: 1 0 0 0 0 0 0 0 0 0
Neighs:    759217 ave 759217 max 759217 min
Histogram: 1 0 0 0 0 0 0 0 0 0

Total # of neighbors = 759217
Ave neighs/atom = 38.6331
Neighbor list builds = 495
Dangerous builds not checked
Setting up Verlet run ...
  Unit style    : metal
  Current step  : 42496
  Time step     : 0.001
Per MPI rank memory allocation (min/avg/max) = 18.2 | 18.2 | 18.2 Mbytes
Step Temp Press TotEng PotEng Enthalpy Volume 
   42496    2277.2146   -409.48621    -15004.39   -20788.723   -15169.602    646414.87 
   42668    2254.3711   -260.82766   -15091.696   -20818.004   -15196.769    645426.29 
Loop time of 13.2332 on 1 procs for 172 steps with 19652 atoms

Performance: 1.123 ns/day, 21.371 hours/ns, 12.998 timesteps/s
100.1% CPU use with 1 MPI tasks x no OpenMP threads

MPI task timing breakdown:
Section |  min time  |  avg time  |  max time  |%varavg| %total
---------------------------------------------------------------
Pair    | 6.7976     | 6.7976     | 6.7976     |   0.0 | 51.37
Neigh   | 6.014      | 6.014      | 6.014      |   0.0 | 45.45
Comm    | 0.13603    | 0.13603    | 0.13603    |   0.0 |  1.03
Output  | 0.00012994 | 0.00012994 | 0.00012994 |   0.0 |  0.00
Modify  | 0.22847    | 0.22847    | 0.22847    |   0.0 |  1.73
Other   |            | 0.057      |            |       |  0.43

Nlocal:    19652 ave 19652 max 19652 min
Histogram: 1 0 0 0 0 0 0 0 0 0
Nghost:    14115 ave 14115 max 14115 min
Histogram: 1 0 0 0 0 0 0 0 0 0
Neighs:    760976 ave 760976 max 760976 min
Histogram: 1 0 0 0 0 0 0 0 0 0

Total # of neighbors = 760976
Ave neighs/atom = 38.7226
Neighbor list builds = 172
Dangerous builds not checked
Setting up Verlet run ...
  Unit style    : metal
  Current step  : 42668
  Time step     : 0.001
Per MPI rank memory allocation (min/avg/max) = 18.2 | 18.2 | 18.2 Mbytes
Step Temp Press TotEng PotEng Enthalpy Volume 
   42668    2254.3711   -260.82766   -15091.696   -20818.004   -15196.769    645426.29 
   42688    2238.1637   -156.54214   -15091.796   -20776.936   -15154.857    645416.74 
   43163     2214.239    42.119175   -15347.944   -20972.313   -15331.161    638414.17 
Loop time of 38.5201 on 1 procs for 495 steps with 19652 atoms

Performance: 1.110 ns/day, 21.616 hours/ns, 12.850 timesteps/s
100.1% CPU use with 1 MPI tasks x no OpenMP threads

MPI task timing breakdown:
Section |  min time  |  avg time  |  max time  |%varavg| %total
---------------------------------------------------------------
Pair    | 19.8       | 19.8       | 19.8       |   0.0 | 51.40
Neigh   | 17.458     | 17.458     | 17.458     |   0.0 | 45.32
Comm    | 0.3988     | 0.3988     | 0.3988     |   0.0 |  1.04
Output  | 0.039782   | 0.039782   | 0.039782   |   0.0 |  0.10
Modify  | 0.65908    | 0.65908    | 0.65908    |   0.0 |  1.71
Other   |            | 0.1641     |            |       |  0.43

Nlocal:    19652 ave 19652 max 19652 min
Histogram: 1 0 0 0 0 0 0 0 0 0
Nghost:    14196 ave 14196 max 14196 min
Histogram: 1 0 0 0 0 0 0 0 0 0
Neighs:    769611 ave 769611 max 769611 min
Histogram: 1 0 0 0 0 0 0 0 0 0

Total # of neighbors = 769611
Ave neighs/atom = 39.162
Neighbor list builds = 495
Dangerous builds not checked
Setting up Verlet run ...
  Unit style    : metal
  Current step  : 43163
  Time step     : 0.001
Per MPI rank memory allocation (min/avg/max) = 18.2 | 18.2 | 18.2 Mbytes
Step Temp Press TotEng PotEng Enthalpy Volume 
   43163     2214.239    42.119175   -15347.944   -20972.313   -15331.161    638414.17 
   43335    2187.3158   -526.86495   -15437.408    -20993.39    -15647.11    637695.33 
Loop time of 13.631 on 1 procs for 172 steps with 19652 atoms

Performance: 1.090 ns/day, 22.014 hours/ns, 12.618 timesteps/s
100.1% CPU use with 1 MPI tasks x no OpenMP threads

MPI task timing breakdown:
Section |  min time  |  avg time  |  max time  |%varavg| %total
---------------------------------------------------------------
Pair    | 7.0496     | 7.0496     | 7.0496     |   0.0 | 51.72
Neigh   | 6.1113     | 6.1113     | 6.1113     |   0.0 | 44.83
Comm    | 0.16257    | 0.16257    | 0.16257    |   0.0 |  1.19
Output  | 0.00013185 | 0.00013185 | 0.00013185 |   0.0 |  0.00
Modify  | 0.2444     | 0.2444     | 0.2444     |   0.0 |  1.79
Other   |            | 0.06293    |            |       |  0.46

Nlocal:    19652 ave 19652 max 19652 min
Histogram: 1 0 0 0 0 0 0 0 0 0
Nghost:    14172 ave 14172 max 14172 min
Histogram: 1 0 0 0 0 0 0 0 0 0
Neighs:    769937 ave 769937 max 769937 min
Histogram: 1 0 0 0 0 0 0 0 0 0

Total # of neighbors = 769937
Ave neighs/atom = 39.1786
Neighbor list builds = 172
Dangerous builds not checked
Setting up Verlet run ...
  Unit style    : metal
  Current step  : 43335
  Time step     : 0.001
Per MPI rank memory allocation (min/avg/max) = 18.2 | 18.2 | 18.2 Mbytes
Step Temp Press TotEng PotEng Enthalpy Volume 
   43335    2187.3158   -526.86495   -15437.408    -20993.39    -15647.11    637695.33 
   43355    2199.9403   -604.42707   -15436.711    -21024.76   -15677.276     637672.3 
   43830     2185.389    58.802181   -15725.142   -21276.229   -15702.096    627941.01 
Loop time of 39.5998 on 1 procs for 495 steps with 19652 atoms

Performance: 1.080 ns/day, 22.222 hours/ns, 12.500 timesteps/s
100.1% CPU use with 1 MPI tasks x no OpenMP threads

MPI task timing breakdown:
Section |  min time  |  avg time  |  max time  |%varavg| %total
---------------------------------------------------------------
Pair    | 20.524     | 20.524     | 20.524     |   0.0 | 51.83
Neigh   | 17.775     | 17.775     | 17.775     |   0.0 | 44.89
Comm    | 0.41893    | 0.41893    | 0.41893    |   0.0 |  1.06
Output  | 0.040078   | 0.040078   | 0.040078   |   0.0 |  0.10
Modify  | 0.67014    | 0.67014    | 0.67014    |   0.0 |  1.69
Other   |            | 0.1712     |            |       |  0.43

Nlocal:    19652 ave 19652 max 19652 min
Histogram: 1 0 0 0 0 0 0 0 0 0
Nghost:    14276 ave 14276 max 14276 min
Histogram: 1 0 0 0 0 0 0 0 0 0
Neighs:    782103 ave 782103 max 782103 min
Histogram: 1 0 0 0 0 0 0 0 0 0

Total # of neighbors = 782103
Ave neighs/atom = 39.7976
Neighbor list builds = 495
Dangerous builds not checked
Setting up Verlet run ...
  Unit style    : metal
  Current step  : 43830
  Time step     : 0.001
Per MPI rank memory allocation (min/avg/max) = 18.2 | 18.2 | 18.2 Mbytes
Step Temp Press TotEng PotEng Enthalpy Volume 
   43830     2185.389    58.802181   -15725.142   -21276.229   -15702.096    627941.01 
   44002    2150.8401    -439.5821    -15827.23    -21290.56    -15999.41    627556.31 
Loop time of 13.5078 on 1 procs for 172 steps with 19652 atoms

Performance: 1.100 ns/day, 21.815 hours/ns, 12.733 timesteps/s
100.1% CPU use with 1 MPI tasks x no OpenMP threads

MPI task timing breakdown:
Section |  min time  |  avg time  |  max time  |%varavg| %total
---------------------------------------------------------------
Pair    | 7.015      | 7.015      | 7.015      |   0.0 | 51.93
Neigh   | 6.0602     | 6.0602     | 6.0602     |   0.0 | 44.86
Comm    | 0.14128    | 0.14128    | 0.14128    |   0.0 |  1.05
Output  | 0.00012898 | 0.00012898 | 0.00012898 |   0.0 |  0.00
Modify  | 0.23199    | 0.23199    | 0.23199    |   0.0 |  1.72
Other   |            | 0.05929    |            |       |  0.44

Nlocal:    19652 ave 19652 max 19652 min
Histogram: 1 0 0 0 0 0 0 0 0 0
Nghost:    14231 ave 14231 max 14231 min
Histogram: 1 0 0 0 0 0 0 0 0 0
Neighs:    782154 ave 782154 max 782154 min
Histogram: 1 0 0 0 0 0 0 0 0 0

Total # of neighbors = 782154
Ave neighs/atom = 39.8002
Neighbor list builds = 172
Dangerous builds not checked
Setting up Verlet run ...
  Unit style    : metal
  Current step  : 44002
  Time step     : 0.001
Per MPI rank memory allocation (min/avg/max) = 18.2 | 18.2 | 18.2 Mbytes
Step Temp Press TotEng PotEng Enthalpy Volume 
   44002    2150.8401    -439.5821    -15827.23    -21290.56    -15999.41    627556.31 
   44022     2143.987   -367.45038    -15826.98   -21272.903   -15970.903    627540.38 
   44497    2123.7094   -76.133625   -16057.841   -21452.256   -16087.358    621161.22 
Loop time of 39.8299 on 1 procs for 495 steps with 19652 atoms

Performance: 1.074 ns/day, 22.351 hours/ns, 12.428 timesteps/s
100.1% CPU use with 1 MPI tasks x no OpenMP threads

MPI task timing breakdown:
Section |  min time  |  avg time  |  max time  |%varavg| %total
---------------------------------------------------------------
Pair    | 20.74      | 20.74      | 20.74      |   0.0 | 52.07
Neigh   | 17.795     | 17.795     | 17.795     |   0.0 | 44.68
Comm    | 0.41741    | 0.41741    | 0.41741    |   0.0 |  1.05
Output  | 0.039924   | 0.039924   | 0.039924   |   0.0 |  0.10
Modify  | 0.66716    | 0.66716    | 0.66716    |   0.0 |  1.68
Other   |            | 0.1704     |            |       |  0.43

Nlocal:    19652 ave 19652 max 19652 min
Histogram: 1 0 0 0 0 0 0 0 0 0
Nghost:    14427 ave 14427 max 14427 min
Histogram: 1 0 0 0 0 0 0 0 0 0
Neighs:    790772 ave 790772 max 790772 min
Histogram: 1 0 0 0 0 0 0 0 0 0

Total # of neighbors = 790772
Ave neighs/atom = 40.2388
Neighbor list builds = 495
Dangerous builds not checked
Setting up Verlet run ...
  Unit style    : metal
  Current step  : 44497
  Time step     : 0.001
Per MPI rank memory allocation (min/avg/max) = 18.2 | 18.2 | 18.2 Mbytes
Step Temp Press TotEng PotEng Enthalpy Volume 
   44497    2123.7094   -76.133625   -16057.841   -21452.256   -16087.358    621161.22 
   44669    2087.3246   -280.30925   -16152.558   -21454.553   -16261.174    620818.59 
Loop time of 14.3408 on 1 procs for 172 steps with 19652 atoms

Performance: 1.036 ns/day, 23.160 hours/ns, 11.994 timesteps/s
100.1% CPU use with 1 MPI tasks x no OpenMP threads

MPI task timing breakdown:
Section |  min time  |  avg time  |  max time  |%varavg| %total
---------------------------------------------------------------
Pair    | 7.4872     | 7.4872     | 7.4872     |   0.0 | 52.21
Neigh   | 6.3852     | 6.3852     | 6.3852     |   0.0 | 44.52
Comm    | 0.15734    | 0.15734    | 0.15734    |   0.0 |  1.10
Output  | 0.0001719  | 0.0001719  | 0.0001719  |   0.0 |  0.00
Modify  | 0.24861    | 0.24861    | 0.24861    |   0.0 |  1.73
Other   |            | 0.06224    |            |       |  0.43

Nlocal:    19652 ave 19652 max 19652 min
Histogram: 1 0 0 0 0 0 0 0 0 0
Nghost:    14427 ave 14427 max 14427 min
Histogram: 1 0 0 0 0 0 0 0 0 0
Neighs:    790803 ave 790803 max 790803 min
Histogram: 1 0 0 0 0 0 0 0 0 0

Total # of neighbors = 790803
Ave neighs/atom = 40.2403
Neighbor list builds = 172
Dangerous builds not checked
Setting up Verlet run ...
  Unit style    : metal
  Current step  : 44669
  Time step     : 0.001
Per MPI rank memory allocation (min/avg/max) = 18.2 | 18.2 | 18.2 Mbytes
Step Temp Press TotEng PotEng Enthalpy Volume 
   44669    2087.3246   -280.30925   -16152.558   -21454.553   -16261.174    620818.59 
   44689    2088.9279   -346.80121   -16151.317   -21457.384   -16285.694    620806.21 
   45164    2070.1894   -103.01543   -16392.932   -21651.401   -16432.405    613918.24 
Loop time of 39.9241 on 1 procs for 495 steps with 19652 atoms

Performance: 1.071 ns/day, 22.404 hours/ns, 12.399 timesteps/s
100.1% CPU use with 1 MPI tasks x no OpenMP threads

MPI task timing breakdown:
Section |  min time  |  avg time  |  max time  |%varavg| %total
---------------------------------------------------------------
Pair    | 20.846     | 20.846     | 20.846     |   0.0 | 52.22
Neigh   | 17.768     | 17.768     | 17.768     |   0.0 | 44.51
Comm    | 0.42039    | 0.42039    | 0.42039    |   0.0 |  1.05
Output  | 0.040427   | 0.040427   | 0.040427   |   0.0 |  0.10
Modify  | 0.67565    | 0.67565    | 0.67565    |   0.0 |  1.69
Other   |            | 0.1729     |            |       |  0.43

Nlocal:    19652 ave 19652 max 19652 min
Histogram: 1 0 0 0 0 0 0 0 0 0
Nghost:    14342 ave 14342 max 14342 min
Histogram: 1 0 0 0 0 0 0 0 0 0
Neighs:    799628 ave 799628 max 799628 min
Histogram: 1 0 0 0 0 0 0 0 0 0

Total # of neighbors = 799628
Ave neighs/atom = 40.6894
Neighbor list builds = 495
Dangerous builds not checked
Setting up Verlet run ...
  Unit style    : metal
  Current step  : 45164
  Time step     : 0.001
Per MPI rank memory allocation (min/avg/max) = 18.22 | 18.22 | 18.22 Mbytes
Step Temp Press TotEng PotEng Enthalpy Volume 
   45164    2070.1894   -103.01543   -16392.932   -21651.401   -16432.405    613918.24 
   45336    2061.1286   -785.35112   -16479.879   -21715.333   -16780.419     613124.1 
Loop time of 14.0366 on 1 procs for 172 steps with 19652 atoms

Performance: 1.059 ns/day, 22.669 hours/ns, 12.254 timesteps/s
100.1% CPU use with 1 MPI tasks x no OpenMP threads

MPI task timing breakdown:
Section |  min time  |  avg time  |  max time  |%varavg| %total
---------------------------------------------------------------
Pair    | 7.142      | 7.142      | 7.142      |   0.0 | 50.88
Neigh   | 6.4565     | 6.4565     | 6.4565     |   0.0 | 46.00
Comm    | 0.14512    | 0.14512    | 0.14512    |   0.0 |  1.03
Output  | 0.00012898 | 0.00012898 | 0.00012898 |   0.0 |  0.00
Modify  | 0.2332     | 0.2332     | 0.2332     |   0.0 |  1.66
Other   |            | 0.05971    |            |       |  0.43

Nlocal:    19652 ave 19652 max 19652 min
Histogram: 1 0 0 0 0 0 0 0 0 0
Nghost:    14341 ave 14341 max 14341 min
Histogram: 1 0 0 0 0 0 0 0 0 0
Neighs:    800698 ave 800698 max 800698 min
Histogram: 1 0 0 0 0 0 0 0 0 0

Total # of neighbors = 800698
Ave neighs/atom = 40.7438
Neighbor list builds = 172
Dangerous builds not checked
Setting up Verlet run ...
  Unit style    : metal
  Current step  : 45336
  Time step     : 0.001
Per MPI rank memory allocation (min/avg/max) = 18.22 | 18.22 | 18.22 Mbytes
Step Temp Press TotEng PotEng Enthalpy Volume 
   45336    2061.1286   -785.35112   -16479.879   -21715.333   -16780.419     613124.1 
   45356    2071.7174   -787.28814   -16481.475   -21743.826    -16782.74    613091.75 
   45831    2006.0353    378.27762   -16738.904   -21834.416   -16595.857    605867.07 
Loop time of 41.1562 on 1 procs for 495 steps with 19652 atoms

Performance: 1.039 ns/day, 23.096 hours/ns, 12.027 timesteps/s
100.0% CPU use with 1 MPI tasks x no OpenMP threads

MPI task timing breakdown:
Section |  min time  |  avg time  |  max time  |%varavg| %total
---------------------------------------------------------------
Pair    | 20.876     | 20.876     | 20.876     |   0.0 | 50.72
Neigh   | 18.985     | 18.985     | 18.985     |   0.0 | 46.13
Comm    | 0.42171    | 0.42171    | 0.42171    |   0.0 |  1.02
Output  | 0.039909   | 0.039909   | 0.039909   |   0.0 |  0.10
Modify  | 0.67129    | 0.67129    | 0.67129    |   0.0 |  1.63
Other   |            | 0.1626     |            |       |  0.40

Nlocal:    19652 ave 19652 max 19652 min
Histogram: 1 0 0 0 0 0 0 0 0 0
Nghost:    14414 ave 14414 max 14414 min
Histogram: 1 0 0 0 0 0 0 0 0 0
Neighs:    810588 ave 810588 max 810588 min
Histogram: 1 0 0 0 0 0 0 0 0 0

Total # of neighbors = 810588
Ave neighs/atom = 41.2471
Neighbor list builds = 495
Dangerous builds not checked
Setting up Verlet run ...
  Unit style    : metal
  Current step  : 45831
  Time step     : 0.001
Per MPI rank memory allocation (min/avg/max) = 18.22 | 18.22 | 18.22 Mbytes
Step Temp Press TotEng PotEng Enthalpy Volume 
   45831    2006.0353    378.27762   -16738.904   -21834.416   -16595.857    605867.07 
   46003     1992.538   -291.86264    -16822.11   -21883.338   -16932.585    606450.72 
Loop time of 13.816 on 1 procs for 172 steps with 19652 atoms

Performance: 1.076 ns/day, 22.313 hours/ns, 12.449 timesteps/s
100.0% CPU use with 1 MPI tasks x no OpenMP threads

MPI task timing breakdown:
Section |  min time  |  avg time  |  max time  |%varavg| %total
---------------------------------------------------------------
Pair    | 6.9903     | 6.9903     | 6.9903     |   0.0 | 50.60
Neigh   | 6.4054     | 6.4054     | 6.4054     |   0.0 | 46.36
Comm    | 0.13983    | 0.13983    | 0.13983    |   0.0 |  1.01
Output  | 0.000139   | 0.000139   | 0.000139   |   0.0 |  0.00
Modify  | 0.22844    | 0.22844    | 0.22844    |   0.0 |  1.65
Other   |            | 0.05185    |            |       |  0.38

Nlocal:    19652 ave 19652 max 19652 min
Histogram: 1 0 0 0 0 0 0 0 0 0
Nghost:    14395 ave 14395 max 14395 min
Histogram: 1 0 0 0 0 0 0 0 0 0
Neighs:    809877 ave 809877 max 809877 min
Histogram: 1 0 0 0 0 0 0 0 0 0

Total # of neighbors = 809877
Ave neighs/atom = 41.2109
Neighbor list builds = 172
Dangerous builds not checked
Setting up Verlet run ...
  Unit style    : metal
  Current step  : 46003
  Time step     : 0.001
Per MPI rank memory allocation (min/avg/max) = 18.22 | 18.22 | 18.22 Mbytes
Step Temp Press TotEng PotEng Enthalpy Volume 
   46003     1992.538   -291.86264    -16822.11   -21883.338   -16932.585    606450.72 
   46023    1988.8639    -297.1543   -16821.355   -21873.251   -16933.831    606438.42 
   46498    1953.3363   -139.11605   -17042.189   -22003.841   -17094.463    602021.19 
Loop time of 40.5579 on 1 procs for 495 steps with 19652 atoms

Performance: 1.054 ns/day, 22.760 hours/ns, 12.205 timesteps/s
100.0% CPU use with 1 MPI tasks x no OpenMP threads

MPI task timing breakdown:
Section |  min time  |  avg time  |  max time  |%varavg| %total
---------------------------------------------------------------
Pair    | 20.544     | 20.544     | 20.544     |   0.0 | 50.65
Neigh   | 18.758     | 18.758     | 18.758     |   0.0 | 46.25
Comm    | 0.41015    | 0.41015    | 0.41015    |   0.0 |  1.01
Output  | 0.039023   | 0.039023   | 0.039023   |   0.0 |  0.10
Modify  | 0.65683    | 0.65683    | 0.65683    |   0.0 |  1.62
Other   |            | 0.1501     |            |       |  0.37

Nlocal:    19652 ave 19652 max 19652 min
Histogram: 1 0 0 0 0 0 0 0 0 0
Nghost:    14467 ave 14467 max 14467 min
Histogram: 1 0 0 0 0 0 0 0 0 0
Neighs:    815291 ave 815291 max 815291 min
Histogram: 1 0 0 0 0 0 0 0 0 0

Total # of neighbors = 815291
Ave neighs/atom = 41.4864
Neighbor list builds = 495
Dangerous builds not checked
Setting up Verlet run ...
  Unit style    : metal
  Current step  : 46498
  Time step     : 0.001
Per MPI rank memory allocation (min/avg/max) = 18.22 | 18.22 | 18.22 Mbytes
Step Temp Press TotEng PotEng Enthalpy Volume 
   46498    1953.3363   -139.11605   -17042.189   -22003.841   -17094.463    602021.19 
   46670     1947.844   -500.30928   -17118.952   -22066.653   -17306.662    601118.32 
Loop time of 13.9292 on 1 procs for 172 steps with 19652 atoms

Performance: 1.067 ns/day, 22.496 hours/ns, 12.348 timesteps/s
100.0% CPU use with 1 MPI tasks x no OpenMP threads

MPI task timing breakdown:
Section |  min time  |  avg time  |  max time  |%varavg| %total
---------------------------------------------------------------
Pair    | 7.0621     | 7.0621     | 7.0621     |   0.0 | 50.70
Neigh   | 6.446      | 6.446      | 6.446      |   0.0 | 46.28
Comm    | 0.1389     | 0.1389     | 0.1389     |   0.0 |  1.00
Output  | 0.00013399 | 0.00013399 | 0.00013399 |   0.0 |  0.00
Modify  | 0.22948    | 0.22948    | 0.22948    |   0.0 |  1.65
Other   |            | 0.05267    |            |       |  0.38

Nlocal:    19652 ave 19652 max 19652 min
Histogram: 1 0 0 0 0 0 0 0 0 0
Nghost:    14385 ave 14385 max 14385 min
Histogram: 1 0 0 0 0 0 0 0 0 0
Neighs:    816112 ave 816112 max 816112 min
Histogram: 1 0 0 0 0 0 0 0 0 0

Total # of neighbors = 816112
Ave neighs/atom = 41.5282
Neighbor list builds = 172
Dangerous builds not checked
Setting up Verlet run ...
  Unit style    : metal
  Current step  : 46670
  Time step     : 0.001
Per MPI rank memory allocation (min/avg/max) = 18.22 | 18.22 | 18.22 Mbytes
Step Temp Press TotEng PotEng Enthalpy Volume 
   46670     1947.844   -500.30928   -17118.952   -22066.653   -17306.662    601118.32 
   46690    1953.3122   -688.04684   -17119.023   -22080.614    -17377.16    601094.87 
   47165    1918.0653    114.23013   -17379.422   -22251.483   -17337.056    594229.56 
Loop time of 40.4086 on 1 procs for 495 steps with 19652 atoms

Performance: 1.058 ns/day, 22.676 hours/ns, 12.250 timesteps/s
100.0% CPU use with 1 MPI tasks x no OpenMP threads

MPI task timing breakdown:
Section |  min time  |  avg time  |  max time  |%varavg| %total
---------------------------------------------------------------
Pair    | 20.562     | 20.562     | 20.562     |   0.0 | 50.89
Neigh   | 18.593     | 18.593     | 18.593     |   0.0 | 46.01
Comm    | 0.40433    | 0.40433    | 0.40433    |   0.0 |  1.00
Output  | 0.039347   | 0.039347   | 0.039347   |   0.0 |  0.10
Modify  | 0.6588     | 0.6588     | 0.6588     |   0.0 |  1.63
Other   |            | 0.1509     |            |       |  0.37

Nlocal:    19652 ave 19652 max 19652 min
Histogram: 1 0 0 0 0 0 0 0 0 0
Nghost:    14524 ave 14524 max 14524 min
Histogram: 1 0 0 0 0 0 0 0 0 0
Neighs:    826745 ave 826745 max 826745 min
Histogram: 1 0 0 0 0 0 0 0 0 0

Total # of neighbors = 826745
Ave neighs/atom = 42.0693
Neighbor list builds = 495
Dangerous builds not checked
Setting up Verlet run ...
  Unit style    : metal
  Current step  : 47165
  Time step     : 0.001
Per MPI rank memory allocation (min/avg/max) = 18.22 | 18.22 | 18.22 Mbytes
Step Temp Press TotEng PotEng Enthalpy Volume 
   47165    1918.0653    114.23013   -17379.422   -22251.483   -17337.056    594229.56 
   47337    1893.0663   -237.41513   -17453.943   -22262.504   -17542.044    594542.15 
Loop time of 13.9344 on 1 procs for 172 steps with 19652 atoms

Performance: 1.066 ns/day, 22.504 hours/ns, 12.344 timesteps/s
100.0% CPU use with 1 MPI tasks x no OpenMP threads

MPI task timing breakdown:
Section |  min time  |  avg time  |  max time  |%varavg| %total
---------------------------------------------------------------
Pair    | 7.0949     | 7.0949     | 7.0949     |   0.0 | 50.92
Neigh   | 6.4207     | 6.4207     | 6.4207     |   0.0 | 46.08
Comm    | 0.13855    | 0.13855    | 0.13855    |   0.0 |  0.99
Output  | 0.0001328  | 0.0001328  | 0.0001328  |   0.0 |  0.00
Modify  | 0.22822    | 0.22822    | 0.22822    |   0.0 |  1.64
Other   |            | 0.05188    |            |       |  0.37

Nlocal:    19652 ave 19652 max 19652 min
Histogram: 1 0 0 0 0 0 0 0 0 0
Nghost:    14520 ave 14520 max 14520 min
Histogram: 1 0 0 0 0 0 0 0 0 0
Neighs:    826216 ave 826216 max 826216 min
Histogram: 1 0 0 0 0 0 0 0 0 0

Total # of neighbors = 826216
Ave neighs/atom = 42.0423
Neighbor list builds = 172
Dangerous builds not checked
Setting up Verlet run ...
  Unit style    : metal
  Current step  : 47337
  Time step     : 0.001
Per MPI rank memory allocation (min/avg/max) = 18.22 | 18.22 | 18.22 Mbytes
Step Temp Press TotEng PotEng Enthalpy Volume 
   47337    1893.0663   -237.41513   -17453.943   -22262.504   -17542.044    594542.15 
   47357    1896.1837    -256.6488   -17453.505   -22269.984   -17548.741    594531.82 
   47832    1877.6131    57.910263   -17673.788   -22443.096   -17652.519     588452.2 
Loop time of 40.9684 on 1 procs for 495 steps with 19652 atoms

Performance: 1.044 ns/day, 22.990 hours/ns, 12.082 timesteps/s
100.0% CPU use with 1 MPI tasks x no OpenMP threads

MPI task timing breakdown:
Section |  min time  |  avg time  |  max time  |%varavg| %total
---------------------------------------------------------------
Pair    | 20.923     | 20.923     | 20.923     |   0.0 | 51.07
Neigh   | 18.789     | 18.789     | 18.789     |   0.0 | 45.86
Comm    | 0.41008    | 0.41008    | 0.41008    |   0.0 |  1.00
Output  | 0.039584   | 0.039584   | 0.039584   |   0.0 |  0.10
Modify  | 0.65664    | 0.65664    | 0.65664    |   0.0 |  1.60
Other   |            | 0.1501     |            |       |  0.37

Nlocal:    19652 ave 19652 max 19652 min
Histogram: 1 0 0 0 0 0 0 0 0 0
Nghost:    14647 ave 14647 max 14647 min
Histogram: 1 0 0 0 0 0 0 0 0 0
Neighs:    834006 ave 834006 max 834006 min
Histogram: 1 0 0 0 0 0 0 0 0 0

Total # of neighbors = 834006
Ave neighs/atom = 42.4387
Neighbor list builds = 495
Dangerous builds not checked
Setting up Verlet run ...
  Unit style    : metal
  Current step  : 47832
  Time step     : 0.001
Per MPI rank memory allocation (min/avg/max) = 18.22 | 18.22 | 18.22 Mbytes
Step Temp Press TotEng PotEng Enthalpy Volume 
   47832    1877.6131    57.910263   -17673.788   -22443.096   -17652.519     588452.2 
   48004     1842.025   -6.9122349   -17768.077   -22446.989   -17770.614    587834.26 
Loop time of 14.3591 on 1 procs for 172 steps with 19652 atoms

Performance: 1.035 ns/day, 23.190 hours/ns, 11.978 timesteps/s
100.0% CPU use with 1 MPI tasks x no OpenMP threads

MPI task timing breakdown:
Section |  min time  |  avg time  |  max time  |%varavg| %total
---------------------------------------------------------------
Pair    | 7.3503     | 7.3503     | 7.3503     |   0.0 | 51.19
Neigh   | 6.5787     | 6.5787     | 6.5787     |   0.0 | 45.82
Comm    | 0.14302    | 0.14302    | 0.14302    |   0.0 |  1.00
Output  | 0.00013995 | 0.00013995 | 0.00013995 |   0.0 |  0.00
Modify  | 0.23344    | 0.23344    | 0.23344    |   0.0 |  1.63
Other   |            | 0.05353    |            |       |  0.37

Nlocal:    19652 ave 19652 max 19652 min
Histogram: 1 0 0 0 0 0 0 0 0 0
Nghost:    14680 ave 14680 max 14680 min
Histogram: 1 0 0 0 0 0 0 0 0 0
Neighs:    835283 ave 835283 max 835283 min
Histogram: 1 0 0 0 0 0 0 0 0 0

Total # of neighbors = 835283
Ave neighs/atom = 42.5037
Neighbor list builds = 172
Dangerous builds not checked
Setting up Verlet run ...
  Unit style    : metal
  Current step  : 48004
  Time step     : 0.001
Per MPI rank memory allocation (min/avg/max) = 18.22 | 18.22 | 18.22 Mbytes
Step Temp Press TotEng PotEng Enthalpy Volume 
   48004     1842.025   -6.9122349   -17768.077   -22446.989   -17770.614    587834.26 
   48024    1838.3495    63.813462   -17767.047   -22436.623   -17743.634    587835.91 
   48499    1808.5566    119.25718   -17974.847   -22568.745   -17931.324    584709.86 
Loop time of 41.2063 on 1 procs for 495 steps with 19652 atoms

Performance: 1.038 ns/day, 23.124 hours/ns, 12.013 timesteps/s
100.0% CPU use with 1 MPI tasks x no OpenMP threads

MPI task timing breakdown:
Section |  min time  |  avg time  |  max time  |%varavg| %total
---------------------------------------------------------------
Pair    | 21.107     | 21.107     | 21.107     |   0.0 | 51.22
Neigh   | 18.839     | 18.839     | 18.839     |   0.0 | 45.72
Comm    | 0.4123     | 0.4123     | 0.4123     |   0.0 |  1.00
Output  | 0.038987   | 0.038987   | 0.038987   |   0.0 |  0.09
Modify  | 0.65896    | 0.65896    | 0.65896    |   0.0 |  1.60
Other   |            | 0.1509     |            |       |  0.37

Nlocal:    19652 ave 19652 max 19652 min
Histogram: 1 0 0 0 0 0 0 0 0 0
Nghost:    14554 ave 14554 max 14554 min
Histogram: 1 0 0 0 0 0 0 0 0 0
Neighs:    840541 ave 840541 max 840541 min
Histogram: 1 0 0 0 0 0 0 0 0 0

Total # of neighbors = 840541
Ave neighs/atom = 42.7713
Neighbor list builds = 495
Dangerous builds not checked
Setting up Verlet run ...
  Unit style    : metal
  Current step  : 48499
  Time step     : 0.001
Per MPI rank memory allocation (min/avg/max) = 18.22 | 18.22 | 18.22 Mbytes
Step Temp Press TotEng PotEng Enthalpy Volume 
   48499    1808.5566    119.25718   -17974.847   -22568.745   -17931.324    584709.86 
   48671    1794.3279   -491.89568   -18052.405   -22610.161   -18231.857    584504.08 
Loop time of 14.1867 on 1 procs for 172 steps with 19652 atoms

Performance: 1.048 ns/day, 22.911 hours/ns, 12.124 timesteps/s
100.0% CPU use with 1 MPI tasks x no OpenMP threads

MPI task timing breakdown:
Section |  min time  |  avg time  |  max time  |%varavg| %total
---------------------------------------------------------------
Pair    | 7.299      | 7.299      | 7.299      |   0.0 | 51.45
Neigh   | 6.4573     | 6.4573     | 6.4573     |   0.0 | 45.52
Comm    | 0.14316    | 0.14316    | 0.14316    |   0.0 |  1.01
Output  | 0.00013185 | 0.00013185 | 0.00013185 |   0.0 |  0.00
Modify  | 0.23256    | 0.23256    | 0.23256    |   0.0 |  1.64
Other   |            | 0.05448    |            |       |  0.38

Nlocal:    19652 ave 19652 max 19652 min
Histogram: 1 0 0 0 0 0 0 0 0 0
Nghost:    14563 ave 14563 max 14563 min
Histogram: 1 0 0 0 0 0 0 0 0 0
Neighs:    840119 ave 840119 max 840119 min
Histogram: 1 0 0 0 0 0 0 0 0 0

Total # of neighbors = 840119
Ave neighs/atom = 42.7498
Neighbor list builds = 172
Dangerous builds not checked
Setting up Verlet run ...
  Unit style    : metal
  Current step  : 48671
  Time step     : 0.001
Per MPI rank memory allocation (min/avg/max) = 18.22 | 18.22 | 18.22 Mbytes
Step Temp Press TotEng PotEng Enthalpy Volume 
   48671    1794.3279   -491.89568   -18052.405   -22610.161   -18231.857    584504.08 
   48691    1803.8267    -589.5634    -18052.24   -22634.124   -18267.316    584481.75 
   49166      1765.23    373.05199   -18304.233   -22788.078   -18169.827    577245.53 
Loop time of 41.3575 on 1 procs for 495 steps with 19652 atoms

Performance: 1.034 ns/day, 23.208 hours/ns, 11.969 timesteps/s
100.0% CPU use with 1 MPI tasks x no OpenMP threads

MPI task timing breakdown:
Section |  min time  |  avg time  |  max time  |%varavg| %total
---------------------------------------------------------------
Pair    | 21.445     | 21.445     | 21.445     |   0.0 | 51.85
Neigh   | 18.648     | 18.648     | 18.648     |   0.0 | 45.09
Comm    | 0.39821    | 0.39821    | 0.39821    |   0.0 |  0.96
Output  | 0.03956    | 0.03956    | 0.03956    |   0.0 |  0.10
Modify  | 0.65812    | 0.65812    | 0.65812    |   0.0 |  1.59
Other   |            | 0.1683     |            |       |  0.41

Nlocal:    19652 ave 19652 max 19652 min
Histogram: 1 0 0 0 0 0 0 0 0 0
Nghost:    14626 ave 14626 max 14626 min
Histogram: 1 0 0 0 0 0 0 0 0 0
Neighs:    850802 ave 850802 max 850802 min
Histogram: 1 0 0 0 0 0 0 0 0 0

Total # of neighbors = 850802
Ave neighs/atom = 43.2934
Neighbor list builds = 495
Dangerous builds not checked
Setting up Verlet run ...
  Unit style    : metal
  Current step  : 49166
  Time step     : 0.001
Per MPI rank memory allocation (min/avg/max) = 18.22 | 18.22 | 18.22 Mbytes
Step Temp Press TotEng PotEng Enthalpy Volume 
   49166      1765.23    373.05199   -18304.233   -22788.078   -18169.827    577245.53 
   49338    1751.4643   -178.22087   -18383.481    -22832.36   -18447.738    577659.02 
Loop time of 14.3454 on 1 procs for 172 steps with 19652 atoms

Performance: 1.036 ns/day, 23.168 hours/ns, 11.990 timesteps/s
100.1% CPU use with 1 MPI tasks x no OpenMP threads

MPI task timing breakdown:
Section |  min time  |  avg time  |  max time  |%varavg| %total
---------------------------------------------------------------
Pair    | 7.466      | 7.466      | 7.466      |   0.0 | 52.04
Neigh   | 6.4562     | 6.4562     | 6.4562     |   0.0 | 45.01
Comm    | 0.13553    | 0.13553    | 0.13553    |   0.0 |  0.94
Output  | 0.00013018 | 0.00013018 | 0.00013018 |   0.0 |  0.00
Modify  | 0.22904    | 0.22904    | 0.22904    |   0.0 |  1.60
Other   |            | 0.05844    |            |       |  0.41

Nlocal:    19652 ave 19652 max 19652 min
Histogram: 1 0 0 0 0 0 0 0 0 0
Nghost:    14576 ave 14576 max 14576 min
Histogram: 1 0 0 0 0 0 0 0 0 0
Neighs:    850538 ave 850538 max 850538 min
Histogram: 1 0 0 0 0 0 0 0 0 0

Total # of neighbors = 850538
Ave neighs/atom = 43.28
Neighbor list builds = 172
Dangerous builds not checked
Setting up Verlet run ...
  Unit style    : metal
  Current step  : 49338
  Time step     : 0.001
Per MPI rank memory allocation (min/avg/max) = 18.22 | 18.22 | 18.22 Mbytes
Step Temp Press TotEng PotEng Enthalpy Volume 
   49338    1751.4643   -178.22087   -18383.481    -22832.36   -18447.738    577659.02 
   49358    1743.1475   -101.71284   -18383.337   -22811.091   -18420.009    577653.02 
   49833    1717.8622    262.48959   -18606.639   -22970.165   -18512.857    572419.24 
Loop time of 42.0096 on 1 procs for 495 steps with 19652 atoms

Performance: 1.018 ns/day, 23.574 hours/ns, 11.783 timesteps/s
100.1% CPU use with 1 MPI tasks x no OpenMP threads

MPI task timing breakdown:
Section |  min time  |  avg time  |  max time  |%varavg| %total
---------------------------------------------------------------
Pair    | 21.885     | 21.885     | 21.885     |   0.0 | 52.10
Neigh   | 18.855     | 18.855     | 18.855     |   0.0 | 44.88
Comm    | 0.40328    | 0.40328    | 0.40328    |   0.0 |  0.96
Output  | 0.039519   | 0.039519   | 0.039519   |   0.0 |  0.09
Modify  | 0.65777    | 0.65777    | 0.65777    |   0.0 |  1.57
Other   |            | 0.169      |            |       |  0.40

Nlocal:    19652 ave 19652 max 19652 min
Histogram: 1 0 0 0 0 0 0 0 0 0
Nghost:    14679 ave 14679 max 14679 min
Histogram: 1 0 0 0 0 0 0 0 0 0
Neighs:    858558 ave 858558 max 858558 min
Histogram: 1 0 0 0 0 0 0 0 0 0

Total # of neighbors = 858558
Ave neighs/atom = 43.6881
Neighbor list builds = 495
Dangerous builds not checked
Setting up Verlet run ...
  Unit style    : metal
  Current step  : 49833
  Time step     : 0.001
Per MPI rank memory allocation (min/avg/max) = 18.22 | 18.22 | 18.22 Mbytes
Step Temp Press TotEng PotEng Enthalpy Volume 
   49833    1717.8622    262.48959   -18606.639   -22970.165   -18512.857    572419.24 
   50005     1692.514   -171.28055    -18680.49    -22979.63   -18741.727    572816.31 
Loop time of 14.4238 on 1 procs for 172 steps with 19652 atoms

Performance: 1.030 ns/day, 23.294 hours/ns, 11.925 timesteps/s
100.1% CPU use with 1 MPI tasks x no OpenMP threads

MPI task timing breakdown:
Section |  min time  |  avg time  |  max time  |%varavg| %total
---------------------------------------------------------------
Pair    | 7.5205     | 7.5205     | 7.5205     |   0.0 | 52.14
Neigh   | 6.4741     | 6.4741     | 6.4741     |   0.0 | 44.88
Comm    | 0.13877    | 0.13877    | 0.13877    |   0.0 |  0.96
Output  | 0.00013614 | 0.00013614 | 0.00013614 |   0.0 |  0.00
Modify  | 0.2307     | 0.2307     | 0.2307     |   0.0 |  1.60
Other   |            | 0.05961    |            |       |  0.41

Nlocal:    19652 ave 19652 max 19652 min
Histogram: 1 0 0 0 0 0 0 0 0 0
Nghost:    14713 ave 14713 max 14713 min
Histogram: 1 0 0 0 0 0 0 0 0 0
Neighs:    857226 ave 857226 max 857226 min
Histogram: 1 0 0 0 0 0 0 0 0 0

Total # of neighbors = 857226
Ave neighs/atom = 43.6203
Neighbor list builds = 172
Dangerous builds not checked
Setting up Verlet run ...
  Unit style    : metal
  Current step  : 50005
  Time step     : 0.001
Per MPI rank memory allocation (min/avg/max) = 18.22 | 18.22 | 18.22 Mbytes
Step Temp Press TotEng PotEng Enthalpy Volume 
   50005     1692.514   -171.28055    -18680.49    -22979.63   -18741.727    572816.31 
   50025    1694.1449   -178.36917   -18679.674   -22982.956   -18743.444    572810.11 
   50500    1680.2467   -180.43592   -18920.249   -23188.229   -18984.213    567971.88 
Loop time of 43.1418 on 1 procs for 495 steps with 19652 atoms

Performance: 0.991 ns/day, 24.210 hours/ns, 11.474 timesteps/s
100.1% CPU use with 1 MPI tasks x no OpenMP threads

MPI task timing breakdown:
Section |  min time  |  avg time  |  max time  |%varavg| %total
---------------------------------------------------------------
Pair    | 22.359     | 22.359     | 22.359     |   0.0 | 51.83
Neigh   | 19.346     | 19.346     | 19.346     |   0.0 | 44.84
Comm    | 0.49554    | 0.49554    | 0.49554    |   0.0 |  1.15
Output  | 0.042832   | 0.042832   | 0.042832   |   0.0 |  0.10
Modify  | 0.72053    | 0.72053    | 0.72053    |   0.0 |  1.67
Other   |            | 0.1778     |            |       |  0.41

Nlocal:    19652 ave 19652 max 19652 min
Histogram: 1 0 0 0 0 0 0 0 0 0
Nghost:    14776 ave 14776 max 14776 min
Histogram: 1 0 0 0 0 0 0 0 0 0
Neighs:    864599 ave 864599 max 864599 min
Histogram: 1 0 0 0 0 0 0 0 0 0

Total # of neighbors = 864599
Ave neighs/atom = 43.9955
Neighbor list builds = 495
Dangerous builds not checked
Setting up Verlet run ...
  Unit style    : metal
  Current step  : 50500
  Time step     : 0.001
Per MPI rank memory allocation (min/avg/max) = 18.22 | 18.22 | 18.22 Mbytes
Step Temp Press TotEng PotEng Enthalpy Volume 
   50500    1680.2467   -180.43592   -18920.249   -23188.229   -18984.213    567971.88 
   50672    1652.1827   -152.46368   -18993.554   -23190.248   -19047.553    567454.37 
Loop time of 14.4632 on 1 procs for 172 steps with 19652 atoms

Performance: 1.027 ns/day, 23.358 hours/ns, 11.892 timesteps/s
100.1% CPU use with 1 MPI tasks x no OpenMP threads

MPI task timing breakdown:
Section |  min time  |  avg time  |  max time  |%varavg| %total
---------------------------------------------------------------
Pair    | 7.5008     | 7.5008     | 7.5008     |   0.0 | 51.86
Neigh   | 6.5126     | 6.5126     | 6.5126     |   0.0 | 45.03
Comm    | 0.15438    | 0.15438    | 0.15438    |   0.0 |  1.07
Output  | 0.000139   | 0.000139   | 0.000139   |   0.0 |  0.00
Modify  | 0.23838    | 0.23838    | 0.23838    |   0.0 |  1.65
Other   |            | 0.0569     |            |       |  0.39

Nlocal:    19652 ave 19652 max 19652 min
Histogram: 1 0 0 0 0 0 0 0 0 0
Nghost:    14808 ave 14808 max 14808 min
Histogram: 1 0 0 0 0 0 0 0 0 0
Neighs:    865905 ave 865905 max 865905 min
Histogram: 1 0 0 0 0 0 0 0 0 0

Total # of neighbors = 865905
Ave neighs/atom = 44.0619
Neighbor list builds = 172
Dangerous builds not checked
Setting up Verlet run ...
  Unit style    : metal
  Current step  : 50672
  Time step     : 0.001
Per MPI rank memory allocation (min/avg/max) = 18.22 | 18.22 | 18.22 Mbytes
Step Temp Press TotEng PotEng Enthalpy Volume 
   50672    1652.1827   -152.46368   -18993.554   -23190.248   -19047.553    567454.37 
   50692    1651.4992   -105.02265   -18993.738   -23188.697   -19030.934       567449 
   51167     1615.837   -190.91205   -19208.638   -23313.011   -19275.918     564628.3 
Loop time of 42.177 on 1 procs for 495 steps with 19652 atoms

Performance: 1.014 ns/day, 23.668 hours/ns, 11.736 timesteps/s
100.1% CPU use with 1 MPI tasks x no OpenMP threads

MPI task timing breakdown:
Section |  min time  |  avg time  |  max time  |%varavg| %total
---------------------------------------------------------------
Pair    | 21.872     | 21.872     | 21.872     |   0.0 | 51.86
Neigh   | 18.995     | 18.995     | 18.995     |   0.0 | 45.04
Comm    | 0.43415    | 0.43415    | 0.43415    |   0.0 |  1.03
Output  | 0.040076   | 0.040076   | 0.040076   |   0.0 |  0.10
Modify  | 0.67859    | 0.67859    | 0.67859    |   0.0 |  1.61
Other   |            | 0.1578     |            |       |  0.37

Nlocal:    19652 ave 19652 max 19652 min
Histogram: 1 0 0 0 0 0 0 0 0 0
Nghost:    14817 ave 14817 max 14817 min
Histogram: 1 0 0 0 0 0 0 0 0 0
Neighs:    870298 ave 870298 max 870298 min
Histogram: 1 0 0 0 0 0 0 0 0 0

Total # of neighbors = 870298
Ave neighs/atom = 44.2855
Neighbor list builds = 495
Dangerous builds not checked
Setting up Verlet run ...
  Unit style    : metal
  Current step  : 51167
  Time step     : 0.001
Per MPI rank memory allocation (min/avg/max) = 18.22 | 18.22 | 18.22 Mbytes
Step Temp Press TotEng PotEng Enthalpy Volume 
   51167     1615.837   -190.91205   -19208.638   -23313.011   -19275.918     564628.3 
   51339    1601.4945   -399.60752     -19283.3   -23351.242    -19423.94    563878.53 
Loop time of 14.4472 on 1 procs for 172 steps with 19652 atoms

Performance: 1.029 ns/day, 23.332 hours/ns, 11.905 timesteps/s
100.1% CPU use with 1 MPI tasks x no OpenMP threads

MPI task timing breakdown:
Section |  min time  |  avg time  |  max time  |%varavg| %total
---------------------------------------------------------------
Pair    | 7.5        | 7.5        | 7.5        |   0.0 | 51.91
Neigh   | 6.5138     | 6.5138     | 6.5138     |   0.0 | 45.09
Comm    | 0.14625    | 0.14625    | 0.14625    |   0.0 |  1.01
Output  | 0.00013804 | 0.00013804 | 0.00013804 |   0.0 |  0.00
Modify  | 0.23283    | 0.23283    | 0.23283    |   0.0 |  1.61
Other   |            | 0.05425    |            |       |  0.38

Nlocal:    19652 ave 19652 max 19652 min
Histogram: 1 0 0 0 0 0 0 0 0 0
Nghost:    14834 ave 14834 max 14834 min
Histogram: 1 0 0 0 0 0 0 0 0 0
Neighs:    871298 ave 871298 max 871298 min
Histogram: 1 0 0 0 0 0 0 0 0 0

Total # of neighbors = 871298
Ave neighs/atom = 44.3364
Neighbor list builds = 172
Dangerous builds not checked
Setting up Verlet run ...
  Unit style    : metal
  Current step  : 51339
  Time step     : 0.001
Per MPI rank memory allocation (min/avg/max) = 18.22 | 18.22 | 18.22 Mbytes
Step Temp Press TotEng PotEng Enthalpy Volume 
   51339    1601.4945   -399.60752     -19283.3   -23351.242    -19423.94    563878.53 
   51359    1606.2113   -390.58323   -19283.664   -23363.587   -19421.124    563861.61 
   51834     1569.946    409.80898   -19548.208   -23536.014    -19405.65    557343.24 
Loop time of 42.2543 on 1 procs for 495 steps with 19652 atoms

Performance: 1.012 ns/day, 23.712 hours/ns, 11.715 timesteps/s
100.1% CPU use with 1 MPI tasks x no OpenMP threads

MPI task timing breakdown:
Section |  min time  |  avg time  |  max time  |%varavg| %total
---------------------------------------------------------------
Pair    | 21.964     | 21.964     | 21.964     |   0.0 | 51.98
Neigh   | 19.01      | 19.01      | 19.01      |   0.0 | 44.99
Comm    | 0.4231     | 0.4231     | 0.4231     |   0.0 |  1.00
Output  | 0.040399   | 0.040399   | 0.040399   |   0.0 |  0.10
Modify  | 0.66394    | 0.66394    | 0.66394    |   0.0 |  1.57
Other   |            | 0.1535     |            |       |  0.36

Nlocal:    19652 ave 19652 max 19652 min
Histogram: 1 0 0 0 0 0 0 0 0 0
Nghost:    14907 ave 14907 max 14907 min
Histogram: 1 0 0 0 0 0 0 0 0 0
Neighs:    881588 ave 881588 max 881588 min
Histogram: 1 0 0 0 0 0 0 0 0 0

Total # of neighbors = 881588
Ave neighs/atom = 44.86
Neighbor list builds = 495
Dangerous builds not checked
Setting up Verlet run ...
  Unit style    : metal
  Current step  : 51834
  Time step     : 0.001
Per MPI rank memory allocation (min/avg/max) = 18.22 | 18.22 | 18.22 Mbytes
Step Temp Press TotEng PotEng Enthalpy Volume 
   51834     1569.946    409.80898   -19548.208   -23536.014    -19405.65    557343.24 
   52006     1550.957   -172.56309   -19620.923   -23560.495   -19681.002    557803.29 
Loop time of 14.3425 on 1 procs for 172 steps with 19652 atoms

Performance: 1.036 ns/day, 23.163 hours/ns, 11.992 timesteps/s
100.1% CPU use with 1 MPI tasks x no OpenMP threads

MPI task timing breakdown:
Section |  min time  |  avg time  |  max time  |%varavg| %total
---------------------------------------------------------------
Pair    | 7.4769     | 7.4769     | 7.4769     |   0.0 | 52.13
Neigh   | 6.453      | 6.453      | 6.453      |   0.0 | 44.99
Comm    | 0.13598    | 0.13598    | 0.13598    |   0.0 |  0.95
Output  | 0.00013208 | 0.00013208 | 0.00013208 |   0.0 |  0.00
Modify  | 0.22548    | 0.22548    | 0.22548    |   0.0 |  1.57
Other   |            | 0.05101    |            |       |  0.36

Nlocal:    19652 ave 19652 max 19652 min
Histogram: 1 0 0 0 0 0 0 0 0 0
Nghost:    14847 ave 14847 max 14847 min
Histogram: 1 0 0 0 0 0 0 0 0 0
Neighs:    880590 ave 880590 max 880590 min
Histogram: 1 0 0 0 0 0 0 0 0 0

Total # of neighbors = 880590
Ave neighs/atom = 44.8092
Neighbor list builds = 172
Dangerous builds not checked
Setting up Verlet run ...
  Unit style    : metal
  Current step  : 52006
  Time step     : 0.001
Per MPI rank memory allocation (min/avg/max) = 18.22 | 18.22 | 18.22 Mbytes
Step Temp Press TotEng PotEng Enthalpy Volume 
   52006     1550.957   -172.56309   -19620.923   -23560.495   -19681.002    557803.29 
   52026    1546.8938   -164.99237   -19621.183   -23550.434   -19678.625    557794.87 
   52501    1518.8481    26.770411   -19845.235   -23703.247   -19835.983     553725.5 
Loop time of 41.9286 on 1 procs for 495 steps with 19652 atoms

Performance: 1.020 ns/day, 23.529 hours/ns, 11.806 timesteps/s
100.1% CPU use with 1 MPI tasks x no OpenMP threads

MPI task timing breakdown:
Section |  min time  |  avg time  |  max time  |%varavg| %total
---------------------------------------------------------------
Pair    | 21.875     | 21.875     | 21.875     |   0.0 | 52.17
Neigh   | 18.832     | 18.832     | 18.832     |   0.0 | 44.92
Comm    | 0.39193    | 0.39193    | 0.39193    |   0.0 |  0.93
Output  | 0.039117   | 0.039117   | 0.039117   |   0.0 |  0.09
Modify  | 0.6446     | 0.6446     | 0.6446     |   0.0 |  1.54
Other   |            | 0.1454     |            |       |  0.35

Nlocal:    19652 ave 19652 max 19652 min
Histogram: 1 0 0 0 0 0 0 0 0 0
Nghost:    14927 ave 14927 max 14927 min
Histogram: 1 0 0 0 0 0 0 0 0 0
Neighs:    887632 ave 887632 max 887632 min
Histogram: 1 0 0 0 0 0 0 0 0 0

Total # of neighbors = 887632
Ave neighs/atom = 45.1675
Neighbor list builds = 495
Dangerous builds not checked
Setting up Verlet run ...
  Unit style    : metal
  Current step  : 52501
  Time step     : 0.001
Per MPI rank memory allocation (min/avg/max) = 18.22 | 18.22 | 18.22 Mbytes
Step Temp Press TotEng PotEng Enthalpy Volume 
   52501    1518.8481    26.770411   -19845.235   -23703.247   -19835.983     553725.5 
   52673    1508.3588   -336.50015   -19911.385   -23742.753    -20027.69     553763.4 
Loop time of 14.4508 on 1 procs for 172 steps with 19652 atoms

Performance: 1.028 ns/day, 23.338 hours/ns, 11.902 timesteps/s
100.1% CPU use with 1 MPI tasks x no OpenMP threads

MPI task timing breakdown:
Section |  min time  |  avg time  |  max time  |%varavg| %total
---------------------------------------------------------------
Pair    | 7.5521     | 7.5521     | 7.5521     |   0.0 | 52.26
Neigh   | 6.4805     | 6.4805     | 6.4805     |   0.0 | 44.85
Comm    | 0.13872    | 0.13872    | 0.13872    |   0.0 |  0.96
Output  | 0.00013614 | 0.00013614 | 0.00013614 |   0.0 |  0.00
Modify  | 0.22715    | 0.22715    | 0.22715    |   0.0 |  1.57
Other   |            | 0.05211    |            |       |  0.36

Nlocal:    19652 ave 19652 max 19652 min
Histogram: 1 0 0 0 0 0 0 0 0 0
Nghost:    14939 ave 14939 max 14939 min
Histogram: 1 0 0 0 0 0 0 0 0 0
Neighs:    887200 ave 887200 max 887200 min
Histogram: 1 0 0 0 0 0 0 0 0 0

Total # of neighbors = 887200
Ave neighs/atom = 45.1455
Neighbor list builds = 172
Dangerous builds not checked
Setting up Verlet run ...
  Unit style    : metal
  Current step  : 52673
  Time step     : 0.001
Per MPI rank memory allocation (min/avg/max) = 18.22 | 18.22 | 18.22 Mbytes
Step Temp Press TotEng PotEng Enthalpy Volume 
   52673    1508.3588   -336.50015   -19911.385   -23742.753    -20027.69     553763.4 
   52693    1506.6718    -243.1228   -19912.427   -23739.511   -19996.456    553749.12 
   53168    1464.2636    153.39525   -20150.935   -23870.298   -20098.318    549573.33 
Loop time of 41.8718 on 1 procs for 495 steps with 19652 atoms

Performance: 1.021 ns/day, 23.497 hours/ns, 11.822 timesteps/s
100.1% CPU use with 1 MPI tasks x no OpenMP threads

MPI task timing breakdown:
Section |  min time  |  avg time  |  max time  |%varavg| %total
---------------------------------------------------------------
Pair    | 21.892     | 21.892     | 21.892     |   0.0 | 52.28
Neigh   | 18.749     | 18.749     | 18.749     |   0.0 | 44.78
Comm    | 0.39362    | 0.39362    | 0.39362    |   0.0 |  0.94
Output  | 0.040151   | 0.040151   | 0.040151   |   0.0 |  0.10
Modify  | 0.64916    | 0.64916    | 0.64916    |   0.0 |  1.55
Other   |            | 0.1481     |            |       |  0.35

Nlocal:    19652 ave 19652 max 19652 min
Histogram: 1 0 0 0 0 0 0 0 0 0
Nghost:    14961 ave 14961 max 14961 min
Histogram: 1 0 0 0 0 0 0 0 0 0
Neighs:    894532 ave 894532 max 894532 min
Histogram: 1 0 0 0 0 0 0 0 0 0

Total # of neighbors = 894532
Ave neighs/atom = 45.5186
Neighbor list builds = 495
Dangerous builds not checked
Setting up Verlet run ...
  Unit style    : metal
  Current step  : 53168
  Time step     : 0.001
Per MPI rank memory allocation (min/avg/max) = 18.22 | 18.22 | 18.22 Mbytes
Step Temp Press TotEng PotEng Enthalpy Volume 
   53168    1464.2636    153.39525   -20150.935   -23870.298   -20098.318    549573.33 
   53340    1455.6689   -371.29231   -20211.044   -23908.575   -20338.452    549784.32 
Loop time of 14.517 on 1 procs for 172 steps with 19652 atoms

Performance: 1.024 ns/day, 23.445 hours/ns, 11.848 timesteps/s
100.1% CPU use with 1 MPI tasks x no OpenMP threads

MPI task timing breakdown:
Section |  min time  |  avg time  |  max time  |%varavg| %total
---------------------------------------------------------------
Pair    | 7.622      | 7.622      | 7.622      |   0.0 | 52.50
Neigh   | 6.4763     | 6.4763     | 6.4763     |   0.0 | 44.61
Comm    | 0.13864    | 0.13864    | 0.13864    |   0.0 |  0.95
Output  | 0.00013494 | 0.00013494 | 0.00013494 |   0.0 |  0.00
Modify  | 0.22692    | 0.22692    | 0.22692    |   0.0 |  1.56
Other   |            | 0.053      |            |       |  0.37

Nlocal:    19652 ave 19652 max 19652 min
Histogram: 1 0 0 0 0 0 0 0 0 0
Nghost:    14921 ave 14921 max 14921 min
Histogram: 1 0 0 0 0 0 0 0 0 0
Neighs:    894540 ave 894540 max 894540 min
Histogram: 1 0 0 0 0 0 0 0 0 0

Total # of neighbors = 894540
Ave neighs/atom = 45.519
Neighbor list builds = 172
Dangerous builds not checked
Setting up Verlet run ...
  Unit style    : metal
  Current step  : 53340
  Time step     : 0.001
Per MPI rank memory allocation (min/avg/max) = 18.22 | 18.22 | 18.22 Mbytes
Step Temp Press TotEng PotEng Enthalpy Volume 
   53340    1455.6689   -371.29231   -20211.044   -23908.575   -20338.452    549784.32 
   53360    1451.3914   -293.34562   -20211.626   -23898.292   -20312.284    549767.65 
   53835    1410.9814   -3.3073816   -20444.724   -24028.745   -20445.852    546170.86 
Loop time of 42.4315 on 1 procs for 495 steps with 19652 atoms

Performance: 1.008 ns/day, 23.811 hours/ns, 11.666 timesteps/s
100.1% CPU use with 1 MPI tasks x no OpenMP threads

MPI task timing breakdown:
Section |  min time  |  avg time  |  max time  |%varavg| %total
---------------------------------------------------------------
Pair    | 22.27      | 22.27      | 22.27      |   0.0 | 52.49
Neigh   | 18.919     | 18.919     | 18.919     |   0.0 | 44.59
Comm    | 0.40228    | 0.40228    | 0.40228    |   0.0 |  0.95
Output  | 0.03951    | 0.03951    | 0.03951    |   0.0 |  0.09
Modify  | 0.65078    | 0.65078    | 0.65078    |   0.0 |  1.53
Other   |            | 0.1494     |            |       |  0.35

Nlocal:    19652 ave 19652 max 19652 min
Histogram: 1 0 0 0 0 0 0 0 0 0
Nghost:    14914 ave 14914 max 14914 min
Histogram: 1 0 0 0 0 0 0 0 0 0
Neighs:    900534 ave 900534 max 900534 min
Histogram: 1 0 0 0 0 0 0 0 0 0

Total # of neighbors = 900534
Ave neighs/atom = 45.824
Neighbor list builds = 495
Dangerous builds not checked
Setting up Verlet run ...
  Unit style    : metal
  Current step  : 53835
  Time step     : 0.001
Per MPI rank memory allocation (min/avg/max) = 18.22 | 18.22 | 18.22 Mbytes
Step Temp Press TotEng PotEng Enthalpy Volume 
   53835    1410.9814   -3.3073816   -20444.724   -24028.745   -20445.852    546170.86 
   54007    1400.9246    -272.3126   -20513.111   -24071.587   -20605.836       545557 
Loop time of 14.5888 on 1 procs for 172 steps with 19652 atoms

Performance: 1.019 ns/day, 23.561 hours/ns, 11.790 timesteps/s
100.1% CPU use with 1 MPI tasks x no OpenMP threads

MPI task timing breakdown:
Section |  min time  |  avg time  |  max time  |%varavg| %total
---------------------------------------------------------------
Pair    | 7.6575     | 7.6575     | 7.6575     |   0.0 | 52.49
Neigh   | 6.5149     | 6.5149     | 6.5149     |   0.0 | 44.66
Comm    | 0.13823    | 0.13823    | 0.13823    |   0.0 |  0.95
Output  | 0.00013804 | 0.00013804 | 0.00013804 |   0.0 |  0.00
Modify  | 0.22614    | 0.22614    | 0.22614    |   0.0 |  1.55
Other   |            | 0.05186    |            |       |  0.36

Nlocal:    19652 ave 19652 max 19652 min
Histogram: 1 0 0 0 0 0 0 0 0 0
Nghost:    15017 ave 15017 max 15017 min
Histogram: 1 0 0 0 0 0 0 0 0 0
Neighs:    901754 ave 901754 max 901754 min
Histogram: 1 0 0 0 0 0 0 0 0 0

Total # of neighbors = 901754
Ave neighs/atom = 45.8861
Neighbor list builds = 172
Dangerous builds not checked
Setting up Verlet run ...
  Unit style    : metal
  Current step  : 54007
  Time step     : 0.001
Per MPI rank memory allocation (min/avg/max) = 18.22 | 18.22 | 18.22 Mbytes
Step Temp Press TotEng PotEng Enthalpy Volume 
   54007    1400.9246    -272.3126   -20513.111   -24071.587   -20605.836       545557 
   54027    1407.2431   -385.22037   -20513.356   -24087.881   -20644.524    545543.32 
   54502    1360.7162    158.14893   -20744.635   -24200.978     -20691.2    541341.92 
Loop time of 44.2737 on 1 procs for 495 steps with 19652 atoms

Performance: 0.966 ns/day, 24.845 hours/ns, 11.180 timesteps/s
100.1% CPU use with 1 MPI tasks x no OpenMP threads

MPI task timing breakdown:
Section |  min time  |  avg time  |  max time  |%varavg| %total
---------------------------------------------------------------
Pair    | 23.301     | 23.301     | 23.301     |   0.0 | 52.63
Neigh   | 19.685     | 19.685     | 19.685     |   0.0 | 44.46
Comm    | 0.41988    | 0.41988    | 0.41988    |   0.0 |  0.95
Output  | 0.039456   | 0.039456   | 0.039456   |   0.0 |  0.09
Modify  | 0.67466    | 0.67466    | 0.67466    |   0.0 |  1.52
Other   |            | 0.1538     |            |       |  0.35

Nlocal:    19652 ave 19652 max 19652 min
Histogram: 1 0 0 0 0 0 0 0 0 0
Nghost:    15011 ave 15011 max 15011 min
Histogram: 1 0 0 0 0 0 0 0 0 0
Neighs:    908639 ave 908639 max 908639 min
Histogram: 1 0 0 0 0 0 0 0 0 0

Total # of neighbors = 908639
Ave neighs/atom = 46.2365
Neighbor list builds = 495
Dangerous builds not checked
Setting up Verlet run ...
  Unit style    : metal
  Current step  : 54502
  Time step     : 0.001
Per MPI rank memory allocation (min/avg/max) = 18.22 | 18.22 | 18.22 Mbytes
Step Temp Press TotEng PotEng Enthalpy Volume 
   54502    1360.7162    158.14893   -20744.635   -24200.978     -20691.2    541341.92 
   54674    1365.9795   -376.66611   -20820.898    -24290.61   -20948.109    541099.42 
Loop time of 14.688 on 1 procs for 172 steps with 19652 atoms

Performance: 1.012 ns/day, 23.721 hours/ns, 11.710 timesteps/s
100.1% CPU use with 1 MPI tasks x no OpenMP threads

MPI task timing breakdown:
Section |  min time  |  avg time  |  max time  |%varavg| %total
---------------------------------------------------------------
Pair    | 7.7372     | 7.7372     | 7.7372     |   0.0 | 52.68
Neigh   | 6.5389     | 6.5389     | 6.5389     |   0.0 | 44.52
Comm    | 0.13494    | 0.13494    | 0.13494    |   0.0 |  0.92
Output  | 0.00014186 | 0.00014186 | 0.00014186 |   0.0 |  0.00
Modify  | 0.22528    | 0.22528    | 0.22528    |   0.0 |  1.53
Other   |            | 0.05151    |            |       |  0.35

Nlocal:    19652 ave 19652 max 19652 min
Histogram: 1 0 0 0 0 0 0 0 0 0
Nghost:    14961 ave 14961 max 14961 min
Histogram: 1 0 0 0 0 0 0 0 0 0
Neighs:    908997 ave 908997 max 908997 min
Histogram: 1 0 0 0 0 0 0 0 0 0

Total # of neighbors = 908997
Ave neighs/atom = 46.2547
Neighbor list builds = 172
Dangerous builds not checked
Setting up Verlet run ...
  Unit style    : metal
  Current step  : 54674
  Time step     : 0.001
Per MPI rank memory allocation (min/avg/max) = 18.22 | 18.22 | 18.22 Mbytes
Step Temp Press TotEng PotEng Enthalpy Volume 
   54674    1365.9795   -376.66611   -20820.898    -24290.61   -20948.109    541099.42 
   54694    1363.1864   -338.38381   -20822.861   -24285.479   -20937.139    541080.45 
   55169    1311.6312    101.74466   -21053.697    -24385.36   -21019.564    537488.48 
Loop time of 42.7555 on 1 procs for 495 steps with 19652 atoms

Performance: 1.000 ns/day, 23.993 hours/ns, 11.577 timesteps/s
100.1% CPU use with 1 MPI tasks x no OpenMP threads

MPI task timing breakdown:
Section |  min time  |  avg time  |  max time  |%varavg| %total
---------------------------------------------------------------
Pair    | 22.523     | 22.523     | 22.523     |   0.0 | 52.68
Neigh   | 18.995     | 18.995     | 18.995     |   0.0 | 44.43
Comm    | 0.39695    | 0.39695    | 0.39695    |   0.0 |  0.93
Output  | 0.03948    | 0.03948    | 0.03948    |   0.0 |  0.09
Modify  | 0.65284    | 0.65284    | 0.65284    |   0.0 |  1.53
Other   |            | 0.1486     |            |       |  0.35

Nlocal:    19652 ave 19652 max 19652 min
Histogram: 1 0 0 0 0 0 0 0 0 0
Nghost:    15113 ave 15113 max 15113 min
Histogram: 1 0 0 0 0 0 0 0 0 0
Neighs:    915494 ave 915494 max 915494 min
Histogram: 1 0 0 0 0 0 0 0 0 0

Total # of neighbors = 915494
Ave neighs/atom = 46.5853
Neighbor list builds = 495
Dangerous builds not checked
Setting up Verlet run ...
  Unit style    : metal
  Current step  : 55169
  Time step     : 0.001
Per MPI rank memory allocation (min/avg/max) = 18.22 | 18.22 | 18.22 Mbytes
Step Temp Press TotEng PotEng Enthalpy Volume 
   55169    1311.6312    101.74466   -21053.697    -24385.36   -21019.564    537488.48 
   55341    1310.6204   -340.13899   -21121.133   -24450.228   -21235.198     537286.6 
Loop time of 14.8265 on 1 procs for 172 steps with 19652 atoms

Performance: 1.002 ns/day, 23.945 hours/ns, 11.601 timesteps/s
100.1% CPU use with 1 MPI tasks x no OpenMP threads

MPI task timing breakdown:
Section |  min time  |  avg time  |  max time  |%varavg| %total
---------------------------------------------------------------
Pair    | 7.8304     | 7.8304     | 7.8304     |   0.0 | 52.81
Neigh   | 6.5771     | 6.5771     | 6.5771     |   0.0 | 44.36
Comm    | 0.13799    | 0.13799    | 0.13799    |   0.0 |  0.93
Output  | 0.00015497 | 0.00015497 | 0.00015497 |   0.0 |  0.00
Modify  | 0.22825    | 0.22825    | 0.22825    |   0.0 |  1.54
Other   |            | 0.05256    |            |       |  0.35

Nlocal:    19652 ave 19652 max 19652 min
Histogram: 1 0 0 0 0 0 0 0 0 0
Nghost:    15087 ave 15087 max 15087 min
Histogram: 1 0 0 0 0 0 0 0 0 0
Neighs:    916031 ave 916031 max 916031 min
Histogram: 1 0 0 0 0 0 0 0 0 0

Total # of neighbors = 916031
Ave neighs/atom = 46.6126
Neighbor list builds = 172
[...]
Modify  | 0.6597     | 0.6597     | 0.6597     |   0.0 |  1.39
Other   |            | 0.1686     |            |       |  0.35

Nlocal:    19652 ave 19652 max 19652 min
Histogram: 1 0 0 0 0 0 0 0 0 0
Nghost:    15867 ave 15867 max 15867 min
Histogram: 1 0 0 0 0 0 0 0 0 0
Neighs:    1.05436e+06 ave 1.05436e+06 max 1.05436e+06 min
Histogram: 1 0 0 0 0 0 0 0 0 0

Total # of neighbors = 1054360
Ave neighs/atom = 53.6515
Neighbor list builds = 495
Dangerous builds not checked
Setting up Verlet run ...
  Unit style    : metal
  Current step  : 67175
  Time step     : 0.001
Per MPI rank memory allocation (min/avg/max) = 18.22 | 18.22 | 18.22 Mbytes
Step Temp Press TotEng PotEng Enthalpy Volume 
   67175    425.12603    113.37504   -26708.928   -27788.787   -26675.253     475887.2 
   67347    415.25819   -9.0108881   -26769.262   -27824.055   -26771.936    475533.18 
Loop time of 16.4786 on 1 procs for 172 steps with 19652 atoms

Performance: 0.902 ns/day, 26.613 hours/ns, 10.438 timesteps/s
100.0% CPU use with 1 MPI tasks x no OpenMP threads

MPI task timing breakdown:
Section |  min time  |  avg time  |  max time  |%varavg| %total
---------------------------------------------------------------
Pair    | 8.9923     | 8.9923     | 8.9923     |   0.0 | 54.57
Neigh   | 7.0606     | 7.0606     | 7.0606     |   0.0 | 42.85
Comm    | 0.13892    | 0.13892    | 0.13892    |   0.0 |  0.84
Output  | 0.00012803 | 0.00012803 | 0.00012803 |   0.0 |  0.00
Modify  | 0.22814    | 0.22814    | 0.22814    |   0.0 |  1.38
Other   |            | 0.05847    |            |       |  0.35

Nlocal:    19652 ave 19652 max 19652 min
Histogram: 1 0 0 0 0 0 0 0 0 0
Nghost:    15864 ave 15864 max 15864 min
Histogram: 1 0 0 0 0 0 0 0 0 0
Neighs:    1.05527e+06 ave 1.05527e+06 max 1.05527e+06 min
Histogram: 1 0 0 0 0 0 0 0 0 0

Total # of neighbors = 1055268
Ave neighs/atom = 53.6977
Neighbor list builds = 172
Dangerous builds not checked
Setting up Verlet run ...
  Unit style    : metal
  Current step  : 67347
  Time step     : 0.001
Per MPI rank memory allocation (min/avg/max) = 18.22 | 18.22 | 18.22 Mbytes
Step Temp Press TotEng PotEng Enthalpy Volume 
   67347    415.25819   -9.0108881   -26769.262   -27824.055   -26771.936    475533.18 
   67367    415.72789   -36.857656   -26770.968   -27826.955   -26781.908    475531.13 
   67842    376.42357    187.57491   -27008.915   -27965.065   -26953.537    473009.52 
Loop time of 47.5719 on 1 procs for 495 steps with 19652 atoms

Performance: 0.899 ns/day, 26.696 hours/ns, 10.405 timesteps/s
100.1% CPU use with 1 MPI tasks x no OpenMP threads

MPI task timing breakdown:
Section |  min time  |  avg time  |  max time  |%varavg| %total
---------------------------------------------------------------
Pair    | 25.826     | 25.826     | 25.826     |   0.0 | 54.29
Neigh   | 20.475     | 20.475     | 20.475     |   0.0 | 43.04
Comm    | 0.41219    | 0.41219    | 0.41219    |   0.0 |  0.87
Output  | 0.04007    | 0.04007    | 0.04007    |   0.0 |  0.08
Modify  | 0.66118    | 0.66118    | 0.66118    |   0.0 |  1.39
Other   |            | 0.1576     |            |       |  0.33

Nlocal:    19652 ave 19652 max 19652 min
Histogram: 1 0 0 0 0 0 0 0 0 0
Nghost:    15888 ave 15888 max 15888 min
Histogram: 1 0 0 0 0 0 0 0 0 0
Neighs:    1.06202e+06 ave 1.06202e+06 max 1.06202e+06 min
Histogram: 1 0 0 0 0 0 0 0 0 0

Total # of neighbors = 1062017
Ave neighs/atom = 54.0412
Neighbor list builds = 495
Dangerous builds not checked
Setting up Verlet run ...
  Unit style    : metal
  Current step  : 67842
  Time step     : 0.001
Per MPI rank memory allocation (min/avg/max) = 18.22 | 18.22 | 18.22 Mbytes
Step Temp Press TotEng PotEng Enthalpy Volume 
   67842    376.42357    187.57491   -27008.915   -27965.065   -26953.537    473009.52 
   68014    365.99959   -140.68599   -27068.995   -27998.667   -27110.521    472913.27 
Loop time of 16.4737 on 1 procs for 172 steps with 19652 atoms

Performance: 0.902 ns/day, 26.605 hours/ns, 10.441 timesteps/s
100.1% CPU use with 1 MPI tasks x no OpenMP threads

MPI task timing breakdown:
Section |  min time  |  avg time  |  max time  |%varavg| %total
---------------------------------------------------------------
Pair    | 9.0013     | 9.0013     | 9.0013     |   0.0 | 54.64
Neigh   | 7.0482     | 7.0482     | 7.0482     |   0.0 | 42.78
Comm    | 0.13857    | 0.13857    | 0.13857    |   0.0 |  0.84
Output  | 0.00012898 | 0.00012898 | 0.00012898 |   0.0 |  0.00
Modify  | 0.22706    | 0.22706    | 0.22706    |   0.0 |  1.38
Other   |            | 0.05846    |            |       |  0.35

Nlocal:    19652 ave 19652 max 19652 min
Histogram: 1 0 0 0 0 0 0 0 0 0
Nghost:    15887 ave 15887 max 15887 min
Histogram: 1 0 0 0 0 0 0 0 0 0
Neighs:    1.06261e+06 ave 1.06261e+06 max 1.06261e+06 min
Histogram: 1 0 0 0 0 0 0 0 0 0

Total # of neighbors = 1062607
Ave neighs/atom = 54.0712
Neighbor list builds = 172
Dangerous builds not checked
Setting up Verlet run ...
  Unit style    : metal
  Current step  : 68014
  Time step     : 0.001
Per MPI rank memory allocation (min/avg/max) = 18.22 | 18.22 | 18.22 Mbytes
Step Temp Press TotEng PotEng Enthalpy Volume 
   68014    365.99959   -140.68599   -27068.995   -27998.667   -27110.521    472913.27 
   68034    365.91977   -132.08862   -27070.792   -28000.261   -27109.779    472893.53 
   68509    325.68325    43.512245   -27300.361   -28127.626    -27287.58    470631.36 
Loop time of 48.3946 on 1 procs for 495 steps with 19652 atoms

Performance: 0.884 ns/day, 27.157 hours/ns, 10.228 timesteps/s
99.8% CPU use with 1 MPI tasks x no OpenMP threads

MPI task timing breakdown:
Section |  min time  |  avg time  |  max time  |%varavg| %total
---------------------------------------------------------------
Pair    | 26.353     | 26.353     | 26.353     |   0.0 | 54.45
Neigh   | 20.762     | 20.762     | 20.762     |   0.0 | 42.90
Comm    | 0.41243    | 0.41243    | 0.41243    |   0.0 |  0.85
Output  | 0.039318   | 0.039318   | 0.039318   |   0.0 |  0.08
Modify  | 0.66804    | 0.66804    | 0.66804    |   0.0 |  1.38
Other   |            | 0.1605     |            |       |  0.33

Nlocal:    19652 ave 19652 max 19652 min
Histogram: 1 0 0 0 0 0 0 0 0 0
Nghost:    15873 ave 15873 max 15873 min
Histogram: 1 0 0 0 0 0 0 0 0 0
Neighs:    1.06871e+06 ave 1.06871e+06 max 1.06871e+06 min
Histogram: 1 0 0 0 0 0 0 0 0 0

Total # of neighbors = 1068710
Ave neighs/atom = 54.3817
Neighbor list builds = 495
Dangerous builds not checked
Setting up Verlet run ...
  Unit style    : metal
  Current step  : 68509
  Time step     : 0.001
Per MPI rank memory allocation (min/avg/max) = 18.22 | 18.22 | 18.22 Mbytes
Step Temp Press TotEng PotEng Enthalpy Volume 
   68509    325.68325    43.512245   -27300.361   -28127.626    -27287.58    470631.36 
   68681    316.32839     5.502838   -27358.512   -28162.015   -27356.897    470333.48 
Loop time of 16.391 on 1 procs for 172 steps with 19652 atoms

Performance: 0.907 ns/day, 26.471 hours/ns, 10.494 timesteps/s
100.1% CPU use with 1 MPI tasks x no OpenMP threads

MPI task timing breakdown:
Section |  min time  |  avg time  |  max time  |%varavg| %total
---------------------------------------------------------------
Pair    | 8.9152     | 8.9152     | 8.9152     |   0.0 | 54.39
Neigh   | 7.0545     | 7.0545     | 7.0545     |   0.0 | 43.04
Comm    | 0.13971    | 0.13971    | 0.13971    |   0.0 |  0.85
Output  | 0.00014114 | 0.00014114 | 0.00014114 |   0.0 |  0.00
Modify  | 0.22829    | 0.22829    | 0.22829    |   0.0 |  1.39
Other   |            | 0.05316    |            |       |  0.32

Nlocal:    19652 ave 19652 max 19652 min
Histogram: 1 0 0 0 0 0 0 0 0 0
Nghost:    15909 ave 15909 max 15909 min
Histogram: 1 0 0 0 0 0 0 0 0 0
Neighs:    1.06994e+06 ave 1.06994e+06 max 1.06994e+06 min
Histogram: 1 0 0 0 0 0 0 0 0 0

Total # of neighbors = 1069945
Ave neighs/atom = 54.4446
Neighbor list builds = 172
Dangerous builds not checked
Setting up Verlet run ...
  Unit style    : metal
  Current step  : 68681
  Time step     : 0.001
Per MPI rank memory allocation (min/avg/max) = 18.22 | 18.22 | 18.22 Mbytes
Step Temp Press TotEng PotEng Enthalpy Volume 
   68681    316.32839     5.502838   -27358.512   -28162.015   -27356.897    470333.48 
   68701    318.06262   -50.669895    -27360.43   -28168.338   -27375.305    470331.88 
   69176    278.12972   -14.965735   -27585.755    -28292.23    -27590.13    468394.91 
Loop time of 47.8596 on 1 procs for 495 steps with 19652 atoms

Performance: 0.894 ns/day, 26.857 hours/ns, 10.343 timesteps/s
100.0% CPU use with 1 MPI tasks x no OpenMP threads

MPI task timing breakdown:
Section |  min time  |  avg time  |  max time  |%varavg| %total
---------------------------------------------------------------
Pair    | 26.047     | 26.047     | 26.047     |   0.0 | 54.42
Neigh   | 20.532     | 20.532     | 20.532     |   0.0 | 42.90
Comm    | 0.41617    | 0.41617    | 0.41617    |   0.0 |  0.87
Output  | 0.04011    | 0.04011    | 0.04011    |   0.0 |  0.08
Modify  | 0.66603    | 0.66603    | 0.66603    |   0.0 |  1.39
Other   |            | 0.1578     |            |       |  0.33

Nlocal:    19652 ave 19652 max 19652 min
Histogram: 1 0 0 0 0 0 0 0 0 0
Nghost:    15944 ave 15944 max 15944 min
Histogram: 1 0 0 0 0 0 0 0 0 0
Neighs:    1.07561e+06 ave 1.07561e+06 max 1.07561e+06 min
Histogram: 1 0 0 0 0 0 0 0 0 0

Total # of neighbors = 1075607
Ave neighs/atom = 54.7327
Neighbor list builds = 495
Dangerous builds not checked
Setting up Verlet run ...
  Unit style    : metal
  Current step  : 69176
  Time step     : 0.001
Per MPI rank memory allocation (min/avg/max) = 18.22 | 18.22 | 18.22 Mbytes
Step Temp Press TotEng PotEng Enthalpy Volume 
   69176    278.12972   -14.965735   -27585.755    -28292.23    -27590.13    468394.91 
   69348    268.34106   -56.794026   -27642.255   -28323.866   -27658.843    467952.76 
Loop time of 16.5374 on 1 procs for 172 steps with 19652 atoms

Performance: 0.899 ns/day, 26.708 hours/ns, 10.401 timesteps/s
100.1% CPU use with 1 MPI tasks x no OpenMP threads

MPI task timing breakdown:
Section |  min time  |  avg time  |  max time  |%varavg| %total
---------------------------------------------------------------
Pair    | 9.0149     | 9.0149     | 9.0149     |   0.0 | 54.51
Neigh   | 7.099      | 7.099      | 7.099      |   0.0 | 42.93
Comm    | 0.14128    | 0.14128    | 0.14128    |   0.0 |  0.85
Output  | 0.00013304 | 0.00013304 | 0.00013304 |   0.0 |  0.00
Modify  | 0.22954    | 0.22954    | 0.22954    |   0.0 |  1.39
Other   |            | 0.05262    |            |       |  0.32

Nlocal:    19652 ave 19652 max 19652 min
Histogram: 1 0 0 0 0 0 0 0 0 0
Nghost:    15941 ave 15941 max 15941 min
Histogram: 1 0 0 0 0 0 0 0 0 0
Neighs:    1.07652e+06 ave 1.07652e+06 max 1.07652e+06 min
Histogram: 1 0 0 0 0 0 0 0 0 0

Total # of neighbors = 1076519
Ave neighs/atom = 54.7791
Neighbor list builds = 172
Dangerous builds not checked
Setting up Verlet run ...
  Unit style    : metal
  Current step  : 69348
  Time step     : 0.001
Per MPI rank memory allocation (min/avg/max) = 18.22 | 18.22 | 18.22 Mbytes
Step Temp Press TotEng PotEng Enthalpy Volume 
   69348    268.34106   -56.794026   -27642.255   -28323.866   -27658.843    467952.76 
   69368    269.96595   -82.407725   -27644.436   -28330.174   -27668.504    467939.45 
   69843    229.65228   -10.210865   -27861.627   -28444.965   -27864.598    466168.88 
Loop time of 47.633 on 1 procs for 495 steps with 19652 atoms

Performance: 0.898 ns/day, 26.730 hours/ns, 10.392 timesteps/s
100.0% CPU use with 1 MPI tasks x no OpenMP threads

MPI task timing breakdown:
Section |  min time  |  avg time  |  max time  |%varavg| %total
---------------------------------------------------------------
Pair    | 25.951     | 25.951     | 25.951     |   0.0 | 54.48
Neigh   | 20.399     | 20.399     | 20.399     |   0.0 | 42.83
Comm    | 0.40949    | 0.40949    | 0.40949    |   0.0 |  0.86
Output  | 0.061227   | 0.061227   | 0.061227   |   0.0 |  0.13
Modify  | 0.66051    | 0.66051    | 0.66051    |   0.0 |  1.39
Other   |            | 0.1521     |            |       |  0.32

Nlocal:    19652 ave 19652 max 19652 min
Histogram: 1 0 0 0 0 0 0 0 0 0
Nghost:    15957 ave 15957 max 15957 min
Histogram: 1 0 0 0 0 0 0 0 0 0
Neighs:    1.08226e+06 ave 1.08226e+06 max 1.08226e+06 min
Histogram: 1 0 0 0 0 0 0 0 0 0

Total # of neighbors = 1082264
Ave neighs/atom = 55.0714
Neighbor list builds = 495
Dangerous builds not checked
Setting up Verlet run ...
  Unit style    : metal
  Current step  : 69843
  Time step     : 0.001
Per MPI rank memory allocation (min/avg/max) = 18.22 | 18.22 | 18.22 Mbytes
Step Temp Press TotEng PotEng Enthalpy Volume 
   69843    229.65228   -10.210865   -27861.627   -28444.965   -27864.598    466168.88 
   70015    217.70044    83.281184    -27918.31   -28471.289   -27894.106    465637.61 
Loop time of 16.4724 on 1 procs for 172 steps with 19652 atoms

Performance: 0.902 ns/day, 26.603 hours/ns, 10.442 timesteps/s
100.1% CPU use with 1 MPI tasks x no OpenMP threads

MPI task timing breakdown:
Section |  min time  |  avg time  |  max time  |%varavg| %total
---------------------------------------------------------------
Pair    | 8.9884     | 8.9884     | 8.9884     |   0.0 | 54.57
Neigh   | 7.0547     | 7.0547     | 7.0547     |   0.0 | 42.83
Comm    | 0.14376    | 0.14376    | 0.14376    |   0.0 |  0.87
Output  | 0.00014091 | 0.00014091 | 0.00014091 |   0.0 |  0.00
Modify  | 0.2318     | 0.2318     | 0.2318     |   0.0 |  1.41
Other   |            | 0.05355    |            |       |  0.33

Nlocal:    19652 ave 19652 max 19652 min
Histogram: 1 0 0 0 0 0 0 0 0 0
Nghost:    15946 ave 15946 max 15946 min
Histogram: 1 0 0 0 0 0 0 0 0 0
Neighs:    1.0836e+06 ave 1.0836e+06 max 1.0836e+06 min
Histogram: 1 0 0 0 0 0 0 0 0 0

Total # of neighbors = 1083596
Ave neighs/atom = 55.1392
Neighbor list builds = 172
Dangerous builds not checked
Setting up Verlet run ...
  Unit style    : metal
  Current step  : 70015
  Time step     : 0.001
Per MPI rank memory allocation (min/avg/max) = 18.22 | 18.22 | 18.22 Mbytes
Step Temp Press TotEng PotEng Enthalpy Volume 
   70015    217.70044    83.281184    -27918.31   -28471.289   -27894.106    465637.61 
   70035    219.70393    23.753951   -27920.428   -28478.496   -27913.524     465654.1 
   70510    182.70865   -86.079149   -28131.161   -28595.257   -28156.101    464204.88 
Loop time of 47.9317 on 1 procs for 495 steps with 19652 atoms

Performance: 0.892 ns/day, 26.898 hours/ns, 10.327 timesteps/s
100.1% CPU use with 1 MPI tasks x no OpenMP threads

MPI task timing breakdown:
Section |  min time  |  avg time  |  max time  |%varavg| %total
---------------------------------------------------------------
Pair    | 26.164     | 26.164     | 26.164     |   0.0 | 54.59
Neigh   | 20.495     | 20.495     | 20.495     |   0.0 | 42.76
Comm    | 0.41479    | 0.41479    | 0.41479    |   0.0 |  0.87
Output  | 0.040588   | 0.040588   | 0.040588   |   0.0 |  0.08
Modify  | 0.66487    | 0.66487    | 0.66487    |   0.0 |  1.39
Other   |            | 0.1523     |            |       |  0.32

Nlocal:    19652 ave 19652 max 19652 min
Histogram: 1 0 0 0 0 0 0 0 0 0
Nghost:    15912 ave 15912 max 15912 min
Histogram: 1 0 0 0 0 0 0 0 0 0
Neighs:    1.08803e+06 ave 1.08803e+06 max 1.08803e+06 min
Histogram: 1 0 0 0 0 0 0 0 0 0

Total # of neighbors = 1088032
Ave neighs/atom = 55.365
Neighbor list builds = 495
Dangerous builds not checked
Setting up Verlet run ...
  Unit style    : metal
  Current step  : 70510
  Time step     : 0.001
Per MPI rank memory allocation (min/avg/max) = 18.22 | 18.22 | 18.22 Mbytes
Step Temp Press TotEng PotEng Enthalpy Volume 
   70510    182.70865   -86.079149   -28131.161   -28595.257   -28156.101    464204.88 
   70682    170.93772   -86.229488   -28186.819   -28621.017   -28211.779    463766.05 
Loop time of 16.5485 on 1 procs for 172 steps with 19652 atoms

Performance: 0.898 ns/day, 26.726 hours/ns, 10.394 timesteps/s
100.1% CPU use with 1 MPI tasks x no OpenMP threads

MPI task timing breakdown:
Section |  min time  |  avg time  |  max time  |%varavg| %total
---------------------------------------------------------------
Pair    | 9.0513     | 9.0513     | 9.0513     |   0.0 | 54.70
Neigh   | 7.0735     | 7.0735     | 7.0735     |   0.0 | 42.74
Comm    | 0.14074    | 0.14074    | 0.14074    |   0.0 |  0.85
Output  | 0.00014186 | 0.00014186 | 0.00014186 |   0.0 |  0.00
Modify  | 0.22976    | 0.22976    | 0.22976    |   0.0 |  1.39
Other   |            | 0.05304    |            |       |  0.32

Nlocal:    19652 ave 19652 max 19652 min
Histogram: 1 0 0 0 0 0 0 0 0 0
Nghost:    15977 ave 15977 max 15977 min
Histogram: 1 0 0 0 0 0 0 0 0 0
Neighs:    1.08935e+06 ave 1.08935e+06 max 1.08935e+06 min
Histogram: 1 0 0 0 0 0 0 0 0 0

Total # of neighbors = 1089352
Ave neighs/atom = 55.4321
Neighbor list builds = 172
Dangerous builds not checked
Setting up Verlet run ...
  Unit style    : metal
  Current step  : 70682
  Time step     : 0.001
Per MPI rank memory allocation (min/avg/max) = 18.22 | 18.22 | 18.22 Mbytes
Step Temp Press TotEng PotEng Enthalpy Volume 
   70682    170.93772   -86.229488   -28186.819   -28621.017   -28211.779    463766.05 
   70702    171.58673   -87.534361   -28189.314    -28625.16    -28214.65    463736.74 
   71177     132.9402   -31.257846   -28393.016   -28730.696   -28402.032    462120.45 
Loop time of 47.7529 on 1 procs for 495 steps with 19652 atoms

Performance: 0.896 ns/day, 26.797 hours/ns, 10.366 timesteps/s
100.1% CPU use with 1 MPI tasks x no OpenMP threads

MPI task timing breakdown:
Section |  min time  |  avg time  |  max time  |%varavg| %total
---------------------------------------------------------------
Pair    | 26.111     | 26.111     | 26.111     |   0.0 | 54.68
Neigh   | 20.375     | 20.375     | 20.375     |   0.0 | 42.67
Comm    | 0.40958    | 0.40958    | 0.40958    |   0.0 |  0.86
Output  | 0.03985    | 0.03985    | 0.03985    |   0.0 |  0.08
Modify  | 0.664      | 0.664      | 0.664      |   0.0 |  1.39
Other   |            | 0.153      |            |       |  0.32

Nlocal:    19652 ave 19652 max 19652 min
Histogram: 1 0 0 0 0 0 0 0 0 0
Nghost:    15984 ave 15984 max 15984 min
Histogram: 1 0 0 0 0 0 0 0 0 0
Neighs:    1.09387e+06 ave 1.09387e+06 max 1.09387e+06 min
Histogram: 1 0 0 0 0 0 0 0 0 0

Total # of neighbors = 1093874
Ave neighs/atom = 55.6622
Neighbor list builds = 495
Dangerous builds not checked
Setting up Verlet run ...
  Unit style    : metal
  Current step  : 71177
  Time step     : 0.001
Per MPI rank memory allocation (min/avg/max) = 18.22 | 18.22 | 18.22 Mbytes
Step Temp Press TotEng PotEng Enthalpy Volume 
   71177     132.9402   -31.257846   -28393.016   -28730.696   -28402.032    462120.45 
   71349    121.86871   -80.527385   -28448.098   -28757.655   -28471.308    461787.81 
Loop time of 16.8011 on 1 procs for 172 steps with 19652 atoms

Performance: 0.885 ns/day, 27.134 hours/ns, 10.237 timesteps/s
100.1% CPU use with 1 MPI tasks x no OpenMP threads

MPI task timing breakdown:
Section |  min time  |  avg time  |  max time  |%varavg| %total
---------------------------------------------------------------
Pair    | 9.1904     | 9.1904     | 9.1904     |   0.0 | 54.70
Neigh   | 7.1811     | 7.1811     | 7.1811     |   0.0 | 42.74
Comm    | 0.14234    | 0.14234    | 0.14234    |   0.0 |  0.85
Output  | 0.00013399 | 0.00013399 | 0.00013399 |   0.0 |  0.00
Modify  | 0.23031    | 0.23031    | 0.23031    |   0.0 |  1.37
Other   |            | 0.05674    |            |       |  0.34

Nlocal:    19652 ave 19652 max 19652 min
Histogram: 1 0 0 0 0 0 0 0 0 0
Nghost:    15975 ave 15975 max 15975 min
Histogram: 1 0 0 0 0 0 0 0 0 0
Neighs:    1.09486e+06 ave 1.09486e+06 max 1.09486e+06 min
Histogram: 1 0 0 0 0 0 0 0 0 0

Total # of neighbors = 1094861
Ave neighs/atom = 55.7124
Neighbor list builds = 172
Dangerous builds not checked
Total wall time: 1:40:53
