LAMMPS (12 Dec 2018)
Lattice spacing in x,y,z = 4 4 4
Created orthogonal box = (0 0 0) to (68 68 68)
  1 by 1 by 1 MPI processor grid
Created 19652 atoms
  Time spent = 0.00401115 secs
Setting atom values ...
  206 settings made for type/fraction
Neighbor list info ...
  update every 1 steps, delay 0 steps, check no
  max neighbors/atom: 2000, page size: 100000
  master list distance cutoff = 8.5
  ghost atom cutoff = 8.5
  binsize = 4.25, bins = 16 16 16
  1 neighbor lists, perpetual/occasional/extra = 1 0 0
  (1) pair eam/alloy, perpetual
      attributes: half, newton on
      pair build: half/bin/atomonly/newton
      stencil: half/bin/3d/newton
      bin: standard
Setting up Verlet run ...
  Unit style    : metal
  Current step  : 0
  Time step     : 0.001
Per MPI rank memory allocation (min/avg/max) = 18.19 | 18.19 | 18.19 Mbytes
Step Temp Press TotEng PotEng Enthalpy 
       0          300    1211511.3   -18369.104   -19131.132    219393.67 
    1000    155.83261    1214760.3   -18368.967   -18764.797    220031.44 
Loop time of 146.802 on 1 procs for 1000 steps with 19652 atoms

Performance: 0.589 ns/day, 40.778 hours/ns, 6.812 timesteps/s
99.2% CPU use with 1 MPI tasks x no OpenMP threads

MPI task timing breakdown:
Section |  min time  |  avg time  |  max time  |%varavg| %total
---------------------------------------------------------------
Pair    | 83.075     | 83.075     | 83.075     |   0.0 | 56.59
Neigh   | 61.855     | 61.855     | 61.855     |   0.0 | 42.14
Comm    | 1.116      | 1.116      | 1.116      |   0.0 |  0.76
Output  | 0.00015092 | 0.00015092 | 0.00015092 |   0.0 |  0.00
Modify  | 0.38614    | 0.38614    | 0.38614    |   0.0 |  0.26
Other   |            | 0.3694     |            |       |  0.25

Nlocal:    19652 ave 19652 max 19652 min
Histogram: 1 0 0 0 0 0 0 0 0 0
Nghost:    20102 ave 20102 max 20102 min
Histogram: 1 0 0 0 0 0 0 0 0 0
Neighs:    1.59376e+06 ave 1.59376e+06 max 1.59376e+06 min
Histogram: 1 0 0 0 0 0 0 0 0 0

Total # of neighbors = 1593760
Ave neighs/atom = 81.0991
Neighbor list builds = 1000
Dangerous builds not checked
Setting up Verlet run ...
  Unit style    : metal
  Current step  : 1000
  Time step     : 0.001
Per MPI rank memory allocation (min/avg/max) = 18.19 | 18.19 | 18.19 Mbytes
Step Temp Press TotEng PotEng Enthalpy 
    1000    155.83261    1214760.3   -18368.967   -18764.797    220031.44 
    2000    173.92786    1503.2464   -86373.589   -86815.382   -85684.697 
Loop time of 90.7227 on 1 procs for 1000 steps with 19652 atoms

Performance: 0.952 ns/day, 25.201 hours/ns, 11.023 timesteps/s
99.9% CPU use with 1 MPI tasks x no OpenMP threads

MPI task timing breakdown:
Section |  min time  |  avg time  |  max time  |%varavg| %total
---------------------------------------------------------------
Pair    | 45.857     | 45.857     | 45.857     |   0.0 | 50.55
Neigh   | 42.38      | 42.38      | 42.38      |   0.0 | 46.71
Comm    | 0.90743    | 0.90743    | 0.90743    |   0.0 |  1.00
Output  | 0.00012302 | 0.00012302 | 0.00012302 |   0.0 |  0.00
Modify  | 1.2522     | 1.2522     | 1.2522     |   0.0 |  1.38
Other   |            | 0.3267     |            |       |  0.36

Nlocal:    19652 ave 19652 max 19652 min
Histogram: 1 0 0 0 0 0 0 0 0 0
Nghost:    14807 ave 14807 max 14807 min
Histogram: 1 0 0 0 0 0 0 0 0 0
Neighs:    705925 ave 705925 max 705925 min
Histogram: 1 0 0 0 0 0 0 0 0 0

Total # of neighbors = 705925
Ave neighs/atom = 35.9213
Neighbor list builds = 1000
Dangerous builds not checked
Setting up Verlet run ...
  Unit style    : metal
  Current step  : 2000
  Time step     : 0.001
Per MPI rank memory allocation (min/avg/max) = 18.22 | 18.22 | 18.22 Mbytes
Step Temp Press TotEng PotEng Enthalpy 
    2000    173.92786    1503.2464   -86373.589   -86815.382   -85684.697 
    5000    1099.5549     291.1225   -80691.251   -83484.221   -80548.821 
   10000    2442.9731    -83.95423   -73904.792   -80110.167   -73948.553 
Loop time of 609.411 on 1 procs for 8000 steps with 19652 atoms

Performance: 1.134 ns/day, 21.160 hours/ns, 13.127 timesteps/s
99.3% CPU use with 1 MPI tasks x no OpenMP threads

MPI task timing breakdown:
Section |  min time  |  avg time  |  max time  |%varavg| %total
---------------------------------------------------------------
Pair    | 284.41     | 284.41     | 284.41     |   0.0 | 46.67
Neigh   | 303.84     | 303.84     | 303.84     |   0.0 | 49.86
Comm    | 7.3431     | 7.3431     | 7.3431     |   0.0 |  1.20
Output  | 0.11146    | 0.11146    | 0.11146    |   0.0 |  0.02
Modify  | 10.928     | 10.928     | 10.928     |   0.0 |  1.79
Other   |            | 2.773      |            |       |  0.45

Nlocal:    19652 ave 19652 max 19652 min
Histogram: 1 0 0 0 0 0 0 0 0 0
Nghost:    12737 ave 12737 max 12737 min
Histogram: 1 0 0 0 0 0 0 0 0 0
Neighs:    586729 ave 586729 max 586729 min
Histogram: 1 0 0 0 0 0 0 0 0 0

Total # of neighbors = 586729
Ave neighs/atom = 29.8559
Neighbor list builds = 8000
Dangerous builds not checked
Setting up Verlet run ...
  Unit style    : metal
  Current step  : 10000
  Time step     : 0.001
Per MPI rank memory allocation (min/avg/max) = 18.24 | 18.24 | 18.24 Mbytes
Step Temp Press TotEng PotEng Enthalpy 
   10000    2442.9731    -83.95423   -73904.792   -80110.167   -73948.553 
   15000    2434.9838   -314.75444    -73939.82   -80124.901   -74103.975 
   20000    2431.2973   -118.46247   -73900.749   -80076.466   -73962.522 
   25000    2450.4012   -793.77619   -73867.856   -80092.098   -74282.887 
   30000    2471.7191    380.68838    -73823.19   -80101.582   -73624.808 
   35000    2454.2228    701.18907   -73842.496   -80076.445   -73477.617 
   40000    2445.6103    183.37751   -73784.026   -79996.099   -73688.341 
Loop time of 2520.82 on 1 procs for 30000 steps with 19652 atoms

Performance: 1.028 ns/day, 23.341 hours/ns, 11.901 timesteps/s
99.3% CPU use with 1 MPI tasks x no OpenMP threads

MPI task timing breakdown:
Section |  min time  |  avg time  |  max time  |%varavg| %total
---------------------------------------------------------------
Pair    | 1227.5     | 1227.5     | 1227.5     |   0.0 | 48.69
Neigh   | 1204.1     | 1204.1     | 1204.1     |   0.0 | 47.77
Comm    | 30.656     | 30.656     | 30.656     |   0.0 |  1.22
Output  | 2.1327     | 2.1327     | 2.1327     |   0.0 |  0.08
Modify  | 44.692     | 44.692     | 44.692     |   0.0 |  1.77
Other   |            | 11.79      |            |       |  0.47

Nlocal:    19652 ave 19652 max 19652 min
Histogram: 1 0 0 0 0 0 0 0 0 0
Nghost:    12688 ave 12688 max 12688 min
Histogram: 1 0 0 0 0 0 0 0 0 0
Neighs:    586375 ave 586375 max 586375 min
Histogram: 1 0 0 0 0 0 0 0 0 0

Total # of neighbors = 586375
Ave neighs/atom = 29.8379
Neighbor list builds = 30000
Dangerous builds not checked
Setting up Verlet run ...
  Unit style    : metal
  Current step  : 40000
  Time step     : 0.001
Per MPI rank memory allocation (min/avg/max) = 18.24 | 18.24 | 18.24 Mbytes
Step Temp Press TotEng PotEng Enthalpy 
   40000    2445.6103    183.37751   -73784.026   -79996.099   -73688.341 
   40495    2414.5247    322.15272   -73970.048   -80103.161   -73802.372 
Loop time of 37.6564 on 1 procs for 495 steps with 19652 atoms

Performance: 1.136 ns/day, 21.132 hours/ns, 13.145 timesteps/s
99.5% CPU use with 1 MPI tasks x no OpenMP threads

MPI task timing breakdown:
Section |  min time  |  avg time  |  max time  |%varavg| %total
---------------------------------------------------------------
Pair    | 17.741     | 17.741     | 17.741     |   0.0 | 47.11
Neigh   | 18.532     | 18.532     | 18.532     |   0.0 | 49.21
Comm    | 0.47029    | 0.47029    | 0.47029    |   0.0 |  1.25
Output  | 0.00014901 | 0.00014901 | 0.00014901 |   0.0 |  0.00
Modify  | 0.73173    | 0.73173    | 0.73173    |   0.0 |  1.94
Other   |            | 0.1817     |            |       |  0.48

Nlocal:    19652 ave 19652 max 19652 min
Histogram: 1 0 0 0 0 0 0 0 0 0
Nghost:    12674 ave 12674 max 12674 min
Histogram: 1 0 0 0 0 0 0 0 0 0
Neighs:    587758 ave 587758 max 587758 min
Histogram: 1 0 0 0 0 0 0 0 0 0

Total # of neighbors = 587758
Ave neighs/atom = 29.9083
Neighbor list builds = 495
Dangerous builds not checked
Setting up Verlet run ...
  Unit style    : metal
  Current step  : 40495
  Time step     : 0.001
Per MPI rank memory allocation (min/avg/max) = 18.24 | 18.24 | 18.24 Mbytes
Step Temp Press TotEng PotEng Enthalpy 
   40495    2414.5247    322.15272   -73970.048   -80103.161   -73802.372 
   45000    2391.0641   -626.69349   -74047.938   -80121.459   -74375.177 
Loop time of 372.633 on 1 procs for 4505 steps with 19652 atoms

Performance: 1.045 ns/day, 22.977 hours/ns, 12.090 timesteps/s
99.3% CPU use with 1 MPI tasks x no OpenMP threads

MPI task timing breakdown:
Section |  min time  |  avg time  |  max time  |%varavg| %total
---------------------------------------------------------------
Pair    | 179.62     | 179.62     | 179.62     |   0.0 | 48.20
Neigh   | 179.92     | 179.92     | 179.92     |   0.0 | 48.28
Comm    | 4.5398     | 4.5398     | 4.5398     |   0.0 |  1.22
Output  | 0.08028    | 0.08028    | 0.08028    |   0.0 |  0.02
Modify  | 6.7381     | 6.7381     | 6.7381     |   0.0 |  1.81
Other   |            | 1.731      |            |       |  0.46

Nlocal:    19652 ave 19652 max 19652 min
Histogram: 1 0 0 0 0 0 0 0 0 0
Nghost:    12717 ave 12717 max 12717 min
Histogram: 1 0 0 0 0 0 0 0 0 0
Neighs:    586379 ave 586379 max 586379 min
Histogram: 1 0 0 0 0 0 0 0 0 0

Total # of neighbors = 586379
Ave neighs/atom = 29.8381
Neighbor list builds = 4505
Dangerous builds not checked
Setting up Verlet run ...
  Unit style    : metal
  Current step  : 45000
  Time step     : 0.001
Per MPI rank memory allocation (min/avg/max) = 18.24 | 18.24 | 18.24 Mbytes
Step Temp Press TotEng PotEng Enthalpy 
   45000    2391.0641   -626.69349   -74047.938   -80121.459   -74375.177 
   45495     2345.809   -24.721939   -74295.887   -80254.455   -74308.724 
Loop time of 40.8233 on 1 procs for 495 steps with 19652 atoms

Performance: 1.048 ns/day, 22.909 hours/ns, 12.125 timesteps/s
99.0% CPU use with 1 MPI tasks x no OpenMP threads

MPI task timing breakdown:
Section |  min time  |  avg time  |  max time  |%varavg| %total
---------------------------------------------------------------
Pair    | 19.657     | 19.657     | 19.657     |   0.0 | 48.15
Neigh   | 19.718     | 19.718     | 19.718     |   0.0 | 48.30
Comm    | 0.49941    | 0.49941    | 0.49941    |   0.0 |  1.22
Output  | 0.00016499 | 0.00016499 | 0.00016499 |   0.0 |  0.00
Modify  | 0.7569     | 0.7569     | 0.7569     |   0.0 |  1.85
Other   |            | 0.192      |            |       |  0.47

Nlocal:    19652 ave 19652 max 19652 min
Histogram: 1 0 0 0 0 0 0 0 0 0
Nghost:    12664 ave 12664 max 12664 min
Histogram: 1 0 0 0 0 0 0 0 0 0
Neighs:    589385 ave 589385 max 589385 min
Histogram: 1 0 0 0 0 0 0 0 0 0

Total # of neighbors = 589385
Ave neighs/atom = 29.9911
Neighbor list builds = 495
Dangerous builds not checked
Setting up Verlet run ...
  Unit style    : metal
  Current step  : 45495
  Time step     : 0.001
Per MPI rank memory allocation (min/avg/max) = 18.24 | 18.24 | 18.24 Mbytes
Step Temp Press TotEng PotEng Enthalpy 
   45495     2345.809   -24.721939   -74295.887   -80254.455   -74308.724 
   50000    2370.3154    -422.9291   -74256.228   -80277.045   -74476.275 
Loop time of 397.646 on 1 procs for 4505 steps with 19652 atoms

Performance: 0.979 ns/day, 24.519 hours/ns, 11.329 timesteps/s
97.3% CPU use with 1 MPI tasks x no OpenMP threads

MPI task timing breakdown:
Section |  min time  |  avg time  |  max time  |%varavg| %total
---------------------------------------------------------------
Pair    | 194.83     | 194.83     | 194.83     |   0.0 | 48.99
Neigh   | 188.39     | 188.39     | 188.39     |   0.0 | 47.38
Comm    | 4.8787     | 4.8787     | 4.8787     |   0.0 |  1.23
Output  | 0.30169    | 0.30169    | 0.30169    |   0.0 |  0.08
Modify  | 7.3001     | 7.3001     | 7.3001     |   0.0 |  1.84
Other   |            | 1.949      |            |       |  0.49

Nlocal:    19652 ave 19652 max 19652 min
Histogram: 1 0 0 0 0 0 0 0 0 0
Nghost:    12684 ave 12684 max 12684 min
Histogram: 1 0 0 0 0 0 0 0 0 0
Neighs:    588440 ave 588440 max 588440 min
Histogram: 1 0 0 0 0 0 0 0 0 0

Total # of neighbors = 588440
Ave neighs/atom = 29.943
Neighbor list builds = 4505
Dangerous builds not checked
Setting up Verlet run ...
  Unit style    : metal
  Current step  : 50000
  Time step     : 0.001
Per MPI rank memory allocation (min/avg/max) = 18.24 | 18.24 | 18.24 Mbytes
Step Temp Press TotEng PotEng Enthalpy 
   50000    2370.3154    -422.9291   -74256.228   -80277.045   -74476.275 
   50495    2307.3501   -32.501032   -74496.891   -80357.771   -74513.739 
Loop time of 44.3543 on 1 procs for 495 steps with 19652 atoms

Performance: 0.964 ns/day, 24.890 hours/ns, 11.160 timesteps/s
99.2% CPU use with 1 MPI tasks x no OpenMP threads

MPI task timing breakdown:
Section |  min time  |  avg time  |  max time  |%varavg| %total
---------------------------------------------------------------
Pair    | 21.73      | 21.73      | 21.73      |   0.0 | 48.99
Neigh   | 21.129     | 21.129     | 21.129     |   0.0 | 47.64
Comm    | 0.54396    | 0.54396    | 0.54396    |   0.0 |  1.23
Output  | 0.00017905 | 0.00017905 | 0.00017905 |   0.0 |  0.00
Modify  | 0.73803    | 0.73803    | 0.73803    |   0.0 |  1.66
Other   |            | 0.213      |            |       |  0.48

Nlocal:    19652 ave 19652 max 19652 min
Histogram: 1 0 0 0 0 0 0 0 0 0
Nghost:    12701 ave 12701 max 12701 min
Histogram: 1 0 0 0 0 0 0 0 0 0
Neighs:    590014 ave 590014 max 590014 min
Histogram: 1 0 0 0 0 0 0 0 0 0

Total # of neighbors = 590014
Ave neighs/atom = 30.0231
Neighbor list builds = 495
Dangerous builds not checked
Setting up Verlet run ...
  Unit style    : metal
  Current step  : 50495
  Time step     : 0.001
Per MPI rank memory allocation (min/avg/max) = 18.24 | 18.24 | 18.24 Mbytes
Step Temp Press TotEng PotEng Enthalpy 
   50495    2307.3501   -32.501032   -74496.891   -80357.771   -74513.739 
   55000    2292.7265   -193.43659   -74606.554   -80430.288   -74706.792 
Loop time of 411.095 on 1 procs for 4505 steps with 19652 atoms

Performance: 0.947 ns/day, 25.348 hours/ns, 10.959 timesteps/s
98.6% CPU use with 1 MPI tasks x no OpenMP threads

MPI task timing breakdown:
Section |  min time  |  avg time  |  max time  |%varavg| %total
---------------------------------------------------------------
Pair    | 203.87     | 203.87     | 203.87     |   0.0 | 49.59
Neigh   | 192.77     | 192.77     | 192.77     |   0.0 | 46.89
Comm    | 5.1097     | 5.1097     | 5.1097     |   0.0 |  1.24
Output  | 0.083614   | 0.083614   | 0.083614   |   0.0 |  0.02
Modify  | 7.2509     | 7.2509     | 7.2509     |   0.0 |  1.76
Other   |            | 2.008      |            |       |  0.49

Nlocal:    19652 ave 19652 max 19652 min
Histogram: 1 0 0 0 0 0 0 0 0 0
Nghost:    12725 ave 12725 max 12725 min
Histogram: 1 0 0 0 0 0 0 0 0 0
Neighs:    590510 ave 590510 max 590510 min
Histogram: 1 0 0 0 0 0 0 0 0 0

Total # of neighbors = 590510
Ave neighs/atom = 30.0483
Neighbor list builds = 4505
Dangerous builds not checked
Setting up Verlet run ...
  Unit style    : metal
  Current step  : 55000
  Time step     : 0.001
Per MPI rank memory allocation (min/avg/max) = 18.24 | 18.24 | 18.24 Mbytes
Step Temp Press TotEng PotEng Enthalpy 
   55000    2292.7265   -193.43659   -74606.554   -80430.288   -74706.792 
   55495    2262.4462   -207.13519    -74727.49    -80474.31   -74834.711 
Loop time of 41.8848 on 1 procs for 495 steps with 19652 atoms

Performance: 1.021 ns/day, 23.504 hours/ns, 11.818 timesteps/s
99.7% CPU use with 1 MPI tasks x no OpenMP threads

MPI task timing breakdown:
Section |  min time  |  avg time  |  max time  |%varavg| %total
---------------------------------------------------------------
Pair    | 20.594     | 20.594     | 20.594     |   0.0 | 49.17
Neigh   | 19.768     | 19.768     | 19.768     |   0.0 | 47.20
Comm    | 0.52346    | 0.52346    | 0.52346    |   0.0 |  1.25
Output  | 0.00018716 | 0.00018716 | 0.00018716 |   0.0 |  0.00
Modify  | 0.78507    | 0.78507    | 0.78507    |   0.0 |  1.87
Other   |            | 0.2148     |            |       |  0.51

Nlocal:    19652 ave 19652 max 19652 min
Histogram: 1 0 0 0 0 0 0 0 0 0
Nghost:    12715 ave 12715 max 12715 min
Histogram: 1 0 0 0 0 0 0 0 0 0
Neighs:    591058 ave 591058 max 591058 min
Histogram: 1 0 0 0 0 0 0 0 0 0

Total # of neighbors = 591058
Ave neighs/atom = 30.0762
Neighbor list builds = 495
Dangerous builds not checked
Setting up Verlet run ...
  Unit style    : metal
  Current step  : 55495
  Time step     : 0.001
Per MPI rank memory allocation (min/avg/max) = 18.24 | 18.24 | 18.24 Mbytes
Step Temp Press TotEng PotEng Enthalpy 
   55495    2262.4462   -207.13519    -74727.49    -80474.31   -74834.711 
   60000    2245.1936    256.85451   -74835.294    -80538.29    -74702.75 
Loop time of 400.797 on 1 procs for 4505 steps with 19652 atoms

Performance: 0.971 ns/day, 24.713 hours/ns, 11.240 timesteps/s
99.1% CPU use with 1 MPI tasks x no OpenMP threads

MPI task timing breakdown:
Section |  min time  |  avg time  |  max time  |%varavg| %total
---------------------------------------------------------------
Pair    | 198.18     | 198.18     | 198.18     |   0.0 | 49.45
Neigh   | 188.55     | 188.55     | 188.55     |   0.0 | 47.04
Comm    | 4.8299     | 4.8299     | 4.8299     |   0.0 |  1.21
Output  | 0.08209    | 0.08209    | 0.08209    |   0.0 |  0.02
Modify  | 7.2304     | 7.2304     | 7.2304     |   0.0 |  1.80
Other   |            | 1.929      |            |       |  0.48

Nlocal:    19652 ave 19652 max 19652 min
Histogram: 1 0 0 0 0 0 0 0 0 0
Nghost:    12732 ave 12732 max 12732 min
Histogram: 1 0 0 0 0 0 0 0 0 0
Neighs:    592915 ave 592915 max 592915 min
Histogram: 1 0 0 0 0 0 0 0 0 0

Total # of neighbors = 592915
Ave neighs/atom = 30.1707
Neighbor list builds = 4505
Dangerous builds not checked
Setting up Verlet run ...
  Unit style    : metal
  Current step  : 60000
  Time step     : 0.001
Per MPI rank memory allocation (min/avg/max) = 18.24 | 18.24 | 18.24 Mbytes
Step Temp Press TotEng PotEng Enthalpy 
   60000    2245.1936    256.85451   -74835.294    -80538.29    -74702.75 
   60495    2205.8044     179.4895   -74985.586    -80588.53   -74892.979 
Loop time of 47.1413 on 1 procs for 495 steps with 19652 atoms

Performance: 0.907 ns/day, 26.454 hours/ns, 10.500 timesteps/s
99.3% CPU use with 1 MPI tasks x no OpenMP threads

MPI task timing breakdown:
Section |  min time  |  avg time  |  max time  |%varavg| %total
---------------------------------------------------------------
Pair    | 24.266     | 24.266     | 24.266     |   0.0 | 51.48
Neigh   | 21.103     | 21.103     | 21.103     |   0.0 | 44.77
Comm    | 0.63721    | 0.63721    | 0.63721    |   0.0 |  1.35
Output  | 0.00018597 | 0.00018597 | 0.00018597 |   0.0 |  0.00
Modify  | 0.91557    | 0.91557    | 0.91557    |   0.0 |  1.94
Other   |            | 0.2191     |            |       |  0.46

Nlocal:    19652 ave 19652 max 19652 min
Histogram: 1 0 0 0 0 0 0 0 0 0
Nghost:    12758 ave 12758 max 12758 min
Histogram: 1 0 0 0 0 0 0 0 0 0
Neighs:    593081 ave 593081 max 593081 min
Histogram: 1 0 0 0 0 0 0 0 0 0

Total # of neighbors = 593081
Ave neighs/atom = 30.1792
Neighbor list builds = 495
Dangerous builds not checked
Setting up Verlet run ...
  Unit style    : metal
  Current step  : 60495
  Time step     : 0.001
Per MPI rank memory allocation (min/avg/max) = 18.24 | 18.24 | 18.24 Mbytes
Step Temp Press TotEng PotEng Enthalpy 
   60495    2205.8044     179.4895   -74985.586    -80588.53   -74892.979 
   65000    2210.2522    620.74713   -75040.056   -80654.298   -74720.722 
Loop time of 411.562 on 1 procs for 4505 steps with 19652 atoms

Performance: 0.946 ns/day, 25.377 hours/ns, 10.946 timesteps/s
98.6% CPU use with 1 MPI tasks x no OpenMP threads

MPI task timing breakdown:
Section |  min time  |  avg time  |  max time  |%varavg| %total
---------------------------------------------------------------
Pair    | 205.51     | 205.51     | 205.51     |   0.0 | 49.93
Neigh   | 191.7      | 191.7      | 191.7      |   0.0 | 46.58
Comm    | 5.0267     | 5.0267     | 5.0267     |   0.0 |  1.22
Output  | 0.080413   | 0.080413   | 0.080413   |   0.0 |  0.02
Modify  | 7.3226     | 7.3226     | 7.3226     |   0.0 |  1.78
Other   |            | 1.921      |            |       |  0.47

Nlocal:    19652 ave 19652 max 19652 min
Histogram: 1 0 0 0 0 0 0 0 0 0
Nghost:    12773 ave 12773 max 12773 min
Histogram: 1 0 0 0 0 0 0 0 0 0
Neighs:    594752 ave 594752 max 594752 min
Histogram: 1 0 0 0 0 0 0 0 0 0

Total # of neighbors = 594752
Ave neighs/atom = 30.2642
Neighbor list builds = 4505
Dangerous builds not checked
Setting up Verlet run ...
  Unit style    : metal
  Current step  : 65000
  Time step     : 0.001
Per MPI rank memory allocation (min/avg/max) = 18.24 | 18.24 | 18.24 Mbytes
Step Temp Press TotEng PotEng Enthalpy 
   65000    2210.2522    620.74713   -75040.056   -80654.298   -74720.722 
   65495    2171.7905     430.9859   -75182.758   -80699.304   -74961.284 
Loop time of 40.1845 on 1 procs for 495 steps with 19652 atoms

Performance: 1.064 ns/day, 22.550 hours/ns, 12.318 timesteps/s
100.0% CPU use with 1 MPI tasks x no OpenMP threads

MPI task timing breakdown:
Section |  min time  |  avg time  |  max time  |%varavg| %total
---------------------------------------------------------------
Pair    | 19.392     | 19.392     | 19.392     |   0.0 | 48.26
Neigh   | 19.345     | 19.345     | 19.345     |   0.0 | 48.14
Comm    | 0.49019    | 0.49019    | 0.49019    |   0.0 |  1.22
Output  | 0.0001781  | 0.0001781  | 0.0001781  |   0.0 |  0.00
Modify  | 0.74759    | 0.74759    | 0.74759    |   0.0 |  1.86
Other   |            | 0.2099     |            |       |  0.52

Nlocal:    19652 ave 19652 max 19652 min
Histogram: 1 0 0 0 0 0 0 0 0 0
Nghost:    12753 ave 12753 max 12753 min
Histogram: 1 0 0 0 0 0 0 0 0 0
Neighs:    595508 ave 595508 max 595508 min
Histogram: 1 0 0 0 0 0 0 0 0 0

Total # of neighbors = 595508
Ave neighs/atom = 30.3027
Neighbor list builds = 495
Dangerous builds not checked
Setting up Verlet run ...
  Unit style    : metal
  Current step  : 65495
  Time step     : 0.001
Per MPI rank memory allocation (min/avg/max) = 18.24 | 18.24 | 18.24 Mbytes
Step Temp Press TotEng PotEng Enthalpy 
   65495    2171.7905     430.9859   -75182.758   -80699.304   -74961.284 
   70000    2172.3298    278.79936   -75210.851   -80728.766   -75067.567 
Loop time of 397.204 on 1 procs for 4505 steps with 19652 atoms

Performance: 0.980 ns/day, 24.492 hours/ns, 11.342 timesteps/s
98.2% CPU use with 1 MPI tasks x no OpenMP threads

MPI task timing breakdown:
Section |  min time  |  avg time  |  max time  |%varavg| %total
---------------------------------------------------------------
Pair    | 196.24     | 196.24     | 196.24     |   0.0 | 49.41
Neigh   | 187.01     | 187.01     | 187.01     |   0.0 | 47.08
Comm    | 4.8016     | 4.8016     | 4.8016     |   0.0 |  1.21
Output  | 0.082989   | 0.082989   | 0.082989   |   0.0 |  0.02
Modify  | 7.1118     | 7.1118     | 7.1118     |   0.0 |  1.79
Other   |            | 1.952      |            |       |  0.49

Nlocal:    19652 ave 19652 max 19652 min
Histogram: 1 0 0 0 0 0 0 0 0 0
Nghost:    12735 ave 12735 max 12735 min
Histogram: 1 0 0 0 0 0 0 0 0 0
Neighs:    595160 ave 595160 max 595160 min
Histogram: 1 0 0 0 0 0 0 0 0 0

Total # of neighbors = 595160
Ave neighs/atom = 30.285
Neighbor list builds = 4505
Dangerous builds not checked
Setting up Verlet run ...
  Unit style    : metal
  Current step  : 70000
  Time step     : 0.001
Per MPI rank memory allocation (min/avg/max) = 18.24 | 18.24 | 18.24 Mbytes
Step Temp Press TotEng PotEng Enthalpy 
   70000    2172.3298    278.79936   -75210.851   -80728.766   -75067.567 
   70495    2108.2947    517.19203   -75404.126   -80759.387   -75138.735 
Loop time of 44.5071 on 1 procs for 495 steps with 19652 atoms

Performance: 0.961 ns/day, 24.976 hours/ns, 11.122 timesteps/s
98.8% CPU use with 1 MPI tasks x no OpenMP threads

MPI task timing breakdown:
Section |  min time  |  avg time  |  max time  |%varavg| %total
---------------------------------------------------------------
Pair    | 22.046     | 22.046     | 22.046     |   0.0 | 49.53
Neigh   | 20.989     | 20.989     | 20.989     |   0.0 | 47.16
Comm    | 0.54173    | 0.54173    | 0.54173    |   0.0 |  1.22
Output  | 0.0001719  | 0.0001719  | 0.0001719  |   0.0 |  0.00
Modify  | 0.73205    | 0.73205    | 0.73205    |   0.0 |  1.64
Other   |            | 0.1975     |            |       |  0.44

Nlocal:    19652 ave 19652 max 19652 min
Histogram: 1 0 0 0 0 0 0 0 0 0
Nghost:    12793 ave 12793 max 12793 min
Histogram: 1 0 0 0 0 0 0 0 0 0
Neighs:    595931 ave 595931 max 595931 min
Histogram: 1 0 0 0 0 0 0 0 0 0

Total # of neighbors = 595931
Ave neighs/atom = 30.3242
Neighbor list builds = 495
Dangerous builds not checked
Setting up Verlet run ...
  Unit style    : metal
  Current step  : 70495
  Time step     : 0.001
Per MPI rank memory allocation (min/avg/max) = 18.24 | 18.24 | 18.24 Mbytes
Step Temp Press TotEng PotEng Enthalpy 
   70495    2108.2947    517.19203   -75404.126   -80759.387   -75138.735 
   75000    2094.7109   -381.83673   -75511.792   -80832.549   -75708.001 
Loop time of 373.598 on 1 procs for 4505 steps with 19652 atoms

Performance: 1.042 ns/day, 23.036 hours/ns, 12.058 timesteps/s
97.9% CPU use with 1 MPI tasks x no OpenMP threads

MPI task timing breakdown:
Section |  min time  |  avg time  |  max time  |%varavg| %total
---------------------------------------------------------------
Pair    | 179.8      | 179.8      | 179.8      |   0.0 | 48.13
Neigh   | 180.19     | 180.19     | 180.19     |   0.0 | 48.23
Comm    | 4.6025     | 4.6025     | 4.6025     |   0.0 |  1.23
Output  | 0.27644    | 0.27644    | 0.27644    |   0.0 |  0.07
Modify  | 6.9767     | 6.9767     | 6.9767     |   0.0 |  1.87
Other   |            | 1.751      |            |       |  0.47

Nlocal:    19652 ave 19652 max 19652 min
Histogram: 1 0 0 0 0 0 0 0 0 0
Nghost:    12709 ave 12709 max 12709 min
Histogram: 1 0 0 0 0 0 0 0 0 0
Neighs:    595359 ave 595359 max 595359 min
Histogram: 1 0 0 0 0 0 0 0 0 0

Total # of neighbors = 595359
Ave neighs/atom = 30.2951
Neighbor list builds = 4505
Dangerous builds not checked
Setting up Verlet run ...
  Unit style    : metal
  Current step  : 75000
  Time step     : 0.001
Per MPI rank memory allocation (min/avg/max) = 18.24 | 18.24 | 18.24 Mbytes
Step Temp Press TotEng PotEng Enthalpy 
   75000    2094.7109   -381.83673   -75511.792   -80832.549   -75708.001 
   75495    2065.8197   -359.67708   -75685.351   -80932.722   -75869.901 
Loop time of 41.9756 on 1 procs for 495 steps with 19652 atoms

Performance: 1.019 ns/day, 23.555 hours/ns, 11.793 timesteps/s
93.3% CPU use with 1 MPI tasks x no OpenMP threads

MPI task timing breakdown:
Section |  min time  |  avg time  |  max time  |%varavg| %total
---------------------------------------------------------------
Pair    | 20.163     | 20.163     | 20.163     |   0.0 | 48.03
Neigh   | 20.253     | 20.253     | 20.253     |   0.0 | 48.25
Comm    | 0.5101     | 0.5101     | 0.5101     |   0.0 |  1.22
Output  | 0.00014997 | 0.00014997 | 0.00014997 |   0.0 |  0.00
Modify  | 0.84682    | 0.84682    | 0.84682    |   0.0 |  2.02
Other   |            | 0.2031     |            |       |  0.48

Nlocal:    19652 ave 19652 max 19652 min
Histogram: 1 0 0 0 0 0 0 0 0 0
Nghost:    12819 ave 12819 max 12819 min
Histogram: 1 0 0 0 0 0 0 0 0 0
Neighs:    596915 ave 596915 max 596915 min
Histogram: 1 0 0 0 0 0 0 0 0 0

Total # of neighbors = 596915
Ave neighs/atom = 30.3743
Neighbor list builds = 495
Dangerous builds not checked
Setting up Verlet run ...
  Unit style    : metal
  Current step  : 75495
  Time step     : 0.001
Per MPI rank memory allocation (min/avg/max) = 18.24 | 18.24 | 18.24 Mbytes
Step Temp Press TotEng PotEng Enthalpy 
   75495    2065.8197   -359.67708   -75685.351   -80932.722   -75869.901 
   80000    2050.8837   -83.262083   -75725.464   -80934.896   -75768.137 
Loop time of 372.243 on 1 procs for 4505 steps with 19652 atoms

Performance: 1.046 ns/day, 22.952 hours/ns, 12.102 timesteps/s
98.9% CPU use with 1 MPI tasks x no OpenMP threads

MPI task timing breakdown:
Section |  min time  |  avg time  |  max time  |%varavg| %total
---------------------------------------------------------------
Pair    | 179.26     | 179.26     | 179.26     |   0.0 | 48.16
Neigh   | 179.68     | 179.68     | 179.68     |   0.0 | 48.27
Comm    | 4.4968     | 4.4968     | 4.4968     |   0.0 |  1.21
Output  | 0.11381    | 0.11381    | 0.11381    |   0.0 |  0.03
Modify  | 6.912      | 6.912      | 6.912      |   0.0 |  1.86
Other   |            | 1.776      |            |       |  0.48

Nlocal:    19652 ave 19652 max 19652 min
Histogram: 1 0 0 0 0 0 0 0 0 0
Nghost:    12775 ave 12775 max 12775 min
Histogram: 1 0 0 0 0 0 0 0 0 0
Neighs:    597317 ave 597317 max 597317 min
Histogram: 1 0 0 0 0 0 0 0 0 0

Total # of neighbors = 597317
Ave neighs/atom = 30.3947
Neighbor list builds = 4505
Dangerous builds not checked
Setting up Verlet run ...
  Unit style    : metal
  Current step  : 80000
  Time step     : 0.001
Per MPI rank memory allocation (min/avg/max) = 18.24 | 18.24 | 18.24 Mbytes
Step Temp Press TotEng PotEng Enthalpy 
   80000    2050.8837   -83.262083   -75725.464   -80934.896   -75768.137 
   80495     2005.449     82.60574   -75965.298   -81059.322   -75923.101 
Loop time of 40.1378 on 1 procs for 495 steps with 19652 atoms

Performance: 1.066 ns/day, 22.524 hours/ns, 12.333 timesteps/s
98.4% CPU use with 1 MPI tasks x no OpenMP threads

MPI task timing breakdown:
Section |  min time  |  avg time  |  max time  |%varavg| %total
---------------------------------------------------------------
Pair    | 19.197     | 19.197     | 19.197     |   0.0 | 47.83
Neigh   | 19.519     | 19.519     | 19.519     |   0.0 | 48.63
Comm    | 0.48643    | 0.48643    | 0.48643    |   0.0 |  1.21
Output  | 0.00015593 | 0.00015593 | 0.00015593 |   0.0 |  0.00
Modify  | 0.74262    | 0.74262    | 0.74262    |   0.0 |  1.85
Other   |            | 0.192      |            |       |  0.48

Nlocal:    19652 ave 19652 max 19652 min
Histogram: 1 0 0 0 0 0 0 0 0 0
Nghost:    12842 ave 12842 max 12842 min
Histogram: 1 0 0 0 0 0 0 0 0 0
Neighs:    598975 ave 598975 max 598975 min
Histogram: 1 0 0 0 0 0 0 0 0 0

Total # of neighbors = 598975
Ave neighs/atom = 30.4791
Neighbor list builds = 495
Dangerous builds not checked
Setting up Verlet run ...
  Unit style    : metal
  Current step  : 80495
  Time step     : 0.001
Per MPI rank memory allocation (min/avg/max) = 18.24 | 18.24 | 18.24 Mbytes
Step Temp Press TotEng PotEng Enthalpy 
   80495     2005.449     82.60574   -75965.298   -81059.322   -75923.101 
   85000    2003.4222    294.04366    -75996.38   -81085.255   -75846.281 
Loop time of 354.422 on 1 procs for 4505 steps with 19652 atoms

Performance: 1.098 ns/day, 21.854 hours/ns, 12.711 timesteps/s
99.1% CPU use with 1 MPI tasks x no OpenMP threads

MPI task timing breakdown:
Section |  min time  |  avg time  |  max time  |%varavg| %total
---------------------------------------------------------------
Pair    | 168.42     | 168.42     | 168.42     |   0.0 | 47.52
Neigh   | 173.02     | 173.02     | 173.02     |   0.0 | 48.82
Comm    | 4.3515     | 4.3515     | 4.3515     |   0.0 |  1.23
Output  | 0.34894    | 0.34894    | 0.34894    |   0.0 |  0.10
Modify  | 6.5873     | 6.5873     | 6.5873     |   0.0 |  1.86
Other   |            | 1.695      |            |       |  0.48

Nlocal:    19652 ave 19652 max 19652 min
Histogram: 1 0 0 0 0 0 0 0 0 0
Nghost:    12788 ave 12788 max 12788 min
Histogram: 1 0 0 0 0 0 0 0 0 0
Neighs:    599723 ave 599723 max 599723 min
Histogram: 1 0 0 0 0 0 0 0 0 0

Total # of neighbors = 599723
Ave neighs/atom = 30.5171
Neighbor list builds = 4505
Dangerous builds not checked
Setting up Verlet run ...
  Unit style    : metal
  Current step  : 85000
  Time step     : 0.001
Per MPI rank memory allocation (min/avg/max) = 18.24 | 18.24 | 18.24 Mbytes
Step Temp Press TotEng PotEng Enthalpy 
   85000    2003.4222    294.04366    -75996.38   -81085.255   -75846.281 
   85495    1958.3198    366.41984   -76178.381   -81152.692   -75991.738 
Loop time of 40.8047 on 1 procs for 495 steps with 19652 atoms

Performance: 1.048 ns/day, 22.898 hours/ns, 12.131 timesteps/s
97.4% CPU use with 1 MPI tasks x no OpenMP threads

MPI task timing breakdown:
Section |  min time  |  avg time  |  max time  |%varavg| %total
---------------------------------------------------------------
Pair    | 19.359     | 19.359     | 19.359     |   0.0 | 47.44
Neigh   | 19.969     | 19.969     | 19.969     |   0.0 | 48.94
Comm    | 0.48304    | 0.48304    | 0.48304    |   0.0 |  1.18
Output  | 0.00016212 | 0.00016212 | 0.00016212 |   0.0 |  0.00
Modify  | 0.79704    | 0.79704    | 0.79704    |   0.0 |  1.95
Other   |            | 0.196      |            |       |  0.48

Nlocal:    19652 ave 19652 max 19652 min
Histogram: 1 0 0 0 0 0 0 0 0 0
Nghost:    12832 ave 12832 max 12832 min
Histogram: 1 0 0 0 0 0 0 0 0 0
Neighs:    600679 ave 600679 max 600679 min
Histogram: 1 0 0 0 0 0 0 0 0 0

Total # of neighbors = 600679
Ave neighs/atom = 30.5658
Neighbor list builds = 495
Dangerous builds not checked
Setting up Verlet run ...
  Unit style    : metal
  Current step  : 85495
  Time step     : 0.001
Per MPI rank memory allocation (min/avg/max) = 18.24 | 18.24 | 18.24 Mbytes
Step Temp Press TotEng PotEng Enthalpy 
   85495    1958.3198    366.41984   -76178.381   -81152.692   -75991.738 
   90000    1944.0997   -100.49374   -76209.306   -81147.497   -76260.564 
Loop time of 384.37 on 1 procs for 4505 steps with 19652 atoms

Performance: 1.013 ns/day, 23.700 hours/ns, 11.720 timesteps/s
98.6% CPU use with 1 MPI tasks x no OpenMP threads

MPI task timing breakdown:
Section |  min time  |  avg time  |  max time  |%varavg| %total
---------------------------------------------------------------
Pair    | 182.79     | 182.79     | 182.79     |   0.0 | 47.56
Neigh   | 188.03     | 188.03     | 188.03     |   0.0 | 48.92
Comm    | 4.6038     | 4.6038     | 4.6038     |   0.0 |  1.20
Output  | 0.13976    | 0.13976    | 0.13976    |   0.0 |  0.04
Modify  | 7.0175     | 7.0175     | 7.0175     |   0.0 |  1.83
Other   |            | 1.786      |            |       |  0.46

Nlocal:    19652 ave 19652 max 19652 min
Histogram: 1 0 0 0 0 0 0 0 0 0
Nghost:    12806 ave 12806 max 12806 min
Histogram: 1 0 0 0 0 0 0 0 0 0
Neighs:    600137 ave 600137 max 600137 min
Histogram: 1 0 0 0 0 0 0 0 0 0

Total # of neighbors = 600137
Ave neighs/atom = 30.5382
Neighbor list builds = 4505
Dangerous builds not checked
Setting up Verlet run ...
  Unit style    : metal
  Current step  : 90000
  Time step     : 0.001
Per MPI rank memory allocation (min/avg/max) = 18.24 | 18.24 | 18.24 Mbytes
Step Temp Press TotEng PotEng Enthalpy 
   90000    1944.0997   -100.49374   -76209.306   -81147.497   -76260.564 
   90495    1899.9626    122.31355   -76439.998   -81266.077   -76377.766 
Loop time of 44.6255 on 1 procs for 495 steps with 19652 atoms

Performance: 0.958 ns/day, 25.042 hours/ns, 11.092 timesteps/s
98.0% CPU use with 1 MPI tasks x no OpenMP threads

MPI task timing breakdown:
Section |  min time  |  avg time  |  max time  |%varavg| %total
---------------------------------------------------------------
Pair    | 21.645     | 21.645     | 21.645     |   0.0 | 48.50
Neigh   | 21.418     | 21.418     | 21.418     |   0.0 | 47.99
Comm    | 0.5389     | 0.5389     | 0.5389     |   0.0 |  1.21
Output  | 0.00018406 | 0.00018406 | 0.00018406 |   0.0 |  0.00
Modify  | 0.81263    | 0.81263    | 0.81263    |   0.0 |  1.82
Other   |            | 0.2108     |            |       |  0.47

Nlocal:    19652 ave 19652 max 19652 min
Histogram: 1 0 0 0 0 0 0 0 0 0
Nghost:    12856 ave 12856 max 12856 min
Histogram: 1 0 0 0 0 0 0 0 0 0
Neighs:    601130 ave 601130 max 601130 min
Histogram: 1 0 0 0 0 0 0 0 0 0

Total # of neighbors = 601130
Ave neighs/atom = 30.5887
Neighbor list builds = 495
Dangerous builds not checked
Setting up Verlet run ...
  Unit style    : metal
  Current step  : 90495
  Time step     : 0.001
Per MPI rank memory allocation (min/avg/max) = 18.24 | 18.24 | 18.24 Mbytes
Step Temp Press TotEng PotEng Enthalpy 
   90495    1899.9626    122.31355   -76439.998   -81266.077   -76377.766 
   95000    1902.9056   -88.336139   -76439.029   -81272.583   -76484.004 
Loop time of 386.356 on 1 procs for 4505 steps with 19652 atoms

Performance: 1.007 ns/day, 23.823 hours/ns, 11.660 timesteps/s
98.7% CPU use with 1 MPI tasks x no OpenMP threads

MPI task timing breakdown:
Section |  min time  |  avg time  |  max time  |%varavg| %total
---------------------------------------------------------------
Pair    | 182.12     | 182.12     | 182.12     |   0.0 | 47.14
Neigh   | 190.79     | 190.79     | 190.79     |   0.0 | 49.38
Comm    | 4.6287     | 4.6287     | 4.6287     |   0.0 |  1.20
Output  | 0.12279    | 0.12279    | 0.12279    |   0.0 |  0.03
Modify  | 6.923      | 6.923      | 6.923      |   0.0 |  1.79
Other   |            | 1.772      |            |       |  0.46

Nlocal:    19652 ave 19652 max 19652 min
Histogram: 1 0 0 0 0 0 0 0 0 0
Nghost:    12816 ave 12816 max 12816 min
Histogram: 1 0 0 0 0 0 0 0 0 0
Neighs:    601057 ave 601057 max 601057 min
Histogram: 1 0 0 0 0 0 0 0 0 0

Total # of neighbors = 601057
Ave neighs/atom = 30.585
Neighbor list builds = 4505
Dangerous builds not checked
Setting up Verlet run ...
  Unit style    : metal
  Current step  : 95000
  Time step     : 0.001
Per MPI rank memory allocation (min/avg/max) = 18.24 | 18.24 | 18.24 Mbytes
Step Temp Press TotEng PotEng Enthalpy 
   95000    1902.9056   -88.336139   -76439.029   -81272.583   -76484.004 
   95495    1866.4441    68.164302   -76668.418   -81409.356   -76633.828 
Loop time of 39.4624 on 1 procs for 495 steps with 19652 atoms

Performance: 1.084 ns/day, 22.145 hours/ns, 12.544 timesteps/s
99.6% CPU use with 1 MPI tasks x no OpenMP threads

MPI task timing breakdown:
Section |  min time  |  avg time  |  max time  |%varavg| %total
---------------------------------------------------------------
Pair    | 18.36      | 18.36      | 18.36      |   0.0 | 46.53
Neigh   | 19.692     | 19.692     | 19.692     |   0.0 | 49.90
Comm    | 0.48166    | 0.48166    | 0.48166    |   0.0 |  1.22
Output  | 0.00012684 | 0.00012684 | 0.00012684 |   0.0 |  0.00
Modify  | 0.74086    | 0.74086    | 0.74086    |   0.0 |  1.88
Other   |            | 0.188      |            |       |  0.48

Nlocal:    19652 ave 19652 max 19652 min
Histogram: 1 0 0 0 0 0 0 0 0 0
Nghost:    12855 ave 12855 max 12855 min
Histogram: 1 0 0 0 0 0 0 0 0 0
Neighs:    602953 ave 602953 max 602953 min
Histogram: 1 0 0 0 0 0 0 0 0 0

Total # of neighbors = 602953
Ave neighs/atom = 30.6815
Neighbor list builds = 495
Dangerous builds not checked
Setting up Verlet run ...
  Unit style    : metal
  Current step  : 95495
  Time step     : 0.001
Per MPI rank memory allocation (min/avg/max) = 18.24 | 18.24 | 18.24 Mbytes
Step Temp Press TotEng PotEng Enthalpy 
   95495    1866.4441    68.164302   -76668.418   -81409.356   -76633.828 
  100000    1839.0561    154.02109   -76721.636   -81393.007   -76643.495 
Loop time of 374.879 on 1 procs for 4505 steps with 19652 atoms

Performance: 1.038 ns/day, 23.115 hours/ns, 12.017 timesteps/s
99.6% CPU use with 1 MPI tasks x no OpenMP threads

MPI task timing breakdown:
Section |  min time  |  avg time  |  max time  |%varavg| %total
---------------------------------------------------------------
Pair    | 175.98     | 175.98     | 175.98     |   0.0 | 46.94
Neigh   | 185.91     | 185.91     | 185.91     |   0.0 | 49.59
Comm    | 4.4705     | 4.4705     | 4.4705     |   0.0 |  1.19
Output  | 0.077567   | 0.077567   | 0.077567   |   0.0 |  0.02
Modify  | 6.7107     | 6.7107     | 6.7107     |   0.0 |  1.79
Other   |            | 1.732      |            |       |  0.46

Nlocal:    19652 ave 19652 max 19652 min
Histogram: 1 0 0 0 0 0 0 0 0 0
Nghost:    12783 ave 12783 max 12783 min
Histogram: 1 0 0 0 0 0 0 0 0 0
Neighs:    603010 ave 603010 max 603010 min
Histogram: 1 0 0 0 0 0 0 0 0 0

Total # of neighbors = 603010
Ave neighs/atom = 30.6844
Neighbor list builds = 4505
Dangerous builds not checked
Setting up Verlet run ...
  Unit style    : metal
  Current step  : 100000
  Time step     : 0.001
Per MPI rank memory allocation (min/avg/max) = 18.24 | 18.24 | 18.24 Mbytes
Step Temp Press TotEng PotEng Enthalpy 
  100000    1839.0561    154.02109   -76721.636   -81393.007   -76643.495 
  100495    1811.3068     88.42957   -76898.884   -81499.769   -76854.086 
Loop time of 43.7638 on 1 procs for 495 steps with 19652 atoms

Performance: 0.977 ns/day, 24.559 hours/ns, 11.311 timesteps/s
95.4% CPU use with 1 MPI tasks x no OpenMP threads

MPI task timing breakdown:
Section |  min time  |  avg time  |  max time  |%varavg| %total
---------------------------------------------------------------
Pair    | 20.714     | 20.714     | 20.714     |   0.0 | 47.33
Neigh   | 21.487     | 21.487     | 21.487     |   0.0 | 49.10
Comm    | 0.54818    | 0.54818    | 0.54818    |   0.0 |  1.25
Output  | 0.00012803 | 0.00012803 | 0.00012803 |   0.0 |  0.00
Modify  | 0.79976    | 0.79976    | 0.79976    |   0.0 |  1.83
Other   |            | 0.2145     |            |       |  0.49

Nlocal:    19652 ave 19652 max 19652 min
Histogram: 1 0 0 0 0 0 0 0 0 0
Nghost:    12824 ave 12824 max 12824 min
Histogram: 1 0 0 0 0 0 0 0 0 0
Neighs:    603627 ave 603627 max 603627 min
Histogram: 1 0 0 0 0 0 0 0 0 0

Total # of neighbors = 603627
Ave neighs/atom = 30.7158
Neighbor list builds = 495
Dangerous builds not checked
Setting up Verlet run ...
  Unit style    : metal
  Current step  : 100495
  Time step     : 0.001
Per MPI rank memory allocation (min/avg/max) = 18.24 | 18.24 | 18.24 Mbytes
Step Temp Press TotEng PotEng Enthalpy 
  100495    1811.3068     88.42957   -76898.884   -81499.769   -76854.086 
  105000    1796.9603   -447.13079   -76910.497    -81474.94   -77137.416 
Loop time of 413.521 on 1 procs for 4505 steps with 19652 atoms

Performance: 0.941 ns/day, 25.498 hours/ns, 10.894 timesteps/s
99.4% CPU use with 1 MPI tasks x no OpenMP threads

MPI task timing breakdown:
Section |  min time  |  avg time  |  max time  |%varavg| %total
---------------------------------------------------------------
Pair    | 201.29     | 201.29     | 201.29     |   0.0 | 48.68
Neigh   | 198.1      | 198.1      | 198.1      |   0.0 | 47.91
Comm    | 4.9593     | 4.9593     | 4.9593     |   0.0 |  1.20
Output  | 0.084956   | 0.084956   | 0.084956   |   0.0 |  0.02
Modify  | 7.159      | 7.159      | 7.159      |   0.0 |  1.73
Other   |            | 1.921      |            |       |  0.46

Nlocal:    19652 ave 19652 max 19652 min
Histogram: 1 0 0 0 0 0 0 0 0 0
Nghost:    12813 ave 12813 max 12813 min
Histogram: 1 0 0 0 0 0 0 0 0 0
Neighs:    602449 ave 602449 max 602449 min
Histogram: 1 0 0 0 0 0 0 0 0 0

Total # of neighbors = 602449
Ave neighs/atom = 30.6559
Neighbor list builds = 4505
Dangerous builds not checked
Setting up Verlet run ...
  Unit style    : metal
  Current step  : 105000
  Time step     : 0.001
Per MPI rank memory allocation (min/avg/max) = 18.24 | 18.24 | 18.24 Mbytes
Step Temp Press TotEng PotEng Enthalpy 
  105000    1796.9603   -447.13079   -76910.497    -81474.94   -77137.416 
  105495    1755.5829     -222.548   -77120.524   -81579.864   -77233.179 
Loop time of 44.6989 on 1 procs for 495 steps with 19652 atoms

Performance: 0.957 ns/day, 25.084 hours/ns, 11.074 timesteps/s
100.0% CPU use with 1 MPI tasks x no OpenMP threads

MPI task timing breakdown:
Section |  min time  |  avg time  |  max time  |%varavg| %total
---------------------------------------------------------------
Pair    | 21.95      | 21.95      | 21.95      |   0.0 | 49.11
Neigh   | 21.148     | 21.148     | 21.148     |   0.0 | 47.31
Comm    | 0.5505     | 0.5505     | 0.5505     |   0.0 |  1.23
Output  | 0.00018716 | 0.00018716 | 0.00018716 |   0.0 |  0.00
Modify  | 0.82791    | 0.82791    | 0.82791    |   0.0 |  1.85
Other   |            | 0.2222     |            |       |  0.50

Nlocal:    19652 ave 19652 max 19652 min
Histogram: 1 0 0 0 0 0 0 0 0 0
Nghost:    12799 ave 12799 max 12799 min
Histogram: 1 0 0 0 0 0 0 0 0 0
Neighs:    604372 ave 604372 max 604372 min
Histogram: 1 0 0 0 0 0 0 0 0 0

Total # of neighbors = 604372
Ave neighs/atom = 30.7537
Neighbor list builds = 495
Dangerous builds not checked
Setting up Verlet run ...
  Unit style    : metal
  Current step  : 105495
  Time step     : 0.001
Per MPI rank memory allocation (min/avg/max) = 18.24 | 18.24 | 18.24 Mbytes
Step Temp Press TotEng PotEng Enthalpy 
  105495    1755.5829     -222.548   -77120.524   -81579.864   -77233.179 
  110000    1759.6596    299.65604   -77159.807   -81629.503   -77008.511 
Loop time of 428.036 on 1 procs for 4505 steps with 19652 atoms

Performance: 0.909 ns/day, 26.393 hours/ns, 10.525 timesteps/s
98.7% CPU use with 1 MPI tasks x no OpenMP threads

MPI task timing breakdown:
Section |  min time  |  avg time  |  max time  |%varavg| %total
---------------------------------------------------------------
Pair    | 210.13     | 210.13     | 210.13     |   0.0 | 49.09
Neigh   | 203.59     | 203.59     | 203.59     |   0.0 | 47.56
Comm    | 5.1039     | 5.1039     | 5.1039     |   0.0 |  1.19
Output  | 0.082704   | 0.082704   | 0.082704   |   0.0 |  0.02
Modify  | 7.2155     | 7.2155     | 7.2155     |   0.0 |  1.69
Other   |            | 1.917      |            |       |  0.45

Nlocal:    19652 ave 19652 max 19652 min
Histogram: 1 0 0 0 0 0 0 0 0 0
Nghost:    12846 ave 12846 max 12846 min
Histogram: 1 0 0 0 0 0 0 0 0 0
Neighs:    606012 ave 606012 max 606012 min
Histogram: 1 0 0 0 0 0 0 0 0 0

Total # of neighbors = 606012
Ave neighs/atom = 30.8372
Neighbor list builds = 4505
Dangerous builds not checked
Setting up Verlet run ...
  Unit style    : metal
  Current step  : 110000
  Time step     : 0.001
Per MPI rank memory allocation (min/avg/max) = 18.24 | 18.24 | 18.24 Mbytes
Step Temp Press TotEng PotEng Enthalpy 
  110000    1759.6596    299.65604   -77159.807   -81629.503   -77008.511 
  110495     1719.264    160.72275   -77339.201   -81706.288    -77258.15 
Loop time of 46.5175 on 1 procs for 495 steps with 19652 atoms

Performance: 0.919 ns/day, 26.104 hours/ns, 10.641 timesteps/s
95.4% CPU use with 1 MPI tasks x no OpenMP threads

MPI task timing breakdown:
Section |  min time  |  avg time  |  max time  |%varavg| %total
---------------------------------------------------------------
Pair    | 22.718     | 22.718     | 22.718     |   0.0 | 48.84
Neigh   | 22.153     | 22.153     | 22.153     |   0.0 | 47.62
Comm    | 0.55589    | 0.55589    | 0.55589    |   0.0 |  1.20
Output  | 0.00018382 | 0.00018382 | 0.00018382 |   0.0 |  0.00
Modify  | 0.86545    | 0.86545    | 0.86545    |   0.0 |  1.86
Other   |            | 0.2247     |            |       |  0.48

Nlocal:    19652 ave 19652 max 19652 min
Histogram: 1 0 0 0 0 0 0 0 0 0
Nghost:    12827 ave 12827 max 12827 min
Histogram: 1 0 0 0 0 0 0 0 0 0
Neighs:    606364 ave 606364 max 606364 min
Histogram: 1 0 0 0 0 0 0 0 0 0

Total # of neighbors = 606364
Ave neighs/atom = 30.8551
Neighbor list builds = 495
Dangerous builds not checked
Setting up Verlet run ...
  Unit style    : metal
  Current step  : 110495
  Time step     : 0.001
Per MPI rank memory allocation (min/avg/max) = 18.24 | 18.24 | 18.24 Mbytes
Step Temp Press TotEng PotEng Enthalpy 
  110495     1719.264    160.72275   -77339.201   -81706.288    -77258.15 
  115000    1702.7728    97.904811    -77432.09   -81757.288   -77382.711 
Loop time of 418.096 on 1 procs for 4505 steps with 19652 atoms

Performance: 0.931 ns/day, 25.780 hours/ns, 10.775 timesteps/s
99.1% CPU use with 1 MPI tasks x no OpenMP threads

MPI task timing breakdown:
Section |  min time  |  avg time  |  max time  |%varavg| %total
---------------------------------------------------------------
Pair    | 205.48     | 205.48     | 205.48     |   0.0 | 49.15
Neigh   | 198.21     | 198.21     | 198.21     |   0.0 | 47.41
Comm    | 5.0005     | 5.0005     | 5.0005     |   0.0 |  1.20
Output  | 0.079136   | 0.079136   | 0.079136   |   0.0 |  0.02
Modify  | 7.3571     | 7.3571     | 7.3571     |   0.0 |  1.76
Other   |            | 1.966      |            |       |  0.47

Nlocal:    19652 ave 19652 max 19652 min
Histogram: 1 0 0 0 0 0 0 0 0 0
Nghost:    12855 ave 12855 max 12855 min
Histogram: 1 0 0 0 0 0 0 0 0 0
Neighs:    605925 ave 605925 max 605925 min
Histogram: 1 0 0 0 0 0 0 0 0 0

Total # of neighbors = 605925
Ave neighs/atom = 30.8327
Neighbor list builds = 4505
Dangerous builds not checked
Setting up Verlet run ...
  Unit style    : metal
  Current step  : 115000
  Time step     : 0.001
Per MPI rank memory allocation (min/avg/max) = 18.24 | 18.24 | 18.24 Mbytes
Step Temp Press TotEng PotEng Enthalpy 
  115000    1702.7728    97.904811    -77432.09   -81757.288   -77382.711 
  115495    1653.6197   -43.224434   -77639.911   -81840.256   -77661.666 
Loop time of 44.0089 on 1 procs for 495 steps with 19652 atoms

Performance: 0.972 ns/day, 24.696 hours/ns, 11.248 timesteps/s
99.6% CPU use with 1 MPI tasks x no OpenMP threads

MPI task timing breakdown:
Section |  min time  |  avg time  |  max time  |%varavg| %total
---------------------------------------------------------------
Pair    | 21.272     | 21.272     | 21.272     |   0.0 | 48.34
Neigh   | 21.157     | 21.157     | 21.157     |   0.0 | 48.07
Comm    | 0.55802    | 0.55802    | 0.55802    |   0.0 |  1.27
Output  | 0.00014901 | 0.00014901 | 0.00014901 |   0.0 |  0.00
Modify  | 0.81165    | 0.81165    | 0.81165    |   0.0 |  1.84
Other   |            | 0.21       |            |       |  0.48

Nlocal:    19652 ave 19652 max 19652 min
Histogram: 1 0 0 0 0 0 0 0 0 0
Nghost:    12880 ave 12880 max 12880 min
Histogram: 1 0 0 0 0 0 0 0 0 0
Neighs:    608039 ave 608039 max 608039 min
Histogram: 1 0 0 0 0 0 0 0 0 0

Total # of neighbors = 608039
Ave neighs/atom = 30.9403
Neighbor list builds = 495
Dangerous builds not checked
Setting up Verlet run ...
  Unit style    : metal
  Current step  : 115495
  Time step     : 0.001
Per MPI rank memory allocation (min/avg/max) = 18.24 | 18.24 | 18.24 Mbytes
Step Temp Press TotEng PotEng Enthalpy 
  115495    1653.6197   -43.224434   -77639.911   -81840.256   -77661.666 
  120000    1655.7451   -5.1808227   -77691.261   -81897.004   -77693.866 
Loop time of 401.082 on 1 procs for 4505 steps with 19652 atoms

Performance: 0.970 ns/day, 24.731 hours/ns, 11.232 timesteps/s
99.7% CPU use with 1 MPI tasks x no OpenMP threads

MPI task timing breakdown:
Section |  min time  |  avg time  |  max time  |%varavg| %total
---------------------------------------------------------------
Pair    | 193.66     | 193.66     | 193.66     |   0.0 | 48.28
Neigh   | 193.95     | 193.95     | 193.95     |   0.0 | 48.36
Comm    | 4.6872     | 4.6872     | 4.6872     |   0.0 |  1.17
Output  | 0.085759   | 0.085759   | 0.085759   |   0.0 |  0.02
Modify  | 6.8532     | 6.8532     | 6.8532     |   0.0 |  1.71
Other   |            | 1.848      |            |       |  0.46

Nlocal:    19652 ave 19652 max 19652 min
Histogram: 1 0 0 0 0 0 0 0 0 0
Nghost:    12851 ave 12851 max 12851 min
Histogram: 1 0 0 0 0 0 0 0 0 0
Neighs:    608149 ave 608149 max 608149 min
Histogram: 1 0 0 0 0 0 0 0 0 0

Total # of neighbors = 608149
Ave neighs/atom = 30.9459
Neighbor list builds = 4505
Dangerous builds not checked
Setting up Verlet run ...
  Unit style    : metal
  Current step  : 120000
  Time step     : 0.001
Per MPI rank memory allocation (min/avg/max) = 18.24 | 18.24 | 18.24 Mbytes
Step Temp Press TotEng PotEng Enthalpy 
  120000    1655.7451   -5.1808227   -77691.261   -81897.004   -77693.866 
  120495    1617.4162   -117.66143    -77850.09   -81958.475   -77909.214 
Loop time of 44.3381 on 1 procs for 495 steps with 19652 atoms

Performance: 0.965 ns/day, 24.881 hours/ns, 11.164 timesteps/s
99.9% CPU use with 1 MPI tasks x no OpenMP threads

MPI task timing breakdown:
Section |  min time  |  avg time  |  max time  |%varavg| %total
---------------------------------------------------------------
Pair    | 21.648     | 21.648     | 21.648     |   0.0 | 48.83
Neigh   | 21.109     | 21.109     | 21.109     |   0.0 | 47.61
Comm    | 0.54774    | 0.54774    | 0.54774    |   0.0 |  1.24
Output  | 0.00019312 | 0.00019312 | 0.00019312 |   0.0 |  0.00
Modify  | 0.81673    | 0.81673    | 0.81673    |   0.0 |  1.84
Other   |            | 0.2166     |            |       |  0.49

Nlocal:    19652 ave 19652 max 19652 min
Histogram: 1 0 0 0 0 0 0 0 0 0
Nghost:    12818 ave 12818 max 12818 min
Histogram: 1 0 0 0 0 0 0 0 0 0
Neighs:    608695 ave 608695 max 608695 min
Histogram: 1 0 0 0 0 0 0 0 0 0

Total # of neighbors = 608695
Ave neighs/atom = 30.9737
Neighbor list builds = 495
Dangerous builds not checked
Setting up Verlet run ...
  Unit style    : metal
  Current step  : 120495
  Time step     : 0.001
Per MPI rank memory allocation (min/avg/max) = 18.24 | 18.24 | 18.24 Mbytes
Step Temp Press TotEng PotEng Enthalpy 
  120495    1617.4162   -117.66143    -77850.09   -81958.475   -77909.214 
  125000    1599.6578   -751.78608   -77930.634    -81993.91   -78308.872 
Loop time of 410.471 on 1 procs for 4505 steps with 19652 atoms

Performance: 0.948 ns/day, 25.310 hours/ns, 10.975 timesteps/s
100.0% CPU use with 1 MPI tasks x no OpenMP threads

MPI task timing breakdown:
Section |  min time  |  avg time  |  max time  |%varavg| %total
---------------------------------------------------------------
Pair    | 200.3      | 200.3      | 200.3      |   0.0 | 48.80
Neigh   | 196.14     | 196.14     | 196.14     |   0.0 | 47.79
Comm    | 4.8697     | 4.8697     | 4.8697     |   0.0 |  1.19
Output  | 0.085583   | 0.085583   | 0.085583   |   0.0 |  0.02
Modify  | 7.1476     | 7.1476     | 7.1476     |   0.0 |  1.74
Other   |            | 1.919      |            |       |  0.47

Nlocal:    19652 ave 19652 max 19652 min
Histogram: 1 0 0 0 0 0 0 0 0 0
Nghost:    12851 ave 12851 max 12851 min
Histogram: 1 0 0 0 0 0 0 0 0 0
Neighs:    607966 ave 607966 max 607966 min
Histogram: 1 0 0 0 0 0 0 0 0 0

Total # of neighbors = 607966
Ave neighs/atom = 30.9366
Neighbor list builds = 4505
Dangerous builds not checked
Setting up Verlet run ...
  Unit style    : metal
  Current step  : 125000
  Time step     : 0.001
Per MPI rank memory allocation (min/avg/max) = 18.24 | 18.24 | 18.24 Mbytes
Step Temp Press TotEng PotEng Enthalpy 
  125000    1599.6578   -751.78608   -77930.634    -81993.91   -78308.872 
  125495    1554.8588   -537.79886   -78115.838   -82065.321   -78385.947 
Loop time of 41.9439 on 1 procs for 495 steps with 19652 atoms

Performance: 1.020 ns/day, 23.538 hours/ns, 11.801 timesteps/s
99.9% CPU use with 1 MPI tasks x no OpenMP threads

MPI task timing breakdown:
Section |  min time  |  avg time  |  max time  |%varavg| %total
---------------------------------------------------------------
Pair    | 19.985     | 19.985     | 19.985     |   0.0 | 47.65
Neigh   | 20.488     | 20.488     | 20.488     |   0.0 | 48.85
Comm    | 0.506      | 0.506      | 0.506      |   0.0 |  1.21
Output  | 0.00019312 | 0.00019312 | 0.00019312 |   0.0 |  0.00
Modify  | 0.75747    | 0.75747    | 0.75747    |   0.0 |  1.81
Other   |            | 0.2073     |            |       |  0.49

Nlocal:    19652 ave 19652 max 19652 min
Histogram: 1 0 0 0 0 0 0 0 0 0
Nghost:    12841 ave 12841 max 12841 min
Histogram: 1 0 0 0 0 0 0 0 0 0
Neighs:    609091 ave 609091 max 609091 min
Histogram: 1 0 0 0 0 0 0 0 0 0

Total # of neighbors = 609091
Ave neighs/atom = 30.9938
Neighbor list builds = 495
Dangerous builds not checked
Setting up Verlet run ...
  Unit style    : metal
  Current step  : 125495
  Time step     : 0.001
Per MPI rank memory allocation (min/avg/max) = 18.24 | 18.24 | 18.24 Mbytes
Step Temp Press TotEng PotEng Enthalpy 
  125495    1554.8588   -537.79886   -78115.838   -82065.321   -78385.947 
  130000    1546.8643    84.002522   -78214.873   -82144.049   -78172.839 
Loop time of 406.098 on 1 procs for 4505 steps with 19652 atoms

Performance: 0.958 ns/day, 25.040 hours/ns, 11.093 timesteps/s
99.3% CPU use with 1 MPI tasks x no OpenMP threads

MPI task timing breakdown:
Section |  min time  |  avg time  |  max time  |%varavg| %total
---------------------------------------------------------------
Pair    | 195.25     | 195.25     | 195.25     |   0.0 | 48.08
Neigh   | 196.84     | 196.84     | 196.84     |   0.0 | 48.47
Comm    | 4.8435     | 4.8435     | 4.8435     |   0.0 |  1.19
Output  | 0.082091   | 0.082091   | 0.082091   |   0.0 |  0.02
Modify  | 7.2037     | 7.2037     | 7.2037     |   0.0 |  1.77
Other   |            | 1.884      |            |       |  0.46

Nlocal:    19652 ave 19652 max 19652 min
Histogram: 1 0 0 0 0 0 0 0 0 0
Nghost:    12839 ave 12839 max 12839 min
Histogram: 1 0 0 0 0 0 0 0 0 0
Neighs:    611148 ave 611148 max 611148 min
Histogram: 1 0 0 0 0 0 0 0 0 0

Total # of neighbors = 611148
Ave neighs/atom = 31.0985
Neighbor list builds = 4505
Dangerous builds not checked
Setting up Verlet run ...
  Unit style    : metal
  Current step  : 130000
  Time step     : 0.001
Per MPI rank memory allocation (min/avg/max) = 18.24 | 18.24 | 18.24 Mbytes
Step Temp Press TotEng PotEng Enthalpy 
  130000    1546.8643    84.002522   -78214.873   -82144.049   -78172.839 
  130495    1505.2223    411.04495    -78387.03   -82210.432   -78181.849 
Loop time of 41.3865 on 1 procs for 495 steps with 19652 atoms

Performance: 1.033 ns/day, 23.225 hours/ns, 11.960 timesteps/s
99.4% CPU use with 1 MPI tasks x no OpenMP threads

MPI task timing breakdown:
Section |  min time  |  avg time  |  max time  |%varavg| %total
---------------------------------------------------------------
Pair    | 19.41      | 19.41      | 19.41      |   0.0 | 46.90
Neigh   | 20.54      | 20.54      | 20.54      |   0.0 | 49.63
Comm    | 0.48978    | 0.48978    | 0.48978    |   0.0 |  1.18
Output  | 0.00017905 | 0.00017905 | 0.00017905 |   0.0 |  0.00
Modify  | 0.75633    | 0.75633    | 0.75633    |   0.0 |  1.83
Other   |            | 0.1903     |            |       |  0.46

Nlocal:    19652 ave 19652 max 19652 min
Histogram: 1 0 0 0 0 0 0 0 0 0
Nghost:    12886 ave 12886 max 12886 min
Histogram: 1 0 0 0 0 0 0 0 0 0
Neighs:    612925 ave 612925 max 612925 min
Histogram: 1 0 0 0 0 0 0 0 0 0

Total # of neighbors = 612925
Ave neighs/atom = 31.1889
Neighbor list builds = 495
Dangerous builds not checked
Setting up Verlet run ...
  Unit style    : metal
  Current step  : 130495
  Time step     : 0.001
Per MPI rank memory allocation (min/avg/max) = 18.24 | 18.24 | 18.24 Mbytes
Step Temp Press TotEng PotEng Enthalpy 
  130495    1505.2223    411.04495    -78387.03   -82210.432   -78181.849 
  135000    1509.5607   -189.16392   -78376.425   -82210.846   -78471.081 
Loop time of 381.19 on 1 procs for 4505 steps with 19652 atoms

Performance: 1.021 ns/day, 23.504 hours/ns, 11.818 timesteps/s
98.4% CPU use with 1 MPI tasks x no OpenMP threads

MPI task timing breakdown:
Section |  min time  |  avg time  |  max time  |%varavg| %total
---------------------------------------------------------------
Pair    | 178.46     | 178.46     | 178.46     |   0.0 | 46.82
Neigh   | 189.44     | 189.44     | 189.44     |   0.0 | 49.70
Comm    | 4.5699     | 4.5699     | 4.5699     |   0.0 |  1.20
Output  | 0.11443    | 0.11443    | 0.11443    |   0.0 |  0.03
Modify  | 6.8849     | 6.8849     | 6.8849     |   0.0 |  1.81
Other   |            | 1.727      |            |       |  0.45

Nlocal:    19652 ave 19652 max 19652 min
Histogram: 1 0 0 0 0 0 0 0 0 0
Nghost:    12891 ave 12891 max 12891 min
Histogram: 1 0 0 0 0 0 0 0 0 0
Neighs:    610976 ave 610976 max 610976 min
Histogram: 1 0 0 0 0 0 0 0 0 0

Total # of neighbors = 610976
Ave neighs/atom = 31.0898
Neighbor list builds = 4505
Dangerous builds not checked
Setting up Verlet run ...
  Unit style    : metal
  Current step  : 135000
  Time step     : 0.001
Per MPI rank memory allocation (min/avg/max) = 18.24 | 18.24 | 18.24 Mbytes
Step Temp Press TotEng PotEng Enthalpy 
  135000    1509.5607   -189.16392   -78376.425   -82210.846   -78471.081 
  135495    1453.0036   -245.74621   -78600.465   -82291.227   -78723.226 
Loop time of 41.6033 on 1 procs for 495 steps with 19652 atoms

Performance: 1.028 ns/day, 23.346 hours/ns, 11.898 timesteps/s
97.5% CPU use with 1 MPI tasks x no OpenMP threads

MPI task timing breakdown:
Section |  min time  |  avg time  |  max time  |%varavg| %total
---------------------------------------------------------------
Pair    | 19.669     | 19.669     | 19.669     |   0.0 | 47.28
Neigh   | 20.496     | 20.496     | 20.496     |   0.0 | 49.27
Comm    | 0.49698    | 0.49698    | 0.49698    |   0.0 |  1.19
Output  | 0.00017214 | 0.00017214 | 0.00017214 |   0.0 |  0.00
Modify  | 0.7405     | 0.7405     | 0.7405     |   0.0 |  1.78
Other   |            | 0.2008     |            |       |  0.48

Nlocal:    19652 ave 19652 max 19652 min
Histogram: 1 0 0 0 0 0 0 0 0 0
Nghost:    12881 ave 12881 max 12881 min
Histogram: 1 0 0 0 0 0 0 0 0 0
Neighs:    611813 ave 611813 max 611813 min
Histogram: 1 0 0 0 0 0 0 0 0 0

Total # of neighbors = 611813
Ave neighs/atom = 31.1324
Neighbor list builds = 495
Dangerous builds not checked
Setting up Verlet run ...
  Unit style    : metal
  Current step  : 135495
  Time step     : 0.001
Per MPI rank memory allocation (min/avg/max) = 18.24 | 18.24 | 18.24 Mbytes
Step Temp Press TotEng PotEng Enthalpy 
  135495    1453.0036   -245.74621   -78600.465   -82291.227   -78723.226 
  140000     1458.743    240.81829   -78668.158   -82373.498   -78548.224 
Loop time of 417.411 on 1 procs for 4505 steps with 19652 atoms

Performance: 0.932 ns/day, 25.738 hours/ns, 10.793 timesteps/s
98.3% CPU use with 1 MPI tasks x no OpenMP threads

MPI task timing breakdown:
Section |  min time  |  avg time  |  max time  |%varavg| %total
---------------------------------------------------------------
Pair    | 205.25     | 205.25     | 205.25     |   0.0 | 49.17
Neigh   | 197.66     | 197.66     | 197.66     |   0.0 | 47.35
Comm    | 5.1374     | 5.1374     | 5.1374     |   0.0 |  1.23
Output  | 0.080986   | 0.080986   | 0.080986   |   0.0 |  0.02
Modify  | 7.3478     | 7.3478     | 7.3478     |   0.0 |  1.76
Other   |            | 1.936      |            |       |  0.46

Nlocal:    19652 ave 19652 max 19652 min
Histogram: 1 0 0 0 0 0 0 0 0 0
Nghost:    12920 ave 12920 max 12920 min
Histogram: 1 0 0 0 0 0 0 0 0 0
Neighs:    613718 ave 613718 max 613718 min
Histogram: 1 0 0 0 0 0 0 0 0 0

Total # of neighbors = 613718
Ave neighs/atom = 31.2293
Neighbor list builds = 4505
Dangerous builds not checked
Setting up Verlet run ...
  Unit style    : metal
  Current step  : 140000
  Time step     : 0.001
Per MPI rank memory allocation (min/avg/max) = 18.24 | 18.24 | 18.24 Mbytes
Step Temp Press TotEng PotEng Enthalpy 
  140000     1458.743    240.81829   -78668.158   -82373.498   -78548.224 
  140495    1419.1947    265.91587   -78828.306    -82433.19   -78696.025 
Loop time of 45.3294 on 1 procs for 495 steps with 19652 atoms

Performance: 0.943 ns/day, 25.437 hours/ns, 10.920 timesteps/s
97.3% CPU use with 1 MPI tasks x no OpenMP threads

MPI task timing breakdown:
Section |  min time  |  avg time  |  max time  |%varavg| %total
---------------------------------------------------------------
Pair    | 22.124     | 22.124     | 22.124     |   0.0 | 48.81
Neigh   | 21.592     | 21.592     | 21.592     |   0.0 | 47.63
Comm    | 0.5691     | 0.5691     | 0.5691     |   0.0 |  1.26
Output  | 0.00019383 | 0.00019383 | 0.00019383 |   0.0 |  0.00
Modify  | 0.81655    | 0.81655    | 0.81655    |   0.0 |  1.80
Other   |            | 0.2277     |            |       |  0.50

Nlocal:    19652 ave 19652 max 19652 min
Histogram: 1 0 0 0 0 0 0 0 0 0
Nghost:    12894 ave 12894 max 12894 min
Histogram: 1 0 0 0 0 0 0 0 0 0
Neighs:    614657 ave 614657 max 614657 min
Histogram: 1 0 0 0 0 0 0 0 0 0

Total # of neighbors = 614657
Ave neighs/atom = 31.2771
Neighbor list builds = 495
Dangerous builds not checked
Setting up Verlet run ...
  Unit style    : metal
  Current step  : 140495
  Time step     : 0.001
Per MPI rank memory allocation (min/avg/max) = 18.24 | 18.24 | 18.24 Mbytes
Step Temp Press TotEng PotEng Enthalpy 
  140495    1419.1947    265.91587   -78828.306    -82433.19   -78696.025 
  145000    1407.4454    4.3216454   -78859.647   -82434.686   -78857.495 
Loop time of 418.676 on 1 procs for 4505 steps with 19652 atoms

Performance: 0.930 ns/day, 25.816 hours/ns, 10.760 timesteps/s
99.4% CPU use with 1 MPI tasks x no OpenMP threads

MPI task timing breakdown:
Section |  min time  |  avg time  |  max time  |%varavg| %total
---------------------------------------------------------------
Pair    | 201.72     | 201.72     | 201.72     |   0.0 | 48.18
Neigh   | 202.89     | 202.89     | 202.89     |   0.0 | 48.46
Comm    | 4.8757     | 4.8757     | 4.8757     |   0.0 |  1.16
Output  | 0.087752   | 0.087752   | 0.087752   |   0.0 |  0.02
Modify  | 7.143      | 7.143      | 7.143      |   0.0 |  1.71
Other   |            | 1.96       |            |       |  0.47

Nlocal:    19652 ave 19652 max 19652 min
Histogram: 1 0 0 0 0 0 0 0 0 0
Nghost:    12877 ave 12877 max 12877 min
Histogram: 1 0 0 0 0 0 0 0 0 0
Neighs:    613816 ave 613816 max 613816 min
Histogram: 1 0 0 0 0 0 0 0 0 0

Total # of neighbors = 613816
Ave neighs/atom = 31.2343
Neighbor list builds = 4505
Dangerous builds not checked
Setting up Verlet run ...
  Unit style    : metal
  Current step  : 145000
  Time step     : 0.001
Per MPI rank memory allocation (min/avg/max) = 18.24 | 18.24 | 18.24 Mbytes
Step Temp Press TotEng PotEng Enthalpy 
  145000    1407.4454    4.3216454   -78859.647   -82434.686   -78857.495 
  145495    1366.0251   -115.41839   -79074.006   -82543.834   -79131.382 
Loop time of 44.3238 on 1 procs for 495 steps with 19652 atoms

Performance: 0.965 ns/day, 24.873 hours/ns, 11.168 timesteps/s
99.9% CPU use with 1 MPI tasks x no OpenMP threads

MPI task timing breakdown:
Section |  min time  |  avg time  |  max time  |%varavg| %total
---------------------------------------------------------------
Pair    | 21.367     | 21.367     | 21.367     |   0.0 | 48.21
Neigh   | 21.514     | 21.514     | 21.514     |   0.0 | 48.54
Comm    | 0.50598    | 0.50598    | 0.50598    |   0.0 |  1.14
Output  | 0.0001781  | 0.0001781  | 0.0001781  |   0.0 |  0.00
Modify  | 0.73479    | 0.73479    | 0.73479    |   0.0 |  1.66
Other   |            | 0.2022     |            |       |  0.46

Nlocal:    19652 ave 19652 max 19652 min
Histogram: 1 0 0 0 0 0 0 0 0 0
Nghost:    12890 ave 12890 max 12890 min
Histogram: 1 0 0 0 0 0 0 0 0 0
Neighs:    615040 ave 615040 max 615040 min
Histogram: 1 0 0 0 0 0 0 0 0 0

Total # of neighbors = 615040
Ave neighs/atom = 31.2966
Neighbor list builds = 495
Dangerous builds not checked
Setting up Verlet run ...
  Unit style    : metal
  Current step  : 145495
  Time step     : 0.001
Per MPI rank memory allocation (min/avg/max) = 18.24 | 18.24 | 18.24 Mbytes
Step Temp Press TotEng PotEng Enthalpy 
  145495    1366.0251   -115.41839   -79074.006   -82543.834   -79131.382 
  150000    1343.8761   -683.13641   -79189.611   -82603.178   -79529.472 
Loop time of 416.092 on 1 procs for 4505 steps with 19652 atoms

Performance: 0.935 ns/day, 25.656 hours/ns, 10.827 timesteps/s
98.7% CPU use with 1 MPI tasks x no OpenMP threads

MPI task timing breakdown:
Section |  min time  |  avg time  |  max time  |%varavg| %total
---------------------------------------------------------------
Pair    | 201.58     | 201.58     | 201.58     |   0.0 | 48.45
Neigh   | 200.12     | 200.12     | 200.12     |   0.0 | 48.10
Comm    | 5.1675     | 5.1675     | 5.1675     |   0.0 |  1.24
Output  | 0.15338    | 0.15338    | 0.15338    |   0.0 |  0.04
Modify  | 7.1401     | 7.1401     | 7.1401     |   0.0 |  1.72
Other   |            | 1.932      |            |       |  0.46

Nlocal:    19652 ave 19652 max 19652 min
Histogram: 1 0 0 0 0 0 0 0 0 0
Nghost:    12931 ave 12931 max 12931 min
Histogram: 1 0 0 0 0 0 0 0 0 0
Neighs:    614846 ave 614846 max 614846 min
Histogram: 1 0 0 0 0 0 0 0 0 0

Total # of neighbors = 614846
Ave neighs/atom = 31.2867
Neighbor list builds = 4505
Dangerous builds not checked
Setting up Verlet run ...
  Unit style    : metal
  Current step  : 150000
  Time step     : 0.001
Per MPI rank memory allocation (min/avg/max) = 18.24 | 18.24 | 18.24 Mbytes
Step Temp Press TotEng PotEng Enthalpy 
  150000    1343.8761   -683.13641   -79189.611   -82603.178   -79529.472 
  150495    1302.7622   -539.05495   -79362.134   -82671.268   -79629.649 
Loop time of 44.218 on 1 procs for 495 steps with 19652 atoms

Performance: 0.967 ns/day, 24.814 hours/ns, 11.195 timesteps/s
100.0% CPU use with 1 MPI tasks x no OpenMP threads

MPI task timing breakdown:
Section |  min time  |  avg time  |  max time  |%varavg| %total
---------------------------------------------------------------
Pair    | 21.361     | 21.361     | 21.361     |   0.0 | 48.31
Neigh   | 21.287     | 21.287     | 21.287     |   0.0 | 48.14
Comm    | 0.57281    | 0.57281    | 0.57281    |   0.0 |  1.30
Output  | 0.00019908 | 0.00019908 | 0.00019908 |   0.0 |  0.00
Modify  | 0.78948    | 0.78948    | 0.78948    |   0.0 |  1.79
Other   |            | 0.2073     |            |       |  0.47

Nlocal:    19652 ave 19652 max 19652 min
Histogram: 1 0 0 0 0 0 0 0 0 0
Nghost:    12921 ave 12921 max 12921 min
Histogram: 1 0 0 0 0 0 0 0 0 0
Neighs:    615438 ave 615438 max 615438 min
Histogram: 1 0 0 0 0 0 0 0 0 0

Total # of neighbors = 615438
Ave neighs/atom = 31.3168
Neighbor list builds = 495
Dangerous builds not checked
Setting up Verlet run ...
  Unit style    : metal
  Current step  : 150495
  Time step     : 0.001
Per MPI rank memory allocation (min/avg/max) = 18.24 | 18.24 | 18.24 Mbytes
Step Temp Press TotEng PotEng Enthalpy 
  150495    1302.7622   -539.05495   -79362.134   -82671.268   -79629.649 
  155000    1288.7798   -170.44392   -79444.988   -82718.606   -79529.403 
Loop time of 421.171 on 1 procs for 4505 steps with 19652 atoms

Performance: 0.924 ns/day, 25.969 hours/ns, 10.696 timesteps/s
99.7% CPU use with 1 MPI tasks x no OpenMP threads

MPI task timing breakdown:
Section |  min time  |  avg time  |  max time  |%varavg| %total
---------------------------------------------------------------
Pair    | 205.33     | 205.33     | 205.33     |   0.0 | 48.75
Neigh   | 201.51     | 201.51     | 201.51     |   0.0 | 47.84
Comm    | 5.1724     | 5.1724     | 5.1724     |   0.0 |  1.23
Output  | 0.15469    | 0.15469    | 0.15469    |   0.0 |  0.04
Modify  | 7.1009     | 7.1009     | 7.1009     |   0.0 |  1.69
Other   |            | 1.909      |            |       |  0.45

Nlocal:    19652 ave 19652 max 19652 min
Histogram: 1 0 0 0 0 0 0 0 0 0
Nghost:    12973 ave 12973 max 12973 min
Histogram: 1 0 0 0 0 0 0 0 0 0
Neighs:    616986 ave 616986 max 616986 min
Histogram: 1 0 0 0 0 0 0 0 0 0

Total # of neighbors = 616986
Ave neighs/atom = 31.3956
Neighbor list builds = 4505
Dangerous builds not checked
Setting up Verlet run ...
  Unit style    : metal
  Current step  : 155000
  Time step     : 0.001
Per MPI rank memory allocation (min/avg/max) = 18.24 | 18.24 | 18.24 Mbytes
Step Temp Press TotEng PotEng Enthalpy 
  155000    1288.7798   -170.44392   -79444.988   -82718.606   -79529.403 
  155495    1266.8009   -146.78157   -79609.738   -82827.528   -79682.333 
Loop time of 45.2596 on 1 procs for 495 steps with 19652 atoms

Performance: 0.945 ns/day, 25.398 hours/ns, 10.937 timesteps/s
99.6% CPU use with 1 MPI tasks x no OpenMP threads

MPI task timing breakdown:
Section |  min time  |  avg time  |  max time  |%varavg| %total
---------------------------------------------------------------
Pair    | 22.145     | 22.145     | 22.145     |   0.0 | 48.93
Neigh   | 21.557     | 21.557     | 21.557     |   0.0 | 47.63
Comm    | 0.54573    | 0.54573    | 0.54573    |   0.0 |  1.21
Output  | 0.00017405 | 0.00017405 | 0.00017405 |   0.0 |  0.00
Modify  | 0.78971    | 0.78971    | 0.78971    |   0.0 |  1.74
Other   |            | 0.2219     |            |       |  0.49

Nlocal:    19652 ave 19652 max 19652 min
Histogram: 1 0 0 0 0 0 0 0 0 0
Nghost:    12984 ave 12984 max 12984 min
Histogram: 1 0 0 0 0 0 0 0 0 0
Neighs:    617282 ave 617282 max 617282 min
Histogram: 1 0 0 0 0 0 0 0 0 0

Total # of neighbors = 617282
Ave neighs/atom = 31.4106
Neighbor list builds = 495
Dangerous builds not checked
Setting up Verlet run ...
  Unit style    : metal
  Current step  : 155495
  Time step     : 0.001
Per MPI rank memory allocation (min/avg/max) = 18.24 | 18.24 | 18.24 Mbytes
Step Temp Press TotEng PotEng Enthalpy 
  155495    1266.8009   -146.78157   -79609.738   -82827.528   -79682.333 
  160000    1252.0665   -637.47944   -79698.186   -82878.549   -80013.699 
Loop time of 404.524 on 1 procs for 4505 steps with 19652 atoms

Performance: 0.962 ns/day, 24.943 hours/ns, 11.137 timesteps/s
98.7% CPU use with 1 MPI tasks x no OpenMP threads

MPI task timing breakdown:
Section |  min time  |  avg time  |  max time  |%varavg| %total
---------------------------------------------------------------
Pair    | 194.92     | 194.92     | 194.92     |   0.0 | 48.19
Neigh   | 195.52     | 195.52     | 195.52     |   0.0 | 48.33
Comm    | 4.9166     | 4.9166     | 4.9166     |   0.0 |  1.22
Output  | 0.08034    | 0.08034    | 0.08034    |   0.0 |  0.02
Modify  | 7.1297     | 7.1297     | 7.1297     |   0.0 |  1.76
Other   |            | 1.958      |            |       |  0.48

Nlocal:    19652 ave 19652 max 19652 min
Histogram: 1 0 0 0 0 0 0 0 0 0
Nghost:    12917 ave 12917 max 12917 min
Histogram: 1 0 0 0 0 0 0 0 0 0
Neighs:    617804 ave 617804 max 617804 min
Histogram: 1 0 0 0 0 0 0 0 0 0

Total # of neighbors = 617804
Ave neighs/atom = 31.4372
Neighbor list builds = 4505
Dangerous builds not checked
Setting up Verlet run ...
  Unit style    : metal
  Current step  : 160000
  Time step     : 0.001
Per MPI rank memory allocation (min/avg/max) = 18.24 | 18.24 | 18.24 Mbytes
Step Temp Press TotEng PotEng Enthalpy 
  160000    1252.0665   -637.47944   -79698.186   -82878.549   -80013.699 
  160495    1214.7632   -305.65018   -79851.334   -82936.943   -80002.267 
Loop time of 45.4061 on 1 procs for 495 steps with 19652 atoms

Performance: 0.942 ns/day, 25.480 hours/ns, 10.902 timesteps/s
100.0% CPU use with 1 MPI tasks x no OpenMP threads

MPI task timing breakdown:
Section |  min time  |  avg time  |  max time  |%varavg| %total
---------------------------------------------------------------
Pair    | 22.15      | 22.15      | 22.15      |   0.0 | 48.78
Neigh   | 21.755     | 21.755     | 21.755     |   0.0 | 47.91
Comm    | 0.53654    | 0.53654    | 0.53654    |   0.0 |  1.18
Output  | 0.0001812  | 0.0001812  | 0.0001812  |   0.0 |  0.00
Modify  | 0.75671    | 0.75671    | 0.75671    |   0.0 |  1.67
Other   |            | 0.208      |            |       |  0.46

Nlocal:    19652 ave 19652 max 19652 min
Histogram: 1 0 0 0 0 0 0 0 0 0
Nghost:    12963 ave 12963 max 12963 min
Histogram: 1 0 0 0 0 0 0 0 0 0
Neighs:    618653 ave 618653 max 618653 min
Histogram: 1 0 0 0 0 0 0 0 0 0

Total # of neighbors = 618653
Ave neighs/atom = 31.4804
Neighbor list builds = 495
Dangerous builds not checked
Setting up Verlet run ...
  Unit style    : metal
  Current step  : 160495
  Time step     : 0.001
Per MPI rank memory allocation (min/avg/max) = 18.24 | 18.24 | 18.24 Mbytes
Step Temp Press TotEng PotEng Enthalpy 
  160495    1214.7632   -305.65018   -79851.334   -82936.943   -80002.267 
  165000    1206.7285    712.16128   -79965.512   -83030.712   -79615.649 
Loop time of 418.032 on 1 procs for 4505 steps with 19652 atoms

Performance: 0.931 ns/day, 25.776 hours/ns, 10.777 timesteps/s
99.9% CPU use with 1 MPI tasks x no OpenMP threads

MPI task timing breakdown:
Section |  min time  |  avg time  |  max time  |%varavg| %total
---------------------------------------------------------------
Pair    | 206.28     | 206.28     | 206.28     |   0.0 | 49.35
Neigh   | 197.13     | 197.13     | 197.13     |   0.0 | 47.16
Comm    | 5.1139     | 5.1139     | 5.1139     |   0.0 |  1.22
Output  | 0.15587    | 0.15587    | 0.15587    |   0.0 |  0.04
Modify  | 7.3974     | 7.3974     | 7.3974     |   0.0 |  1.77
Other   |            | 1.958      |            |       |  0.47

Nlocal:    19652 ave 19652 max 19652 min
Histogram: 1 0 0 0 0 0 0 0 0 0
Nghost:    12988 ave 12988 max 12988 min
Histogram: 1 0 0 0 0 0 0 0 0 0
Neighs:    621540 ave 621540 max 621540 min
Histogram: 1 0 0 0 0 0 0 0 0 0

Total # of neighbors = 621540
Ave neighs/atom = 31.6273
Neighbor list builds = 4505
Dangerous builds not checked
Setting up Verlet run ...
  Unit style    : metal
  Current step  : 165000
  Time step     : 0.001
Per MPI rank memory allocation (min/avg/max) = 18.24 | 18.24 | 18.24 Mbytes
Step Temp Press TotEng PotEng Enthalpy 
  165000    1206.7285    712.16128   -79965.512   -83030.712   -79615.649 
  165495     1163.239    464.38249   -80115.478   -83070.211   -79887.356 
Loop time of 45.0288 on 1 procs for 495 steps with 19652 atoms

Performance: 0.950 ns/day, 25.269 hours/ns, 10.993 timesteps/s
99.4% CPU use with 1 MPI tasks x no OpenMP threads

MPI task timing breakdown:
Section |  min time  |  avg time  |  max time  |%varavg| %total
---------------------------------------------------------------
Pair    | 22.575     | 22.575     | 22.575     |   0.0 | 50.13
Neigh   | 20.807     | 20.807     | 20.807     |   0.0 | 46.21
Comm    | 0.58424    | 0.58424    | 0.58424    |   0.0 |  1.30
Output  | 0.00011015 | 0.00011015 | 0.00011015 |   0.0 |  0.00
Modify  | 0.84601    | 0.84601    | 0.84601    |   0.0 |  1.88
Other   |            | 0.2162     |            |       |  0.48

Nlocal:    19652 ave 19652 max 19652 min
Histogram: 1 0 0 0 0 0 0 0 0 0
Nghost:    12968 ave 12968 max 12968 min
Histogram: 1 0 0 0 0 0 0 0 0 0
Neighs:    621876 ave 621876 max 621876 min
Histogram: 1 0 0 0 0 0 0 0 0 0

Total # of neighbors = 621876
Ave neighs/atom = 31.6444
Neighbor list builds = 495
Dangerous builds not checked
Setting up Verlet run ...
  Unit style    : metal
  Current step  : 165495
  Time step     : 0.001
Per MPI rank memory allocation (min/avg/max) = 18.24 | 18.24 | 18.24 Mbytes
Step Temp Press TotEng PotEng Enthalpy 
  165495     1163.239    464.38249   -80115.478   -83070.211   -79887.356 
  170000    1150.1379     -437.442   -80200.649   -83122.104    -80416.14 
Loop time of 419.48 on 1 procs for 4505 steps with 19652 atoms

Performance: 0.928 ns/day, 25.865 hours/ns, 10.739 timesteps/s
99.9% CPU use with 1 MPI tasks x no OpenMP threads

MPI task timing breakdown:
Section |  min time  |  avg time  |  max time  |%varavg| %total
---------------------------------------------------------------
Pair    | 206.09     | 206.09     | 206.09     |   0.0 | 49.13
Neigh   | 198.8      | 198.8      | 198.8      |   0.0 | 47.39
Comm    | 5.0415     | 5.0415     | 5.0415     |   0.0 |  1.20
Output  | 0.083623   | 0.083623   | 0.083623   |   0.0 |  0.02
Modify  | 7.5105     | 7.5105     | 7.5105     |   0.0 |  1.79
Other   |            | 1.953      |            |       |  0.47

Nlocal:    19652 ave 19652 max 19652 min
Histogram: 1 0 0 0 0 0 0 0 0 0
Nghost:    12954 ave 12954 max 12954 min
Histogram: 1 0 0 0 0 0 0 0 0 0
Neighs:    620180 ave 620180 max 620180 min
[...]
Histogram: 1 0 0 0 0 0 0 0 0 0
Neighs:    638795 ave 638795 max 638795 min
Histogram: 1 0 0 0 0 0 0 0 0 0

Total # of neighbors = 638795
Ave neighs/atom = 32.5053
Neighbor list builds = 4505
Dangerous builds not checked
Setting up Verlet run ...
  Unit style    : metal
  Current step  : 240000
  Time step     : 0.001
Per MPI rank memory allocation (min/avg/max) = 18.24 | 18.24 | 18.24 Mbytes
Step Temp Press TotEng PotEng Enthalpy 
  240000    451.98695     72.40856   -84096.255   -85244.343   -84061.873 
  240495    419.08364    48.125025   -84250.411   -85314.921   -84227.581 
Loop time of 43.6491 on 1 procs for 495 steps with 19652 atoms

Performance: 0.980 ns/day, 24.494 hours/ns, 11.340 timesteps/s
99.9% CPU use with 1 MPI tasks x no OpenMP threads

MPI task timing breakdown:
Section |  min time  |  avg time  |  max time  |%varavg| %total
---------------------------------------------------------------
Pair    | 21.279     | 21.279     | 21.279     |   0.0 | 48.75
Neigh   | 20.778     | 20.778     | 20.778     |   0.0 | 47.60
Comm    | 0.54656    | 0.54656    | 0.54656    |   0.0 |  1.25
Output  | 0.0002141  | 0.0002141  | 0.0002141  |   0.0 |  0.00
Modify  | 0.82622    | 0.82622    | 0.82622    |   0.0 |  1.89
Other   |            | 0.2193     |            |       |  0.50

Nlocal:    19652 ave 19652 max 19652 min
Histogram: 1 0 0 0 0 0 0 0 0 0
Nghost:    13188 ave 13188 max 13188 min
Histogram: 1 0 0 0 0 0 0 0 0 0
Neighs:    639466 ave 639466 max 639466 min
Histogram: 1 0 0 0 0 0 0 0 0 0

Total # of neighbors = 639466
Ave neighs/atom = 32.5395
Neighbor list builds = 495
Dangerous builds not checked
Setting up Verlet run ...
  Unit style    : metal
  Current step  : 240495
  Time step     : 0.001
Per MPI rank memory allocation (min/avg/max) = 18.24 | 18.24 | 18.24 Mbytes
Step Temp Press TotEng PotEng Enthalpy 
  240495    419.08364    48.125025   -84250.411   -85314.921   -84227.581 
  245000    397.75557    365.47965   -84409.848   -85420.184   -84236.889 
Loop time of 417.823 on 1 procs for 4505 steps with 19652 atoms

Performance: 0.932 ns/day, 25.763 hours/ns, 10.782 timesteps/s
98.2% CPU use with 1 MPI tasks x no OpenMP threads

MPI task timing breakdown:
Section |  min time  |  avg time  |  max time  |%varavg| %total
---------------------------------------------------------------
Pair    | 204.61     | 204.61     | 204.61     |   0.0 | 48.97
Neigh   | 199.49     | 199.49     | 199.49     |   0.0 | 47.75
Comm    | 4.9138     | 4.9138     | 4.9138     |   0.0 |  1.18
Output  | 0.087282   | 0.087282   | 0.087282   |   0.0 |  0.02
Modify  | 6.8066     | 6.8066     | 6.8066     |   0.0 |  1.63
Other   |            | 1.91       |            |       |  0.46

Nlocal:    19652 ave 19652 max 19652 min
Histogram: 1 0 0 0 0 0 0 0 0 0
Nghost:    13196 ave 13196 max 13196 min
Histogram: 1 0 0 0 0 0 0 0 0 0
Neighs:    640419 ave 640419 max 640419 min
Histogram: 1 0 0 0 0 0 0 0 0 0

Total # of neighbors = 640419
Ave neighs/atom = 32.588
Neighbor list builds = 4505
Dangerous builds not checked
Setting up Verlet run ...
  Unit style    : metal
  Current step  : 245000
  Time step     : 0.001
Per MPI rank memory allocation (min/avg/max) = 18.24 | 18.24 | 18.24 Mbytes
Step Temp Press TotEng PotEng Enthalpy 
  245000    397.75557    365.47965   -84409.848   -85420.184   -84236.889 
  245495    369.43629    424.23829   -84556.321   -85494.723   -84355.932 
Loop time of 45.9871 on 1 procs for 495 steps with 19652 atoms

Performance: 0.930 ns/day, 25.806 hours/ns, 10.764 timesteps/s
98.6% CPU use with 1 MPI tasks x no OpenMP threads

MPI task timing breakdown:
Section |  min time  |  avg time  |  max time  |%varavg| %total
---------------------------------------------------------------
Pair    | 22.883     | 22.883     | 22.883     |   0.0 | 49.76
Neigh   | 21.516     | 21.516     | 21.516     |   0.0 | 46.79
Comm    | 0.57939    | 0.57939    | 0.57939    |   0.0 |  1.26
Output  | 0.000175   | 0.000175   | 0.000175   |   0.0 |  0.00
Modify  | 0.80124    | 0.80124    | 0.80124    |   0.0 |  1.74
Other   |            | 0.2073     |            |       |  0.45

Nlocal:    19652 ave 19652 max 19652 min
Histogram: 1 0 0 0 0 0 0 0 0 0
Nghost:    13150 ave 13150 max 13150 min
Histogram: 1 0 0 0 0 0 0 0 0 0
Neighs:    641318 ave 641318 max 641318 min
Histogram: 1 0 0 0 0 0 0 0 0 0

Total # of neighbors = 641318
Ave neighs/atom = 32.6337
Neighbor list builds = 495
Dangerous builds not checked
Setting up Verlet run ...
  Unit style    : metal
  Current step  : 245495
  Time step     : 0.001
Per MPI rank memory allocation (min/avg/max) = 18.24 | 18.24 | 18.24 Mbytes
Step Temp Press TotEng PotEng Enthalpy 
  245495    369.43629    424.23829   -84556.321   -85494.723   -84355.932 
  250000    352.83041    -133.1126   -84716.302   -85612.523   -84779.207 
Loop time of 383.83 on 1 procs for 4505 steps with 19652 atoms

Performance: 1.014 ns/day, 23.667 hours/ns, 11.737 timesteps/s
98.3% CPU use with 1 MPI tasks x no OpenMP threads

MPI task timing breakdown:
Section |  min time  |  avg time  |  max time  |%varavg| %total
---------------------------------------------------------------
Pair    | 183.33     | 183.33     | 183.33     |   0.0 | 47.76
Neigh   | 186.81     | 186.81     | 186.81     |   0.0 | 48.67
Comm    | 4.7046     | 4.7046     | 4.7046     |   0.0 |  1.23
Output  | 0.08743    | 0.08743    | 0.08743    |   0.0 |  0.02
Modify  | 7.1098     | 7.1098     | 7.1098     |   0.0 |  1.85
Other   |            | 1.78       |            |       |  0.46

Nlocal:    19652 ave 19652 max 19652 min
Histogram: 1 0 0 0 0 0 0 0 0 0
Nghost:    13151 ave 13151 max 13151 min
Histogram: 1 0 0 0 0 0 0 0 0 0
Neighs:    641272 ave 641272 max 641272 min
Histogram: 1 0 0 0 0 0 0 0 0 0

Total # of neighbors = 641272
Ave neighs/atom = 32.6314
Neighbor list builds = 4505
Dangerous builds not checked
Setting up Verlet run ...
  Unit style    : metal
  Current step  : 250000
  Time step     : 0.001
Per MPI rank memory allocation (min/avg/max) = 18.24 | 18.24 | 18.24 Mbytes
Step Temp Press TotEng PotEng Enthalpy 
  250000    352.83041    -133.1126   -84716.302   -85612.523   -84779.207 
  250495    321.86089   -123.08443   -84869.148   -85686.704   -84927.233 
Loop time of 40.5788 on 1 procs for 495 steps with 19652 atoms

Performance: 1.054 ns/day, 22.771 hours/ns, 12.199 timesteps/s
98.6% CPU use with 1 MPI tasks x no OpenMP threads

MPI task timing breakdown:
Section |  min time  |  avg time  |  max time  |%varavg| %total
---------------------------------------------------------------
Pair    | 19.078     | 19.078     | 19.078     |   0.0 | 47.02
Neigh   | 20.105     | 20.105     | 20.105     |   0.0 | 49.55
Comm    | 0.48061    | 0.48061    | 0.48061    |   0.0 |  1.18
Output  | 0.00015807 | 0.00015807 | 0.00015807 |   0.0 |  0.00
Modify  | 0.72712    | 0.72712    | 0.72712    |   0.0 |  1.79
Other   |            | 0.1877     |            |       |  0.46

Nlocal:    19652 ave 19652 max 19652 min
Histogram: 1 0 0 0 0 0 0 0 0 0
Nghost:    13173 ave 13173 max 13173 min
Histogram: 1 0 0 0 0 0 0 0 0 0
Neighs:    641672 ave 641672 max 641672 min
Histogram: 1 0 0 0 0 0 0 0 0 0

Total # of neighbors = 641672
Ave neighs/atom = 32.6517
Neighbor list builds = 495
Dangerous builds not checked
Setting up Verlet run ...
  Unit style    : metal
  Current step  : 250495
  Time step     : 0.001
Per MPI rank memory allocation (min/avg/max) = 18.24 | 18.24 | 18.24 Mbytes
Step Temp Press TotEng PotEng Enthalpy 
  250495    321.86089   -123.08443   -84869.148   -85686.704   -84927.233 
  255000    300.00091    -62.73282   -85041.425   -85803.455    -85070.97 
Loop time of 367.239 on 1 procs for 4505 steps with 19652 atoms

Performance: 1.060 ns/day, 22.644 hours/ns, 12.267 timesteps/s
98.0% CPU use with 1 MPI tasks x no OpenMP threads

MPI task timing breakdown:
Section |  min time  |  avg time  |  max time  |%varavg| %total
---------------------------------------------------------------
Pair    | 172.15     | 172.15     | 172.15     |   0.0 | 46.88
Neigh   | 182.11     | 182.11     | 182.11     |   0.0 | 49.59
Comm    | 4.3749     | 4.3749     | 4.3749     |   0.0 |  1.19
Output  | 0.11819    | 0.11819    | 0.11819    |   0.0 |  0.03
Modify  | 6.7016     | 6.7016     | 6.7016     |   0.0 |  1.82
Other   |            | 1.786      |            |       |  0.49

Nlocal:    19652 ave 19652 max 19652 min
Histogram: 1 0 0 0 0 0 0 0 0 0
Nghost:    13190 ave 13190 max 13190 min
Histogram: 1 0 0 0 0 0 0 0 0 0
Neighs:    643001 ave 643001 max 643001 min
Histogram: 1 0 0 0 0 0 0 0 0 0

Total # of neighbors = 643001
Ave neighs/atom = 32.7194
Neighbor list builds = 4505
Dangerous builds not checked
Setting up Verlet run ...
  Unit style    : metal
  Current step  : 255000
  Time step     : 0.001
Per MPI rank memory allocation (min/avg/max) = 18.24 | 18.24 | 18.24 Mbytes
Step Temp Press TotEng PotEng Enthalpy 
  255000    300.00091    -62.73282   -85041.425   -85803.455    -85070.97 
  255495    274.10417    18.192205   -85177.976   -85874.225   -85169.421 
Loop time of 40.6341 on 1 procs for 495 steps with 19652 atoms

Performance: 1.053 ns/day, 22.803 hours/ns, 12.182 timesteps/s
99.2% CPU use with 1 MPI tasks x no OpenMP threads

MPI task timing breakdown:
Section |  min time  |  avg time  |  max time  |%varavg| %total
---------------------------------------------------------------
Pair    | 19.271     | 19.271     | 19.271     |   0.0 | 47.43
Neigh   | 19.913     | 19.913     | 19.913     |   0.0 | 49.00
Comm    | 0.49718    | 0.49718    | 0.49718    |   0.0 |  1.22
Output  | 0.00013804 | 0.00013804 | 0.00013804 |   0.0 |  0.00
Modify  | 0.76083    | 0.76083    | 0.76083    |   0.0 |  1.87
Other   |            | 0.1925     |            |       |  0.47

Nlocal:    19652 ave 19652 max 19652 min
Histogram: 1 0 0 0 0 0 0 0 0 0
Nghost:    13188 ave 13188 max 13188 min
Histogram: 1 0 0 0 0 0 0 0 0 0
Neighs:    643214 ave 643214 max 643214 min
Histogram: 1 0 0 0 0 0 0 0 0 0

Total # of neighbors = 643214
Ave neighs/atom = 32.7302
Neighbor list builds = 495
Dangerous builds not checked
Setting up Verlet run ...
  Unit style    : metal
  Current step  : 255495
  Time step     : 0.001
Per MPI rank memory allocation (min/avg/max) = 18.24 | 18.24 | 18.24 Mbytes
Step Temp Press TotEng PotEng Enthalpy 
  255495    274.10417    18.192205   -85177.976   -85874.225   -85169.421 
  260000    249.38787    4.7507442   -85354.868   -85988.336   -85352.637 
Loop time of 403.903 on 1 procs for 4505 steps with 19652 atoms

Performance: 0.964 ns/day, 24.905 hours/ns, 11.154 timesteps/s
95.3% CPU use with 1 MPI tasks x no OpenMP threads

MPI task timing breakdown:
Section |  min time  |  avg time  |  max time  |%varavg| %total
---------------------------------------------------------------
Pair    | 194.89     | 194.89     | 194.89     |   0.0 | 48.25
Neigh   | 194.37     | 194.37     | 194.37     |   0.0 | 48.12
Comm    | 5.123      | 5.123      | 5.123      |   0.0 |  1.27
Output  | 0.088214   | 0.088214   | 0.088214   |   0.0 |  0.02
Modify  | 7.5746     | 7.5746     | 7.5746     |   0.0 |  1.88
Other   |            | 1.861      |            |       |  0.46

Nlocal:    19652 ave 19652 max 19652 min
Histogram: 1 0 0 0 0 0 0 0 0 0
Nghost:    13206 ave 13206 max 13206 min
Histogram: 1 0 0 0 0 0 0 0 0 0
Neighs:    643820 ave 643820 max 643820 min
Histogram: 1 0 0 0 0 0 0 0 0 0

Total # of neighbors = 643820
Ave neighs/atom = 32.761
Neighbor list builds = 4505
Dangerous builds not checked
Setting up Verlet run ...
  Unit style    : metal
  Current step  : 260000
  Time step     : 0.001
Per MPI rank memory allocation (min/avg/max) = 18.24 | 18.24 | 18.24 Mbytes
Step Temp Press TotEng PotEng Enthalpy 
  260000    249.38787    4.7507442   -85354.868   -85988.336   -85352.637 
  260495    223.60026   -39.571399   -85483.339   -86051.304   -85501.899 
Loop time of 43.3514 on 1 procs for 495 steps with 19652 atoms

Performance: 0.987 ns/day, 24.327 hours/ns, 11.418 timesteps/s
97.1% CPU use with 1 MPI tasks x no OpenMP threads

MPI task timing breakdown:
Section |  min time  |  avg time  |  max time  |%varavg| %total
---------------------------------------------------------------
Pair    | 20.628     | 20.628     | 20.628     |   0.0 | 47.58
Neigh   | 21.218     | 21.218     | 21.218     |   0.0 | 48.94
Comm    | 0.52904    | 0.52904    | 0.52904    |   0.0 |  1.22
Output  | 0.0001781  | 0.0001781  | 0.0001781  |   0.0 |  0.00
Modify  | 0.75762    | 0.75762    | 0.75762    |   0.0 |  1.75
Other   |            | 0.2183     |            |       |  0.50

Nlocal:    19652 ave 19652 max 19652 min
Histogram: 1 0 0 0 0 0 0 0 0 0
Nghost:    13206 ave 13206 max 13206 min
Histogram: 1 0 0 0 0 0 0 0 0 0
Neighs:    644006 ave 644006 max 644006 min
Histogram: 1 0 0 0 0 0 0 0 0 0

Total # of neighbors = 644006
Ave neighs/atom = 32.7705
Neighbor list builds = 495
Dangerous builds not checked
Setting up Verlet run ...
  Unit style    : metal
  Current step  : 260495
  Time step     : 0.001
Per MPI rank memory allocation (min/avg/max) = 18.24 | 18.24 | 18.24 Mbytes
Step Temp Press TotEng PotEng Enthalpy 
  260495    223.60026   -39.571399   -85483.339   -86051.304   -85501.899 
  265000      200.929    -210.1969   -85655.098   -86165.476   -85753.567 
Loop time of 384.783 on 1 procs for 4505 steps with 19652 atoms

Performance: 1.012 ns/day, 23.726 hours/ns, 11.708 timesteps/s
99.1% CPU use with 1 MPI tasks x no OpenMP threads

MPI task timing breakdown:
Section |  min time  |  avg time  |  max time  |%varavg| %total
---------------------------------------------------------------
Pair    | 182.48     | 182.48     | 182.48     |   0.0 | 47.42
Neigh   | 188.19     | 188.19     | 188.19     |   0.0 | 48.91
Comm    | 4.7968     | 4.7968     | 4.7968     |   0.0 |  1.25
Output  | 0.085978   | 0.085978   | 0.085978   |   0.0 |  0.02
Modify  | 7.1925     | 7.1925     | 7.1925     |   0.0 |  1.87
Other   |            | 2.034      |            |       |  0.53

Nlocal:    19652 ave 19652 max 19652 min
Histogram: 1 0 0 0 0 0 0 0 0 0
Nghost:    13226 ave 13226 max 13226 min
Histogram: 1 0 0 0 0 0 0 0 0 0
Neighs:    644741 ave 644741 max 644741 min
Histogram: 1 0 0 0 0 0 0 0 0 0

Total # of neighbors = 644741
Ave neighs/atom = 32.8079
Neighbor list builds = 4505
Dangerous builds not checked
Setting up Verlet run ...
  Unit style    : metal
  Current step  : 265000
  Time step     : 0.001
Per MPI rank memory allocation (min/avg/max) = 18.24 | 18.24 | 18.24 Mbytes
Step Temp Press TotEng PotEng Enthalpy 
  265000      200.929    -210.1969   -85655.098   -86165.476   -85753.567 
  265495    176.02951   -138.69769   -85782.327   -86229.458   -85847.228 
Loop time of 41.0849 on 1 procs for 495 steps with 19652 atoms

Performance: 1.041 ns/day, 23.055 hours/ns, 12.048 timesteps/s
100.0% CPU use with 1 MPI tasks x no OpenMP threads

MPI task timing breakdown:
Section |  min time  |  avg time  |  max time  |%varavg| %total
---------------------------------------------------------------
Pair    | 19.492     | 19.492     | 19.492     |   0.0 | 47.44
Neigh   | 20.11      | 20.11      | 20.11      |   0.0 | 48.95
Comm    | 0.50933    | 0.50933    | 0.50933    |   0.0 |  1.24
Output  | 0.00019193 | 0.00019193 | 0.00019193 |   0.0 |  0.00
Modify  | 0.76328    | 0.76328    | 0.76328    |   0.0 |  1.86
Other   |            | 0.2098     |            |       |  0.51

Nlocal:    19652 ave 19652 max 19652 min
Histogram: 1 0 0 0 0 0 0 0 0 0
Nghost:    13220 ave 13220 max 13220 min
Histogram: 1 0 0 0 0 0 0 0 0 0
Neighs:    645298 ave 645298 max 645298 min
Histogram: 1 0 0 0 0 0 0 0 0 0

Total # of neighbors = 645298
Ave neighs/atom = 32.8363
Neighbor list builds = 495
Dangerous builds not checked
Setting up Verlet run ...
  Unit style    : metal
  Current step  : 265495
  Time step     : 0.001
Per MPI rank memory allocation (min/avg/max) = 18.24 | 18.24 | 18.24 Mbytes
Step Temp Press TotEng PotEng Enthalpy 
  265495    176.02951   -138.69769   -85782.327   -86229.458   -85847.228 
  270000    149.87638   -21.750169    -85946.21    -86326.91   -85956.366 
Loop time of 379.933 on 1 procs for 4505 steps with 19652 atoms

Performance: 1.024 ns/day, 23.427 hours/ns, 11.857 timesteps/s
98.6% CPU use with 1 MPI tasks x no OpenMP threads

MPI task timing breakdown:
Section |  min time  |  avg time  |  max time  |%varavg| %total
---------------------------------------------------------------
Pair    | 179.92     | 179.92     | 179.92     |   0.0 | 47.36
Neigh   | 186.16     | 186.16     | 186.16     |   0.0 | 49.00
Comm    | 4.8111     | 4.8111     | 4.8111     |   0.0 |  1.27
Output  | 0.080611   | 0.080611   | 0.080611   |   0.0 |  0.02
Modify  | 7.048      | 7.048      | 7.048      |   0.0 |  1.86
Other   |            | 1.913      |            |       |  0.50

Nlocal:    19652 ave 19652 max 19652 min
Histogram: 1 0 0 0 0 0 0 0 0 0
Nghost:    13222 ave 13222 max 13222 min
Histogram: 1 0 0 0 0 0 0 0 0 0
Neighs:    646318 ave 646318 max 646318 min
Histogram: 1 0 0 0 0 0 0 0 0 0

Total # of neighbors = 646318
Ave neighs/atom = 32.8882
Neighbor list builds = 4505
Dangerous builds not checked
Setting up Verlet run ...
  Unit style    : metal
  Current step  : 270000
  Time step     : 0.001
Per MPI rank memory allocation (min/avg/max) = 18.24 | 18.24 | 18.24 Mbytes
Step Temp Press TotEng PotEng Enthalpy 
  270000    149.87638   -21.750169    -85946.21    -86326.91   -85956.366 
  270495    126.27007    7.7001631   -86063.721   -86384.458   -86060.129 
Loop time of 42.2288 on 1 procs for 495 steps with 19652 atoms

Performance: 1.013 ns/day, 23.697 hours/ns, 11.722 timesteps/s
100.0% CPU use with 1 MPI tasks x no OpenMP threads

MPI task timing breakdown:
Section |  min time  |  avg time  |  max time  |%varavg| %total
---------------------------------------------------------------
Pair    | 20.486     | 20.486     | 20.486     |   0.0 | 48.51
Neigh   | 20.192     | 20.192     | 20.192     |   0.0 | 47.81
Comm    | 0.5385     | 0.5385     | 0.5385     |   0.0 |  1.28
Output  | 0.00039291 | 0.00039291 | 0.00039291 |   0.0 |  0.00
Modify  | 0.79443    | 0.79443    | 0.79443    |   0.0 |  1.88
Other   |            | 0.2176     |            |       |  0.52

Nlocal:    19652 ave 19652 max 19652 min
Histogram: 1 0 0 0 0 0 0 0 0 0
Nghost:    13228 ave 13228 max 13228 min
Histogram: 1 0 0 0 0 0 0 0 0 0
Neighs:    646883 ave 646883 max 646883 min
Histogram: 1 0 0 0 0 0 0 0 0 0

Total # of neighbors = 646883
Ave neighs/atom = 32.9169
Neighbor list builds = 495
Dangerous builds not checked
Setting up Verlet run ...
  Unit style    : metal
  Current step  : 270495
  Time step     : 0.001
Per MPI rank memory allocation (min/avg/max) = 18.24 | 18.24 | 18.24 Mbytes
Step Temp Press TotEng PotEng Enthalpy 
  270495    126.27007    7.7001631   -86063.721   -86384.458   -86060.129 
  275000     99.47068   -115.47373   -86226.935     -86479.6   -86280.747 
Loop time of 381.626 on 1 procs for 4505 steps with 19652 atoms

Performance: 1.020 ns/day, 23.531 hours/ns, 11.805 timesteps/s
99.5% CPU use with 1 MPI tasks x no OpenMP threads

MPI task timing breakdown:
Section |  min time  |  avg time  |  max time  |%varavg| %total
---------------------------------------------------------------
Pair    | 181.69     | 181.69     | 181.69     |   0.0 | 47.61
Neigh   | 186.06     | 186.06     | 186.06     |   0.0 | 48.75
Comm    | 4.7045     | 4.7045     | 4.7045     |   0.0 |  1.23
Output  | 0.080599   | 0.080599   | 0.080599   |   0.0 |  0.02
Modify  | 7.1715     | 7.1715     | 7.1715     |   0.0 |  1.88
Other   |            | 1.921      |            |       |  0.50

Nlocal:    19652 ave 19652 max 19652 min
Histogram: 1 0 0 0 0 0 0 0 0 0
Nghost:    13242 ave 13242 max 13242 min
Histogram: 1 0 0 0 0 0 0 0 0 0
Neighs:    647818 ave 647818 max 647818 min
Histogram: 1 0 0 0 0 0 0 0 0 0

Total # of neighbors = 647818
Ave neighs/atom = 32.9645
Neighbor list builds = 4505
Dangerous builds not checked
Total wall time: 6:42:24
