LAMMPS (12 Dec 2018)
Lattice spacing in x,y,z = 4 4 4
Created orthogonal box = (0 0 0) to (68 68 68)
  1 by 1 by 1 MPI processor grid
Created 19652 atoms
  Time spent = 0.00290203 secs
Setting atom values ...
  19652 settings made for type/fraction
Neighbor list info ...
  update every 1 steps, delay 0 steps, check no
  max neighbors/atom: 2000, page size: 100000
  master list distance cutoff = 8.5
  ghost atom cutoff = 8.5
  binsize = 4.25, bins = 16 16 16
  1 neighbor lists, perpetual/occasional/extra = 1 0 0
  (1) pair eam/alloy, perpetual
      attributes: half, newton on
      pair build: half/bin/atomonly/newton
      stencil: half/bin/3d/newton
      bin: standard
Setting up Verlet run ...
  Unit style    : metal
  Current step  : 0
  Time step     : 0.001
Per MPI rank memory allocation (min/avg/max) = 18.19 | 18.19 | 18.19 Mbytes
Step Temp Press TotEng PotEng Enthalpy 
       0          300    13251.401   -65138.774   -65900.801   -62538.146 
    1000    151.69976    20691.687   -65138.621   -65523.952   -61077.815 
Loop time of 164.609 on 1 procs for 1000 steps with 19652 atoms

Performance: 0.525 ns/day, 45.725 hours/ns, 6.075 timesteps/s
97.5% CPU use with 1 MPI tasks x no OpenMP threads

MPI task timing breakdown:
Section |  min time  |  avg time  |  max time  |%varavg| %total
---------------------------------------------------------------
Pair    | 93.134     | 93.134     | 93.134     |   0.0 | 56.58
Neigh   | 69.365     | 69.365     | 69.365     |   0.0 | 42.14
Comm    | 1.2578     | 1.2578     | 1.2578     |   0.0 |  0.76
Output  | 0.00020313 | 0.00020313 | 0.00020313 |   0.0 |  0.00
Modify  | 0.43463    | 0.43463    | 0.43463    |   0.0 |  0.26
Other   |            | 0.418      |            |       |  0.25

Nlocal:    19652 ave 19652 max 19652 min
Histogram: 1 0 0 0 0 0 0 0 0 0
Nghost:    20102 ave 20102 max 20102 min
Histogram: 1 0 0 0 0 0 0 0 0 0
Neighs:    1.57313e+06 ave 1.57313e+06 max 1.57313e+06 min
Histogram: 1 0 0 0 0 0 0 0 0 0

Total # of neighbors = 1573126
Ave neighs/atom = 80.0492
Neighbor list builds = 1000
Dangerous builds not checked
Setting up Verlet run ...
  Unit style    : metal
  Current step  : 1000
  Time step     : 0.001
Per MPI rank memory allocation (min/avg/max) = 18.19 | 18.19 | 18.19 Mbytes
Step Temp Press TotEng PotEng Enthalpy 
    1000    151.69976    20691.687   -65138.621   -65523.952   -61077.815 
    2000    296.81965   -82.623271   -64371.395   -65125.344   -64388.227 
Loop time of 163.379 on 1 procs for 1000 steps with 19652 atoms

Performance: 0.529 ns/day, 45.383 hours/ns, 6.121 timesteps/s
98.7% CPU use with 1 MPI tasks x no OpenMP threads

MPI task timing breakdown:
Section |  min time  |  avg time  |  max time  |%varavg| %total
---------------------------------------------------------------
Pair    | 91.316     | 91.316     | 91.316     |   0.0 | 55.89
Neigh   | 68.876     | 68.876     | 68.876     |   0.0 | 42.16
Comm    | 1.213      | 1.213      | 1.213      |   0.0 |  0.74
Output  | 0.00020504 | 0.00020504 | 0.00020504 |   0.0 |  0.00
Modify  | 1.5543     | 1.5543     | 1.5543     |   0.0 |  0.95
Other   |            | 0.4203     |            |       |  0.26

Nlocal:    19652 ave 19652 max 19652 min
Histogram: 1 0 0 0 0 0 0 0 0 0
Nghost:    20102 ave 20102 max 20102 min
Histogram: 1 0 0 0 0 0 0 0 0 0
Neighs:    1.46901e+06 ave 1.46901e+06 max 1.46901e+06 min
Histogram: 1 0 0 0 0 0 0 0 0 0

Total # of neighbors = 1469013
Ave neighs/atom = 74.7513
Neighbor list builds = 1000
Dangerous builds not checked
Setting up Verlet run ...
  Unit style    : metal
  Current step  : 2000
  Time step     : 0.001
Per MPI rank memory allocation (min/avg/max) = 18.19 | 18.19 | 18.19 Mbytes
Step Temp Press TotEng PotEng Enthalpy 
    2000    296.81965   -82.623271   -64371.395   -65125.344   -64388.227 
    6667    1542.5715    766.27822   -55470.507   -59388.779   -55277.736 
   10000    2430.8321    1050.5849   -50523.482   -56698.017   -50228.137 
Loop time of 1209.61 on 1 procs for 8000 steps with 19652 atoms

Performance: 0.571 ns/day, 42.000 hours/ns, 6.614 timesteps/s
99.2% CPU use with 1 MPI tasks x no OpenMP threads

MPI task timing breakdown:
Section |  min time  |  avg time  |  max time  |%varavg| %total
---------------------------------------------------------------
Pair    | 640.96     | 640.96     | 640.96     |   0.0 | 52.99
Neigh   | 543.15     | 543.15     | 543.15     |   0.0 | 44.90
Comm    | 9.236      | 9.236      | 9.236      |   0.0 |  0.76
Output  | 0.74137    | 0.74137    | 0.74137    |   0.0 |  0.06
Modify  | 12.323     | 12.323     | 12.323     |   0.0 |  1.02
Other   |            | 3.196      |            |       |  0.26

Nlocal:    19652 ave 19652 max 19652 min
Histogram: 1 0 0 0 0 0 0 0 0 0
Nghost:    16179 ave 16179 max 16179 min
Histogram: 1 0 0 0 0 0 0 0 0 0
Neighs:    1.0955e+06 ave 1.0955e+06 max 1.0955e+06 min
Histogram: 1 0 0 0 0 0 0 0 0 0

Total # of neighbors = 1095501
Ave neighs/atom = 55.745
Neighbor list builds = 8000
Dangerous builds not checked
Setting up Verlet run ...
  Unit style    : metal
  Current step  : 10000
  Time step     : 0.001
Per MPI rank memory allocation (min/avg/max) = 18.2 | 18.2 | 18.2 Mbytes
Step Temp Press TotEng PotEng Enthalpy 
   10000    2430.8321    1050.5849   -50523.482   -56698.017   -50228.137 
   13334    2434.8497   -21.892734   -50430.729   -56615.469   -50436.912 
   20001    2460.3166    809.10201   -50384.801   -56634.229   -50156.683 
   26668    2465.9326   -1066.3216   -50363.963   -56627.656   -50665.823 
   33335    2435.9095     819.6159   -50496.221   -56683.653   -50265.488 
   40000    2462.0079    393.74947   -50419.642   -56673.366   -50308.678 
Loop time of 4182.96 on 1 procs for 30000 steps with 19652 atoms

Performance: 0.620 ns/day, 38.731 hours/ns, 7.172 timesteps/s
99.6% CPU use with 1 MPI tasks x no OpenMP threads

MPI task timing breakdown:
Section |  min time  |  avg time  |  max time  |%varavg| %total
---------------------------------------------------------------
Pair    | 2217.8     | 2217.8     | 2217.8     |   0.0 | 53.02
Neigh   | 1873.5     | 1873.5     | 1873.5     |   0.0 | 44.79
Comm    | 33.73      | 33.73      | 33.73      |   0.0 |  0.81
Output  | 0.30429    | 0.30429    | 0.30429    |   0.0 |  0.01
Modify  | 45.735     | 45.735     | 45.735     |   0.0 |  1.09
Other   |            | 11.88      |            |       |  0.28

Nlocal:    19652 ave 19652 max 19652 min
Histogram: 1 0 0 0 0 0 0 0 0 0
Nghost:    16103 ave 16103 max 16103 min
Histogram: 1 0 0 0 0 0 0 0 0 0
Neighs:    1.0933e+06 ave 1.0933e+06 max 1.0933e+06 min
Histogram: 1 0 0 0 0 0 0 0 0 0

Total # of neighbors = 1093302
Ave neighs/atom = 55.6331
Neighbor list builds = 30000
Dangerous builds not checked
Setting up Verlet run ...
  Unit style    : metal
  Current step  : 40000
  Time step     : 0.001
Per MPI rank memory allocation (min/avg/max) = 18.2 | 18.2 | 18.2 Mbytes
Step Temp Press TotEng PotEng Enthalpy 
   40000    2462.0079    393.74947   -50419.642   -56673.366   -50308.678 
   40002    2460.2159    428.96562   -50419.645   -56668.818   -50298.757 
   40495    2399.3154     161.9808    -50632.31    -56726.79   -50586.778 
Loop time of 63.1373 on 1 procs for 495 steps with 19652 atoms

Performance: 0.677 ns/day, 35.431 hours/ns, 7.840 timesteps/s
99.8% CPU use with 1 MPI tasks x no OpenMP threads

MPI task timing breakdown:
Section |  min time  |  avg time  |  max time  |%varavg| %total
---------------------------------------------------------------
Pair    | 33.234     | 33.234     | 33.234     |   0.0 | 52.64
Neigh   | 28.426     | 28.426     | 28.426     |   0.0 | 45.02
Comm    | 0.51882    | 0.51882    | 0.51882    |   0.0 |  0.82
Output  | 0.064966   | 0.064966   | 0.064966   |   0.0 |  0.10
Modify  | 0.70254    | 0.70254    | 0.70254    |   0.0 |  1.11
Other   |            | 0.1914     |            |       |  0.30

Nlocal:    19652 ave 19652 max 19652 min
Histogram: 1 0 0 0 0 0 0 0 0 0
Nghost:    16158 ave 16158 max 16158 min
Histogram: 1 0 0 0 0 0 0 0 0 0
Neighs:    1.09603e+06 ave 1.09603e+06 max 1.09603e+06 min
Histogram: 1 0 0 0 0 0 0 0 0 0

Total # of neighbors = 1096032
Ave neighs/atom = 55.772
Neighbor list builds = 495
Dangerous builds not checked
Setting up Verlet run ...
  Unit style    : metal
  Current step  : 40495
  Time step     : 0.001
Per MPI rank memory allocation (min/avg/max) = 18.2 | 18.2 | 18.2 Mbytes
Step Temp Press TotEng PotEng Enthalpy 
   40495    2399.3154     161.9808    -50632.31    -56726.79   -50586.778 
   46667    2393.2245   -460.44407   -50677.633   -56756.641   -50807.073 
Loop time of 667.87 on 1 procs for 6172 steps with 19652 atoms

Performance: 0.798 ns/day, 30.058 hours/ns, 9.241 timesteps/s
99.9% CPU use with 1 MPI tasks x no OpenMP threads

MPI task timing breakdown:
Section |  min time  |  avg time  |  max time  |%varavg| %total
---------------------------------------------------------------
Pair    | 343.59     | 343.59     | 343.59     |   0.0 | 51.45
Neigh   | 309.68     | 309.68     | 309.68     |   0.0 | 46.37
Comm    | 5.4873     | 5.4873     | 5.4873     |   0.0 |  0.82
Output  | 0.00025105 | 0.00025105 | 0.00025105 |   0.0 |  0.00
Modify  | 7.1962     | 7.1962     | 7.1962     |   0.0 |  1.08
Other   |            | 1.913      |            |       |  0.29

Nlocal:    19652 ave 19652 max 19652 min
Histogram: 1 0 0 0 0 0 0 0 0 0
Nghost:    16078 ave 16078 max 16078 min
Histogram: 1 0 0 0 0 0 0 0 0 0
Neighs:    1.09612e+06 ave 1.09612e+06 max 1.09612e+06 min
Histogram: 1 0 0 0 0 0 0 0 0 0

Total # of neighbors = 1096119
Ave neighs/atom = 55.7765
Neighbor list builds = 6172
Dangerous builds not checked
Setting up Verlet run ...
  Unit style    : metal
  Current step  : 46667
  Time step     : 0.001
Per MPI rank memory allocation (min/avg/max) = 18.2 | 18.2 | 18.2 Mbytes
Step Temp Press TotEng PotEng Enthalpy 
   46667    2393.2245   -460.44407   -50677.633   -56756.641   -50807.073 
   46669    2395.0125   -476.56587   -50677.636   -56761.186   -50811.608 
   47162    2356.1147    891.50313   -50946.642   -56931.388   -50698.481 
Loop time of 53.9804 on 1 procs for 495 steps with 19652 atoms

Performance: 0.792 ns/day, 30.292 hours/ns, 9.170 timesteps/s
100.0% CPU use with 1 MPI tasks x no OpenMP threads

MPI task timing breakdown:
Section |  min time  |  avg time  |  max time  |%varavg| %total
---------------------------------------------------------------
Pair    | 27.588     | 27.588     | 27.588     |   0.0 | 51.11
Neigh   | 25.161     | 25.161     | 25.161     |   0.0 | 46.61
Comm    | 0.43516    | 0.43516    | 0.43516    |   0.0 |  0.81
Output  | 0.041675   | 0.041675   | 0.041675   |   0.0 |  0.08
Modify  | 0.59612    | 0.59612    | 0.59612    |   0.0 |  1.10
Other   |            | 0.1591     |            |       |  0.29

Nlocal:    19652 ave 19652 max 19652 min
Histogram: 1 0 0 0 0 0 0 0 0 0
Nghost:    16312 ave 16312 max 16312 min
Histogram: 1 0 0 0 0 0 0 0 0 0
Neighs:    1.1068e+06 ave 1.1068e+06 max 1.1068e+06 min
Histogram: 1 0 0 0 0 0 0 0 0 0

Total # of neighbors = 1106795
Ave neighs/atom = 56.3197
Neighbor list builds = 495
Dangerous builds not checked
Setting up Verlet run ...
  Unit style    : metal
  Current step  : 47162
  Time step     : 0.001
Per MPI rank memory allocation (min/avg/max) = 18.2 | 18.2 | 18.2 Mbytes
Step Temp Press TotEng PotEng Enthalpy 
   47162    2356.1147    891.50313   -50946.642   -56931.388   -50698.481 
   53334    2345.0552    -844.8301   -51005.253   -56961.906    -51241.04 
Loop time of 710.969 on 1 procs for 6172 steps with 19652 atoms

Performance: 0.750 ns/day, 31.998 hours/ns, 8.681 timesteps/s
100.0% CPU use with 1 MPI tasks x no OpenMP threads

MPI task timing breakdown:
Section |  min time  |  avg time  |  max time  |%varavg| %total
---------------------------------------------------------------
Pair    | 359.3      | 359.3      | 359.3      |   0.0 | 50.54
Neigh   | 336.51     | 336.51     | 336.51     |   0.0 | 47.33
Comm    | 5.6708     | 5.6708     | 5.6708     |   0.0 |  0.80
Output  | 0.00023508 | 0.00023508 | 0.00023508 |   0.0 |  0.00
Modify  | 7.5045     | 7.5045     | 7.5045     |   0.0 |  1.06
Other   |            | 1.989      |            |       |  0.28

Nlocal:    19652 ave 19652 max 19652 min
Histogram: 1 0 0 0 0 0 0 0 0 0
Nghost:    16227 ave 16227 max 16227 min
Histogram: 1 0 0 0 0 0 0 0 0 0
Neighs:    1.10384e+06 ave 1.10384e+06 max 1.10384e+06 min
Histogram: 1 0 0 0 0 0 0 0 0 0

Total # of neighbors = 1103836
Ave neighs/atom = 56.1691
Neighbor list builds = 6172
Dangerous builds not checked
Setting up Verlet run ...
  Unit style    : metal
  Current step  : 53334
  Time step     : 0.001
Per MPI rank memory allocation (min/avg/max) = 18.2 | 18.2 | 18.2 Mbytes
Step Temp Press TotEng PotEng Enthalpy 
   53334    2345.0552    -844.8301   -51005.253   -56961.906    -51241.04 
   53336    2343.4084   -808.28978   -51005.241   -56957.712    -51230.83 
   53829    2305.1218     91.02133   -51201.327   -57056.546   -51176.091 
Loop time of 57.392 on 1 procs for 495 steps with 19652 atoms

Performance: 0.745 ns/day, 32.207 hours/ns, 8.625 timesteps/s
100.0% CPU use with 1 MPI tasks x no OpenMP threads

MPI task timing breakdown:
Section |  min time  |  avg time  |  max time  |%varavg| %total
---------------------------------------------------------------
Pair    | 28.798     | 28.798     | 28.798     |   0.0 | 50.18
Neigh   | 27.315     | 27.315     | 27.315     |   0.0 | 47.59
Comm    | 0.45363    | 0.45363    | 0.45363    |   0.0 |  0.79
Output  | 0.046235   | 0.046235   | 0.046235   |   0.0 |  0.08
Modify  | 0.61552    | 0.61552    | 0.61552    |   0.0 |  1.07
Other   |            | 0.1633     |            |       |  0.28

Nlocal:    19652 ave 19652 max 19652 min
Histogram: 1 0 0 0 0 0 0 0 0 0
Nghost:    16351 ave 16351 max 16351 min
Histogram: 1 0 0 0 0 0 0 0 0 0
Neighs:    1.11111e+06 ave 1.11111e+06 max 1.11111e+06 min
Histogram: 1 0 0 0 0 0 0 0 0 0

Total # of neighbors = 1111110
Ave neighs/atom = 56.5393
Neighbor list builds = 495
Dangerous builds not checked
Setting up Verlet run ...
  Unit style    : metal
  Current step  : 53829
  Time step     : 0.001
Per MPI rank memory allocation (min/avg/max) = 18.2 | 18.2 | 18.2 Mbytes
Step Temp Press TotEng PotEng Enthalpy 
   53829    2305.1218     91.02133   -51201.327   -57056.546   -51176.091 
   60001    2303.3522     940.9871   -51221.448   -57072.172   -50961.032 
Loop time of 953.359 on 1 procs for 6172 steps with 19652 atoms

Performance: 0.559 ns/day, 42.907 hours/ns, 6.474 timesteps/s
96.4% CPU use with 1 MPI tasks x no OpenMP threads

MPI task timing breakdown:
Section |  min time  |  avg time  |  max time  |%varavg| %total
---------------------------------------------------------------
Pair    | 496.64     | 496.64     | 496.64     |   0.0 | 52.09
Neigh   | 436.74     | 436.74     | 436.74     |   0.0 | 45.81
Comm    | 7.3926     | 7.3926     | 7.3926     |   0.0 |  0.78
Output  | 0.00023103 | 0.00023103 | 0.00023103 |   0.0 |  0.00
Modify  | 9.9376     | 9.9376     | 9.9376     |   0.0 |  1.04
Other   |            | 2.651      |            |       |  0.28

Nlocal:    19652 ave 19652 max 19652 min
Histogram: 1 0 0 0 0 0 0 0 0 0
Nghost:    16317 ave 16317 max 16317 min
Histogram: 1 0 0 0 0 0 0 0 0 0
Neighs:    1.11332e+06 ave 1.11332e+06 max 1.11332e+06 min
Histogram: 1 0 0 0 0 0 0 0 0 0

Total # of neighbors = 1113317
Ave neighs/atom = 56.6516
Neighbor list builds = 6172
Dangerous builds not checked
Setting up Verlet run ...
  Unit style    : metal
  Current step  : 60001
  Time step     : 0.001
Per MPI rank memory allocation (min/avg/max) = 18.2 | 18.2 | 18.2 Mbytes
Step Temp Press TotEng PotEng Enthalpy 
   60001    2303.3522     940.9871   -51221.448   -57072.172   -50961.032 
   60003    2304.7696    919.13101   -51221.456   -57075.781   -50967.089 
   60496    2251.5511    467.19978   -51456.958   -57176.103   -51328.241 
Loop time of 77.6884 on 1 procs for 495 steps with 19652 atoms

Performance: 0.551 ns/day, 43.596 hours/ns, 6.372 timesteps/s
95.7% CPU use with 1 MPI tasks x no OpenMP threads

MPI task timing breakdown:
Section |  min time  |  avg time  |  max time  |%varavg| %total
---------------------------------------------------------------
Pair    | 39.702     | 39.702     | 39.702     |   0.0 | 51.10
Neigh   | 36.161     | 36.161     | 36.161     |   0.0 | 46.55
Comm    | 0.61739    | 0.61739    | 0.61739    |   0.0 |  0.79
Output  | 0.093446   | 0.093446   | 0.093446   |   0.0 |  0.12
Modify  | 0.87132    | 0.87132    | 0.87132    |   0.0 |  1.12
Other   |            | 0.2425     |            |       |  0.31

Nlocal:    19652 ave 19652 max 19652 min
Histogram: 1 0 0 0 0 0 0 0 0 0
Nghost:    16312 ave 16312 max 16312 min
Histogram: 1 0 0 0 0 0 0 0 0 0
Neighs:    1.11888e+06 ave 1.11888e+06 max 1.11888e+06 min
Histogram: 1 0 0 0 0 0 0 0 0 0

Total # of neighbors = 1118878
Ave neighs/atom = 56.9346
Neighbor list builds = 495
Dangerous builds not checked
Setting up Verlet run ...
  Unit style    : metal
  Current step  : 60496
  Time step     : 0.001
Per MPI rank memory allocation (min/avg/max) = 18.2 | 18.2 | 18.2 Mbytes
Step Temp Press TotEng PotEng Enthalpy 
   60496    2251.5511    467.19978   -51456.958   -57176.103   -51328.241 
   66668    2241.5329    -55.58296   -51550.651   -57244.348   -51565.944 
Loop time of 1002.56 on 1 procs for 6172 steps with 19652 atoms

Performance: 0.532 ns/day, 45.121 hours/ns, 6.156 timesteps/s
95.3% CPU use with 1 MPI tasks x no OpenMP threads

MPI task timing breakdown:
Section |  min time  |  avg time  |  max time  |%varavg| %total
---------------------------------------------------------------
Pair    | 521.25     | 521.25     | 521.25     |   0.0 | 51.99
Neigh   | 460.13     | 460.13     | 460.13     |   0.0 | 45.90
Comm    | 7.804      | 7.804      | 7.804      |   0.0 |  0.78
Output  | 0.00024199 | 0.00024199 | 0.00024199 |   0.0 |  0.00
Modify  | 10.596     | 10.596     | 10.596     |   0.0 |  1.06
Other   |            | 2.784      |            |       |  0.28

Nlocal:    19652 ave 19652 max 19652 min
Histogram: 1 0 0 0 0 0 0 0 0 0
Nghost:    16359 ave 16359 max 16359 min
Histogram: 1 0 0 0 0 0 0 0 0 0
Neighs:    1.1201e+06 ave 1.1201e+06 max 1.1201e+06 min
Histogram: 1 0 0 0 0 0 0 0 0 0

Total # of neighbors = 1120101
Ave neighs/atom = 56.9968
Neighbor list builds = 6172
Dangerous builds not checked
Setting up Verlet run ...
  Unit style    : metal
  Current step  : 66668
  Time step     : 0.001
Per MPI rank memory allocation (min/avg/max) = 18.2 | 18.2 | 18.2 Mbytes
Step Temp Press TotEng PotEng Enthalpy 
   66668    2241.5329    -55.58296   -51550.651   -57244.348   -51565.944 
   66670    2243.6316   -141.36184   -51550.643   -57249.671   -51589.538 
   67163    2224.6417   -11.112844   -51721.055   -57371.847     -51724.1 
Loop time of 75.3575 on 1 procs for 495 steps with 19652 atoms

Performance: 0.568 ns/day, 42.288 hours/ns, 6.569 timesteps/s
98.1% CPU use with 1 MPI tasks x no OpenMP threads

MPI task timing breakdown:
Section |  min time  |  avg time  |  max time  |%varavg| %total
---------------------------------------------------------------
Pair    | 38.821     | 38.821     | 38.821     |   0.0 | 51.52
Neigh   | 34.808     | 34.808     | 34.808     |   0.0 | 46.19
Comm    | 0.58297    | 0.58297    | 0.58297    |   0.0 |  0.77
Output  | 0.065569   | 0.065569   | 0.065569   |   0.0 |  0.09
Modify  | 0.84465    | 0.84465    | 0.84465    |   0.0 |  1.12
Other   |            | 0.2348     |            |       |  0.31

Nlocal:    19652 ave 19652 max 19652 min
Histogram: 1 0 0 0 0 0 0 0 0 0
Nghost:    16227 ave 16227 max 16227 min
Histogram: 1 0 0 0 0 0 0 0 0 0
Neighs:    1.12462e+06 ave 1.12462e+06 max 1.12462e+06 min
Histogram: 1 0 0 0 0 0 0 0 0 0

Total # of neighbors = 1124615
Ave neighs/atom = 57.2265
Neighbor list builds = 495
Dangerous builds not checked
Setting up Verlet run ...
  Unit style    : metal
  Current step  : 67163
  Time step     : 0.001
Per MPI rank memory allocation (min/avg/max) = 18.2 | 18.2 | 18.2 Mbytes
Step Temp Press TotEng PotEng Enthalpy 
   67163    2224.6417   -11.112844   -51721.055   -57371.847     -51724.1 
   73335    2182.8531   -67.984111   -51752.408   -57297.054   -51771.074 
Loop time of 964.365 on 1 procs for 6172 steps with 19652 atoms

Performance: 0.553 ns/day, 43.402 hours/ns, 6.400 timesteps/s
98.2% CPU use with 1 MPI tasks x no OpenMP threads

MPI task timing breakdown:
Section |  min time  |  avg time  |  max time  |%varavg| %total
---------------------------------------------------------------
Pair    | 503.75     | 503.75     | 503.75     |   0.0 | 52.24
Neigh   | 440.38     | 440.38     | 440.38     |   0.0 | 45.67
Comm    | 7.4346     | 7.4346     | 7.4346     |   0.0 |  0.77
Output  | 0.00037193 | 0.00037193 | 0.00037193 |   0.0 |  0.00
Modify  | 10.082     | 10.082     | 10.082     |   0.0 |  1.05
Other   |            | 2.713      |            |       |  0.28

Nlocal:    19652 ave 19652 max 19652 min
Histogram: 1 0 0 0 0 0 0 0 0 0
Nghost:    16372 ave 16372 max 16372 min
Histogram: 1 0 0 0 0 0 0 0 0 0
Neighs:    1.12276e+06 ave 1.12276e+06 max 1.12276e+06 min
Histogram: 1 0 0 0 0 0 0 0 0 0

Total # of neighbors = 1122758
Ave neighs/atom = 57.132
Neighbor list builds = 6172
Dangerous builds not checked
Setting up Verlet run ...
  Unit style    : metal
  Current step  : 73335
  Time step     : 0.001
Per MPI rank memory allocation (min/avg/max) = 18.2 | 18.2 | 18.2 Mbytes
Step Temp Press TotEng PotEng Enthalpy 
   73335    2182.8531   -67.984111   -51752.408   -57297.054   -51771.074 
   73337    2183.2912   -104.71897   -51752.385   -57298.144   -51781.137 
   73830    2164.7441    464.31393   -51999.411   -57498.058   -51873.104 
Loop time of 74.7013 on 1 procs for 495 steps with 19652 atoms

Performance: 0.573 ns/day, 41.920 hours/ns, 6.626 timesteps/s
98.4% CPU use with 1 MPI tasks x no OpenMP threads

MPI task timing breakdown:
Section |  min time  |  avg time  |  max time  |%varavg| %total
---------------------------------------------------------------
Pair    | 39.486     | 39.486     | 39.486     |   0.0 | 52.86
Neigh   | 33.565     | 33.565     | 33.565     |   0.0 | 44.93
Comm    | 0.57775    | 0.57775    | 0.57775    |   0.0 |  0.77
Output  | 0.062624   | 0.062624   | 0.062624   |   0.0 |  0.08
Modify  | 0.78644    | 0.78644    | 0.78644    |   0.0 |  1.05
Other   |            | 0.2231     |            |       |  0.30

Nlocal:    19652 ave 19652 max 19652 min
Histogram: 1 0 0 0 0 0 0 0 0 0
Nghost:    16489 ave 16489 max 16489 min
Histogram: 1 0 0 0 0 0 0 0 0 0
Neighs:    1.1336e+06 ave 1.1336e+06 max 1.1336e+06 min
Histogram: 1 0 0 0 0 0 0 0 0 0

Total # of neighbors = 1133603
Ave neighs/atom = 57.6838
Neighbor list builds = 495
Dangerous builds not checked
Setting up Verlet run ...
  Unit style    : metal
  Current step  : 73830
  Time step     : 0.001
Per MPI rank memory allocation (min/avg/max) = 18.2 | 18.2 | 18.2 Mbytes
Step Temp Press TotEng PotEng Enthalpy 
   73830    2164.7441    464.31393   -51999.411   -57498.058   -51873.104 
   80002    2155.2129   -347.81504   -52006.358   -57480.795   -52101.239 
Loop time of 1019.43 on 1 procs for 6172 steps with 19652 atoms

Performance: 0.523 ns/day, 45.881 hours/ns, 6.054 timesteps/s
97.0% CPU use with 1 MPI tasks x no OpenMP threads

MPI task timing breakdown:
Section |  min time  |  avg time  |  max time  |%varavg| %total
---------------------------------------------------------------
Pair    | 538.96     | 538.96     | 538.96     |   0.0 | 52.87
Neigh   | 458.9      | 458.9      | 458.9      |   0.0 | 45.02
Comm    | 8.065      | 8.065      | 8.065      |   0.0 |  0.79
Output  | 0.00040889 | 0.00040889 | 0.00040889 |   0.0 |  0.00
Modify  | 10.691     | 10.691     | 10.691     |   0.0 |  1.05
Other   |            | 2.82       |            |       |  0.28

Nlocal:    19652 ave 19652 max 19652 min
Histogram: 1 0 0 0 0 0 0 0 0 0
Nghost:    16421 ave 16421 max 16421 min
Histogram: 1 0 0 0 0 0 0 0 0 0
Neighs:    1.13021e+06 ave 1.13021e+06 max 1.13021e+06 min
Histogram: 1 0 0 0 0 0 0 0 0 0

Total # of neighbors = 1130207
Ave neighs/atom = 57.511
Neighbor list builds = 6172
Dangerous builds not checked
Setting up Verlet run ...
  Unit style    : metal
  Current step  : 80002
  Time step     : 0.001
Per MPI rank memory allocation (min/avg/max) = 18.2 | 18.2 | 18.2 Mbytes
Step Temp Press TotEng PotEng Enthalpy 
   80002    2155.2129   -347.81504   -52006.358   -57480.795   -52101.239 
   80004    2156.0413   -353.25659   -52006.367   -57482.909   -52102.732 
   80497    2129.9497     53.63566   -52257.531   -57667.798   -52243.024 
Loop time of 73.0171 on 1 procs for 495 steps with 19652 atoms

Performance: 0.586 ns/day, 40.975 hours/ns, 6.779 timesteps/s
99.9% CPU use with 1 MPI tasks x no OpenMP threads

MPI task timing breakdown:
Section |  min time  |  avg time  |  max time  |%varavg| %total
---------------------------------------------------------------
Pair    | 38.092     | 38.092     | 38.092     |   0.0 | 52.17
Neigh   | 33.287     | 33.287     | 33.287     |   0.0 | 45.59
Comm    | 0.58077    | 0.58077    | 0.58077    |   0.0 |  0.80
Output  | 0.069425   | 0.069425   | 0.069425   |   0.0 |  0.10
Modify  | 0.77835    | 0.77835    | 0.77835    |   0.0 |  1.07
Other   |            | 0.2097     |            |       |  0.29

Nlocal:    19652 ave 19652 max 19652 min
Histogram: 1 0 0 0 0 0 0 0 0 0
Nghost:    16495 ave 16495 max 16495 min
Histogram: 1 0 0 0 0 0 0 0 0 0
Neighs:    1.14032e+06 ave 1.14032e+06 max 1.14032e+06 min
Histogram: 1 0 0 0 0 0 0 0 0 0

Total # of neighbors = 1140324
Ave neighs/atom = 58.0258
Neighbor list builds = 495
Dangerous builds not checked
Setting up Verlet run ...
  Unit style    : metal
  Current step  : 80497
  Time step     : 0.001
Per MPI rank memory allocation (min/avg/max) = 18.2 | 18.2 | 18.2 Mbytes
Step Temp Press TotEng PotEng Enthalpy 
   80497    2129.9497     53.63566   -52257.531   -57667.798   -52243.024 
   86669    2102.3567    515.58172   -52278.695   -57618.872    -52139.19 
Loop time of 877.422 on 1 procs for 6172 steps with 19652 atoms

Performance: 0.608 ns/day, 39.489 hours/ns, 7.034 timesteps/s
99.9% CPU use with 1 MPI tasks x no OpenMP threads

MPI task timing breakdown:
Section |  min time  |  avg time  |  max time  |%varavg| %total
---------------------------------------------------------------
Pair    | 458.63     | 458.63     | 458.63     |   0.0 | 52.27
Neigh   | 400.32     | 400.32     | 400.32     |   0.0 | 45.62
Comm    | 6.927      | 6.927      | 6.927      |   0.0 |  0.79
Output  | 0.00017691 | 0.00017691 | 0.00017691 |   0.0 |  0.00
Modify  | 9.0942     | 9.0942     | 9.0942     |   0.0 |  1.04
Other   |            | 2.453      |            |       |  0.28

Nlocal:    19652 ave 19652 max 19652 min
Histogram: 1 0 0 0 0 0 0 0 0 0
Nghost:    16473 ave 16473 max 16473 min
Histogram: 1 0 0 0 0 0 0 0 0 0
Neighs:    1.13917e+06 ave 1.13917e+06 max 1.13917e+06 min
Histogram: 1 0 0 0 0 0 0 0 0 0

Total # of neighbors = 1139173
Ave neighs/atom = 57.9673
Neighbor list builds = 6172
Dangerous builds not checked
Setting up Verlet run ...
  Unit style    : metal
  Current step  : 86669
  Time step     : 0.001
Per MPI rank memory allocation (min/avg/max) = 18.2 | 18.2 | 18.2 Mbytes
Step Temp Press TotEng PotEng Enthalpy 
   86669    2102.3567    515.58172   -52278.695   -57618.872    -52139.19 
   86671    2101.0939    543.66305   -52278.695   -57615.665   -52131.592 
   87164    2059.5492    480.11264   -52518.408   -57749.851   -52389.131 
Loop time of 69.8097 on 1 procs for 495 steps with 19652 atoms

Performance: 0.613 ns/day, 39.175 hours/ns, 7.091 timesteps/s
99.9% CPU use with 1 MPI tasks x no OpenMP threads

MPI task timing breakdown:
Section |  min time  |  avg time  |  max time  |%varavg| %total
---------------------------------------------------------------
Pair    | 36.198     | 36.198     | 36.198     |   0.0 | 51.85
Neigh   | 32.029     | 32.029     | 32.029     |   0.0 | 45.88
Comm    | 0.55612    | 0.55612    | 0.55612    |   0.0 |  0.80
Output  | 0.067335   | 0.067335   | 0.067335   |   0.0 |  0.10
Modify  | 0.75569    | 0.75569    | 0.75569    |   0.0 |  1.08
Other   |            | 0.2044     |            |       |  0.29

Nlocal:    19652 ave 19652 max 19652 min
Histogram: 1 0 0 0 0 0 0 0 0 0
Nghost:    16516 ave 16516 max 16516 min
Histogram: 1 0 0 0 0 0 0 0 0 0
Neighs:    1.14488e+06 ave 1.14488e+06 max 1.14488e+06 min
Histogram: 1 0 0 0 0 0 0 0 0 0

Total # of neighbors = 1144879
Ave neighs/atom = 58.2576
Neighbor list builds = 495
Dangerous builds not checked
Setting up Verlet run ...
  Unit style    : metal
  Current step  : 87164
  Time step     : 0.001
Per MPI rank memory allocation (min/avg/max) = 18.2 | 18.2 | 18.2 Mbytes
Step Temp Press TotEng PotEng Enthalpy 
   87164    2059.5492    480.11264   -52518.408   -57749.851   -52389.131 
   93336     2077.541    723.36544   -52617.592   -57894.735   -52423.925 
Loop time of 925.92 on 1 procs for 6172 steps with 19652 atoms

Performance: 0.576 ns/day, 41.672 hours/ns, 6.666 timesteps/s
99.9% CPU use with 1 MPI tasks x no OpenMP threads

MPI task timing breakdown:
Section |  min time  |  avg time  |  max time  |%varavg| %total
---------------------------------------------------------------
Pair    | 490.79     | 490.79     | 490.79     |   0.0 | 53.01
Neigh   | 415.87     | 415.87     | 415.87     |   0.0 | 44.91
Comm    | 7.2277     | 7.2277     | 7.2277     |   0.0 |  0.78
Output  | 0.00024104 | 0.00024104 | 0.00024104 |   0.0 |  0.00
Modify  | 9.5142     | 9.5142     | 9.5142     |   0.0 |  1.03
Other   |            | 2.521      |            |       |  0.27

Nlocal:    19652 ave 19652 max 19652 min
Histogram: 1 0 0 0 0 0 0 0 0 0
Nghost:    16573 ave 16573 max 16573 min
Histogram: 1 0 0 0 0 0 0 0 0 0
Neighs:    1.15138e+06 ave 1.15138e+06 max 1.15138e+06 min
Histogram: 1 0 0 0 0 0 0 0 0 0

Total # of neighbors = 1151377
Ave neighs/atom = 58.5883
Neighbor list builds = 6172
Dangerous builds not checked
Setting up Verlet run ...
  Unit style    : metal
  Current step  : 93336
  Time step     : 0.001
Per MPI rank memory allocation (min/avg/max) = 18.2 | 18.2 | 18.2 Mbytes
Step Temp Press TotEng PotEng Enthalpy 
   93336     2077.541    723.36544   -52617.592   -57894.735   -52423.925 
   93338    2079.4087    710.58798   -52617.626   -57899.514    -52427.38 
   93831    2015.9101   -334.57947   -52765.726   -57886.321   -52855.468 
Loop time of 70.5317 on 1 procs for 495 steps with 19652 atoms

Performance: 0.606 ns/day, 39.580 hours/ns, 7.018 timesteps/s
99.9% CPU use with 1 MPI tasks x no OpenMP threads

MPI task timing breakdown:
Section |  min time  |  avg time  |  max time  |%varavg| %total
---------------------------------------------------------------
Pair    | 36.718     | 36.718     | 36.718     |   0.0 | 52.06
Neigh   | 32.222     | 32.222     | 32.222     |   0.0 | 45.68
Comm    | 0.56228    | 0.56228    | 0.56228    |   0.0 |  0.80
Output  | 0.070446   | 0.070446   | 0.070446   |   0.0 |  0.10
Modify  | 0.75886    | 0.75886    | 0.75886    |   0.0 |  1.08
Other   |            | 0.2006     |            |       |  0.28

Nlocal:    19652 ave 19652 max 19652 min
Histogram: 1 0 0 0 0 0 0 0 0 0
Nghost:    16517 ave 16517 max 16517 min
Histogram: 1 0 0 0 0 0 0 0 0 0
Neighs:    1.14998e+06 ave 1.14998e+06 max 1.14998e+06 min
Histogram: 1 0 0 0 0 0 0 0 0 0

Total # of neighbors = 1149984
Ave neighs/atom = 58.5174
Neighbor list builds = 495
Dangerous builds not checked
Setting up Verlet run ...
  Unit style    : metal
  Current step  : 93831
  Time step     : 0.001
Per MPI rank memory allocation (min/avg/max) = 18.2 | 18.2 | 18.2 Mbytes
Step Temp Press TotEng PotEng Enthalpy 
   93831    2015.9101   -334.57947   -52765.726   -57886.321   -52855.468 
  100003    1994.2001     346.8509   -52912.803   -57978.252   -52820.279 
Loop time of 890.677 on 1 procs for 6172 steps with 19652 atoms

Performance: 0.599 ns/day, 40.086 hours/ns, 6.930 timesteps/s
99.9% CPU use with 1 MPI tasks x no OpenMP threads

MPI task timing breakdown:
Section |  min time  |  avg time  |  max time  |%varavg| %total
---------------------------------------------------------------
Pair    | 469.18     | 469.18     | 469.18     |   0.0 | 52.68
Neigh   | 402.96     | 402.96     | 402.96     |   0.0 | 45.24
Comm    | 6.9908     | 6.9908     | 6.9908     |   0.0 |  0.78
Output  | 0.00029302 | 0.00029302 | 0.00029302 |   0.0 |  0.00
Modify  | 9.1138     | 9.1138     | 9.1138     |   0.0 |  1.02
Other   |            | 2.422      |            |       |  0.27

Nlocal:    19652 ave 19652 max 19652 min
Histogram: 1 0 0 0 0 0 0 0 0 0
Nghost:    16554 ave 16554 max 16554 min
Histogram: 1 0 0 0 0 0 0 0 0 0
Neighs:    1.15618e+06 ave 1.15618e+06 max 1.15618e+06 min
Histogram: 1 0 0 0 0 0 0 0 0 0

Total # of neighbors = 1156176
Ave neighs/atom = 58.8325
Neighbor list builds = 6172
Dangerous builds not checked
Setting up Verlet run ...
  Unit style    : metal
  Current step  : 100003
  Time step     : 0.001
Per MPI rank memory allocation (min/avg/max) = 18.2 | 18.2 | 18.2 Mbytes
Step Temp Press TotEng PotEng Enthalpy 
  100003    1994.2001     346.8509   -52912.803   -57978.252   -52820.279 
  100005    1993.8677    324.19838    -52912.79   -57977.396   -52826.309 
  100498    1961.7097    38.259855   -53083.932   -58066.853   -53073.759 
Loop time of 72.3914 on 1 procs for 495 steps with 19652 atoms

Performance: 0.591 ns/day, 40.624 hours/ns, 6.838 timesteps/s
100.0% CPU use with 1 MPI tasks x no OpenMP threads

MPI task timing breakdown:
Section |  min time  |  avg time  |  max time  |%varavg| %total
---------------------------------------------------------------
Pair    | 38.013     | 38.013     | 38.013     |   0.0 | 52.51
Neigh   | 32.763     | 32.763     | 32.763     |   0.0 | 45.26
Comm    | 0.58348    | 0.58348    | 0.58348    |   0.0 |  0.81
Output  | 0.061138   | 0.061138   | 0.061138   |   0.0 |  0.08
Modify  | 0.76623    | 0.76623    | 0.76623    |   0.0 |  1.06
Other   |            | 0.2052     |            |       |  0.28

Nlocal:    19652 ave 19652 max 19652 min
Histogram: 1 0 0 0 0 0 0 0 0 0
Nghost:    16545 ave 16545 max 16545 min
Histogram: 1 0 0 0 0 0 0 0 0 0
Neighs:    1.15976e+06 ave 1.15976e+06 max 1.15976e+06 min
Histogram: 1 0 0 0 0 0 0 0 0 0

Total # of neighbors = 1159762
Ave neighs/atom = 59.015
Neighbor list builds = 495
Dangerous builds not checked
Setting up Verlet run ...
  Unit style    : metal
  Current step  : 100498
  Time step     : 0.001
Per MPI rank memory allocation (min/avg/max) = 18.2 | 18.2 | 18.2 Mbytes
Step Temp Press TotEng PotEng Enthalpy 
  100498    1961.7097    38.259855   -53083.932   -58066.853   -53073.759 
  106670     1944.591   -734.19467   -53143.731   -58083.169   -53339.122 
Loop time of 937.099 on 1 procs for 6172 steps with 19652 atoms

Performance: 0.569 ns/day, 42.175 hours/ns, 6.586 timesteps/s
99.9% CPU use with 1 MPI tasks x no OpenMP threads

MPI task timing breakdown:
Section |  min time  |  avg time  |  max time  |%varavg| %total
---------------------------------------------------------------
Pair    | 497.73     | 497.73     | 497.73     |   0.0 | 53.11
Neigh   | 419.82     | 419.82     | 419.82     |   0.0 | 44.80
Comm    | 7.3823     | 7.3823     | 7.3823     |   0.0 |  0.79
Output  | 0.00029302 | 0.00029302 | 0.00029302 |   0.0 |  0.00
Modify  | 9.6214     | 9.6214     | 9.6214     |   0.0 |  1.03
Other   |            | 2.544      |            |       |  0.27

Nlocal:    19652 ave 19652 max 19652 min
Histogram: 1 0 0 0 0 0 0 0 0 0
Nghost:    16539 ave 16539 max 16539 min
Histogram: 1 0 0 0 0 0 0 0 0 0
Neighs:    1.15785e+06 ave 1.15785e+06 max 1.15785e+06 min
Histogram: 1 0 0 0 0 0 0 0 0 0

Total # of neighbors = 1157854
Ave neighs/atom = 58.9179
Neighbor list builds = 6172
Dangerous builds not checked
Setting up Verlet run ...
  Unit style    : metal
  Current step  : 106670
  Time step     : 0.001
Per MPI rank memory allocation (min/avg/max) = 18.2 | 18.2 | 18.2 Mbytes
Step Temp Press TotEng PotEng Enthalpy 
  106670     1944.591   -734.19467   -53143.731   -58083.169   -53339.122 
  106672    1944.2313     -723.829   -53143.728   -58082.253   -53336.361 
  107165    1912.8302    247.74131   -53387.376   -58246.139   -53321.988 
Loop time of 71.1505 on 1 procs for 495 steps with 19652 atoms

Performance: 0.601 ns/day, 39.927 hours/ns, 6.957 timesteps/s
99.9% CPU use with 1 MPI tasks x no OpenMP threads

MPI task timing breakdown:
Section |  min time  |  avg time  |  max time  |%varavg| %total
---------------------------------------------------------------
Pair    | 37.623     | 37.623     | 37.623     |   0.0 | 52.88
Neigh   | 31.941     | 31.941     | 31.941     |   0.0 | 44.89
Comm    | 0.56568    | 0.56568    | 0.56568    |   0.0 |  0.80
Output  | 0.054865   | 0.054865   | 0.054865   |   0.0 |  0.08
Modify  | 0.76341    | 0.76341    | 0.76341    |   0.0 |  1.07
Other   |            | 0.2021     |            |       |  0.28

Nlocal:    19652 ave 19652 max 19652 min
Histogram: 1 0 0 0 0 0 0 0 0 0
Nghost:    16590 ave 16590 max 16590 min
Histogram: 1 0 0 0 0 0 0 0 0 0
Neighs:    1.16842e+06 ave 1.16842e+06 max 1.16842e+06 min
Histogram: 1 0 0 0 0 0 0 0 0 0

Total # of neighbors = 1168419
Ave neighs/atom = 59.4555
Neighbor list builds = 495
Dangerous builds not checked
Setting up Verlet run ...
  Unit style    : metal
  Current step  : 107165
  Time step     : 0.001
Per MPI rank memory allocation (min/avg/max) = 18.2 | 18.2 | 18.2 Mbytes
Step Temp Press TotEng PotEng Enthalpy 
  107165    1912.8302    247.74131   -53387.376   -58246.139   -53321.988 
  113337    1905.2554   -614.13838   -53422.356   -58261.879   -53584.546 
Loop time of 913.105 on 1 procs for 6172 steps with 19652 atoms

Performance: 0.584 ns/day, 41.095 hours/ns, 6.759 timesteps/s
99.9% CPU use with 1 MPI tasks x no OpenMP threads

MPI task timing breakdown:
Section |  min time  |  avg time  |  max time  |%varavg| %total
---------------------------------------------------------------
Pair    | 484.53     | 484.53     | 484.53     |   0.0 | 53.06
Neigh   | 409.58     | 409.58     | 409.58     |   0.0 | 44.86
Comm    | 7.171      | 7.171      | 7.171      |   0.0 |  0.79
Output  | 0.00030804 | 0.00030804 | 0.00030804 |   0.0 |  0.00
Modify  | 9.3573     | 9.3573     | 9.3573     |   0.0 |  1.02
Other   |            | 2.469      |            |       |  0.27

Nlocal:    19652 ave 19652 max 19652 min
Histogram: 1 0 0 0 0 0 0 0 0 0
Nghost:    16573 ave 16573 max 16573 min
Histogram: 1 0 0 0 0 0 0 0 0 0
Neighs:    1.16824e+06 ave 1.16824e+06 max 1.16824e+06 min
Histogram: 1 0 0 0 0 0 0 0 0 0

Total # of neighbors = 1168243
Ave neighs/atom = 59.4465
Neighbor list builds = 6172
Dangerous builds not checked
Setting up Verlet run ...
  Unit style    : metal
  Current step  : 113337
  Time step     : 0.001
Per MPI rank memory allocation (min/avg/max) = 18.2 | 18.2 | 18.2 Mbytes
Step Temp Press TotEng PotEng Enthalpy 
  113337    1905.2554   -614.13838   -53422.356   -58261.879   -53584.546 
  113339    1907.2242   -654.17194    -53422.37   -58266.893   -53595.132 
  113832     1865.066    486.94973   -53643.027   -58380.465   -53515.274 
Loop time of 72.2344 on 1 procs for 495 steps with 19652 atoms

Performance: 0.592 ns/day, 40.536 hours/ns, 6.853 timesteps/s
99.8% CPU use with 1 MPI tasks x no OpenMP threads

MPI task timing breakdown:
Section |  min time  |  avg time  |  max time  |%varavg| %total
---------------------------------------------------------------
Pair    | 38.106     | 38.106     | 38.106     |   0.0 | 52.75
Neigh   | 32.504     | 32.504     | 32.504     |   0.0 | 45.00
Comm    | 0.58126    | 0.58126    | 0.58126    |   0.0 |  0.80
Output  | 0.056252   | 0.056252   | 0.056252   |   0.0 |  0.08
Modify  | 0.78039    | 0.78039    | 0.78039    |   0.0 |  1.08
Other   |            | 0.2067     |            |       |  0.29

Nlocal:    19652 ave 19652 max 19652 min
Histogram: 1 0 0 0 0 0 0 0 0 0
Nghost:    16618 ave 16618 max 16618 min
Histogram: 1 0 0 0 0 0 0 0 0 0
Neighs:    1.17572e+06 ave 1.17572e+06 max 1.17572e+06 min
Histogram: 1 0 0 0 0 0 0 0 0 0

Total # of neighbors = 1175719
Ave neighs/atom = 59.8269
Neighbor list builds = 495
Dangerous builds not checked
Setting up Verlet run ...
  Unit style    : metal
  Current step  : 113832
  Time step     : 0.001
Per MPI rank memory allocation (min/avg/max) = 18.2 | 18.2 | 18.2 Mbytes
Step Temp Press TotEng PotEng Enthalpy 
  113832     1865.066    486.94973   -53643.027   -58380.465   -53515.274 
  120004    1861.2865    448.46147   -53734.405   -58462.243    -53617.13 
Loop time of 888.958 on 1 procs for 6172 steps with 19652 atoms

Performance: 0.600 ns/day, 40.009 hours/ns, 6.943 timesteps/s
99.9% CPU use with 1 MPI tasks x no OpenMP threads

MPI task timing breakdown:
Section |  min time  |  avg time  |  max time  |%varavg| %total
---------------------------------------------------------------
Pair    | 469.75     | 469.75     | 469.75     |   0.0 | 52.84
Neigh   | 400.84     | 400.84     | 400.84     |   0.0 | 45.09
Comm    | 6.9091     | 6.9091     | 6.9091     |   0.0 |  0.78
Output  | 0.00052214 | 0.00052214 | 0.00052214 |   0.0 |  0.00
Modify  | 9.0554     | 9.0554     | 9.0554     |   0.0 |  1.02
Other   |            | 2.407      |            |       |  0.27

Nlocal:    19652 ave 19652 max 19652 min
Histogram: 1 0 0 0 0 0 0 0 0 0
Nghost:    16639 ave 16639 max 16639 min
Histogram: 1 0 0 0 0 0 0 0 0 0
Neighs:    1.17942e+06 ave 1.17942e+06 max 1.17942e+06 min
Histogram: 1 0 0 0 0 0 0 0 0 0

Total # of neighbors = 1179419
Ave neighs/atom = 60.0152
Neighbor list builds = 6172
Dangerous builds not checked
Setting up Verlet run ...
  Unit style    : metal
  Current step  : 120004
  Time step     : 0.001
Per MPI rank memory allocation (min/avg/max) = 18.2 | 18.2 | 18.2 Mbytes
Step Temp Press TotEng PotEng Enthalpy 
  120004    1861.2865    448.46147   -53734.405   -58462.243    -53617.13 
  120006    1861.2922    454.16026    -53734.42   -58462.272   -53615.655 
  120499     1818.015   -200.58407    -53925.57   -58543.494   -53977.911 
Loop time of 72.2257 on 1 procs for 495 steps with 19652 atoms

Performance: 0.592 ns/day, 40.531 hours/ns, 6.854 timesteps/s
99.9% CPU use with 1 MPI tasks x no OpenMP threads

MPI task timing breakdown:
Section |  min time  |  avg time  |  max time  |%varavg| %total
---------------------------------------------------------------
Pair    | 38.14      | 38.14      | 38.14      |   0.0 | 52.81
Neigh   | 32.481     | 32.481     | 32.481     |   0.0 | 44.97
Comm    | 0.57411    | 0.57411    | 0.57411    |   0.0 |  0.79
Output  | 0.062428   | 0.062428   | 0.062428   |   0.0 |  0.09
Modify  | 0.7681     | 0.7681     | 0.7681     |   0.0 |  1.06
Other   |            | 0.2        |            |       |  0.28

Nlocal:    19652 ave 19652 max 19652 min
Histogram: 1 0 0 0 0 0 0 0 0 0
Nghost:    16658 ave 16658 max 16658 min
Histogram: 1 0 0 0 0 0 0 0 0 0
Neighs:    1.18188e+06 ave 1.18188e+06 max 1.18188e+06 min
Histogram: 1 0 0 0 0 0 0 0 0 0

Total # of neighbors = 1181876
Ave neighs/atom = 60.1402
Neighbor list builds = 495
Dangerous builds not checked
Setting up Verlet run ...
  Unit style    : metal
  Current step  : 120499
  Time step     : 0.001
Per MPI rank memory allocation (min/avg/max) = 18.2 | 18.2 | 18.2 Mbytes
Step Temp Press TotEng PotEng Enthalpy 
  120499     1818.015   -200.58407    -53925.57   -58543.494   -53977.911 
  126671    1804.8785   -186.87713   -53981.584    -58566.14   -54030.282 
Loop time of 918.287 on 1 procs for 6172 steps with 19652 atoms

Performance: 0.581 ns/day, 41.329 hours/ns, 6.721 timesteps/s
99.9% CPU use with 1 MPI tasks x no OpenMP threads

MPI task timing breakdown:
Section |  min time  |  avg time  |  max time  |%varavg| %total
---------------------------------------------------------------
Pair    | 489.99     | 489.99     | 489.99     |   0.0 | 53.36
Neigh   | 409.36     | 409.36     | 409.36     |   0.0 | 44.58
Comm    | 7.1244     | 7.1244     | 7.1244     |   0.0 |  0.78
Output  | 0.00030994 | 0.00030994 | 0.00030994 |   0.0 |  0.00
Modify  | 9.3421     | 9.3421     | 9.3421     |   0.0 |  1.02
Other   |            | 2.464      |            |       |  0.27

Nlocal:    19652 ave 19652 max 19652 min
Histogram: 1 0 0 0 0 0 0 0 0 0
Nghost:    16569 ave 16569 max 16569 min
Histogram: 1 0 0 0 0 0 0 0 0 0
Neighs:    1.18369e+06 ave 1.18369e+06 max 1.18369e+06 min
Histogram: 1 0 0 0 0 0 0 0 0 0

Total # of neighbors = 1183691
Ave neighs/atom = 60.2326
Neighbor list builds = 6172
Dangerous builds not checked
Setting up Verlet run ...
  Unit style    : metal
  Current step  : 126671
  Time step     : 0.001
Per MPI rank memory allocation (min/avg/max) = 18.2 | 18.2 | 18.2 Mbytes
Step Temp Press TotEng PotEng Enthalpy 
  126671    1804.8785   -186.87713   -53981.584    -58566.14   -54030.282 
  126673    1804.6323   -182.76285   -53981.587   -58565.517   -54029.213 
  127166     1759.902   -73.051163    -54199.61   -58669.921   -54218.561 
Loop time of 75.0347 on 1 procs for 495 steps with 19652 atoms

Performance: 0.570 ns/day, 42.107 hours/ns, 6.597 timesteps/s
99.9% CPU use with 1 MPI tasks x no OpenMP threads

MPI task timing breakdown:
Section |  min time  |  avg time  |  max time  |%varavg| %total
---------------------------------------------------------------
Pair    | 39.558     | 39.558     | 39.558     |   0.0 | 52.72
Neigh   | 33.788     | 33.788     | 33.788     |   0.0 | 45.03
Comm    | 0.59692    | 0.59692    | 0.59692    |   0.0 |  0.80
Output  | 0.066776   | 0.066776   | 0.066776   |   0.0 |  0.09
Modify  | 0.81395    | 0.81395    | 0.81395    |   0.0 |  1.08
Other   |            | 0.2113     |            |       |  0.28

Nlocal:    19652 ave 19652 max 19652 min
Histogram: 1 0 0 0 0 0 0 0 0 0
Nghost:    16699 ave 16699 max 16699 min
Histogram: 1 0 0 0 0 0 0 0 0 0
Neighs:    1.18928e+06 ave 1.18928e+06 max 1.18928e+06 min
Histogram: 1 0 0 0 0 0 0 0 0 0

Total # of neighbors = 1189275
Ave neighs/atom = 60.5167
Neighbor list builds = 495
Dangerous builds not checked
Setting up Verlet run ...
  Unit style    : metal
  Current step  : 127166
  Time step     : 0.001
Per MPI rank memory allocation (min/avg/max) = 18.2 | 18.2 | 18.2 Mbytes
Step Temp Press TotEng PotEng Enthalpy 
  127166     1759.902   -73.051163    -54199.61   -58669.921   -54218.561 
  133338    1745.4134    612.52826    -54326.27   -58759.779   -54168.173 
Loop time of 914.452 on 1 procs for 6172 steps with 19652 atoms

Performance: 0.583 ns/day, 41.156 hours/ns, 6.749 timesteps/s
99.9% CPU use with 1 MPI tasks x no OpenMP threads

MPI task timing breakdown:
Section |  min time  |  avg time  |  max time  |%varavg| %total
---------------------------------------------------------------
Pair    | 484.65     | 484.65     | 484.65     |   0.0 | 53.00
Neigh   | 411.01     | 411.01     | 411.01     |   0.0 | 44.95
Comm    | 7.0332     | 7.0332     | 7.0332     |   0.0 |  0.77
Output  | 0.00029206 | 0.00029206 | 0.00029206 |   0.0 |  0.00
Modify  | 9.3347     | 9.3347     | 9.3347     |   0.0 |  1.02
Other   |            | 2.426      |            |       |  0.27

Nlocal:    19652 ave 19652 max 19652 min
Histogram: 1 0 0 0 0 0 0 0 0 0
Nghost:    16718 ave 16718 max 16718 min
Histogram: 1 0 0 0 0 0 0 0 0 0
Neighs:    1.19534e+06 ave 1.19534e+06 max 1.19534e+06 min
Histogram: 1 0 0 0 0 0 0 0 0 0

Total # of neighbors = 1195343
Ave neighs/atom = 60.8255
Neighbor list builds = 6172
Dangerous builds not checked
Setting up Verlet run ...
  Unit style    : metal
  Current step  : 133338
  Time step     : 0.001
Per MPI rank memory allocation (min/avg/max) = 18.2 | 18.2 | 18.2 Mbytes
Step Temp Press TotEng PotEng Enthalpy 
  133338    1745.4134    612.52826    -54326.27   -58759.779   -54168.173 
  133340    1744.4385    631.03482   -54326.264   -58757.297   -54163.391 
  133833    1707.1679    974.21018   -54509.232   -58845.594   -54258.633 
Loop time of 72.1374 on 1 procs for 495 steps with 19652 atoms

Performance: 0.593 ns/day, 40.481 hours/ns, 6.862 timesteps/s
99.9% CPU use with 1 MPI tasks x no OpenMP threads

MPI task timing breakdown:
Section |  min time  |  avg time  |  max time  |%varavg| %total
---------------------------------------------------------------
Pair    | 38.059     | 38.059     | 38.059     |   0.0 | 52.76
Neigh   | 32.487     | 32.487     | 32.487     |   0.0 | 45.03
Comm    | 0.56392    | 0.56392    | 0.56392    |   0.0 |  0.78
Output  | 0.066298   | 0.066298   | 0.066298   |   0.0 |  0.09
Modify  | 0.76442    | 0.76442    | 0.76442    |   0.0 |  1.06
Other   |            | 0.1972     |            |       |  0.27

Nlocal:    19652 ave 19652 max 19652 min
Histogram: 1 0 0 0 0 0 0 0 0 0
Nghost:    16766 ave 16766 max 16766 min
Histogram: 1 0 0 0 0 0 0 0 0 0
Neighs:    1.19973e+06 ave 1.19973e+06 max 1.19973e+06 min
Histogram: 1 0 0 0 0 0 0 0 0 0

Total # of neighbors = 1199726
Ave neighs/atom = 61.0485
Neighbor list builds = 495
Dangerous builds not checked
Setting up Verlet run ...
  Unit style    : metal
  Current step  : 133833
  Time step     : 0.001
Per MPI rank memory allocation (min/avg/max) = 18.2 | 18.2 | 18.2 Mbytes
Step Temp Press TotEng PotEng Enthalpy 
  133833    1707.1679    974.21018   -54509.232   -58845.594   -54258.633 
  140005    1712.9871   -341.39864   -54530.122   -58881.265   -54617.987 
Loop time of 865.944 on 1 procs for 6172 steps with 19652 atoms

Performance: 0.616 ns/day, 38.973 hours/ns, 7.127 timesteps/s
99.9% CPU use with 1 MPI tasks x no OpenMP threads

MPI task timing breakdown:
Section |  min time  |  avg time  |  max time  |%varavg| %total
---------------------------------------------------------------
Pair    | 456.04     | 456.04     | 456.04     |   0.0 | 52.66
Neigh   | 392.15     | 392.15     | 392.15     |   0.0 | 45.29
Comm    | 6.6698     | 6.6698     | 6.6698     |   0.0 |  0.77
Output  | 0.00020504 | 0.00020504 | 0.00020504 |   0.0 |  0.00
Modify  | 8.7933     | 8.7933     | 8.7933     |   0.0 |  1.02
Other   |            | 2.292      |            |       |  0.26

Nlocal:    19652 ave 19652 max 19652 min
Histogram: 1 0 0 0 0 0 0 0 0 0
Nghost:    16784 ave 16784 max 16784 min
Histogram: 1 0 0 0 0 0 0 0 0 0
Neighs:    1.19918e+06 ave 1.19918e+06 max 1.19918e+06 min
Histogram: 1 0 0 0 0 0 0 0 0 0

Total # of neighbors = 1199175
Ave neighs/atom = 61.0205
Neighbor list builds = 6172
Dangerous builds not checked
Setting up Verlet run ...
  Unit style    : metal
  Current step  : 140005
  Time step     : 0.001
Per MPI rank memory allocation (min/avg/max) = 18.2 | 18.2 | 18.2 Mbytes
Step Temp Press TotEng PotEng Enthalpy 
  140005    1712.9871   -341.39864   -54530.122   -58881.265   -54617.987 
  140007     1712.659   -326.08583    -54530.14    -58880.45   -54614.063 
  140500    1664.5708    296.49097   -54751.875   -58980.037   -54675.984 
Loop time of 64.1051 on 1 procs for 495 steps with 19652 atoms

Performance: 0.667 ns/day, 35.974 hours/ns, 7.722 timesteps/s
100.0% CPU use with 1 MPI tasks x no OpenMP threads

MPI task timing breakdown:
Section |  min time  |  avg time  |  max time  |%varavg| %total
---------------------------------------------------------------
Pair    | 33.501     | 33.501     | 33.501     |   0.0 | 52.26
Neigh   | 29.222     | 29.222     | 29.222     |   0.0 | 45.59
Comm    | 0.49369    | 0.49369    | 0.49369    |   0.0 |  0.77
Output  | 0.058763   | 0.058763   | 0.058763   |   0.0 |  0.09
Modify  | 0.65529    | 0.65529    | 0.65529    |   0.0 |  1.02
Other   |            | 0.1743     |            |       |  0.27

Nlocal:    19652 ave 19652 max 19652 min
Histogram: 1 0 0 0 0 0 0 0 0 0
Nghost:    16871 ave 16871 max 16871 min
Histogram: 1 0 0 0 0 0 0 0 0 0
Neighs:    1.20607e+06 ave 1.20607e+06 max 1.20607e+06 min
Histogram: 1 0 0 0 0 0 0 0 0 0

Total # of neighbors = 1206066
Ave neighs/atom = 61.3712
Neighbor list builds = 495
Dangerous builds not checked
Setting up Verlet run ...
  Unit style    : metal
  Current step  : 140500
  Time step     : 0.001
Per MPI rank memory allocation (min/avg/max) = 18.2 | 18.2 | 18.2 Mbytes
Step Temp Press TotEng PotEng Enthalpy 
  140500    1664.5708    296.49097   -54751.875   -58980.037   -54675.984 
  146672    1658.9675    371.96035   -54867.118   -59081.046   -54772.266 
Loop time of 857.077 on 1 procs for 6172 steps with 19652 atoms

Performance: 0.622 ns/day, 38.574 hours/ns, 7.201 timesteps/s
100.0% CPU use with 1 MPI tasks x no OpenMP threads

MPI task timing breakdown:
Section |  min time  |  avg time  |  max time  |%varavg| %total
---------------------------------------------------------------
Pair    | 452.27     | 452.27     | 452.27     |   0.0 | 52.77
Neigh   | 387.27     | 387.27     | 387.27     |   0.0 | 45.19
Comm    | 6.6039     | 6.6039     | 6.6039     |   0.0 |  0.77
Output  | 0.00026512 | 0.00026512 | 0.00026512 |   0.0 |  0.00
Modify  | 8.6705     | 8.6705     | 8.6705     |   0.0 |  1.01
Other   |            | 2.26       |            |       |  0.26

Nlocal:    19652 ave 19652 max 19652 min
Histogram: 1 0 0 0 0 0 0 0 0 0
Nghost:    16883 ave 16883 max 16883 min
Histogram: 1 0 0 0 0 0 0 0 0 0
Neighs:    1.21055e+06 ave 1.21055e+06 max 1.21055e+06 min
Histogram: 1 0 0 0 0 0 0 0 0 0

Total # of neighbors = 1210552
Ave neighs/atom = 61.5994
Neighbor list builds = 6172
Dangerous builds not checked
Setting up Verlet run ...
  Unit style    : metal
  Current step  : 146672
  Time step     : 0.001
Per MPI rank memory allocation (min/avg/max) = 18.2 | 18.2 | 18.2 Mbytes
Step Temp Press TotEng PotEng Enthalpy 
  146672    1658.9675    371.96035   -54867.118   -59081.046   -54772.266 
  146674    1656.8274    424.78588   -54867.118   -59075.611   -54758.795 
  147167     1614.584    17.788754   -55036.023   -59137.213   -55031.498 
Loop time of 62.8649 on 1 procs for 495 steps with 19652 atoms

Performance: 0.680 ns/day, 35.278 hours/ns, 7.874 timesteps/s
100.0% CPU use with 1 MPI tasks x no OpenMP threads

MPI task timing breakdown:
Section |  min time  |  avg time  |  max time  |%varavg| %total
---------------------------------------------------------------
Pair    | 32.598     | 32.598     | 32.598     |   0.0 | 51.85
Neigh   | 28.869     | 28.869     | 28.869     |   0.0 | 45.92
Comm    | 0.49591    | 0.49591    | 0.49591    |   0.0 |  0.79
Output  | 0.051629   | 0.051629   | 0.051629   |   0.0 |  0.08
Modify  | 0.6744     | 0.6744     | 0.6744     |   0.0 |  1.07
Other   |            | 0.1765     |            |       |  0.28

Nlocal:    19652 ave 19652 max 19652 min
Histogram: 1 0 0 0 0 0 0 0 0 0
Nghost:    16911 ave 16911 max 16911 min
Histogram: 1 0 0 0 0 0 0 0 0 0
Neighs:    1.21373e+06 ave 1.21373e+06 max 1.21373e+06 min
Histogram: 1 0 0 0 0 0 0 0 0 0

Total # of neighbors = 1213730
Ave neighs/atom = 61.7611
Neighbor list builds = 495
Dangerous builds not checked
Setting up Verlet run ...
  Unit style    : metal
  Current step  : 147167
  Time step     : 0.001
Per MPI rank memory allocation (min/avg/max) = 18.2 | 18.2 | 18.2 Mbytes
Step Temp Press TotEng PotEng Enthalpy 
  147167     1614.584    17.788754   -55036.023   -59137.213   -55031.498 
  153339    1591.4001    610.74097   -55196.482   -59238.784   -55042.019 
Loop time of 866.338 on 1 procs for 6172 steps with 19652 atoms

Performance: 0.616 ns/day, 38.991 hours/ns, 7.124 timesteps/s
99.9% CPU use with 1 MPI tasks x no OpenMP threads

MPI task timing breakdown:
Section |  min time  |  avg time  |  max time  |%varavg| %total
---------------------------------------------------------------
Pair    | 457.15     | 457.15     | 457.15     |   0.0 | 52.77
Neigh   | 391.57     | 391.57     | 391.57     |   0.0 | 45.20
Comm    | 6.637      | 6.637      | 6.637      |   0.0 |  0.77
Output  | 0.00026107 | 0.00026107 | 0.00026107 |   0.0 |  0.00
Modify  | 8.7144     | 8.7144     | 8.7144     |   0.0 |  1.01
Other   |            | 2.27       |            |       |  0.26

Nlocal:    19652 ave 19652 max 19652 min
Histogram: 1 0 0 0 0 0 0 0 0 0
Nghost:    16920 ave 16920 max 16920 min
Histogram: 1 0 0 0 0 0 0 0 0 0
Neighs:    1.22087e+06 ave 1.22087e+06 max 1.22087e+06 min
Histogram: 1 0 0 0 0 0 0 0 0 0

Total # of neighbors = 1220871
Ave neighs/atom = 62.1245
Neighbor list builds = 6172
Dangerous builds not checked
Setting up Verlet run ...
  Unit style    : metal
  Current step  : 153339
  Time step     : 0.001
Per MPI rank memory allocation (min/avg/max) = 18.2 | 18.2 | 18.2 Mbytes
Step Temp Press TotEng PotEng Enthalpy 
  153339    1591.4001    610.74097   -55196.482   -59238.784   -55042.019 
  153341    1590.7494    625.55307    -55196.47   -59237.119   -55038.261 
  153834    1568.5866    286.45515   -55320.058   -59304.411   -55247.685 
Loop time of 63.3971 on 1 procs for 495 steps with 19652 atoms

Performance: 0.675 ns/day, 35.576 hours/ns, 7.808 timesteps/s
100.0% CPU use with 1 MPI tasks x no OpenMP threads

MPI task timing breakdown:
Section |  min time  |  avg time  |  max time  |%varavg| %total
---------------------------------------------------------------
Pair    | 33.221     | 33.221     | 33.221     |   0.0 | 52.40
Neigh   | 28.799     | 28.799     | 28.799     |   0.0 | 45.43
Comm    | 0.4929     | 0.4929     | 0.4929     |   0.0 |  0.78
Output  | 0.051641   | 0.051641   | 0.051641   |   0.0 |  0.08
Modify  | 0.65851    | 0.65851    | 0.65851    |   0.0 |  1.04
Other   |            | 0.1735     |            |       |  0.27

Nlocal:    19652 ave 19652 max 19652 min
Histogram: 1 0 0 0 0 0 0 0 0 0
Nghost:    16930 ave 16930 max 16930 min
Histogram: 1 0 0 0 0 0 0 0 0 0
Neighs:    1.22249e+06 ave 1.22249e+06 max 1.22249e+06 min
Histogram: 1 0 0 0 0 0 0 0 0 0

Total # of neighbors = 1222490
Ave neighs/atom = 62.2069
Neighbor list builds = 495
Dangerous builds not checked
Setting up Verlet run ...
  Unit style    : metal
  Current step  : 153834
  Time step     : 0.001
Per MPI rank memory allocation (min/avg/max) = 18.2 | 18.2 | 18.2 Mbytes
Step Temp Press TotEng PotEng Enthalpy 
  153834    1568.5866    286.45515   -55320.058   -59304.411   -55247.685 
  160006    1564.3907    511.41089   -55394.845   -59368.539   -55265.998 
Loop time of 825.642 on 1 procs for 6172 steps with 19652 atoms

Performance: 0.646 ns/day, 37.159 hours/ns, 7.475 timesteps/s
99.9% CPU use with 1 MPI tasks x no OpenMP threads

MPI task timing breakdown:
Section |  min time  |  avg time  |  max time  |%varavg| %total
---------------------------------------------------------------
Pair    | 434.73     | 434.73     | 434.73     |   0.0 | 52.65
Neigh   | 374.29     | 374.29     | 374.29     |   0.0 | 45.33
Comm    | 6.2409     | 6.2409     | 6.2409     |   0.0 |  0.76
Output  | 0.00024891 | 0.00024891 | 0.00024891 |   0.0 |  0.00
Modify  | 8.2349     | 8.2349     | 8.2349     |   0.0 |  1.00
Other   |            | 2.15       |            |       |  0.26

Nlocal:    19652 ave 19652 max 19652 min
Histogram: 1 0 0 0 0 0 0 0 0 0
Nghost:    16897 ave 16897 max 16897 min
Histogram: 1 0 0 0 0 0 0 0 0 0
Neighs:    1.2258e+06 ave 1.2258e+06 max 1.2258e+06 min
Histogram: 1 0 0 0 0 0 0 0 0 0

Total # of neighbors = 1225803
Ave neighs/atom = 62.3755
Neighbor list builds = 6172
Dangerous builds not checked
Setting up Verlet run ...
  Unit style    : metal
  Current step  : 160006
  Time step     : 0.001
Per MPI rank memory allocation (min/avg/max) = 18.2 | 18.2 | 18.2 Mbytes
Step Temp Press TotEng PotEng Enthalpy 
  160006    1564.3907    511.41089   -55394.845   -59368.539   -55265.998 
  160008    1564.1428    517.08724   -55394.859   -59367.924   -55264.583 
  160501    1521.7622    633.59454   -55597.039   -59462.454   -55438.125 
Loop time of 65.3688 on 1 procs for 495 steps with 19652 atoms

Performance: 0.654 ns/day, 36.683 hours/ns, 7.572 timesteps/s
99.9% CPU use with 1 MPI tasks x no OpenMP threads

MPI task timing breakdown:
Section |  min time  |  avg time  |  max time  |%varavg| %total
---------------------------------------------------------------
Pair    | 34.032     | 34.032     | 34.032     |   0.0 | 52.06
Neigh   | 29.935     | 29.935     | 29.935     |   0.0 | 45.79
Comm    | 0.48974    | 0.48974    | 0.48974    |   0.0 |  0.75
Output  | 0.066055   | 0.066055   | 0.066055   |   0.0 |  0.10
Modify  | 0.67298    | 0.67298    | 0.67298    |   0.0 |  1.03
Other   |            | 0.1738     |            |       |  0.27

Nlocal:    19652 ave 19652 max 19652 min
Histogram: 1 0 0 0 0 0 0 0 0 0
Nghost:    16972 ave 16972 max 16972 min
Histogram: 1 0 0 0 0 0 0 0 0 0
Neighs:    1.23119e+06 ave 1.23119e+06 max 1.23119e+06 min
Histogram: 1 0 0 0 0 0 0 0 0 0

Total # of neighbors = 1231192
Ave neighs/atom = 62.6497
Neighbor list builds = 495
Dangerous builds not checked
Setting up Verlet run ...
  Unit style    : metal
  Current step  : 160501
  Time step     : 0.001
Per MPI rank memory allocation (min/avg/max) = 18.2 | 18.2 | 18.2 Mbytes
Step Temp Press TotEng PotEng Enthalpy 
  160501    1521.7622    633.59454   -55597.039   -59462.454   -55438.125 
  166673    1493.8066   -698.93387   -55704.318   -59498.723   -55879.799 
Loop time of 788.941 on 1 procs for 6172 steps with 19652 atoms

Performance: 0.676 ns/day, 35.507 hours/ns, 7.823 timesteps/s
99.9% CPU use with 1 MPI tasks x no OpenMP threads

MPI task timing breakdown:
Section |  min time  |  avg time  |  max time  |%varavg| %total
---------------------------------------------------------------
Pair    | 411.7      | 411.7      | 411.7      |   0.0 | 52.18
Neigh   | 361.13     | 361.13     | 361.13     |   0.0 | 45.77
Comm    | 5.9987     | 5.9987     | 5.9987     |   0.0 |  0.76
Output  | 0.00017285 | 0.00017285 | 0.00017285 |   0.0 |  0.00
Modify  | 8.0034     | 8.0034     | 8.0034     |   0.0 |  1.01
Other   |            | 2.104      |            |       |  0.27

Nlocal:    19652 ave 19652 max 19652 min
Histogram: 1 0 0 0 0 0 0 0 0 0
Nghost:    16906 ave 16906 max 16906 min
Histogram: 1 0 0 0 0 0 0 0 0 0
Neighs:    1.22981e+06 ave 1.22981e+06 max 1.22981e+06 min
Histogram: 1 0 0 0 0 0 0 0 0 0

Total # of neighbors = 1229813
Ave neighs/atom = 62.5795
Neighbor list builds = 6172
Dangerous builds not checked
Setting up Verlet run ...
  Unit style    : metal
  Current step  : 166673
  Time step     : 0.001
Per MPI rank memory allocation (min/avg/max) = 18.2 | 18.2 | 18.2 Mbytes
Step Temp Press TotEng PotEng Enthalpy 
  166673    1493.8066   -698.93387   -55704.318   -59498.723   -55879.799 
  166675    1495.1665   -741.24636   -55704.312   -59502.172   -55890.417 
  167168    1456.3705    192.22075   -55902.803   -59602.117   -55854.833 
Loop time of 62.4512 on 1 procs for 495 steps with 19652 atoms

Performance: 0.685 ns/day, 35.046 hours/ns, 7.926 timesteps/s
98.5% CPU use with 1 MPI tasks x no OpenMP threads

MPI task timing breakdown:
Section |  min time  |  avg time  |  max time  |%varavg| %total
---------------------------------------------------------------
Pair    | 32.161     | 32.161     | 32.161     |   0.0 | 51.50
Neigh   | 28.221     | 28.221     | 28.221     |   0.0 | 45.19
Comm    | 0.46642    | 0.46642    | 0.46642    |   0.0 |  0.75
Output  | 0.78226    | 0.78226    | 0.78226    |   0.0 |  1.25
Modify  | 0.65078    | 0.65078    | 0.65078    |   0.0 |  1.04
Other   |            | 0.1692     |            |       |  0.27

Nlocal:    19652 ave 19652 max 19652 min
Histogram: 1 0 0 0 0 0 0 0 0 0
Nghost:    17052 ave 17052 max 17052 min
Histogram: 1 0 0 0 0 0 0 0 0 0
Neighs:    1.23835e+06 ave 1.23835e+06 max 1.23835e+06 min
Histogram: 1 0 0 0 0 0 0 0 0 0

Total # of neighbors = 1238353
Ave neighs/atom = 63.0141
Neighbor list builds = 495
Dangerous builds not checked
Setting up Verlet run ...
  Unit style    : metal
  Current step  : 167168
  Time step     : 0.001
Per MPI rank memory allocation (min/avg/max) = 18.2 | 18.2 | 18.2 Mbytes
Step Temp Press TotEng PotEng Enthalpy 
  167168    1456.3705    192.22075   -55902.803   -59602.117   -55854.833 
  173340    1448.9864    1054.7698   -56011.146   -59691.703   -55749.388 
Loop time of 786.438 on 1 procs for 6172 steps with 19652 atoms

Performance: 0.678 ns/day, 35.395 hours/ns, 7.848 timesteps/s
99.9% CPU use with 1 MPI tasks x no OpenMP threads

MPI task timing breakdown:
Section |  min time  |  avg time  |  max time  |%varavg| %total
---------------------------------------------------------------
Pair    | 408.9      | 408.9      | 408.9      |   0.0 | 51.99
Neigh   | 361.4      | 361.4      | 361.4      |   0.0 | 45.95
Comm    | 5.9954     | 5.9954     | 5.9954     |   0.0 |  0.76
Output  | 0.00020385 | 0.00020385 | 0.00020385 |   0.0 |  0.00
Modify  | 8.0442     | 8.0442     | 8.0442     |   0.0 |  1.02
Other   |            | 2.107      |            |       |  0.27

Nlocal:    19652 ave 19652 max 19652 min
Histogram: 1 0 0 0 0 0 0 0 0 0
Nghost:    17047 ave 17047 max 17047 min
Histogram: 1 0 0 0 0 0 0 0 0 0
Neighs:    1.24476e+06 ave 1.24476e+06 max 1.24476e+06 min
Histogram: 1 0 0 0 0 0 0 0 0 0

Total # of neighbors = 1244755
Ave neighs/atom = 63.3399
Neighbor list builds = 6172
Dangerous builds not checked
Setting up Verlet run ...
  Unit style    : metal
  Current step  : 173340
  Time step     : 0.001
Per MPI rank memory allocation (min/avg/max) = 18.2 | 18.2 | 18.2 Mbytes
Step Temp Press TotEng PotEng Enthalpy 
  173340    1448.9864    1054.7698   -56011.146   -59691.703   -55749.388 
  173342    1449.8518    1027.0646   -56011.146   -59693.901   -55756.263 
  173835    1427.2748    349.05028   -56174.145   -59799.553   -56087.704 
Loop time of 69.7668 on 1 procs for 495 steps with 19652 atoms

Performance: 0.613 ns/day, 39.151 hours/ns, 7.095 timesteps/s
99.9% CPU use with 1 MPI tasks x no OpenMP threads

MPI task timing breakdown:
Section |  min time  |  avg time  |  max time  |%varavg| %total
---------------------------------------------------------------
Pair    | 37.052     | 37.052     | 37.052     |   0.0 | 53.11
Neigh   | 31.225     | 31.225     | 31.225     |   0.0 | 44.76
Comm    | 0.52922    | 0.52922    | 0.52922    |   0.0 |  0.76
Output  | 0.054697   | 0.054697   | 0.054697   |   0.0 |  0.08
Modify  | 0.71594    | 0.71594    | 0.71594    |   0.0 |  1.03
Other   |            | 0.1894     |            |       |  0.27

Nlocal:    19652 ave 19652 max 19652 min
Histogram: 1 0 0 0 0 0 0 0 0 0
Nghost:    17081 ave 17081 max 17081 min
Histogram: 1 0 0 0 0 0 0 0 0 0
Neighs:    1.24808e+06 ave 1.24808e+06 max 1.24808e+06 min
Histogram: 1 0 0 0 0 0 0 0 0 0

Total # of neighbors = 1248079
Ave neighs/atom = 63.509
Neighbor list builds = 495
Dangerous builds not checked
Setting up Verlet run ...
  Unit style    : metal
  Current step  : 173835
  Time step     : 0.001
Per MPI rank memory allocation (min/avg/max) = 18.2 | 18.2 | 18.2 Mbytes
Step Temp Press TotEng PotEng Enthalpy 
  173835    1427.2748    349.05028   -56174.145   -59799.553   -56087.704 
  180007    1383.2466    -5.984167   -56311.791   -59825.364   -56313.272 
Loop time of 827.698 on 1 procs for 6172 steps with 19652 atoms

Performance: 0.644 ns/day, 37.251 hours/ns, 7.457 timesteps/s
99.9% CPU use with 1 MPI tasks x no OpenMP threads

MPI task timing breakdown:
Section |  min time  |  avg time  |  max time  |%varavg| %total
---------------------------------------------------------------
Pair    | 437.54     | 437.54     | 437.54     |   0.0 | 52.86
Neigh   | 373.16     | 373.16     | 373.16     |   0.0 | 45.08
Comm    | 6.3805     | 6.3805     | 6.3805     |   0.0 |  0.77
Output  | 0.00021601 | 0.00021601 | 0.00021601 |   0.0 |  0.00
Modify  | 8.3809     | 8.3809     | 8.3809     |   0.0 |  1.01
Other   |            | 2.237      |            |       |  0.27

Nlocal:    19652 ave 19652 max 19652 min
Histogram: 1 0 0 0 0 0 0 0 0 0
Nghost:    17079 ave 17079 max 17079 min
Histogram: 1 0 0 0 0 0 0 0 0 0
Neighs:    1.24859e+06 ave 1.24859e+06 max 1.24859e+06 min
Histogram: 1 0 0 0 0 0 0 0 0 0

Total # of neighbors = 1248590
Ave neighs/atom = 63.535
Neighbor list builds = 6172
Dangerous builds not checked
Setting up Verlet run ...
  Unit style    : metal
  Current step  : 180007
  Time step     : 0.001
Per MPI rank memory allocation (min/avg/max) = 18.2 | 18.2 | 18.2 Mbytes
Step Temp Press TotEng PotEng Enthalpy 
  180007    1383.2466    -5.984167   -56311.791   -59825.364   -56313.272 
  180009     1381.795    21.219087    -56311.77   -59821.655   -56306.519 
  180502    1371.8327    142.69388   -56464.765   -59949.346   -56429.621 
Loop time of 63.467 on 1 procs for 495 steps with 19652 atoms

Performance: 0.674 ns/day, 35.616 hours/ns, 7.799 timesteps/s
100.0% CPU use with 1 MPI tasks x no OpenMP threads

MPI task timing breakdown:
Section |  min time  |  avg time  |  max time  |%varavg| %total
---------------------------------------------------------------
Pair    | 33.258     | 33.258     | 33.258     |   0.0 | 52.40
Neigh   | 28.817     | 28.817     | 28.817     |   0.0 | 45.40
Comm    | 0.49426    | 0.49426    | 0.49426    |   0.0 |  0.78
Output  | 0.053255   | 0.053255   | 0.053255   |   0.0 |  0.08
Modify  | 0.66316    | 0.66316    | 0.66316    |   0.0 |  1.04
Other   |            | 0.1813     |            |       |  0.29

Nlocal:    19652 ave 19652 max 19652 min
Histogram: 1 0 0 0 0 0 0 0 0 0
Nghost:    17062 ave 17062 max 17062 min
Histogram: 1 0 0 0 0 0 0 0 0 0
Neighs:    1.25499e+06 ave 1.25499e+06 max 1.25499e+06 min
Histogram: 1 0 0 0 0 0 0 0 0 0

Total # of neighbors = 1254992
Ave neighs/atom = 63.8608
Neighbor list builds = 495
Dangerous builds not checked
Setting up Verlet run ...
  Unit style    : metal
  Current step  : 180502
  Time step     : 0.001
Per MPI rank memory allocation (min/avg/max) = 18.2 | 18.2 | 18.2 Mbytes
Step Temp Press TotEng PotEng Enthalpy 
  180502    1371.8327    142.69388   -56464.765   -59949.346   -56429.621 
  186674    1353.9827     19.86981   -56547.057   -59986.297   -56542.172 
Loop time of 867.998 on 1 procs for 6172 steps with 19652 atoms

Performance: 0.614 ns/day, 39.065 hours/ns, 7.111 timesteps/s
100.0% CPU use with 1 MPI tasks x no OpenMP threads

MPI task timing breakdown:
Section |  min time  |  avg time  |  max time  |%varavg| %total
---------------------------------------------------------------
Pair    | 461.07     | 461.07     | 461.07     |   0.0 | 53.12
Neigh   | 388.88     | 388.88     | 388.88     |   0.0 | 44.80
Comm    | 6.7286     | 6.7286     | 6.7286     |   0.0 |  0.78
Output  | 0.00023317 | 0.00023317 | 0.00023317 |   0.0 |  0.00
Modify  | 8.9121     | 8.9121     | 8.9121     |   0.0 |  1.03
Other   |            | 2.403      |            |       |  0.28

Nlocal:    19652 ave 19652 max 19652 min
Histogram: 1 0 0 0 0 0 0 0 0 0
Nghost:    17082 ave 17082 max 17082 min
Histogram: 1 0 0 0 0 0 0 0 0 0
Neighs:    1.25635e+06 ave 1.25635e+06 max 1.25635e+06 min
Histogram: 1 0 0 0 0 0 0 0 0 0

Total # of neighbors = 1256352
Ave neighs/atom = 63.93
Neighbor list builds = 6172
Dangerous builds not checked
Setting up Verlet run ...
  Unit style    : metal
  Current step  : 186674
  Time step     : 0.001
Per MPI rank memory allocation (min/avg/max) = 18.2 | 18.2 | 18.2 Mbytes
Step Temp Press TotEng PotEng Enthalpy 
  186674    1353.9827     19.86981   -56547.057   -59986.297   -56542.172 
  186676    1354.0433    11.370518   -56547.064   -59986.457   -56544.268 
  187169    1322.6463     20.95626   -56769.631   -60129.273   -56764.506 
Loop time of 64.9335 on 1 procs for 495 steps with 19652 atoms

Performance: 0.659 ns/day, 36.439 hours/ns, 7.623 timesteps/s
100.0% CPU use with 1 MPI tasks x no OpenMP threads

MPI task timing breakdown:
Section |  min time  |  avg time  |  max time  |%varavg| %total
---------------------------------------------------------------
Pair    | 34.098     | 34.098     | 34.098     |   0.0 | 52.51
Neigh   | 29.39      | 29.39      | 29.39      |   0.0 | 45.26
Comm    | 0.50826    | 0.50826    | 0.50826    |   0.0 |  0.78
Output  | 0.051756   | 0.051756   | 0.051756   |   0.0 |  0.08
Modify  | 0.69646    | 0.69646    | 0.69646    |   0.0 |  1.07
Other   |            | 0.1886     |            |       |  0.29

Nlocal:    19652 ave 19652 max 19652 min
Histogram: 1 0 0 0 0 0 0 0 0 0
Nghost:    17044 ave 17044 max 17044 min
Histogram: 1 0 0 0 0 0 0 0 0 0
Neighs:    1.26384e+06 ave 1.26384e+06 max 1.26384e+06 min
Histogram: 1 0 0 0 0 0 0 0 0 0

Total # of neighbors = 1263837
Ave neighs/atom = 64.3109
Neighbor list builds = 495
Dangerous builds not checked
Setting up Verlet run ...
  Unit style    : metal
  Current step  : 187169
  Time step     : 0.001
Per MPI rank memory allocation (min/avg/max) = 18.2 | 18.2 | 18.2 Mbytes
Step Temp Press TotEng PotEng Enthalpy 
  187169    1322.6463     20.95626   -56769.631   -60129.273   -56764.506 
  193341    1319.4146    721.91991   -56831.659   -60183.092   -56655.697 
Loop time of 918.774 on 1 procs for 6172 steps with 19652 atoms

Performance: 0.580 ns/day, 41.350 hours/ns, 6.718 timesteps/s
99.9% CPU use with 1 MPI tasks x no OpenMP threads

MPI task timing breakdown:
Section |  min time  |  avg time  |  max time  |%varavg| %total
---------------------------------------------------------------
Pair    | 492.1      | 492.1      | 492.1      |   0.0 | 53.56
Neigh   | 407.62     | 407.62     | 407.62     |   0.0 | 44.37
Comm    | 7.0894     | 7.0894     | 7.0894     |   0.0 |  0.77
Output  | 0.00021195 | 0.00021195 | 0.00021195 |   0.0 |  0.00
Modify  | 9.4276     | 9.4276     | 9.4276     |   0.0 |  1.03
Other   |            | 2.535      |            |       |  0.28

Nlocal:    19652 ave 19652 max 19652 min
Histogram: 1 0 0 0 0 0 0 0 0 0
Nghost:    17078 ave 17078 max 17078 min
Histogram: 1 0 0 0 0 0 0 0 0 0
Neighs:    1.26841e+06 ave 1.26841e+06 max 1.26841e+06 min
Histogram: 1 0 0 0 0 0 0 0 0 0

Total # of neighbors = 1268407
Ave neighs/atom = 64.5434
Neighbor list builds = 6172
Dangerous builds not checked
Setting up Verlet run ...
  Unit style    : metal
  Current step  : 193341
  Time step     : 0.001
Per MPI rank memory allocation (min/avg/max) = 18.2 | 18.2 | 18.2 Mbytes
Step Temp Press TotEng PotEng Enthalpy 
  193341    1319.4146    721.91991   -56831.659   -60183.092   -56655.697 
  193343     1320.813    667.83255   -56831.683   -60186.669   -56668.906 
  193836    1273.9296   -62.180588    -57046.45   -60282.347   -57061.565 
Loop time of 70.9652 on 1 procs for 495 steps with 19652 atoms

Performance: 0.603 ns/day, 39.823 hours/ns, 6.975 timesteps/s
100.0% CPU use with 1 MPI tasks x no OpenMP threads

MPI task timing breakdown:
Section |  min time  |  avg time  |  max time  |%varavg| %total
---------------------------------------------------------------
Pair    | 37.845     | 37.845     | 37.845     |   0.0 | 53.33
Neigh   | 31.593     | 31.593     | 31.593     |   0.0 | 44.52
Comm    | 0.53904    | 0.53904    | 0.53904    |   0.0 |  0.76
Output  | 0.063475   | 0.063475   | 0.063475   |   0.0 |  0.09
Modify  | 0.72869    | 0.72869    | 0.72869    |   0.0 |  1.03
Other   |            | 0.1959     |            |       |  0.28

Nlocal:    19652 ave 19652 max 19652 min
Histogram: 1 0 0 0 0 0 0 0 0 0
Nghost:    17167 ave 17167 max 17167 min
Histogram: 1 0 0 0 0 0 0 0 0 0
Neighs:    1.27177e+06 ave 1.27177e+06 max 1.27177e+06 min
Histogram: 1 0 0 0 0 0 0 0 0 0

Total # of neighbors = 1271774
Ave neighs/atom = 64.7147
Neighbor list builds = 495
Dangerous builds not checked
Setting up Verlet run ...
  Unit style    : metal
  Current step  : 193836
  Time step     : 0.001
Per MPI rank memory allocation (min/avg/max) = 18.2 | 18.2 | 18.2 Mbytes
Step Temp Press TotEng PotEng Enthalpy 
  193836    1273.9296   -62.180588    -57046.45   -60282.347   -57061.565 
  200008    1252.9005    557.03616   -57134.885   -60317.366   -56999.846 
Loop time of 935.432 on 1 procs for 6172 steps with 19652 atoms

Performance: 0.570 ns/day, 42.100 hours/ns, 6.598 timesteps/s
99.9% CPU use with 1 MPI tasks x no OpenMP threads

MPI task timing breakdown:
Section |  min time  |  avg time  |  max time  |%varavg| %total
---------------------------------------------------------------
Pair    | 502.83     | 502.83     | 502.83     |   0.0 | 53.75
Neigh   | 413.3      | 413.3      | 413.3      |   0.0 | 44.18
Comm    | 7.1757     | 7.1757     | 7.1757     |   0.0 |  0.77
Output  | 0.00024915 | 0.00024915 | 0.00024915 |   0.0 |  0.00
Modify  | 9.5594     | 9.5594     | 9.5594     |   0.0 |  1.02
Other   |            | 2.559      |            |       |  0.27

Nlocal:    19652 ave 19652 max 19652 min
Histogram: 1 0 0 0 0 0 0 0 0 0
Nghost:    17116 ave 17116 max 17116 min
Histogram: 1 0 0 0 0 0 0 0 0 0
Neighs:    1.27518e+06 ave 1.27518e+06 max 1.27518e+06 min
Histogram: 1 0 0 0 0 0 0 0 0 0

Total # of neighbors = 1275178
Ave neighs/atom = 64.888
Neighbor list builds = 6172
Dangerous builds not checked
Setting up Verlet run ...
  Unit style    : metal
  Current step  : 200008
  Time step     : 0.001
Per MPI rank memory allocation (min/avg/max) = 18.2 | 18.2 | 18.2 Mbytes
Step Temp Press TotEng PotEng Enthalpy 
  200008    1252.9005    557.03616   -57134.885   -60317.366   -56999.846 
  200010    1254.1031    528.03311    -57134.89   -60320.427   -57006.883 
  200503    1225.5175    163.58319    -57325.46   -60438.386   -57285.944 
Loop time of 77.2051 on 1 procs for 495 steps with 19652 atoms

Performance: 0.554 ns/day, 43.325 hours/ns, 6.411 timesteps/s
99.9% CPU use with 1 MPI tasks x no OpenMP threads

MPI task timing breakdown:
Section |  min time  |  avg time  |  max time  |%varavg| %total
---------------------------------------------------------------
Pair    | 41.407     | 41.407     | 41.407     |   0.0 | 53.63
Neigh   | 34.071     | 34.071     | 34.071     |   0.0 | 44.13
Comm    | 0.61351    | 0.61351    | 0.61351    |   0.0 |  0.79
Output  | 0.067898   | 0.067898   | 0.067898   |   0.0 |  0.09
Modify  | 0.82222    | 0.82222    | 0.82222    |   0.0 |  1.06
Other   |            | 0.2231     |            |       |  0.29

Nlocal:    19652 ave 19652 max 19652 min
Histogram: 1 0 0 0 0 0 0 0 0 0
Nghost:    17226 ave 17226 max 17226 min
Histogram: 1 0 0 0 0 0 0 0 0 0
Neighs:    1.2797e+06 ave 1.2797e+06 max 1.2797e+06 min
Histogram: 1 0 0 0 0 0 0 0 0 0

Total # of neighbors = 1279697
Ave neighs/atom = 65.1179
Neighbor list builds = 495
Dangerous builds not checked
Setting up Verlet run ...
  Unit style    : metal
  Current step  : 200503
  Time step     : 0.001
Per MPI rank memory allocation (min/avg/max) = 18.2 | 18.2 | 18.2 Mbytes
Step Temp Press TotEng PotEng Enthalpy 
  200503    1225.5175    163.58319    -57325.46   -60438.386   -57285.944 
  206675    1196.7457   -691.82448   -57478.092   -60517.935   -57644.918 
Loop time of 929.982 on 1 procs for 6172 steps with 19652 atoms

Performance: 0.573 ns/day, 41.855 hours/ns, 6.637 timesteps/s
99.8% CPU use with 1 MPI tasks x no OpenMP threads

MPI task timing breakdown:
Section |  min time  |  avg time  |  max time  |%varavg| %total
---------------------------------------------------------------
Pair    | 499.81     | 499.81     | 499.81     |   0.0 | 53.74
Neigh   | 410.91     | 410.91     | 410.91     |   0.0 | 44.18
Comm    | 7.1574     | 7.1574     | 7.1574     |   0.0 |  0.77
Output  | 0.00045514 | 0.00045514 | 0.00045514 |   0.0 |  0.00
Modify  | 9.5553     | 9.5553     | 9.5553     |   0.0 |  1.03
Other   |            | 2.55       |            |       |  0.27

Nlocal:    19652 ave 19652 max 19652 min
Histogram: 1 0 0 0 0 0 0 0 0 0
Nghost:    17208 ave 17208 max 17208 min
Histogram: 1 0 0 0 0 0 0 0 0 0
Neighs:    1.28314e+06 ave 1.28314e+06 max 1.28314e+06 min
Histogram: 1 0 0 0 0 0 0 0 0 0

Total # of neighbors = 1283144
Ave neighs/atom = 65.2933
Neighbor list builds = 6172
Dangerous builds not checked
Setting up Verlet run ...
  Unit style    : metal
  Current step  : 206675
  Time step     : 0.001
Per MPI rank memory allocation (min/avg/max) = 18.2 | 18.2 | 18.2 Mbytes
Step Temp Press TotEng PotEng Enthalpy 
[...]

Performance: 0.508 ns/day, 47.206 hours/ns, 5.884 timesteps/s
99.9% CPU use with 1 MPI tasks x no OpenMP threads

MPI task timing breakdown:
Section |  min time  |  avg time  |  max time  |%varavg| %total
---------------------------------------------------------------
Pair    | 45.461     | 45.461     | 45.461     |   0.0 | 54.04
Neigh   | 36.76      | 36.76      | 36.76      |   0.0 | 43.70
Comm    | 0.6987     | 0.6987     | 0.6987     |   0.0 |  0.83
Output  | 0.06055    | 0.06055    | 0.06055    |   0.0 |  0.07
Modify  | 0.89942    | 0.89942    | 0.89942    |   0.0 |  1.07
Other   |            | 0.2422     |            |       |  0.29

Nlocal:    19652 ave 19652 max 19652 min
Histogram: 1 0 0 0 0 0 0 0 0 0
Nghost:    17996 ave 17996 max 17996 min
Histogram: 1 0 0 0 0 0 0 0 0 0
Neighs:    1.43717e+06 ave 1.43717e+06 max 1.43717e+06 min
Histogram: 1 0 0 0 0 0 0 0 0 0

Total # of neighbors = 1437173
Ave neighs/atom = 73.1311
Neighbor list builds = 495
Dangerous builds not checked
Setting up Verlet run ...
  Unit style    : metal
  Current step  : 307175
  Time step     : 0.001
Per MPI rank memory allocation (min/avg/max) = 18.2 | 18.2 | 18.2 Mbytes
Step Temp Press TotEng PotEng Enthalpy 
  307175    423.64851    73.750058   -62379.985   -63456.091   -62364.071 
  313347    403.29856   -172.03822   -62563.649   -63588.064   -62600.615 
Loop time of 1035.51 on 1 procs for 6172 steps with 19652 atoms

Performance: 0.515 ns/day, 46.604 hours/ns, 5.960 timesteps/s
99.8% CPU use with 1 MPI tasks x no OpenMP threads

MPI task timing breakdown:
Section |  min time  |  avg time  |  max time  |%varavg| %total
---------------------------------------------------------------
Pair    | 559.9      | 559.9      | 559.9      |   0.0 | 54.07
Neigh   | 453.66     | 453.66     | 453.66     |   0.0 | 43.81
Comm    | 8.27       | 8.27       | 8.27       |   0.0 |  0.80
Output  | 0.00027394 | 0.00027394 | 0.00027394 |   0.0 |  0.00
Modify  | 10.712     | 10.712     | 10.712     |   0.0 |  1.03
Other   |            | 2.966      |            |       |  0.29

Nlocal:    19652 ave 19652 max 19652 min
Histogram: 1 0 0 0 0 0 0 0 0 0
Nghost:    18057 ave 18057 max 18057 min
Histogram: 1 0 0 0 0 0 0 0 0 0
Neighs:    1.4436e+06 ave 1.4436e+06 max 1.4436e+06 min
Histogram: 1 0 0 0 0 0 0 0 0 0

Total # of neighbors = 1443605
Ave neighs/atom = 73.4584
Neighbor list builds = 6172
Dangerous builds not checked
Setting up Verlet run ...
  Unit style    : metal
  Current step  : 313347
  Time step     : 0.001
Per MPI rank memory allocation (min/avg/max) = 18.2 | 18.2 | 18.2 Mbytes
Step Temp Press TotEng PotEng Enthalpy 
  313347    403.29856   -172.03822   -62563.649   -63588.064   -62600.615 
  313349    403.11151   -167.12102   -62563.652   -63587.592   -62599.561 
  313842    373.20646   -324.62708   -62723.549   -63671.527   -62793.124 
Loop time of 82.9819 on 1 procs for 495 steps with 19652 atoms

Performance: 0.515 ns/day, 46.567 hours/ns, 5.965 timesteps/s
99.8% CPU use with 1 MPI tasks x no OpenMP threads

MPI task timing breakdown:
Section |  min time  |  avg time  |  max time  |%varavg| %total
---------------------------------------------------------------
Pair    | 44.64      | 44.64      | 44.64      |   0.0 | 53.79
Neigh   | 36.495     | 36.495     | 36.495     |   0.0 | 43.98
Comm    | 0.66045    | 0.66045    | 0.66045    |   0.0 |  0.80
Output  | 0.070985   | 0.070985   | 0.070985   |   0.0 |  0.09
Modify  | 0.86884    | 0.86884    | 0.86884    |   0.0 |  1.05
Other   |            | 0.247      |            |       |  0.30

Nlocal:    19652 ave 19652 max 19652 min
Histogram: 1 0 0 0 0 0 0 0 0 0
Nghost:    18072 ave 18072 max 18072 min
Histogram: 1 0 0 0 0 0 0 0 0 0
Neighs:    1.44685e+06 ave 1.44685e+06 max 1.44685e+06 min
Histogram: 1 0 0 0 0 0 0 0 0 0

Total # of neighbors = 1446849
Ave neighs/atom = 73.6235
Neighbor list builds = 495
Dangerous builds not checked
Setting up Verlet run ...
  Unit style    : metal
  Current step  : 313842
  Time step     : 0.001
Per MPI rank memory allocation (min/avg/max) = 18.2 | 18.2 | 18.2 Mbytes
Step Temp Press TotEng PotEng Enthalpy 
  313842    373.20646   -324.62708   -62723.549   -63671.527   -62793.124 
  320014    350.72378    555.92522   -62914.119   -63804.989   -62795.653 
Loop time of 1041.93 on 1 procs for 6172 steps with 19652 atoms

Performance: 0.512 ns/day, 46.893 hours/ns, 5.924 timesteps/s
99.9% CPU use with 1 MPI tasks x no OpenMP threads

MPI task timing breakdown:
Section |  min time  |  avg time  |  max time  |%varavg| %total
---------------------------------------------------------------
Pair    | 562.58     | 562.58     | 562.58     |   0.0 | 53.99
Neigh   | 457.58     | 457.58     | 457.58     |   0.0 | 43.92
Comm    | 8.1552     | 8.1552     | 8.1552     |   0.0 |  0.78
Output  | 0.00027704 | 0.00027704 | 0.00027704 |   0.0 |  0.00
Modify  | 10.687     | 10.687     | 10.687     |   0.0 |  1.03
Other   |            | 2.932      |            |       |  0.28

Nlocal:    19652 ave 19652 max 19652 min
Histogram: 1 0 0 0 0 0 0 0 0 0
Nghost:    18129 ave 18129 max 18129 min
Histogram: 1 0 0 0 0 0 0 0 0 0
Neighs:    1.45453e+06 ave 1.45453e+06 max 1.45453e+06 min
Histogram: 1 0 0 0 0 0 0 0 0 0

Total # of neighbors = 1454529
Ave neighs/atom = 74.0143
Neighbor list builds = 6172
Dangerous builds not checked
Setting up Verlet run ...
  Unit style    : metal
  Current step  : 320014
  Time step     : 0.001
Per MPI rank memory allocation (min/avg/max) = 18.2 | 18.2 | 18.2 Mbytes
Step Temp Press TotEng PotEng Enthalpy 
  320014    350.72378    555.92522   -62914.119   -63804.989   -62795.653 
  320016    350.58581    553.63661   -62914.119   -63804.639   -62796.141 
  320509    325.23818   -212.92448   -63066.476   -63892.611    -63111.77 
Loop time of 78.1355 on 1 procs for 495 steps with 19652 atoms

Performance: 0.547 ns/day, 43.847 hours/ns, 6.335 timesteps/s
100.0% CPU use with 1 MPI tasks x no OpenMP threads

MPI task timing breakdown:
Section |  min time  |  avg time  |  max time  |%varavg| %total
---------------------------------------------------------------
Pair    | 41.781     | 41.781     | 41.781     |   0.0 | 53.47
Neigh   | 34.678     | 34.678     | 34.678     |   0.0 | 44.38
Comm    | 0.60331    | 0.60331    | 0.60331    |   0.0 |  0.77
Output  | 0.05809    | 0.05809    | 0.05809    |   0.0 |  0.07
Modify  | 0.7946     | 0.7946     | 0.7946     |   0.0 |  1.02
Other   |            | 0.221      |            |       |  0.28

Nlocal:    19652 ave 19652 max 19652 min
Histogram: 1 0 0 0 0 0 0 0 0 0
Nghost:    18159 ave 18159 max 18159 min
Histogram: 1 0 0 0 0 0 0 0 0 0
Neighs:    1.4569e+06 ave 1.4569e+06 max 1.4569e+06 min
Histogram: 1 0 0 0 0 0 0 0 0 0

Total # of neighbors = 1456902
Ave neighs/atom = 74.135
Neighbor list builds = 495
Dangerous builds not checked
Setting up Verlet run ...
  Unit style    : metal
  Current step  : 320509
  Time step     : 0.001
Per MPI rank memory allocation (min/avg/max) = 18.2 | 18.2 | 18.2 Mbytes
Step Temp Press TotEng PotEng Enthalpy 
  320509    325.23818   -212.92448   -63066.476   -63892.611    -63111.77 
  326681    300.82775   -761.58353   -63234.934   -63999.064   -63396.524 
Loop time of 1019.76 on 1 procs for 6172 steps with 19652 atoms

Performance: 0.523 ns/day, 45.896 hours/ns, 6.052 timesteps/s
99.9% CPU use with 1 MPI tasks x no OpenMP threads

MPI task timing breakdown:
Section |  min time  |  avg time  |  max time  |%varavg| %total
---------------------------------------------------------------
Pair    | 552.24     | 552.24     | 552.24     |   0.0 | 54.15
Neigh   | 445.45     | 445.45     | 445.45     |   0.0 | 43.68
Comm    | 8.3495     | 8.3495     | 8.3495     |   0.0 |  0.82
Output  | 0.00028896 | 0.00028896 | 0.00028896 |   0.0 |  0.00
Modify  | 10.746     | 10.746     | 10.746     |   0.0 |  1.05
Other   |            | 2.98       |            |       |  0.29

Nlocal:    19652 ave 19652 max 19652 min
Histogram: 1 0 0 0 0 0 0 0 0 0
Nghost:    18091 ave 18091 max 18091 min
Histogram: 1 0 0 0 0 0 0 0 0 0
Neighs:    1.46007e+06 ave 1.46007e+06 max 1.46007e+06 min
Histogram: 1 0 0 0 0 0 0 0 0 0

Total # of neighbors = 1460066
Ave neighs/atom = 74.2961
Neighbor list builds = 6172
Dangerous builds not checked
Setting up Verlet run ...
  Unit style    : metal
  Current step  : 326681
  Time step     : 0.001
Per MPI rank memory allocation (min/avg/max) = 18.2 | 18.2 | 18.2 Mbytes
Step Temp Press TotEng PotEng Enthalpy 
  326681    300.82775   -761.58353   -63234.934   -63999.064   -63396.524 
  326683     301.2446   -777.48593   -63234.935   -64000.124     -63399.9 
  327176     275.1576     545.5857   -63378.369   -64077.295   -63263.113 
Loop time of 80.856 on 1 procs for 495 steps with 19652 atoms

Performance: 0.529 ns/day, 45.374 hours/ns, 6.122 timesteps/s
99.9% CPU use with 1 MPI tasks x no OpenMP threads

MPI task timing breakdown:
Section |  min time  |  avg time  |  max time  |%varavg| %total
---------------------------------------------------------------
Pair    | 43.75      | 43.75      | 43.75      |   0.0 | 54.11
Neigh   | 35.252     | 35.252     | 35.252     |   0.0 | 43.60
Comm    | 0.6775     | 0.6775     | 0.6775     |   0.0 |  0.84
Output  | 0.059338   | 0.059338   | 0.059338   |   0.0 |  0.07
Modify  | 0.87038    | 0.87038    | 0.87038    |   0.0 |  1.08
Other   |            | 0.2474     |            |       |  0.31

Nlocal:    19652 ave 19652 max 19652 min
Histogram: 1 0 0 0 0 0 0 0 0 0
Nghost:    18141 ave 18141 max 18141 min
Histogram: 1 0 0 0 0 0 0 0 0 0
Neighs:    1.46593e+06 ave 1.46593e+06 max 1.46593e+06 min
Histogram: 1 0 0 0 0 0 0 0 0 0

Total # of neighbors = 1465932
Ave neighs/atom = 74.5945
Neighbor list builds = 495
Dangerous builds not checked
Setting up Verlet run ...
  Unit style    : metal
  Current step  : 327176
  Time step     : 0.001
Per MPI rank memory allocation (min/avg/max) = 18.2 | 18.2 | 18.2 Mbytes
Step Temp Press TotEng PotEng Enthalpy 
  327176     275.1576     545.5857   -63378.369   -64077.295   -63263.113 
  333348    253.56999   -38.753906   -63529.965   -64174.056   -63538.132 
Loop time of 1019.72 on 1 procs for 6172 steps with 19652 atoms

Performance: 0.523 ns/day, 45.894 hours/ns, 6.053 timesteps/s
99.5% CPU use with 1 MPI tasks x no OpenMP threads

MPI task timing breakdown:
Section |  min time  |  avg time  |  max time  |%varavg| %total
---------------------------------------------------------------
Pair    | 554.79     | 554.79     | 554.79     |   0.0 | 54.41
Neigh   | 442.24     | 442.24     | 442.24     |   0.0 | 43.37
Comm    | 8.6302     | 8.6302     | 8.6302     |   0.0 |  0.85
Output  | 0.00043106 | 0.00043106 | 0.00043106 |   0.0 |  0.00
Modify  | 11         | 11         | 11         |   0.0 |  1.08
Other   |            | 3.05       |            |       |  0.30

Nlocal:    19652 ave 19652 max 19652 min
Histogram: 1 0 0 0 0 0 0 0 0 0
Nghost:    18159 ave 18159 max 18159 min
Histogram: 1 0 0 0 0 0 0 0 0 0
Neighs:    1.46882e+06 ave 1.46882e+06 max 1.46882e+06 min
Histogram: 1 0 0 0 0 0 0 0 0 0

Total # of neighbors = 1468818
Ave neighs/atom = 74.7414
Neighbor list builds = 6172
Dangerous builds not checked
Setting up Verlet run ...
  Unit style    : metal
  Current step  : 333348
  Time step     : 0.001
Per MPI rank memory allocation (min/avg/max) = 18.2 | 18.2 | 18.2 Mbytes
Step Temp Press TotEng PotEng Enthalpy 
  333348    253.56999   -38.753906   -63529.965   -64174.056   -63538.132 
  333350    253.63814   -41.098505   -63529.969   -64174.233    -63538.63 
  333843    226.06666   -156.34373   -63677.494   -64251.723   -63710.363 
Loop time of 64.9302 on 1 procs for 495 steps with 19652 atoms

Performance: 0.659 ns/day, 36.437 hours/ns, 7.624 timesteps/s
100.0% CPU use with 1 MPI tasks x no OpenMP threads

MPI task timing breakdown:
Section |  min time  |  avg time  |  max time  |%varavg| %total
---------------------------------------------------------------
Pair    | 34.237     | 34.237     | 34.237     |   0.0 | 52.73
Neigh   | 29.302     | 29.302     | 29.302     |   0.0 | 45.13
Comm    | 0.49597    | 0.49597    | 0.49597    |   0.0 |  0.76
Output  | 0.061714   | 0.061714   | 0.061714   |   0.0 |  0.10
Modify  | 0.64283    | 0.64283    | 0.64283    |   0.0 |  0.99
Other   |            | 0.1903     |            |       |  0.29

Nlocal:    19652 ave 19652 max 19652 min
Histogram: 1 0 0 0 0 0 0 0 0 0
Nghost:    18227 ave 18227 max 18227 min
Histogram: 1 0 0 0 0 0 0 0 0 0
Neighs:    1.47167e+06 ave 1.47167e+06 max 1.47167e+06 min
Histogram: 1 0 0 0 0 0 0 0 0 0

Total # of neighbors = 1471671
Ave neighs/atom = 74.8866
Neighbor list builds = 495
Dangerous builds not checked
Setting up Verlet run ...
  Unit style    : metal
  Current step  : 333843
  Time step     : 0.001
Per MPI rank memory allocation (min/avg/max) = 18.2 | 18.2 | 18.2 Mbytes
Step Temp Press TotEng PotEng Enthalpy 
  333843    226.06666   -156.34373   -63677.494   -64251.723   -63710.363 
  340015    200.84126   -293.88463   -63825.771   -64335.926   -63887.419 
Loop time of 949.846 on 1 procs for 6172 steps with 19652 atoms

Performance: 0.561 ns/day, 42.749 hours/ns, 6.498 timesteps/s
98.4% CPU use with 1 MPI tasks x no OpenMP threads

MPI task timing breakdown:
Section |  min time  |  avg time  |  max time  |%varavg| %total
---------------------------------------------------------------
Pair    | 510.67     | 510.67     | 510.67     |   0.0 | 53.76
Neigh   | 419.56     | 419.56     | 419.56     |   0.0 | 44.17
Comm    | 7.2571     | 7.2571     | 7.2571     |   0.0 |  0.76
Output  | 0.00024199 | 0.00024199 | 0.00024199 |   0.0 |  0.00
Modify  | 9.7599     | 9.7599     | 9.7599     |   0.0 |  1.03
Other   |            | 2.602      |            |       |  0.27

Nlocal:    19652 ave 19652 max 19652 min
Histogram: 1 0 0 0 0 0 0 0 0 0
Nghost:    18205 ave 18205 max 18205 min
Histogram: 1 0 0 0 0 0 0 0 0 0
Neighs:    1.47474e+06 ave 1.47474e+06 max 1.47474e+06 min
Histogram: 1 0 0 0 0 0 0 0 0 0

Total # of neighbors = 1474741
Ave neighs/atom = 75.0428
Neighbor list builds = 6172
Dangerous builds not checked
Setting up Verlet run ...
  Unit style    : metal
  Current step  : 340015
  Time step     : 0.001
Per MPI rank memory allocation (min/avg/max) = 18.2 | 18.2 | 18.2 Mbytes
Step Temp Press TotEng PotEng Enthalpy 
  340015    200.84126   -293.88463   -63825.771   -64335.926   -63887.419 
  340017    201.02862   -300.00361   -63825.772   -64336.403   -63888.704 
  340510    176.37065   -357.07751   -63960.323    -64408.32   -64035.067 
Loop time of 76.9126 on 1 procs for 495 steps with 19652 atoms

Performance: 0.556 ns/day, 43.161 hours/ns, 6.436 timesteps/s
99.9% CPU use with 1 MPI tasks x no OpenMP threads

MPI task timing breakdown:
Section |  min time  |  avg time  |  max time  |%varavg| %total
---------------------------------------------------------------
Pair    | 41.249     | 41.249     | 41.249     |   0.0 | 53.63
Neigh   | 33.977     | 33.977     | 33.977     |   0.0 | 44.18
Comm    | 0.5961     | 0.5961     | 0.5961     |   0.0 |  0.78
Output  | 0.087397   | 0.087397   | 0.087397   |   0.0 |  0.11
Modify  | 0.78976    | 0.78976    | 0.78976    |   0.0 |  1.03
Other   |            | 0.2135     |            |       |  0.28

Nlocal:    19652 ave 19652 max 19652 min
Histogram: 1 0 0 0 0 0 0 0 0 0
Nghost:    18242 ave 18242 max 18242 min
Histogram: 1 0 0 0 0 0 0 0 0 0
Neighs:    1.47761e+06 ave 1.47761e+06 max 1.47761e+06 min
Histogram: 1 0 0 0 0 0 0 0 0 0

Total # of neighbors = 1477612
Ave neighs/atom = 75.1889
Neighbor list builds = 495
Dangerous builds not checked
Setting up Verlet run ...
  Unit style    : metal
  Current step  : 340510
  Time step     : 0.001
Per MPI rank memory allocation (min/avg/max) = 18.2 | 18.2 | 18.2 Mbytes
Step Temp Press TotEng PotEng Enthalpy 
  340510    176.37065   -357.07751   -63960.323    -64408.32   -64035.067 
  346682    149.07646    424.43996   -64109.018   -64487.685   -64020.469 
Loop time of 953.488 on 1 procs for 6172 steps with 19652 atoms

Performance: 0.559 ns/day, 42.913 hours/ns, 6.473 timesteps/s
98.7% CPU use with 1 MPI tasks x no OpenMP threads

MPI task timing breakdown:
Section |  min time  |  avg time  |  max time  |%varavg| %total
---------------------------------------------------------------
Pair    | 513.27     | 513.27     | 513.27     |   0.0 | 53.83
Neigh   | 420.19     | 420.19     | 420.19     |   0.0 | 44.07
Comm    | 7.4836     | 7.4836     | 7.4836     |   0.0 |  0.78
Output  | 0.000211   | 0.000211   | 0.000211   |   0.0 |  0.00
Modify  | 9.8371     | 9.8371     | 9.8371     |   0.0 |  1.03
Other   |            | 2.71       |            |       |  0.28

Nlocal:    19652 ave 19652 max 19652 min
Histogram: 1 0 0 0 0 0 0 0 0 0
Nghost:    18264 ave 18264 max 18264 min
Histogram: 1 0 0 0 0 0 0 0 0 0
Neighs:    1.4818e+06 ave 1.4818e+06 max 1.4818e+06 min
Histogram: 1 0 0 0 0 0 0 0 0 0

Total # of neighbors = 1481804
Ave neighs/atom = 75.4022
Neighbor list builds = 6172
Dangerous builds not checked
Setting up Verlet run ...
  Unit style    : metal
  Current step  : 346682
  Time step     : 0.001
Per MPI rank memory allocation (min/avg/max) = 18.2 | 18.2 | 18.2 Mbytes
Step Temp Press TotEng PotEng Enthalpy 
  346682    149.07646    424.43996   -64109.018   -64487.685   -64020.469 
  346684    149.07644    419.43387   -64109.017   -64487.685   -64021.512 
  347177    127.69508   -290.54673   -64227.949   -64552.306   -64288.506 
Loop time of 77.4167 on 1 procs for 495 steps with 19652 atoms

Performance: 0.552 ns/day, 43.444 hours/ns, 6.394 timesteps/s
99.9% CPU use with 1 MPI tasks x no OpenMP threads

MPI task timing breakdown:
Section |  min time  |  avg time  |  max time  |%varavg| %total
---------------------------------------------------------------
Pair    | 41.84      | 41.84      | 41.84      |   0.0 | 54.04
Neigh   | 33.918     | 33.918     | 33.918     |   0.0 | 43.81
Comm    | 0.60195    | 0.60195    | 0.60195    |   0.0 |  0.78
Output  | 0.046186   | 0.046186   | 0.046186   |   0.0 |  0.06
Modify  | 0.79187    | 0.79187    | 0.79187    |   0.0 |  1.02
Other   |            | 0.2184     |            |       |  0.28

Nlocal:    19652 ave 19652 max 19652 min
Histogram: 1 0 0 0 0 0 0 0 0 0
Nghost:    18272 ave 18272 max 18272 min
Histogram: 1 0 0 0 0 0 0 0 0 0
Neighs:    1.48312e+06 ave 1.48312e+06 max 1.48312e+06 min
Histogram: 1 0 0 0 0 0 0 0 0 0

Total # of neighbors = 1483119
Ave neighs/atom = 75.4691
Neighbor list builds = 495
Dangerous builds not checked
Setting up Verlet run ...
  Unit style    : metal
  Current step  : 347177
  Time step     : 0.001
Per MPI rank memory allocation (min/avg/max) = 18.2 | 18.2 | 18.2 Mbytes
Step Temp Press TotEng PotEng Enthalpy 
  347177    127.69508   -290.54673   -64227.949   -64552.306   -64288.506 
  353349    100.33203    198.88786    -64373.99   -64628.843   -64332.655 
Loop time of 960.24 on 1 procs for 6172 steps with 19652 atoms

Performance: 0.555 ns/day, 43.217 hours/ns, 6.428 timesteps/s
99.7% CPU use with 1 MPI tasks x no OpenMP threads

MPI task timing breakdown:
Section |  min time  |  avg time  |  max time  |%varavg| %total
---------------------------------------------------------------
Pair    | 519.06     | 519.06     | 519.06     |   0.0 | 54.05
Neigh   | 420.68     | 420.68     | 420.68     |   0.0 | 43.81
Comm    | 7.7168     | 7.7168     | 7.7168     |   0.0 |  0.80
Output  | 0.00026202 | 0.00026202 | 0.00026202 |   0.0 |  0.00
Modify  | 10.034     | 10.034     | 10.034     |   0.0 |  1.04
Other   |            | 2.757      |            |       |  0.29

Nlocal:    19652 ave 19652 max 19652 min
Histogram: 1 0 0 0 0 0 0 0 0 0
Nghost:    18285 ave 18285 max 18285 min
Histogram: 1 0 0 0 0 0 0 0 0 0
Neighs:    1.48659e+06 ave 1.48659e+06 max 1.48659e+06 min
Histogram: 1 0 0 0 0 0 0 0 0 0

Total # of neighbors = 1486586
Ave neighs/atom = 75.6455
Neighbor list builds = 6172
Dangerous builds not checked
Total wall time: 15:06:34
