LAMMPS (12 Dec 2018)
Lattice spacing in x,y,z = 4 4 4
Created orthogonal box = (0 0 0) to (68 68 68)
  1 by 2 by 3 MPI processor grid
Created 19652 atoms
  Time spent = 0.00100708 secs
Setting atom values ...
  417 settings made for type/fraction
Neighbor list info ...
  update every 1 steps, delay 0 steps, check no
  max neighbors/atom: 2000, page size: 100000
  master list distance cutoff = 8.5
  ghost atom cutoff = 8.5
  binsize = 4.25, bins = 16 16 16
  1 neighbor lists, perpetual/occasional/extra = 1 0 0
  (1) pair eam/alloy, perpetual
      attributes: half, newton on
      pair build: half/bin/atomonly/newton
      stencil: half/bin/3d/newton
      bin: standard
Setting up Verlet run ...
  Unit style    : metal
  Current step  : 0
  Time step     : 0.001
Per MPI rank memory allocation (min/avg/max) = 5.546 | 5.705 | 5.983 Mbytes
Step Temp Press TotEng PotEng Enthalpy 
       0          300      1200412   -19364.497   -20126.524       216220 
    1000    164.14026    1203511.4   -19364.373   -19781.305    216828.38 
Loop time of 35.9741 on 6 procs for 1000 steps with 19652 atoms

Performance: 2.402 ns/day, 9.993 hours/ns, 27.798 timesteps/s
99.7% CPU use with 6 MPI tasks x no OpenMP threads

MPI task timing breakdown:
Section |  min time  |  avg time  |  max time  |%varavg| %total
---------------------------------------------------------------
Pair    | 20.542     | 20.838     | 21.105     |   4.3 | 57.92
Neigh   | 11.289     | 11.995     | 12.699     |  14.4 | 33.34
Comm    | 2.2537     | 2.9756     | 3.6465     |  29.0 |  8.27
Output  | 0.0001719  | 0.00022936 | 0.00028515 |   0.0 |  0.00
Modify  | 0.077808   | 0.08235    | 0.08631    |   1.2 |  0.23
Other   |            | 0.08279    |            |       |  0.23

Nlocal:    3275.33 ave 3352 max 3149 min
Histogram: 1 0 1 0 0 0 0 2 1 1
Nghost:    7718.33 ave 7878 max 7412 min
Histogram: 1 1 0 0 0 0 0 0 1 3
Neighs:    265121 ave 275858 max 255011 min
Histogram: 1 0 1 1 1 0 0 0 1 1

Total # of neighbors = 1590724
Ave neighs/atom = 80.9446
Neighbor list builds = 1000
Dangerous builds not checked
Setting up Verlet run ...
  Unit style    : metal
  Current step  : 1000
  Time step     : 0.001
Per MPI rank memory allocation (min/avg/max) = 5.548 | 5.835 | 5.983 Mbytes
Step Temp Press TotEng PotEng Enthalpy 
    1000    164.14026    1203511.4   -19364.373   -19781.305    216828.38 
    2000     179.2275    1526.0955    -86292.98   -86748.234   -85599.206 
Loop time of 23.6571 on 6 procs for 1000 steps with 19652 atoms

Performance: 3.652 ns/day, 6.571 hours/ns, 42.271 timesteps/s
99.8% CPU use with 6 MPI tasks x no OpenMP threads

MPI task timing breakdown:
Section |  min time  |  avg time  |  max time  |%varavg| %total
---------------------------------------------------------------
Pair    | 12.557     | 12.631     | 12.782     |   2.1 | 53.39
Neigh   | 7.9069     | 8.3479     | 9.2967     |  15.5 | 35.29
Comm    | 1.2899     | 2.2675     | 2.7287     |  30.9 |  9.58
Output  | 5.6982e-05 | 7.1843e-05 | 0.00011802 |   0.0 |  0.00
Modify  | 0.32493    | 0.33096    | 0.34559    |   1.2 |  1.40
Other   |            | 0.07949    |            |       |  0.34

Nlocal:    3275.33 ave 3328 max 3156 min
Histogram: 1 0 1 0 0 0 0 0 0 4
Nghost:    5420.5 ave 5537 max 5174 min
Histogram: 1 1 0 0 0 0 0 0 0 4
Neighs:    118308 ave 120772 max 113127 min
Histogram: 1 0 1 0 0 0 0 0 1 3

Total # of neighbors = 709846
Ave neighs/atom = 36.1208
Neighbor list builds = 1000
Dangerous builds not checked
Setting up Verlet run ...
  Unit style    : metal
  Current step  : 2000
  Time step     : 0.001
Per MPI rank memory allocation (min/avg/max) = 5.554 | 5.84 | 5.987 Mbytes
Step Temp Press TotEng PotEng Enthalpy 
    2000     179.2275    1526.0955    -86292.98   -86748.234   -85599.206 
   10000    2448.8214   -508.77446   -73912.733   -80132.963    -74176.95 
Loop time of 148.969 on 6 procs for 8000 steps with 19652 atoms

Performance: 4.640 ns/day, 5.173 hours/ns, 53.702 timesteps/s
99.0% CPU use with 6 MPI tasks x no OpenMP threads

MPI task timing breakdown:
Section |  min time  |  avg time  |  max time  |%varavg| %total
---------------------------------------------------------------
Pair    | 72.888     | 73.65      | 74.331     |   5.6 | 49.44
Neigh   | 56.484     | 57.398     | 58.468     |  10.9 | 38.53
Comm    | 13.545     | 14.638     | 15.93      |  23.0 |  9.83
Output  | 6.7949e-05 | 8.4956e-05 | 0.00015402 |   0.0 |  0.00
Modify  | 2.6173     | 2.6397     | 2.6637     |   0.9 |  1.77
Other   |            | 0.6431     |            |       |  0.43

Nlocal:    3275.33 ave 3288 max 3250 min
Histogram: 1 0 0 0 1 0 0 1 2 1
Nghost:    4848.67 ave 4877 max 4829 min
Histogram: 2 0 1 0 0 1 1 0 0 1
Neighs:    98217.8 ave 99548 max 96284 min
Histogram: 1 0 1 0 0 0 0 2 1 1

Total # of neighbors = 589307
Ave neighs/atom = 29.9871
Neighbor list builds = 8000
Dangerous builds not checked
Setting up Verlet run ...
  Unit style    : metal
  Current step  : 10000
  Time step     : 0.001
Per MPI rank memory allocation (min/avg/max) = 5.561 | 5.849 | 5.997 Mbytes
Step Temp Press TotEng PotEng Enthalpy 
   10000    2448.8214   -508.77446   -73912.733   -80132.963    -74176.95 
   40000     2477.308   -684.50888   -73744.344   -80036.932   -74100.614 
Loop time of 567.629 on 6 procs for 30000 steps with 19652 atoms

Performance: 4.566 ns/day, 5.256 hours/ns, 52.851 timesteps/s
99.1% CPU use with 6 MPI tasks x no OpenMP threads

MPI task timing breakdown:
Section |  min time  |  avg time  |  max time  |%varavg| %total
---------------------------------------------------------------
Pair    | 286.48     | 289.33     | 292.89     |  15.3 | 50.97
Neigh   | 207.96     | 211.26     | 214.62     |  13.5 | 37.22
Comm    | 47.363     | 53.77      | 59.721     |  56.7 |  9.47
Output  | 7.7963e-05 | 9.2189e-05 | 0.00015497 |   0.0 |  0.00
Modify  | 10.615     | 10.797     | 10.926     |   3.5 |  1.90
Other   |            | 2.469      |            |       |  0.44

Nlocal:    3275.33 ave 3299 max 3260 min
Histogram: 2 0 0 0 3 0 0 0 0 1
Nghost:    4839.67 ave 4847 max 4829 min
Histogram: 1 0 0 1 0 1 0 1 1 1
Neighs:    97917 ave 99076 max 97140 min
Histogram: 1 0 2 0 1 1 0 0 0 1

Total # of neighbors = 587502
Ave neighs/atom = 29.8953
Neighbor list builds = 30000
Dangerous builds not checked
Setting up Verlet run ...
  Unit style    : metal
  Current step  : 40000
  Time step     : 0.001
Per MPI rank memory allocation (min/avg/max) = 5.561 | 5.849 | 5.997 Mbytes
Step Temp Press TotEng PotEng Enthalpy 
   40000     2477.308   -684.50888   -73744.344   -80036.932   -74100.614 
   40495    2402.8199   -170.92846   -73979.803   -80083.184   -74068.512 
Loop time of 9.28212 on 6 procs for 495 steps with 19652 atoms

Performance: 4.608 ns/day, 5.209 hours/ns, 53.328 timesteps/s
99.3% CPU use with 6 MPI tasks x no OpenMP threads

MPI task timing breakdown:
Section |  min time  |  avg time  |  max time  |%varavg| %total
---------------------------------------------------------------
Pair    | 4.412      | 4.5123     | 4.7021     |   4.4 | 48.61
Neigh   | 3.3319     | 3.4418     | 3.5258     |   4.0 | 37.08
Comm    | 0.68064    | 0.82081    | 1.0356     |  12.8 |  8.84
Output  | 0.00013399 | 0.00015171 | 0.00019217 |   0.0 |  0.00
Modify  | 0.46202    | 0.46534    | 0.46876    |   0.4 |  5.01
Other   |            | 0.04169    |            |       |  0.45

Nlocal:    3275.33 ave 3290 max 3242 min
Histogram: 1 0 0 0 0 1 1 0 0 3
Nghost:    4859.17 ave 4889 max 4840 min
Histogram: 3 0 0 1 0 0 0 0 0 2
Neighs:    98244.2 ave 99857 max 96786 min
Histogram: 1 0 1 0 1 1 1 0 0 1

Total # of neighbors = 589465
Ave neighs/atom = 29.9952
Neighbor list builds = 495
Dangerous builds not checked
Setting up Verlet run ...
  Unit style    : metal
  Current step  : 40495
  Time step     : 0.001
Per MPI rank memory allocation (min/avg/max) = 5.561 | 5.849 | 5.997 Mbytes
Step Temp Press TotEng PotEng Enthalpy 
   40495    2402.8199   -170.92846   -73979.803   -80083.184   -74068.512 
   66667     2375.209    280.39725   -74101.177   -80134.424   -73956.006 
  106667    2411.0947    46.909225   -74057.491   -80181.891   -74033.192 
Loop time of 1237.79 on 6 procs for 66172 steps with 19652 atoms

Performance: 4.619 ns/day, 5.196 hours/ns, 53.460 timesteps/s
99.3% CPU use with 6 MPI tasks x no OpenMP threads

MPI task timing breakdown:
Section |  min time  |  avg time  |  max time  |%varavg| %total
---------------------------------------------------------------
Pair    | 620.08     | 626.22     | 634.6      |  20.9 | 50.59
Neigh   | 462.62     | 464.88     | 468.57     |   9.1 | 37.56
Comm    | 108.68     | 117.81     | 123.8      |  48.5 |  9.52
Output  | 0.020493   | 0.020552   | 0.020828   |   0.1 |  0.00
Modify  | 23.344     | 23.426     | 23.622     |   2.0 |  1.89
Other   |            | 5.442      |            |       |  0.44

Nlocal:    3275.33 ave 3296 max 3259 min
Histogram: 2 0 1 0 0 0 1 1 0 1
Nghost:    4838.17 ave 4858 max 4813 min
Histogram: 1 0 0 0 0 3 0 1 0 1
Neighs:    98433.2 ave 100216 max 96923 min
Histogram: 1 0 1 1 0 2 0 0 0 1

Total # of neighbors = 590599
Ave neighs/atom = 30.0529
Neighbor list builds = 66172
Dangerous builds not checked
Setting up Verlet run ...
  Unit style    : metal
  Current step  : 106667
  Time step     : 0.001
Per MPI rank memory allocation (min/avg/max) = 5.578 | 5.866 | 6.011 Mbytes
Step Temp Press TotEng PotEng Enthalpy 
  106667    2411.0947    46.909225   -74057.491   -80181.891   -74033.192 
  107162    2348.3607    308.02037   -74279.622   -80244.672   -74120.504 
Loop time of 8.28007 on 6 procs for 495 steps with 19652 atoms

Performance: 5.165 ns/day, 4.647 hours/ns, 59.782 timesteps/s
99.9% CPU use with 6 MPI tasks x no OpenMP threads

MPI task timing breakdown:
Section |  min time  |  avg time  |  max time  |%varavg| %total
---------------------------------------------------------------
Pair    | 4.0976     | 4.1478     | 4.194      |   1.8 | 50.09
Neigh   | 2.8985     | 3.0778     | 3.3653     |  10.8 | 37.17
Comm    | 0.59909    | 0.85982    | 1.0432     |  19.8 | 10.38
Output  | 8.9169e-05 | 0.00010494 | 0.00015521 |   0.0 |  0.00
Modify  | 0.15355    | 0.15696    | 0.16235    |   0.9 |  1.90
Other   |            | 0.03759    |            |       |  0.45

Nlocal:    3275.33 ave 3300 max 3250 min
Histogram: 1 0 1 1 0 1 0 0 0 2
Nghost:    4862.33 ave 4903 max 4837 min
Histogram: 2 0 1 0 1 0 1 0 0 1
Neighs:    98683.5 ave 100317 max 97300 min
Histogram: 1 1 0 1 1 0 0 1 0 1

Total # of neighbors = 592101
Ave neighs/atom = 30.1293
Neighbor list builds = 495
Dangerous builds not checked
Setting up Verlet run ...
  Unit style    : metal
  Current step  : 107162
  Time step     : 0.001
Per MPI rank memory allocation (min/avg/max) = 5.578 | 5.866 | 6.011 Mbytes
Step Temp Press TotEng PotEng Enthalpy 
  107162    2348.3607    308.02037   -74279.622   -80244.672   -74120.504 
  133334    2350.7282    179.38815   -74326.411   -80297.475   -74233.816 
  173334    2333.2576   -346.19767   -74359.382   -80286.069   -74538.443 
Loop time of 1171.74 on 6 procs for 66172 steps with 19652 atoms

Performance: 4.879 ns/day, 4.919 hours/ns, 56.473 timesteps/s
99.8% CPU use with 6 MPI tasks x no OpenMP threads

MPI task timing breakdown:
Section |  min time  |  avg time  |  max time  |%varavg| %total
---------------------------------------------------------------
Pair    | 587.33     | 593.59     | 599.16     |  18.1 | 50.66
Neigh   | 425.02     | 434.67     | 445.59     |  33.4 | 37.10
Comm    | 106.63     | 117.97     | 129.88     |  78.7 | 10.07
Output  | 0.016579   | 0.016602   | 0.016707   |   0.0 |  0.00
Modify  | 20.306     | 20.484     | 20.621     |   2.6 |  1.75
Other   |            | 5.009      |            |       |  0.43

Nlocal:    3275.33 ave 3285 max 3259 min
Histogram: 1 0 1 0 0 0 1 0 1 2
Nghost:    4835 ave 4865 max 4795 min
Histogram: 1 0 1 0 0 1 1 0 0 2
Neighs:    98577.2 ave 99943 max 97068 min
Histogram: 1 0 1 0 1 1 0 0 1 1

Total # of neighbors = 591463
Ave neighs/atom = 30.0968
Neighbor list builds = 66172
Dangerous builds not checked
Setting up Verlet run ...
  Unit style    : metal
  Current step  : 173334
  Time step     : 0.001
Per MPI rank memory allocation (min/avg/max) = 5.579 | 5.868 | 6.012 Mbytes
Step Temp Press TotEng PotEng Enthalpy 
  173334    2333.2576   -346.19767   -74359.382   -80286.069   -74538.443 
  173829     2311.855   -334.00034   -74434.993   -80307.316    -74607.66 
Loop time of 8.31144 on 6 procs for 495 steps with 19652 atoms

Performance: 5.146 ns/day, 4.664 hours/ns, 59.556 timesteps/s
99.9% CPU use with 6 MPI tasks x no OpenMP threads

MPI task timing breakdown:
Section |  min time  |  avg time  |  max time  |%varavg| %total
---------------------------------------------------------------
Pair    | 4.0926     | 4.1866     | 4.2705     |   2.8 | 50.37
Neigh   | 2.9076     | 3.0731     | 3.297      |   8.9 | 36.97
Comm    | 0.7154     | 0.86595    | 1.0492     |  14.7 | 10.42
Output  | 5.1022e-05 | 6.5645e-05 | 0.00012898 |   0.0 |  0.00
Modify  | 0.14394    | 0.1492     | 0.15584    |   1.3 |  1.80
Other   |            | 0.03652    |            |       |  0.44

Nlocal:    3275.33 ave 3295 max 3240 min
Histogram: 1 0 0 0 1 0 0 2 1 1
Nghost:    4834.33 ave 4880 max 4801 min
Histogram: 1 0 2 0 1 1 0 0 0 1
Neighs:    98653.8 ave 100194 max 97592 min
Histogram: 1 0 2 1 0 0 1 0 0 1

Total # of neighbors = 591923
Ave neighs/atom = 30.1202
Neighbor list builds = 495
Dangerous builds not checked
Setting up Verlet run ...
  Unit style    : metal
  Current step  : 173829
  Time step     : 0.001
Per MPI rank memory allocation (min/avg/max) = 5.579 | 5.868 | 6.012 Mbytes
Step Temp Press TotEng PotEng Enthalpy 
  173829     2311.855   -334.00034   -74434.993   -80307.316    -74607.66 
  200001    2287.8093   -251.74772   -74606.456     -80417.7   -74736.302 
  240001    2294.9139   -416.46596   -74554.372   -80383.662   -74769.539 
Loop time of 1169.59 on 6 procs for 66172 steps with 19652 atoms

Performance: 4.888 ns/day, 4.910 hours/ns, 56.577 timesteps/s
99.8% CPU use with 6 MPI tasks x no OpenMP threads

MPI task timing breakdown:
Section |  min time  |  avg time  |  max time  |%varavg| %total
---------------------------------------------------------------
Pair    | 588.72     | 593.98     | 601.7      |  20.5 | 50.78
Neigh   | 416.27     | 426.83     | 435.04     |  34.4 | 36.49
Comm    | 110.69     | 123.44     | 139.01     |  90.6 | 10.55
Output  | 0.015744   | 0.015806   | 0.016084   |   0.1 |  0.00
Modify  | 20.189     | 20.385     | 20.66      |   3.5 |  1.74
Other   |            | 4.941      |            |       |  0.42

Nlocal:    3275.33 ave 3304 max 3264 min
Histogram: 2 2 0 1 0 0 0 0 0 1
Nghost:    4842.17 ave 4862 max 4821 min
Histogram: 2 0 0 0 0 1 1 0 1 1
Neighs:    98704.2 ave 100121 max 97233 min
Histogram: 1 0 1 0 1 1 0 1 0 1

Total # of neighbors = 592225
Ave neighs/atom = 30.1356
Neighbor list builds = 66172
Dangerous builds not checked
Setting up Verlet run ...
  Unit style    : metal
  Current step  : 240001
  Time step     : 0.001
Per MPI rank memory allocation (min/avg/max) = 5.58 | 5.868 | 6.013 Mbytes
Step Temp Press TotEng PotEng Enthalpy 
  240001    2294.9139   -416.46596   -74554.372   -80383.662   -74769.539 
  240496    2254.6515   -247.19105   -74733.292   -80460.313   -74860.674 
Loop time of 8.48133 on 6 procs for 495 steps with 19652 atoms

Performance: 5.043 ns/day, 4.759 hours/ns, 58.363 timesteps/s
99.9% CPU use with 6 MPI tasks x no OpenMP threads

MPI task timing breakdown:
Section |  min time  |  avg time  |  max time  |%varavg| %total
---------------------------------------------------------------
Pair    | 4.2203     | 4.2696     | 4.3165     |   1.5 | 50.34
Neigh   | 2.9711     | 3.2127     | 3.521      |  13.2 | 37.88
Comm    | 0.47295    | 0.80394    | 1.1042     |  27.3 |  9.48
Output  | 5.9128e-05 | 7.4625e-05 | 0.00012994 |   0.0 |  0.00
Modify  | 0.14948    | 0.15628    | 0.1663     |   1.8 |  1.84
Other   |            | 0.03873    |            |       |  0.46

Nlocal:    3275.33 ave 3299 max 3247 min
Histogram: 1 0 1 0 0 1 0 2 0 1
Nghost:    4873 ave 4896 max 4839 min
Histogram: 1 0 1 1 0 0 0 0 0 3
Neighs:    98940.5 ave 100975 max 97164 min
Histogram: 2 0 1 0 0 0 1 1 0 1

Total # of neighbors = 593643
Ave neighs/atom = 30.2078
Neighbor list builds = 495
Dangerous builds not checked
Setting up Verlet run ...
  Unit style    : metal
  Current step  : 240496
  Time step     : 0.001
Per MPI rank memory allocation (min/avg/max) = 5.58 | 5.868 | 6.013 Mbytes
Step Temp Press TotEng PotEng Enthalpy 
  240496    2254.6515   -247.19105   -74733.292   -80460.313   -74860.674 
  266668    2253.0052   -371.70686   -74741.665   -80464.503   -74933.447 
  306668    2243.5038   -381.68387   -74792.285   -80490.989   -74988.976 
Loop time of 1151.57 on 6 procs for 66172 steps with 19652 atoms

Performance: 4.965 ns/day, 4.834 hours/ns, 57.462 timesteps/s
99.8% CPU use with 6 MPI tasks x no OpenMP threads

MPI task timing breakdown:
Section |  min time  |  avg time  |  max time  |%varavg| %total
---------------------------------------------------------------
Pair    | 573.69     | 582.66     | 592.8      |  25.9 | 50.60
Neigh   | 418.28     | 421.45     | 426.35     |  16.0 | 36.60
Comm    | 106.01     | 121.14     | 132.74     |  72.6 | 10.52
Output  | 0.016557   | 0.016581   | 0.016682   |   0.0 |  0.00
Modify  | 21.398     | 21.452     | 21.491     |   0.8 |  1.86
Other   |            | 4.849      |            |       |  0.42

Nlocal:    3275.33 ave 3295 max 3256 min
Histogram: 1 2 0 0 0 0 1 0 0 2
Nghost:    4851.83 ave 4866 max 4837 min
Histogram: 1 0 0 1 1 1 0 1 0 1
Neighs:    98925.8 ave 100214 max 97071 min
Histogram: 2 0 0 0 0 0 0 1 2 1

Total # of neighbors = 593555
Ave neighs/atom = 30.2033
Neighbor list builds = 66172
Dangerous builds not checked
Setting up Verlet run ...
  Unit style    : metal
  Current step  : 306668
  Time step     : 0.001
Per MPI rank memory allocation (min/avg/max) = 5.58 | 5.868 | 6.013 Mbytes
Step Temp Press TotEng PotEng Enthalpy 
  306668    2243.5038   -381.68387   -74792.285   -80490.989   -74988.976 
  307163    2183.0034    271.73995   -74990.149   -80535.176   -74850.606 
Loop time of 8.31795 on 6 procs for 495 steps with 19652 atoms

Performance: 5.142 ns/day, 4.668 hours/ns, 59.510 timesteps/s
99.6% CPU use with 6 MPI tasks x no OpenMP threads

MPI task timing breakdown:
Section |  min time  |  avg time  |  max time  |%varavg| %total
---------------------------------------------------------------
Pair    | 4.0443     | 4.1799     | 4.3288     |   4.5 | 50.25
Neigh   | 2.8748     | 3.0879     | 3.5186     |  16.4 | 37.12
Comm    | 0.43809    | 0.86047    | 1.141      |  27.3 | 10.34
Output  | 6.6996e-05 | 8.0864e-05 | 0.00013399 |   0.0 |  0.00
Modify  | 0.1482     | 0.15306    | 0.16295    |   1.7 |  1.84
Other   |            | 0.03658    |            |       |  0.44

Nlocal:    3275.33 ave 3302 max 3255 min
Histogram: 1 1 0 1 1 0 1 0 0 1
Nghost:    4875.67 ave 4927 max 4826 min
Histogram: 1 0 0 0 3 1 0 0 0 1
Neighs:    99198.8 ave 100368 max 97291 min
Histogram: 1 0 0 1 0 0 1 0 2 1

Total # of neighbors = 595193
Ave neighs/atom = 30.2866
Neighbor list builds = 495
Dangerous builds not checked
Setting up Verlet run ...
  Unit style    : metal
  Current step  : 307163
  Time step     : 0.001
Per MPI rank memory allocation (min/avg/max) = 5.58 | 5.868 | 6.013 Mbytes
Step Temp Press TotEng PotEng Enthalpy 
  307163    2183.0034    271.73995   -74990.149   -80535.176   -74850.606 
  333335    2202.4777    363.59185   -75018.245   -80612.739   -74831.832 
  373335    2193.8582     304.5951   -75040.454   -80613.054    -74884.24 
Loop time of 1157.41 on 6 procs for 66172 steps with 19652 atoms

Performance: 4.940 ns/day, 4.859 hours/ns, 57.173 timesteps/s
99.6% CPU use with 6 MPI tasks x no OpenMP threads

MPI task timing breakdown:
Section |  min time  |  avg time  |  max time  |%varavg| %total
---------------------------------------------------------------
Pair    | 576.85     | 581.95     | 588.17     |  18.8 | 50.28
Neigh   | 422.5      | 426.76     | 431.43     |  15.4 | 36.87
Comm    | 114.85     | 120.57     | 127.35     |  34.2 | 10.42
Output  | 0.016641   | 0.016669   | 0.016775   |   0.0 |  0.00
Modify  | 22.913     | 23.201     | 23.428     |   4.0 |  2.00
Other   |            | 4.915      |            |       |  0.42

Nlocal:    3275.33 ave 3297 max 3253 min
Histogram: 1 0 0 0 2 2 0 0 0 1
Nghost:    4872.5 ave 4895 max 4856 min
Histogram: 1 2 0 1 0 0 0 1 0 1
Neighs:    99405.2 ave 101372 max 98085 min
Histogram: 1 2 0 1 0 0 0 0 1 1

Total # of neighbors = 596431
Ave neighs/atom = 30.3496
Neighbor list builds = 66172
Dangerous builds not checked
Setting up Verlet run ...
  Unit style    : metal
  Current step  : 373335
  Time step     : 0.001
Per MPI rank memory allocation (min/avg/max) = 5.58 | 5.868 | 6.013 Mbytes
Step Temp Press TotEng PotEng Enthalpy 
  373335    2193.8582     304.5951   -75040.454   -80613.054    -74884.24 
  373830    2157.4792    342.70675   -75217.789   -80697.983   -75042.424 
Loop time of 8.37278 on 6 procs for 495 steps with 19652 atoms

Performance: 5.108 ns/day, 4.699 hours/ns, 59.120 timesteps/s
99.9% CPU use with 6 MPI tasks x no OpenMP threads

MPI task timing breakdown:
Section |  min time  |  avg time  |  max time  |%varavg| %total
---------------------------------------------------------------
Pair    | 4.1566     | 4.2159     | 4.3009     |   2.3 | 50.35
Neigh   | 3.0177     | 3.191      | 3.5348     |  10.2 | 38.11
Comm    | 0.43549    | 0.77549    | 0.99264    |  20.1 |  9.26
Output  | 6.1989e-05 | 7.3791e-05 | 0.00011897 |   0.0 |  0.00
Modify  | 0.14774    | 0.15314    | 0.16347    |   1.5 |  1.83
Other   |            | 0.03714    |            |       |  0.44

Nlocal:    3275.33 ave 3297 max 3264 min
Histogram: 1 3 0 0 0 0 1 0 0 1
Nghost:    4893 ave 4902 max 4881 min
Histogram: 1 0 0 0 1 0 2 1 0 1
Neighs:    99604.2 ave 101003 max 98225 min
Histogram: 1 1 1 0 0 0 0 1 1 1

Total # of neighbors = 597625
Ave neighs/atom = 30.4104
Neighbor list builds = 495
Dangerous builds not checked
Setting up Verlet run ...
  Unit style    : metal
  Current step  : 373830
  Time step     : 0.001
Per MPI rank memory allocation (min/avg/max) = 5.58 | 5.868 | 6.013 Mbytes
Step Temp Press TotEng PotEng Enthalpy 
  373830    2157.4792    342.70675   -75217.789   -80697.983   -75042.424 
  400002    2135.7627    340.10985   -75292.852   -80717.884   -75118.961 
  440002    2150.0846   -83.515298   -75233.926   -80695.337   -75276.737 
Loop time of 1180.08 on 6 procs for 66172 steps with 19652 atoms

Performance: 4.845 ns/day, 4.954 hours/ns, 56.074 timesteps/s
99.6% CPU use with 6 MPI tasks x no OpenMP threads

MPI task timing breakdown:
Section |  min time  |  avg time  |  max time  |%varavg| %total
---------------------------------------------------------------
Pair    | 589.86     | 597.38     | 603.04     |  21.1 | 50.62
Neigh   | 408.68     | 419.26     | 432.12     |  43.8 | 35.53
Comm    | 118.51     | 137.26     | 152.04     |  91.2 | 11.63
Output  | 0.016306   | 0.016333   | 0.016445   |   0.0 |  0.00
Modify  | 21         | 21.315     | 21.588     |   5.3 |  1.81
Other   |            | 4.851      |            |       |  0.41

Nlocal:    3275.33 ave 3303 max 3257 min
Histogram: 1 1 0 2 0 1 0 0 0 1
Nghost:    4873.17 ave 4893 max 4846 min
Histogram: 2 0 0 0 0 0 1 1 0 2
Neighs:    99467.2 ave 101640 max 97869 min
Histogram: 1 1 0 0 2 1 0 0 0 1

Total # of neighbors = 596803
Ave neighs/atom = 30.3686
Neighbor list builds = 66172
Dangerous builds not checked
Setting up Verlet run ...
  Unit style    : metal
  Current step  : 440002
  Time step     : 0.001
Per MPI rank memory allocation (min/avg/max) = 5.58 | 5.868 | 6.013 Mbytes
Step Temp Press TotEng PotEng Enthalpy 
  440002    2150.0846   -83.515298   -75233.926   -80695.337   -75276.737 
  440497    2107.8871    39.705051   -75443.203   -80797.428   -75422.908 
Loop time of 8.46099 on 6 procs for 495 steps with 19652 atoms

Performance: 5.055 ns/day, 4.748 hours/ns, 58.504 timesteps/s
99.9% CPU use with 6 MPI tasks x no OpenMP threads

MPI task timing breakdown:
Section |  min time  |  avg time  |  max time  |%varavg| %total
---------------------------------------------------------------
Pair    | 4.2632     | 4.2919     | 4.3331     |   1.3 | 50.73
Neigh   | 2.9156     | 3.1434     | 3.5029     |  11.8 | 37.15
Comm    | 0.47118    | 0.83772    | 1.1011     |  25.3 |  9.90
Output  | 5.6028e-05 | 7.1168e-05 | 0.00012612 |   0.0 |  0.00
Modify  | 0.14516    | 0.15171    | 0.16333    |   1.6 |  1.79
Other   |            | 0.03617    |            |       |  0.43

Nlocal:    3275.33 ave 3309 max 3247 min
Histogram: 1 0 0 2 1 1 0 0 0 1
Nghost:    4880.5 ave 4910 max 4848 min
Histogram: 1 0 1 1 0 1 0 0 0 2
Neighs:    99754 ave 101272 max 98491 min
Histogram: 1 2 0 0 0 1 0 0 1 1

Total # of neighbors = 598524
Ave neighs/atom = 30.4561
Neighbor list builds = 495
Dangerous builds not checked
Setting up Verlet run ...
  Unit style    : metal
  Current step  : 440497
  Time step     : 0.001
Per MPI rank memory allocation (min/avg/max) = 5.58 | 5.868 | 6.013 Mbytes
Step Temp Press TotEng PotEng Enthalpy 
  440497    2107.8871    39.705051   -75443.203   -80797.428   -75422.908 
  466669    2091.3899   -172.98393   -75475.224   -80787.545   -75563.692 
  506669    2107.0512    7.9391701   -75451.639   -80803.741   -75447.579 
Loop time of 1199.69 on 6 procs for 66172 steps with 19652 atoms

Performance: 4.766 ns/day, 5.036 hours/ns, 55.158 timesteps/s
99.4% CPU use with 6 MPI tasks x no OpenMP threads

MPI task timing breakdown:
Section |  min time  |  avg time  |  max time  |%varavg| %total
---------------------------------------------------------------
Pair    | 603.63     | 609.35     | 616.35     |  16.6 | 50.79
Neigh   | 446.84     | 451.44     | 453.99     |  13.2 | 37.63
Comm    | 100.68     | 110.09     | 118.81     |  58.7 |  9.18
Output  | 0.016201   | 0.016242   | 0.01632    |   0.0 |  0.00
Modify  | 23.318     | 23.666     | 23.853     |   5.0 |  1.97
Other   |            | 5.126      |            |       |  0.43

Nlocal:    3275.33 ave 3282 max 3262 min
Histogram: 1 0 0 0 0 0 1 1 2 1
Nghost:    4881.17 ave 4901 max 4841 min
Histogram: 1 0 0 0 0 1 1 0 1 2
Neighs:    99746.5 ave 100968 max 98568 min
Histogram: 1 0 2 0 0 1 0 0 1 1

Total # of neighbors = 598479
Ave neighs/atom = 30.4538
Neighbor list builds = 66172
Dangerous builds not checked
Setting up Verlet run ...
  Unit style    : metal
  Current step  : 506669
  Time step     : 0.001
Per MPI rank memory allocation (min/avg/max) = 5.58 | 5.868 | 6.013 Mbytes
Step Temp Press TotEng PotEng Enthalpy 
  506669    2107.0512    7.9391701   -75451.639   -80803.741   -75447.579 
  507164    2058.1016    120.49014   -75681.577   -80909.343   -75620.161 
Loop time of 8.99994 on 6 procs for 495 steps with 19652 atoms

Performance: 4.752 ns/day, 5.050 hours/ns, 55.000 timesteps/s
99.4% CPU use with 6 MPI tasks x no OpenMP threads

MPI task timing breakdown:
Section |  min time  |  avg time  |  max time  |%varavg| %total
---------------------------------------------------------------
Pair    | 4.3336     | 4.5188     | 4.6866     |   5.7 | 50.21
Neigh   | 3.1031     | 3.3556     | 3.5747     |  11.0 | 37.28
Comm    | 0.52603    | 0.91836    | 1.31       |  30.9 | 10.20
Output  | 5.6028e-05 | 6.7115e-05 | 0.0001049  |   0.0 |  0.00
Modify  | 0.1611     | 0.16661    | 0.17169    |   0.9 |  1.85
Other   |            | 0.04049    |            |       |  0.45

Nlocal:    3275.33 ave 3287 max 3268 min
Histogram: 2 1 0 1 0 0 0 1 0 1
Nghost:    4883.83 ave 4902 max 4843 min
Histogram: 1 0 0 0 0 1 1 0 0 3
Neighs:    99972.8 ave 100335 max 99428 min
Histogram: 1 0 0 1 0 0 0 3 0 1

Total # of neighbors = 599837
Ave neighs/atom = 30.5229
Neighbor list builds = 495
Dangerous builds not checked
Setting up Verlet run ...
  Unit style    : metal
  Current step  : 507164
  Time step     : 0.001
Per MPI rank memory allocation (min/avg/max) = 5.58 | 5.868 | 6.013 Mbytes
Step Temp Press TotEng PotEng Enthalpy 
  507164    2058.1016    120.49014   -75681.577   -80909.343   -75620.161 
  533336    2044.1222   -531.03077   -75741.139   -80933.395   -76012.536 
  573336    2042.5523    42.743363   -75776.313   -80964.582    -75754.53 
Loop time of 1809.79 on 6 procs for 66172 steps with 19652 atoms

Performance: 3.159 ns/day, 7.597 hours/ns, 36.563 timesteps/s
92.2% CPU use with 6 MPI tasks x no OpenMP threads

MPI task timing breakdown:
Section |  min time  |  avg time  |  max time  |%varavg| %total
---------------------------------------------------------------
Pair    | 899.72     | 904.34     | 909.92     |  11.0 | 49.97
Neigh   | 521.75     | 524.82     | 530.47     |  13.2 | 29.00
Comm    | 263.99     | 272.97     | 278.04     |  28.2 | 15.08
Output  | 0.23514    | 0.44352    | 1.4385     |  66.8 |  0.02
Modify  | 98.525     | 100.35     | 103        |  15.1 |  5.54
Other   |            | 6.863      |            |       |  0.38

Nlocal:    3275.33 ave 3297 max 3250 min
Histogram: 1 0 0 0 0 3 1 0 0 1
Nghost:    4889.83 ave 4925 max 4846 min
Histogram: 1 0 1 0 0 0 1 2 0 1
Neighs:    100018 ave 100953 max 98689 min
Histogram: 1 0 0 0 1 0 1 2 0 1

Total # of neighbors = 600107
Ave neighs/atom = 30.5367
Neighbor list builds = 66172
Dangerous builds not checked
Setting up Verlet run ...
  Unit style    : metal
  Current step  : 573336
  Time step     : 0.001
Per MPI rank memory allocation (min/avg/max) = 5.58 | 5.868 | 6.013 Mbytes
Step Temp Press TotEng PotEng Enthalpy 
  573336    2042.5523    42.743363   -75776.313   -80964.582    -75754.53 
  573831    2002.5153    657.35255   -75940.597   -81027.168   -75606.766 
Loop time of 10.4402 on 6 procs for 495 steps with 19652 atoms

Performance: 4.096 ns/day, 5.859 hours/ns, 47.413 timesteps/s
96.6% CPU use with 6 MPI tasks x no OpenMP threads

MPI task timing breakdown:
Section |  min time  |  avg time  |  max time  |%varavg| %total
---------------------------------------------------------------
Pair    | 5.2653     | 5.3604     | 5.5388     |   3.8 | 51.34
Neigh   | 3.7734     | 3.8353     | 4.0105     |   4.2 | 36.74
Comm    | 0.77885    | 0.92736    | 1.0961     |  10.7 |  8.88
Output  | 5.1975e-05 | 6.8982e-05 | 0.00014091 |   0.0 |  0.00
Modify  | 0.24042    | 0.26986    | 0.2934     |   3.3 |  2.58
Other   |            | 0.04716    |            |       |  0.45

Nlocal:    3275.33 ave 3286 max 3258 min
Histogram: 1 0 0 0 0 1 2 0 1 1
Nghost:    4879.83 ave 4909 max 4850 min
Histogram: 2 0 0 0 0 2 0 0 1 1
Neighs:    100304 ave 100718 max 99765 min
Histogram: 1 0 0 1 1 0 0 1 1 1

Total # of neighbors = 601823
Ave neighs/atom = 30.624
Neighbor list builds = 495
Dangerous builds not checked
Setting up Verlet run ...
  Unit style    : metal
  Current step  : 573831
  Time step     : 0.001
Per MPI rank memory allocation (min/avg/max) = 5.58 | 5.868 | 6.013 Mbytes
Step Temp Press TotEng PotEng Enthalpy 
  573831    2002.5153    657.35255   -75940.597   -81027.168   -75606.766 
  600003     1986.228    279.35755   -76047.487   -81092.687   -75905.609 
  640003    2009.8802    741.74773   -75990.446   -81095.725   -75614.199 
Loop time of 1616.79 on 6 procs for 66172 steps with 19652 atoms

Performance: 3.536 ns/day, 6.787 hours/ns, 40.928 timesteps/s
94.9% CPU use with 6 MPI tasks x no OpenMP threads

MPI task timing breakdown:
Section |  min time  |  avg time  |  max time  |%varavg| %total
---------------------------------------------------------------
Pair    | 814.33     | 817.57     | 822.41     |   8.7 | 50.57
Neigh   | 526.04     | 528.47     | 531.74     |   8.1 | 32.69
Comm    | 191.03     | 193.84     | 197.5      |  16.5 | 11.99
Output  | 0.039161   | 0.039197   | 0.039307   |   0.0 |  0.00
Modify  | 69.417     | 70.89      | 72.424     |  12.2 |  4.38
Other   |            | 5.978      |            |       |  0.37

Nlocal:    3275.33 ave 3296 max 3255 min
Histogram: 1 0 0 2 0 1 0 1 0 1
Nghost:    4902.67 ave 4934 max 4875 min
Histogram: 1 0 1 1 0 1 0 1 0 1
Neighs:    100442 ave 101811 max 99318 min
Histogram: 1 1 0 1 1 0 0 1 0 1

Total # of neighbors = 602654
Ave neighs/atom = 30.6663
Neighbor list builds = 66172
Dangerous builds not checked
Setting up Verlet run ...
  Unit style    : metal
  Current step  : 640003
  Time step     : 0.001
Per MPI rank memory allocation (min/avg/max) = 5.58 | 5.868 | 6.013 Mbytes
Step Temp Press TotEng PotEng Enthalpy 
  640003    2009.8802    741.74773   -75990.446   -81095.725   -75614.199 
  640498    1961.7426    418.12379   -76133.082   -81116.086   -75920.905 
Loop time of 8.99876 on 6 procs for 495 steps with 19652 atoms

Performance: 4.753 ns/day, 5.050 hours/ns, 55.008 timesteps/s
99.9% CPU use with 6 MPI tasks x no OpenMP threads

MPI task timing breakdown:
Section |  min time  |  avg time  |  max time  |%varavg| %total
---------------------------------------------------------------
Pair    | 4.4961     | 4.524      | 4.5492     |   0.9 | 50.27
Neigh   | 3.4719     | 3.586      | 3.7385     |   5.4 | 39.85
Comm    | 0.50872    | 0.67968    | 0.82147    |  14.5 |  7.55
Output  | 6.5088e-05 | 8.436e-05  | 0.0001421  |   0.0 |  0.00
Modify  | 0.16308    | 0.16586    | 0.16947    |   0.6 |  1.84
Other   |            | 0.04306    |            |       |  0.48

Nlocal:    3275.33 ave 3316 max 3250 min
Histogram: 2 0 0 2 0 1 0 0 0 1
Nghost:    4897.17 ave 4946 max 4867 min
Histogram: 1 0 2 1 0 1 0 0 0 1
Neighs:    100499 ave 102568 max 99028 min
Histogram: 1 0 2 1 0 0 1 0 0 1

Total # of neighbors = 602996
Ave neighs/atom = 30.6837
Neighbor list builds = 495
Dangerous builds not checked
Setting up Verlet run ...
  Unit style    : metal
  Current step  : 640498
  Time step     : 0.001
Per MPI rank memory allocation (min/avg/max) = 5.58 | 5.868 | 6.013 Mbytes
Step Temp Press TotEng PotEng Enthalpy 
  640498    1961.7426    418.12379   -76133.082   -81116.086   -75920.905 
  666670     1940.208    417.35715   -76247.472   -81175.777   -76036.029 
  706670    1958.0861    129.84768   -76144.138   -81117.855    -76078.22 
Loop time of 1285.22 on 6 procs for 66172 steps with 19652 atoms

Performance: 4.448 ns/day, 5.395 hours/ns, 51.487 timesteps/s
99.5% CPU use with 6 MPI tasks x no OpenMP threads

MPI task timing breakdown:
Section |  min time  |  avg time  |  max time  |%varavg| %total
---------------------------------------------------------------
Pair    | 648.25     | 650.89     | 654.25     |   8.3 | 50.64
Neigh   | 492.21     | 494.07     | 495.15     |   4.6 | 38.44
Comm    | 105.45     | 110.59     | 114.32     |  26.7 |  8.60
Output  | 0.01758    | 0.017604   | 0.017714   |   0.0 |  0.00
Modify  | 23.178     | 23.843     | 24.547     |  11.1 |  1.86
Other   |            | 5.796      |            |       |  0.45

Nlocal:    3275.33 ave 3289 max 3268 min
Histogram: 1 1 1 2 0 0 0 0 0 1
Nghost:    4880.67 ave 4912 max 4863 min
Histogram: 2 2 0 0 0 0 0 0 1 1
Neighs:    100422 ave 100973 max 100245 min
Histogram: 3 2 0 0 0 0 0 0 0 1

Total # of neighbors = 602533
Ave neighs/atom = 30.6601
Neighbor list builds = 66172
Dangerous builds not checked
Setting up Verlet run ...
  Unit style    : metal
  Current step  : 706670
  Time step     : 0.001
Per MPI rank memory allocation (min/avg/max) = 5.581 | 5.869 | 6.013 Mbytes
Step Temp Press TotEng PotEng Enthalpy 
  706670    1958.0861    129.84768   -76144.138   -81117.855    -76078.22 
  707165    1909.8073    145.06137   -76397.642   -81248.727   -76324.187 
Loop time of 9.328 on 6 procs for 495 steps with 19652 atoms

Performance: 4.585 ns/day, 5.235 hours/ns, 53.066 timesteps/s
99.9% CPU use with 6 MPI tasks x no OpenMP threads

MPI task timing breakdown:
Section |  min time  |  avg time  |  max time  |%varavg| %total
---------------------------------------------------------------
Pair    | 4.557      | 4.637      | 4.8229     |   4.1 | 49.71
Neigh   | 2.7122     | 3.1193     | 3.7276     |  21.3 | 33.44
Comm    | 0.5466     | 1.3671     | 1.813      |  39.6 | 14.66
Output  | 7.0095e-05 | 8.5632e-05 | 0.00014186 |   0.0 |  0.00
Modify  | 0.15094    | 0.16415    | 0.1808     |   2.7 |  1.76
Other   |            | 0.04032    |            |       |  0.43

Nlocal:    3275.33 ave 3298 max 3257 min
Histogram: 2 0 1 0 0 1 0 0 1 1
Nghost:    4885 ave 4921 max 4831 min
Histogram: 1 0 0 0 1 0 2 0 1 1
Neighs:    100674 ave 101638 max 99854 min
Histogram: 1 1 0 1 0 1 0 1 0 1

Total # of neighbors = 604043
Ave neighs/atom = 30.737
Neighbor list builds = 495
Dangerous builds not checked
Setting up Verlet run ...
  Unit style    : metal
  Current step  : 707165
  Time step     : 0.001
Per MPI rank memory allocation (min/avg/max) = 5.581 | 5.869 | 6.013 Mbytes
Step Temp Press TotEng PotEng Enthalpy 
  707165    1909.8073    145.06137   -76397.642   -81248.727   -76324.187 
  733337    1898.2453    132.71462   -76460.706   -81282.422   -76393.545 
  773337    1906.6559    611.44992    -76461.59    -81304.67   -76152.629 
Loop time of 1271.12 on 6 procs for 66172 steps with 19652 atoms

Performance: 4.498 ns/day, 5.336 hours/ns, 52.058 timesteps/s
99.5% CPU use with 6 MPI tasks x no OpenMP threads

MPI task timing breakdown:
Section |  min time  |  avg time  |  max time  |%varavg| %total
---------------------------------------------------------------
Pair    | 638.79     | 642.73     | 648.35     |  13.8 | 50.56
Neigh   | 458.21     | 460.77     | 462.92     |   8.3 | 36.25
Comm    | 134.3      | 139.82     | 145.83     |  34.6 | 11.00
Output  | 0.016877   | 0.046759   | 0.19615    |  30.9 |  0.00
Modify  | 21.668     | 22.213     | 22.577     |   8.0 |  1.75
Other   |            | 5.547      |            |       |  0.44

Nlocal:    3275.33 ave 3291 max 3255 min
Histogram: 1 1 0 0 0 0 1 1 1 1
Nghost:    4893.33 ave 4906 max 4865 min
Histogram: 1 0 0 0 1 0 0 1 0 3
Neighs:    100853 ave 101623 max 99616 min
Histogram: 1 0 1 0 0 1 0 0 1 2

Total # of neighbors = 605117
Ave neighs/atom = 30.7916
Neighbor list builds = 66172
Dangerous builds not checked
Setting up Verlet run ...
  Unit style    : metal
  Current step  : 773337
  Time step     : 0.001
Per MPI rank memory allocation (min/avg/max) = 5.581 | 5.869 | 6.013 Mbytes
Step Temp Press TotEng PotEng Enthalpy 
  773337    1906.6559    611.44992    -76461.59    -81304.67   -76152.629 
  773832    1853.0421    356.77242     -76643.4   -81350.296   -76463.121 
Loop time of 8.80853 on 6 procs for 495 steps with 19652 atoms

Performance: 4.855 ns/day, 4.943 hours/ns, 56.196 timesteps/s
99.8% CPU use with 6 MPI tasks x no OpenMP threads

MPI task timing breakdown:
Section |  min time  |  avg time  |  max time  |%varavg| %total
---------------------------------------------------------------
Pair    | 4.3493     | 4.3868     | 4.4364     |   1.6 | 49.80
Neigh   | 3.2502     | 3.3466     | 3.5187     |   4.6 | 37.99
Comm    | 0.64839    | 0.87424    | 0.99857    |  11.6 |  9.92
Output  | 5.2929e-05 | 6.485e-05  | 9.8944e-05 |   0.0 |  0.00
Modify  | 0.1542     | 0.16178    | 0.16421    |   0.9 |  1.84
Other   |            | 0.03902    |            |       |  0.44

Nlocal:    3275.33 ave 3287 max 3255 min
Histogram: 1 0 0 0 0 1 1 1 1 1
Nghost:    4900 ave 4950 max 4870 min
Histogram: 1 1 2 0 0 1 0 0 0 1
Neighs:    100818 ave 101508 max 100240 min
Histogram: 2 0 0 0 1 1 1 0 0 1

Total # of neighbors = 604908
Ave neighs/atom = 30.781
Neighbor list builds = 495
Dangerous builds not checked
Setting up Verlet run ...
  Unit style    : metal
  Current step  : 773832
  Time step     : 0.001
Per MPI rank memory allocation (min/avg/max) = 5.581 | 5.869 | 6.013 Mbytes
Step Temp Press TotEng PotEng Enthalpy 
  773832    1853.0421    356.77242     -76643.4   -81350.296   -76463.121 
  800004    1823.7612   -867.97289   -76776.341    -81408.86   -77216.054 
  840004    1838.6175    -9.543562   -76737.972   -81408.228   -76742.793 
Loop time of 1261.42 on 6 procs for 66172 steps with 19652 atoms

Performance: 4.532 ns/day, 5.295 hours/ns, 52.458 timesteps/s
99.4% CPU use with 6 MPI tasks x no OpenMP threads

MPI task timing breakdown:
Section |  min time  |  avg time  |  max time  |%varavg| %total
---------------------------------------------------------------
Pair    | 638.02     | 641.61     | 646.83     |  11.0 | 50.86
Neigh   | 460.09     | 470.35     | 474.79     |  22.8 | 37.29
Comm    | 115.54     | 120.39     | 131.27     |  48.1 |  9.54
Output  | 0.017273   | 0.017302   | 0.017433   |   0.0 |  0.00
Modify  | 23.269     | 23.537     | 23.846     |   4.6 |  1.87
Other   |            | 5.524      |            |       |  0.44

Nlocal:    3275.33 ave 3297 max 3260 min
Histogram: 1 0 2 0 2 0 0 0 0 1
Nghost:    4896.17 ave 4921 max 4885 min
Histogram: 2 1 1 0 1 0 0 0 0 1
Neighs:    100893 ave 101464 max 100032 min
Histogram: 1 0 0 1 0 1 0 0 2 1

Total # of neighbors = 605356
Ave neighs/atom = 30.8038
Neighbor list builds = 66172
Dangerous builds not checked
Setting up Verlet run ...
  Unit style    : metal
  Current step  : 840004
  Time step     : 0.001
Per MPI rank memory allocation (min/avg/max) = 5.581 | 5.869 | 6.013 Mbytes
Step Temp Press TotEng PotEng Enthalpy 
  840004    1838.6175    -9.543562   -76737.972   -81408.228   -76742.793 
  840499    1797.8757    179.39269   -76903.595   -81470.364   -76813.163 
Loop time of 9.15521 on 6 procs for 495 steps with 19652 atoms

Performance: 4.671 ns/day, 5.138 hours/ns, 54.068 timesteps/s
99.9% CPU use with 6 MPI tasks x no OpenMP threads

MPI task timing breakdown:
Section |  min time  |  avg time  |  max time  |%varavg| %total
---------------------------------------------------------------
Pair    | 4.6052     | 4.6173     | 4.6461     |   0.7 | 50.43
Neigh   | 3.2455     | 3.4368     | 3.8307     |  13.0 | 37.54
Comm    | 0.4558     | 0.89353    | 1.0965     |  27.1 |  9.76
Output  | 5.8889e-05 | 7.1963e-05 | 0.00012016 |   0.0 |  0.00
Modify  | 0.15961    | 0.16516    | 0.17629    |   1.6 |  1.80
Other   |            | 0.04233    |            |       |  0.46

Nlocal:    3275.33 ave 3300 max 3255 min
Histogram: 2 0 1 0 0 0 1 0 1 1
Nghost:    4912.83 ave 4944 max 4882 min
Histogram: 1 1 0 0 0 1 2 0 0 1
Neighs:    101016 ave 102549 max 99945 min
Histogram: 2 0 1 0 0 1 1 0 0 1

Total # of neighbors = 606099
Ave neighs/atom = 30.8416
Neighbor list builds = 495
Dangerous builds not checked
Setting up Verlet run ...
  Unit style    : metal
  Current step  : 840499
  Time step     : 0.001
Per MPI rank memory allocation (min/avg/max) = 5.581 | 5.869 | 6.013 Mbytes
Step Temp Press TotEng PotEng Enthalpy 
  840499    1797.8757    179.39269   -76903.595   -81470.364   -76813.163 
  866671    1794.4661    26.583982   -76971.083   -81529.191   -76957.686 
  906671    1796.4354    -185.0858   -76953.156   -81516.266   -77046.501 
Loop time of 1251.18 on 6 procs for 66172 steps with 19652 atoms

Performance: 4.569 ns/day, 5.252 hours/ns, 52.888 timesteps/s
99.8% CPU use with 6 MPI tasks x no OpenMP threads

MPI task timing breakdown:
Section |  min time  |  avg time  |  max time  |%varavg| %total
---------------------------------------------------------------
Pair    | 628.88     | 632.42     | 639.31     |  13.4 | 50.55
Neigh   | 457.26     | 464.65     | 477.22     |  30.2 | 37.14
Comm    | 114.66     | 124.41     | 132.62     |  55.3 |  9.94
Output  | 0.017585   | 0.017612   | 0.017736   |   0.0 |  0.00
Modify  | 23.993     | 24.25      | 24.842     |   5.8 |  1.94
Other   |            | 5.443      |            |       |  0.44

Nlocal:    3275.33 ave 3292 max 3262 min
Histogram: 1 2 0 0 0 0 0 2 0 1
Nghost:    4914.83 ave 4943 max 4877 min
Histogram: 1 0 0 0 1 1 1 0 1 1
Neighs:    101032 ave 101934 max 100267 min
Histogram: 2 0 0 0 1 1 0 1 0 1

Total # of neighbors = 606192
Ave neighs/atom = 30.8463
Neighbor list builds = 66172
Dangerous builds not checked
Setting up Verlet run ...
  Unit style    : metal
  Current step  : 906671
  Time step     : 0.001
Per MPI rank memory allocation (min/avg/max) = 5.581 | 5.869 | 6.013 Mbytes
Step Temp Press TotEng PotEng Enthalpy 
  906671    1796.4354    -185.0858   -76953.156   -81516.266   -77046.501 
  907166    1755.6219   -193.78691   -77159.281   -81618.721    -77256.85 
Loop time of 8.97236 on 6 procs for 495 steps with 19652 atoms

Performance: 4.767 ns/day, 5.035 hours/ns, 55.169 timesteps/s
99.5% CPU use with 6 MPI tasks x no OpenMP threads

MPI task timing breakdown:
Section |  min time  |  avg time  |  max time  |%varavg| %total
---------------------------------------------------------------
Pair    | 4.332      | 4.3631     | 4.4108     |   1.4 | 48.63
Neigh   | 3.1368     | 3.366      | 3.6322     |  10.1 | 37.52
Comm    | 0.58122    | 0.82878    | 1.0555     |  18.5 |  9.24
Output  | 5.4121e-05 | 7.8162e-05 | 0.00015211 |   0.0 |  0.00
Modify  | 0.36753    | 0.37352    | 0.38164    |   0.9 |  4.16
Other   |            | 0.04088    |            |       |  0.46

Nlocal:    3275.33 ave 3287 max 3269 min
Histogram: 2 0 1 1 0 1 0 0 0 1
Nghost:    4908 ave 4919 max 4899 min
Histogram: 1 1 1 0 0 1 0 1 0 1
Neighs:    101259 ave 101741 max 100896 min
Histogram: 1 1 1 0 0 2 0 0 0 1

Total # of neighbors = 607555
Ave neighs/atom = 30.9157
Neighbor list builds = 495
Dangerous builds not checked
Setting up Verlet run ...
  Unit style    : metal
  Current step  : 907166
  Time step     : 0.001
Per MPI rank memory allocation (min/avg/max) = 5.581 | 5.869 | 6.013 Mbytes
Step Temp Press TotEng PotEng Enthalpy 
  907166    1755.6219   -193.78691   -77159.281   -81618.721    -77256.85 
  933338    1757.1324   -125.49351   -77128.902   -81592.178   -77192.065 
  973338    1744.4303   -673.74545   -77156.618    -81587.63   -77496.368 
Loop time of 1273.82 on 6 procs for 66172 steps with 19652 atoms

Performance: 4.488 ns/day, 5.347 hours/ns, 51.948 timesteps/s
99.6% CPU use with 6 MPI tasks x no OpenMP threads

MPI task timing breakdown:
Section |  min time  |  avg time  |  max time  |%varavg| %total
---------------------------------------------------------------
Pair    | 643.88     | 646.87     | 650.77     |   9.5 | 50.78
Neigh   | 465.84     | 469.05     | 472.46     |  10.3 | 36.82
Comm    | 121.28     | 128.96     | 133.63     |  33.2 | 10.12
Output  | 0.022538   | 0.022565   | 0.022669   |   0.0 |  0.00
Modify  | 22.865     | 23.269     | 23.608     |   5.7 |  1.83
Other   |            | 5.645      |            |       |  0.44

Nlocal:    3275.33 ave 3316 max 3251 min
Histogram: 2 0 0 2 0 1 0 0 0 1
Nghost:    4915 ave 4941 max 4895 min
Histogram: 1 2 0 0 0 0 2 0 0 1
Neighs:    101058 ave 102604 max 99765 min
Histogram: 1 1 1 0 0 1 0 1 0 1

Total # of neighbors = 606347
Ave neighs/atom = 30.8542
Neighbor list builds = 66172
Dangerous builds not checked
Setting up Verlet run ...
  Unit style    : metal
  Current step  : 973338
  Time step     : 0.001
Per MPI rank memory allocation (min/avg/max) = 5.581 | 5.869 | 6.013 Mbytes
Step Temp Press TotEng PotEng Enthalpy 
  973338    1744.4303   -673.74545   -77156.618    -81587.63   -77496.368 
  973833     1708.034   -385.44503   -77359.394   -81697.956   -77553.243 
Loop time of 9.61876 on 6 procs for 495 steps with 19652 atoms

Performance: 4.446 ns/day, 5.398 hours/ns, 51.462 timesteps/s
96.4% CPU use with 6 MPI tasks x no OpenMP threads

MPI task timing breakdown:
Section |  min time  |  avg time  |  max time  |%varavg| %total
---------------------------------------------------------------
Pair    | 4.9637     | 5.074      | 5.1825     |   3.9 | 52.75
Neigh   | 3.2199     | 3.354      | 3.6055     |   7.8 | 34.87
Comm    | 0.72818    | 0.98299    | 1.1507     |  15.4 | 10.22
Output  | 7.3195e-05 | 0.00011794 | 0.00033593 |   0.0 |  0.00
Modify  | 0.16098    | 0.16487    | 0.17148    |   1.1 |  1.71
Other   |            | 0.04282    |            |       |  0.45

Nlocal:    3275.33 ave 3297 max 3257 min
Histogram: 1 0 1 1 0 1 1 0 0 1
Nghost:    4917.17 ave 4931 max 4894 min
Histogram: 1 0 0 0 0 1 2 0 0 2
Neighs:    101375 ave 102570 max 100187 min
Histogram: 1 0 0 2 0 0 1 1 0 1

Total # of neighbors = 608250
Ave neighs/atom = 30.951
Neighbor list builds = 495
Dangerous builds not checked
Setting up Verlet run ...
  Unit style    : metal
  Current step  : 973833
  Time step     : 0.001
Per MPI rank memory allocation (min/avg/max) = 5.581 | 5.869 | 6.013 Mbytes
Step Temp Press TotEng PotEng Enthalpy 
  973833     1708.034   -385.44503   -77359.394   -81697.956   -77553.243 
 1000005    1686.8145    -282.3517   -77459.918    -81744.58   -77601.778 
 1040005    1694.3528   -337.26314   -77439.428   -81743.238   -77608.853 
Loop time of 1258.19 on 6 procs for 66172 steps with 19652 atoms

Performance: 4.544 ns/day, 5.282 hours/ns, 52.593 timesteps/s
99.8% CPU use with 6 MPI tasks x no OpenMP threads

MPI task timing breakdown:
Section |  min time  |  avg time  |  max time  |%varavg| %total
---------------------------------------------------------------
Pair    | 633.96     | 636.26     | 641.05     |   9.2 | 50.57
Neigh   | 457.5      | 462.82     | 468        |  15.0 | 36.78
Comm    | 127.01     | 130.85     | 132.27     |  15.5 | 10.40
Output  | 0.018087   | 0.018115   | 0.01824    |   0.0 |  0.00
Modify  | 22.393     | 22.701     | 23.109     |   5.8 |  1.80
Other   |            | 5.541      |            |       |  0.44

Nlocal:    3275.33 ave 3301 max 3255 min
Histogram: 1 0 1 1 1 1 0 0 0 1
Nghost:    4935.83 ave 4950 max 4917 min
Histogram: 1 1 0 0 0 0 2 0 0 2
Neighs:    101458 ave 102737 max 100412 min
Histogram: 1 0 2 0 0 1 1 0 0 1

Total # of neighbors = 608745
Ave neighs/atom = 30.9762
Neighbor list builds = 66172
Dangerous builds not checked
Setting up Verlet run ...
  Unit style    : metal
  Current step  : 1040005
  Time step     : 0.001
Per MPI rank memory allocation (min/avg/max) = 5.581 | 5.869 | 6.013 Mbytes
Step Temp Press TotEng PotEng Enthalpy 
 1040005    1694.3528   -337.26314   -77439.428   -81743.238   -77608.853 
 1040500    1660.5331   -14.647436   -77641.798   -81859.704   -77649.133 
Loop time of 9.10617 on 6 procs for 495 steps with 19652 atoms

Performance: 4.697 ns/day, 5.110 hours/ns, 54.359 timesteps/s
99.9% CPU use with 6 MPI tasks x no OpenMP threads

MPI task timing breakdown:
Section |  min time  |  avg time  |  max time  |%varavg| %total
---------------------------------------------------------------
Pair    | 4.526      | 4.5782     | 4.6122     |   1.3 | 50.28
Neigh   | 3.2472     | 3.4004     | 3.5601     |   6.4 | 37.34
Comm    | 0.80773    | 0.9228     | 1.0841     |  11.6 | 10.13
Output  | 6.7949e-05 | 8.44e-05   | 0.00015402 |   0.0 |  0.00
Modify  | 0.1582     | 0.16283    | 0.16761    |   0.8 |  1.79
Other   |            | 0.04188    |            |       |  0.46

Nlocal:    3275.33 ave 3282 max 3259 min
Histogram: 1 0 0 0 0 0 0 2 1 2
Nghost:    4926.67 ave 4944 max 4908 min
Histogram: 1 0 1 1 0 0 1 0 0 2
Neighs:    101776 ave 102548 max 101032 min
Histogram: 2 0 0 0 1 0 1 1 0 1

Total # of neighbors = 610654
Ave neighs/atom = 31.0734
Neighbor list builds = 495
Dangerous builds not checked
Setting up Verlet run ...
  Unit style    : metal
  Current step  : 1040500
  Time step     : 0.001
Per MPI rank memory allocation (min/avg/max) = 5.581 | 5.869 | 6.013 Mbytes
Step Temp Press TotEng PotEng Enthalpy 
 1040500    1660.5331   -14.647436   -77641.798   -81859.704   -77649.133 
 1066672     1647.213   -503.49182   -77653.061   -81837.132   -77905.842 
 1106672    1671.2387    394.20392     -77597.9   -81842.998   -77400.672 
Loop time of 1272.65 on 6 procs for 66172 steps with 19652 atoms

Performance: 4.492 ns/day, 5.342 hours/ns, 51.996 timesteps/s
99.6% CPU use with 6 MPI tasks x no OpenMP threads

MPI task timing breakdown:
Section |  min time  |  avg time  |  max time  |%varavg| %total
---------------------------------------------------------------
Pair    | 646.42     | 648.99     | 655.39     |  11.9 | 51.00
Neigh   | 464.38     | 470.04     | 474.17     |  18.4 | 36.93
Comm    | 122.64     | 125.64     | 130.74     |  22.7 |  9.87
Output  | 0.014765   | 0.014795   | 0.0149     |   0.0 |  0.00
Modify  | 22.123     | 22.265     | 22.447     |   2.2 |  1.75
Other   |            | 5.692      |            |       |  0.45

Nlocal:    3275.33 ave 3304 max 3258 min
Histogram: 1 1 0 3 0 0 0 0 0 1
Nghost:    4910.33 ave 4924 max 4893 min
Histogram: 1 0 1 0 0 0 2 0 1 1
Neighs:    101820 ave 102610 max 100777 min
Histogram: 1 0 0 1 0 2 0 0 0 2

Total # of neighbors = 610917
Ave neighs/atom = 31.0868
Neighbor list builds = 66172
Dangerous builds not checked
Setting up Verlet run ...
  Unit style    : metal
  Current step  : 1106672
  Time step     : 0.001
Per MPI rank memory allocation (min/avg/max) = 5.581 | 5.869 | 6.013 Mbytes
Step Temp Press TotEng PotEng Enthalpy 
 1106672    1671.2387    394.20392     -77597.9   -81842.998   -77400.672 
 1107167    1615.2879    314.70548   -77838.996   -81941.975   -77681.825 
Loop time of 13.4957 on 6 procs for 495 steps with 19652 atoms

Performance: 3.169 ns/day, 7.573 hours/ns, 36.678 timesteps/s
93.0% CPU use with 6 MPI tasks x no OpenMP threads

MPI task timing breakdown:
Section |  min time  |  avg time  |  max time  |%varavg| %total
---------------------------------------------------------------
Pair    | 4.4313     | 4.4667     | 4.5179     |   1.3 | 33.10
Neigh   | 3.2576     | 3.3962     | 3.4972     |   4.7 | 25.16
Comm    | 5.109      | 5.2139     | 5.3238     |   3.4 | 38.63
Output  | 5.6982e-05 | 7.7526e-05 | 0.00014591 |   0.0 |  0.00
Modify  | 0.36866    | 0.37306    | 0.37567    |   0.4 |  2.76
Other   |            | 0.04578    |            |       |  0.34

Nlocal:    3275.33 ave 3282 max 3264 min
Histogram: 1 0 0 0 0 1 2 0 0 2
Nghost:    4924.17 ave 4966 max 4888 min
Histogram: 1 0 0 2 0 2 0 0 0 1
Neighs:    102000 ave 102304 max 101623 min
Histogram: 1 0 0 1 1 1 0 0 0 2

Total # of neighbors = 612003
Ave neighs/atom = 31.142
Neighbor list builds = 495
Dangerous builds not checked
Setting up Verlet run ...
  Unit style    : metal
  Current step  : 1107167
  Time step     : 0.001
Per MPI rank memory allocation (min/avg/max) = 5.581 | 5.869 | 6.013 Mbytes
Step Temp Press TotEng PotEng Enthalpy 
 1107167    1615.2879    314.70548   -77838.996   -81941.975   -77681.825 
 1133339    1604.6258     148.2068   -77938.107   -82014.003    -77864.12 
 1173339    1593.1598     222.1734   -77930.382   -81977.153    -77819.45 
Loop time of 1264.82 on 6 procs for 66172 steps with 19652 atoms

Performance: 4.520 ns/day, 5.309 hours/ns, 52.317 timesteps/s
99.4% CPU use with 6 MPI tasks x no OpenMP threads

MPI task timing breakdown:
Section |  min time  |  avg time  |  max time  |%varavg| %total
---------------------------------------------------------------
Pair    | 638.81     | 640.9      | 645        |   8.5 | 50.67
Neigh   | 457.74     | 463        | 465.38     |  12.4 | 36.61
Comm    | 126.18     | 131.64     | 136.35     |  30.6 | 10.41
Output  | 0.017345   | 0.0174     | 0.017538   |   0.0 |  0.00
Modify  | 23.307     | 23.59      | 23.773     |   3.3 |  1.87
Other   |            | 5.672      |            |       |  0.45

Nlocal:    3275.33 ave 3290 max 3263 min
Histogram: 1 1 1 0 0 1 0 1 0 1
Nghost:    4932.83 ave 4950 max 4910 min
Histogram: 1 0 0 1 1 0 0 1 0 2
Neighs:    102144 ave 102273 max 102016 min
Histogram: 1 1 0 0 0 1 2 0 0 1

Total # of neighbors = 612867
Ave neighs/atom = 31.186
Neighbor list builds = 66172
Dangerous builds not checked
Setting up Verlet run ...
  Unit style    : metal
  Current step  : 1173339
  Time step     : 0.001
Per MPI rank memory allocation (min/avg/max) = 5.581 | 5.869 | 6.013 Mbytes
Step Temp Press TotEng PotEng Enthalpy 
 1173339    1593.1598     222.1734   -77930.382   -81977.153    -77819.45 
 1173834    1559.4371    201.61466   -78129.646   -82090.758   -78029.159 
Loop time of 9.03417 on 6 procs for 495 steps with 19652 atoms

Performance: 4.734 ns/day, 5.070 hours/ns, 54.792 timesteps/s
99.3% CPU use with 6 MPI tasks x no OpenMP threads

MPI task timing breakdown:
Section |  min time  |  avg time  |  max time  |%varavg| %total
---------------------------------------------------------------
Pair    | 4.5534     | 4.5908     | 4.6326     |   1.4 | 50.82
Neigh   | 3.1457     | 3.3993     | 3.7779     |  11.1 | 37.63
Comm    | 0.46226    | 0.83679    | 1.0936     |  24.0 |  9.26
Output  | 7.1049e-05 | 8.4996e-05 | 0.00013804 |   0.0 |  0.00
Modify  | 0.15731    | 0.16539    | 0.17657    |   1.6 |  1.83
Other   |            | 0.04181    |            |       |  0.46

Nlocal:    3275.33 ave 3293 max 3258 min
Histogram: 1 0 1 2 0 0 0 0 0 2
Nghost:    4927.83 ave 4944 max 4906 min
Histogram: 1 0 1 1 0 0 0 0 1 2
Neighs:    102277 ave 102923 max 101514 min
Histogram: 1 0 1 0 0 1 0 2 0 1

Total # of neighbors = 613661
Ave neighs/atom = 31.2264
Neighbor list builds = 495
Dangerous builds not checked
Setting up Verlet run ...
  Unit style    : metal
  Current step  : 1173834
  Time step     : 0.001
Per MPI rank memory allocation (min/avg/max) = 5.581 | 5.869 | 6.013 Mbytes
Step Temp Press TotEng PotEng Enthalpy 
 1173834    1559.4371    201.61466   -78129.646   -82090.758   -78029.159 
 1200006    1564.3944   -45.114928    -78130.22   -82103.924   -78152.707 
 1240006     1565.211    420.93942    -78151.81   -82127.589   -77942.369 
Loop time of 1231.78 on 6 procs for 66172 steps with 19652 atoms

Performance: 4.641 ns/day, 5.171 hours/ns, 53.721 timesteps/s
99.7% CPU use with 6 MPI tasks x no OpenMP threads

MPI task timing breakdown:
Section |  min time  |  avg time  |  max time  |%varavg| %total
---------------------------------------------------------------
Pair    | 620.13     | 622.42     | 627.27     |   9.5 | 50.53
Neigh   | 454.75     | 459.12     | 465.46     |  15.9 | 37.27
Comm    | 117.19     | 122.53     | 129.16     |  40.1 |  9.95
Output  | 0.016122   | 0.016155   | 0.016285   |   0.0 |  0.00
Modify  | 21.905     | 22.179     | 22.384     |   4.1 |  1.80
Other   |            | 5.508      |            |       |  0.45

Nlocal:    3275.33 ave 3292 max 3261 min
Histogram: 1 1 1 0 0 0 1 1 0 1
Nghost:    4938 ave 4950 max 4918 min
Histogram: 1 0 0 0 1 0 1 0 2 1
Neighs:    102413 ave 102939 max 101872 min
Histogram: 2 0 0 0 1 0 0 2 0 1

Total # of neighbors = 614476
Ave neighs/atom = 31.2679
Neighbor list builds = 66172
Dangerous builds not checked
Setting up Verlet run ...
  Unit style    : metal
  Current step  : 1240006
  Time step     : 0.001
Per MPI rank memory allocation (min/avg/max) = 5.581 | 5.869 | 6.013 Mbytes
Step Temp Press TotEng PotEng Enthalpy 
 1240006     1565.211    420.93942    -78151.81   -82127.589   -77942.369 
 1240501    1507.6749    545.00078   -78371.286   -82200.918   -78100.661 
Loop time of 8.90859 on 6 procs for 495 steps with 19652 atoms

Performance: 4.801 ns/day, 4.999 hours/ns, 55.564 timesteps/s
99.9% CPU use with 6 MPI tasks x no OpenMP threads

MPI task timing breakdown:
Section |  min time  |  avg time  |  max time  |%varavg| %total
---------------------------------------------------------------
Pair    | 4.4261     | 4.4599     | 4.5138     |   1.4 | 50.06
Neigh   | 3.1759     | 3.3519     | 3.7711     |  11.6 | 37.63
Comm    | 0.46507    | 0.89253    | 1.1097     |  24.5 | 10.02
Output  | 6.6996e-05 | 8.3327e-05 | 0.00015497 |   0.0 |  0.00
Modify  | 0.15664    | 0.16233    | 0.17427    |   1.5 |  1.82
Other   |            | 0.04189    |            |       |  0.47

Nlocal:    3275.33 ave 3291 max 3263 min
Histogram: 2 0 1 1 0 0 0 0 0 2
Nghost:    4933.5 ave 4958 max 4907 min
Histogram: 1 0 1 1 0 0 0 1 1 1
Neighs:    102586 ave 103493 max 101813 min
Histogram: 2 0 0 1 0 0 2 0 0 1

Total # of neighbors = 615515
Ave neighs/atom = 31.3207
Neighbor list builds = 495
Dangerous builds not checked
Setting up Verlet run ...
  Unit style    : metal
  Current step  : 1240501
  Time step     : 0.001
Per MPI rank memory allocation (min/avg/max) = 5.581 | 5.869 | 6.013 Mbytes
Step Temp Press TotEng PotEng Enthalpy 
 1240501    1507.6749    545.00078   -78371.286   -82200.918   -78100.661 
 1266673    1495.8894    44.719459   -78447.436   -82247.132   -78425.209 
 1306673    1522.4041      57.6229   -78400.474    -82267.52   -78371.845 
Loop time of 1271.15 on 6 procs for 66172 steps with 19652 atoms

Performance: 4.498 ns/day, 5.336 hours/ns, 52.057 timesteps/s
99.5% CPU use with 6 MPI tasks x no OpenMP threads

MPI task timing breakdown:
Section |  min time  |  avg time  |  max time  |%varavg| %total
---------------------------------------------------------------
Pair    | 642.57     | 646.59     | 651.7      |  10.6 | 50.87
Neigh   | 471.55     | 477.2      | 480.57     |  13.1 | 37.54
Comm    | 108.02     | 117.31     | 121.94     |  44.2 |  9.23
Output  | 0.018513   | 0.018545   | 0.018697   |   0.0 |  0.00
Modify  | 22.879     | 24.218     | 24.978     |  18.5 |  1.91
Other   |            | 5.82       |            |       |  0.46

Nlocal:    3275.33 ave 3306 max 3254 min
Histogram: 1 2 0 0 1 0 1 0 0 1
Nghost:    4939.33 ave 4976 max 4912 min
Histogram: 1 0 1 2 0 0 1 0 0 1
Neighs:    102578 ave 103965 max 101433 min
Histogram: 1 0 1 0 2 1 0 0 0 1

Total # of neighbors = 615469
Ave neighs/atom = 31.3184
Neighbor list builds = 66172
Dangerous builds not checked
Setting up Verlet run ...
  Unit style    : metal
  Current step  : 1306673
  Time step     : 0.001
Per MPI rank memory allocation (min/avg/max) = 5.581 | 5.869 | 6.013 Mbytes
Step Temp Press TotEng PotEng Enthalpy 
 1306673    1522.4041      57.6229   -78400.474    -82267.52   -78371.845 
 1307168    1468.8337    -27.38575   -78595.773   -82326.744   -78609.365 
Loop time of 8.91155 on 6 procs for 495 steps with 19652 atoms

Performance: 4.799 ns/day, 5.001 hours/ns, 55.546 timesteps/s
99.9% CPU use with 6 MPI tasks x no OpenMP threads

MPI task timing breakdown:
Section |  min time  |  avg time  |  max time  |%varavg| %total
---------------------------------------------------------------
Pair    | 4.3681     | 4.4277     | 4.4508     |   1.3 | 49.68
Neigh   | 3.4125     | 3.4959     | 3.5868     |   3.1 | 39.23
Comm    | 0.65197    | 0.7692     | 0.85177    |   7.9 |  8.63
Output  | 7.2956e-05 | 9.7036e-05 | 0.00020599 |   0.0 |  0.00
Modify  | 0.1702     | 0.17343    | 0.17877    |   0.7 |  1.95
Other   |            | 0.0453     |            |       |  0.51

Nlocal:    3275.33 ave 3300 max 3257 min
Histogram: 1 1 1 0 1 0 1 0 0 1
Nghost:    4943.5 ave 4980 max 4927 min
Histogram: 4 0 0 0 0 0 1 0 0 1
Neighs:    102619 ave 103972 max 101325 min
Histogram: 1 0 0 1 1 2 0 0 0 1

Total # of neighbors = 615715
Ave neighs/atom = 31.3309
Neighbor list builds = 495
Dangerous builds not checked
Setting up Verlet run ...
  Unit style    : metal
  Current step  : 1307168
  Time step     : 0.001
Per MPI rank memory allocation (min/avg/max) = 5.581 | 5.869 | 6.013 Mbytes
Step Temp Press TotEng PotEng Enthalpy 
 1307168    1468.8337    -27.38575   -78595.773   -82326.744   -78609.365 
 1333340     1438.496   -267.80716   -78742.725   -82396.636    -78875.61 
 1373340    1447.2835    73.832881   -78729.115   -82405.347   -78692.527 
Loop time of 1250.64 on 6 procs for 66172 steps with 19652 atoms

Performance: 4.571 ns/day, 5.250 hours/ns, 52.911 timesteps/s
99.6% CPU use with 6 MPI tasks x no OpenMP threads

MPI task timing breakdown:
Section |  min time  |  avg time  |  max time  |%varavg| %total
---------------------------------------------------------------
Pair    | 630.48     | 634.34     | 638.57     |   9.9 | 50.72
Neigh   | 480.31     | 483.7      | 485.95     |   8.6 | 38.68
Comm    | 100.28     | 103.12     | 106.11     |  17.4 |  8.25
Output  | 0.016863   | 0.016891   | 0.017005   |   0.0 |  0.00
Modify  | 23.748     | 23.814     | 23.867     |   1.0 |  1.90
Other   |            | 5.654      |            |       |  0.45

Nlocal:    3275.33 ave 3288 max 3256 min
Histogram: 1 0 0 0 0 2 1 0 1 1
Nghost:    4951 ave 4975 max 4926 min
Histogram: 1 0 1 1 0 0 1 0 1 1
Neighs:    102736 ave 103411 max 102176 min
Histogram: 1 1 0 2 0 0 0 0 1 1

Total # of neighbors = 616416
Ave neighs/atom = 31.3666
Neighbor list builds = 66172
Dangerous builds not checked
Setting up Verlet run ...
  Unit style    : metal
  Current step  : 1373340
  Time step     : 0.001
Per MPI rank memory allocation (min/avg/max) = 5.581 | 5.869 | 6.013 Mbytes
Step Temp Press TotEng PotEng Enthalpy 
 1373340    1447.2835    73.832881   -78729.115   -82405.347   -78692.527 
 1373835    1409.8829    72.558967   -78843.431   -82424.662   -78807.484 
Loop time of 9.12906 on 6 procs for 495 steps with 19652 atoms

Performance: 4.685 ns/day, 5.123 hours/ns, 54.222 timesteps/s
99.9% CPU use with 6 MPI tasks x no OpenMP threads

MPI task timing breakdown:
Section |  min time  |  avg time  |  max time  |%varavg| %total
---------------------------------------------------------------
Pair    | 4.6232     | 4.6646     | 4.7514     |   1.9 | 51.10
Neigh   | 3.4224     | 3.5085     | 3.6833     |   4.5 | 38.43
Comm    | 0.47751    | 0.7514     | 0.83808    |  14.5 |  8.23
Output  | 5.6982e-05 | 7.987e-05  | 0.00014806 |   0.0 |  0.00
Modify  | 0.16051    | 0.16324    | 0.17266    |   1.1 |  1.79
Other   |            | 0.04125    |            |       |  0.45

Nlocal:    3275.33 ave 3288 max 3261 min
Histogram: 1 0 0 0 2 1 0 1 0 1
Nghost:    4956 ave 4975 max 4934 min
Histogram: 1 0 1 1 0 0 0 1 1 1
Neighs:    102807 ave 103241 max 102462 min
Histogram: 2 0 0 1 0 0 2 0 0 1

Total # of neighbors = 616841
Ave neighs/atom = 31.3882
Neighbor list builds = 495
Dangerous builds not checked
Setting up Verlet run ...
  Unit style    : metal
  Current step  : 1373835
  Time step     : 0.001
Per MPI rank memory allocation (min/avg/max) = 5.581 | 5.869 | 6.013 Mbytes
Step Temp Press TotEng PotEng Enthalpy 
 1373835    1409.8829    72.558967   -78843.431   -82424.662   -78807.484 
 1400007    1400.1532   -384.61191   -78927.816   -82484.333   -79118.441 
 1440007    1400.2852    224.28045   -78951.439   -82508.291   -78840.589 
Loop time of 1284.35 on 6 procs for 66172 steps with 19652 atoms

Performance: 4.451 ns/day, 5.391 hours/ns, 51.522 timesteps/s
99.4% CPU use with 6 MPI tasks x no OpenMP threads

MPI task timing breakdown:
Section |  min time  |  avg time  |  max time  |%varavg| %total
---------------------------------------------------------------
Pair    | 655.74     | 658.8      | 665.3      |  12.0 | 51.29
Neigh   | 480.9      | 486.03     | 490.67     |  14.0 | 37.84
Comm    | 105.09     | 109.53     | 113.11     |  24.3 |  8.53
Output  | 0.016267   | 0.016294   | 0.016387   |   0.0 |  0.00
Modify  | 23.843     | 23.915     | 23.999     |   1.3 |  1.86
Other   |            | 6.05       |            |       |  0.47

Nlocal:    3275.33 ave 3297 max 3259 min
Histogram: 1 1 0 0 1 2 0 0 0 1
Nghost:    4949 ave 4971 max 4923 min
Histogram: 1 1 0 0 0 0 1 2 0 1
Neighs:    103081 ave 104826 max 102081 min
Histogram: 1 2 0 0 2 0 0 0 0 1

Total # of neighbors = 618487
Ave neighs/atom = 31.472
Neighbor list builds = 66172
Dangerous builds not checked
Setting up Verlet run ...
  Unit style    : metal
  Current step  : 1440007
  Time step     : 0.001
Per MPI rank memory allocation (min/avg/max) = 5.581 | 5.869 | 6.013 Mbytes
Step Temp Press TotEng PotEng Enthalpy 
 1440007    1400.2852    224.28045   -78951.439   -82508.291   -78840.589 
 1440502    1357.0558    209.96118   -79109.081   -82556.127   -79005.386 
Loop time of 9.07975 on 6 procs for 495 steps with 19652 atoms

Performance: 4.710 ns/day, 5.095 hours/ns, 54.517 timesteps/s
99.9% CPU use with 6 MPI tasks x no OpenMP threads

MPI task timing breakdown:
Section |  min time  |  avg time  |  max time  |%varavg| %total
---------------------------------------------------------------
Pair    | 4.5512     | 4.5778     | 4.6075     |   0.8 | 50.42
Neigh   | 3.2814     | 3.4697     | 3.6801     |   7.9 | 38.21
Comm    | 0.59203    | 0.81803    | 1.041      |  18.1 |  9.01
Output  | 7.7009e-05 | 8.9367e-05 | 0.0001359  |   0.0 |  0.00
Modify  | 0.16337    | 0.1697     | 0.17504    |   1.0 |  1.87
Other   |            | 0.04445    |            |       |  0.49

Nlocal:    3275.33 ave 3292 max 3263 min
Histogram: 2 0 0 1 0 1 1 0 0 1
Nghost:    4931.83 ave 4952 max 4910 min
Histogram: 1 0 0 0 1 3 0 0 0 1
Neighs:    103058 ave 104319 max 101788 min
Histogram: 1 1 0 0 1 1 0 0 1 1

Total # of neighbors = 618351
Ave neighs/atom = 31.465
Neighbor list builds = 495
Dangerous builds not checked
Setting up Verlet run ...
  Unit style    : metal
  Current step  : 1440502
  Time step     : 0.001
Per MPI rank memory allocation (min/avg/max) = 5.581 | 5.869 | 6.013 Mbytes
Step Temp Press TotEng PotEng Enthalpy 
 1440502    1357.0558    209.96118   -79109.081   -82556.127   -79005.386 
 1466674     1360.178    -340.3347   -79154.162   -82609.138   -79322.395 
 1506674    1349.5877    463.47118   -79202.913   -82630.988   -78974.516 
Loop time of 1267.01 on 6 procs for 66172 steps with 19652 atoms

Performance: 4.512 ns/day, 5.319 hours/ns, 52.227 timesteps/s
99.7% CPU use with 6 MPI tasks x no OpenMP threads

MPI task timing breakdown:
Section |  min time  |  avg time  |  max time  |%varavg| %total
---------------------------------------------------------------
Pair    | 640.22     | 642.95     | 649.84     |  13.0 | 50.75
Neigh   | 479.77     | 483.52     | 488.52     |  14.3 | 38.16
Comm    | 99.463     | 111.47     | 118.11     |  59.5 |  8.80
Output  | 0.017459   | 0.017487   | 0.017601   |   0.0 |  0.00
Modify  | 22.897     | 23.025     | 23.158     |   1.9 |  1.82
Other   |            | 6.03       |            |       |  0.48

Nlocal:    3275.33 ave 3285 max 3268 min
Histogram: 2 0 0 1 1 0 0 1 0 1
Nghost:    4950.83 ave 4984 max 4927 min
Histogram: 2 0 1 0 1 0 0 1 0 1
Neighs:    103311 ave 103853 max 102767 min
Histogram: 1 0 1 0 1 1 0 1 0 1

Total # of neighbors = 619867
Ave neighs/atom = 31.5422
Neighbor list builds = 66172
Dangerous builds not checked
Setting up Verlet run ...
  Unit style    : metal
  Current step  : 1506674
  Time step     : 0.001
Per MPI rank memory allocation (min/avg/max) = 5.581 | 5.869 | 6.013 Mbytes
Step Temp Press TotEng PotEng Enthalpy 
 1506674    1349.5877    463.47118   -79202.913   -82630.988   -78974.516 
 1507169    1316.5885    393.19325   -79370.202   -82714.457   -79176.707 
Loop time of 9.21049 on 6 procs for 495 steps with 19652 atoms

Performance: 4.643 ns/day, 5.169 hours/ns, 53.743 timesteps/s
97.9% CPU use with 6 MPI tasks x no OpenMP threads

MPI task timing breakdown:
Section |  min time  |  avg time  |  max time  |%varavg| %total
---------------------------------------------------------------
Pair    | 4.5981     | 4.6576     | 4.7081     |   1.8 | 50.57
Neigh   | 3.412      | 3.4983     | 3.6535     |   4.4 | 37.98
Comm    | 0.71195    | 0.83191    | 0.92922    |   9.7 |  9.03
Output  | 7.8917e-05 | 9.8149e-05 | 0.00016403 |   0.0 |  0.00
Modify  | 0.17317    | 0.17616    | 0.17905    |   0.5 |  1.91
Other   |            | 0.04644    |            |       |  0.50

Nlocal:    3275.33 ave 3287 max 3259 min
Histogram: 1 0 0 1 0 1 0 1 1 1
Nghost:    4951 ave 4973 max 4925 min
Histogram: 1 0 1 1 0 0 0 0 2 1
Neighs:    103424 ave 104087 max 102342 min
Histogram: 1 0 1 0 0 0 0 1 1 2

Total # of neighbors = 620543
Ave neighs/atom = 31.5766
Neighbor list builds = 495
Dangerous builds not checked
Setting up Verlet run ...
  Unit style    : metal
  Current step  : 1507169
  Time step     : 0.001
Per MPI rank memory allocation (min/avg/max) = 5.581 | 5.869 | 6.013 Mbytes
Step Temp Press TotEng PotEng Enthalpy 
 1507169    1316.5885    393.19325   -79370.202   -82714.457   -79176.707 
 1533341    1306.1083    162.09407   -79449.369   -82767.003   -79369.606 
 1573341    1292.8429   -490.35158   -79484.615   -82768.554   -79726.541 
Loop time of 1263.74 on 6 procs for 66172 steps with 19652 atoms

Performance: 4.524 ns/day, 5.305 hours/ns, 52.362 timesteps/s
99.8% CPU use with 6 MPI tasks x no OpenMP threads

MPI task timing breakdown:
Section |  min time  |  avg time  |  max time  |%varavg| %total
---------------------------------------------------------------
Pair    | 629.84     | 634.06     | 640.94     |  14.4 | 50.17
Neigh   | 492.4      | 494.51     | 496.21     |   6.0 | 39.13
Comm    | 100.01     | 106.05     | 108.76     |  27.7 |  8.39
Output  | 0.018214   | 0.018241   | 0.018361   |   0.0 |  0.00
Modify  | 22.886     | 22.964     | 23.078     |   1.3 |  1.82
Other   |            | 6.128      |            |       |  0.48

Nlocal:    3275.33 ave 3296 max 3252 min
Histogram: 1 1 0 0 0 1 1 1 0 1
Nghost:    4943.5 ave 4965 max 4919 min
Histogram: 2 0 0 0 0 1 1 0 0 2
Neighs:    103120 ave 104172 max 102191 min
Histogram: 1 0 1 0 1 2 0 0 0 1

Total # of neighbors = 618721
Ave neighs/atom = 31.4839
Neighbor list builds = 66172
Dangerous builds not checked
Setting up Verlet run ...
  Unit style    : metal
  Current step  : 1573341
  Time step     : 0.001
Per MPI rank memory allocation (min/avg/max) = 5.581 | 5.869 | 6.013 Mbytes
Step Temp Press TotEng PotEng Enthalpy 
 1573341    1292.8429   -490.35158   -79484.615   -82768.554   -79726.541 
 1573836    1258.5649   -231.50541    -79600.13   -82796.999   -79714.147 
Loop time of 9.41701 on 6 procs for 495 steps with 19652 atoms

Performance: 4.542 ns/day, 5.285 hours/ns, 52.564 timesteps/s
98.7% CPU use with 6 MPI tasks x no OpenMP threads

MPI task timing breakdown:
Section |  min time  |  avg time  |  max time  |%varavg| %total
---------------------------------------------------------------
Pair    | 4.4529     | 4.4984     | 4.5694     |   1.9 | 47.77
Neigh   | 3.518      | 3.6091     | 3.6649     |   2.9 | 38.33
Comm    | 0.99139    | 1.0954     | 1.2356     |   8.7 | 11.63
Output  | 7.7009e-05 | 0.00012469 | 0.00033998 |   0.0 |  0.00
Modify  | 0.1665     | 0.16866    | 0.17079    |   0.4 |  1.79
Other   |            | 0.04531    |            |       |  0.48

Nlocal:    3275.33 ave 3288 max 3265 min
Histogram: 2 0 0 0 1 1 1 0 0 1
Nghost:    4951.67 ave 4968 max 4933 min
Histogram: 1 0 1 0 0 1 1 1 0 1
Neighs:    103360 ave 104110 max 102565 min
Histogram: 1 1 0 0 1 0 0 2 0 1

Total # of neighbors = 620158
Ave neighs/atom = 31.557
Neighbor list builds = 495
Dangerous builds not checked
Setting up Verlet run ...
  Unit style    : metal
  Current step  : 1573836
  Time step     : 0.001
Per MPI rank memory allocation (min/avg/max) = 5.581 | 5.869 | 6.013 Mbytes
Step Temp Press TotEng PotEng Enthalpy 
 1573836    1258.5649   -231.50541    -79600.13   -82796.999   -79714.147 
 1600008    1255.9317    -80.47274   -79672.986   -82863.167   -79712.553 
 1640008    1246.9621    196.89328   -79701.242   -82868.639   -79604.544 
Loop time of 1282.32 on 6 procs for 66172 steps with 19652 atoms

Performance: 4.459 ns/day, 5.383 hours/ns, 51.603 timesteps/s
99.7% CPU use with 6 MPI tasks x no OpenMP threads

MPI task timing breakdown:
Section |  min time  |  avg time  |  max time  |%varavg| %total
---------------------------------------------------------------
Pair    | 641.52     | 645.73     | 654.78     |  17.9 | 50.36
Neigh   | 502.89     | 504.23     | 506.3      |   5.1 | 39.32
Comm    | 92.436     | 101.48     | 106.8      |  44.9 |  7.91
Output  | 0.019046   | 0.01914    | 0.019597   |   0.1 |  0.00
Modify  | 24.095     | 24.633     | 24.909     |   7.4 |  1.92
Other   |            | 6.23       |            |       |  0.49

Nlocal:    3275.33 ave 3290 max 3260 min
Histogram: 1 0 2 0 0 0 1 0 0 2
Nghost:    4968.33 ave 4985 max 4944 min
Histogram: 1 0 0 0 1 1 1 0 0 2
Neighs:    103615 ave 104512 max 102500 min
Histogram: 1 0 0 1 0 2 0 0 1 1

Total # of neighbors = 621689
Ave neighs/atom = 31.6349
Neighbor list builds = 66172
Dangerous builds not checked
Setting up Verlet run ...
  Unit style    : metal
  Current step  : 1640008
  Time step     : 0.001
Per MPI rank memory allocation (min/avg/max) = 5.581 | 5.869 | 6.013 Mbytes
Step Temp Press TotEng PotEng Enthalpy 
 1640008    1246.9621    196.89328   -79701.242   -82868.639   -79604.544 
 1640503    1210.3244    261.15981   -79877.625   -82951.959   -79749.572 
Loop time of 9.04441 on 6 procs for 495 steps with 19652 atoms

Performance: 4.729 ns/day, 5.075 hours/ns, 54.730 timesteps/s
99.4% CPU use with 6 MPI tasks x no OpenMP threads

MPI task timing breakdown:
Section |  min time  |  avg time  |  max time  |%varavg| %total
---------------------------------------------------------------
Pair    | 4.5573     | 4.6002     | 4.6517     |   1.4 | 50.86
Neigh   | 3.4878     | 3.5162     | 3.5762     |   1.5 | 38.88
Comm    | 0.63582    | 0.72515    | 0.78456    |   6.2 |  8.02
Output  | 8.2016e-05 | 0.00010252 | 0.00019598 |   0.0 |  0.00
Modify  | 0.15846    | 0.1605     | 0.16354    |   0.4 |  1.77
Other   |            | 0.04226    |            |       |  0.47

Nlocal:    3275.33 ave 3290 max 3254 min
Histogram: 1 0 0 0 2 0 0 1 1 1
Nghost:    4962.17 ave 5004 max 4936 min
Histogram: 1 1 1 1 1 0 0 0 0 1
Neighs:    103762 ave 104938 max 102510 min
Histogram: 1 0 1 0 1 1 0 0 1 1

Total # of neighbors = 622569
Ave neighs/atom = 31.6797
Neighbor list builds = 495
Dangerous builds not checked
Setting up Verlet run ...
  Unit style    : metal
  Current step  : 1640503
  Time step     : 0.001
Per MPI rank memory allocation (min/avg/max) = 5.581 | 5.869 | 6.013 Mbytes
Step Temp Press TotEng PotEng Enthalpy 
 1640503    1210.3244    261.15981   -79877.625   -82951.959   -79749.572 
 1666675    1189.7669   -178.33604   -79996.868   -83018.984   -80084.352 
 1706675    1199.8326   -228.19488   -79941.335   -82989.019   -80053.313 
Loop time of 1653.45 on 6 procs for 66172 steps with 19652 atoms

Performance: 3.458 ns/day, 6.941 hours/ns, 40.021 timesteps/s
94.0% CPU use with 6 MPI tasks x no OpenMP threads

MPI task timing breakdown:
Section |  min time  |  avg time  |  max time  |%varavg| %total
---------------------------------------------------------------
Pair    | 823.7      | 827.55     | 833.87     |  11.6 | 50.05
Neigh   | 521.36     | 527.69     | 539.72     |  26.3 | 31.91
Comm    | 214.01     | 224.74     | 233.05     |  48.3 | 13.59
Output  | 0.018767   | 0.018793   | 0.01887    |   0.0 |  0.00
Modify  | 65.833     | 67.107     | 68.233     |  10.5 |  4.06
Other   |            | 6.347      |            |       |  0.38

Nlocal:    3275.33 ave 3295 max 3260 min
Histogram: 2 0 0 1 1 0 0 0 1 1
Nghost:    4952 ave 4975 max 4927 min
Histogram: 1 0 1 0 0 2 0 0 1 1
Neighs:    103738 ave 104672 max 102908 min
Histogram: 1 0 1 1 0 0 2 0 0 1

Total # of neighbors = 622427
Ave neighs/atom = 31.6725
Neighbor list builds = 66172
Dangerous builds not checked
Setting up Verlet run ...
  Unit style    : metal
  Current step  : 1706675
  Time step     : 0.001
Per MPI rank memory allocation (min/avg/max) = 5.581 | 5.869 | 6.013 Mbytes
Step Temp Press TotEng PotEng Enthalpy 
 1706675    1199.8326   -228.19488   -79941.335   -82989.019   -80053.313 
 1707170    1158.7483    93.026496   -80142.605   -83085.931   -80097.081 
Loop time of 12.5692 on 6 procs for 495 steps with 19652 atoms

Performance: 3.403 ns/day, 7.053 hours/ns, 39.382 timesteps/s
92.5% CPU use with 6 MPI tasks x no OpenMP threads

MPI task timing breakdown:
Section |  min time  |  avg time  |  max time  |%varavg| %total
---------------------------------------------------------------
Pair    | 6.2118     | 6.3967     | 6.589      |   5.0 | 50.89
Neigh   | 3.7155     | 3.8534     | 3.9868     |   6.2 | 30.66
Comm    | 1.4862     | 1.7871     | 1.9879     |  12.4 | 14.22
Output  | 0.00010014 | 0.00015767 | 0.00039697 |   0.0 |  0.00
Modify  | 0.45902    | 0.48088    | 0.51595    |   3.0 |  3.83
Other   |            | 0.05098    |            |       |  0.41

Nlocal:    3275.33 ave 3292 max 3258 min
Histogram: 1 0 1 0 0 2 1 0 0 1
Nghost:    4949.33 ave 4963 max 4923 min
Histogram: 1 0 0 0 0 0 1 1 2 1
Neighs:    103971 ave 105015 max 103130 min
Histogram: 1 1 0 2 0 0 0 1 0 1

Total # of neighbors = 623828
[...]
Loop time of 8.16745 on 6 procs for 495 steps with 19652 atoms

Performance: 5.236 ns/day, 4.583 hours/ns, 60.606 timesteps/s
99.9% CPU use with 6 MPI tasks x no OpenMP threads

MPI task timing breakdown:
Section |  min time  |  avg time  |  max time  |%varavg| %total
---------------------------------------------------------------
Pair    | 3.8318     | 3.8913     | 3.9503     |   2.8 | 47.64
Neigh   | 3.4344     | 3.4693     | 3.5595     |   2.3 | 42.48
Comm    | 0.46201    | 0.60759    | 0.69971    |  11.5 |  7.44
Output  | 6.2943e-05 | 0.00010192 | 0.00028014 |   0.0 |  0.00
Modify  | 0.15595    | 0.1583     | 0.16362    |   0.7 |  1.94
Other   |            | 0.04089    |            |       |  0.50

Nlocal:    3275.33 ave 3287 max 3266 min
Histogram: 2 0 0 0 2 0 0 1 0 1
Nghost:    5040.33 ave 5057 max 5034 min
Histogram: 2 2 1 0 0 0 0 0 0 1
Neighs:    107074 ave 108008 max 106422 min
Histogram: 1 1 1 0 1 1 0 0 0 1

Total # of neighbors = 642445
Ave neighs/atom = 32.6911
Neighbor list builds = 495
Dangerous builds not checked
Setting up Verlet run ...
  Unit style    : metal
  Current step  : 2707175
  Time step     : 0.001
Per MPI rank memory allocation (min/avg/max) = 5.581 | 5.869 | 6.013 Mbytes
Step Temp Press TotEng PotEng Enthalpy 
 2707175    423.01575    107.80275   -84301.422   -85375.921   -84250.619 
 2733347    397.12442   -425.65057    -84470.69   -85479.422   -84671.303 
 2773347    395.72471     261.9903   -84483.278   -85488.455   -84360.063 
Loop time of 1172.47 on 6 procs for 66172 steps with 19652 atoms

Performance: 4.876 ns/day, 4.922 hours/ns, 56.438 timesteps/s
99.1% CPU use with 6 MPI tasks x no OpenMP threads

MPI task timing breakdown:
Section |  min time  |  avg time  |  max time  |%varavg| %total
---------------------------------------------------------------
Pair    | 565.25     | 569.08     | 572.55     |  12.0 | 48.54
Neigh   | 476.96     | 478.76     | 481.94     |   8.9 | 40.83
Comm    | 88.009     | 94.315     | 98.931     |  35.7 |  8.04
Output  | 0.017174   | 0.017232   | 0.017497   |   0.1 |  0.00
Modify  | 24.626     | 24.774     | 24.86      |   1.7 |  2.11
Other   |            | 5.526      |            |       |  0.47

Nlocal:    3275.33 ave 3294 max 3260 min
Histogram: 1 0 1 1 0 2 0 0 0 1
Nghost:    5053.67 ave 5076 max 5036 min
Histogram: 1 0 2 0 1 0 0 1 0 1
Neighs:    107356 ave 107859 max 106724 min
Histogram: 1 0 0 1 1 0 1 0 1 1

Total # of neighbors = 644137
Ave neighs/atom = 32.7772
Neighbor list builds = 66172
Dangerous builds not checked
Setting up Verlet run ...
  Unit style    : metal
  Current step  : 2773347
  Time step     : 0.001
Per MPI rank memory allocation (min/avg/max) = 5.581 | 5.869 | 6.013 Mbytes
Step Temp Press TotEng PotEng Enthalpy 
 2773347    395.72471     261.9903   -84483.278   -85488.455   -84360.063 
 2773842    371.53112    66.033491   -84613.346   -85557.069   -84582.309 
Loop time of 8.51562 on 6 procs for 495 steps with 19652 atoms

Performance: 5.022 ns/day, 4.779 hours/ns, 58.128 timesteps/s
99.5% CPU use with 6 MPI tasks x no OpenMP threads

MPI task timing breakdown:
Section |  min time  |  avg time  |  max time  |%varavg| %total
---------------------------------------------------------------
Pair    | 3.9219     | 4.0531     | 4.1899     |   4.8 | 47.60
Neigh   | 3.4139     | 3.4955     | 3.5582     |   2.3 | 41.05
Comm    | 0.54341    | 0.71747    | 0.95308    |  14.9 |  8.43
Output  | 4.9114e-05 | 8.8573e-05 | 0.00027585 |   0.0 |  0.00
Modify  | 0.18821    | 0.20908    | 0.22742    |   3.1 |  2.46
Other   |            | 0.04038    |            |       |  0.47

Nlocal:    3275.33 ave 3293 max 3256 min
Histogram: 1 1 0 0 1 0 1 0 1 1
Nghost:    5063.33 ave 5082 max 5029 min
Histogram: 1 0 0 0 0 1 0 2 1 1
Neighs:    107376 ave 108268 max 107022 min
Histogram: 3 1 0 0 0 1 0 0 0 1

Total # of neighbors = 644253
Ave neighs/atom = 32.7831
Neighbor list builds = 495
Dangerous builds not checked
Setting up Verlet run ...
  Unit style    : metal
  Current step  : 2773842
  Time step     : 0.001
Per MPI rank memory allocation (min/avg/max) = 5.581 | 5.869 | 6.013 Mbytes
Step Temp Press TotEng PotEng Enthalpy 
 2773842    371.53112    66.033491   -84613.346   -85557.069   -84582.309 
 2800014    353.58663    270.17629    -84796.92   -85695.062   -84670.251 
 2840014    349.69778   -42.206601   -84809.603   -85697.867   -84829.407 
Loop time of 1220.16 on 6 procs for 66172 steps with 19652 atoms

Performance: 4.686 ns/day, 5.122 hours/ns, 54.232 timesteps/s
98.4% CPU use with 6 MPI tasks x no OpenMP threads

MPI task timing breakdown:
Section |  min time  |  avg time  |  max time  |%varavg| %total
---------------------------------------------------------------
Pair    | 594.03     | 599.61     | 604.82     |  13.2 | 49.14
Neigh   | 469.77     | 473.26     | 478.74     |  15.0 | 38.79
Comm    | 110.08     | 115.82     | 120.31     |  32.3 |  9.49
Output  | 0.018      | 0.018026   | 0.018116   |   0.0 |  0.00
Modify  | 25.902     | 26.011     | 26.099     |   1.5 |  2.13
Other   |            | 5.439      |            |       |  0.45

Nlocal:    3275.33 ave 3296 max 3259 min
Histogram: 2 0 0 1 1 0 0 1 0 1
Nghost:    5053 ave 5075 max 5015 min
Histogram: 1 0 1 0 0 0 0 1 1 2
Neighs:    107443 ave 108473 max 106572 min
Histogram: 1 0 1 1 0 1 1 0 0 1

Total # of neighbors = 644656
Ave neighs/atom = 32.8036
Neighbor list builds = 66172
Dangerous builds not checked
Setting up Verlet run ...
  Unit style    : metal
  Current step  : 2840014
  Time step     : 0.001
Per MPI rank memory allocation (min/avg/max) = 5.581 | 5.869 | 6.013 Mbytes
Step Temp Press TotEng PotEng Enthalpy 
 2840014    349.69778   -42.206601   -84809.603   -85697.867   -84829.407 
 2840509    323.00962   -47.444804   -84946.606    -85767.08   -84968.844 
Loop time of 8.78779 on 6 procs for 495 steps with 19652 atoms

Performance: 4.867 ns/day, 4.931 hours/ns, 56.328 timesteps/s
99.0% CPU use with 6 MPI tasks x no OpenMP threads

MPI task timing breakdown:
Section |  min time  |  avg time  |  max time  |%varavg| %total
---------------------------------------------------------------
Pair    | 4.2403     | 4.2841     | 4.3259     |   1.6 | 48.75
Neigh   | 3.2938     | 3.4851     | 3.7991     |   8.7 | 39.66
Comm    | 0.50485    | 0.80598    | 0.96022    |  16.3 |  9.17
Output  | 4.9114e-05 | 6.338e-05  | 0.00010705 |   0.0 |  0.00
Modify  | 0.16658    | 0.17088    | 0.17427    |   0.6 |  1.94
Other   |            | 0.04166    |            |       |  0.47

Nlocal:    3275.33 ave 3302 max 3260 min
Histogram: 2 0 2 0 0 1 0 0 0 1
Nghost:    5061.67 ave 5097 max 5014 min
Histogram: 1 0 0 0 0 2 1 1 0 1
Neighs:    107518 ave 108917 max 106387 min
Histogram: 1 0 1 1 1 1 0 0 0 1

Total # of neighbors = 645110
Ave neighs/atom = 32.8267
Neighbor list builds = 495
Dangerous builds not checked
Setting up Verlet run ...
  Unit style    : metal
  Current step  : 2840509
  Time step     : 0.001
Per MPI rank memory allocation (min/avg/max) = 5.581 | 5.869 | 6.013 Mbytes
Step Temp Press TotEng PotEng Enthalpy 
 2840509    323.00962   -47.444804   -84946.606    -85767.08   -84968.844 
 2866681    299.61601   -195.41143   -85132.478    -85893.53   -85223.902 
 2906681    301.11448    94.385486    -85156.27   -85921.128   -85112.148 
Loop time of 1186.11 on 6 procs for 66172 steps with 19652 atoms

Performance: 4.820 ns/day, 4.979 hours/ns, 55.789 timesteps/s
98.8% CPU use with 6 MPI tasks x no OpenMP threads

MPI task timing breakdown:
Section |  min time  |  avg time  |  max time  |%varavg| %total
---------------------------------------------------------------
Pair    | 578.7      | 581.37     | 584.19     |   8.5 | 49.01
Neigh   | 459.53     | 463.84     | 467.89     |  14.5 | 39.11
Comm    | 106.44     | 112.31     | 116.68     |  39.7 |  9.47
Output  | 0.023387   | 0.023408   | 0.023483   |   0.0 |  0.00
Modify  | 23.02      | 23.224     | 23.413     |   2.7 |  1.96
Other   |            | 5.338      |            |       |  0.45

Nlocal:    3275.33 ave 3284 max 3269 min
Histogram: 1 0 3 0 0 0 0 0 1 1
Nghost:    5065 ave 5095 max 5029 min
Histogram: 1 0 0 0 1 2 0 1 0 1
Neighs:    107658 ave 108163 max 107124 min
Histogram: 1 0 1 0 0 1 1 1 0 1

Total # of neighbors = 645949
Ave neighs/atom = 32.8694
Neighbor list builds = 66172
Dangerous builds not checked
Setting up Verlet run ...
  Unit style    : metal
  Current step  : 2906681
  Time step     : 0.001
Per MPI rank memory allocation (min/avg/max) = 5.581 | 5.869 | 6.013 Mbytes
Step Temp Press TotEng PotEng Enthalpy 
 2906681    301.11448    94.385486    -85156.27   -85921.128   -85112.148 
 2907176    272.69091     -41.9154   -85288.681   -85981.341   -85308.261 
Loop time of 8.35378 on 6 procs for 495 steps with 19652 atoms

Performance: 5.120 ns/day, 4.688 hours/ns, 59.255 timesteps/s
99.3% CPU use with 6 MPI tasks x no OpenMP threads

MPI task timing breakdown:
Section |  min time  |  avg time  |  max time  |%varavg| %total
---------------------------------------------------------------
Pair    | 4.0304     | 4.0594     | 4.0813     |   0.9 | 48.59
Neigh   | 3.2076     | 3.3245     | 3.4725     |   5.3 | 39.80
Comm    | 0.64833    | 0.77383    | 0.88425    |  10.2 |  9.26
Output  | 5.6028e-05 | 6.8466e-05 | 0.00010896 |   0.0 |  0.00
Modify  | 0.15497    | 0.15719    | 0.16132    |   0.6 |  1.88
Other   |            | 0.03882    |            |       |  0.46

Nlocal:    3275.33 ave 3287 max 3267 min
Histogram: 2 1 0 0 1 0 0 0 1 1
Nghost:    5069.83 ave 5082 max 5047 min
Histogram: 1 0 0 0 0 0 3 0 0 2
Neighs:    107683 ave 108430 max 107126 min
Histogram: 2 0 1 1 0 0 0 0 1 1

Total # of neighbors = 646099
Ave neighs/atom = 32.877
Neighbor list builds = 495
Dangerous builds not checked
Setting up Verlet run ...
  Unit style    : metal
  Current step  : 2907176
  Time step     : 0.001
Per MPI rank memory allocation (min/avg/max) = 5.581 | 5.869 | 6.013 Mbytes
Step Temp Press TotEng PotEng Enthalpy 
 2907176    272.69091     -41.9154   -85288.681   -85981.341   -85308.261 
 2933348    250.65274    159.84006   -85464.012   -86100.693   -85389.526 
 2973348    249.71007   -9.6359372   -85467.609   -86101.896   -85472.103 
Loop time of 1129.38 on 6 procs for 66172 steps with 19652 atoms

Performance: 5.062 ns/day, 4.741 hours/ns, 58.591 timesteps/s
99.5% CPU use with 6 MPI tasks x no OpenMP threads

MPI task timing breakdown:
Section |  min time  |  avg time  |  max time  |%varavg| %total
---------------------------------------------------------------
Pair    | 543.35     | 547.24     | 550.49     |  10.3 | 48.45
Neigh   | 465.2      | 466.3      | 467.91     |   4.6 | 41.29
Comm    | 84.108     | 88.044     | 92.937     |  30.7 |  7.80
Output  | 0.015716   | 0.015732   | 0.015806   |   0.0 |  0.00
Modify  | 21.968     | 22.408     | 22.719     |   6.3 |  1.98
Other   |            | 5.379      |            |       |  0.48

Nlocal:    3275.33 ave 3284 max 3264 min
Histogram: 1 0 1 0 1 0 0 0 1 2
Nghost:    5064.5 ave 5080 max 5048 min
Histogram: 1 0 0 0 1 3 0 0 0 1
Neighs:    107783 ave 108433 max 107073 min
Histogram: 1 1 0 0 0 2 0 0 0 2

Total # of neighbors = 646699
Ave neighs/atom = 32.9075
Neighbor list builds = 66172
Dangerous builds not checked
Setting up Verlet run ...
  Unit style    : metal
  Current step  : 2973348
  Time step     : 0.001
Per MPI rank memory allocation (min/avg/max) = 5.581 | 5.869 | 6.013 Mbytes
Step Temp Press TotEng PotEng Enthalpy 
 2973348    249.71007   -9.6359372   -85467.609   -86101.896   -85472.103 
 2973843    224.13799   -36.561543   -85597.714   -86167.045   -85614.746 
Loop time of 8.44566 on 6 procs for 495 steps with 19652 atoms

Performance: 5.064 ns/day, 4.739 hours/ns, 58.610 timesteps/s
99.5% CPU use with 6 MPI tasks x no OpenMP threads

MPI task timing breakdown:
Section |  min time  |  avg time  |  max time  |%varavg| %total
---------------------------------------------------------------
Pair    | 4.0738     | 4.143      | 4.1971     |   2.1 | 49.05
Neigh   | 3.005      | 3.2743     | 3.5194     |   8.9 | 38.77
Comm    | 0.63805    | 0.83848    | 1.07       |  16.3 |  9.93
Output  | 5.1022e-05 | 6.4135e-05 | 0.00010204 |   0.0 |  0.00
Modify  | 0.144      | 0.15165    | 0.15385    |   0.9 |  1.80
Other   |            | 0.03821    |            |       |  0.45

Nlocal:    3275.33 ave 3283 max 3268 min
Histogram: 1 0 1 1 0 0 1 1 0 1
Nghost:    5071.83 ave 5112 max 5045 min
Histogram: 1 1 0 1 2 0 0 0 0 1
Neighs:    107853 ave 108380 max 107329 min
Histogram: 1 1 0 0 1 1 0 0 1 1

Total # of neighbors = 647118
Ave neighs/atom = 32.9289
Neighbor list builds = 495
Dangerous builds not checked
Setting up Verlet run ...
  Unit style    : metal
  Current step  : 2973843
  Time step     : 0.001
Per MPI rank memory allocation (min/avg/max) = 5.581 | 5.869 | 6.013 Mbytes
Step Temp Press TotEng PotEng Enthalpy 
 2973843    224.13799   -36.561543   -85597.714   -86167.045   -85614.746 
 3000015    200.23688   -154.57242   -85760.878   -86269.498   -85832.778 
 3040015    199.25268    246.48658   -85770.506   -86276.626   -85655.979 
Loop time of 1122.25 on 6 procs for 66172 steps with 19652 atoms

Performance: 5.094 ns/day, 4.711 hours/ns, 58.964 timesteps/s
99.7% CPU use with 6 MPI tasks x no OpenMP threads

MPI task timing breakdown:
Section |  min time  |  avg time  |  max time  |%varavg| %total
---------------------------------------------------------------
Pair    | 536.19     | 541.41     | 546.89     |  15.7 | 48.24
Neigh   | 467.53     | 469.9      | 471.72     |   6.1 | 41.87
Comm    | 76.899     | 83.26      | 89.355     |  46.3 |  7.42
Output  | 0.01718    | 0.0172     | 0.017283   |   0.0 |  0.00
Modify  | 22.032     | 22.054     | 22.085     |   0.4 |  1.97
Other   |            | 5.606      |            |       |  0.50

Nlocal:    3275.33 ave 3288 max 3265 min
Histogram: 2 0 1 0 0 0 1 1 0 1
Nghost:    5075.17 ave 5100 max 5048 min
Histogram: 1 0 1 1 0 0 0 2 0 1
Neighs:    108148 ave 108941 max 107396 min
Histogram: 1 0 1 2 0 0 0 0 0 2

Total # of neighbors = 648890
Ave neighs/atom = 33.019
Neighbor list builds = 66172
Dangerous builds not checked
Setting up Verlet run ...
  Unit style    : metal
  Current step  : 3040015
  Time step     : 0.001
Per MPI rank memory allocation (min/avg/max) = 5.581 | 5.869 | 6.013 Mbytes
Step Temp Press TotEng PotEng Enthalpy 
 3040015    199.25268    246.48658   -85770.506   -86276.626   -85655.979 
 3040510    176.62076    138.29773   -85892.363   -86340.996   -85828.149 
Loop time of 8.22052 on 6 procs for 495 steps with 19652 atoms

Performance: 5.203 ns/day, 4.613 hours/ns, 60.215 timesteps/s
99.7% CPU use with 6 MPI tasks x no OpenMP threads

MPI task timing breakdown:
Section |  min time  |  avg time  |  max time  |%varavg| %total
---------------------------------------------------------------
Pair    | 3.9213     | 3.9429     | 3.9791     |   1.0 | 47.96
Neigh   | 3.4344     | 3.4847     | 3.528      |   1.7 | 42.39
Comm    | 0.55023    | 0.58142    | 0.62199    |   3.3 |  7.07
Output  | 4.8876e-05 | 6.1274e-05 | 0.00011301 |   0.0 |  0.00
Modify  | 0.16221    | 0.17004    | 0.17481    |   1.2 |  2.07
Other   |            | 0.04145    |            |       |  0.50

Nlocal:    3275.33 ave 3283 max 3265 min
Histogram: 1 0 0 1 1 0 0 1 0 2
Nghost:    5075 ave 5096 max 5046 min
Histogram: 1 0 1 0 0 1 0 1 0 2
Neighs:    108203 ave 108842 max 107302 min
Histogram: 1 0 0 1 0 1 1 0 0 2

Total # of neighbors = 649216
Ave neighs/atom = 33.0356
Neighbor list builds = 495
Dangerous builds not checked
Setting up Verlet run ...
  Unit style    : metal
  Current step  : 3040510
  Time step     : 0.001
Per MPI rank memory allocation (min/avg/max) = 5.581 | 5.869 | 6.013 Mbytes
Step Temp Press TotEng PotEng Enthalpy 
 3040510    176.62076    138.29773   -85892.363   -86340.996   -85828.149 
 3066682    149.62458    40.578012   -86052.145   -86432.205   -86033.332 
 3106682    149.87599    111.08737   -86056.393   -86437.092   -86004.892 
Loop time of 1108.27 on 6 procs for 66172 steps with 19652 atoms

Performance: 5.159 ns/day, 4.652 hours/ns, 59.708 timesteps/s
99.8% CPU use with 6 MPI tasks x no OpenMP threads

MPI task timing breakdown:
Section |  min time  |  avg time  |  max time  |%varavg| %total
---------------------------------------------------------------
Pair    | 528.78     | 531.67     | 537.22     |  13.0 | 47.97
Neigh   | 467.24     | 469.69     | 472.3      |   8.1 | 42.38
Comm    | 75.438     | 79.295     | 84.506     |  37.6 |  7.15
Output  | 0.017712   | 0.017736   | 0.017828   |   0.0 |  0.00
Modify  | 21.871     | 21.914     | 21.959     |   0.7 |  1.98
Other   |            | 5.675      |            |       |  0.51

Nlocal:    3275.33 ave 3294 max 3262 min
Histogram: 1 1 0 0 2 1 0 0 0 1
Nghost:    5093.67 ave 5124 max 5076 min
Histogram: 1 1 1 1 1 0 0 0 0 1
Neighs:    108366 ave 109398 max 107194 min
Histogram: 1 0 1 0 0 1 1 1 0 1

Total # of neighbors = 650196
Ave neighs/atom = 33.0855
Neighbor list builds = 66172
Dangerous builds not checked
Setting up Verlet run ...
  Unit style    : metal
  Current step  : 3106682
  Time step     : 0.001
Per MPI rank memory allocation (min/avg/max) = 5.581 | 5.869 | 6.013 Mbytes
Step Temp Press TotEng PotEng Enthalpy 
 3106682    149.87599    111.08737   -86056.393   -86437.092   -86004.892 
 3107177    126.72816   -68.179661   -86169.937   -86491.838   -86201.531 
Loop time of 8.34979 on 6 procs for 495 steps with 19652 atoms

Performance: 5.122 ns/day, 4.686 hours/ns, 59.283 timesteps/s
99.5% CPU use with 6 MPI tasks x no OpenMP threads

MPI task timing breakdown:
Section |  min time  |  avg time  |  max time  |%varavg| %total
---------------------------------------------------------------
Pair    | 4.0234     | 4.0655     | 4.096      |   1.4 | 48.69
Neigh   | 3.4207     | 3.4621     | 3.5089     |   1.6 | 41.46
Comm    | 0.5631     | 0.61825    | 0.69539    |   5.1 |  7.40
Output  | 4.8876e-05 | 9.0917e-05 | 0.00026608 |   0.0 |  0.00
Modify  | 0.15962    | 0.16192    | 0.1636     |   0.3 |  1.94
Other   |            | 0.04189    |            |       |  0.50

Nlocal:    3275.33 ave 3280 max 3272 min
Histogram: 1 1 1 1 0 0 0 1 0 1
Nghost:    5090 ave 5108 max 5079 min
Histogram: 2 1 0 1 0 0 0 1 0 1
Neighs:    108391 ave 108890 max 107878 min
Histogram: 1 1 1 0 0 0 1 0 0 2

Total # of neighbors = 650345
Ave neighs/atom = 33.0931
Neighbor list builds = 495
Dangerous builds not checked
Setting up Verlet run ...
  Unit style    : metal
  Current step  : 3107177
  Time step     : 0.001
Per MPI rank memory allocation (min/avg/max) = 5.581 | 5.869 | 6.013 Mbytes
Step Temp Press TotEng PotEng Enthalpy 
 3107177    126.72816   -68.179661   -86169.937   -86491.838   -86201.531 
 3133349    99.939538   -17.724124   -86328.102   -86581.958   -86336.303 
 3173349    101.22657   -211.88347   -86323.609   -86580.734   -86421.717 
Loop time of 1104.28 on 6 procs for 66172 steps with 19652 atoms

Performance: 5.177 ns/day, 4.636 hours/ns, 59.923 timesteps/s
99.7% CPU use with 6 MPI tasks x no OpenMP threads

MPI task timing breakdown:
Section |  min time  |  avg time  |  max time  |%varavg| %total
---------------------------------------------------------------
Pair    | 523.91     | 528.19     | 534.37     |  16.3 | 47.83
Neigh   | 465.08     | 466.94     | 469.82     |   6.8 | 42.28
Comm    | 74.746     | 81.268     | 86.495     |  40.6 |  7.36
Output  | 0.01602    | 0.016075   | 0.016304   |   0.1 |  0.00
Modify  | 21.924     | 22.21      | 22.385     |   4.2 |  2.01
Other   |            | 5.665      |            |       |  0.51

Nlocal:    3275.33 ave 3285 max 3267 min
Histogram: 1 0 1 1 0 1 1 0 0 1
Nghost:    5093 ave 5098 max 5087 min
Histogram: 2 0 0 1 0 0 0 0 0 3
Neighs:    108531 ave 108988 max 107629 min
Histogram: 1 0 0 1 0 0 0 0 2 2

Total # of neighbors = 651184
Ave neighs/atom = 33.1358
Neighbor list builds = 66172
Dangerous builds not checked
Total wall time: 16:49:07
