LAMMPS (12 Dec 2018)
Lattice spacing in x,y,z = 4 4 4
Created orthogonal box = (0 0 0) to (68 68 68)
  1 by 1 by 2 MPI processor grid
Created 19652 atoms
  Time spent = 0.00151801 secs
Setting atom values ...
  19281 settings made for type/fraction
Neighbor list info ...
  update every 1 steps, delay 0 steps, check no
  max neighbors/atom: 2000, page size: 100000
  master list distance cutoff = 10
  ghost atom cutoff = 10
  binsize = 5, bins = 14 14 14
  1 neighbor lists, perpetual/occasional/extra = 1 0 0
  (1) pair eam/fs, perpetual
      attributes: half, newton on
      pair build: half/bin/atomonly/newton
      stencil: half/bin/3d/newton
      bin: standard
Setting up Verlet run ...
  Unit style    : metal
  Current step  : 0
  Time step     : 0.001
Per MPI rank memory allocation (min/avg/max) = 12.91 | 12.92 | 12.92 Mbytes
Step Temp Press TotEng PotEng Enthalpy Volume 
       0          300    1510751.6    3055.7823    2293.7549    299545.37       314432 
     667    224.50901    1508905.7    3055.8184    2485.5451    299183.15       314432 
    1000    224.03972    1508523.6    3055.8208    2486.7395    299108.16       314432 
Loop time of 160.147 on 2 procs for 1000 steps with 19652 atoms

Performance: 0.540 ns/day, 44.485 hours/ns, 6.244 timesteps/s
99.6% CPU use with 2 MPI tasks x no OpenMP threads

MPI task timing breakdown:
Section |  min time  |  avg time  |  max time  |%varavg| %total
---------------------------------------------------------------
Pair    | 99.721     | 100.87     | 102.03     |  11.5 | 62.99
Neigh   | 53.092     | 54.294     | 55.496     |  16.3 | 33.90
Comm    | 2.1554     | 4.512      | 6.8687     | 110.9 |  2.82
Output  | 0.057851   | 0.057886   | 0.057921   |   0.0 |  0.04
Modify  | 0.20612    | 0.20639    | 0.20666    |   0.1 |  0.13
Other   |            | 0.2037     |            |       |  0.13

Nlocal:    9826 ave 9839 max 9813 min
Histogram: 1 0 0 0 0 0 0 0 0 1
Nghost:    16314.5 ave 16358 max 16271 min
Histogram: 1 0 0 0 0 0 0 0 0 1
Neighs:    1.22081e+06 ave 1.23935e+06 max 1.20227e+06 min
Histogram: 1 0 0 0 0 0 0 0 0 1

Total # of neighbors = 2441614
Ave neighs/atom = 124.243
Neighbor list builds = 1000
Dangerous builds not checked
Setting up Verlet run ...
  Unit style    : metal
  Current step  : 1000
  Time step     : 0.001
Per MPI rank memory allocation (min/avg/max) = 12.93 | 12.93 | 12.93 Mbytes
Step Temp Press TotEng PotEng Enthalpy Volume 
    1000    224.03972    1508523.6    3055.8208    2486.7395    299108.16       314432 
    1334    228.99764     102319.7   -92336.652   -92918.326   -53867.247    602374.48 
    2000    316.80958   0.15924598   -94408.304   -95213.029   -94408.234    703523.76 
Loop time of 97.2005 on 2 procs for 1000 steps with 19652 atoms

Performance: 0.889 ns/day, 27.000 hours/ns, 10.288 timesteps/s
99.0% CPU use with 2 MPI tasks x no OpenMP threads

MPI task timing breakdown:
Section |  min time  |  avg time  |  max time  |%varavg| %total
---------------------------------------------------------------
Pair    | 57.751     | 57.92      | 58.088     |   2.2 | 59.59
Neigh   | 35.206     | 35.848     | 36.49      |  10.7 | 36.88
Comm    | 1.5782     | 2.4004     | 3.2227     |  53.1 |  2.47
Output  | 0.054309   | 0.054341   | 0.054372   |   0.0 |  0.06
Modify  | 0.76948    | 0.77694    | 0.7844     |   0.8 |  0.80
Other   |            | 0.2006     |            |       |  0.21

Nlocal:    9826 ave 9850 max 9802 min
Histogram: 1 0 0 0 0 0 0 0 0 1
Nghost:    10419.5 ave 10441 max 10398 min
Histogram: 1 0 0 0 0 0 0 0 0 1
Neighs:    601560 ave 608558 max 594562 min
Histogram: 1 0 0 0 0 0 0 0 0 1

Total # of neighbors = 1203120
Ave neighs/atom = 61.2212
Neighbor list builds = 1000
Dangerous builds not checked
Setting up Verlet run ...
  Unit style    : metal
  Current step  : 2000
  Time step     : 0.001
Per MPI rank memory allocation (min/avg/max) = 12.94 | 12.94 | 12.95 Mbytes
Step Temp Press TotEng PotEng Enthalpy Volume 
    2000    316.80958   0.15924598   -94408.304   -95213.029   -94408.234    703523.76 
    2001    316.89584   -1.1255767   -94408.308   -95213.253   -94408.803    703523.76 
    2668     392.5756   -141.68483   -94038.769   -95035.946   -94101.127    705145.42 
    3335    592.01113   -118.26082   -93079.556   -94583.318   -93131.804    707840.25 
    4002    804.90496    257.20924   -91940.229   -93984.761   -91826.037    711312.46 
    4669    1004.4025      557.112   -90922.268   -93473.542   -90673.824    714490.83 
    5336    1192.4447    867.56247   -89969.494   -92998.412   -89581.282    716933.43 
    6003    1375.7213    591.19537   -89005.451   -92499.908   -88739.468    720831.56 
    6670    1555.4365    878.99937   -88052.712   -92003.662   -87655.729    723591.12 
    7337    1730.7652    323.42783   -87063.756   -91460.058   -86916.628    728834.21 
    8004    1909.8344    818.08535    -86085.14   -90936.294   -85711.484    731786.53 
    8671    2099.5626    602.77449   -85101.231   -90434.311   -84824.377    735878.45 
    9338    2277.6381    391.82057   -83991.282   -89776.691   -83810.018    741199.98 
   10000    2436.7415   -767.56501   -82972.121   -89161.666   -83330.162    747357.08 
Loop time of 659.254 on 2 procs for 8000 steps with 19652 atoms

Performance: 1.048 ns/day, 22.891 hours/ns, 12.135 timesteps/s
99.2% CPU use with 2 MPI tasks x no OpenMP threads

MPI task timing breakdown:
Section |  min time  |  avg time  |  max time  |%varavg| %total
---------------------------------------------------------------
Pair    | 391.34     | 393.3      | 395.26     |   9.9 | 59.66
Neigh   | 239.95     | 241.06     | 242.17     |   7.1 | 36.57
Comm    | 13.435     | 16.514     | 19.593     |  75.8 |  2.50
Output  | 0.70254    | 0.70269    | 0.70285    |   0.0 |  0.11
Modify  | 6.1261     | 6.1318     | 6.1375     |   0.2 |  0.93
Other   |            | 1.552      |            |       |  0.24

Nlocal:    9826 ave 9830 max 9822 min
Histogram: 1 0 0 0 0 0 0 0 0 1
Nghost:    10643 ave 10654 max 10632 min
Histogram: 1 0 0 0 0 0 0 0 0 1
Neighs:    539610 ave 540870 max 538351 min
Histogram: 1 0 0 0 0 0 0 0 0 1

Total # of neighbors = 1079221
Ave neighs/atom = 54.9166
Neighbor list builds = 8000
Dangerous builds not checked
Setting up Verlet run ...
  Unit style    : metal
  Current step  : 10000
  Time step     : 0.001
Per MPI rank memory allocation (min/avg/max) = 12.95 | 12.96 | 12.96 Mbytes
Step Temp Press TotEng PotEng Enthalpy Volume 
   10000    2436.7415   -767.56501   -82972.121   -89161.666   -83330.162    747357.08 
   10005    2434.8987   -747.67066   -82972.033   -89156.898   -83320.794    747354.69 
   10672    2445.1825    835.25777   -82748.942   -88959.929   -82359.757    746527.55 
   11339    2437.6657   -981.69046   -82847.368   -89039.261   -83306.211    748858.69 
   12006    2461.1804   -11.149759   -82737.055   -88988.678   -82742.262    748145.41 
   12673    2442.3804    730.50927   -82795.224   -88999.093   -82454.922    746362.72 
   13340    2440.3211   -864.06177   -82734.996   -88933.634   -83139.151    749399.27 
   14007    2439.9764    -635.9543   -82760.951   -88958.713    -83058.23    748944.64 
   14674    2473.2356    1336.3906   -82734.507    -89016.75   -82112.618    745572.48 
   15341    2448.4159   -117.99008   -82758.286   -88977.485   -82813.387    748217.62 
   16008    2432.1229    134.97782   -82771.489   -88949.303    -82708.46     748147.8 
   16675    2469.0193     690.6987   -82579.969   -88851.503   -82257.601    747779.65 
   17342    2434.9376   -1066.1835   -82749.303   -88934.266   -83248.121    749584.39 
   18009    2461.3533     658.5938    -82612.08   -88864.141   -82304.824    747468.36 
   18676    2447.3462    288.88265   -82613.853   -88830.335    -82478.95    748185.08 
   19343    2462.0315   -833.94997   -82595.844   -88849.628   -82986.346    750228.52 
   20010    2463.0341    35.904068   -82494.164   -88750.495   -82477.372     749337.2 
   20677    2456.3656   -654.92727    -82524.11   -88763.503   -82830.723    750079.67 
   21344    2452.4428    1135.4218   -82660.541   -88889.969   -82131.717    746215.33 
   22011    2444.9233    15.280713   -82585.994   -88796.322   -82578.852    748831.75 
   22678    2448.2838   -56.987611   -82592.578   -88811.442   -82619.222    749105.43 
   23345    2446.8981    1160.2789   -82604.864   -88820.208   -82063.958    746912.78 
   24012     2439.859    230.33755   -82586.286   -88783.751   -82478.704    748316.54 
   24679     2442.283   -419.16263   -82560.939    -88764.56   -82757.104    749809.25 
   25346    2433.4517    157.41154   -82552.203   -88733.392   -82478.618    748972.63 
   26013    2483.3411    380.78412   -82411.545   -88719.457   -82233.636    748565.52 
   26680    2436.5903   -661.04879   -82517.789    -88706.95   -82827.589    750860.31 
   27347    2458.5485   -51.853117   -82458.676   -88703.613   -82482.936    749583.68 
   28014    2464.2615    775.74837   -82396.919   -88656.368   -82034.661    748182.34 
   28681    2448.5253    187.92571   -82373.498   -88592.975   -82285.575    749595.14 
   29348    2440.7807   -487.30047   -82395.526   -88595.331   -82623.958     751054.2 
   30015    2458.2793    32.167863   -82367.653   -88611.907   -82352.587    750432.78 
   30682    2477.2071     481.0821   -82308.718    -88601.05   -82083.694    749408.99 
   31349    2436.4844   -1114.7358   -82274.302   -88463.194   -82798.267    753079.89 
   32016     2460.404   -504.28052   -82286.217   -88535.867   -82522.674    751261.94 
   32683    2452.8875    1262.4959   -82244.378   -88474.936   -81654.283    748862.24 
   33350     2449.118    158.87706   -82203.375   -88424.358   -82128.923    750806.72 
   34017    2465.7683   -244.08265   -81987.147   -88250.423   -82101.811    752659.21 
   34684     2446.915    632.03366   -82031.841   -88247.227   -81735.417     751419.9 
   35351    2432.5946   -305.16296   -82009.843   -88188.854   -82153.263     752989.4 
   36018    2452.3361    -6.685659   -81892.672   -88121.829   -81895.815    753276.33 
   36685    2448.2859   -340.44823   -81830.032   -88048.901   -81990.257    754031.39 
   37352    2442.3937    696.30151   -81763.501   -87967.404   -81436.148    753232.02 
   38019    2440.3111    151.51193   -81714.795   -87913.407   -81643.495    753967.17 
   38686    2445.5627   -300.20722   -81671.082   -87883.034   -81812.572    755116.56 
   39353    2460.7264    18.193384   -81478.251    -87728.72   -81469.666    755966.68 
   40000    2436.0895    570.76603   -81408.203   -87596.092    -81139.16    755220.61 
Loop time of 2453.98 on 2 procs for 30000 steps with 19652 atoms

Performance: 1.056 ns/day, 22.722 hours/ns, 12.225 timesteps/s
97.6% CPU use with 2 MPI tasks x no OpenMP threads

MPI task timing breakdown:
Section |  min time  |  avg time  |  max time  |%varavg| %total
---------------------------------------------------------------
Pair    | 1496.2     | 1500.4     | 1504.5     |  10.8 | 61.14
Neigh   | 842.32     | 848.97     | 855.62     |  22.8 | 34.60
Comm    | 59.772     | 70.899     | 82.026     | 132.1 |  2.89
Output  | 3.0796     | 3.0801     | 3.0806     |   0.0 |  0.13
Modify  | 24.365     | 24.597     | 24.829     |   4.7 |  1.00
Other   |            | 6.085      |            |       |  0.25

Nlocal:    9826 ave 9827 max 9825 min
Histogram: 1 0 0 0 0 0 0 0 0 1
Nghost:    10866 ave 10876 max 10856 min
Histogram: 1 0 0 0 0 0 0 0 0 1
Neighs:    534004 ave 534038 max 533969 min
Histogram: 1 0 0 0 0 0 0 0 0 1

Total # of neighbors = 1068007
Ave neighs/atom = 54.346
Neighbor list builds = 30000
Dangerous builds not checked
Setting up Verlet run ...
  Unit style    : metal
  Current step  : 40000
  Time step     : 0.001
Per MPI rank memory allocation (min/avg/max) = 12.95 | 12.96 | 12.96 Mbytes
Step Temp Press TotEng PotEng Enthalpy Volume 
   40000    2436.0895    570.76603   -81408.203   -87596.092    -81139.16    755220.61 
   40020    2440.1703     425.0964   -81406.998   -87605.253   -81206.613    755247.62 
   40495    2401.3943    535.72209   -81571.592   -87671.352   -81319.246    754689.36 
Loop time of 39.1134 on 2 procs for 495 steps with 19652 atoms

Performance: 1.093 ns/day, 21.949 hours/ns, 12.656 timesteps/s
98.2% CPU use with 2 MPI tasks x no OpenMP threads

MPI task timing breakdown:
Section |  min time  |  avg time  |  max time  |%varavg| %total
---------------------------------------------------------------
Pair    | 23.464     | 23.751     | 24.038     |   5.9 | 60.72
Neigh   | 13.549     | 13.73      | 13.911     |   4.9 | 35.10
Comm    | 0.5761     | 1.0507     | 1.5253     |  46.3 |  2.69
Output  | 0.05619    | 0.056225   | 0.056259   |   0.0 |  0.14
Modify  | 0.41908    | 0.42238    | 0.42569    |   0.5 |  1.08
Other   |            | 0.1033     |            |       |  0.26

Nlocal:    9826 ave 9860 max 9792 min
Histogram: 1 0 0 0 0 0 0 0 0 1
Nghost:    10919 ave 10956 max 10882 min
Histogram: 1 0 0 0 0 0 0 0 0 1
Neighs:    534386 ave 536098 max 532674 min
Histogram: 1 0 0 0 0 0 0 0 0 1

Total # of neighbors = 1068772
Ave neighs/atom = 54.3849
Neighbor list builds = 495
Dangerous builds not checked
Setting up Verlet run ...
  Unit style    : metal
  Current step  : 40495
  Time step     : 0.001
Per MPI rank memory allocation (min/avg/max) = 12.95 | 12.96 | 12.96 Mbytes
Step Temp Press TotEng PotEng Enthalpy Volume 
   40495    2401.3943    535.72209   -81571.592   -87671.352   -81319.246    754689.36 
   40667     2376.188   -451.28899   -81590.602   -87626.336   -81803.666    756425.11 
Loop time of 13.0291 on 2 procs for 172 steps with 19652 atoms

Performance: 1.141 ns/day, 21.042 hours/ns, 13.201 timesteps/s
99.8% CPU use with 2 MPI tasks x no OpenMP threads

MPI task timing breakdown:
Section |  min time  |  avg time  |  max time  |%varavg| %total
---------------------------------------------------------------
Pair    | 7.9856     | 8.0057     | 8.0258     |   0.7 | 61.44
Neigh   | 4.5886     | 4.6368     | 4.685      |   2.2 | 35.59
Comm    | 0.19239    | 0.21871    | 0.24502    |   5.6 |  1.68
Output  | 8.1062e-05 | 0.00010896 | 0.00013685 |   0.0 |  0.00
Modify  | 0.13152    | 0.13242    | 0.13331    |   0.2 |  1.02
Other   |            | 0.0354     |            |       |  0.27

Nlocal:    9826 ave 9865 max 9787 min
Histogram: 1 0 0 0 0 0 0 0 0 1
Nghost:    10904 ave 10949 max 10859 min
Histogram: 1 0 0 0 0 0 0 0 0 1
Neighs:    533474 ave 535898 max 531049 min
Histogram: 1 0 0 0 0 0 0 0 0 1

Total # of neighbors = 1066947
Ave neighs/atom = 54.292
Neighbor list builds = 172
Dangerous builds not checked
Setting up Verlet run ...
  Unit style    : metal
  Current step  : 40667
  Time step     : 0.001
Per MPI rank memory allocation (min/avg/max) = 12.95 | 12.96 | 12.96 Mbytes
Step Temp Press TotEng PotEng Enthalpy Volume 
   40667     2376.188   -451.28899   -81590.602   -87626.336   -81803.666    756425.11 
   40687    2374.6538   -413.11597   -81588.147   -87619.984   -81783.183    756401.88 
   41162    2347.0989   -458.26543   -81750.386   -87712.231   -81966.539    755708.17 
Loop time of 38.8562 on 2 procs for 495 steps with 19652 atoms

Performance: 1.101 ns/day, 21.805 hours/ns, 12.739 timesteps/s
98.7% CPU use with 2 MPI tasks x no OpenMP threads

MPI task timing breakdown:
Section |  min time  |  avg time  |  max time  |%varavg| %total
---------------------------------------------------------------
Pair    | 23.672     | 23.775     | 23.877     |   2.1 | 61.19
Neigh   | 13.553     | 13.617     | 13.681     |   1.7 | 35.04
Comm    | 0.7503     | 0.919      | 1.0877     |  17.6 |  2.37
Output  | 0.0586     | 0.05865    | 0.058701   |   0.0 |  0.15
Modify  | 0.38528    | 0.38545    | 0.38562    |   0.0 |  0.99
Other   |            | 0.1018     |            |       |  0.26

Nlocal:    9826 ave 9841 max 9811 min
Histogram: 1 0 0 0 0 0 0 0 0 1
Nghost:    10917.5 ave 10930 max 10905 min
Histogram: 1 0 0 0 0 0 0 0 0 1
Neighs:    534268 ave 535772 max 532765 min
Histogram: 1 0 0 0 0 0 0 0 0 1

Total # of neighbors = 1068537
Ave neighs/atom = 54.3729
Neighbor list builds = 495
Dangerous builds not checked
Setting up Verlet run ...
  Unit style    : metal
  Current step  : 41162
  Time step     : 0.001
Per MPI rank memory allocation (min/avg/max) = 12.95 | 12.96 | 12.96 Mbytes
Step Temp Press TotEng PotEng Enthalpy Volume 
   41162    2347.0989   -458.26543   -81750.386   -87712.231   -81966.539    755708.17 
   41334    2355.1881    609.64701   -81663.061   -87645.454   -81375.815    754894.89 
Loop time of 13.3339 on 2 procs for 172 steps with 19652 atoms

Performance: 1.115 ns/day, 21.534 hours/ns, 12.899 timesteps/s
98.6% CPU use with 2 MPI tasks x no OpenMP threads

MPI task timing breakdown:
Section |  min time  |  avg time  |  max time  |%varavg| %total
---------------------------------------------------------------
Pair    | 8.1734     | 8.2202     | 8.2671     |   1.6 | 61.65
Neigh   | 4.6877     | 4.7108     | 4.734      |   1.1 | 35.33
Comm    | 0.16181    | 0.23463    | 0.30744    |  15.0 |  1.76
Output  | 0.00011182 | 0.00013244 | 0.00015306 |   0.0 |  0.00
Modify  | 0.13076    | 0.13249    | 0.13422    |   0.5 |  0.99
Other   |            | 0.03556    |            |       |  0.27

Nlocal:    9826 ave 9836 max 9816 min
Histogram: 1 0 0 0 0 0 0 0 0 1
Nghost:    10958 ave 10983 max 10933 min
Histogram: 1 0 0 0 0 0 0 0 0 1
Neighs:    534854 ave 535611 max 534098 min
Histogram: 1 0 0 0 0 0 0 0 0 1

Total # of neighbors = 1069709
Ave neighs/atom = 54.4326
Neighbor list builds = 172
Dangerous builds not checked
Setting up Verlet run ...
  Unit style    : metal
  Current step  : 41334
  Time step     : 0.001
Per MPI rank memory allocation (min/avg/max) = 12.95 | 12.96 | 12.96 Mbytes
Step Temp Press TotEng PotEng Enthalpy Volume 
   41334    2355.1881    609.64701   -81663.061   -87645.454   -81375.815    754894.89 
   41354    2356.5187     602.8279   -81663.705   -87649.477   -81379.659    754927.82 
   41829    2306.7638    533.87297    -81938.14    -87797.53   -81686.905    753967.32 
Loop time of 38.4003 on 2 procs for 495 steps with 19652 atoms

Performance: 1.114 ns/day, 21.549 hours/ns, 12.891 timesteps/s
99.9% CPU use with 2 MPI tasks x no OpenMP threads

MPI task timing breakdown:
Section |  min time  |  avg time  |  max time  |%varavg| %total
---------------------------------------------------------------
Pair    | 23.097     | 23.257     | 23.417     |   3.3 | 60.56
Neigh   | 13.586     | 13.628     | 13.669     |   1.1 | 35.49
Comm    | 0.75547    | 0.96168    | 1.1679     |  21.0 |  2.50
Output  | 0.060679   | 0.060711   | 0.060742   |   0.0 |  0.16
Modify  | 0.38915    | 0.3913     | 0.39345    |   0.3 |  1.02
Other   |            | 0.1018     |            |       |  0.27

Nlocal:    9826 ave 9841 max 9811 min
Histogram: 1 0 0 0 0 0 0 0 0 1
Nghost:    10962.5 ave 11020 max 10905 min
Histogram: 1 0 0 0 0 0 0 0 0 1
Neighs:    535946 ave 535960 max 535933 min
Histogram: 1 0 0 0 0 0 0 0 0 1

Total # of neighbors = 1071893
Ave neighs/atom = 54.5437
Neighbor list builds = 495
Dangerous builds not checked
Setting up Verlet run ...
  Unit style    : metal
  Current step  : 41829
  Time step     : 0.001
Per MPI rank memory allocation (min/avg/max) = 12.95 | 12.96 | 12.96 Mbytes
Step Temp Press TotEng PotEng Enthalpy Volume 
   41829    2306.7638    533.87297    -81938.14    -87797.53   -81686.905    753967.32 
   42001    2274.5085   -216.11373    -82011.34   -87788.798   -82113.197    755126.35 
Loop time of 13.0194 on 2 procs for 172 steps with 19652 atoms

Performance: 1.141 ns/day, 21.026 hours/ns, 13.211 timesteps/s
100.0% CPU use with 2 MPI tasks x no OpenMP threads

MPI task timing breakdown:
Section |  min time  |  avg time  |  max time  |%varavg| %total
---------------------------------------------------------------
Pair    | 7.9235     | 7.9875     | 8.0515     |   2.3 | 61.35
Neigh   | 4.6494     | 4.6615     | 4.6736     |   0.6 | 35.80
Comm    | 0.14585    | 0.20025    | 0.25466    |  12.2 |  1.54
Output  | 8.2016e-05 | 0.00011301 | 0.000144   |   0.0 |  0.00
Modify  | 0.13251    | 0.13405    | 0.13558    |   0.4 |  1.03
Other   |            | 0.03598    |            |       |  0.28

Nlocal:    9826 ave 9833 max 9819 min
Histogram: 1 0 0 0 0 0 0 0 0 1
Nghost:    10968 ave 11020 max 10916 min
Histogram: 1 0 0 0 0 0 0 0 0 1
Neighs:    534756 ave 536726 max 532785 min
Histogram: 1 0 0 0 0 0 0 0 0 1

Total # of neighbors = 1069511
Ave neighs/atom = 54.4225
Neighbor list builds = 172
Dangerous builds not checked
Setting up Verlet run ...
  Unit style    : metal
  Current step  : 42001
  Time step     : 0.001
Per MPI rank memory allocation (min/avg/max) = 12.95 | 12.96 | 12.96 Mbytes
Step Temp Press TotEng PotEng Enthalpy Volume 
   42001    2274.5085   -216.11373    -82011.34   -87788.798   -82113.197    755126.35 
   42021    2286.8582   -327.35957   -82009.183   -87818.011   -82163.469    755112.37 
   42496    2266.6565    62.467152   -82206.818   -87964.332   -82177.429    753773.58 
Loop time of 37.6401 on 2 procs for 495 steps with 19652 atoms

Performance: 1.136 ns/day, 21.122 hours/ns, 13.151 timesteps/s
99.9% CPU use with 2 MPI tasks x no OpenMP threads

MPI task timing breakdown:
Section |  min time  |  avg time  |  max time  |%varavg| %total
---------------------------------------------------------------
Pair    | 22.954     | 23.039     | 23.124     |   1.8 | 61.21
Neigh   | 13.271     | 13.483     | 13.695     |   5.8 | 35.82
Comm    | 0.45202    | 0.57187    | 0.69172    |  15.8 |  1.52
Output  | 0.058869   | 0.058902   | 0.058936   |   0.0 |  0.16
Modify  | 0.38086    | 0.38416    | 0.38745    |   0.5 |  1.02
Other   |            | 0.1034     |            |       |  0.27

Nlocal:    9826 ave 9851 max 9801 min
Histogram: 1 0 0 0 0 0 0 0 0 1
Nghost:    10927 ave 10941 max 10913 min
Histogram: 1 0 0 0 0 0 0 0 0 1
Neighs:    536096 ave 539711 max 532481 min
Histogram: 1 0 0 0 0 0 0 0 0 1

Total # of neighbors = 1072192
Ave neighs/atom = 54.5589
Neighbor list builds = 495
Dangerous builds not checked
Setting up Verlet run ...
  Unit style    : metal
  Current step  : 42496
  Time step     : 0.001
Per MPI rank memory allocation (min/avg/max) = 12.96 | 12.96 | 12.97 Mbytes
Step Temp Press TotEng PotEng Enthalpy Volume 
   42496    2266.6565    62.467152   -82206.818   -87964.332   -82177.429    753773.58 
   42668    2269.8987   -80.896293   -82175.201   -87940.951   -82213.283    754221.87 
Loop time of 12.8745 on 2 procs for 172 steps with 19652 atoms

Performance: 1.154 ns/day, 20.792 hours/ns, 13.360 timesteps/s
100.0% CPU use with 2 MPI tasks x no OpenMP threads

MPI task timing breakdown:
Section |  min time  |  avg time  |  max time  |%varavg| %total
---------------------------------------------------------------
Pair    | 7.8768     | 7.9064     | 7.9361     |   1.1 | 61.41
Neigh   | 4.6136     | 4.6273     | 4.641      |   0.6 | 35.94
Comm    | 0.15071    | 0.16995    | 0.18919    |   4.7 |  1.32
Output  | 8.1062e-05 | 0.0001061  | 0.00013113 |   0.0 |  0.00
Modify  | 0.13233    | 0.13422    | 0.13612    |   0.5 |  1.04
Other   |            | 0.03653    |            |       |  0.28

Nlocal:    9826 ave 9852 max 9800 min
Histogram: 1 0 0 0 0 0 0 0 0 1
Nghost:    10924.5 ave 10942 max 10907 min
Histogram: 1 0 0 0 0 0 0 0 0 1
Neighs:    535678 ave 539466 max 531890 min
Histogram: 1 0 0 0 0 0 0 0 0 1

Total # of neighbors = 1071356
Ave neighs/atom = 54.5164
Neighbor list builds = 172
Dangerous builds not checked
Setting up Verlet run ...
  Unit style    : metal
  Current step  : 42668
  Time step     : 0.001
Per MPI rank memory allocation (min/avg/max) = 12.96 | 12.96 | 12.97 Mbytes
Step Temp Press TotEng PotEng Enthalpy Volume 
   42668    2269.8987   -80.896293   -82175.201   -87940.951   -82213.283    754221.87 
   42688    2258.7828   -29.607669   -82176.893   -87914.407   -82190.831    754218.43 
   43163    2224.0349    -271.5318   -82421.475   -88070.726   -82549.116    753147.75 
Loop time of 41.9925 on 2 procs for 495 steps with 19652 atoms

Performance: 1.018 ns/day, 23.565 hours/ns, 11.788 timesteps/s
94.7% CPU use with 2 MPI tasks x no OpenMP threads

MPI task timing breakdown:
Section |  min time  |  avg time  |  max time  |%varavg| %total
---------------------------------------------------------------
Pair    | 25.367     | 25.687     | 26.007     |   6.3 | 61.17
Neigh   | 13.291     | 14.111     | 14.93      |  21.8 | 33.60
Comm    | 0.47144    | 1.6269     | 2.7824     |  90.6 |  3.87
Output  | 0.055992   | 0.056033   | 0.056073   |   0.0 |  0.13
Modify  | 0.39639    | 0.40751    | 0.41863    |   1.7 |  0.97
Other   |            | 0.1041     |            |       |  0.25

Nlocal:    9826 ave 9834 max 9818 min
Histogram: 1 0 0 0 0 0 0 0 0 1
Nghost:    10972 ave 10980 max 10964 min
Histogram: 1 0 0 0 0 0 0 0 0 1
Neighs:    536944 ave 538277 max 535612 min
Histogram: 1 0 0 0 0 0 0 0 0 1

Total # of neighbors = 1073889
Ave neighs/atom = 54.6453
Neighbor list builds = 495
Dangerous builds not checked
Setting up Verlet run ...
  Unit style    : metal
  Current step  : 43163
  Time step     : 0.001
Per MPI rank memory allocation (min/avg/max) = 12.96 | 12.96 | 12.97 Mbytes
Step Temp Press TotEng PotEng Enthalpy Volume 
   43163    2224.0349    -271.5318   -82421.475   -88070.726   -82549.116    753147.75 
   43335    2201.8303   -132.10882   -82497.791   -88090.641   -82559.817     752232.4 
Loop time of 15.9246 on 2 procs for 172 steps with 19652 atoms

Performance: 0.933 ns/day, 25.718 hours/ns, 10.801 timesteps/s
91.5% CPU use with 2 MPI tasks x no OpenMP threads

MPI task timing breakdown:
Section |  min time  |  avg time  |  max time  |%varavg| %total
---------------------------------------------------------------
Pair    | 9.4916     | 9.7151     | 9.9387     |   7.2 | 61.01
Neigh   | 4.3086     | 4.96       | 5.6113     |  29.2 | 31.15
Comm    | 0.17627    | 1.0675     | 1.9588     |  86.3 |  6.70
Output  | 7.8917e-05 | 0.00011349 | 0.00014806 |   0.0 |  0.00
Modify  | 0.13469    | 0.14509    | 0.15549    |   2.7 |  0.91
Other   |            | 0.03678    |            |       |  0.23

Nlocal:    9826 ave 9827 max 9825 min
Histogram: 1 0 0 0 0 0 0 0 0 1
Nghost:    10972 ave 10974 max 10970 min
Histogram: 1 0 0 0 0 0 0 0 0 1
Neighs:    537631 ave 538307 max 536955 min
Histogram: 1 0 0 0 0 0 0 0 0 1

Total # of neighbors = 1075262
Ave neighs/atom = 54.7151
Neighbor list builds = 172
Dangerous builds not checked
Setting up Verlet run ...
  Unit style    : metal
  Current step  : 43335
  Time step     : 0.001
Per MPI rank memory allocation (min/avg/max) = 12.96 | 12.96 | 12.97 Mbytes
Step Temp Press TotEng PotEng Enthalpy Volume 
   43335    2201.8303   -132.10882   -82497.791   -88090.641   -82559.817     752232.4 
   43355    2203.6097   -142.90832   -82498.118   -88095.487   -82565.214    752224.28 
   43830    2155.0661    130.96452   -82734.947   -88209.011   -82673.534    751307.89 
Loop time of 38.3432 on 2 procs for 495 steps with 19652 atoms

Performance: 1.115 ns/day, 21.517 hours/ns, 12.910 timesteps/s
99.2% CPU use with 2 MPI tasks x no OpenMP threads

MPI task timing breakdown:
Section |  min time  |  avg time  |  max time  |%varavg| %total
---------------------------------------------------------------
Pair    | 23.333     | 23.41      | 23.486     |   1.6 | 61.05
Neigh   | 13.496     | 13.61      | 13.724     |   3.1 | 35.50
Comm    | 0.74346    | 0.77043    | 0.79741    |   3.1 |  2.01
Output  | 0.05988    | 0.059921   | 0.059962   |   0.0 |  0.16
Modify  | 0.38373    | 0.38959    | 0.39546    |   0.9 |  1.02
Other   |            | 0.1031     |            |       |  0.27

Nlocal:    9826 ave 9854 max 9798 min
Histogram: 1 0 0 0 0 0 0 0 0 1
Nghost:    11030.5 ave 11079 max 10982 min
Histogram: 1 0 0 0 0 0 0 0 0 1
Neighs:    538380 ave 540011 max 536749 min
Histogram: 1 0 0 0 0 0 0 0 0 1

Total # of neighbors = 1076760
Ave neighs/atom = 54.7914
Neighbor list builds = 495
Dangerous builds not checked
Setting up Verlet run ...
  Unit style    : metal
  Current step  : 43830
  Time step     : 0.001
Per MPI rank memory allocation (min/avg/max) = 12.96 | 12.96 | 12.97 Mbytes
Step Temp Press TotEng PotEng Enthalpy Volume 
   43830    2155.0661    130.96452   -82734.947   -88209.011   -82673.534    751307.89 
   44002    2141.6474   -177.31404   -82809.012   -88248.992   -82892.172    751411.89 
Loop time of 12.8105 on 2 procs for 172 steps with 19652 atoms

Performance: 1.160 ns/day, 20.689 hours/ns, 13.427 timesteps/s
100.0% CPU use with 2 MPI tasks x no OpenMP threads

MPI task timing breakdown:
Section |  min time  |  avg time  |  max time  |%varavg| %total
---------------------------------------------------------------
Pair    | 7.7579     | 7.8359     | 7.9139     |   2.8 | 61.17
Neigh   | 4.5709     | 4.5746     | 4.5782     |   0.2 | 35.71
Comm    | 0.15291    | 0.23141    | 0.30992    |  16.3 |  1.81
Output  | 7.391e-05  | 0.00010538 | 0.00013685 |   0.0 |  0.00
Modify  | 0.13127    | 0.13301    | 0.13475    |   0.5 |  1.04
Other   |            | 0.03545    |            |       |  0.28

Nlocal:    9826 ave 9869 max 9783 min
Histogram: 1 0 0 0 0 0 0 0 0 1
Nghost:    11003 ave 11066 max 10940 min
Histogram: 1 0 0 0 0 0 0 0 0 1
Neighs:    538437 ave 540937 max 535937 min
Histogram: 1 0 0 0 0 0 0 0 0 1

Total # of neighbors = 1076874
Ave neighs/atom = 54.7972
Neighbor list builds = 172
Dangerous builds not checked
Setting up Verlet run ...
  Unit style    : metal
  Current step  : 44002
  Time step     : 0.001
Per MPI rank memory allocation (min/avg/max) = 12.96 | 12.96 | 12.97 Mbytes
Step Temp Press TotEng PotEng Enthalpy Volume 
   44002    2141.6474   -177.31404   -82809.012   -88248.992   -82892.172    751411.89 
   44022    2155.2525   -189.84474   -82808.722    -88283.26   -82897.757    751401.33 
   44497    2091.5688   -511.05089   -83069.456   -88382.231   -83309.101    751302.27 
Loop time of 39.6962 on 2 procs for 495 steps with 19652 atoms

Performance: 1.077 ns/day, 22.276 hours/ns, 12.470 timesteps/s
98.3% CPU use with 2 MPI tasks x no OpenMP threads

MPI task timing breakdown:
Section |  min time  |  avg time  |  max time  |%varavg| %total
---------------------------------------------------------------
Pair    | 24.061     | 24.224     | 24.387     |   3.3 | 61.02
Neigh   | 13.666     | 13.921     | 14.176     |   6.8 | 35.07
Comm    | 0.91161    | 0.99708    | 1.0826     |   8.6 |  2.51
Output  | 0.061955   | 0.061991   | 0.062027   |   0.0 |  0.16
Modify  | 0.38815    | 0.39043    | 0.39272    |   0.4 |  0.98
Other   |            | 0.1022     |            |       |  0.26

Nlocal:    9826 ave 9863 max 9789 min
Histogram: 1 0 0 0 0 0 0 0 0 1
Nghost:    11008 ave 11092 max 10924 min
Histogram: 1 0 0 0 0 0 0 0 0 1
Neighs:    538834 ave 541280 max 536387 min
Histogram: 1 0 0 0 0 0 0 0 0 1

Total # of neighbors = 1077667
Ave neighs/atom = 54.8375
Neighbor list builds = 495
Dangerous builds not checked
Setting up Verlet run ...
  Unit style    : metal
  Current step  : 44497
  Time step     : 0.001
Per MPI rank memory allocation (min/avg/max) = 12.96 | 12.96 | 12.97 Mbytes
Step Temp Press TotEng PotEng Enthalpy Volume 
   44497    2091.5688   -511.05089   -83069.456   -88382.231   -83309.101    751302.27 
   44669    2101.0817    462.12822   -83091.006   -88427.945   -82874.864    749353.47 
Loop time of 12.1579 on 2 procs for 172 steps with 19652 atoms

Performance: 1.222 ns/day, 19.635 hours/ns, 14.147 timesteps/s
99.8% CPU use with 2 MPI tasks x no OpenMP threads

MPI task timing breakdown:
Section |  min time  |  avg time  |  max time  |%varavg| %total
---------------------------------------------------------------
Pair    | 7.3823     | 7.4253     | 7.4683     |   1.6 | 61.07
Neigh   | 4.3411     | 4.3795     | 4.4179     |   1.8 | 36.02
Comm    | 0.19114    | 0.19756    | 0.20399    |   1.4 |  1.62
Output  | 5.9128e-05 | 8.3089e-05 | 0.00010705 |   0.0 |  0.00
Modify  | 0.12168    | 0.12246    | 0.12324    |   0.2 |  1.01
Other   |            | 0.03298    |            |       |  0.27

Nlocal:    9826 ave 9867 max 9785 min
Histogram: 1 0 0 0 0 0 0 0 0 1
Nghost:    11003 ave 11065 max 10941 min
Histogram: 1 0 0 0 0 0 0 0 0 1
Neighs:    540426 ave 542751 max 538101 min
Histogram: 1 0 0 0 0 0 0 0 0 1

Total # of neighbors = 1080852
Ave neighs/atom = 54.9996
Neighbor list builds = 172
Dangerous builds not checked
Setting up Verlet run ...
  Unit style    : metal
  Current step  : 44669
  Time step     : 0.001
Per MPI rank memory allocation (min/avg/max) = 12.96 | 12.96 | 12.97 Mbytes
Step Temp Press TotEng PotEng Enthalpy Volume 
   44669    2101.0817    462.12822   -83091.006   -88427.945   -82874.864    749353.47 
   44689    2107.7572    472.99977   -83091.468   -88445.364   -82870.234     749380.9 
   45164     2062.461    35.221823   -83325.146   -88563.985   -83308.657    750029.94 
Loop time of 37.0563 on 2 procs for 495 steps with 19652 atoms

Performance: 1.154 ns/day, 20.795 hours/ns, 13.358 timesteps/s
99.9% CPU use with 2 MPI tasks x no OpenMP threads

MPI task timing breakdown:
Section |  min time  |  avg time  |  max time  |%varavg| %total
---------------------------------------------------------------
Pair    | 22.239     | 22.497     | 22.754     |   5.4 | 60.71
Neigh   | 12.807     | 12.99      | 13.173     |   5.1 | 35.06
Comm    | 0.58139    | 1.0344     | 1.4874     |  44.5 |  2.79
Output  | 0.060318   | 0.060361   | 0.060404   |   0.0 |  0.16
Modify  | 0.36791    | 0.37483    | 0.38175    |   1.1 |  1.01
Other   |            | 0.0999     |            |       |  0.27

Nlocal:    9826 ave 9856 max 9796 min
Histogram: 1 0 0 0 0 0 0 0 0 1
Nghost:    11008 ave 11078 max 10938 min
Histogram: 1 0 0 0 0 0 0 0 0 1
Neighs:    540254 ave 541471 max 539037 min
Histogram: 1 0 0 0 0 0 0 0 0 1

Total # of neighbors = 1080508
Ave neighs/atom = 54.9821
Neighbor list builds = 495
Dangerous builds not checked
Setting up Verlet run ...
  Unit style    : metal
  Current step  : 45164
  Time step     : 0.001
Per MPI rank memory allocation (min/avg/max) = 12.96 | 12.96 | 12.97 Mbytes
Step Temp Press TotEng PotEng Enthalpy Volume 
   45164     2062.461    35.221823   -83325.146   -88563.985   -83308.657    750029.94 
   45336    2056.9887   -226.12658   -83391.774   -88616.713   -83497.649    750153.67 
Loop time of 13.8558 on 2 procs for 172 steps with 19652 atoms

Performance: 1.073 ns/day, 22.377 hours/ns, 12.414 timesteps/s
97.0% CPU use with 2 MPI tasks x no OpenMP threads

MPI task timing breakdown:
Section |  min time  |  avg time  |  max time  |%varavg| %total
---------------------------------------------------------------
Pair    | 8.4157     | 8.4933     | 8.571      |   2.7 | 61.30
Neigh   | 4.6365     | 4.6801     | 4.7238     |   2.0 | 33.78
Comm    | 0.4666     | 0.50425    | 0.54191    |   5.3 |  3.64
Output  | 7.6056e-05 | 0.00010109 | 0.00012612 |   0.0 |  0.00
Modify  | 0.14198    | 0.14311    | 0.14424    |   0.3 |  1.03
Other   |            | 0.03485    |            |       |  0.25

Nlocal:    9826 ave 9848 max 9804 min
Histogram: 1 0 0 0 0 0 0 0 0 1
Nghost:    11045.5 ave 11083 max 11008 min
Histogram: 1 0 0 0 0 0 0 0 0 1
Neighs:    539964 ave 540341 max 539588 min
Histogram: 1 0 0 0 0 0 0 0 0 1

Total # of neighbors = 1079929
Ave neighs/atom = 54.9526
Neighbor list builds = 172
Dangerous builds not checked
Setting up Verlet run ...
  Unit style    : metal
  Current step  : 45336
  Time step     : 0.001
Per MPI rank memory allocation (min/avg/max) = 12.96 | 12.96 | 12.97 Mbytes
Step Temp Press TotEng PotEng Enthalpy Volume 
   45336    2056.9887   -226.12658   -83391.774   -88616.713   -83497.649    750153.67 
   45356    2061.6748   -237.26536   -83392.753   -88629.595   -83503.841    750139.66 
   45831    2014.0729   -217.44912   -83655.729   -88771.658   -83757.366    748861.55 
Loop time of 38.2992 on 2 procs for 495 steps with 19652 atoms

Performance: 1.117 ns/day, 21.492 hours/ns, 12.925 timesteps/s
99.6% CPU use with 2 MPI tasks x no OpenMP threads

MPI task timing breakdown:
Section |  min time  |  avg time  |  max time  |%varavg| %total
---------------------------------------------------------------
Pair    | 23.19      | 23.335     | 23.481     |   3.0 | 60.93
Neigh   | 13.082     | 13.3       | 13.517     |   6.0 | 34.73
Comm    | 0.74635    | 1.1224     | 1.4985     |  35.5 |  2.93
Output  | 0.062277   | 0.062319   | 0.062361   |   0.0 |  0.16
Modify  | 0.37216    | 0.37965    | 0.38714    |   1.2 |  0.99
Other   |            | 0.09965    |            |       |  0.26

Nlocal:    9826 ave 9830 max 9822 min
Histogram: 1 0 0 0 0 0 0 0 0 1
Nghost:    10998 ave 11047 max 10949 min
Histogram: 1 0 0 0 0 0 0 0 0 1
Neighs:    541176 ave 542204 max 540149 min
Histogram: 1 0 0 0 0 0 0 0 0 1

Total # of neighbors = 1082353
Ave neighs/atom = 55.076
Neighbor list builds = 495
Dangerous builds not checked
Setting up Verlet run ...
  Unit style    : metal
  Current step  : 45831
  Time step     : 0.001
Per MPI rank memory allocation (min/avg/max) = 12.96 | 12.96 | 12.97 Mbytes
Step Temp Press TotEng PotEng Enthalpy Volume 
   45831    2014.0729   -217.44912   -83655.729   -88771.658   -83757.366    748861.55 
   46003    2001.4762    330.61874   -83673.982   -88757.914    -83519.69    747699.44 
Loop time of 13.081 on 2 procs for 172 steps with 19652 atoms

Performance: 1.136 ns/day, 21.126 hours/ns, 13.149 timesteps/s
99.7% CPU use with 2 MPI tasks x no OpenMP threads

MPI task timing breakdown:
Section |  min time  |  avg time  |  max time  |%varavg| %total
---------------------------------------------------------------
Pair    | 7.8971     | 7.9581     | 8.0191     |   2.2 | 60.84
Neigh   | 4.289      | 4.5187     | 4.7484     |  10.8 | 34.54
Comm    | 0.14139    | 0.44074    | 0.7401     |  45.1 |  3.37
Output  | 8.5115e-05 | 0.00010717 | 0.00012922 |   0.0 |  0.00
Modify  | 0.12341    | 0.12917    | 0.13493    |   1.6 |  0.99
Other   |            | 0.03423    |            |       |  0.26

Nlocal:    9826 ave 9830 max 9822 min
Histogram: 1 0 0 0 0 0 0 0 0 1
Nghost:    11035.5 ave 11106 max 10965 min
Histogram: 1 0 0 0 0 0 0 0 0 1
Neighs:    541946 ave 543123 max 540770 min
Histogram: 1 0 0 0 0 0 0 0 0 1

Total # of neighbors = 1083893
Ave neighs/atom = 55.1543
Neighbor list builds = 172
Dangerous builds not checked
Setting up Verlet run ...
  Unit style    : metal
  Current step  : 46003
  Time step     : 0.001
Per MPI rank memory allocation (min/avg/max) = 12.96 | 12.96 | 12.97 Mbytes
Step Temp Press TotEng PotEng Enthalpy Volume 
   46003    2001.4762    330.61874   -83673.982   -88757.914    -83519.69    747699.44 
   46023    2004.5043    300.90735   -83674.364   -88765.988   -83533.934    747719.65 
   46498    1956.6173    243.13307   -83927.745   -88897.731   -83814.413    746819.97 
Loop time of 39.3051 on 2 procs for 495 steps with 19652 atoms

Performance: 1.088 ns/day, 22.057 hours/ns, 12.594 timesteps/s
98.1% CPU use with 2 MPI tasks x no OpenMP threads

MPI task timing breakdown:
Section |  min time  |  avg time  |  max time  |%varavg| %total
---------------------------------------------------------------
Pair    | 23.573     | 23.847     | 24.121     |   5.6 | 60.67
Neigh   | 13.042     | 13.413     | 13.784     |  10.1 | 34.12
Comm    | 0.81603    | 1.4841     | 2.1521     |  54.8 |  3.78
Output  | 0.062724   | 0.062768   | 0.062813   |   0.0 |  0.16
Modify  | 0.37697    | 0.39644    | 0.41591    |   3.1 |  1.01
Other   |            | 0.1016     |            |       |  0.26

Nlocal:    9826 ave 9845 max 9807 min
Histogram: 1 0 0 0 0 0 0 0 0 1
Nghost:    11004.5 ave 11062 max 10947 min
Histogram: 1 0 0 0 0 0 0 0 0 1
Neighs:    542774 ave 543140 max 542407 min
Histogram: 1 0 0 0 0 0 0 0 0 1

Total # of neighbors = 1085547
Ave neighs/atom = 55.2385
Neighbor list builds = 495
Dangerous builds not checked
Setting up Verlet run ...
  Unit style    : metal
  Current step  : 46498
  Time step     : 0.001
Per MPI rank memory allocation (min/avg/max) = 12.96 | 12.96 | 12.97 Mbytes
Step Temp Press TotEng PotEng Enthalpy Volume 
   46498    1956.6173    243.13307   -83927.745   -88897.731   -83814.413    746819.97 
   46670    1948.0708   -144.04759   -83991.499   -88939.777   -84058.665     747049.7 
Loop time of 13.3997 on 2 procs for 172 steps with 19652 atoms

Performance: 1.109 ns/day, 21.640 hours/ns, 12.836 timesteps/s
98.2% CPU use with 2 MPI tasks x no OpenMP threads

MPI task timing breakdown:
Section |  min time  |  avg time  |  max time  |%varavg| %total
---------------------------------------------------------------
Pair    | 8.1371     | 8.1977     | 8.2583     |   2.1 | 61.18
Neigh   | 4.5982     | 4.7321     | 4.8659     |   6.2 | 35.31
Comm    | 0.21482    | 0.28946    | 0.3641     |  13.9 |  2.16
Output  | 8.0109e-05 | 0.00010204 | 0.00012398 |   0.0 |  0.00
Modify  | 0.1418     | 0.14463    | 0.14745    |   0.7 |  1.08
Other   |            | 0.03578    |            |       |  0.27

Nlocal:    9826 ave 9831 max 9821 min
Histogram: 1 0 0 0 0 0 0 0 0 1
Nghost:    11033.5 ave 11087 max 10980 min
Histogram: 1 0 0 0 0 0 0 0 0 1
Neighs:    542812 ave 543805 max 541820 min
Histogram: 1 0 0 0 0 0 0 0 0 1

Total # of neighbors = 1085625
Ave neighs/atom = 55.2425
Neighbor list builds = 172
Dangerous builds not checked
Setting up Verlet run ...
  Unit style    : metal
  Current step  : 46670
  Time step     : 0.001
Per MPI rank memory allocation (min/avg/max) = 12.96 | 12.96 | 12.97 Mbytes
Step Temp Press TotEng PotEng Enthalpy Volume 
   46670    1948.0708   -144.04759   -83991.499   -88939.777   -84058.665     747049.7 
   46690    1955.5958   -115.86151   -83991.676   -88959.068   -84045.698       747041 
   47165    1899.8382    54.479544   -84211.514   -89037.276   -84186.146    746039.16 
Loop time of 41.1459 on 2 procs for 495 steps with 19652 atoms

Performance: 1.039 ns/day, 23.090 hours/ns, 12.030 timesteps/s
98.1% CPU use with 2 MPI tasks x no OpenMP threads

MPI task timing breakdown:
Section |  min time  |  avg time  |  max time  |%varavg| %total
---------------------------------------------------------------
Pair    | 24.859     | 25.096     | 25.332     |   4.7 | 60.99
Neigh   | 13.364     | 13.985     | 14.606     |  16.6 | 33.99
Comm    | 0.61874    | 1.4949     | 2.371      |  71.7 |  3.63
Output  | 0.055175   | 0.055215   | 0.055255   |   0.0 |  0.13
Modify  | 0.40084    | 0.41273    | 0.42462    |   1.9 |  1.00
Other   |            | 0.1027     |            |       |  0.25

Nlocal:    9826 ave 9876 max 9776 min
Histogram: 1 0 0 0 0 0 0 0 0 1
Nghost:    11045 ave 11139 max 10951 min
Histogram: 1 0 0 0 0 0 0 0 0 1
Neighs:    543644 ave 546009 max 541278 min
Histogram: 1 0 0 0 0 0 0 0 0 1

Total # of neighbors = 1087287
Ave neighs/atom = 55.327
Neighbor list builds = 495
Dangerous builds not checked
Setting up Verlet run ...
  Unit style    : metal
  Current step  : 47165
  Time step     : 0.001
Per MPI rank memory allocation (min/avg/max) = 12.96 | 12.96 | 12.97 Mbytes
Step Temp Press TotEng PotEng Enthalpy Volume 
   47165    1899.8382    54.479544   -84211.514   -89037.276   -84186.146    746039.16 
   47337    1932.1062    -86.43931   -84198.357   -89106.083   -84238.598    745877.45 
Loop time of 14.9365 on 2 procs for 172 steps with 19652 atoms

Performance: 0.995 ns/day, 24.122 hours/ns, 11.515 timesteps/s
94.8% CPU use with 2 MPI tasks x no OpenMP threads

MPI task timing breakdown:
Section |  min time  |  avg time  |  max time  |%varavg| %total
---------------------------------------------------------------
Pair    | 9.131      | 9.1517     | 9.1723     |   0.7 | 61.27
Neigh   | 5.0075     | 5.0253     | 5.0432     |   0.8 | 33.64
Comm    | 0.53971    | 0.57979    | 0.61988    |   5.3 |  3.88
Output  | 7.391e-05  | 0.00010097 | 0.00012803 |   0.0 |  0.00
Modify  | 0.14049    | 0.14057    | 0.14065    |   0.0 |  0.94
Other   |            | 0.039      |            |       |  0.26

Nlocal:    9826 ave 9870 max 9782 min
Histogram: 1 0 0 0 0 0 0 0 0 1
Nghost:    11025 ave 11105 max 10945 min
Histogram: 1 0 0 0 0 0 0 0 0 1
Neighs:    543768 ave 545863 max 541674 min
Histogram: 1 0 0 0 0 0 0 0 0 1

Total # of neighbors = 1087537
Ave neighs/atom = 55.3398
Neighbor list builds = 172
Dangerous builds not checked
Setting up Verlet run ...
  Unit style    : metal
  Current step  : 47337
  Time step     : 0.001
Per MPI rank memory allocation (min/avg/max) = 12.96 | 12.96 | 12.97 Mbytes
Step Temp Press TotEng PotEng Enthalpy Volume 
   47337    1932.1062    -86.43931   -84198.357   -89106.083   -84238.598    745877.45 
   47357    1928.3629   -11.244088   -84201.702    -89099.92   -84206.937    745873.45 
   47832    1860.6613    113.43576   -84512.687   -89238.936   -84459.964    744660.94 
Loop time of 37.7969 on 2 procs for 495 steps with 19652 atoms

Performance: 1.132 ns/day, 21.210 hours/ns, 13.096 timesteps/s
99.3% CPU use with 2 MPI tasks x no OpenMP threads

MPI task timing breakdown:
Section |  min time  |  avg time  |  max time  |%varavg| %total
---------------------------------------------------------------
Pair    | 22.819     | 22.995     | 23.171     |   3.7 | 60.84
Neigh   | 13.252     | 13.288     | 13.324     |   1.0 | 35.16
Comm    | 0.81584    | 0.9629     | 1.11       |  15.0 |  2.55
Output  | 0.064907   | 0.064951   | 0.064994   |   0.0 |  0.17
Modify  | 0.38025    | 0.38335    | 0.38646    |   0.5 |  1.01
Other   |            | 0.1022     |            |       |  0.27

Nlocal:    9826 ave 9869 max 9783 min
Histogram: 1 0 0 0 0 0 0 0 0 1
Nghost:    11071 ave 11143 max 10999 min
Histogram: 1 0 0 0 0 0 0 0 0 1
Neighs:    545043 ave 547927 max 542159 min
Histogram: 1 0 0 0 0 0 0 0 0 1

Total # of neighbors = 1090086
Ave neighs/atom = 55.4695
Neighbor list builds = 495
Dangerous builds not checked
Setting up Verlet run ...
  Unit style    : metal
  Current step  : 47832
  Time step     : 0.001
Per MPI rank memory allocation (min/avg/max) = 12.96 | 12.96 | 12.97 Mbytes
Step Temp Press TotEng PotEng Enthalpy Volume 
   47832    1860.6613    113.43576   -84512.687   -89238.936   -84459.964    744660.94 
   48004     1851.002   -194.72166   -84598.245   -89299.959   -84688.834    745364.41 
Loop time of 12.6859 on 2 procs for 172 steps with 19652 atoms

Performance: 1.171 ns/day, 20.488 hours/ns, 13.558 timesteps/s
100.0% CPU use with 2 MPI tasks x no OpenMP threads

MPI task timing breakdown:
Section |  min time  |  avg time  |  max time  |%varavg| %total
---------------------------------------------------------------
Pair    | 7.6676     | 7.7373     | 7.807      |   2.5 | 60.99
Neigh   | 4.5598     | 4.5868     | 4.6138     |   1.3 | 36.16
Comm    | 0.14583    | 0.18993    | 0.23404    |  10.1 |  1.50
Output  | 7.7963e-05 | 0.00010455 | 0.00013113 |   0.0 |  0.00
Modify  | 0.13531    | 0.1354     | 0.13549    |   0.0 |  1.07
Other   |            | 0.03643    |            |       |  0.29

Nlocal:    9826 ave 9893 max 9759 min
Histogram: 1 0 0 0 0 0 0 0 0 1
Nghost:    11086.5 ave 11181 max 10992 min
Histogram: 1 0 0 0 0 0 0 0 0 1
Neighs:    544480 ave 548812 max 540148 min
Histogram: 1 0 0 0 0 0 0 0 0 1

Total # of neighbors = 1088960
Ave neighs/atom = 55.4122
Neighbor list builds = 172
Dangerous builds not checked
Setting up Verlet run ...
  Unit style    : metal
  Current step  : 48004
  Time step     : 0.001
Per MPI rank memory allocation (min/avg/max) = 12.96 | 12.96 | 12.97 Mbytes
Step Temp Press TotEng PotEng Enthalpy Volume 
   48004     1851.002   -194.72166   -84598.245   -89299.959   -84688.834    745364.41 
   48024    1849.8198   -209.82519   -84598.333   -89297.043   -84695.946     745351.4 
   48499    1813.1685   -75.766255   -84837.179   -89442.792   -84872.395    744682.29 
Loop time of 37.6222 on 2 procs for 495 steps with 19652 atoms

Performance: 1.137 ns/day, 21.112 hours/ns, 13.157 timesteps/s
99.9% CPU use with 2 MPI tasks x no OpenMP threads

MPI task timing breakdown:
Section |  min time  |  avg time  |  max time  |%varavg| %total
---------------------------------------------------------------
Pair    | 22.914     | 23.052     | 23.191     |   2.9 | 61.27
Neigh   | 13.315     | 13.316     | 13.317     |   0.0 | 35.39
Comm    | 0.55992    | 0.71186    | 0.86381    |  18.0 |  1.89
Output  | 0.05761    | 0.057647   | 0.057683   |   0.0 |  0.15
Modify  | 0.373      | 0.38106    | 0.38911    |   1.3 |  1.01
Other   |            | 0.1029     |            |       |  0.27

Nlocal:    9826 ave 9860 max 9792 min
Histogram: 1 0 0 0 0 0 0 0 0 1
Nghost:    11109 ave 11177 max 11041 min
Histogram: 1 0 0 0 0 0 0 0 0 1
Neighs:    545528 ave 547276 max 543779 min
Histogram: 1 0 0 0 0 0 0 0 0 1

Total # of neighbors = 1091055
Ave neighs/atom = 55.5188
Neighbor list builds = 495
Dangerous builds not checked
Setting up Verlet run ...
  Unit style    : metal
  Current step  : 48499
  Time step     : 0.001
Per MPI rank memory allocation (min/avg/max) = 12.96 | 12.96 | 12.97 Mbytes
Step Temp Press TotEng PotEng Enthalpy Volume 
   48499    1813.1685   -75.766255   -84837.179   -89442.792   -84872.395    744682.29 
   48671    1792.0682    114.70653    -84914.24   -89466.257   -84861.003    743594.69 
Loop time of 13.0527 on 2 procs for 172 steps with 19652 atoms

Performance: 1.139 ns/day, 21.080 hours/ns, 13.177 timesteps/s
99.6% CPU use with 2 MPI tasks x no OpenMP threads

MPI task timing breakdown:
Section |  min time  |  avg time  |  max time  |%varavg| %total
---------------------------------------------------------------
Pair    | 7.9933     | 8.02       | 8.0467     |   0.9 | 61.44
Neigh   | 4.6012     | 4.6569     | 4.7126     |   2.6 | 35.68
Comm    | 0.17605    | 0.20312    | 0.23019    |   6.0 |  1.56
Output  | 7.391e-05  | 0.00010097 | 0.00012803 |   0.0 |  0.00
Modify  | 0.13587    | 0.13614    | 0.1364     |   0.1 |  1.04
Other   |            | 0.0364     |            |       |  0.28

Nlocal:    9826 ave 9861 max 9791 min
Histogram: 1 0 0 0 0 0 0 0 0 1
Nghost:    11065 ave 11124 max 11006 min
Histogram: 1 0 0 0 0 0 0 0 0 1
Neighs:    546516 ave 548206 max 544826 min
Histogram: 1 0 0 0 0 0 0 0 0 1

Total # of neighbors = 1093032
Ave neighs/atom = 55.6194
Neighbor list builds = 172
Dangerous builds not checked
Setting up Verlet run ...
  Unit style    : metal
  Current step  : 48671
  Time step     : 0.001
Per MPI rank memory allocation (min/avg/max) = 12.96 | 12.96 | 12.97 Mbytes
Step Temp Press TotEng PotEng Enthalpy Volume 
   48671    1792.0682    114.70653    -84914.24   -89466.257   -84861.003    743594.69 
   48691    1793.4332     161.8103   -84913.538   -89469.022   -84838.439    743603.81 
   49166    1765.5331    573.24465    -85181.16   -89665.775   -84915.612    742186.54 
Loop time of 37.6882 on 2 procs for 495 steps with 19652 atoms

Performance: 1.135 ns/day, 21.149 hours/ns, 13.134 timesteps/s
99.5% CPU use with 2 MPI tasks x no OpenMP threads

MPI task timing breakdown:
Section |  min time  |  avg time  |  max time  |%varavg| %total
---------------------------------------------------------------
Pair    | 22.955     | 23.066     | 23.177     |   2.3 | 61.20
Neigh   | 13.303     | 13.364     | 13.425     |   1.7 | 35.46
Comm    | 0.65052    | 0.7093     | 0.76808    |   7.0 |  1.88
Output  | 0.055363   | 0.055405   | 0.055448   |   0.0 |  0.15
Modify  | 0.38099    | 0.38728    | 0.39357    |   1.0 |  1.03
Other   |            | 0.1062     |            |       |  0.28

Nlocal:    9826 ave 9844 max 9808 min
Histogram: 1 0 0 0 0 0 0 0 0 1
Nghost:    11067.5 ave 11124 max 11011 min
Histogram: 1 0 0 0 0 0 0 0 0 1
Neighs:    548092 ave 548571 max 547613 min
Histogram: 1 0 0 0 0 0 0 0 0 1

Total # of neighbors = 1096184
Ave neighs/atom = 55.7798
Neighbor list builds = 495
Dangerous builds not checked
Setting up Verlet run ...
  Unit style    : metal
  Current step  : 49166
  Time step     : 0.001
Per MPI rank memory allocation (min/avg/max) = 12.96 | 12.96 | 12.97 Mbytes
Step Temp Press TotEng PotEng Enthalpy Volume 
   49166    1765.5331    573.24465    -85181.16   -89665.775   -84915.612    742186.54 
   49338    1759.5954   -661.53408   -85268.095   -89737.628   -85575.004     743305.2 
Loop time of 13.0375 on 2 procs for 172 steps with 19652 atoms

Performance: 1.140 ns/day, 21.055 hours/ns, 13.193 timesteps/s
100.0% CPU use with 2 MPI tasks x no OpenMP threads

MPI task timing breakdown:
Section |  min time  |  avg time  |  max time  |%varavg| %total
---------------------------------------------------------------
Pair    | 7.9332     | 8.0118     | 8.0903     |   2.8 | 61.45
Neigh   | 4.6308     | 4.6608     | 4.6908     |   1.4 | 35.75
Comm    | 0.14803    | 0.19665    | 0.24527    |  11.0 |  1.51
Output  | 7.5102e-05 | 0.0001055  | 0.0001359  |   0.0 |  0.00
Modify  | 0.13029    | 0.13211    | 0.13393    |   0.5 |  1.01
Other   |            | 0.03612    |            |       |  0.28

Nlocal:    9826 ave 9841 max 9811 min
Histogram: 1 0 0 0 0 0 0 0 0 1
Nghost:    11036.5 ave 11098 max 10975 min
Histogram: 1 0 0 0 0 0 0 0 0 1
Neighs:    546952 ave 547123 max 546780 min
Histogram: 1 0 0 0 0 0 0 0 0 1

Total # of neighbors = 1093903
Ave neighs/atom = 55.6637
Neighbor list builds = 172
Dangerous builds not checked
Setting up Verlet run ...
  Unit style    : metal
  Current step  : 49338
  Time step     : 0.001
Per MPI rank memory allocation (min/avg/max) = 12.96 | 12.96 | 12.97 Mbytes
Step Temp Press TotEng PotEng Enthalpy Volume 
   49338    1759.5954   -661.53408   -85268.095   -89737.628   -85575.004     743305.2 
   49358    1753.2711   -479.38706   -85269.008   -89722.476   -85491.399    743262.42 
   49833    1713.1133    148.70032   -85503.681   -89855.145   -85434.826    741879.17 
Loop time of 39.6481 on 2 procs for 495 steps with 19652 atoms

Performance: 1.079 ns/day, 22.249 hours/ns, 12.485 timesteps/s
97.8% CPU use with 2 MPI tasks x no OpenMP threads

MPI task timing breakdown:
Section |  min time  |  avg time  |  max time  |%varavg| %total
---------------------------------------------------------------
Pair    | 23.783     | 24.115     | 24.447     |   6.8 | 60.82
Neigh   | 13.452     | 13.73      | 14.008     |   7.5 | 34.63
Comm    | 0.48882    | 1.1174     | 1.746      |  59.5 |  2.82
Output  | 0.17848    | 0.17852    | 0.17855    |   0.0 |  0.45
Modify  | 0.39124    | 0.39927    | 0.40731    |   1.3 |  1.01
Other   |            | 0.1084     |            |       |  0.27

Nlocal:    9826 ave 9833 max 9819 min
Histogram: 1 0 0 0 0 0 0 0 0 1
Nghost:    11053.5 ave 11106 max 11001 min
Histogram: 1 0 0 0 0 0 0 0 0 1
Neighs:    548226 ave 549228 max 547225 min
Histogram: 1 0 0 0 0 0 0 0 0 1

Total # of neighbors = 1096453
Ave neighs/atom = 55.7935
Neighbor list builds = 495
Dangerous builds not checked
Setting up Verlet run ...
  Unit style    : metal
  Current step  : 49833
  Time step     : 0.001
Per MPI rank memory allocation (min/avg/max) = 12.96 | 12.96 | 12.97 Mbytes
Step Temp Press TotEng PotEng Enthalpy Volume 
   49833    1713.1133    148.70032   -85503.681   -89855.145   -85434.826    741879.17 
   50005    1707.4483   -98.738481   -85583.867   -89920.941   -85629.568    741579.07 
Loop time of 13.3762 on 2 procs for 172 steps with 19652 atoms

Performance: 1.111 ns/day, 21.602 hours/ns, 12.859 timesteps/s
99.1% CPU use with 2 MPI tasks x no OpenMP threads

MPI task timing breakdown:
Section |  min time  |  avg time  |  max time  |%varavg| %total
---------------------------------------------------------------
Pair    | 8.1192     | 8.2018     | 8.2844     |   2.9 | 61.32
Neigh   | 4.5164     | 4.6053     | 4.6942     |   4.1 | 34.43
Comm    | 0.39065    | 0.39907    | 0.4075     |   1.3 |  2.98
Output  | 7.7009e-05 | 0.00010252 | 0.00012803 |   0.0 |  0.00
Modify  | 0.13153    | 0.13426    | 0.137      |   0.7 |  1.00
Other   |            | 0.03568    |            |       |  0.27

Nlocal:    9826 ave 9828 max 9824 min
Histogram: 1 0 0 0 0 0 0 0 0 1
Nghost:    11033 ave 11056 max 11010 min
Histogram: 1 0 0 0 0 0 0 0 0 1
Neighs:    548604 ave 549993 max 547216 min
Histogram: 1 0 0 0 0 0 0 0 0 1

Total # of neighbors = 1097209
Ave neighs/atom = 55.8319
Neighbor list builds = 172
Dangerous builds not checked
Setting up Verlet run ...
  Unit style    : metal
  Current step  : 50005
  Time step     : 0.001
Per MPI rank memory allocation (min/avg/max) = 12.96 | 12.96 | 12.97 Mbytes
Step Temp Press TotEng PotEng Enthalpy Volume 
   50005    1707.4483   -98.738481   -85583.867   -89920.941   -85629.568    741579.07 
   50025    1707.1543   -6.2028392   -85584.723    -89921.05   -85587.594    741574.02 
   50500    1665.5785   -608.69723   -85800.513   -90031.234    -86082.33    741784.21 
Loop time of 38.2744 on 2 procs for 495 steps with 19652 atoms

Performance: 1.117 ns/day, 21.478 hours/ns, 12.933 timesteps/s
99.9% CPU use with 2 MPI tasks x no OpenMP threads

MPI task timing breakdown:
Section |  min time  |  avg time  |  max time  |%varavg| %total
---------------------------------------------------------------
Pair    | 23.059     | 23.349     | 23.639     |   6.0 | 61.00
Neigh   | 12.832     | 13.141     | 13.45      |   8.5 | 34.33
Comm    | 0.63575    | 1.2513     | 1.8668     |  55.0 |  3.27
Output  | 0.059748   | 0.059782   | 0.059817   |   0.0 |  0.16
Modify  | 0.36415    | 0.37376    | 0.38337    |   1.6 |  0.98
Other   |            | 0.09985    |            |       |  0.26

Nlocal:    9826 ave 9829 max 9823 min
Histogram: 1 0 0 0 0 0 0 0 0 1
Nghost:    11056 ave 11074 max 11038 min
Histogram: 1 0 0 0 0 0 0 0 0 1
Neighs:    548516 ave 549490 max 547543 min
Histogram: 1 0 0 0 0 0 0 0 0 1

Total # of neighbors = 1097033
Ave neighs/atom = 55.823
Neighbor list builds = 495
Dangerous builds not checked
Setting up Verlet run ...
  Unit style    : metal
  Current step  : 50500
  Time step     : 0.001
Per MPI rank memory allocation (min/avg/max) = 12.96 | 12.96 | 12.97 Mbytes
Step Temp Press TotEng PotEng Enthalpy Volume 
   50500    1665.5785   -608.69723   -85800.513   -90031.234    -86082.33    741784.21 
   50672    1665.8072    705.95132   -85880.682   -90111.984   -85554.623    740001.12 
Loop time of 13.4944 on 2 procs for 172 steps with 19652 atoms

Performance: 1.101 ns/day, 21.793 hours/ns, 12.746 timesteps/s
98.4% CPU use with 2 MPI tasks x no OpenMP threads

MPI task timing breakdown:
Section |  min time  |  avg time  |  max time  |%varavg| %total
---------------------------------------------------------------
Pair    | 8.2711     | 8.3034     | 8.3358     |   1.1 | 61.53
Neigh   | 4.6458     | 4.7064     | 4.7671     |   2.8 | 34.88
Comm    | 0.28636    | 0.3126     | 0.33885    |   4.7 |  2.32
Output  | 8.2016e-05 | 0.00010598 | 0.00012994 |   0.0 |  0.00
Modify  | 0.1339     | 0.13515    | 0.1364     |   0.3 |  1.00
Other   |            | 0.03665    |            |       |  0.27

Nlocal:    9826 ave 9864 max 9788 min
Histogram: 1 0 0 0 0 0 0 0 0 1
Nghost:    11028 ave 11082 max 10974 min
Histogram: 1 0 0 0 0 0 0 0 0 1
Neighs:    550238 ave 551635 max 548840 min
Histogram: 1 0 0 0 0 0 0 0 0 1

Total # of neighbors = 1100475
Ave neighs/atom = 55.9981
Neighbor list builds = 172
Dangerous builds not checked
Setting up Verlet run ...
  Unit style    : metal
  Current step  : 50672
  Time step     : 0.001
Per MPI rank memory allocation (min/avg/max) = 12.96 | 12.96 | 12.97 Mbytes
Step Temp Press TotEng PotEng Enthalpy Volume 
   50672    1665.8072    705.95132   -85880.682   -90111.984   -85554.623    740001.12 
   50692     1664.396    657.96068   -85882.443    -90110.16   -85578.528    740052.19 
   51167    1608.5417   -69.081858   -86143.672   -90229.515   -86175.581    740048.78 
Loop time of 38.4623 on 2 procs for 495 steps with 19652 atoms

Performance: 1.112 ns/day, 21.584 hours/ns, 12.870 timesteps/s
99.2% CPU use with 2 MPI tasks x no OpenMP threads

MPI task timing breakdown:
Section |  min time  |  avg time  |  max time  |%varavg| %total
---------------------------------------------------------------
Pair    | 23.291     | 23.518     | 23.745     |   4.7 | 61.15
Neigh   | 13.263     | 13.463     | 13.664     |   5.5 | 35.00
Comm    | 0.45483    | 0.89866    | 1.3425     |  46.8 |  2.34
Output  | 0.091144   | 0.091184   | 0.091224   |   0.0 |  0.24
Modify  | 0.37753    | 0.3863     | 0.39506    |   1.4 |  1.00
Other   |            | 0.105      |            |       |  0.27

Nlocal:    9826 ave 9870 max 9782 min
Histogram: 1 0 0 0 0 0 0 0 0 1
Nghost:    11040.5 ave 11102 max 10979 min
Histogram: 1 0 0 0 0 0 0 0 0 1
Neighs:    550126 ave 552102 max 548150 min
Histogram: 1 0 0 0 0 0 0 0 0 1

Total # of neighbors = 1100252
Ave neighs/atom = 55.9868
Neighbor list builds = 495
Dangerous builds not checked
Setting up Verlet run ...
  Unit style    : metal
  Current step  : 51167
  Time step     : 0.001
Per MPI rank memory allocation (min/avg/max) = 12.96 | 12.96 | 12.97 Mbytes
Step Temp Press TotEng PotEng Enthalpy Volume 
   51167    1608.5417   -69.081858   -86143.672   -90229.515   -86175.581    740048.78 
   51339      1604.59   -90.906735    -86213.99   -90289.794   -86255.961    739727.99 
Loop time of 12.9073 on 2 procs for 172 steps with 19652 atoms

Performance: 1.151 ns/day, 20.845 hours/ns, 13.326 timesteps/s
99.6% CPU use with 2 MPI tasks x no OpenMP threads

MPI task timing breakdown:
Section |  min time  |  avg time  |  max time  |%varavg| %total
---------------------------------------------------------------
Pair    | 7.5411     | 7.7627     | 7.9844     |   8.0 | 60.14
Neigh   | 4.474      | 4.5313     | 4.5886     |   2.7 | 35.11
Comm    | 0.16399    | 0.44762    | 0.73126    |  42.4 |  3.47
Output  | 8.7976e-05 | 0.0001055  | 0.00012302 |   0.0 |  0.00
Modify  | 0.12745    | 0.13048    | 0.13351    |   0.8 |  1.01
Other   |            | 0.03497    |            |       |  0.27

Nlocal:    9826 ave 9888 max 9764 min
Histogram: 1 0 0 0 0 0 0 0 0 1
Nghost:    11035 ave 11123 max 10947 min
Histogram: 1 0 0 0 0 0 0 0 0 1
Neighs:    550752 ave 553794 max 547711 min
Histogram: 1 0 0 0 0 0 0 0 0 1

Total # of neighbors = 1101505
Ave neighs/atom = 56.0505
Neighbor list builds = 172
Dangerous builds not checked
Setting up Verlet run ...
  Unit style    : metal
  Current step  : 51339
  Time step     : 0.001
Per MPI rank memory allocation (min/avg/max) = 12.96 | 12.96 | 12.97 Mbytes
Step Temp Press TotEng PotEng Enthalpy Volume 
   51339      1604.59   -90.906735    -86213.99   -90289.794   -86255.961    739727.99 
   51359    1606.0674   -87.626694   -86214.555   -90294.113   -86255.012    739721.24 
   51834    1574.9336    264.62139   -86474.661   -90475.135   -86352.805    737789.23 
Loop time of 37.3652 on 2 procs for 495 steps with 19652 atoms

Performance: 1.145 ns/day, 20.968 hours/ns, 13.248 timesteps/s
99.1% CPU use with 2 MPI tasks x no OpenMP threads

MPI task timing breakdown:
Section |  min time  |  avg time  |  max time  |%varavg| %total
---------------------------------------------------------------
Pair    | 22.006     | 22.279     | 22.552     |   5.8 | 59.63
Neigh   | 13.3       | 13.424     | 13.549     |   3.4 | 35.93
Comm    | 0.5773     | 0.98442    | 1.3915     |  41.0 |  2.63
Output  | 0.1875     | 0.18754    | 0.18758    |   0.0 |  0.50
Modify  | 0.38386    | 0.38858    | 0.39329    |   0.8 |  1.04
Other   |            | 0.1013     |            |       |  0.27

Nlocal:    9826 ave 9858 max 9794 min
Histogram: 1 0 0 0 0 0 0 0 0 1
Nghost:    11085 ave 11131 max 11039 min
Histogram: 1 0 0 0 0 0 0 0 0 1
Neighs:    552484 ave 554273 max 550695 min
Histogram: 1 0 0 0 0 0 0 0 0 1

Total # of neighbors = 1104968
Ave neighs/atom = 56.2267
Neighbor list builds = 495
Dangerous builds not checked
Setting up Verlet run ...
  Unit style    : metal
  Current step  : 51834
  Time step     : 0.001
Per MPI rank memory allocation (min/avg/max) = 12.96 | 12.96 | 12.97 Mbytes
Step Temp Press TotEng PotEng Enthalpy Volume 
   51834    1574.9336    264.62139   -86474.661   -90475.135   -86352.805    737789.23 
   52006    1558.4778   -352.06718   -86537.733   -90496.408   -86700.059    738708.04 
Loop time of 12.3671 on 2 procs for 172 steps with 19652 atoms

Performance: 1.202 ns/day, 19.973 hours/ns, 13.908 timesteps/s
99.8% CPU use with 2 MPI tasks x no OpenMP threads

MPI task timing breakdown:
Section |  min time  |  avg time  |  max time  |%varavg| %total
---------------------------------------------------------------
Pair    | 7.4166     | 7.4628     | 7.509      |   1.7 | 60.34
Neigh   | 4.5356     | 4.5466     | 4.5575     |   0.5 | 36.76
Comm    | 0.15015    | 0.18915    | 0.22816    |   9.0 |  1.53
Output  | 7.6056e-05 | 9.8109e-05 | 0.00012016 |   0.0 |  0.00
Modify  | 0.12986    | 0.13226    | 0.13466    |   0.7 |  1.07
Other   |            | 0.03616    |            |       |  0.29

Nlocal:    9826 ave 9858 max 9794 min
Histogram: 1 0 0 0 0 0 0 0 0 1
Nghost:    11071 ave 11120 max 11022 min
Histogram: 1 0 0 0 0 0 0 0 0 1
Neighs:    551854 ave 553098 max 550611 min
Histogram: 1 0 0 0 0 0 0 0 0 1

Total # of neighbors = 1103709
Ave neighs/atom = 56.1627
Neighbor list builds = 172
Dangerous builds not checked
Setting up Verlet run ...
  Unit style    : metal
  Current step  : 52006
  Time step     : 0.001
Per MPI rank memory allocation (min/avg/max) = 12.96 | 12.96 | 12.97 Mbytes
Step Temp Press TotEng PotEng Enthalpy Volume 
   52006    1558.4778   -352.06718   -86537.733   -90496.408   -86700.059    738708.04 
   52026    1559.3536   -303.17691   -86538.699   -90499.599   -86678.478    738681.23 
   52501    1519.1035    307.70733   -86778.985   -90637.647   -86637.408    737167.59 
Loop time of 37.5609 on 2 procs for 495 steps with 19652 atoms

Performance: 1.139 ns/day, 21.078 hours/ns, 13.179 timesteps/s
97.7% CPU use with 2 MPI tasks x no OpenMP threads

MPI task timing breakdown:
Section |  min time  |  avg time  |  max time  |%varavg| %total
---------------------------------------------------------------
Pair    | 22.468     | 22.472     | 22.476     |   0.1 | 59.83
Neigh   | 12.92      | 13.253     | 13.587     |   9.2 | 35.29
Comm    | 0.78121    | 1.1138     | 1.4465     |  31.5 |  2.97
Output  | 0.24302    | 0.24306    | 0.24309    |   0.0 |  0.65
Modify  | 0.37344    | 0.37761    | 0.38179    |   0.7 |  1.01
Other   |            | 0.1008     |            |       |  0.27

Nlocal:    9826 ave 9849 max 9803 min
Histogram: 1 0 0 0 0 0 0 0 0 1
Nghost:    11057 ave 11123 max 10991 min
Histogram: 1 0 0 0 0 0 0 0 0 1
Neighs:    553096 ave 553734 max 552459 min
Histogram: 1 0 0 0 0 0 0 0 0 1

Total # of neighbors = 1106193
Ave neighs/atom = 56.2891
Neighbor list builds = 495
Dangerous builds not checked
Setting up Verlet run ...
  Unit style    : metal
  Current step  : 52501
  Time step     : 0.001
Per MPI rank memory allocation (min/avg/max) = 12.96 | 12.96 | 12.97 Mbytes
Step Temp Press TotEng PotEng Enthalpy Volume 
   52501    1519.1035    307.70733   -86778.985   -90637.647   -86637.408    737167.59 
   52673    1504.4042    -237.3278   -86849.795   -90671.119   -86959.132    738122.93 
Loop time of 12.4178 on 2 procs for 172 steps with 19652 atoms

Performance: 1.197 ns/day, 20.055 hours/ns, 13.851 timesteps/s
100.0% CPU use with 2 MPI tasks x no OpenMP threads

MPI task timing breakdown:
Section |  min time  |  avg time  |  max time  |%varavg| %total
---------------------------------------------------------------
Pair    | 7.4606     | 7.4952     | 7.5298     |   1.3 | 60.36
Neigh   | 4.4817     | 4.5246     | 4.5674     |   2.0 | 36.44
Comm    | 0.14991    | 0.23048    | 0.31104    |  16.8 |  1.86
Output  | 7.7009e-05 | 9.501e-05  | 0.00011301 |   0.0 |  0.00
Modify  | 0.13101    | 0.13275    | 0.13448    |   0.5 |  1.07
Other   |            | 0.03472    |            |       |  0.28

Nlocal:    9826 ave 9850 max 9802 min
Histogram: 1 0 0 0 0 0 0 0 0 1
Nghost:    11058.5 ave 11142 max 10975 min
Histogram: 1 0 0 0 0 0 0 0 0 1
Neighs:    552662 ave 553025 max 552300 min
Histogram: 1 0 0 0 0 0 0 0 0 1

Total # of neighbors = 1105325
Ave neighs/atom = 56.2449
Neighbor list builds = 172
Dangerous builds not checked
Setting up Verlet run ...
  Unit style    : metal
  Current step  : 52673
  Time step     : 0.001
Per MPI rank memory allocation (min/avg/max) = 12.96 | 12.96 | 12.97 Mbytes
Step Temp Press TotEng PotEng Enthalpy Volume 
   52673    1504.4042    -237.3278   -86849.795   -90671.119   -86959.132    738122.93 
   52693    1504.5042   -227.24793   -86850.353   -90671.931   -86955.043    738104.38 
   53168    1459.5627    308.44819   -87110.595   -90818.018   -86968.802    736519.45 
Loop time of 40.7882 on 2 procs for 495 steps with 19652 atoms

Performance: 1.049 ns/day, 22.889 hours/ns, 12.136 timesteps/s
91.2% CPU use with 2 MPI tasks x no OpenMP threads

MPI task timing breakdown:
Section |  min time  |  avg time  |  max time  |%varavg| %total
---------------------------------------------------------------
Pair    | 21.366     | 21.397     | 21.428     |   0.7 | 52.46
Neigh   | 12.975     | 13.096     | 13.217     |   3.3 | 32.11
Comm    | 0.57599    | 0.73717    | 0.89835    |  18.8 |  1.81
Output  | 5.0673     | 5.0673     | 5.0673     |   0.0 | 12.42
Modify  | 0.38197    | 0.3878     | 0.39364    |   0.9 |  0.95
Other   |            | 0.1023     |            |       |  0.25

Nlocal:    9826 ave 9835 max 9817 min
Histogram: 1 0 0 0 0 0 0 0 0 1
Nghost:    11031 ave 11126 max 10936 min
Histogram: 1 0 0 0 0 0 0 0 0 1
Neighs:    553886 ave 554967 max 552806 min
Histogram: 1 0 0 0 0 0 0 0 0 1

Total # of neighbors = 1107773
Ave neighs/atom = 56.3695
Neighbor list builds = 495
Dangerous builds not checked
Setting up Verlet run ...
  Unit style    : metal
  Current step  : 53168
  Time step     : 0.001
Per MPI rank memory allocation (min/avg/max) = 12.96 | 12.96 | 12.97 Mbytes
Step Temp Press TotEng PotEng Enthalpy Volume 
   53168    1459.5627    308.44819   -87110.595   -90818.018   -86968.802    736519.45 
   53340     1453.273   -274.41504   -87167.235   -90858.681   -87293.446    736880.66 
Loop time of 25.3762 on 2 procs for 172 steps with 19652 atoms

Performance: 0.586 ns/day, 40.982 hours/ns, 6.778 timesteps/s
63.2% CPU use with 2 MPI tasks x no OpenMP threads

MPI task timing breakdown:
Section |  min time  |  avg time  |  max time  |%varavg| %total
---------------------------------------------------------------
Pair    | 7.8336     | 7.8689     | 7.9042     |   1.3 | 31.01
Neigh   | 4.7101     | 4.7228     | 4.7354     |   0.6 | 18.61
Comm    | 10.932     | 10.955     | 10.977     |   0.7 | 43.17
Output  | 7.6056e-05 | 0.00010157 | 0.00012708 |   0.0 |  0.00
Modify  | 1.7923     | 1.7925     | 1.7928     |   0.0 |  7.06
Other   |            | 0.03711    |            |       |  0.15

Nlocal:    9826 ave 9843 max 9809 min
Histogram: 1 0 0 0 0 0 0 0 0 1
Nghost:    11004 ave 11102 max 10906 min
Histogram: 1 0 0 0 0 0 0 0 0 1
Neighs:    553900 ave 554516 max 553283 min
Histogram: 1 0 0 0 0 0 0 0 0 1

Total # of neighbors = 1107799
Ave neighs/atom = 56.3708
Neighbor list builds = 172
Dangerous builds not checked
Setting up Verlet run ...
  Unit style    : metal
  Current step  : 53340
  Time step     : 0.001
Per MPI rank memory allocation (min/avg/max) = 12.96 | 12.96 | 12.97 Mbytes
Step Temp Press TotEng PotEng Enthalpy Volume 
   53340     1453.273   -274.41504   -87167.235   -90858.681   -87293.446    736880.66 
   53360    1457.8951   -334.01278   -87167.817   -90871.003   -87321.433     736856.5 
   53835    1425.6512    512.42628   -87382.209   -91003.493   -87147.129    735011.23 
Loop time of 37.5117 on 2 procs for 495 steps with 19652 atoms

Performance: 1.140 ns/day, 21.050 hours/ns, 13.196 timesteps/s
99.5% CPU use with 2 MPI tasks x no OpenMP threads

MPI task timing breakdown:
Section |  min time  |  avg time  |  max time  |%varavg| %total
---------------------------------------------------------------
Pair    | 22.579     | 22.69      | 22.801     |   2.3 | 60.49
Neigh   | 13.583     | 13.652     | 13.72      |   1.9 | 36.39
Comm    | 0.56178    | 0.60386    | 0.64595    |   5.4 |  1.61
Output  | 0.062846   | 0.062878   | 0.06291    |   0.0 |  0.17
Modify  | 0.39507    | 0.39595    | 0.39683    |   0.1 |  1.06
Other   |            | 0.1072     |            |       |  0.29

Nlocal:    9826 ave 9856 max 9796 min
Histogram: 1 0 0 0 0 0 0 0 0 1
Nghost:    11032.5 ave 11113 max 10952 min
Histogram: 1 0 0 0 0 0 0 0 0 1
Neighs:    555624 ave 556470 max 554778 min
Histogram: 1 0 0 0 0 0 0 0 0 1

Total # of neighbors = 1111248
Ave neighs/atom = 56.5463
Neighbor list builds = 495
Dangerous builds not checked
Setting up Verlet run ...
  Unit style    : metal
  Current step  : 53835
  Time step     : 0.001
Per MPI rank memory allocation (min/avg/max) = 12.96 | 12.96 | 12.97 Mbytes
Step Temp Press TotEng PotEng Enthalpy Volume 
   53835    1425.6512    512.42628   -87382.209   -91003.493   -87147.129    735011.23 
   54007    1408.4263    -461.2259   -87457.551   -91035.082     -87669.6    736602.37 
Loop time of 12.8783 on 2 procs for 172 steps with 19652 atoms

Performance: 1.154 ns/day, 20.798 hours/ns, 13.356 timesteps/s
100.0% CPU use with 2 MPI tasks x no OpenMP threads

MPI task timing breakdown:
Section |  min time  |  avg time  |  max time  |%varavg| %total
---------------------------------------------------------------
Pair    | 7.8488     | 7.8549     | 7.861      |   0.2 | 60.99
Neigh   | 4.5982     | 4.6545     | 4.7108     |   2.6 | 36.14
Comm    | 0.13401    | 0.19743    | 0.26084    |  14.3 |  1.53
Output  | 7.2002e-05 | 9.5487e-05 | 0.00011897 |   0.0 |  0.00
Modify  | 0.13312    | 0.13344    | 0.13376    |   0.1 |  1.04
Other   |            | 0.03791    |            |       |  0.29

Nlocal:    9826 ave 9867 max 9785 min
Histogram: 1 0 0 0 0 0 0 0 0 1
Nghost:    11023.5 ave 11106 max 10941 min
Histogram: 1 0 0 0 0 0 0 0 0 1
Neighs:    554337 ave 555828 max 552846 min
Histogram: 1 0 0 0 0 0 0 0 0 1

Total # of neighbors = 1108674
Ave neighs/atom = 56.4153
Neighbor list builds = 172
Dangerous builds not checked
Setting up Verlet run ...
  Unit style    : metal
  Current step  : 54007
  Time step     : 0.001
Per MPI rank memory allocation (min/avg/max) = 12.96 | 12.96 | 12.97 Mbytes
Step Temp Press TotEng PotEng Enthalpy Volume 
   54007    1408.4263    -461.2259   -87457.551   -91035.082     -87669.6    736602.37 
   54027    1400.6886    -376.6227   -87458.251   -91016.128   -87631.395    736565.08 
   54502    1365.7424     247.0758   -87699.876   -91168.986     -87586.6    734549.05 
Loop time of 58.554 on 2 procs for 495 steps with 19652 atoms

Performance: 0.730 ns/day, 32.859 hours/ns, 8.454 timesteps/s
76.9% CPU use with 2 MPI tasks x no OpenMP threads

MPI task timing breakdown:
Section |  min time  |  avg time  |  max time  |%varavg| %total
---------------------------------------------------------------
Pair    | 36.097     | 36.399     | 36.702     |   5.0 | 62.16
Neigh   | 13.794     | 15.591     | 17.389     |  45.5 | 26.63
Comm    | 3.7542     | 5.8864     | 8.0185     |  87.9 | 10.05
Output  | 0.061451   | 0.061483   | 0.061515   |   0.0 |  0.11
Modify  | 0.46496    | 0.4918     | 0.51864    |   3.8 |  0.84
Other   |            | 0.1237     |            |       |  0.21

Nlocal:    9826 ave 9859 max 9793 min
Histogram: 1 0 0 0 0 0 0 0 0 1
Nghost:    11054.5 ave 11143 max 10966 min
Histogram: 1 0 0 0 0 0 0 0 0 1
Neighs:    556494 ave 557886 max 555101 min
Histogram: 1 0 0 0 0 0 0 0 0 1

Total # of neighbors = 1112987
Ave neighs/atom = 56.6348
Neighbor list builds = 495
Dangerous builds not checked
Setting up Verlet run ...
  Unit style    : metal
  Current step  : 54502
  Time step     : 0.001
Per MPI rank memory allocation (min/avg/max) = 12.96 | 12.96 | 12.97 Mbytes
Step Temp Press TotEng PotEng Enthalpy Volume 
   54502    1365.7424     247.0758   -87699.876   -91168.986     -87586.6    734549.05 
   54674    1353.3829   -235.78411   -87763.038   -91200.754   -87871.251    735315.56 
Loop time of 12.562 on 2 procs for 172 steps with 19652 atoms

Performance: 1.183 ns/day, 20.287 hours/ns, 13.692 timesteps/s
100.0% CPU use with 2 MPI tasks x no OpenMP threads

MPI task timing breakdown:
Section |  min time  |  avg time  |  max time  |%varavg| %total
---------------------------------------------------------------
Pair    | 7.5761     | 7.6349     | 7.6936     |   2.1 | 60.78
Neigh   | 4.479      | 4.5161     | 4.5532     |   1.7 | 35.95
Comm    | 0.14521    | 0.24181    | 0.3384     |  19.6 |  1.92
Output  | 7.7009e-05 | 0.0001055  | 0.00013399 |   0.0 |  0.00
Modify  | 0.12914    | 0.13088    | 0.13262    |   0.5 |  1.04
Other   |            | 0.03822    |            |       |  0.30

Nlocal:    9826 ave 9875 max 9777 min
Histogram: 1 0 0 0 0 0 0 0 0 1
Nghost:    11053.5 ave 11145 max 10962 min
Histogram: 1 0 0 0 0 0 0 0 0 1
Neighs:    555892 ave 558115 max 553669 min
Histogram: 1 0 0 0 0 0 0 0 0 1

Total # of neighbors = 1111784
Ave neighs/atom = 56.5736
Neighbor list builds = 172
Dangerous builds not checked
Setting up Verlet run ...
  Unit style    : metal
  Current step  : 54674
  Time step     : 0.001
Per MPI rank memory allocation (min/avg/max) = 12.96 | 12.96 | 12.97 Mbytes
Step Temp Press TotEng PotEng Enthalpy Volume 
   54674    1353.3829   -235.78411   -87763.038   -91200.754   -87871.251    735315.56 
   54694    1355.7721   -225.06866   -87763.539   -91207.324   -87866.831    735295.12 
   55169    1312.7778   -12.233142   -88005.546   -91340.121    -88011.15    734017.44 
Loop time of 37.878 on 2 procs for 495 steps with 19652 atoms

Performance: 1.129 ns/day, 21.256 hours/ns, 13.068 timesteps/s
98.6% CPU use with 2 MPI tasks x no OpenMP threads

MPI task timing breakdown:
Section |  min time  |  avg time  |  max time  |%varavg| %total
---------------------------------------------------------------
Pair    | 22.838     | 23.101     | 23.365     |   5.5 | 60.99
Neigh   | 13.207     | 13.462     | 13.716     |   6.9 | 35.54
Comm    | 0.74674    | 0.75198    | 0.75722    |   0.6 |  1.99
Output  | 0.056393   | 0.056428   | 0.056463   |   0.0 |  0.15
Modify  | 0.39545    | 0.39598    | 0.39652    |   0.1 |  1.05
Other   |            | 0.1109     |            |       |  0.29

Nlocal:    9826 ave 9869 max 9783 min
Histogram: 1 0 0 0 0 0 0 0 0 1
Nghost:    11037 ave 11147 max 10927 min
Histogram: 1 0 0 0 0 0 0 0 0 1
Neighs:    557323 ave 559227 max 555419 min
Histogram: 1 0 0 0 0 0 0 0 0 1

Total # of neighbors = 1114646
Ave neighs/atom = 56.7192
Neighbor list builds = 495
Dangerous builds not checked
Setting up Verlet run ...
  Unit style    : metal
  Current step  : 55169
  Time step     : 0.001
Per MPI rank memory allocation (min/avg/max) = 12.96 | 12.96 | 12.97 Mbytes
Step Temp Press TotEng PotEng Enthalpy Volume 
   55169    1312.7778   -12.233142   -88005.546   -91340.121    -88011.15    734017.44 
   55341    1305.7242   -21.212407   -88071.175   -91387.834   -88080.895     734148.4 
Loop time of 13.2242 on 2 procs for 172 steps with 19652 atoms

Performance: 1.124 ns/day, 21.357 hours/ns, 13.007 timesteps/s
98.1% CPU use with 2 MPI tasks x no OpenMP threads

MPI task timing breakdown:
Section |  min time  |  avg time  |  max time  |%varavg| %total
---------------------------------------------------------------
Pair    | 7.9724     | 8.0764     | 8.1804     |   3.7 | 61.07
Neigh   | 4.6533     | 4.6856     | 4.718      |   1.5 | 35.43
Comm    | 0.1462     | 0.28775    | 0.4293     |  26.4 |  2.18
Output  | 8.1062e-05 | 9.8467e-05 | 0.00011587 |   0.0 |  0.00
Modify  | 0.13113    | 0.13688    | 0.14263    |   1.6 |  1.04
Other   |            | 0.03734    |            |       |  0.28

Nlocal:    9826 ave 9877 max 9775 min
Histogram: 1 0 0 0 0 0 0 0 0 1
Nghost:    11044.5 ave 11156 max 10933 min
Histogram: 1 0 0 0 0 0 0 0 0 1
Neighs:    557330 ave 559552 max 555109 min
Histogram: 1 0 0 0 0 0 0 0 0 1

Total # of neighbors = 1114661
Ave neighs/atom = 56.72
Neighbor list builds = 172
Dangerous builds not checked
Setting up Verlet run ...
  Unit style    : metal
[...]
Pair    | 22.506     | 22.785     | 23.063     |   5.8 | 59.10
Neigh   | 14.183     | 14.389     | 14.594     |   5.4 | 37.32
Comm    | 0.76524    | 0.8278     | 0.89035    |   6.9 |  2.15
Output  | 0.064682   | 0.064714   | 0.064746   |   0.0 |  0.17
Modify  | 0.37046    | 0.37947    | 0.38848    |   1.5 |  0.98
Other   |            | 0.107      |            |       |  0.28

Nlocal:    9826 ave 9833 max 9819 min
Histogram: 1 0 0 0 0 0 0 0 0 1
Nghost:    11064.5 ave 11105 max 11024 min
Histogram: 1 0 0 0 0 0 0 0 0 1
Neighs:    572430 ave 576907 max 567952 min
Histogram: 1 0 0 0 0 0 0 0 0 1

Total # of neighbors = 1144859
Ave neighs/atom = 58.2566
Neighbor list builds = 495
Dangerous builds not checked
Setting up Verlet run ...
  Unit style    : metal
  Current step  : 67175
  Time step     : 0.001
Per MPI rank memory allocation (min/avg/max) = 12.96 | 12.96 | 12.97 Mbytes
Step Temp Press TotEng PotEng Enthalpy Volume 
   67175    422.56336    105.23171   -93032.686   -94106.035   -92985.211    722814.58 
   67347     410.2624    194.40064   -93087.814   -94129.918   -93000.159    722423.55 
Loop time of 13.569 on 2 procs for 172 steps with 19652 atoms

Performance: 1.095 ns/day, 21.914 hours/ns, 12.676 timesteps/s
100.0% CPU use with 2 MPI tasks x no OpenMP threads

MPI task timing breakdown:
Section |  min time  |  avg time  |  max time  |%varavg| %total
---------------------------------------------------------------
Pair    | 7.9326     | 8.0549     | 8.1773     |   4.3 | 59.36
Neigh   | 5.0692     | 5.074      | 5.0788     |   0.2 | 37.39
Comm    | 0.14272    | 0.26822    | 0.39371    |  24.2 |  1.98
Output  | 8.0109e-05 | 0.00010252 | 0.00012493 |   0.0 |  0.00
Modify  | 0.13235    | 0.13388    | 0.13541    |   0.4 |  0.99
Other   |            | 0.03788    |            |       |  0.28

Nlocal:    9826 ave 9833 max 9819 min
Histogram: 1 0 0 0 0 0 0 0 0 1
Nghost:    11082.5 ave 11121 max 11044 min
Histogram: 1 0 0 0 0 0 0 0 0 1
Neighs:    572937 ave 576385 max 569489 min
Histogram: 1 0 0 0 0 0 0 0 0 1

Total # of neighbors = 1145874
Ave neighs/atom = 58.3083
Neighbor list builds = 172
Dangerous builds not checked
Setting up Verlet run ...
  Unit style    : metal
  Current step  : 67347
  Time step     : 0.001
Per MPI rank memory allocation (min/avg/max) = 12.96 | 12.96 | 12.97 Mbytes
Step Temp Press TotEng PotEng Enthalpy Volume 
   67347     410.2624    194.40064   -93087.814   -94129.918   -93000.159    722423.55 
   67367    410.28609    174.61169   -93088.981   -94131.145   -93010.242    722479.64 
   67842    372.65701   -36.958771   -93293.616   -94240.199   -93310.281    722431.21 
Loop time of 37.4052 on 2 procs for 495 steps with 19652 atoms

Performance: 1.143 ns/day, 20.991 hours/ns, 13.233 timesteps/s
100.0% CPU use with 2 MPI tasks x no OpenMP threads

MPI task timing breakdown:
Section |  min time  |  avg time  |  max time  |%varavg| %total
---------------------------------------------------------------
Pair    | 21.836     | 22.092     | 22.349     |   5.5 | 59.06
Neigh   | 13.588     | 13.819     | 14.049     |   6.2 | 36.94
Comm    | 0.96317    | 0.9809     | 0.99862    |   1.8 |  2.62
Output  | 0.058671   | 0.058695   | 0.058719   |   0.0 |  0.16
Modify  | 0.34708    | 0.3541     | 0.36112    |   1.2 |  0.95
Other   |            | 0.1007     |            |       |  0.27

Nlocal:    9826 ave 9829 max 9823 min
Histogram: 1 0 0 0 0 0 0 0 0 1
Nghost:    11073 ave 11117 max 11029 min
Histogram: 1 0 0 0 0 0 0 0 0 1
Neighs:    573262 ave 577497 max 569026 min
Histogram: 1 0 0 0 0 0 0 0 0 1

Total # of neighbors = 1146523
Ave neighs/atom = 58.3413
Neighbor list builds = 495
Dangerous builds not checked
Setting up Verlet run ...
  Unit style    : metal
  Current step  : 67842
  Time step     : 0.001
Per MPI rank memory allocation (min/avg/max) = 12.96 | 12.96 | 12.97 Mbytes
Step Temp Press TotEng PotEng Enthalpy Volume 
   67842    372.65701   -36.958771   -93293.616   -94240.199   -93310.281    722431.21 
   68014    365.38461   -80.574836   -93346.958   -94275.068   -93383.296     722552.6 
Loop time of 14.054 on 2 procs for 172 steps with 19652 atoms

Performance: 1.057 ns/day, 22.697 hours/ns, 12.239 timesteps/s
99.2% CPU use with 2 MPI tasks x no OpenMP threads

MPI task timing breakdown:
Section |  min time  |  avg time  |  max time  |%varavg| %total
---------------------------------------------------------------
Pair    | 8.2804     | 8.378      | 8.4756     |   3.4 | 59.61
Neigh   | 5.0591     | 5.0974     | 5.1357     |   1.7 | 36.27
Comm    | 0.34638    | 0.4025     | 0.45862    |   8.8 |  2.86
Output  | 7.8917e-05 | 0.00010347 | 0.00012803 |   0.0 |  0.00
Modify  | 0.13731    | 0.13924    | 0.14116    |   0.5 |  0.99
Other   |            | 0.03674    |            |       |  0.26

Nlocal:    9826 ave 9837 max 9815 min
Histogram: 1 0 0 0 0 0 0 0 0 1
Nghost:    11071 ave 11094 max 11048 min
Histogram: 1 0 0 0 0 0 0 0 0 1
Neighs:    572662 ave 576185 max 569139 min
Histogram: 1 0 0 0 0 0 0 0 0 1

Total # of neighbors = 1145324
Ave neighs/atom = 58.2803
Neighbor list builds = 172
Dangerous builds not checked
Setting up Verlet run ...
  Unit style    : metal
  Current step  : 68014
  Time step     : 0.001
Per MPI rank memory allocation (min/avg/max) = 12.96 | 12.96 | 12.97 Mbytes
Step Temp Press TotEng PotEng Enthalpy Volume 
   68014    365.38461   -80.574836   -93346.958   -94275.068   -93383.296     722552.6 
   68034    365.21305   -58.642952   -93348.692   -94276.366   -93375.138    722527.89 
   68509    323.59915   -75.277054   -93548.251   -94370.222    -93582.18    722147.97 
Loop time of 39.3325 on 2 procs for 495 steps with 19652 atoms

Performance: 1.087 ns/day, 22.072 hours/ns, 12.585 timesteps/s
98.8% CPU use with 2 MPI tasks x no OpenMP threads

MPI task timing breakdown:
Section |  min time  |  avg time  |  max time  |%varavg| %total
---------------------------------------------------------------
Pair    | 23.29      | 23.36      | 23.43      |   1.4 | 59.39
Neigh   | 14.547     | 14.63      | 14.714     |   2.2 | 37.20
Comm    | 0.77555    | 0.79103    | 0.80652    |   1.7 |  2.01
Output  | 0.056309   | 0.056341   | 0.056372   |   0.0 |  0.14
Modify  | 0.38299    | 0.38436    | 0.38573    |   0.2 |  0.98
Other   |            | 0.1105     |            |       |  0.28

Nlocal:    9826 ave 9832 max 9820 min
Histogram: 1 0 0 0 0 0 0 0 0 1
Nghost:    11095 ave 11126 max 11064 min
Histogram: 1 0 0 0 0 0 0 0 0 1
Neighs:    573298 ave 577085 max 569511 min
Histogram: 1 0 0 0 0 0 0 0 0 1

Total # of neighbors = 1146596
Ave neighs/atom = 58.345
Neighbor list builds = 495
Dangerous builds not checked
Setting up Verlet run ...
  Unit style    : metal
  Current step  : 68509
  Time step     : 0.001
Per MPI rank memory allocation (min/avg/max) = 12.96 | 12.96 | 12.97 Mbytes
Step Temp Press TotEng PotEng Enthalpy Volume 
   68509    323.59915   -75.277054   -93548.251   -94370.222    -93582.18    722147.97 
   68681    315.59262   -32.927567     -93602.5   -94404.134   -93617.336    721869.62 
Loop time of 13.4741 on 2 procs for 172 steps with 19652 atoms

Performance: 1.103 ns/day, 21.761 hours/ns, 12.765 timesteps/s
99.9% CPU use with 2 MPI tasks x no OpenMP threads

MPI task timing breakdown:
Section |  min time  |  avg time  |  max time  |%varavg| %total
---------------------------------------------------------------
Pair    | 7.9367     | 8.0159     | 8.0951     |   2.8 | 59.49
Neigh   | 5.0392     | 5.0562     | 5.0733     |   0.8 | 37.53
Comm    | 0.16949    | 0.23085    | 0.2922     |  12.8 |  1.71
Output  | 7.987e-05  | 0.000108   | 0.00013614 |   0.0 |  0.00
Modify  | 0.13279    | 0.13349    | 0.1342     |   0.2 |  0.99
Other   |            | 0.03754    |            |       |  0.28

Nlocal:    9826 ave 9836 max 9816 min
Histogram: 1 0 0 0 0 0 0 0 0 1
Nghost:    11084.5 ave 11113 max 11056 min
Histogram: 1 0 0 0 0 0 0 0 0 1
Neighs:    573514 ave 577009 max 570018 min
Histogram: 1 0 0 0 0 0 0 0 0 1

Total # of neighbors = 1147027
Ave neighs/atom = 58.3669
Neighbor list builds = 172
Dangerous builds not checked
Setting up Verlet run ...
  Unit style    : metal
  Current step  : 68681
  Time step     : 0.001
Per MPI rank memory allocation (min/avg/max) = 12.96 | 12.96 | 12.97 Mbytes
Step Temp Press TotEng PotEng Enthalpy Volume 
   68681    315.59262   -32.927567     -93602.5   -94404.134   -93617.336    721869.62 
   68701    315.24125   -25.495154   -93604.258   -94404.999   -93615.744    721857.37 
   69176    275.54974   -88.953338   -93805.493   -94505.415   -93845.559    721646.84 
Loop time of 38.8275 on 2 procs for 495 steps with 19652 atoms

Performance: 1.101 ns/day, 21.789 hours/ns, 12.749 timesteps/s
99.4% CPU use with 2 MPI tasks x no OpenMP threads

MPI task timing breakdown:
Section |  min time  |  avg time  |  max time  |%varavg| %total
---------------------------------------------------------------
Pair    | 22.683     | 22.926     | 23.17      |   5.1 | 59.05
Neigh   | 14.377     | 14.485     | 14.593     |   2.8 | 37.31
Comm    | 0.72712    | 0.86862    | 1.0101     |  15.2 |  2.24
Output  | 0.063838   | 0.063864   | 0.063891   |   0.0 |  0.16
Modify  | 0.37823    | 0.38061    | 0.38299    |   0.4 |  0.98
Other   |            | 0.1033     |            |       |  0.27

Nlocal:    9826 ave 9839 max 9813 min
Histogram: 1 0 0 0 0 0 0 0 0 1
Nghost:    11109.5 ave 11147 max 11072 min
Histogram: 1 0 0 0 0 0 0 0 0 1
Neighs:    573748 ave 576962 max 570535 min
Histogram: 1 0 0 0 0 0 0 0 0 1

Total # of neighbors = 1147497
Ave neighs/atom = 58.3909
Neighbor list builds = 495
Dangerous builds not checked
Setting up Verlet run ...
  Unit style    : metal
  Current step  : 69176
  Time step     : 0.001
Per MPI rank memory allocation (min/avg/max) = 12.96 | 12.96 | 12.97 Mbytes
Step Temp Press TotEng PotEng Enthalpy Volume 
   69176    275.54974   -88.953338   -93805.493   -94505.415   -93845.559    721646.84 
   69348    267.57224   -10.121623   -93858.875   -94538.533   -93863.432     721410.5 
Loop time of 13.2497 on 2 procs for 172 steps with 19652 atoms

Performance: 1.122 ns/day, 21.398 hours/ns, 12.981 timesteps/s
100.0% CPU use with 2 MPI tasks x no OpenMP threads

MPI task timing breakdown:
Section |  min time  |  avg time  |  max time  |%varavg| %total
---------------------------------------------------------------
Pair    | 7.7786     | 7.8418     | 7.9051     |   2.3 | 59.18
Neigh   | 4.6275     | 4.8227     | 5.018      |   8.9 | 36.40
Comm    | 0.28852    | 0.4244     | 0.56028    |  20.9 |  3.20
Output  | 8.3923e-05 | 9.7394e-05 | 0.00011086 |   0.0 |  0.00
Modify  | 0.12308    | 0.12679    | 0.13051    |   1.0 |  0.96
Other   |            | 0.03391    |            |       |  0.26

Nlocal:    9826 ave 9835 max 9817 min
Histogram: 1 0 0 0 0 0 0 0 0 1
Nghost:    11117 ave 11156 max 11078 min
Histogram: 1 0 0 0 0 0 0 0 0 1
Neighs:    574110 ave 577419 max 570802 min
Histogram: 1 0 0 0 0 0 0 0 0 1

Total # of neighbors = 1148221
Ave neighs/atom = 58.4277
Neighbor list builds = 172
Dangerous builds not checked
Setting up Verlet run ...
  Unit style    : metal
  Current step  : 69348
  Time step     : 0.001
Per MPI rank memory allocation (min/avg/max) = 12.96 | 12.96 | 12.97 Mbytes
Step Temp Press TotEng PotEng Enthalpy Volume 
   69348    267.57224   -10.121623   -93858.875   -94538.533   -93863.432     721410.5 
   69368    267.24407    16.494363   -93860.872   -94539.696   -93853.445    721409.69 
   69843    226.14712    -28.10369   -94059.291   -94633.726   -94071.943    721239.86 
Loop time of 38.6309 on 2 procs for 495 steps with 19652 atoms

Performance: 1.107 ns/day, 21.678 hours/ns, 12.814 timesteps/s
99.5% CPU use with 2 MPI tasks x no OpenMP threads

MPI task timing breakdown:
Section |  min time  |  avg time  |  max time  |%varavg| %total
---------------------------------------------------------------
Pair    | 22.43      | 22.706     | 22.982     |   5.8 | 58.78
Neigh   | 14.308     | 14.453     | 14.597     |   3.8 | 37.41
Comm    | 0.78941    | 0.92342    | 1.0574     |  13.9 |  2.39
Output  | 0.064391   | 0.064427   | 0.064464   |   0.0 |  0.17
Modify  | 0.38004    | 0.38272    | 0.38539    |   0.4 |  0.99
Other   |            | 0.1016     |            |       |  0.26

Nlocal:    9826 ave 9831 max 9821 min
Histogram: 1 0 0 0 0 0 0 0 0 1
Nghost:    11120.5 ave 11159 max 11082 min
Histogram: 1 0 0 0 0 0 0 0 0 1
Neighs:    574222 ave 578720 max 569725 min
Histogram: 1 0 0 0 0 0 0 0 0 1

Total # of neighbors = 1148445
Ave neighs/atom = 58.4391
Neighbor list builds = 495
Dangerous builds not checked
Setting up Verlet run ...
  Unit style    : metal
  Current step  : 69843
  Time step     : 0.001
Per MPI rank memory allocation (min/avg/max) = 12.96 | 12.96 | 12.97 Mbytes
Step Temp Press TotEng PotEng Enthalpy Volume 
   69843    226.14712    -28.10369   -94059.291   -94633.726   -94071.943    721239.86 
   70015    215.76863    28.567999   -94111.988    -94660.06   -94099.134    720869.12 
Loop time of 13.4374 on 2 procs for 172 steps with 19652 atoms

Performance: 1.106 ns/day, 21.701 hours/ns, 12.800 timesteps/s
99.9% CPU use with 2 MPI tasks x no OpenMP threads

MPI task timing breakdown:
Section |  min time  |  avg time  |  max time  |%varavg| %total
---------------------------------------------------------------
Pair    | 7.8163     | 7.9434     | 8.0705     |   4.5 | 59.11
Neigh   | 4.9351     | 4.9845     | 5.0339     |   2.2 | 37.09
Comm    | 0.26106    | 0.34147    | 0.42188    |  13.8 |  2.54
Output  | 8.1062e-05 | 0.00010705 | 0.00013304 |   0.0 |  0.00
Modify  | 0.13173    | 0.13249    | 0.13326    |   0.2 |  0.99
Other   |            | 0.03534    |            |       |  0.26

Nlocal:    9826 ave 9830 max 9822 min
Histogram: 1 0 0 0 0 0 0 0 0 1
Nghost:    11129 ave 11178 max 11080 min
Histogram: 1 0 0 0 0 0 0 0 0 1
Neighs:    574730 ave 579524 max 569935 min
Histogram: 1 0 0 0 0 0 0 0 0 1

Total # of neighbors = 1149459
Ave neighs/atom = 58.4907
Neighbor list builds = 172
Dangerous builds not checked
Setting up Verlet run ...
  Unit style    : metal
  Current step  : 70015
  Time step     : 0.001
Per MPI rank memory allocation (min/avg/max) = 12.96 | 12.96 | 12.97 Mbytes
Step Temp Press TotEng PotEng Enthalpy Volume 
   70015    215.76863    28.567999   -94111.988    -94660.06   -94099.134    720869.12 
   70035    215.89552    3.8470882   -94113.805   -94662.199   -94112.074    720881.69 
   70510    179.98851    48.394104   -94308.812   -94765.999   -94287.048    720546.43 
Loop time of 38.3921 on 2 procs for 495 steps with 19652 atoms

Performance: 1.114 ns/day, 21.544 hours/ns, 12.893 timesteps/s
99.8% CPU use with 2 MPI tasks x no OpenMP threads

MPI task timing breakdown:
Section |  min time  |  avg time  |  max time  |%varavg| %total
---------------------------------------------------------------
Pair    | 22.3       | 22.555     | 22.809     |   5.4 | 58.75
Neigh   | 14.227     | 14.391     | 14.555     |   4.3 | 37.48
Comm    | 0.46478    | 0.89715    | 1.3295     |  45.6 |  2.34
Output  | 0.065577   | 0.065609   | 0.06564    |   0.0 |  0.17
Modify  | 0.37466    | 0.38165    | 0.38864    |   1.1 |  0.99
Other   |            | 0.1021     |            |       |  0.27

Nlocal:    9826 ave 9828 max 9824 min
Histogram: 1 0 0 0 0 0 0 0 0 1
Nghost:    11120 ave 11155 max 11085 min
Histogram: 1 0 0 0 0 0 0 0 0 1
Neighs:    574900 ave 579288 max 570512 min
Histogram: 1 0 0 0 0 0 0 0 0 1

Total # of neighbors = 1149800
Ave neighs/atom = 58.508
Neighbor list builds = 495
Dangerous builds not checked
Setting up Verlet run ...
  Unit style    : metal
  Current step  : 70510
  Time step     : 0.001
Per MPI rank memory allocation (min/avg/max) = 12.96 | 12.96 | 12.97 Mbytes
Step Temp Press TotEng PotEng Enthalpy Volume 
   70510    179.98851    48.394104   -94308.812   -94765.999   -94287.048    720546.43 
   70682    169.00602   -55.397288    -94361.68   -94790.971   -94386.595    720585.35 
Loop time of 13.603 on 2 procs for 172 steps with 19652 atoms

Performance: 1.092 ns/day, 21.969 hours/ns, 12.644 timesteps/s
99.3% CPU use with 2 MPI tasks x no OpenMP threads

MPI task timing breakdown:
Section |  min time  |  avg time  |  max time  |%varavg| %total
---------------------------------------------------------------
Pair    | 8.0462     | 8.0494     | 8.0526     |   0.1 | 59.17
Neigh   | 5.1501     | 5.151      | 5.152      |   0.0 | 37.87
Comm    | 0.22841    | 0.23144    | 0.23447    |   0.6 |  1.70
Output  | 8.3923e-05 | 0.00010443 | 0.00012493 |   0.0 |  0.00
Modify  | 0.13232    | 0.1327     | 0.13308    |   0.1 |  0.98
Other   |            | 0.03838    |            |       |  0.28

Nlocal:    9826 ave 9830 max 9822 min
Histogram: 1 0 0 0 0 0 0 0 0 1
Nghost:    11136.5 ave 11156 max 11117 min
Histogram: 1 0 0 0 0 0 0 0 0 1
Neighs:    574861 ave 579326 max 570396 min
Histogram: 1 0 0 0 0 0 0 0 0 1

Total # of neighbors = 1149722
Ave neighs/atom = 58.5041
Neighbor list builds = 172
Dangerous builds not checked
Setting up Verlet run ...
  Unit style    : metal
  Current step  : 70682
  Time step     : 0.001
Per MPI rank memory allocation (min/avg/max) = 12.96 | 12.96 | 12.97 Mbytes
Step Temp Press TotEng PotEng Enthalpy Volume 
   70682    169.00602   -55.397288    -94361.68   -94790.971   -94386.595    720585.35 
   70702    169.60607   -27.098449   -94363.938   -94794.753   -94376.125    720546.45 
   71177    131.55471    55.819612   -94555.447   -94889.608   -94530.357    720159.22 
Loop time of 38.567 on 2 procs for 495 steps with 19652 atoms

Performance: 1.109 ns/day, 21.643 hours/ns, 12.835 timesteps/s
99.8% CPU use with 2 MPI tasks x no OpenMP threads

MPI task timing breakdown:
Section |  min time  |  avg time  |  max time  |%varavg| %total
---------------------------------------------------------------
Pair    | 22.484     | 22.719     | 22.955     |   4.9 | 58.91
Neigh   | 14.447     | 14.464     | 14.481     |   0.4 | 37.50
Comm    | 0.57451    | 0.83652    | 1.0985     |  28.6 |  2.17
Output  | 0.061408   | 0.061449   | 0.061489   |   0.0 |  0.16
Modify  | 0.38016    | 0.38277    | 0.38539    |   0.4 |  0.99
Other   |            | 0.1026     |            |       |  0.27

Nlocal:    9826 ave 9828 max 9824 min
Histogram: 1 0 0 0 0 0 0 0 0 1
Nghost:    11135 ave 11168 max 11102 min
Histogram: 1 0 0 0 0 0 0 0 0 1
Neighs:    575438 ave 580016 max 570859 min
Histogram: 1 0 0 0 0 0 0 0 0 1

Total # of neighbors = 1150875
Ave neighs/atom = 58.5627
Neighbor list builds = 495
Dangerous builds not checked
Setting up Verlet run ...
  Unit style    : metal
  Current step  : 71177
  Time step     : 0.001
Per MPI rank memory allocation (min/avg/max) = 12.96 | 12.96 | 12.97 Mbytes
Step Temp Press TotEng PotEng Enthalpy Volume 
   71177    131.55471    55.819612   -94555.447   -94889.608   -94530.357    720159.22 
   71349    121.07085    54.902591   -94608.428   -94915.959   -94583.759    719912.37 
Loop time of 13.2065 on 2 procs for 172 steps with 19652 atoms

Performance: 1.125 ns/day, 21.328 hours/ns, 13.024 timesteps/s
99.8% CPU use with 2 MPI tasks x no OpenMP threads

MPI task timing breakdown:
Section |  min time  |  avg time  |  max time  |%varavg| %total
---------------------------------------------------------------
Pair    | 7.7229     | 7.787      | 7.8511     |   2.3 | 58.96
Neigh   | 4.6467     | 4.8212     | 4.9958     |   8.0 | 36.51
Comm    | 0.18882    | 0.43606    | 0.6833     |  37.4 |  3.30
Output  | 7.987e-05  | 0.00010693 | 0.00013399 |   0.0 |  0.00
Modify  | 0.12227    | 0.12785    | 0.13344    |   1.6 |  0.97
Other   |            | 0.03427    |            |       |  0.26

Nlocal:    9826 ave 9840 max 9812 min
Histogram: 1 0 0 0 0 0 0 0 0 1
Nghost:    11136.5 ave 11159 max 11114 min
Histogram: 1 0 0 0 0 0 0 0 0 1
Neighs:    575742 ave 579412 max 572072 min
Histogram: 1 0 0 0 0 0 0 0 0 1

Total # of neighbors = 1151484
Ave neighs/atom = 58.5937
Neighbor list builds = 172
Dangerous builds not checked
Total wall time: 1:37:57
