LAMMPS (12 Dec 2018)
Lattice spacing in x,y,z = 4 4 4
Created orthogonal box = (0 0 0) to (68 68 68)
  1 by 1 by 1 MPI processor grid
Created 19652 atoms
  Time spent = 0.00398088 secs
Setting atom values ...
  19652 settings made for type/fraction
Neighbor list info ...
  update every 1 steps, delay 0 steps, check no
  max neighbors/atom: 2000, page size: 100000
  master list distance cutoff = 8.5
  ghost atom cutoff = 8.5
  binsize = 4.25, bins = 16 16 16
  1 neighbor lists, perpetual/occasional/extra = 1 0 0
  (1) pair eam/alloy, perpetual
      attributes: half, newton on
      pair build: half/bin/atomonly/newton
      stencil: half/bin/3d/newton
      bin: standard
Setting up Verlet run ...
  Unit style    : metal
  Current step  : 0
  Time step     : 0.001
Per MPI rank memory allocation (min/avg/max) = 18.19 | 18.19 | 18.19 Mbytes
Step Temp Press TotEng PotEng Enthalpy 
       0          300   -186199.32   -61187.265   -61949.292   -97729.446 
    1000     528.4284    -74035.86   -61187.299   -62529.556   -75717.062 
Loop time of 165.121 on 1 procs for 1000 steps with 19652 atoms

Performance: 0.523 ns/day, 45.867 hours/ns, 6.056 timesteps/s
98.7% CPU use with 1 MPI tasks x no OpenMP threads

MPI task timing breakdown:
Section |  min time  |  avg time  |  max time  |%varavg| %total
---------------------------------------------------------------
Pair    | 92.417     | 92.417     | 92.417     |   0.0 | 55.97
Neigh   | 70.665     | 70.665     | 70.665     |   0.0 | 42.80
Comm    | 1.212      | 1.212      | 1.212      |   0.0 |  0.73
Output  | 0.00017095 | 0.00017095 | 0.00017095 |   0.0 |  0.00
Modify  | 0.4385     | 0.4385     | 0.4385     |   0.0 |  0.27
Other   |            | 0.3881     |            |       |  0.24

Nlocal:    19652 ave 19652 max 19652 min
Histogram: 1 0 0 0 0 0 0 0 0 0
Nghost:    19301 ave 19301 max 19301 min
Histogram: 1 0 0 0 0 0 0 0 0 0
Neighs:    1.5839e+06 ave 1.5839e+06 max 1.5839e+06 min
Histogram: 1 0 0 0 0 0 0 0 0 0

Total # of neighbors = 1583897
Ave neighs/atom = 80.5972
Neighbor list builds = 1000
Dangerous builds not checked
Setting up Verlet run ...
  Unit style    : metal
  Current step  : 1000
  Time step     : 0.001
Per MPI rank memory allocation (min/avg/max) = 18.19 | 18.19 | 18.19 Mbytes
Step Temp Press TotEng PotEng Enthalpy 
    1000     528.4284    -74035.86   -61187.299   -62529.556   -75717.062 
    2000    398.57965   -1975.9563    -65733.37   -66745.798   -66035.559 
Loop time of 214.142 on 1 procs for 1000 steps with 19652 atoms

Performance: 0.403 ns/day, 59.484 hours/ns, 4.670 timesteps/s
98.4% CPU use with 1 MPI tasks x no OpenMP threads

MPI task timing breakdown:
Section |  min time  |  avg time  |  max time  |%varavg| %total
---------------------------------------------------------------
Pair    | 118.24     | 118.24     | 118.24     |   0.0 | 55.21
Neigh   | 92.569     | 92.569     | 92.569     |   0.0 | 43.23
Comm    | 1.2682     | 1.2682     | 1.2682     |   0.0 |  0.59
Output  | 0.074644   | 0.074644   | 0.074644   |   0.0 |  0.03
Modify  | 1.5639     | 1.5639     | 1.5639     |   0.0 |  0.73
Other   |            | 0.4302     |            |       |  0.20

Nlocal:    19652 ave 19652 max 19652 min
Histogram: 1 0 0 0 0 0 0 0 0 0
Nghost:    20409 ave 20409 max 20409 min
Histogram: 1 0 0 0 0 0 0 0 0 0
Neighs:    2.0062e+06 ave 2.0062e+06 max 2.0062e+06 min
Histogram: 1 0 0 0 0 0 0 0 0 0

Total # of neighbors = 2006205
Ave neighs/atom = 102.087
Neighbor list builds = 1000
Dangerous builds not checked
Setting up Verlet run ...
  Unit style    : metal
  Current step  : 2000
  Time step     : 0.001
Per MPI rank memory allocation (min/avg/max) = 19.34 | 19.34 | 19.34 Mbytes
Step Temp Press TotEng PotEng Enthalpy 
    2000    398.57965   -1975.9563    -65733.37   -66745.798   -66035.559 
    4000    812.14637    539.14659   -64883.732   -66946.658   -64802.535 
    6000    1345.4967     546.4075   -61622.148   -65039.832    -61536.43 
    8000    1889.3878    1307.1732   -56467.851   -61267.068   -56242.986 
   10000    2446.3147    1640.0898   -53051.734   -59265.596   -52753.813 
Loop time of 1458.41 on 1 procs for 8000 steps with 19652 atoms

Performance: 0.474 ns/day, 50.639 hours/ns, 5.485 timesteps/s
99.1% CPU use with 1 MPI tasks x no OpenMP threads

MPI task timing breakdown:
Section |  min time  |  avg time  |  max time  |%varavg| %total
---------------------------------------------------------------
Pair    | 786.03     | 786.03     | 786.03     |   0.0 | 53.90
Neigh   | 649.01     | 649.01     | 649.01     |   0.0 | 44.50
Comm    | 8.2788     | 8.2788     | 8.2788     |   0.0 |  0.57
Output  | 1.5582     | 1.5582     | 1.5582     |   0.0 |  0.11
Modify  | 10.645     | 10.645     | 10.645     |   0.0 |  0.73
Other   |            | 2.89       |            |       |  0.20

Nlocal:    19652 ave 19652 max 19652 min
Histogram: 1 0 0 0 0 0 0 0 0 0
Nghost:    19343 ave 19343 max 19343 min
Histogram: 1 0 0 0 0 0 0 0 0 0
Neighs:    1.69354e+06 ave 1.69354e+06 max 1.69354e+06 min
Histogram: 1 0 0 0 0 0 0 0 0 0

Total # of neighbors = 1693545
Ave neighs/atom = 86.1767
Neighbor list builds = 8000
Dangerous builds not checked
Setting up Verlet run ...
  Unit style    : metal
  Current step  : 10000
  Time step     : 0.001
Per MPI rank memory allocation (min/avg/max) = 19.34 | 19.34 | 19.34 Mbytes
Step Temp Press TotEng PotEng Enthalpy 
   10000    2446.3147    1640.0898   -53051.734   -59265.596   -52753.813 
   12000    2434.4426   -1049.8807   -52995.222   -59178.928   -53187.058 
   14000    2449.5166    -1718.409   -52907.538   -59129.534   -53221.806 
   16000    2447.1854    1648.3507   -52923.691   -59139.765   -52623.288 
   18000    2449.0573    1411.7866   -52995.301   -59216.129   -52738.611 
   20000    2437.8924    1135.0985   -53067.583   -59260.052   -52861.206 
   22000    2449.3366   -58.769899   -52979.491   -59201.029   -52990.204 
   24000    2419.7188   -683.17073   -53016.545   -59162.852   -53141.237 
   26000    2454.2829   -108.12509   -53009.359   -59243.461   -53029.058 
   28000    2450.9692   -731.73608   -52952.207   -59177.892   -53085.798 
   30000    2437.6503   -665.64074   -53020.501   -59212.355   -53141.904 
   32000    2432.1492     875.5329   -52953.213   -59131.094   -52793.547 
   34000    2482.0999    324.94007   -52875.275   -59180.035   -52816.001 
   36000    2470.5914    980.76632    -52834.04   -59109.567   -52655.083 
   38000    2427.2539   -123.08461    -53052.09   -59217.536    -53074.51 
   40000    2453.5444   -1032.1578    -52924.28   -59156.506   -53112.863 
Loop time of 5054.5 on 1 procs for 30000 steps with 19652 atoms

Performance: 0.513 ns/day, 46.801 hours/ns, 5.935 timesteps/s
99.4% CPU use with 1 MPI tasks x no OpenMP threads

MPI task timing breakdown:
Section |  min time  |  avg time  |  max time  |%varavg| %total
---------------------------------------------------------------
Pair    | 2733.9     | 2733.9     | 2733.9     |   0.0 | 54.09
Neigh   | 2237.6     | 2237.6     | 2237.6     |   0.0 | 44.27
Comm    | 30.999     | 30.999     | 30.999     |   0.0 |  0.61
Output  | 2.902      | 2.902      | 2.902      |   0.0 |  0.06
Modify  | 38.705     | 38.705     | 38.705     |   0.0 |  0.77
Other   |            | 10.42      |            |       |  0.21

Nlocal:    19652 ave 19652 max 19652 min
Histogram: 1 0 0 0 0 0 0 0 0 0
Nghost:    19363 ave 19363 max 19363 min
Histogram: 1 0 0 0 0 0 0 0 0 0
Neighs:    1.68334e+06 ave 1.68334e+06 max 1.68334e+06 min
Histogram: 1 0 0 0 0 0 0 0 0 0

Total # of neighbors = 1683336
Ave neighs/atom = 85.6572
Neighbor list builds = 30000
Dangerous builds not checked
Setting up Verlet run ...
  Unit style    : metal
  Current step  : 40000
  Time step     : 0.001
Per MPI rank memory allocation (min/avg/max) = 19.34 | 19.34 | 19.34 Mbytes
Step Temp Press TotEng PotEng Enthalpy 
   40000    2453.5444   -1032.1578    -52924.28   -59156.506   -53112.863 
   40495    2415.0432     1740.832   -53219.922   -59354.351   -52904.357 
Loop time of 74.7512 on 1 procs for 495 steps with 19652 atoms

Performance: 0.572 ns/day, 41.948 hours/ns, 6.622 timesteps/s
99.3% CPU use with 1 MPI tasks x no OpenMP threads

MPI task timing breakdown:
Section |  min time  |  avg time  |  max time  |%varavg| %total
---------------------------------------------------------------
Pair    | 40.062     | 40.062     | 40.062     |   0.0 | 53.59
Neigh   | 33.486     | 33.486     | 33.486     |   0.0 | 44.80
Comm    | 0.44732    | 0.44732    | 0.44732    |   0.0 |  0.60
Output  | 0.00013494 | 0.00013494 | 0.00013494 |   0.0 |  0.00
Modify  | 0.59741    | 0.59741    | 0.59741    |   0.0 |  0.80
Other   |            | 0.1579     |            |       |  0.21

Nlocal:    19652 ave 19652 max 19652 min
Histogram: 1 0 0 0 0 0 0 0 0 0
Nghost:    19323 ave 19323 max 19323 min
Histogram: 1 0 0 0 0 0 0 0 0 0
Neighs:    1.6971e+06 ave 1.6971e+06 max 1.6971e+06 min
Histogram: 1 0 0 0 0 0 0 0 0 0

Total # of neighbors = 1697104
Ave neighs/atom = 86.3578
Neighbor list builds = 495
Dangerous builds not checked
Setting up Verlet run ...
  Unit style    : metal
  Current step  : 40495
  Time step     : 0.001
Per MPI rank memory allocation (min/avg/max) = 19.34 | 19.34 | 19.34 Mbytes
Step Temp Press TotEng PotEng Enthalpy 
   40495    2415.0432     1740.832   -53219.922   -59354.351   -52904.357 
   42000    2420.0472    1809.5178   -53206.551   -59353.692   -52878.611 
Loop time of 229.429 on 1 procs for 1505 steps with 19652 atoms

Performance: 0.567 ns/day, 42.346 hours/ns, 6.560 timesteps/s
99.3% CPU use with 1 MPI tasks x no OpenMP threads

MPI task timing breakdown:
Section |  min time  |  avg time  |  max time  |%varavg| %total
---------------------------------------------------------------
Pair    | 123.43     | 123.43     | 123.43     |   0.0 | 53.80
Neigh   | 102.16     | 102.16     | 102.16     |   0.0 | 44.53
Comm    | 1.3873     | 1.3873     | 1.3873     |   0.0 |  0.60
Output  | 0.22708    | 0.22708    | 0.22708    |   0.0 |  0.10
Modify  | 1.7586     | 1.7586     | 1.7586     |   0.0 |  0.77
Other   |            | 0.4728     |            |       |  0.21

Nlocal:    19652 ave 19652 max 19652 min
Histogram: 1 0 0 0 0 0 0 0 0 0
Nghost:    19344 ave 19344 max 19344 min
Histogram: 1 0 0 0 0 0 0 0 0 0
Neighs:    1.69738e+06 ave 1.69738e+06 max 1.69738e+06 min
Histogram: 1 0 0 0 0 0 0 0 0 0

Total # of neighbors = 1697385
Ave neighs/atom = 86.3721
Neighbor list builds = 1505
Dangerous builds not checked
Setting up Verlet run ...
  Unit style    : metal
  Current step  : 42000
  Time step     : 0.001
Per MPI rank memory allocation (min/avg/max) = 19.34 | 19.34 | 19.34 Mbytes
Step Temp Press TotEng PotEng Enthalpy 
   42000    2420.0472    1809.5178   -53206.551   -59353.692   -52878.611 
   42495    2369.2713    602.85612   -53437.521   -59455.686   -53328.515 
Loop time of 67.6996 on 1 procs for 495 steps with 19652 atoms

Performance: 0.632 ns/day, 37.991 hours/ns, 7.312 timesteps/s
99.9% CPU use with 1 MPI tasks x no OpenMP threads

MPI task timing breakdown:
Section |  min time  |  avg time  |  max time  |%varavg| %total
---------------------------------------------------------------
Pair    | 36.088     | 36.088     | 36.088     |   0.0 | 53.31
Neigh   | 30.546     | 30.546     | 30.546     |   0.0 | 45.12
Comm    | 0.40744    | 0.40744    | 0.40744    |   0.0 |  0.60
Output  | 0.00012803 | 0.00012803 | 0.00012803 |   0.0 |  0.00
Modify  | 0.51656    | 0.51656    | 0.51656    |   0.0 |  0.76
Other   |            | 0.1407     |            |       |  0.21

Nlocal:    19652 ave 19652 max 19652 min
Histogram: 1 0 0 0 0 0 0 0 0 0
Nghost:    19330 ave 19330 max 19330 min
Histogram: 1 0 0 0 0 0 0 0 0 0
Neighs:    1.70095e+06 ave 1.70095e+06 max 1.70095e+06 min
Histogram: 1 0 0 0 0 0 0 0 0 0

Total # of neighbors = 1700951
Ave neighs/atom = 86.5536
Neighbor list builds = 495
Dangerous builds not checked
Setting up Verlet run ...
  Unit style    : metal
  Current step  : 42495
  Time step     : 0.001
Per MPI rank memory allocation (min/avg/max) = 19.34 | 19.34 | 19.34 Mbytes
Step Temp Press TotEng PotEng Enthalpy 
   42495    2369.2713    602.85612   -53437.521   -59455.686   -53328.515 
   44000    2348.4274   -990.18793   -53510.905   -59476.125   -53690.109 
Loop time of 215.619 on 1 procs for 1505 steps with 19652 atoms

Performance: 0.603 ns/day, 39.797 hours/ns, 6.980 timesteps/s
99.3% CPU use with 1 MPI tasks x no OpenMP threads

MPI task timing breakdown:
Section |  min time  |  avg time  |  max time  |%varavg| %total
---------------------------------------------------------------
Pair    | 115.72     | 115.72     | 115.72     |   0.0 | 53.67
Neigh   | 96.275     | 96.275     | 96.275     |   0.0 | 44.65
Comm    | 1.3107     | 1.3107     | 1.3107     |   0.0 |  0.61
Output  | 0.25128    | 0.25128    | 0.25128    |   0.0 |  0.12
Modify  | 1.6212     | 1.6212     | 1.6212     |   0.0 |  0.75
Other   |            | 0.4392     |            |       |  0.20

Nlocal:    19652 ave 19652 max 19652 min
Histogram: 1 0 0 0 0 0 0 0 0 0
Nghost:    19318 ave 19318 max 19318 min
Histogram: 1 0 0 0 0 0 0 0 0 0
Neighs:    1.69939e+06 ave 1.69939e+06 max 1.69939e+06 min
Histogram: 1 0 0 0 0 0 0 0 0 0

Total # of neighbors = 1699391
Ave neighs/atom = 86.4742
Neighbor list builds = 1505
Dangerous builds not checked
Setting up Verlet run ...
  Unit style    : metal
  Current step  : 44000
  Time step     : 0.001
Per MPI rank memory allocation (min/avg/max) = 19.34 | 19.34 | 19.34 Mbytes
Step Temp Press TotEng PotEng Enthalpy 
   44000    2348.4274   -990.18793   -53510.905   -59476.125   -53690.109 
   44495    2325.8727    298.82462   -53755.052    -59662.98   -53701.295 
Loop time of 70.957 on 1 procs for 495 steps with 19652 atoms

Performance: 0.603 ns/day, 39.819 hours/ns, 6.976 timesteps/s
99.6% CPU use with 1 MPI tasks x no OpenMP threads

MPI task timing breakdown:
Section |  min time  |  avg time  |  max time  |%varavg| %total
---------------------------------------------------------------
Pair    | 38.196     | 38.196     | 38.196     |   0.0 | 53.83
Neigh   | 31.637     | 31.637     | 31.637     |   0.0 | 44.59
Comm    | 0.4338     | 0.4338     | 0.4338     |   0.0 |  0.61
Output  | 0.00014114 | 0.00014114 | 0.00014114 |   0.0 |  0.00
Modify  | 0.54262    | 0.54262    | 0.54262    |   0.0 |  0.76
Other   |            | 0.147      |            |       |  0.21

Nlocal:    19652 ave 19652 max 19652 min
Histogram: 1 0 0 0 0 0 0 0 0 0
Nghost:    19526 ave 19526 max 19526 min
Histogram: 1 0 0 0 0 0 0 0 0 0
Neighs:    1.70976e+06 ave 1.70976e+06 max 1.70976e+06 min
Histogram: 1 0 0 0 0 0 0 0 0 0

Total # of neighbors = 1709763
Ave neighs/atom = 87.002
Neighbor list builds = 495
Dangerous builds not checked
Setting up Verlet run ...
  Unit style    : metal
  Current step  : 44495
  Time step     : 0.001
Per MPI rank memory allocation (min/avg/max) = 19.34 | 19.34 | 19.34 Mbytes
Step Temp Press TotEng PotEng Enthalpy 
   44495    2325.8727    298.82462   -53755.052    -59662.98   -53701.295 
   46000    2311.1357    1620.0466   -53829.862   -59700.358   -53539.033 
Loop time of 247.047 on 1 procs for 1505 steps with 19652 atoms

Performance: 0.526 ns/day, 45.597 hours/ns, 6.092 timesteps/s
99.7% CPU use with 1 MPI tasks x no OpenMP threads

MPI task timing breakdown:
Section |  min time  |  avg time  |  max time  |%varavg| %total
---------------------------------------------------------------
Pair    | 135.64     | 135.64     | 135.64     |   0.0 | 54.91
Neigh   | 106.84     | 106.84     | 106.84     |   0.0 | 43.25
Comm    | 1.5478     | 1.5478     | 1.5478     |   0.0 |  0.63
Output  | 0.62611    | 0.62611    | 0.62611    |   0.0 |  0.25
Modify  | 1.8626     | 1.8626     | 1.8626     |   0.0 |  0.75
Other   |            | 0.5323     |            |       |  0.22

Nlocal:    19652 ave 19652 max 19652 min
Histogram: 1 0 0 0 0 0 0 0 0 0
Nghost:    19407 ave 19407 max 19407 min
Histogram: 1 0 0 0 0 0 0 0 0 0
Neighs:    1.71325e+06 ave 1.71325e+06 max 1.71325e+06 min
Histogram: 1 0 0 0 0 0 0 0 0 0

Total # of neighbors = 1713254
Ave neighs/atom = 87.1796
Neighbor list builds = 1505
Dangerous builds not checked
Setting up Verlet run ...
  Unit style    : metal
  Current step  : 46000
  Time step     : 0.001
Per MPI rank memory allocation (min/avg/max) = 19.34 | 19.34 | 19.34 Mbytes
Step Temp Press TotEng PotEng Enthalpy 
   46000    2311.1357    1620.0466   -53829.862   -59700.358   -53539.033 
   46495    2264.1301    1890.3964   -54069.985   -59821.081   -53731.924 
Loop time of 78.7284 on 1 procs for 495 steps with 19652 atoms

Performance: 0.543 ns/day, 44.180 hours/ns, 6.287 timesteps/s
99.9% CPU use with 1 MPI tasks x no OpenMP threads

MPI task timing breakdown:
Section |  min time  |  avg time  |  max time  |%varavg| %total
---------------------------------------------------------------
Pair    | 43.097     | 43.097     | 43.097     |   0.0 | 54.74
Neigh   | 34.346     | 34.346     | 34.346     |   0.0 | 43.63
Comm    | 0.50476    | 0.50476    | 0.50476    |   0.0 |  0.64
Output  | 0.00019693 | 0.00019693 | 0.00019693 |   0.0 |  0.00
Modify  | 0.60814    | 0.60814    | 0.60814    |   0.0 |  0.77
Other   |            | 0.1731     |            |       |  0.22

Nlocal:    19652 ave 19652 max 19652 min
Histogram: 1 0 0 0 0 0 0 0 0 0
Nghost:    19524 ave 19524 max 19524 min
Histogram: 1 0 0 0 0 0 0 0 0 0
Neighs:    1.7189e+06 ave 1.7189e+06 max 1.7189e+06 min
Histogram: 1 0 0 0 0 0 0 0 0 0

Total # of neighbors = 1718895
Ave neighs/atom = 87.4667
Neighbor list builds = 495
Dangerous builds not checked
Setting up Verlet run ...
  Unit style    : metal
  Current step  : 46495
  Time step     : 0.001
Per MPI rank memory allocation (min/avg/max) = 19.34 | 19.34 | 19.34 Mbytes
Step Temp Press TotEng PotEng Enthalpy 
   46495    2264.1301    1890.3964   -54069.985   -59821.081   -53731.924 
   48000    2268.2173    995.09512   -54093.786   -59855.265   -53915.929 
Loop time of 236.033 on 1 procs for 1505 steps with 19652 atoms

Performance: 0.551 ns/day, 43.565 hours/ns, 6.376 timesteps/s
99.6% CPU use with 1 MPI tasks x no OpenMP threads

MPI task timing breakdown:
Section |  min time  |  avg time  |  max time  |%varavg| %total
---------------------------------------------------------------
Pair    | 127.82     | 127.82     | 127.82     |   0.0 | 54.15
Neigh   | 104.25     | 104.25     | 104.25     |   0.0 | 44.17
Comm    | 1.4262     | 1.4262     | 1.4262     |   0.0 |  0.60
Output  | 0.2317     | 0.2317     | 0.2317     |   0.0 |  0.10
Modify  | 1.8082     | 1.8082     | 1.8082     |   0.0 |  0.77
Other   |            | 0.4954     |            |       |  0.21

Nlocal:    19652 ave 19652 max 19652 min
Histogram: 1 0 0 0 0 0 0 0 0 0
Nghost:    19419 ave 19419 max 19419 min
Histogram: 1 0 0 0 0 0 0 0 0 0
Neighs:    1.72045e+06 ave 1.72045e+06 max 1.72045e+06 min
Histogram: 1 0 0 0 0 0 0 0 0 0

Total # of neighbors = 1720450
Ave neighs/atom = 87.5458
Neighbor list builds = 1505
Dangerous builds not checked
Setting up Verlet run ...
  Unit style    : metal
  Current step  : 48000
  Time step     : 0.001
Per MPI rank memory allocation (min/avg/max) = 19.34 | 19.34 | 19.34 Mbytes
Step Temp Press TotEng PotEng Enthalpy 
   48000    2268.2173    995.09512   -54093.786   -59855.265   -53915.929 
   48495    2208.4449    443.69779   -54301.449     -59911.1   -54222.214 
Loop time of 74.4473 on 1 procs for 495 steps with 19652 atoms

Performance: 0.574 ns/day, 41.777 hours/ns, 6.649 timesteps/s
99.8% CPU use with 1 MPI tasks x no OpenMP threads

MPI task timing breakdown:
Section |  min time  |  avg time  |  max time  |%varavg| %total
---------------------------------------------------------------
Pair    | 40.126     | 40.126     | 40.126     |   0.0 | 53.90
Neigh   | 33.149     | 33.149     | 33.149     |   0.0 | 44.53
Comm    | 0.43851    | 0.43851    | 0.43851    |   0.0 |  0.59
Output  | 0.001873   | 0.001873   | 0.001873   |   0.0 |  0.00
Modify  | 0.57646    | 0.57646    | 0.57646    |   0.0 |  0.77
Other   |            | 0.1562     |            |       |  0.21

Nlocal:    19652 ave 19652 max 19652 min
Histogram: 1 0 0 0 0 0 0 0 0 0
Nghost:    19424 ave 19424 max 19424 min
Histogram: 1 0 0 0 0 0 0 0 0 0
Neighs:    1.72196e+06 ave 1.72196e+06 max 1.72196e+06 min
Histogram: 1 0 0 0 0 0 0 0 0 0

Total # of neighbors = 1721955
Ave neighs/atom = 87.6224
Neighbor list builds = 495
Dangerous builds not checked
Setting up Verlet run ...
  Unit style    : metal
  Current step  : 48495
  Time step     : 0.001
Per MPI rank memory allocation (min/avg/max) = 19.34 | 19.34 | 19.34 Mbytes
Step Temp Press TotEng PotEng Enthalpy 
   48495    2208.4449    443.69779   -54301.449     -59911.1   -54222.214 
   50000    2186.6548   -459.25639   -54452.492   -60006.794   -54534.345 
Loop time of 246.21 on 1 procs for 1505 steps with 19652 atoms

Performance: 0.528 ns/day, 45.443 hours/ns, 6.113 timesteps/s
98.5% CPU use with 1 MPI tasks x no OpenMP threads

MPI task timing breakdown:
Section |  min time  |  avg time  |  max time  |%varavg| %total
---------------------------------------------------------------
Pair    | 132.22     | 132.22     | 132.22     |   0.0 | 53.70
Neigh   | 107.26     | 107.26     | 107.26     |   0.0 | 43.56
Comm    | 1.4514     | 1.4514     | 1.4514     |   0.0 |  0.59
Output  | 2.9186     | 2.9186     | 2.9186     |   0.0 |  1.19
Modify  | 1.8658     | 1.8658     | 1.8658     |   0.0 |  0.76
Other   |            | 0.4975     |            |       |  0.20

Nlocal:    19652 ave 19652 max 19652 min
Histogram: 1 0 0 0 0 0 0 0 0 0
Nghost:    19482 ave 19482 max 19482 min
Histogram: 1 0 0 0 0 0 0 0 0 0
Neighs:    1.72483e+06 ave 1.72483e+06 max 1.72483e+06 min
Histogram: 1 0 0 0 0 0 0 0 0 0

Total # of neighbors = 1724829
Ave neighs/atom = 87.7686
Neighbor list builds = 1505
Dangerous builds not checked
Setting up Verlet run ...
  Unit style    : metal
  Current step  : 50000
  Time step     : 0.001
Per MPI rank memory allocation (min/avg/max) = 19.34 | 19.34 | 19.34 Mbytes
Step Temp Press TotEng PotEng Enthalpy 
   50000    2186.6548   -459.25639   -54452.492   -60006.794   -54534.345 
   50495    2146.1266    495.23716   -54699.278   -60150.635   -54611.435 
Loop time of 79.9811 on 1 procs for 495 steps with 19652 atoms

Performance: 0.535 ns/day, 44.883 hours/ns, 6.189 timesteps/s
98.9% CPU use with 1 MPI tasks x no OpenMP threads

MPI task timing breakdown:
Section |  min time  |  avg time  |  max time  |%varavg| %total
---------------------------------------------------------------
Pair    | 43.374     | 43.374     | 43.374     |   0.0 | 54.23
Neigh   | 35.325     | 35.325     | 35.325     |   0.0 | 44.17
Comm    | 0.48636    | 0.48636    | 0.48636    |   0.0 |  0.61
Output  | 0.00013685 | 0.00013685 | 0.00013685 |   0.0 |  0.00
Modify  | 0.63095    | 0.63095    | 0.63095    |   0.0 |  0.79
Other   |            | 0.1654     |            |       |  0.21

Nlocal:    19652 ave 19652 max 19652 min
Histogram: 1 0 0 0 0 0 0 0 0 0
Nghost:    19584 ave 19584 max 19584 min
Histogram: 1 0 0 0 0 0 0 0 0 0
Neighs:    1.7332e+06 ave 1.7332e+06 max 1.7332e+06 min
Histogram: 1 0 0 0 0 0 0 0 0 0

Total # of neighbors = 1733203
Ave neighs/atom = 88.1947
Neighbor list builds = 495
Dangerous builds not checked
Setting up Verlet run ...
  Unit style    : metal
  Current step  : 50495
  Time step     : 0.001
Per MPI rank memory allocation (min/avg/max) = 19.34 | 19.34 | 19.34 Mbytes
Step Temp Press TotEng PotEng Enthalpy 
   50495    2146.1266    495.23716   -54699.278   -60150.635   -54611.435 
   52000    2125.1775    230.86772    -54794.58   -60192.725   -54753.657 
Loop time of 219.959 on 1 procs for 1505 steps with 19652 atoms

Performance: 0.591 ns/day, 40.598 hours/ns, 6.842 timesteps/s
99.8% CPU use with 1 MPI tasks x no OpenMP threads

MPI task timing breakdown:
Section |  min time  |  avg time  |  max time  |%varavg| %total
---------------------------------------------------------------
Pair    | 118.15     | 118.15     | 118.15     |   0.0 | 53.71
Neigh   | 98.053     | 98.053     | 98.053     |   0.0 | 44.58
Comm    | 1.4282     | 1.4282     | 1.4282     |   0.0 |  0.65
Output  | 0.16161    | 0.16161    | 0.16161    |   0.0 |  0.07
Modify  | 1.726      | 1.726      | 1.726      |   0.0 |  0.78
Other   |            | 0.444      |            |       |  0.20

Nlocal:    19652 ave 19652 max 19652 min
Histogram: 1 0 0 0 0 0 0 0 0 0
Nghost:    19418 ave 19418 max 19418 min
Histogram: 1 0 0 0 0 0 0 0 0 0
Neighs:    1.73448e+06 ave 1.73448e+06 max 1.73448e+06 min
Histogram: 1 0 0 0 0 0 0 0 0 0

Total # of neighbors = 1734475
Ave neighs/atom = 88.2595
Neighbor list builds = 1505
Dangerous builds not checked
Setting up Verlet run ...
  Unit style    : metal
  Current step  : 52000
  Time step     : 0.001
Per MPI rank memory allocation (min/avg/max) = 19.34 | 19.34 | 19.34 Mbytes
Step Temp Press TotEng PotEng Enthalpy 
   52000    2125.1775    230.86772    -54794.58   -60192.725   -54753.657 
   52495    2111.0981    -1085.766   -54897.932   -60260.313   -55090.185 
Loop time of 75.426 on 1 procs for 495 steps with 19652 atoms

Performance: 0.567 ns/day, 42.327 hours/ns, 6.563 timesteps/s
99.9% CPU use with 1 MPI tasks x no OpenMP threads

MPI task timing breakdown:
Section |  min time  |  avg time  |  max time  |%varavg| %total
---------------------------------------------------------------
Pair    | 40.601     | 40.601     | 40.601     |   0.0 | 53.83
Neigh   | 33.575     | 33.575     | 33.575     |   0.0 | 44.51
Comm    | 0.48911    | 0.48911    | 0.48911    |   0.0 |  0.65
Output  | 0.00012994 | 0.00012994 | 0.00012994 |   0.0 |  0.00
Modify  | 0.60503    | 0.60503    | 0.60503    |   0.0 |  0.80
Other   |            | 0.1554     |            |       |  0.21

Nlocal:    19652 ave 19652 max 19652 min
Histogram: 1 0 0 0 0 0 0 0 0 0
Nghost:    19540 ave 19540 max 19540 min
Histogram: 1 0 0 0 0 0 0 0 0 0
Neighs:    1.73578e+06 ave 1.73578e+06 max 1.73578e+06 min
Histogram: 1 0 0 0 0 0 0 0 0 0

Total # of neighbors = 1735780
Ave neighs/atom = 88.3259
Neighbor list builds = 495
Dangerous builds not checked
Setting up Verlet run ...
  Unit style    : metal
  Current step  : 52495
  Time step     : 0.001
Per MPI rank memory allocation (min/avg/max) = 19.34 | 19.34 | 19.34 Mbytes
Step Temp Press TotEng PotEng Enthalpy 
   52495    2111.0981    -1085.766   -54897.932   -60260.313   -55090.185 
   54000    2098.2943   -1629.5547    -55015.13   -60344.989   -55303.164 
Loop time of 223.471 on 1 procs for 1505 steps with 19652 atoms

Performance: 0.582 ns/day, 41.246 hours/ns, 6.735 timesteps/s
99.3% CPU use with 1 MPI tasks x no OpenMP threads

MPI task timing breakdown:
Section |  min time  |  avg time  |  max time  |%varavg| %total
---------------------------------------------------------------
Pair    | 119.59     | 119.59     | 119.59     |   0.0 | 53.51
Neigh   | 99.222     | 99.222     | 99.222     |   0.0 | 44.40
Comm    | 1.4749     | 1.4749     | 1.4749     |   0.0 |  0.66
Output  | 0.97695    | 0.97695    | 0.97695    |   0.0 |  0.44
Modify  | 1.7568     | 1.7568     | 1.7568     |   0.0 |  0.79
Other   |            | 0.4534     |            |       |  0.20

Nlocal:    19652 ave 19652 max 19652 min
Histogram: 1 0 0 0 0 0 0 0 0 0
Nghost:    19538 ave 19538 max 19538 min
Histogram: 1 0 0 0 0 0 0 0 0 0
Neighs:    1.73886e+06 ave 1.73886e+06 max 1.73886e+06 min
Histogram: 1 0 0 0 0 0 0 0 0 0

Total # of neighbors = 1738861
Ave neighs/atom = 88.4826
Neighbor list builds = 1505
Dangerous builds not checked
Setting up Verlet run ...
  Unit style    : metal
  Current step  : 54000
  Time step     : 0.001
Per MPI rank memory allocation (min/avg/max) = 19.34 | 19.34 | 19.34 Mbytes
Step Temp Press TotEng PotEng Enthalpy 
   54000    2098.2943   -1629.5547    -55015.13   -60344.989   -55303.164 
   54495    2058.0087   -206.07507   -55229.791   -60457.321   -55266.065 
Loop time of 77.7852 on 1 procs for 495 steps with 19652 atoms

Performance: 0.550 ns/day, 43.650 hours/ns, 6.364 timesteps/s
99.7% CPU use with 1 MPI tasks x no OpenMP threads

MPI task timing breakdown:
Section |  min time  |  avg time  |  max time  |%varavg| %total
---------------------------------------------------------------
Pair    | 41.927     | 41.927     | 41.927     |   0.0 | 53.90
Neigh   | 34.57      | 34.57      | 34.57      |   0.0 | 44.44
Comm    | 0.50328    | 0.50328    | 0.50328    |   0.0 |  0.65
Output  | 0.00015593 | 0.00015593 | 0.00015593 |   0.0 |  0.00
Modify  | 0.62292    | 0.62292    | 0.62292    |   0.0 |  0.80
Other   |            | 0.1623     |            |       |  0.21

Nlocal:    19652 ave 19652 max 19652 min
Histogram: 1 0 0 0 0 0 0 0 0 0
Nghost:    19568 ave 19568 max 19568 min
Histogram: 1 0 0 0 0 0 0 0 0 0
Neighs:    1.74627e+06 ave 1.74627e+06 max 1.74627e+06 min
Histogram: 1 0 0 0 0 0 0 0 0 0

Total # of neighbors = 1746270
Ave neighs/atom = 88.8597
Neighbor list builds = 495
Dangerous builds not checked
Setting up Verlet run ...
  Unit style    : metal
  Current step  : 54495
  Time step     : 0.001
Per MPI rank memory allocation (min/avg/max) = 19.34 | 19.34 | 19.34 Mbytes
Step Temp Press TotEng PotEng Enthalpy 
   54495    2058.0087   -206.07507   -55229.791   -60457.321   -55266.065 
   56000     2053.931   -197.26786   -55296.785   -60513.957   -55331.464 
Loop time of 243.987 on 1 procs for 1505 steps with 19652 atoms

Performance: 0.533 ns/day, 45.033 hours/ns, 6.168 timesteps/s
99.4% CPU use with 1 MPI tasks x no OpenMP threads

MPI task timing breakdown:
Section |  min time  |  avg time  |  max time  |%varavg| %total
---------------------------------------------------------------
Pair    | 132.53     | 132.53     | 132.53     |   0.0 | 54.32
Neigh   | 107.29     | 107.29     | 107.29     |   0.0 | 43.97
Comm    | 1.5568     | 1.5568     | 1.5568     |   0.0 |  0.64
Output  | 0.18644    | 0.18644    | 0.18644    |   0.0 |  0.08
Modify  | 1.9125     | 1.9125     | 1.9125     |   0.0 |  0.78
Other   |            | 0.5123     |            |       |  0.21

Nlocal:    19652 ave 19652 max 19652 min
Histogram: 1 0 0 0 0 0 0 0 0 0
Nghost:    19576 ave 19576 max 19576 min
Histogram: 1 0 0 0 0 0 0 0 0 0
Neighs:    1.74947e+06 ave 1.74947e+06 max 1.74947e+06 min
Histogram: 1 0 0 0 0 0 0 0 0 0

Total # of neighbors = 1749472
Ave neighs/atom = 89.0226
Neighbor list builds = 1505
Dangerous builds not checked
Setting up Verlet run ...
  Unit style    : metal
  Current step  : 56000
  Time step     : 0.001
Per MPI rank memory allocation (min/avg/max) = 19.34 | 19.34 | 19.34 Mbytes
Step Temp Press TotEng PotEng Enthalpy 
   56000     2053.931   -197.26786   -55296.785   -60513.957   -55331.464 
   56495    2026.8515    909.84016    -55535.03   -60683.418   -55375.956 
Loop time of 70.5992 on 1 procs for 495 steps with 19652 atoms

Performance: 0.606 ns/day, 39.618 hours/ns, 7.011 timesteps/s
100.0% CPU use with 1 MPI tasks x no OpenMP threads

MPI task timing breakdown:
Section |  min time  |  avg time  |  max time  |%varavg| %total
---------------------------------------------------------------
Pair    | 38.163     | 38.163     | 38.163     |   0.0 | 54.06
Neigh   | 31.295     | 31.295     | 31.295     |   0.0 | 44.33
Comm    | 0.44277    | 0.44277    | 0.44277    |   0.0 |  0.63
Output  | 0.00014782 | 0.00014782 | 0.00014782 |   0.0 |  0.00
Modify  | 0.53986    | 0.53986    | 0.53986    |   0.0 |  0.76
Other   |            | 0.1584     |            |       |  0.22

Nlocal:    19652 ave 19652 max 19652 min
Histogram: 1 0 0 0 0 0 0 0 0 0
Nghost:    19658 ave 19658 max 19658 min
Histogram: 1 0 0 0 0 0 0 0 0 0
Neighs:    1.7571e+06 ave 1.7571e+06 max 1.7571e+06 min
Histogram: 1 0 0 0 0 0 0 0 0 0

Total # of neighbors = 1757098
Ave neighs/atom = 89.4106
Neighbor list builds = 495
Dangerous builds not checked
Setting up Verlet run ...
  Unit style    : metal
  Current step  : 56495
  Time step     : 0.001
Per MPI rank memory allocation (min/avg/max) = 19.34 | 19.34 | 19.34 Mbytes
Step Temp Press TotEng PotEng Enthalpy 
   56495    2026.8515    909.84016    -55535.03   -60683.418   -55375.956 
   58000    2006.8542   -23.032984   -55601.773   -60699.365     -55605.8 
Loop time of 238.633 on 1 procs for 1505 steps with 19652 atoms

Performance: 0.545 ns/day, 44.044 hours/ns, 6.307 timesteps/s
99.9% CPU use with 1 MPI tasks x no OpenMP threads

MPI task timing breakdown:
Section |  min time  |  avg time  |  max time  |%varavg| %total
---------------------------------------------------------------
Pair    | 130.55     | 130.55     | 130.55     |   0.0 | 54.71
Neigh   | 104.01     | 104.01     | 104.01     |   0.0 | 43.59
Comm    | 1.5417     | 1.5417     | 1.5417     |   0.0 |  0.65
Output  | 0.17451    | 0.17451    | 0.17451    |   0.0 |  0.07
Modify  | 1.8294     | 1.8294     | 1.8294     |   0.0 |  0.77
Other   |            | 0.5236     |            |       |  0.22

Nlocal:    19652 ave 19652 max 19652 min
Histogram: 1 0 0 0 0 0 0 0 0 0
Nghost:    19659 ave 19659 max 19659 min
Histogram: 1 0 0 0 0 0 0 0 0 0
Neighs:    1.75834e+06 ave 1.75834e+06 max 1.75834e+06 min
Histogram: 1 0 0 0 0 0 0 0 0 0

Total # of neighbors = 1758338
Ave neighs/atom = 89.4737
Neighbor list builds = 1505
Dangerous builds not checked
Setting up Verlet run ...
  Unit style    : metal
  Current step  : 58000
  Time step     : 0.001
Per MPI rank memory allocation (min/avg/max) = 19.34 | 19.34 | 19.34 Mbytes
Step Temp Press TotEng PotEng Enthalpy 
   58000    2006.8542   -23.032984   -55601.773   -60699.365     -55605.8 
   58495    1955.9539   -77.112019   -55822.796   -60791.097   -55836.248 
Loop time of 69.0806 on 1 procs for 495 steps with 19652 atoms

Performance: 0.619 ns/day, 38.766 hours/ns, 7.166 timesteps/s
100.0% CPU use with 1 MPI tasks x no OpenMP threads

MPI task timing breakdown:
Section |  min time  |  avg time  |  max time  |%varavg| %total
---------------------------------------------------------------
Pair    | 37.339     | 37.339     | 37.339     |   0.0 | 54.05
Neigh   | 30.622     | 30.622     | 30.622     |   0.0 | 44.33
Comm    | 0.43688    | 0.43688    | 0.43688    |   0.0 |  0.63
Output  | 0.00013995 | 0.00013995 | 0.00013995 |   0.0 |  0.00
Modify  | 0.52803    | 0.52803    | 0.52803    |   0.0 |  0.76
Other   |            | 0.1543     |            |       |  0.22

Nlocal:    19652 ave 19652 max 19652 min
Histogram: 1 0 0 0 0 0 0 0 0 0
Nghost:    19619 ave 19619 max 19619 min
Histogram: 1 0 0 0 0 0 0 0 0 0
Neighs:    1.76178e+06 ave 1.76178e+06 max 1.76178e+06 min
Histogram: 1 0 0 0 0 0 0 0 0 0

Total # of neighbors = 1761781
Ave neighs/atom = 89.6489
Neighbor list builds = 495
Dangerous builds not checked
Setting up Verlet run ...
  Unit style    : metal
  Current step  : 58495
  Time step     : 0.001
Per MPI rank memory allocation (min/avg/max) = 19.34 | 19.34 | 19.34 Mbytes
Step Temp Press TotEng PotEng Enthalpy 
   58495    1955.9539   -77.112019   -55822.796   -60791.097   -55836.248 
   60000    1941.1269    261.69544    -55960.84   -60891.479   -55915.348 
Loop time of 234.801 on 1 procs for 1505 steps with 19652 atoms

Performance: 0.554 ns/day, 43.337 hours/ns, 6.410 timesteps/s
99.8% CPU use with 1 MPI tasks x no OpenMP threads

MPI task timing breakdown:
Section |  min time  |  avg time  |  max time  |%varavg| %total
---------------------------------------------------------------
Pair    | 128.5      | 128.5      | 128.5      |   0.0 | 54.73
Neigh   | 102.43     | 102.43     | 102.43     |   0.0 | 43.62
Comm    | 1.4791     | 1.4791     | 1.4791     |   0.0 |  0.63
Output  | 0.074489   | 0.074489   | 0.074489   |   0.0 |  0.03
Modify  | 1.8011     | 1.8011     | 1.8011     |   0.0 |  0.77
Other   |            | 0.5184     |            |       |  0.22

Nlocal:    19652 ave 19652 max 19652 min
Histogram: 1 0 0 0 0 0 0 0 0 0
Nghost:    19689 ave 19689 max 19689 min
Histogram: 1 0 0 0 0 0 0 0 0 0
Neighs:    1.76718e+06 ave 1.76718e+06 max 1.76718e+06 min
Histogram: 1 0 0 0 0 0 0 0 0 0

Total # of neighbors = 1767176
Ave neighs/atom = 89.9235
Neighbor list builds = 1505
Dangerous builds not checked
Setting up Verlet run ...
  Unit style    : metal
  Current step  : 60000
  Time step     : 0.001
Per MPI rank memory allocation (min/avg/max) = 19.34 | 19.34 | 19.34 Mbytes
Step Temp Press TotEng PotEng Enthalpy 
   60000    1941.1269    261.69544    -55960.84   -60891.479   -55915.348 
   60495    1891.9579    1232.1498    -56143.09   -60948.836   -55929.457 
Loop time of 69.6106 on 1 procs for 495 steps with 19652 atoms

Performance: 0.614 ns/day, 39.063 hours/ns, 7.111 timesteps/s
99.9% CPU use with 1 MPI tasks x no OpenMP threads

MPI task timing breakdown:
Section |  min time  |  avg time  |  max time  |%varavg| %total
---------------------------------------------------------------
Pair    | 37.856     | 37.856     | 37.856     |   0.0 | 54.38
Neigh   | 30.63      | 30.63      | 30.63      |   0.0 | 44.00
Comm    | 0.43532    | 0.43532    | 0.43532    |   0.0 |  0.63
Output  | 0.00011706 | 0.00011706 | 0.00011706 |   0.0 |  0.00
Modify  | 0.53151    | 0.53151    | 0.53151    |   0.0 |  0.76
Other   |            | 0.1577     |            |       |  0.23

Nlocal:    19652 ave 19652 max 19652 min
Histogram: 1 0 0 0 0 0 0 0 0 0
Nghost:    19665 ave 19665 max 19665 min
Histogram: 1 0 0 0 0 0 0 0 0 0
Neighs:    1.77249e+06 ave 1.77249e+06 max 1.77249e+06 min
Histogram: 1 0 0 0 0 0 0 0 0 0

Total # of neighbors = 1772494
Ave neighs/atom = 90.1941
Neighbor list builds = 495
Dangerous builds not checked
Setting up Verlet run ...
  Unit style    : metal
  Current step  : 60495
  Time step     : 0.001
Per MPI rank memory allocation (min/avg/max) = 19.34 | 19.34 | 19.34 Mbytes
Step Temp Press TotEng PotEng Enthalpy 
   60495    1891.9579    1232.1498    -56143.09   -60948.836   -55929.457 
   62000    1883.6298   -1987.9651   -56273.161   -61057.752   -56618.019 
Loop time of 222.991 on 1 procs for 1505 steps with 19652 atoms

Performance: 0.583 ns/day, 41.157 hours/ns, 6.749 timesteps/s
99.9% CPU use with 1 MPI tasks x no OpenMP threads

MPI task timing breakdown:
Section |  min time  |  avg time  |  max time  |%varavg| %total
---------------------------------------------------------------
Pair    | 121.35     | 121.35     | 121.35     |   0.0 | 54.42
Neigh   | 97.977     | 97.977     | 97.977     |   0.0 | 43.94
Comm    | 1.393      | 1.393      | 1.393      |   0.0 |  0.62
Output  | 0.075095   | 0.075095   | 0.075095   |   0.0 |  0.03
Modify  | 1.688      | 1.688      | 1.688      |   0.0 |  0.76
Other   |            | 0.5095     |            |       |  0.23

Nlocal:    19652 ave 19652 max 19652 min
Histogram: 1 0 0 0 0 0 0 0 0 0
Nghost:    19679 ave 19679 max 19679 min
Histogram: 1 0 0 0 0 0 0 0 0 0
Neighs:    1.77176e+06 ave 1.77176e+06 max 1.77176e+06 min
Histogram: 1 0 0 0 0 0 0 0 0 0

Total # of neighbors = 1771762
Ave neighs/atom = 90.1568
Neighbor list builds = 1505
Dangerous builds not checked
Setting up Verlet run ...
  Unit style    : metal
  Current step  : 62000
  Time step     : 0.001
Per MPI rank memory allocation (min/avg/max) = 19.34 | 19.34 | 19.34 Mbytes
Step Temp Press TotEng PotEng Enthalpy 
   62000    1883.6298   -1987.9651   -56273.161   -61057.752   -56618.019 
   62495    1850.8362   -528.04819   -56452.776   -61154.069   -56544.034 
Loop time of 70.7728 on 1 procs for 495 steps with 19652 atoms

Performance: 0.604 ns/day, 39.715 hours/ns, 6.994 timesteps/s
99.9% CPU use with 1 MPI tasks x no OpenMP threads

MPI task timing breakdown:
Section |  min time  |  avg time  |  max time  |%varavg| %total
---------------------------------------------------------------
Pair    | 38.373     | 38.373     | 38.373     |   0.0 | 54.22
Neigh   | 31.257     | 31.257     | 31.257     |   0.0 | 44.17
Comm    | 0.43524    | 0.43524    | 0.43524    |   0.0 |  0.61
Output  | 0.00011396 | 0.00011396 | 0.00011396 |   0.0 |  0.00
Modify  | 0.5434     | 0.5434     | 0.5434     |   0.0 |  0.77
Other   |            | 0.1636     |            |       |  0.23

Nlocal:    19652 ave 19652 max 19652 min
Histogram: 1 0 0 0 0 0 0 0 0 0
Nghost:    19672 ave 19672 max 19672 min
Histogram: 1 0 0 0 0 0 0 0 0 0
Neighs:    1.7781e+06 ave 1.7781e+06 max 1.7781e+06 min
Histogram: 1 0 0 0 0 0 0 0 0 0

Total # of neighbors = 1778097
Ave neighs/atom = 90.4792
Neighbor list builds = 495
Dangerous builds not checked
Setting up Verlet run ...
  Unit style    : metal
  Current step  : 62495
  Time step     : 0.001
Per MPI rank memory allocation (min/avg/max) = 19.34 | 19.34 | 19.34 Mbytes
Step Temp Press TotEng PotEng Enthalpy 
   62495    1850.8362   -528.04819   -56452.776   -61154.069   -56544.034 
   64000    1850.1882    720.79247   -56533.297   -61232.944   -56409.119 
Loop time of 232.551 on 1 procs for 1505 steps with 19652 atoms

Performance: 0.559 ns/day, 42.922 hours/ns, 6.472 timesteps/s
99.9% CPU use with 1 MPI tasks x no OpenMP threads

MPI task timing breakdown:
Section |  min time  |  avg time  |  max time  |%varavg| %total
---------------------------------------------------------------
Pair    | 126.93     | 126.93     | 126.93     |   0.0 | 54.58
Neigh   | 101.75     | 101.75     | 101.75     |   0.0 | 43.75
Comm    | 1.437      | 1.437      | 1.437      |   0.0 |  0.62
Output  | 0.13665    | 0.13665    | 0.13665    |   0.0 |  0.06
Modify  | 1.7726     | 1.7726     | 1.7726     |   0.0 |  0.76
Other   |            | 0.527      |            |       |  0.23

Nlocal:    19652 ave 19652 max 19652 min
Histogram: 1 0 0 0 0 0 0 0 0 0
Nghost:    19783 ave 19783 max 19783 min
Histogram: 1 0 0 0 0 0 0 0 0 0
Neighs:    1.78221e+06 ave 1.78221e+06 max 1.78221e+06 min
Histogram: 1 0 0 0 0 0 0 0 0 0

Total # of neighbors = 1782209
Ave neighs/atom = 90.6884
Neighbor list builds = 1505
Dangerous builds not checked
Setting up Verlet run ...
  Unit style    : metal
  Current step  : 64000
  Time step     : 0.001
Per MPI rank memory allocation (min/avg/max) = 19.34 | 19.34 | 19.34 Mbytes
Step Temp Press TotEng PotEng Enthalpy 
   64000    1850.1882    720.79247   -56533.297   -61232.944   -56409.119 
   64495    1805.4062    2006.6514   -56729.439   -61315.335   -56385.085 
Loop time of 75.129 on 1 procs for 495 steps with 19652 atoms

Performance: 0.569 ns/day, 42.160 hours/ns, 6.589 timesteps/s
100.0% CPU use with 1 MPI tasks x no OpenMP threads

MPI task timing breakdown:
Section |  min time  |  avg time  |  max time  |%varavg| %total
---------------------------------------------------------------
Pair    | 40.968     | 40.968     | 40.968     |   0.0 | 54.53
Neigh   | 32.949     | 32.949     | 32.949     |   0.0 | 43.86
Comm    | 0.46474    | 0.46474    | 0.46474    |   0.0 |  0.62
Output  | 0.00018406 | 0.00018406 | 0.00018406 |   0.0 |  0.00
Modify  | 0.57647    | 0.57647    | 0.57647    |   0.0 |  0.77
Other   |            | 0.1702     |            |       |  0.23

Nlocal:    19652 ave 19652 max 19652 min
Histogram: 1 0 0 0 0 0 0 0 0 0
Nghost:    19759 ave 19759 max 19759 min
Histogram: 1 0 0 0 0 0 0 0 0 0
Neighs:    1.79031e+06 ave 1.79031e+06 max 1.79031e+06 min
Histogram: 1 0 0 0 0 0 0 0 0 0

Total # of neighbors = 1790309
Ave neighs/atom = 91.1006
Neighbor list builds = 495
Dangerous builds not checked
Setting up Verlet run ...
  Unit style    : metal
  Current step  : 64495
  Time step     : 0.001
Per MPI rank memory allocation (min/avg/max) = 19.34 | 19.34 | 19.34 Mbytes
Step Temp Press TotEng PotEng Enthalpy 
   64495    1805.4062    2006.6514   -56729.439   -61315.335   -56385.085 
   66000    1781.0378    583.07074   -56917.712    -61441.71   -56817.815 
Loop time of 221.041 on 1 procs for 1505 steps with 19652 atoms

Performance: 0.588 ns/day, 40.797 hours/ns, 6.809 timesteps/s
99.8% CPU use with 1 MPI tasks x no OpenMP threads

MPI task timing breakdown:
Section |  min time  |  avg time  |  max time  |%varavg| %total
---------------------------------------------------------------
Pair    | 120.46     | 120.46     | 120.46     |   0.0 | 54.50
Neigh   | 96.898     | 96.898     | 96.898     |   0.0 | 43.84
Comm    | 1.3702     | 1.3702     | 1.3702     |   0.0 |  0.62
Output  | 0.15085    | 0.15085    | 0.15085    |   0.0 |  0.07
Modify  | 1.6669     | 1.6669     | 1.6669     |   0.0 |  0.75
Other   |            | 0.4925     |            |       |  0.22

Nlocal:    19652 ave 19652 max 19652 min
Histogram: 1 0 0 0 0 0 0 0 0 0
Nghost:    19811 ave 19811 max 19811 min
Histogram: 1 0 0 0 0 0 0 0 0 0
Neighs:    1.79188e+06 ave 1.79188e+06 max 1.79188e+06 min
Histogram: 1 0 0 0 0 0 0 0 0 0

Total # of neighbors = 1791879
Ave neighs/atom = 91.1805
Neighbor list builds = 1505
Dangerous builds not checked
Setting up Verlet run ...
  Unit style    : metal
  Current step  : 66000
  Time step     : 0.001
Per MPI rank memory allocation (min/avg/max) = 19.34 | 19.34 | 19.34 Mbytes
Step Temp Press TotEng PotEng Enthalpy 
   66000    1781.0378    583.07074   -56917.712    -61441.71   -56817.815 
   66495    1759.0622     515.2262   -57042.621     -61510.8   -56954.498 
Loop time of 73.7521 on 1 procs for 495 steps with 19652 atoms

Performance: 0.580 ns/day, 41.387 hours/ns, 6.712 timesteps/s
100.0% CPU use with 1 MPI tasks x no OpenMP threads

MPI task timing breakdown:
Section |  min time  |  avg time  |  max time  |%varavg| %total
---------------------------------------------------------------
Pair    | 40.472     | 40.472     | 40.472     |   0.0 | 54.88
Neigh   | 32.092     | 32.092     | 32.092     |   0.0 | 43.51
Comm    | 0.46048    | 0.46048    | 0.46048    |   0.0 |  0.62
Output  | 0.00015593 | 0.00015593 | 0.00015593 |   0.0 |  0.00
Modify  | 0.56279    | 0.56279    | 0.56279    |   0.0 |  0.76
Other   |            | 0.1654     |            |       |  0.22

Nlocal:    19652 ave 19652 max 19652 min
Histogram: 1 0 0 0 0 0 0 0 0 0
Nghost:    19915 ave 19915 max 19915 min
Histogram: 1 0 0 0 0 0 0 0 0 0
Neighs:    1.79529e+06 ave 1.79529e+06 max 1.79529e+06 min
Histogram: 1 0 0 0 0 0 0 0 0 0

Total # of neighbors = 1795292
Ave neighs/atom = 91.3542
Neighbor list builds = 495
Dangerous builds not checked
Setting up Verlet run ...
  Unit style    : metal
  Current step  : 66495
  Time step     : 0.001
Per MPI rank memory allocation (min/avg/max) = 19.34 | 19.34 | 19.34 Mbytes
Step Temp Press TotEng PotEng Enthalpy 
   66495    1759.0622     515.2262   -57042.621     -61510.8   -56954.498 
   68000    1767.3989    1137.7731    -57173.81   -61663.164   -56979.969 
Loop time of 211.977 on 1 procs for 1505 steps with 19652 atoms

Performance: 0.613 ns/day, 39.125 hours/ns, 7.100 timesteps/s
99.8% CPU use with 1 MPI tasks x no OpenMP threads

MPI task timing breakdown:
Section |  min time  |  avg time  |  max time  |%varavg| %total
---------------------------------------------------------------
Pair    | 115.29     | 115.29     | 115.29     |   0.0 | 54.39
Neigh   | 93.224     | 93.224     | 93.224     |   0.0 | 43.98
Comm    | 1.2927     | 1.2927     | 1.2927     |   0.0 |  0.61
Output  | 0.11773    | 0.11773    | 0.11773    |   0.0 |  0.06
Modify  | 1.5749     | 1.5749     | 1.5749     |   0.0 |  0.74
Other   |            | 0.4776     |            |       |  0.23

Nlocal:    19652 ave 19652 max 19652 min
Histogram: 1 0 0 0 0 0 0 0 0 0
Nghost:    19880 ave 19880 max 19880 min
Histogram: 1 0 0 0 0 0 0 0 0 0
Neighs:    1.80251e+06 ave 1.80251e+06 max 1.80251e+06 min
Histogram: 1 0 0 0 0 0 0 0 0 0

Total # of neighbors = 1802507
Ave neighs/atom = 91.7213
Neighbor list builds = 1505
Dangerous builds not checked
Setting up Verlet run ...
  Unit style    : metal
  Current step  : 68000
  Time step     : 0.001
Per MPI rank memory allocation (min/avg/max) = 19.34 | 19.34 | 19.34 Mbytes
Step Temp Press TotEng PotEng Enthalpy 
   68000    1767.3989    1137.7731    -57173.81   -61663.164   -56979.969 
   68495    1720.2315    871.80275   -57349.595    -61719.14   -57201.375 
Loop time of 71.9225 on 1 procs for 495 steps with 19652 atoms

Performance: 0.595 ns/day, 40.361 hours/ns, 6.882 timesteps/s
100.0% CPU use with 1 MPI tasks x no OpenMP threads

MPI task timing breakdown:
Section |  min time  |  avg time  |  max time  |%varavg| %total
---------------------------------------------------------------
Pair    | 39.169     | 39.169     | 39.169     |   0.0 | 54.46
Neigh   | 31.597     | 31.597     | 31.597     |   0.0 | 43.93
Comm    | 0.44427    | 0.44427    | 0.44427    |   0.0 |  0.62
Output  | 0.000144   | 0.000144   | 0.000144   |   0.0 |  0.00
Modify  | 0.54819    | 0.54819    | 0.54819    |   0.0 |  0.76
Other   |            | 0.1643     |            |       |  0.23

Nlocal:    19652 ave 19652 max 19652 min
Histogram: 1 0 0 0 0 0 0 0 0 0
Nghost:    19930 ave 19930 max 19930 min
Histogram: 1 0 0 0 0 0 0 0 0 0
Neighs:    1.80558e+06 ave 1.80558e+06 max 1.80558e+06 min
Histogram: 1 0 0 0 0 0 0 0 0 0

Total # of neighbors = 1805575
Ave neighs/atom = 91.8774
Neighbor list builds = 495
Dangerous builds not checked
Setting up Verlet run ...
  Unit style    : metal
  Current step  : 68495
  Time step     : 0.001
Per MPI rank memory allocation (min/avg/max) = 19.34 | 19.34 | 19.34 Mbytes
Step Temp Press TotEng PotEng Enthalpy 
   68495    1720.2315    871.80275   -57349.595    -61719.14   -57201.375 
   70000    1696.5027   -900.47373   -57476.614   -61785.885   -57629.719 
Loop time of 233.926 on 1 procs for 1505 steps with 19652 atoms

Performance: 0.556 ns/day, 43.176 hours/ns, 6.434 timesteps/s
99.5% CPU use with 1 MPI tasks x no OpenMP threads

MPI task timing breakdown:
Section |  min time  |  avg time  |  max time  |%varavg| %total
---------------------------------------------------------------
Pair    | 128.31     | 128.31     | 128.31     |   0.0 | 54.85
Neigh   | 101.53     | 101.53     | 101.53     |   0.0 | 43.40
Comm    | 1.456      | 1.456      | 1.456      |   0.0 |  0.62
Output  | 0.34029    | 0.34029    | 0.34029    |   0.0 |  0.15
Modify  | 1.7723     | 1.7723     | 1.7723     |   0.0 |  0.76
Other   |            | 0.5184     |            |       |  0.22

Nlocal:    19652 ave 19652 max 19652 min
Histogram: 1 0 0 0 0 0 0 0 0 0
Nghost:    19811 ave 19811 max 19811 min
Histogram: 1 0 0 0 0 0 0 0 0 0
Neighs:    1.8056e+06 ave 1.8056e+06 max 1.8056e+06 min
Histogram: 1 0 0 0 0 0 0 0 0 0

Total # of neighbors = 1805601
Ave neighs/atom = 91.8787
Neighbor list builds = 1505
Dangerous builds not checked
Setting up Verlet run ...
  Unit style    : metal
  Current step  : 70000
  Time step     : 0.001
Per MPI rank memory allocation (min/avg/max) = 19.34 | 19.34 | 19.34 Mbytes
Step Temp Press TotEng PotEng Enthalpy 
   70000    1696.5027   -900.47373   -57476.614   -61785.885   -57629.719 
   70495    1664.1456    665.33238   -57693.916   -61920.997   -57581.324 
Loop time of 75.5223 on 1 procs for 495 steps with 19652 atoms

Performance: 0.566 ns/day, 42.381 hours/ns, 6.554 timesteps/s
99.9% CPU use with 1 MPI tasks x no OpenMP threads

MPI task timing breakdown:
Section |  min time  |  avg time  |  max time  |%varavg| %total
---------------------------------------------------------------
Pair    | 41.675     | 41.675     | 41.675     |   0.0 | 55.18
Neigh   | 32.635     | 32.635     | 32.635     |   0.0 | 43.21
Comm    | 0.46661    | 0.46661    | 0.46661    |   0.0 |  0.62
Output  | 0.00017691 | 0.00017691 | 0.00017691 |   0.0 |  0.00
Modify  | 0.57735    | 0.57735    | 0.57735    |   0.0 |  0.76
Other   |            | 0.1675     |            |       |  0.22

Nlocal:    19652 ave 19652 max 19652 min
Histogram: 1 0 0 0 0 0 0 0 0 0
Nghost:    19967 ave 19967 max 19967 min
Histogram: 1 0 0 0 0 0 0 0 0 0
Neighs:    1.81403e+06 ave 1.81403e+06 max 1.81403e+06 min
Histogram: 1 0 0 0 0 0 0 0 0 0

Total # of neighbors = 1814031
Ave neighs/atom = 92.3077
Neighbor list builds = 495
Dangerous builds not checked
Setting up Verlet run ...
  Unit style    : metal
  Current step  : 70495
  Time step     : 0.001
Per MPI rank memory allocation (min/avg/max) = 19.34 | 19.34 | 19.34 Mbytes
Step Temp Press TotEng PotEng Enthalpy 
   70495    1664.1456    665.33238   -57693.916   -61920.997   -57581.324 
   72000    1644.6662   -2723.0967   -57773.141   -61950.743   -58235.038 
Loop time of 232.101 on 1 procs for 1505 steps with 19652 atoms

Performance: 0.560 ns/day, 42.839 hours/ns, 6.484 timesteps/s
99.9% CPU use with 1 MPI tasks x no OpenMP threads

MPI task timing breakdown:
Section |  min time  |  avg time  |  max time  |%varavg| %total
---------------------------------------------------------------
Pair    | 127.31     | 127.31     | 127.31     |   0.0 | 54.85
Neigh   | 100.98     | 100.98     | 100.98     |   0.0 | 43.51
Comm    | 1.4465     | 1.4465     | 1.4465     |   0.0 |  0.62
Output  | 0.0822     | 0.0822     | 0.0822     |   0.0 |  0.04
Modify  | 1.7675     | 1.7675     | 1.7675     |   0.0 |  0.76
Other   |            | 0.516      |            |       |  0.22

Nlocal:    19652 ave 19652 max 19652 min
Histogram: 1 0 0 0 0 0 0 0 0 0
Nghost:    19855 ave 19855 max 19855 min
Histogram: 1 0 0 0 0 0 0 0 0 0
Neighs:    1.80897e+06 ave 1.80897e+06 max 1.80897e+06 min
Histogram: 1 0 0 0 0 0 0 0 0 0

Total # of neighbors = 1808973
Ave neighs/atom = 92.0503
Neighbor list builds = 1505
Dangerous builds not checked
Setting up Verlet run ...
  Unit style    : metal
  Current step  : 72000
  Time step     : 0.001
Per MPI rank memory allocation (min/avg/max) = 19.34 | 19.34 | 19.34 Mbytes
Step Temp Press TotEng PotEng Enthalpy 
   72000    1644.6662   -2723.0967   -57773.141   -61950.743   -58235.038 
   72495    1600.7566   -1422.8237   -57992.721   -62058.789   -58233.057 
Loop time of 77.65 on 1 procs for 495 steps with 19652 atoms

Performance: 0.551 ns/day, 43.575 hours/ns, 6.375 timesteps/s
99.9% CPU use with 1 MPI tasks x no OpenMP threads

MPI task timing breakdown:
Section |  min time  |  avg time  |  max time  |%varavg| %total
---------------------------------------------------------------
Pair    | 42.859     | 42.859     | 42.859     |   0.0 | 55.20
Neigh   | 33.524     | 33.524     | 33.524     |   0.0 | 43.17
Comm    | 0.48702    | 0.48702    | 0.48702    |   0.0 |  0.63
Output  | 0.00015807 | 0.00015807 | 0.00015807 |   0.0 |  0.00
Modify  | 0.6061     | 0.6061     | 0.6061     |   0.0 |  0.78
Other   |            | 0.174      |            |       |  0.22

Nlocal:    19652 ave 19652 max 19652 min
Histogram: 1 0 0 0 0 0 0 0 0 0
Nghost:    19953 ave 19953 max 19953 min
Histogram: 1 0 0 0 0 0 0 0 0 0
Neighs:    1.81751e+06 ave 1.81751e+06 max 1.81751e+06 min
Histogram: 1 0 0 0 0 0 0 0 0 0

Total # of neighbors = 1817506
Ave neighs/atom = 92.4845
Neighbor list builds = 495
Dangerous builds not checked
Setting up Verlet run ...
  Unit style    : metal
  Current step  : 72495
  Time step     : 0.001
Per MPI rank memory allocation (min/avg/max) = 19.34 | 19.34 | 19.34 Mbytes
Step Temp Press TotEng PotEng Enthalpy 
   72495    1600.7566   -1422.8237   -57992.721   -62058.789   -58233.057 
   74000    1612.2604    1677.2451   -58075.726   -62171.015   -57794.002 
Loop time of 239.188 on 1 procs for 1505 steps with 19652 atoms

Performance: 0.544 ns/day, 44.147 hours/ns, 6.292 timesteps/s
99.8% CPU use with 1 MPI tasks x no OpenMP threads

MPI task timing breakdown:
Section |  min time  |  avg time  |  max time  |%varavg| %total
---------------------------------------------------------------
Pair    | 131.69     | 131.69     | 131.69     |   0.0 | 55.06
Neigh   | 103.59     | 103.59     | 103.59     |   0.0 | 43.31
Comm    | 1.4919     | 1.4919     | 1.4919     |   0.0 |  0.62
Output  | 0.056547   | 0.056547   | 0.056547   |   0.0 |  0.02
Modify  | 1.8245     | 1.8245     | 1.8245     |   0.0 |  0.76
Other   |            | 0.5304     |            |       |  0.22

Nlocal:    19652 ave 19652 max 19652 min
Histogram: 1 0 0 0 0 0 0 0 0 0
Nghost:    19932 ave 19932 max 19932 min
Histogram: 1 0 0 0 0 0 0 0 0 0
Neighs:    1.82697e+06 ave 1.82697e+06 max 1.82697e+06 min
Histogram: 1 0 0 0 0 0 0 0 0 0

Total # of neighbors = 1826970
Ave neighs/atom = 92.9661
Neighbor list builds = 1505
Dangerous builds not checked
Setting up Verlet run ...
  Unit style    : metal
  Current step  : 74000
  Time step     : 0.001
Per MPI rank memory allocation (min/avg/max) = 19.34 | 19.34 | 19.34 Mbytes
Step Temp Press TotEng PotEng Enthalpy 
   74000    1612.2604    1677.2451   -58075.726   -62171.015   -57794.002 
   74495    1570.4941    902.23878   -58272.246   -62261.444   -58120.912 
Loop time of 83.3155 on 1 procs for 495 steps with 19652 atoms

Performance: 0.513 ns/day, 46.754 hours/ns, 5.941 timesteps/s
99.1% CPU use with 1 MPI tasks x no OpenMP threads

MPI task timing breakdown:
Section |  min time  |  avg time  |  max time  |%varavg| %total
---------------------------------------------------------------
Pair    | 46.038     | 46.038     | 46.038     |   0.0 | 55.26
Neigh   | 35.922     | 35.922     | 35.922     |   0.0 | 43.12
Comm    | 0.51962    | 0.51962    | 0.51962    |   0.0 |  0.62
Output  | 0.000175   | 0.000175   | 0.000175   |   0.0 |  0.00
Modify  | 0.64261    | 0.64261    | 0.64261    |   0.0 |  0.77
Other   |            | 0.1933     |            |       |  0.23

Nlocal:    19652 ave 19652 max 19652 min
Histogram: 1 0 0 0 0 0 0 0 0 0
Nghost:    19981 ave 19981 max 19981 min
Histogram: 1 0 0 0 0 0 0 0 0 0
Neighs:    1.82976e+06 ave 1.82976e+06 max 1.82976e+06 min
Histogram: 1 0 0 0 0 0 0 0 0 0

Total # of neighbors = 1829762
Ave neighs/atom = 93.1082
Neighbor list builds = 495
Dangerous builds not checked
Setting up Verlet run ...
  Unit style    : metal
  Current step  : 74495
  Time step     : 0.001
Per MPI rank memory allocation (min/avg/max) = 19.34 | 19.34 | 19.34 Mbytes
Step Temp Press TotEng PotEng Enthalpy 
   74495    1570.4941    902.23878   -58272.246   -62261.444   -58120.912 
   76000    1543.4177   -1274.5505   -58469.507   -62389.928   -58682.941 
Loop time of 247.896 on 1 procs for 1505 steps with 19652 atoms

Performance: 0.525 ns/day, 45.754 hours/ns, 6.071 timesteps/s
99.9% CPU use with 1 MPI tasks x no OpenMP threads

MPI task timing breakdown:
Section |  min time  |  avg time  |  max time  |%varavg| %total
---------------------------------------------------------------
Pair    | 136.84     | 136.84     | 136.84     |   0.0 | 55.20
Neigh   | 106.99     | 106.99     | 106.99     |   0.0 | 43.16
Comm    | 1.5334     | 1.5334     | 1.5334     |   0.0 |  0.62
Output  | 0.062498   | 0.062498   | 0.062498   |   0.0 |  0.03
Modify  | 1.9064     | 1.9064     | 1.9064     |   0.0 |  0.77
Other   |            | 0.5563     |            |       |  0.22

Nlocal:    19652 ave 19652 max 19652 min
Histogram: 1 0 0 0 0 0 0 0 0 0
Nghost:    19937 ave 19937 max 19937 min
Histogram: 1 0 0 0 0 0 0 0 0 0
Neighs:    1.83182e+06 ave 1.83182e+06 max 1.83182e+06 min
Histogram: 1 0 0 0 0 0 0 0 0 0

Total # of neighbors = 1831817
Ave neighs/atom = 93.2128
Neighbor list builds = 1505
Dangerous builds not checked
Setting up Verlet run ...
  Unit style    : metal
  Current step  : 76000
  Time step     : 0.001
Per MPI rank memory allocation (min/avg/max) = 19.34 | 19.34 | 19.34 Mbytes
Step Temp Press TotEng PotEng Enthalpy 
   76000    1543.4177   -1274.5505   -58469.507   -62389.928   -58682.941 
   76495    1514.5578    544.93398   -58598.164   -62445.279   -58507.193 
Loop time of 76.5442 on 1 procs for 495 steps with 19652 atoms

Performance: 0.559 ns/day, 42.954 hours/ns, 6.467 timesteps/s
99.9% CPU use with 1 MPI tasks x no OpenMP threads

MPI task timing breakdown:
Section |  min time  |  avg time  |  max time  |%varavg| %total
---------------------------------------------------------------
Pair    | 42.122     | 42.122     | 42.122     |   0.0 | 55.03
Neigh   | 33.185     | 33.185     | 33.185     |   0.0 | 43.35
Comm    | 0.47036    | 0.47036    | 0.47036    |   0.0 |  0.61
Output  | 0.0001421  | 0.0001421  | 0.0001421  |   0.0 |  0.00
Modify  | 0.59206    | 0.59206    | 0.59206    |   0.0 |  0.77
Other   |            | 0.1754     |            |       |  0.23

Nlocal:    19652 ave 19652 max 19652 min
Histogram: 1 0 0 0 0 0 0 0 0 0
Nghost:    20013 ave 20013 max 20013 min
Histogram: 1 0 0 0 0 0 0 0 0 0
Neighs:    1.83736e+06 ave 1.83736e+06 max 1.83736e+06 min
Histogram: 1 0 0 0 0 0 0 0 0 0

Total # of neighbors = 1837357
Ave neighs/atom = 93.4947
Neighbor list builds = 495
Dangerous builds not checked
Setting up Verlet run ...
  Unit style    : metal
  Current step  : 76495
  Time step     : 0.001
Per MPI rank memory allocation (min/avg/max) = 19.34 | 19.34 | 19.34 Mbytes
Step Temp Press TotEng PotEng Enthalpy 
   76495    1514.5578    544.93398   -58598.164   -62445.279   -58507.193 
   78000    1499.5996   -1065.7848   -58709.253   -62518.372   -58887.144 
Loop time of 243.806 on 1 procs for 1505 steps with 19652 atoms

Performance: 0.533 ns/day, 44.999 hours/ns, 6.173 timesteps/s
99.8% CPU use with 1 MPI tasks x no OpenMP threads

MPI task timing breakdown:
Section |  min time  |  avg time  |  max time  |%varavg| %total
---------------------------------------------------------------
Pair    | 134.53     | 134.53     | 134.53     |   0.0 | 55.18
Neigh   | 105.27     | 105.27     | 105.27     |   0.0 | 43.18
Comm    | 1.5039     | 1.5039     | 1.5039     |   0.0 |  0.62
Output  | 0.064039   | 0.064039   | 0.064039   |   0.0 |  0.03
Modify  | 1.8798     | 1.8798     | 1.8798     |   0.0 |  0.77
Other   |            | 0.5569     |            |       |  0.23

Nlocal:    19652 ave 19652 max 19652 min
Histogram: 1 0 0 0 0 0 0 0 0 0
Nghost:    20004 ave 20004 max 20004 min
Histogram: 1 0 0 0 0 0 0 0 0 0
Neighs:    1.83838e+06 ave 1.83838e+06 max 1.83838e+06 min
Histogram: 1 0 0 0 0 0 0 0 0 0

Total # of neighbors = 1838379
Ave neighs/atom = 93.5467
Neighbor list builds = 1505
Dangerous builds not checked
Setting up Verlet run ...
  Unit style    : metal
  Current step  : 78000
  Time step     : 0.001
Per MPI rank memory allocation (min/avg/max) = 19.34 | 19.34 | 19.34 Mbytes
Step Temp Press TotEng PotEng Enthalpy 
   78000    1499.5996   -1065.7848   -58709.253   -62518.372   -58887.144 
   78495    1463.1193    17.021318   -58920.285   -62636.741   -58917.456 
Loop time of 70.9297 on 1 procs for 495 steps with 19652 atoms

Performance: 0.603 ns/day, 39.803 hours/ns, 6.979 timesteps/s
100.0% CPU use with 1 MPI tasks x no OpenMP threads

MPI task timing breakdown:
Section |  min time  |  avg time  |  max time  |%varavg| %total
---------------------------------------------------------------
Pair    | 38.849     | 38.849     | 38.849     |   0.0 | 54.77
Neigh   | 30.961     | 30.961     | 30.961     |   0.0 | 43.65
Comm    | 0.42708    | 0.42708    | 0.42708    |   0.0 |  0.60
Output  | 0.00014281 | 0.00014281 | 0.00014281 |   0.0 |  0.00
Modify  | 0.53026    | 0.53026    | 0.53026    |   0.0 |  0.75
Other   |            | 0.162      |            |       |  0.23

Nlocal:    19652 ave 19652 max 19652 min
Histogram: 1 0 0 0 0 0 0 0 0 0
Nghost:    20096 ave 20096 max 20096 min
Histogram: 1 0 0 0 0 0 0 0 0 0
Neighs:    1.84565e+06 ave 1.84565e+06 max 1.84565e+06 min
Histogram: 1 0 0 0 0 0 0 0 0 0

Total # of neighbors = 1845651
Ave neighs/atom = 93.9167
Neighbor list builds = 495
Dangerous builds not checked
Setting up Verlet run ...
  Unit style    : metal
  Current step  : 78495
  Time step     : 0.001
Per MPI rank memory allocation (min/avg/max) = 19.34 | 19.34 | 19.34 Mbytes
Step Temp Press TotEng PotEng Enthalpy 
   78495    1463.1193    17.021318   -58920.285   -62636.741   -58917.456 
   80000    1444.1594   -682.72577   -59045.224    -62713.52   -59158.559 
Loop time of 225.11 on 1 procs for 1505 steps with 19652 atoms

Performance: 0.578 ns/day, 41.549 hours/ns, 6.686 timesteps/s
100.0% CPU use with 1 MPI tasks x no OpenMP threads

MPI task timing breakdown:
Section |  min time  |  avg time  |  max time  |%varavg| %total
---------------------------------------------------------------
Pair    | 123.97     | 123.97     | 123.97     |   0.0 | 55.07
Neigh   | 97.492     | 97.492     | 97.492     |   0.0 | 43.31
Comm    | 1.3948     | 1.3948     | 1.3948     |   0.0 |  0.62
Output  | 0.0828     | 0.0828     | 0.0828     |   0.0 |  0.04
Modify  | 1.6942     | 1.6942     | 1.6942     |   0.0 |  0.75
Other   |            | 0.4781     |            |       |  0.21

Nlocal:    19652 ave 19652 max 19652 min
Histogram: 1 0 0 0 0 0 0 0 0 0
Nghost:    20007 ave 20007 max 20007 min
Histogram: 1 0 0 0 0 0 0 0 0 0
Neighs:    1.84752e+06 ave 1.84752e+06 max 1.84752e+06 min
Histogram: 1 0 0 0 0 0 0 0 0 0

Total # of neighbors = 1847518
Ave neighs/atom = 94.0117
Neighbor list builds = 1505
Dangerous builds not checked
Setting up Verlet run ...
  Unit style    : metal
  Current step  : 80000
  Time step     : 0.001
Per MPI rank memory allocation (min/avg/max) = 19.34 | 19.34 | 19.34 Mbytes
Step Temp Press TotEng PotEng Enthalpy 
   80000    1444.1594   -682.72577   -59045.224    -62713.52   -59158.559 
   80495    1411.7702    826.31231   -59247.112   -62833.137   -59110.518 
Loop time of 73.3795 on 1 procs for 495 steps with 19652 atoms

Performance: 0.583 ns/day, 41.178 hours/ns, 6.746 timesteps/s
100.0% CPU use with 1 MPI tasks x no OpenMP threads

MPI task timing breakdown:
Section |  min time  |  avg time  |  max time  |%varavg| %total
---------------------------------------------------------------
Pair    | 40.459     | 40.459     | 40.459     |   0.0 | 55.14
Neigh   | 31.747     | 31.747     | 31.747     |   0.0 | 43.26
Comm    | 0.45262    | 0.45262    | 0.45262    |   0.0 |  0.62
Output  | 0.00020909 | 0.00020909 | 0.00020909 |   0.0 |  0.00
Modify  | 0.55704    | 0.55704    | 0.55704    |   0.0 |  0.76
Other   |            | 0.1635     |            |       |  0.22

Nlocal:    19652 ave 19652 max 19652 min
Histogram: 1 0 0 0 0 0 0 0 0 0
Nghost:    20076 ave 20076 max 20076 min
Histogram: 1 0 0 0 0 0 0 0 0 0
Neighs:    1.85563e+06 ave 1.85563e+06 max 1.85563e+06 min
Histogram: 1 0 0 0 0 0 0 0 0 0

Total # of neighbors = 1855632
Ave neighs/atom = 94.4246
Neighbor list builds = 495
Dangerous builds not checked
Setting up Verlet run ...
  Unit style    : metal
  Current step  : 80495
  Time step     : 0.001
Per MPI rank memory allocation (min/avg/max) = 19.34 | 19.34 | 19.34 Mbytes
Step Temp Press TotEng PotEng Enthalpy 
   80495    1411.7702    826.31231   -59247.112   -62833.137   -59110.518 
   82000    1378.8922     230.9805    -59456.59   -62959.102   -59418.524 
Loop time of 242.971 on 1 procs for 1505 steps with 19652 atoms

Performance: 0.535 ns/day, 44.845 hours/ns, 6.194 timesteps/s
99.7% CPU use with 1 MPI tasks x no OpenMP threads

MPI task timing breakdown:
Section |  min time  |  avg time  |  max time  |%varavg| %total
---------------------------------------------------------------
Pair    | 135.36     | 135.36     | 135.36     |   0.0 | 55.71
Neigh   | 103.65     | 103.65     | 103.65     |   0.0 | 42.66
Comm    | 1.5067     | 1.5067     | 1.5067     |   0.0 |  0.62
Output  | 0.082348   | 0.082348   | 0.082348   |   0.0 |  0.03
Modify  | 1.8399     | 1.8399     | 1.8399     |   0.0 |  0.76
Other   |            | 0.5378     |            |       |  0.22

Nlocal:    19652 ave 19652 max 19652 min
Histogram: 1 0 0 0 0 0 0 0 0 0
Nghost:    20081 ave 20081 max 20081 min
Histogram: 1 0 0 0 0 0 0 0 0 0
Neighs:    1.85984e+06 ave 1.85984e+06 max 1.85984e+06 min
Histogram: 1 0 0 0 0 0 0 0 0 0

Total # of neighbors = 1859837
Ave neighs/atom = 94.6386
Neighbor list builds = 1505
Dangerous builds not checked
Setting up Verlet run ...
  Unit style    : metal
  Current step  : 82000
  Time step     : 0.001
Per MPI rank memory allocation (min/avg/max) = 19.34 | 19.34 | 19.34 Mbytes
Step Temp Press TotEng PotEng Enthalpy 
   82000    1378.8922     230.9805    -59456.59   -62959.102   -59418.524 
   82495    1362.3296    669.44168   -59555.084   -63015.525   -59444.906 
Loop time of 76.4696 on 1 procs for 495 steps with 19652 atoms

Performance: 0.559 ns/day, 42.912 hours/ns, 6.473 timesteps/s
100.0% CPU use with 1 MPI tasks x no OpenMP threads

MPI task timing breakdown:
Section |  min time  |  avg time  |  max time  |%varavg| %total
---------------------------------------------------------------
Pair    | 42.331     | 42.331     | 42.331     |   0.0 | 55.36
Neigh   | 32.919     | 32.919     | 32.919     |   0.0 | 43.05
Comm    | 0.46783    | 0.46783    | 0.46783    |   0.0 |  0.61
Output  | 0.00013995 | 0.00013995 | 0.00013995 |   0.0 |  0.00
Modify  | 0.58204    | 0.58204    | 0.58204    |   0.0 |  0.76
Other   |            | 0.1703     |            |       |  0.22

Nlocal:    19652 ave 19652 max 19652 min
Histogram: 1 0 0 0 0 0 0 0 0 0
Nghost:    20098 ave 20098 max 20098 min
Histogram: 1 0 0 0 0 0 0 0 0 0
Neighs:    1.86296e+06 ave 1.86296e+06 max 1.86296e+06 min
Histogram: 1 0 0 0 0 0 0 0 0 0

Total # of neighbors = 1862959
Ave neighs/atom = 94.7974
Neighbor list builds = 495
Dangerous builds not checked
Setting up Verlet run ...
  Unit style    : metal
  Current step  : 82495
  Time step     : 0.001
Per MPI rank memory allocation (min/avg/max) = 19.34 | 19.34 | 19.34 Mbytes
Step Temp Press TotEng PotEng Enthalpy 
   82495    1362.3296    669.44168   -59555.084   -63015.525   -59444.906 
   84000    1355.9568   -747.69128   -59652.736    -63096.99   -59775.733 
Loop time of 215.353 on 1 procs for 1505 steps with 19652 atoms

Performance: 0.604 ns/day, 39.748 hours/ns, 6.989 timesteps/s
99.9% CPU use with 1 MPI tasks x no OpenMP threads

MPI task timing breakdown:
Section |  min time  |  avg time  |  max time  |%varavg| %total
---------------------------------------------------------------
Pair    | 118.41     | 118.41     | 118.41     |   0.0 | 54.98
Neigh   | 93.495     | 93.495     | 93.495     |   0.0 | 43.41
Comm    | 1.3206     | 1.3206     | 1.3206     |   0.0 |  0.61
Output  | 0.073319   | 0.073319   | 0.073319   |   0.0 |  0.03
Modify  | 1.614      | 1.614      | 1.614      |   0.0 |  0.75
Other   |            | 0.4401     |            |       |  0.20

Nlocal:    19652 ave 19652 max 19652 min
Histogram: 1 0 0 0 0 0 0 0 0 0
Nghost:    20129 ave 20129 max 20129 min
Histogram: 1 0 0 0 0 0 0 0 0 0
Neighs:    1.86385e+06 ave 1.86385e+06 max 1.86385e+06 min
Histogram: 1 0 0 0 0 0 0 0 0 0

Total # of neighbors = 1863854
Ave neighs/atom = 94.843
Neighbor list builds = 1505
Dangerous builds not checked
Setting up Verlet run ...
  Unit style    : metal
  Current step  : 84000
  Time step     : 0.001
Per MPI rank memory allocation (min/avg/max) = 19.34 | 19.34 | 19.34 Mbytes
Step Temp Press TotEng PotEng Enthalpy 
   84000    1355.9568   -747.69128   -59652.736    -63096.99   -59775.733 
   84495    1308.7754   -558.86724   -59883.888   -63208.296   -59975.513 
Loop time of 70.0524 on 1 procs for 495 steps with 19652 atoms

Performance: 0.611 ns/day, 39.311 hours/ns, 7.066 timesteps/s
100.0% CPU use with 1 MPI tasks x no OpenMP threads

MPI task timing breakdown:
Section |  min time  |  avg time  |  max time  |%varavg| %total
---------------------------------------------------------------
Pair    | 38.465     | 38.465     | 38.465     |   0.0 | 54.91
Neigh   | 30.485     | 30.485     | 30.485     |   0.0 | 43.52
Comm    | 0.42752    | 0.42752    | 0.42752    |   0.0 |  0.61
Output  | 0.00012302 | 0.00012302 | 0.00012302 |   0.0 |  0.00
Modify  | 0.53361    | 0.53361    | 0.53361    |   0.0 |  0.76
Other   |            | 0.141      |            |       |  0.20

Nlocal:    19652 ave 19652 max 19652 min
Histogram: 1 0 0 0 0 0 0 0 0 0
Nghost:    20075 ave 20075 max 20075 min
Histogram: 1 0 0 0 0 0 0 0 0 0
Neighs:    1.86968e+06 ave 1.86968e+06 max 1.86968e+06 min
Histogram: 1 0 0 0 0 0 0 0 0 0

Total # of neighbors = 1869684
Ave neighs/atom = 95.1396
Neighbor list builds = 495
Dangerous builds not checked
Setting up Verlet run ...
  Unit style    : metal
  Current step  : 84495
  Time step     : 0.001
Per MPI rank memory allocation (min/avg/max) = 19.34 | 19.34 | 19.34 Mbytes
Step Temp Press TotEng PotEng Enthalpy 
   84495    1308.7754   -558.86724   -59883.888   -63208.296   -59975.513 
   86000    1296.7718    613.36871   -60019.927   -63313.845   -59919.712 
Loop time of 221.068 on 1 procs for 1505 steps with 19652 atoms

Performance: 0.588 ns/day, 40.803 hours/ns, 6.808 timesteps/s
99.4% CPU use with 1 MPI tasks x no OpenMP threads

MPI task timing breakdown:
Section |  min time  |  avg time  |  max time  |%varavg| %total
---------------------------------------------------------------
Pair    | 121.58     | 121.58     | 121.58     |   0.0 | 54.99
Neigh   | 95.116     | 95.116     | 95.116     |   0.0 | 43.03
Comm    | 1.3695     | 1.3695     | 1.3695     |   0.0 |  0.62
Output  | 0.89373    | 0.89373    | 0.89373    |   0.0 |  0.40
Modify  | 1.6537     | 1.6537     | 1.6537     |   0.0 |  0.75
Other   |            | 0.459      |            |       |  0.21

Nlocal:    19652 ave 19652 max 19652 min
Histogram: 1 0 0 0 0 0 0 0 0 0
Nghost:    20120 ave 20120 max 20120 min
Histogram: 1 0 0 0 0 0 0 0 0 0
Neighs:    1.87587e+06 ave 1.87587e+06 max 1.87587e+06 min
Histogram: 1 0 0 0 0 0 0 0 0 0

Total # of neighbors = 1875871
Ave neighs/atom = 95.4545
Neighbor list builds = 1505
Dangerous builds not checked
Setting up Verlet run ...
  Unit style    : metal
  Current step  : 86000
  Time step     : 0.001
Per MPI rank memory allocation (min/avg/max) = 19.34 | 19.34 | 19.34 Mbytes
Step Temp Press TotEng PotEng Enthalpy 
   86000    1296.7718    613.36871   -60019.927   -63313.845   -59919.712 
   86495    1271.0701   -637.30786   -60229.652   -63458.286   -60333.555 
Loop time of 67.799 on 1 procs for 495 steps with 19652 atoms

Performance: 0.631 ns/day, 38.047 hours/ns, 7.301 timesteps/s
99.9% CPU use with 1 MPI tasks x no OpenMP threads

MPI task timing breakdown:
Section |  min time  |  avg time  |  max time  |%varavg| %total
---------------------------------------------------------------
Pair    | 37.284     | 37.284     | 37.284     |   0.0 | 54.99
Neigh   | 29.447     | 29.447     | 29.447     |   0.0 | 43.43
Comm    | 0.41993    | 0.41993    | 0.41993    |   0.0 |  0.62
Output  | 0.000144   | 0.000144   | 0.000144   |   0.0 |  0.00
Modify  | 0.5119     | 0.5119     | 0.5119     |   0.0 |  0.76
Other   |            | 0.1353     |            |       |  0.20

Nlocal:    19652 ave 19652 max 19652 min
Histogram: 1 0 0 0 0 0 0 0 0 0
Nghost:    20209 ave 20209 max 20209 min
Histogram: 1 0 0 0 0 0 0 0 0 0
Neighs:    1.87913e+06 ave 1.87913e+06 max 1.87913e+06 min
Histogram: 1 0 0 0 0 0 0 0 0 0

Total # of neighbors = 1879128
Ave neighs/atom = 95.6202
Neighbor list builds = 495
Dangerous builds not checked
Setting up Verlet run ...
  Unit style    : metal
  Current step  : 86495
  Time step     : 0.001
Per MPI rank memory allocation (min/avg/max) = 19.34 | 19.34 | 19.34 Mbytes
Step Temp Press TotEng PotEng Enthalpy 
   86495    1271.0701   -637.30786   -60229.652   -63458.286   -60333.555 
   88000     1237.696    2454.6364   -60395.923   -63539.783   -59997.683 
Loop time of 209.766 on 1 procs for 1505 steps with 19652 atoms

Performance: 0.620 ns/day, 38.716 hours/ns, 7.175 timesteps/s
99.8% CPU use with 1 MPI tasks x no OpenMP threads

MPI task timing breakdown:
Section |  min time  |  avg time  |  max time  |%varavg| %total
---------------------------------------------------------------
Pair    | 115.49     | 115.49     | 115.49     |   0.0 | 55.05
Neigh   | 90.755     | 90.755     | 90.755     |   0.0 | 43.26
Comm    | 1.2725     | 1.2725     | 1.2725     |   0.0 |  0.61
Output  | 0.25806    | 0.25806    | 0.25806    |   0.0 |  0.12
Modify  | 1.5381     | 1.5381     | 1.5381     |   0.0 |  0.73
Other   |            | 0.4566     |            |       |  0.22

Nlocal:    19652 ave 19652 max 19652 min
Histogram: 1 0 0 0 0 0 0 0 0 0
Nghost:    20192 ave 20192 max 20192 min
Histogram: 1 0 0 0 0 0 0 0 0 0
Neighs:    1.88864e+06 ave 1.88864e+06 max 1.88864e+06 min
Histogram: 1 0 0 0 0 0 0 0 0 0

Total # of neighbors = 1888641
Ave neighs/atom = 96.1043
Neighbor list builds = 1505
Dangerous builds not checked
Setting up Verlet run ...
  Unit style    : metal
  Current step  : 88000
  Time step     : 0.001
Per MPI rank memory allocation (min/avg/max) = 19.34 | 19.34 | 19.34 Mbytes
Step Temp Press TotEng PotEng Enthalpy 
   88000     1237.696    2454.6364   -60395.923   -63539.783   -59997.683 
   88495    1213.2291    1817.9056   -60578.879   -63660.591   -60284.516 
Loop time of 70.2424 on 1 procs for 495 steps with 19652 atoms

Performance: 0.609 ns/day, 39.418 hours/ns, 7.047 timesteps/s
99.8% CPU use with 1 MPI tasks x no OpenMP threads

MPI task timing breakdown:
Section |  min time  |  avg time  |  max time  |%varavg| %total
---------------------------------------------------------------
Pair    | 38.85      | 38.85      | 38.85      |   0.0 | 55.31
Neigh   | 30.277     | 30.277     | 30.277     |   0.0 | 43.10
Comm    | 0.44324    | 0.44324    | 0.44324    |   0.0 |  0.63
Output  | 0.00012493 | 0.00012493 | 0.00012493 |   0.0 |  0.00
Modify  | 0.52853    | 0.52853    | 0.52853    |   0.0 |  0.75
Other   |            | 0.1432     |            |       |  0.20

Nlocal:    19652 ave 19652 max 19652 min
Histogram: 1 0 0 0 0 0 0 0 0 0
Nghost:    20289 ave 20289 max 20289 min
Histogram: 1 0 0 0 0 0 0 0 0 0
Neighs:    1.89169e+06 ave 1.89169e+06 max 1.89169e+06 min
Histogram: 1 0 0 0 0 0 0 0 0 0

Total # of neighbors = 1891690
Ave neighs/atom = 96.2594
Neighbor list builds = 495
Dangerous builds not checked
Setting up Verlet run ...
  Unit style    : metal
  Current step  : 88495
  Time step     : 0.001
Per MPI rank memory allocation (min/avg/max) = 19.34 | 19.34 | 19.34 Mbytes
Step Temp Press TotEng PotEng Enthalpy 
   88495    1213.2291    1817.9056   -60578.879   -63660.591   -60284.516 
   90000    1211.3188   -198.32377   -60668.546   -63745.406   -60700.658 
Loop time of 234.348 on 1 procs for 1505 steps with 19652 atoms

Performance: 0.555 ns/day, 43.254 hours/ns, 6.422 timesteps/s
99.8% CPU use with 1 MPI tasks x no OpenMP threads

MPI task timing breakdown:
Section |  min time  |  avg time  |  max time  |%varavg| %total
---------------------------------------------------------------
Pair    | 127.11     | 127.11     | 127.11     |   0.0 | 54.24
Neigh   | 103.53     | 103.53     | 103.53     |   0.0 | 44.18
Comm    | 1.4238     | 1.4238     | 1.4238     |   0.0 |  0.61
Output  | 0.12475    | 0.12475    | 0.12475    |   0.0 |  0.05
Modify  | 1.7055     | 1.7055     | 1.7055     |   0.0 |  0.73
Other   |            | 0.453      |            |       |  0.19

Nlocal:    19652 ave 19652 max 19652 min
Histogram: 1 0 0 0 0 0 0 0 0 0
Nghost:    20277 ave 20277 max 20277 min
Histogram: 1 0 0 0 0 0 0 0 0 0
Neighs:    1.89141e+06 ave 1.89141e+06 max 1.89141e+06 min
Histogram: 1 0 0 0 0 0 0 0 0 0

Total # of neighbors = 1891414
Ave neighs/atom = 96.2454
Neighbor list builds = 1505
Dangerous builds not checked
Setting up Verlet run ...
  Unit style    : metal
  Current step  : 90000
  Time step     : 0.001
Per MPI rank memory allocation (min/avg/max) = 19.34 | 19.34 | 19.34 Mbytes
Step Temp Press TotEng PotEng Enthalpy 
   90000    1211.3188   -198.32377   -60668.546   -63745.406   -60700.658 
   90495    1161.7963   -235.46353   -60898.173   -63849.242   -60936.174 
Loop time of 70.8343 on 1 procs for 495 steps with 19652 atoms

Performance: 0.604 ns/day, 39.750 hours/ns, 6.988 timesteps/s
100.0% CPU use with 1 MPI tasks x no OpenMP threads

MPI task timing breakdown:
Section |  min time  |  avg time  |  max time  |%varavg| %total
---------------------------------------------------------------
Pair    | 37.722     | 37.722     | 37.722     |   0.0 | 53.25
Neigh   | 32.063     | 32.063     | 32.063     |   0.0 | 45.26
Comm    | 0.41601    | 0.41601    | 0.41601    |   0.0 |  0.59
Output  | 0.00012898 | 0.00012898 | 0.00012898 |   0.0 |  0.00
Modify  | 0.49996    | 0.49996    | 0.49996    |   0.0 |  0.71
Other   |            | 0.1337     |            |       |  0.19

Nlocal:    19652 ave 19652 max 19652 min
[...]
Setting up Verlet run ...
  Unit style    : metal
  Current step  : 120000
  Time step     : 0.001
Per MPI rank memory allocation (min/avg/max) = 19.35 | 19.35 | 19.35 Mbytes
Step Temp Press TotEng PotEng Enthalpy 
  120000    451.87302    1572.8921   -65682.455   -66830.254   -65445.261 
  120495    426.01153    828.18469   -65847.287   -66929.395   -65722.586 
Loop time of 93.6664 on 1 procs for 495 steps with 19652 atoms

Performance: 0.457 ns/day, 52.563 hours/ns, 5.285 timesteps/s
99.0% CPU use with 1 MPI tasks x no OpenMP threads

MPI task timing breakdown:
Section |  min time  |  avg time  |  max time  |%varavg| %total
---------------------------------------------------------------
Pair    | 51.484     | 51.484     | 51.484     |   0.0 | 54.97
Neigh   | 40.767     | 40.767     | 40.767     |   0.0 | 43.52
Comm    | 0.53841    | 0.53841    | 0.53841    |   0.0 |  0.57
Output  | 0.000144   | 0.000144   | 0.000144   |   0.0 |  0.00
Modify  | 0.67701    | 0.67701    | 0.67701    |   0.0 |  0.72
Other   |            | 0.2002     |            |       |  0.21

Nlocal:    19652 ave 19652 max 19652 min
Histogram: 1 0 0 0 0 0 0 0 0 0
Nghost:    20913 ave 20913 max 20913 min
Histogram: 1 0 0 0 0 0 0 0 0 0
Neighs:    2.03134e+06 ave 2.03134e+06 max 2.03134e+06 min
Histogram: 1 0 0 0 0 0 0 0 0 0

Total # of neighbors = 2031340
Ave neighs/atom = 103.366
Neighbor list builds = 495
Dangerous builds not checked
Setting up Verlet run ...
  Unit style    : metal
  Current step  : 120495
  Time step     : 0.001
Per MPI rank memory allocation (min/avg/max) = 19.35 | 19.35 | 19.35 Mbytes
Step Temp Press TotEng PotEng Enthalpy 
  120495    426.01153    828.18469   -65847.287   -66929.395   -65722.586 
  122000    400.88225    1401.4853   -65973.608   -66991.885    -65762.97 
Loop time of 257.841 on 1 procs for 1505 steps with 19652 atoms

Performance: 0.504 ns/day, 47.590 hours/ns, 5.837 timesteps/s
99.9% CPU use with 1 MPI tasks x no OpenMP threads

MPI task timing breakdown:
Section |  min time  |  avg time  |  max time  |%varavg| %total
---------------------------------------------------------------
Pair    | 140.16     | 140.16     | 140.16     |   0.0 | 54.36
Neigh   | 113.68     | 113.68     | 113.68     |   0.0 | 44.09
Comm    | 1.5156     | 1.5156     | 1.5156     |   0.0 |  0.59
Output  | 0.087337   | 0.087337   | 0.087337   |   0.0 |  0.03
Modify  | 1.8525     | 1.8525     | 1.8525     |   0.0 |  0.72
Other   |            | 0.5395     |            |       |  0.21

Nlocal:    19652 ave 19652 max 19652 min
Histogram: 1 0 0 0 0 0 0 0 0 0
Nghost:    20962 ave 20962 max 20962 min
Histogram: 1 0 0 0 0 0 0 0 0 0
Neighs:    2.0349e+06 ave 2.0349e+06 max 2.0349e+06 min
Histogram: 1 0 0 0 0 0 0 0 0 0

Total # of neighbors = 2034901
Ave neighs/atom = 103.547
Neighbor list builds = 1505
Dangerous builds not checked
Setting up Verlet run ...
  Unit style    : metal
  Current step  : 122000
  Time step     : 0.001
Per MPI rank memory allocation (min/avg/max) = 19.35 | 19.35 | 19.35 Mbytes
Step Temp Press TotEng PotEng Enthalpy 
  122000    400.88225    1401.4853   -65973.608   -66991.885    -65762.97 
  122495    370.97688   -206.67858   -66133.351   -67075.666   -66164.397 
Loop time of 88.843 on 1 procs for 495 steps with 19652 atoms

Performance: 0.481 ns/day, 49.856 hours/ns, 5.572 timesteps/s
99.7% CPU use with 1 MPI tasks x no OpenMP threads

MPI task timing breakdown:
Section |  min time  |  avg time  |  max time  |%varavg| %total
---------------------------------------------------------------
Pair    | 48.273     | 48.273     | 48.273     |   0.0 | 54.34
Neigh   | 39.249     | 39.249     | 39.249     |   0.0 | 44.18
Comm    | 0.51388    | 0.51388    | 0.51388    |   0.0 |  0.58
Output  | 0.00014997 | 0.00014997 | 0.00014997 |   0.0 |  0.00
Modify  | 0.63351    | 0.63351    | 0.63351    |   0.0 |  0.71
Other   |            | 0.1737     |            |       |  0.20

Nlocal:    19652 ave 19652 max 19652 min
Histogram: 1 0 0 0 0 0 0 0 0 0
Nghost:    20992 ave 20992 max 20992 min
Histogram: 1 0 0 0 0 0 0 0 0 0
Neighs:    2.03576e+06 ave 2.03576e+06 max 2.03576e+06 min
Histogram: 1 0 0 0 0 0 0 0 0 0

Total # of neighbors = 2035759
Ave neighs/atom = 103.59
Neighbor list builds = 495
Dangerous builds not checked
Setting up Verlet run ...
  Unit style    : metal
  Current step  : 122495
  Time step     : 0.001
Per MPI rank memory allocation (min/avg/max) = 19.35 | 19.35 | 19.35 Mbytes
Step Temp Press TotEng PotEng Enthalpy 
  122495    370.97688   -206.67858   -66133.351   -67075.666   -66164.397 
  124000    349.91209    265.72389   -66273.574   -67162.383   -66233.747 
Loop time of 273.235 on 1 procs for 1505 steps with 19652 atoms

Performance: 0.476 ns/day, 50.431 hours/ns, 5.508 timesteps/s
99.5% CPU use with 1 MPI tasks x no OpenMP threads

MPI task timing breakdown:
Section |  min time  |  avg time  |  max time  |%varavg| %total
---------------------------------------------------------------
Pair    | 149.63     | 149.63     | 149.63     |   0.0 | 54.76
Neigh   | 119.35     | 119.35     | 119.35     |   0.0 | 43.68
Comm    | 1.589      | 1.589      | 1.589      |   0.0 |  0.58
Output  | 0.1411     | 0.1411     | 0.1411     |   0.0 |  0.05
Modify  | 1.9587     | 1.9587     | 1.9587     |   0.0 |  0.72
Other   |            | 0.5703     |            |       |  0.21

Nlocal:    19652 ave 19652 max 19652 min
Histogram: 1 0 0 0 0 0 0 0 0 0
Nghost:    20955 ave 20955 max 20955 min
Histogram: 1 0 0 0 0 0 0 0 0 0
Neighs:    2.04199e+06 ave 2.04199e+06 max 2.04199e+06 min
Histogram: 1 0 0 0 0 0 0 0 0 0

Total # of neighbors = 2041990
Ave neighs/atom = 103.907
Neighbor list builds = 1505
Dangerous builds not checked
Setting up Verlet run ...
  Unit style    : metal
  Current step  : 124000
  Time step     : 0.001
Per MPI rank memory allocation (min/avg/max) = 19.35 | 19.35 | 19.35 Mbytes
Step Temp Press TotEng PotEng Enthalpy 
  124000    349.91209    265.72389   -66273.574   -67162.383   -66233.747 
  124495    321.35443   -102.68776   -66413.458   -67229.727   -66428.829 
Loop time of 90.0913 on 1 procs for 495 steps with 19652 atoms

Performance: 0.475 ns/day, 50.556 hours/ns, 5.494 timesteps/s
99.8% CPU use with 1 MPI tasks x no OpenMP threads

MPI task timing breakdown:
Section |  min time  |  avg time  |  max time  |%varavg| %total
---------------------------------------------------------------
Pair    | 49.354     | 49.354     | 49.354     |   0.0 | 54.78
Neigh   | 39.368     | 39.368     | 39.368     |   0.0 | 43.70
Comm    | 0.52144    | 0.52144    | 0.52144    |   0.0 |  0.58
Output  | 0.00022388 | 0.00022388 | 0.00022388 |   0.0 |  0.00
Modify  | 0.64947    | 0.64947    | 0.64947    |   0.0 |  0.72
Other   |            | 0.1975     |            |       |  0.22

Nlocal:    19652 ave 19652 max 19652 min
Histogram: 1 0 0 0 0 0 0 0 0 0
Nghost:    20959 ave 20959 max 20959 min
Histogram: 1 0 0 0 0 0 0 0 0 0
Neighs:    2.04396e+06 ave 2.04396e+06 max 2.04396e+06 min
Histogram: 1 0 0 0 0 0 0 0 0 0

Total # of neighbors = 2043962
Ave neighs/atom = 104.008
Neighbor list builds = 495
Dangerous builds not checked
Setting up Verlet run ...
  Unit style    : metal
  Current step  : 124495
  Time step     : 0.001
Per MPI rank memory allocation (min/avg/max) = 19.35 | 19.35 | 19.35 Mbytes
Step Temp Press TotEng PotEng Enthalpy 
  124495    321.35443   -102.68776   -66413.458   -67229.727   -66428.829 
  126000    300.86233   -63.917286   -66541.521   -67305.739   -66551.072 
Loop time of 283.094 on 1 procs for 1505 steps with 19652 atoms

Performance: 0.459 ns/day, 52.251 hours/ns, 5.316 timesteps/s
99.2% CPU use with 1 MPI tasks x no OpenMP threads

MPI task timing breakdown:
Section |  min time  |  avg time  |  max time  |%varavg| %total
---------------------------------------------------------------
Pair    | 155.68     | 155.68     | 155.68     |   0.0 | 54.99
Neigh   | 122.86     | 122.86     | 122.86     |   0.0 | 43.40
Comm    | 1.6957     | 1.6957     | 1.6957     |   0.0 |  0.60
Output  | 0.17764    | 0.17764    | 0.17764    |   0.0 |  0.06
Modify  | 2.0702     | 2.0702     | 2.0702     |   0.0 |  0.73
Other   |            | 0.615      |            |       |  0.22

Nlocal:    19652 ave 19652 max 19652 min
Histogram: 1 0 0 0 0 0 0 0 0 0
Nghost:    20992 ave 20992 max 20992 min
Histogram: 1 0 0 0 0 0 0 0 0 0
Neighs:    2.04832e+06 ave 2.04832e+06 max 2.04832e+06 min
Histogram: 1 0 0 0 0 0 0 0 0 0

Total # of neighbors = 2048318
Ave neighs/atom = 104.229
Neighbor list builds = 1505
Dangerous builds not checked
Setting up Verlet run ...
  Unit style    : metal
  Current step  : 126000
  Time step     : 0.001
Per MPI rank memory allocation (min/avg/max) = 19.35 | 19.35 | 19.35 Mbytes
Step Temp Press TotEng PotEng Enthalpy 
  126000    300.86233   -63.917286   -66541.521   -67305.739   -66551.072 
  126495    274.56349    92.253849   -66687.399   -67384.815   -66673.639 
Loop time of 97.5163 on 1 procs for 495 steps with 19652 atoms

Performance: 0.439 ns/day, 54.723 hours/ns, 5.076 timesteps/s
98.0% CPU use with 1 MPI tasks x no OpenMP threads

MPI task timing breakdown:
Section |  min time  |  avg time  |  max time  |%varavg| %total
---------------------------------------------------------------
Pair    | 53.607     | 53.607     | 53.607     |   0.0 | 54.97
Neigh   | 42.374     | 42.374     | 42.374     |   0.0 | 43.45
Comm    | 0.58457    | 0.58457    | 0.58457    |   0.0 |  0.60
Output  | 0.00019407 | 0.00019407 | 0.00019407 |   0.0 |  0.00
Modify  | 0.74225    | 0.74225    | 0.74225    |   0.0 |  0.76
Other   |            | 0.2084     |            |       |  0.21

Nlocal:    19652 ave 19652 max 19652 min
Histogram: 1 0 0 0 0 0 0 0 0 0
Nghost:    20995 ave 20995 max 20995 min
Histogram: 1 0 0 0 0 0 0 0 0 0
Neighs:    2.05203e+06 ave 2.05203e+06 max 2.05203e+06 min
Histogram: 1 0 0 0 0 0 0 0 0 0

Total # of neighbors = 2052033
Ave neighs/atom = 104.419
Neighbor list builds = 495
Dangerous builds not checked
Setting up Verlet run ...
  Unit style    : metal
  Current step  : 126495
  Time step     : 0.001
Per MPI rank memory allocation (min/avg/max) = 19.35 | 19.35 | 19.35 Mbytes
Step Temp Press TotEng PotEng Enthalpy 
  126495    274.56349    92.253849   -66687.399   -67384.815   -66673.639 
  128000    252.70299     470.6024   -66816.339   -67458.228   -66746.276 
Loop time of 306.022 on 1 procs for 1505 steps with 19652 atoms

Performance: 0.425 ns/day, 56.482 hours/ns, 4.918 timesteps/s
98.7% CPU use with 1 MPI tasks x no OpenMP threads

MPI task timing breakdown:
Section |  min time  |  avg time  |  max time  |%varavg| %total
---------------------------------------------------------------
Pair    | 168.46     | 168.46     | 168.46     |   0.0 | 55.05
Neigh   | 129.85     | 129.85     | 129.85     |   0.0 | 42.43
Comm    | 1.8915     | 1.8915     | 1.8915     |   0.0 |  0.62
Output  | 2.8857     | 2.8857     | 2.8857     |   0.0 |  0.94
Modify  | 2.2844     | 2.2844     | 2.2844     |   0.0 |  0.75
Other   |            | 0.6508     |            |       |  0.21

Nlocal:    19652 ave 19652 max 19652 min
Histogram: 1 0 0 0 0 0 0 0 0 0
Nghost:    21010 ave 21010 max 21010 min
Histogram: 1 0 0 0 0 0 0 0 0 0
Neighs:    2.05656e+06 ave 2.05656e+06 max 2.05656e+06 min
Histogram: 1 0 0 0 0 0 0 0 0 0

Total # of neighbors = 2056560
Ave neighs/atom = 104.649
Neighbor list builds = 1505
Dangerous builds not checked
Setting up Verlet run ...
  Unit style    : metal
  Current step  : 128000
  Time step     : 0.001
Per MPI rank memory allocation (min/avg/max) = 19.35 | 19.35 | 19.35 Mbytes
Step Temp Press TotEng PotEng Enthalpy 
  128000    252.70299     470.6024   -66816.339   -67458.228   -66746.276 
  128495    225.73598    686.66286     -66954.4    -67527.79   -66852.333 
Loop time of 105.722 on 1 procs for 495 steps with 19652 atoms

Performance: 0.405 ns/day, 59.328 hours/ns, 4.682 timesteps/s
97.4% CPU use with 1 MPI tasks x no OpenMP threads

MPI task timing breakdown:
Section |  min time  |  avg time  |  max time  |%varavg| %total
---------------------------------------------------------------
Pair    | 58.958     | 58.958     | 58.958     |   0.0 | 55.77
Neigh   | 45.046     | 45.046     | 45.046     |   0.0 | 42.61
Comm    | 0.67929    | 0.67929    | 0.67929    |   0.0 |  0.64
Output  | 0.00014997 | 0.00014997 | 0.00014997 |   0.0 |  0.00
Modify  | 0.81889    | 0.81889    | 0.81889    |   0.0 |  0.77
Other   |            | 0.2196     |            |       |  0.21

Nlocal:    19652 ave 19652 max 19652 min
Histogram: 1 0 0 0 0 0 0 0 0 0
Nghost:    21028 ave 21028 max 21028 min
Histogram: 1 0 0 0 0 0 0 0 0 0
Neighs:    2.0608e+06 ave 2.0608e+06 max 2.0608e+06 min
Histogram: 1 0 0 0 0 0 0 0 0 0

Total # of neighbors = 2060798
Ave neighs/atom = 104.865
Neighbor list builds = 495
Dangerous builds not checked
Setting up Verlet run ...
  Unit style    : metal
  Current step  : 128495
  Time step     : 0.001
Per MPI rank memory allocation (min/avg/max) = 19.73 | 19.73 | 19.73 Mbytes
Step Temp Press TotEng PotEng Enthalpy 
  128495    225.73598    686.66286     -66954.4    -67527.79   -66852.333 
  130000    202.41647    1219.2758   -67083.536   -67597.692   -66902.643 
Loop time of 314.96 on 1 procs for 1505 steps with 19652 atoms

Performance: 0.413 ns/day, 58.132 hours/ns, 4.778 timesteps/s
98.8% CPU use with 1 MPI tasks x no OpenMP threads

MPI task timing breakdown:
Section |  min time  |  avg time  |  max time  |%varavg| %total
---------------------------------------------------------------
Pair    | 174.26     | 174.26     | 174.26     |   0.0 | 55.33
Neigh   | 135.58     | 135.58     | 135.58     |   0.0 | 43.05
Comm    | 1.9476     | 1.9476     | 1.9476     |   0.0 |  0.62
Output  | 0.14792    | 0.14792    | 0.14792    |   0.0 |  0.05
Modify  | 2.3394     | 2.3394     | 2.3394     |   0.0 |  0.74
Other   |            | 0.6814     |            |       |  0.22

Nlocal:    19652 ave 19652 max 19652 min
Histogram: 1 0 0 0 0 0 0 0 0 0
Nghost:    21058 ave 21058 max 21058 min
Histogram: 1 0 0 0 0 0 0 0 0 0
Neighs:    2.06549e+06 ave 2.06549e+06 max 2.06549e+06 min
Histogram: 1 0 0 0 0 0 0 0 0 0

Total # of neighbors = 2065486
Ave neighs/atom = 105.103
Neighbor list builds = 1505
Dangerous builds not checked
Setting up Verlet run ...
  Unit style    : metal
  Current step  : 130000
  Time step     : 0.001
Per MPI rank memory allocation (min/avg/max) = 19.73 | 19.73 | 19.73 Mbytes
Step Temp Press TotEng PotEng Enthalpy 
  130000    202.41647    1219.2758   -67083.536   -67597.692   -66902.643 
  130495    176.39003   -434.80883   -67214.259   -67662.306   -67278.752 
Loop time of 110.254 on 1 procs for 495 steps with 19652 atoms

Performance: 0.388 ns/day, 61.871 hours/ns, 4.490 timesteps/s
99.6% CPU use with 1 MPI tasks x no OpenMP threads

MPI task timing breakdown:
Section |  min time  |  avg time  |  max time  |%varavg| %total
---------------------------------------------------------------
Pair    | 62.248     | 62.248     | 62.248     |   0.0 | 56.46
Neigh   | 46.18      | 46.18      | 46.18      |   0.0 | 41.88
Comm    | 0.72013    | 0.72013    | 0.72013    |   0.0 |  0.65
Output  | 0.00017405 | 0.00017405 | 0.00017405 |   0.0 |  0.00
Modify  | 0.86864    | 0.86864    | 0.86864    |   0.0 |  0.79
Other   |            | 0.2369     |            |       |  0.21

Nlocal:    19652 ave 19652 max 19652 min
Histogram: 1 0 0 0 0 0 0 0 0 0
Nghost:    21056 ave 21056 max 21056 min
Histogram: 1 0 0 0 0 0 0 0 0 0
Neighs:    2.06602e+06 ave 2.06602e+06 max 2.06602e+06 min
Histogram: 1 0 0 0 0 0 0 0 0 0

Total # of neighbors = 2066016
Ave neighs/atom = 105.13
Neighbor list builds = 495
Dangerous builds not checked
Setting up Verlet run ...
  Unit style    : metal
  Current step  : 130495
  Time step     : 0.001
Per MPI rank memory allocation (min/avg/max) = 19.73 | 19.73 | 19.73 Mbytes
Step Temp Press TotEng PotEng Enthalpy 
  130495    176.39003   -434.80883   -67214.259   -67662.306   -67278.752 
  132000     149.7751    2.2548011    -67350.54   -67730.982   -67350.206 
Loop time of 313.575 on 1 procs for 1505 steps with 19652 atoms

Performance: 0.415 ns/day, 57.876 hours/ns, 4.799 timesteps/s
99.1% CPU use with 1 MPI tasks x no OpenMP threads

MPI task timing breakdown:
Section |  min time  |  avg time  |  max time  |%varavg| %total
---------------------------------------------------------------
Pair    | 174.07     | 174.07     | 174.07     |   0.0 | 55.51
Neigh   | 134.31     | 134.31     | 134.31     |   0.0 | 42.83
Comm    | 2.0093     | 2.0093     | 2.0093     |   0.0 |  0.64
Output  | 0.141      | 0.141      | 0.141      |   0.0 |  0.04
Modify  | 2.3993     | 2.3993     | 2.3993     |   0.0 |  0.77
Other   |            | 0.6521     |            |       |  0.21

Nlocal:    19652 ave 19652 max 19652 min
Histogram: 1 0 0 0 0 0 0 0 0 0
Nghost:    21064 ave 21064 max 21064 min
Histogram: 1 0 0 0 0 0 0 0 0 0
Neighs:    2.07018e+06 ave 2.07018e+06 max 2.07018e+06 min
Histogram: 1 0 0 0 0 0 0 0 0 0

Total # of neighbors = 2070177
Ave neighs/atom = 105.342
Neighbor list builds = 1505
Dangerous builds not checked
Setting up Verlet run ...
  Unit style    : metal
  Current step  : 132000
  Time step     : 0.001
Per MPI rank memory allocation (min/avg/max) = 19.73 | 19.73 | 19.73 Mbytes
Step Temp Press TotEng PotEng Enthalpy 
  132000     149.7751    2.2548011    -67350.54   -67730.982   -67350.206 
  132495    126.42137   -58.467218   -67469.284   -67790.406   -67477.929 
Loop time of 105.742 on 1 procs for 495 steps with 19652 atoms

Performance: 0.404 ns/day, 59.339 hours/ns, 4.681 timesteps/s
99.9% CPU use with 1 MPI tasks x no OpenMP threads

MPI task timing breakdown:
Section |  min time  |  avg time  |  max time  |%varavg| %total
---------------------------------------------------------------
Pair    | 58.541     | 58.541     | 58.541     |   0.0 | 55.36
Neigh   | 45.481     | 45.481     | 45.481     |   0.0 | 43.01
Comm    | 0.66574    | 0.66574    | 0.66574    |   0.0 |  0.63
Output  | 0.00017023 | 0.00017023 | 0.00017023 |   0.0 |  0.00
Modify  | 0.81129    | 0.81129    | 0.81129    |   0.0 |  0.77
Other   |            | 0.2431     |            |       |  0.23

Nlocal:    19652 ave 19652 max 19652 min
Histogram: 1 0 0 0 0 0 0 0 0 0
Nghost:    21074 ave 21074 max 21074 min
Histogram: 1 0 0 0 0 0 0 0 0 0
Neighs:    2.07338e+06 ave 2.07338e+06 max 2.07338e+06 min
Histogram: 1 0 0 0 0 0 0 0 0 0

Total # of neighbors = 2073378
Ave neighs/atom = 105.505
Neighbor list builds = 495
Dangerous builds not checked
Setting up Verlet run ...
  Unit style    : metal
  Current step  : 132495
  Time step     : 0.001
Per MPI rank memory allocation (min/avg/max) = 19.73 | 19.73 | 19.73 Mbytes
Step Temp Press TotEng PotEng Enthalpy 
  132495    126.42137   -58.467218   -67469.284   -67790.406   -67477.929 
  134000    99.635325   -76.988902   -67616.571   -67869.654   -67627.937 
Loop time of 311.599 on 1 procs for 1505 steps with 19652 atoms

Performance: 0.417 ns/day, 57.512 hours/ns, 4.830 timesteps/s
99.3% CPU use with 1 MPI tasks x no OpenMP threads

MPI task timing breakdown:
Section |  min time  |  avg time  |  max time  |%varavg| %total
---------------------------------------------------------------
Pair    | 172.32     | 172.32     | 172.32     |   0.0 | 55.30
Neigh   | 134.23     | 134.23     | 134.23     |   0.0 | 43.08
Comm    | 1.9339     | 1.9339     | 1.9339     |   0.0 |  0.62
Output  | 0.081304   | 0.081304   | 0.081304   |   0.0 |  0.03
Modify  | 2.3568     | 2.3568     | 2.3568     |   0.0 |  0.76
Other   |            | 0.6839     |            |       |  0.22

Nlocal:    19652 ave 19652 max 19652 min
Histogram: 1 0 0 0 0 0 0 0 0 0
Nghost:    21086 ave 21086 max 21086 min
Histogram: 1 0 0 0 0 0 0 0 0 0
Neighs:    2.07728e+06 ave 2.07728e+06 max 2.07728e+06 min
Histogram: 1 0 0 0 0 0 0 0 0 0

Total # of neighbors = 2077276
Ave neighs/atom = 105.703
Neighbor list builds = 1505
Dangerous builds not checked
Total wall time: 6:13:50
