LAMMPS (12 Dec 2018)
Lattice spacing in x,y,z = 4 4 4
Created orthogonal box = (0 0 0) to (68 68 68)
  1 by 1 by 1 MPI processor grid
Created 19652 atoms
  Time spent = 0.00295687 secs
Setting atom values ...
  417 settings made for type/fraction
Neighbor list info ...
  update every 1 steps, delay 0 steps, check no
  max neighbors/atom: 2000, page size: 100000
  master list distance cutoff = 8.5
  ghost atom cutoff = 8.5
  binsize = 4.25, bins = 16 16 16
  1 neighbor lists, perpetual/occasional/extra = 1 0 0
  (1) pair eam/alloy, perpetual
      attributes: half, newton on
      pair build: half/bin/atomonly/newton
      stencil: half/bin/3d/newton
      bin: standard
Setting up Verlet run ...
  Unit style    : metal
  Current step  : 0
  Time step     : 0.001
Per MPI rank memory allocation (min/avg/max) = 18.19 | 18.19 | 18.19 Mbytes
Step Temp Press TotEng PotEng Enthalpy Volume 
       0          300    258015.02   -22136.193    -22898.22    28500.037       314432 
     667    178.32281    254605.86   -22136.004    -22588.96    27831.168       314432 
    1000    178.00757    254533.72   -22136.004   -22588.159    27817.011       314432 
Loop time of 118.117 on 1 procs for 1000 steps with 19652 atoms

Performance: 0.731 ns/day, 32.810 hours/ns, 8.466 timesteps/s
99.5% CPU use with 1 MPI tasks x no OpenMP threads

MPI task timing breakdown:
Section |  min time  |  avg time  |  max time  |%varavg| %total
---------------------------------------------------------------
Pair    | 66.461     | 66.461     | 66.461     |   0.0 | 56.27
Neigh   | 49.788     | 49.788     | 49.788     |   0.0 | 42.15
Comm    | 0.94511    | 0.94511    | 0.94511    |   0.0 |  0.80
Output  | 0.30183    | 0.30183    | 0.30183    |   0.0 |  0.26
Modify  | 0.31269    | 0.31269    | 0.31269    |   0.0 |  0.26
Other   |            | 0.3086     |            |       |  0.26

Nlocal:    19652 ave 19652 max 19652 min
Histogram: 1 0 0 0 0 0 0 0 0 0
Nghost:    20102 ave 20102 max 20102 min
Histogram: 1 0 0 0 0 0 0 0 0 0
Neighs:    1.56671e+06 ave 1.56671e+06 max 1.56671e+06 min
Histogram: 1 0 0 0 0 0 0 0 0 0

Total # of neighbors = 1566708
Ave neighs/atom = 79.7226
Neighbor list builds = 1000
Dangerous builds not checked
Setting up Verlet run ...
  Unit style    : metal
  Current step  : 1000
  Time step     : 0.001
Per MPI rank memory allocation (min/avg/max) = 18.19 | 18.19 | 18.19 Mbytes
Step Temp Press TotEng PotEng Enthalpy Volume 
    1000    178.00757    254533.72   -22136.004   -22588.159    27817.011       314432 
    1334    170.54171    25333.368   -29456.658    -29889.85   -22814.496    420075.04 
    2000    276.89842    246.74868   -29036.603   -29739.951   -28967.073    451470.62 
Loop time of 100.09 on 1 procs for 1000 steps with 19652 atoms

Performance: 0.863 ns/day, 27.803 hours/ns, 9.991 timesteps/s
98.4% CPU use with 1 MPI tasks x no OpenMP threads

MPI task timing breakdown:
Section |  min time  |  avg time  |  max time  |%varavg| %total
---------------------------------------------------------------
Pair    | 51.001     | 51.001     | 51.001     |   0.0 | 50.95
Neigh   | 45.316     | 45.316     | 45.316     |   0.0 | 45.28
Comm    | 0.78186    | 0.78186    | 0.78186    |   0.0 |  0.78
Output  | 1.6743     | 1.6743     | 1.6743     |   0.0 |  1.67
Modify  | 1.0109     | 1.0109     | 1.0109     |   0.0 |  1.01
Other   |            | 0.3063     |            |       |  0.31

Nlocal:    19652 ave 19652 max 19652 min
Histogram: 1 0 0 0 0 0 0 0 0 0
Nghost:    14824 ave 14824 max 14824 min
Histogram: 1 0 0 0 0 0 0 0 0 0
Neighs:    1.13497e+06 ave 1.13497e+06 max 1.13497e+06 min
Histogram: 1 0 0 0 0 0 0 0 0 0

Total # of neighbors = 1134968
Ave neighs/atom = 57.7533
Neighbor list builds = 1000
Dangerous builds not checked
Setting up Verlet run ...
  Unit style    : metal
  Current step  : 2000
  Time step     : 0.001
Per MPI rank memory allocation (min/avg/max) = 18.2 | 18.2 | 18.2 Mbytes
Step Temp Press TotEng PotEng Enthalpy Volume 
    2000    276.89842    246.74868   -29036.603   -29739.951   -28967.073    451470.62 
    2001    276.77706    248.94654   -29036.598   -29739.637   -28966.448    451470.72 
    2668    377.30251   -293.27192   -28498.955   -29457.338   -28582.425    456006.19 
    3335     576.3671    306.22227   -27424.981   -28889.006   -27336.512    462871.73 
    4002    799.55517   -103.80328   -26104.396   -28135.339   -26135.115    474139.68 
    4669    992.17165    198.97218   -24801.384    -27321.59   -24741.019    486067.96 
    5336     1149.406    85.959874   -23358.899   -26278.494   -23331.889    503429.67 
    6003    1339.3245    337.36638   -21530.923   -24932.929   -21419.107    531023.74 
    6670     1545.391   -53.622776   -20225.874   -24151.308   -20244.274    549773.07 
    7337    1723.6836    364.98797   -19097.633   -23475.946    -18968.58    566500.06 
    8004    1912.7171   -127.63736   -17975.621   -22834.096   -18022.281    585710.55 
    8671    2095.2239    23.762768   -16826.583   -22148.642   -16817.579     607083.6 
    9338    2267.6039   -56.632077   -15703.663   -21463.583   -15725.948    630484.78 
   10000    2450.7501    94.868005   -14428.357   -20653.486   -14389.079    663343.67 
Loop time of 717.617 on 1 procs for 8000 steps with 19652 atoms

Performance: 0.963 ns/day, 24.917 hours/ns, 11.148 timesteps/s
99.0% CPU use with 1 MPI tasks x no OpenMP threads

MPI task timing breakdown:
Section |  min time  |  avg time  |  max time  |%varavg| %total
---------------------------------------------------------------
Pair    | 363.03     | 363.03     | 363.03     |   0.0 | 50.59
Neigh   | 329.59     | 329.59     | 329.59     |   0.0 | 45.93
Comm    | 6.3564     | 6.3564     | 6.3564     |   0.0 |  0.89
Output  | 7.693      | 7.693      | 7.693      |   0.0 |  1.07
Modify  | 8.5348     | 8.5348     | 8.5348     |   0.0 |  1.19
Other   |            | 2.414      |            |       |  0.34

Nlocal:    19652 ave 19652 max 19652 min
Histogram: 1 0 0 0 0 0 0 0 0 0
Nghost:    13869 ave 13869 max 13869 min
Histogram: 1 0 0 0 0 0 0 0 0 0
Neighs:    740920 ave 740920 max 740920 min
Histogram: 1 0 0 0 0 0 0 0 0 0

Total # of neighbors = 740920
Ave neighs/atom = 37.702
Neighbor list builds = 8000
Dangerous builds not checked
Setting up Verlet run ...
  Unit style    : metal
  Current step  : 10000
  Time step     : 0.001
Per MPI rank memory allocation (min/avg/max) = 18.22 | 18.22 | 18.22 Mbytes
Step Temp Press TotEng PotEng Enthalpy Volume 
   10000    2450.7501    94.868005   -14428.357   -20653.486   -14389.079    663343.67 
   10005    2445.8394    163.97247   -14428.344   -20640.999   -14360.455    663343.96 
   10672    2458.8279   -1.1822496   -14257.632   -20503.279   -14258.128    672008.63 
   11339    2463.0453    217.07603   -14255.375   -20511.735   -14164.834    668261.31 
   12006    2443.6995   -237.32599   -14246.961    -20454.18   -14346.563    672406.48 
   12673    2445.3527   -232.86275   -14209.662   -20421.081   -14307.749    674873.66 
   13340    2442.0344   -245.36833   -14356.274   -20559.264   -14458.683    668697.16 
   14007    2435.6213   -93.903203   -14325.669   -20512.369   -14364.841    668356.51 
   14674     2471.895   -49.046797   -14101.257   -20380.095   -14121.945    675796.42 
   15341    2459.6675    135.36506   -14316.537   -20564.317   -14260.103    667954.49 
   16008    2439.4827   -202.69819   -14347.814   -20544.323   -14432.423    668766.24 
   16675    2469.6022   -343.21871   -14123.857   -20396.872   -14268.798    676596.68 
   17342    2452.3992   -4.3456647   -14292.212    -20521.53    -14294.03    669976.65 
   18009    2420.6008    37.694116   -14329.557   -20478.104   -14313.762    671376.98 
   18676    2477.0629    380.66965   -13986.915   -20278.881   -13825.765    678256.24 
   19343    2440.8489     236.6683   -14299.447   -20499.426   -14200.695    668527.77 
   20010    2451.0895    437.52187    -14308.75   -20534.741   -14126.703    666644.89 
   20677    2456.1275    31.345207   -14143.837   -20382.624   -14130.603    676417.59 
   21344    2480.0444    325.07696   -14113.928   -20413.466   -13977.162    674062.72 
   22011    2483.3924    202.70906   -14235.525   -20543.568   -14151.082    667418.84 
   22678    2454.6369   -443.02741   -14207.088    -20442.09   -14393.437    673916.18 
   23345    2465.0486    247.06508   -14251.664   -20513.112   -14148.496    669030.64 
   24012    2438.4431    -66.27861   -14332.098   -20525.966   -14359.811    669905.14 
   24679    2413.9452  -0.32914828   -14300.709    -20432.35   -14300.847    671595.54 
   25346    2481.1004    351.83548   -14184.846   -20487.067   -14037.902    669147.92 
   26013    2468.6175    210.02455   -14238.626   -20509.139   -14150.795    670018.59 
   26680    2456.1353    24.622381   -14202.386   -20441.194   -14192.031    673824.05 
   27347    2436.9931   -331.25584   -14313.467   -20503.651   -14452.307    671526.12 
   28014    2455.6031    210.99985   -14201.935   -20439.391   -14113.428    672057.63 
   28681    2447.7489    116.11542   -14400.996   -20618.501   -14352.752    665670.03 
   29348    2448.8233    -328.4587   -14175.758   -20395.992   -14314.257    675577.57 
   30015    2470.7933     497.6864   -14136.287   -20412.327   -13927.319    672722.03 
   30682    2429.8506    21.902701   -14338.302   -20510.344   -14329.144    669924.43 
   31349    2438.6977    63.430669    -14311.86   -20506.375    -14285.35    669623.94 
   32016    2462.6315   -337.20731   -14121.028   -20376.337   -14263.551    677168.81 
   32683    2473.3523    478.47978   -14264.819    -20547.36   -14065.809    666382.03 
   33350    2417.9759   -243.75576    -14384.81   -20526.689   -14486.888    670949.55 
   34017    2459.9771   -77.904135   -14235.126   -20483.692   -14267.882    673649.83 
   34684     2464.518    108.83465   -14154.024   -20414.124   -14108.289    673268.07 
   35351    2438.0601   -179.70571   -14285.797   -20478.692   -14361.046    670886.98 
   36018    2441.5894    195.84106   -14309.982   -20511.841   -14228.315    668113.61 
   36685     2457.094    -320.5967   -14145.699   -20386.942   -14281.148    676904.14 
   37352     2463.947    133.89748   -14254.789   -20513.439   -14198.826    669644.36 
   38019      2477.98    479.38689    -14343.14   -20637.435   -14144.764    663002.22 
   38686    2450.1705   -94.943676   -14164.728   -20388.384   -14204.742    675244.99 
   39353    2442.5349    585.95594   -14231.136   -20435.397   -13986.237    669624.82 
   40000    2434.5876   -143.59002   -14340.805   -20524.879   -14400.888    670408.51 
Loop time of 2520.55 on 1 procs for 30000 steps with 19652 atoms

Performance: 1.028 ns/day, 23.338 hours/ns, 11.902 timesteps/s
99.3% CPU use with 1 MPI tasks x no OpenMP threads

MPI task timing breakdown:
Section |  min time  |  avg time  |  max time  |%varavg| %total
---------------------------------------------------------------
Pair    | 1237.1     | 1237.1     | 1237.1     |   0.0 | 49.08
Neigh   | 1210.8     | 1210.8     | 1210.8     |   0.0 | 48.04
Comm    | 25.082     | 25.082     | 25.082     |   0.0 |  1.00
Output  | 4.3862     | 4.3862     | 4.3862     |   0.0 |  0.17
Modify  | 34.216     | 34.216     | 34.216     |   0.0 |  1.36
Other   |            | 9.003      |            |       |  0.36

Nlocal:    19652 ave 19652 max 19652 min
Histogram: 1 0 0 0 0 0 0 0 0 0
Nghost:    13750 ave 13750 max 13750 min
Histogram: 1 0 0 0 0 0 0 0 0 0
Neighs:    733284 ave 733284 max 733284 min
Histogram: 1 0 0 0 0 0 0 0 0 0

Total # of neighbors = 733284
Ave neighs/atom = 37.3135
Neighbor list builds = 30000
Dangerous builds not checked
Setting up Verlet run ...
  Unit style    : metal
  Current step  : 40000
  Time step     : 0.001
Per MPI rank memory allocation (min/avg/max) = 18.22 | 18.22 | 18.22 Mbytes
Step Temp Press TotEng PotEng Enthalpy Volume 
   40000    2434.5876   -143.59002   -14340.805   -20524.879   -14400.888    670408.51 
   40020    2425.6261     -97.4563   -14338.893   -20500.204   -14379.672    670403.09 
   40495    2407.6164   -588.35664   -14456.625    -20572.19   -14702.099    668458.73 
Loop time of 36.0031 on 1 procs for 495 steps with 19652 atoms

Performance: 1.188 ns/day, 20.204 hours/ns, 13.749 timesteps/s
99.9% CPU use with 1 MPI tasks x no OpenMP threads

MPI task timing breakdown:
Section |  min time  |  avg time  |  max time  |%varavg| %total
---------------------------------------------------------------
Pair    | 17.044     | 17.044     | 17.044     |   0.0 | 47.34
Neigh   | 17.909     | 17.909     | 17.909     |   0.0 | 49.74
Comm    | 0.35486    | 0.35486    | 0.35486    |   0.0 |  0.99
Output  | 0.065576   | 0.065576   | 0.065576   |   0.0 |  0.18
Modify  | 0.49997    | 0.49997    | 0.49997    |   0.0 |  1.39
Other   |            | 0.1296     |            |       |  0.36

Nlocal:    19652 ave 19652 max 19652 min
Histogram: 1 0 0 0 0 0 0 0 0 0
Nghost:    13810 ave 13810 max 13810 min
Histogram: 1 0 0 0 0 0 0 0 0 0
Neighs:    735349 ave 735349 max 735349 min
Histogram: 1 0 0 0 0 0 0 0 0 0

Total # of neighbors = 735349
Ave neighs/atom = 37.4185
Neighbor list builds = 495
Dangerous builds not checked
Setting up Verlet run ...
  Unit style    : metal
  Current step  : 40495
  Time step     : 0.001
Per MPI rank memory allocation (min/avg/max) = 18.22 | 18.22 | 18.22 Mbytes
Step Temp Press TotEng PotEng Enthalpy Volume 
   40495    2407.6164   -588.35664   -14456.625    -20572.19   -14702.099    668458.73 
   40667    2398.5749   -592.20158    -14516.44   -20609.039    -14763.08    667274.49 
Loop time of 12.5466 on 1 procs for 172 steps with 19652 atoms

Performance: 1.184 ns/day, 20.263 hours/ns, 13.709 timesteps/s
100.0% CPU use with 1 MPI tasks x no OpenMP threads

MPI task timing breakdown:
Section |  min time  |  avg time  |  max time  |%varavg| %total
---------------------------------------------------------------
Pair    | 5.9878     | 5.9878     | 5.9878     |   0.0 | 47.72
Neigh   | 6.2092     | 6.2092     | 6.2092     |   0.0 | 49.49
Comm    | 0.12498    | 0.12498    | 0.12498    |   0.0 |  1.00
Output  | 0.00014901 | 0.00014901 | 0.00014901 |   0.0 |  0.00
Modify  | 0.1779     | 0.1779     | 0.1779     |   0.0 |  1.42
Other   |            | 0.0465     |            |       |  0.37

Nlocal:    19652 ave 19652 max 19652 min
Histogram: 1 0 0 0 0 0 0 0 0 0
Nghost:    13760 ave 13760 max 13760 min
Histogram: 1 0 0 0 0 0 0 0 0 0
Neighs:    736315 ave 736315 max 736315 min
Histogram: 1 0 0 0 0 0 0 0 0 0

Total # of neighbors = 736315
Ave neighs/atom = 37.4677
Neighbor list builds = 172
Dangerous builds not checked
Setting up Verlet run ...
  Unit style    : metal
  Current step  : 40667
  Time step     : 0.001
Per MPI rank memory allocation (min/avg/max) = 18.22 | 18.22 | 18.22 Mbytes
Step Temp Press TotEng PotEng Enthalpy Volume 
   40667    2398.5749   -592.20158    -14516.44   -20609.039    -14763.08    667274.49 
   40687    2401.6292   -531.13586   -14516.715   -20617.071   -14737.914    667249.55 
   41162     2371.731    112.23404   -14764.266   -20788.679   -14718.154    658268.16 
Loop time of 34.7991 on 1 procs for 495 steps with 19652 atoms

Performance: 1.229 ns/day, 19.528 hours/ns, 14.225 timesteps/s
99.9% CPU use with 1 MPI tasks x no OpenMP threads

MPI task timing breakdown:
Section |  min time  |  avg time  |  max time  |%varavg| %total
---------------------------------------------------------------
Pair    | 16.427     | 16.427     | 16.427     |   0.0 | 47.20
Neigh   | 17.349     | 17.349     | 17.349     |   0.0 | 49.85
Comm    | 0.33921    | 0.33921    | 0.33921    |   0.0 |  0.97
Output  | 0.06826    | 0.06826    | 0.06826    |   0.0 |  0.20
Modify  | 0.48991    | 0.48991    | 0.48991    |   0.0 |  1.41
Other   |            | 0.1262     |            |       |  0.36

Nlocal:    19652 ave 19652 max 19652 min
Histogram: 1 0 0 0 0 0 0 0 0 0
Nghost:    13817 ave 13817 max 13817 min
Histogram: 1 0 0 0 0 0 0 0 0 0
Neighs:    746569 ave 746569 max 746569 min
Histogram: 1 0 0 0 0 0 0 0 0 0

Total # of neighbors = 746569
Ave neighs/atom = 37.9895
Neighbor list builds = 495
Dangerous builds not checked
Setting up Verlet run ...
  Unit style    : metal
  Current step  : 41162
  Time step     : 0.001
Per MPI rank memory allocation (min/avg/max) = 18.22 | 18.22 | 18.22 Mbytes
Step Temp Press TotEng PotEng Enthalpy Volume 
   41162     2371.731    112.23404   -14764.266   -20788.679   -14718.154    658268.16 
   41334    2351.5672   -92.923555   -14871.676   -20844.871   -14909.824    657731.66 
Loop time of 11.9225 on 1 procs for 172 steps with 19652 atoms

Performance: 1.246 ns/day, 19.255 hours/ns, 14.426 timesteps/s
99.9% CPU use with 1 MPI tasks x no OpenMP threads

MPI task timing breakdown:
Section |  min time  |  avg time  |  max time  |%varavg| %total
---------------------------------------------------------------
Pair    | 5.6405     | 5.6405     | 5.6405     |   0.0 | 47.31
Neigh   | 5.9564     | 5.9564     | 5.9564     |   0.0 | 49.96
Comm    | 0.11416    | 0.11416    | 0.11416    |   0.0 |  0.96
Output  | 0.00015497 | 0.00015497 | 0.00015497 |   0.0 |  0.00
Modify  | 0.16815    | 0.16815    | 0.16815    |   0.0 |  1.41
Other   |            | 0.04319    |            |       |  0.36

Nlocal:    19652 ave 19652 max 19652 min
Histogram: 1 0 0 0 0 0 0 0 0 0
Nghost:    13788 ave 13788 max 13788 min
Histogram: 1 0 0 0 0 0 0 0 0 0
Neighs:    747554 ave 747554 max 747554 min
Histogram: 1 0 0 0 0 0 0 0 0 0

Total # of neighbors = 747554
Ave neighs/atom = 38.0396
Neighbor list builds = 172
Dangerous builds not checked
Setting up Verlet run ...
  Unit style    : metal
  Current step  : 41334
  Time step     : 0.001
Per MPI rank memory allocation (min/avg/max) = 18.22 | 18.22 | 18.22 Mbytes
Step Temp Press TotEng PotEng Enthalpy Volume 
   41334    2351.5672   -92.923555   -14871.676   -20844.871   -14909.824    657731.66 
   41354     2348.223   -198.28523   -14871.717   -20836.417   -14953.117    657726.42 
   41829    2317.8683   -400.66852   -15120.121   -21007.718   -15282.502    649322.34 
Loop time of 34.929 on 1 procs for 495 steps with 19652 atoms

Performance: 1.224 ns/day, 19.601 hours/ns, 14.172 timesteps/s
99.8% CPU use with 1 MPI tasks x no OpenMP threads

MPI task timing breakdown:
Section |  min time  |  avg time  |  max time  |%varavg| %total
---------------------------------------------------------------
Pair    | 16.568     | 16.568     | 16.568     |   0.0 | 47.43
Neigh   | 17.356     | 17.356     | 17.356     |   0.0 | 49.69
Comm    | 0.33827    | 0.33827    | 0.33827    |   0.0 |  0.97
Output  | 0.065288   | 0.065288   | 0.065288   |   0.0 |  0.19
Modify  | 0.47847    | 0.47847    | 0.47847    |   0.0 |  1.37
Other   |            | 0.1229     |            |       |  0.35

Nlocal:    19652 ave 19652 max 19652 min
Histogram: 1 0 0 0 0 0 0 0 0 0
Nghost:    13906 ave 13906 max 13906 min
Histogram: 1 0 0 0 0 0 0 0 0 0
Neighs:    756761 ave 756761 max 756761 min
Histogram: 1 0 0 0 0 0 0 0 0 0

Total # of neighbors = 756761
Ave neighs/atom = 38.5081
Neighbor list builds = 495
Dangerous builds not checked
Setting up Verlet run ...
  Unit style    : metal
  Current step  : 41829
  Time step     : 0.001
Per MPI rank memory allocation (min/avg/max) = 18.22 | 18.22 | 18.22 Mbytes
Step Temp Press TotEng PotEng Enthalpy Volume 
   41829    2317.8683   -400.66852   -15120.121   -21007.718   -15282.502    649322.34 
   42001    2306.2248   -484.47092   -15225.414   -21083.435   -15421.313    647849.56 
Loop time of 11.8383 on 1 procs for 172 steps with 19652 atoms

Performance: 1.255 ns/day, 19.119 hours/ns, 14.529 timesteps/s
99.8% CPU use with 1 MPI tasks x no OpenMP threads

MPI task timing breakdown:
Section |  min time  |  avg time  |  max time  |%varavg| %total
---------------------------------------------------------------
Pair    | 5.6244     | 5.6244     | 5.6244     |   0.0 | 47.51
Neigh   | 5.8935     | 5.8935     | 5.8935     |   0.0 | 49.78
Comm    | 0.11353    | 0.11353    | 0.11353    |   0.0 |  0.96
Output  | 0.00013208 | 0.00013208 | 0.00013208 |   0.0 |  0.00
Modify  | 0.16437    | 0.16437    | 0.16437    |   0.0 |  1.39
Other   |            | 0.04231    |            |       |  0.36

Nlocal:    19652 ave 19652 max 19652 min
Histogram: 1 0 0 0 0 0 0 0 0 0
Nghost:    13912 ave 13912 max 13912 min
Histogram: 1 0 0 0 0 0 0 0 0 0
Neighs:    758329 ave 758329 max 758329 min
Histogram: 1 0 0 0 0 0 0 0 0 0

Total # of neighbors = 758329
Ave neighs/atom = 38.5879
Neighbor list builds = 172
Dangerous builds not checked
Setting up Verlet run ...
  Unit style    : metal
  Current step  : 42001
  Time step     : 0.001
Per MPI rank memory allocation (min/avg/max) = 18.22 | 18.22 | 18.22 Mbytes
Step Temp Press TotEng PotEng Enthalpy Volume 
   42001    2306.2248   -484.47092   -15225.414   -21083.435   -15421.313    647849.56 
   42021    2299.8428   -371.85045   -15225.925   -21067.736   -15376.281    647831.24 
   42496    2279.4314    16.074858   -15477.477    -21267.44   -15471.057    639796.07 
Loop time of 35.1372 on 1 procs for 495 steps with 19652 atoms

Performance: 1.217 ns/day, 19.718 hours/ns, 14.088 timesteps/s
99.8% CPU use with 1 MPI tasks x no OpenMP threads

MPI task timing breakdown:
Section |  min time  |  avg time  |  max time  |%varavg| %total
---------------------------------------------------------------
Pair    | 16.786     | 16.786     | 16.786     |   0.0 | 47.77
Neigh   | 17.341     | 17.341     | 17.341     |   0.0 | 49.35
Comm    | 0.34262    | 0.34262    | 0.34262    |   0.0 |  0.98
Output  | 0.065197   | 0.065197   | 0.065197   |   0.0 |  0.19
Modify  | 0.4782     | 0.4782     | 0.4782     |   0.0 |  1.36
Other   |            | 0.1242     |            |       |  0.35

Nlocal:    19652 ave 19652 max 19652 min
Histogram: 1 0 0 0 0 0 0 0 0 0
Nghost:    14121 ave 14121 max 14121 min
Histogram: 1 0 0 0 0 0 0 0 0 0
Neighs:    768120 ave 768120 max 768120 min
Histogram: 1 0 0 0 0 0 0 0 0 0

Total # of neighbors = 768120
Ave neighs/atom = 39.0861
Neighbor list builds = 495
Dangerous builds not checked
Setting up Verlet run ...
  Unit style    : metal
  Current step  : 42496
  Time step     : 0.001
Per MPI rank memory allocation (min/avg/max) = 18.22 | 18.22 | 18.22 Mbytes
Step Temp Press TotEng PotEng Enthalpy Volume 
   42496    2279.4314    16.074858   -15477.477    -21267.44   -15471.057    639796.07 
   42668    2245.6614   -417.10495   -15581.116   -21285.301   -15747.599    639492.04 
Loop time of 12.0617 on 1 procs for 172 steps with 19652 atoms

Performance: 1.232 ns/day, 19.479 hours/ns, 14.260 timesteps/s
100.0% CPU use with 1 MPI tasks x no OpenMP threads

MPI task timing breakdown:
Section |  min time  |  avg time  |  max time  |%varavg| %total
---------------------------------------------------------------
Pair    | 5.7689     | 5.7689     | 5.7689     |   0.0 | 47.83
Neigh   | 5.9674     | 5.9674     | 5.9674     |   0.0 | 49.47
Comm    | 0.11491    | 0.11491    | 0.11491    |   0.0 |  0.95
Output  | 0.00012112 | 0.00012112 | 0.00012112 |   0.0 |  0.00
Modify  | 0.16705    | 0.16705    | 0.16705    |   0.0 |  1.38
Other   |            | 0.04321    |            |       |  0.36

Nlocal:    19652 ave 19652 max 19652 min
Histogram: 1 0 0 0 0 0 0 0 0 0
Nghost:    14066 ave 14066 max 14066 min
Histogram: 1 0 0 0 0 0 0 0 0 0
Neighs:    768208 ave 768208 max 768208 min
Histogram: 1 0 0 0 0 0 0 0 0 0

Total # of neighbors = 768208
Ave neighs/atom = 39.0906
Neighbor list builds = 172
Dangerous builds not checked
Setting up Verlet run ...
  Unit style    : metal
  Current step  : 42668
  Time step     : 0.001
Per MPI rank memory allocation (min/avg/max) = 18.22 | 18.22 | 18.22 Mbytes
Step Temp Press TotEng PotEng Enthalpy Volume 
   42668    2245.6614   -417.10495   -15581.116   -21285.301   -15747.599    639492.04 
   42688    2247.2085   -395.81777   -15580.902   -21289.016   -15738.884    639475.21 
   43163    2206.9836    18.083096     -15842.5    -21448.44   -15835.375    631326.11 
Loop time of 35.4312 on 1 procs for 495 steps with 19652 atoms

Performance: 1.207 ns/day, 19.883 hours/ns, 13.971 timesteps/s
100.0% CPU use with 1 MPI tasks x no OpenMP threads

MPI task timing breakdown:
Section |  min time  |  avg time  |  max time  |%varavg| %total
---------------------------------------------------------------
Pair    | 16.993     | 16.993     | 16.993     |   0.0 | 47.96
Neigh   | 17.422     | 17.422     | 17.422     |   0.0 | 49.17
Comm    | 0.33886    | 0.33886    | 0.33886    |   0.0 |  0.96
Output  | 0.062222   | 0.062222   | 0.062222   |   0.0 |  0.18
Modify  | 0.48974    | 0.48974    | 0.48974    |   0.0 |  1.38
Other   |            | 0.1259     |            |       |  0.36

Nlocal:    19652 ave 19652 max 19652 min
Histogram: 1 0 0 0 0 0 0 0 0 0
Nghost:    14175 ave 14175 max 14175 min
Histogram: 1 0 0 0 0 0 0 0 0 0
Neighs:    777863 ave 777863 max 777863 min
Histogram: 1 0 0 0 0 0 0 0 0 0

Total # of neighbors = 777863
Ave neighs/atom = 39.5819
Neighbor list builds = 495
Dangerous builds not checked
Setting up Verlet run ...
  Unit style    : metal
  Current step  : 43163
  Time step     : 0.001
Per MPI rank memory allocation (min/avg/max) = 18.22 | 18.22 | 18.22 Mbytes
Step Temp Press TotEng PotEng Enthalpy Volume 
   43163    2206.9836    18.083096     -15842.5    -21448.44   -15835.375    631326.11 
   43335    2184.0337   -55.847745   -15934.198   -21481.843   -15956.188    630842.43 
Loop time of 11.9298 on 1 procs for 172 steps with 19652 atoms

Performance: 1.246 ns/day, 19.267 hours/ns, 14.418 timesteps/s
100.0% CPU use with 1 MPI tasks x no OpenMP threads

MPI task timing breakdown:
Section |  min time  |  avg time  |  max time  |%varavg| %total
---------------------------------------------------------------
Pair    | 5.6943     | 5.6943     | 5.6943     |   0.0 | 47.73
Neigh   | 5.9175     | 5.9175     | 5.9175     |   0.0 | 49.60
Comm    | 0.11257    | 0.11257    | 0.11257    |   0.0 |  0.94
Output  | 0.00012302 | 0.00012302 | 0.00012302 |   0.0 |  0.00
Modify  | 0.16336    | 0.16336    | 0.16336    |   0.0 |  1.37
Other   |            | 0.04202    |            |       |  0.35

Nlocal:    19652 ave 19652 max 19652 min
Histogram: 1 0 0 0 0 0 0 0 0 0
Nghost:    14202 ave 14202 max 14202 min
Histogram: 1 0 0 0 0 0 0 0 0 0
Neighs:    778289 ave 778289 max 778289 min
Histogram: 1 0 0 0 0 0 0 0 0 0

Total # of neighbors = 778289
Ave neighs/atom = 39.6036
Neighbor list builds = 172
Dangerous builds not checked
Setting up Verlet run ...
  Unit style    : metal
  Current step  : 43335
  Time step     : 0.001
Per MPI rank memory allocation (min/avg/max) = 18.22 | 18.22 | 18.22 Mbytes
Step Temp Press TotEng PotEng Enthalpy Volume 
   43335    2184.0337   -55.847745   -15934.198   -21481.843   -15956.188    630842.43 
   43355    2182.8079    25.462918   -15932.367   -21476.898   -15922.341    630842.25 
   43830     2166.199   -82.397826   -16168.539   -21670.882   -16200.614    623671.27 
Loop time of 36.4888 on 1 procs for 495 steps with 19652 atoms

Performance: 1.172 ns/day, 20.476 hours/ns, 13.566 timesteps/s
99.8% CPU use with 1 MPI tasks x no OpenMP threads

MPI task timing breakdown:
Section |  min time  |  avg time  |  max time  |%varavg| %total
---------------------------------------------------------------
Pair    | 17.671     | 17.671     | 17.671     |   0.0 | 48.43
Neigh   | 17.726     | 17.726     | 17.726     |   0.0 | 48.58
Comm    | 0.35064    | 0.35064    | 0.35064    |   0.0 |  0.96
Output  | 0.12021    | 0.12021    | 0.12021    |   0.0 |  0.33
Modify  | 0.49302    | 0.49302    | 0.49302    |   0.0 |  1.35
Other   |            | 0.1273     |            |       |  0.35

Nlocal:    19652 ave 19652 max 19652 min
Histogram: 1 0 0 0 0 0 0 0 0 0
Nghost:    14288 ave 14288 max 14288 min
Histogram: 1 0 0 0 0 0 0 0 0 0
Neighs:    787581 ave 787581 max 787581 min
Histogram: 1 0 0 0 0 0 0 0 0 0

Total # of neighbors = 787581
Ave neighs/atom = 40.0764
Neighbor list builds = 495
Dangerous builds not checked
Setting up Verlet run ...
  Unit style    : metal
  Current step  : 43830
  Time step     : 0.001
Per MPI rank memory allocation (min/avg/max) = 18.22 | 18.22 | 18.22 Mbytes
Step Temp Press TotEng PotEng Enthalpy Volume 
   43830     2166.199   -82.397826   -16168.539   -21670.882   -16200.614    623671.27 
   44002    2144.3567   -276.11955   -16259.684   -21706.546   -16367.036    622905.35 
Loop time of 12.0693 on 1 procs for 172 steps with 19652 atoms

Performance: 1.231 ns/day, 19.492 hours/ns, 14.251 timesteps/s
100.0% CPU use with 1 MPI tasks x no OpenMP threads

MPI task timing breakdown:
Section |  min time  |  avg time  |  max time  |%varavg| %total
---------------------------------------------------------------
Pair    | 5.8215     | 5.8215     | 5.8215     |   0.0 | 48.23
Neigh   | 5.9251     | 5.9251     | 5.9251     |   0.0 | 49.09
Comm    | 0.11477    | 0.11477    | 0.11477    |   0.0 |  0.95
Output  | 0.00012207 | 0.00012207 | 0.00012207 |   0.0 |  0.00
Modify  | 0.16471    | 0.16471    | 0.16471    |   0.0 |  1.36
Other   |            | 0.04307    |            |       |  0.36

Nlocal:    19652 ave 19652 max 19652 min
Histogram: 1 0 0 0 0 0 0 0 0 0
Nghost:    14218 ave 14218 max 14218 min
Histogram: 1 0 0 0 0 0 0 0 0 0
Neighs:    788492 ave 788492 max 788492 min
Histogram: 1 0 0 0 0 0 0 0 0 0

Total # of neighbors = 788492
Ave neighs/atom = 40.1227
Neighbor list builds = 172
Dangerous builds not checked
Setting up Verlet run ...
  Unit style    : metal
  Current step  : 44002
  Time step     : 0.001
Per MPI rank memory allocation (min/avg/max) = 18.22 | 18.22 | 18.22 Mbytes
Step Temp Press TotEng PotEng Enthalpy Volume 
   44002    2144.3567   -276.11955   -16259.684   -21706.546   -16367.036    622905.35 
   44022     2148.701   -333.67247     -16259.4   -21717.297   -16389.126    622893.79 
   44497    2119.1566    250.88205   -16526.091   -21908.942   -16429.917    614186.07 
Loop time of 35.8095 on 1 procs for 495 steps with 19652 atoms

Performance: 1.194 ns/day, 20.095 hours/ns, 13.823 timesteps/s
99.9% CPU use with 1 MPI tasks x no OpenMP threads

MPI task timing breakdown:
Section |  min time  |  avg time  |  max time  |%varavg| %total
---------------------------------------------------------------
Pair    | 17.343     | 17.343     | 17.343     |   0.0 | 48.43
Neigh   | 17.454     | 17.454     | 17.454     |   0.0 | 48.74
Comm    | 0.34286    | 0.34286    | 0.34286    |   0.0 |  0.96
Output  | 0.067687   | 0.067687   | 0.067687   |   0.0 |  0.19
Modify  | 0.47836    | 0.47836    | 0.47836    |   0.0 |  1.34
Other   |            | 0.124      |            |       |  0.35

Nlocal:    19652 ave 19652 max 19652 min
Histogram: 1 0 0 0 0 0 0 0 0 0
Nghost:    14368 ave 14368 max 14368 min
Histogram: 1 0 0 0 0 0 0 0 0 0
Neighs:    799443 ave 799443 max 799443 min
Histogram: 1 0 0 0 0 0 0 0 0 0

Total # of neighbors = 799443
Ave neighs/atom = 40.68
Neighbor list builds = 495
Dangerous builds not checked
Setting up Verlet run ...
  Unit style    : metal
  Current step  : 44497
  Time step     : 0.001
Per MPI rank memory allocation (min/avg/max) = 18.22 | 18.22 | 18.22 Mbytes
Step Temp Press TotEng PotEng Enthalpy Volume 
   44497    2119.1566    250.88205   -16526.091   -21908.942   -16429.917    614186.07 
   44669    2110.7081   -479.93907   -16620.093   -21981.484   -16804.158     614461.6 
Loop time of 12.1407 on 1 procs for 172 steps with 19652 atoms

Performance: 1.224 ns/day, 19.607 hours/ns, 14.167 timesteps/s
100.0% CPU use with 1 MPI tasks x no OpenMP threads

MPI task timing breakdown:
Section |  min time  |  avg time  |  max time  |%varavg| %total
---------------------------------------------------------------
Pair    | 5.8846     | 5.8846     | 5.8846     |   0.0 | 48.47
Neigh   | 5.9344     | 5.9344     | 5.9344     |   0.0 | 48.88
Comm    | 0.11431    | 0.11431    | 0.11431    |   0.0 |  0.94
Output  | 0.00012803 | 0.00012803 | 0.00012803 |   0.0 |  0.00
Modify  | 0.16455    | 0.16455    | 0.16455    |   0.0 |  1.36
Other   |            | 0.04266    |            |       |  0.35

Nlocal:    19652 ave 19652 max 19652 min
Histogram: 1 0 0 0 0 0 0 0 0 0
Nghost:    14328 ave 14328 max 14328 min
Histogram: 1 0 0 0 0 0 0 0 0 0
Neighs:    798902 ave 798902 max 798902 min
Histogram: 1 0 0 0 0 0 0 0 0 0

Total # of neighbors = 798902
Ave neighs/atom = 40.6525
Neighbor list builds = 172
Dangerous builds not checked
Setting up Verlet run ...
  Unit style    : metal
  Current step  : 44669
  Time step     : 0.001
Per MPI rank memory allocation (min/avg/max) = 18.22 | 18.22 | 18.22 Mbytes
Step Temp Press TotEng PotEng Enthalpy Volume 
   44669    2110.7081   -479.93907   -16620.093   -21981.484   -16804.158     614461.6 
   44689    2094.6383   -239.41563   -16620.646   -21941.218   -16712.463    614445.29 
   45164     2073.192   -24.153347   -16897.282   -22163.379   -16906.428    606633.19 
Loop time of 36.2823 on 1 procs for 495 steps with 19652 atoms

Performance: 1.179 ns/day, 20.360 hours/ns, 13.643 timesteps/s
99.9% CPU use with 1 MPI tasks x no OpenMP threads

MPI task timing breakdown:
Section |  min time  |  avg time  |  max time  |%varavg| %total
---------------------------------------------------------------
Pair    | 17.226     | 17.226     | 17.226     |   0.0 | 47.48
Neigh   | 18.058     | 18.058     | 18.058     |   0.0 | 49.77
Comm    | 0.33496    | 0.33496    | 0.33496    |   0.0 |  0.92
Output  | 0.066433   | 0.066433   | 0.066433   |   0.0 |  0.18
Modify  | 0.47439    | 0.47439    | 0.47439    |   0.0 |  1.31
Other   |            | 0.1227     |            |       |  0.34

Nlocal:    19652 ave 19652 max 19652 min
Histogram: 1 0 0 0 0 0 0 0 0 0
Nghost:    14431 ave 14431 max 14431 min
Histogram: 1 0 0 0 0 0 0 0 0 0
Neighs:    809072 ave 809072 max 809072 min
Histogram: 1 0 0 0 0 0 0 0 0 0

Total # of neighbors = 809072
Ave neighs/atom = 41.17
Neighbor list builds = 495
Dangerous builds not checked
Setting up Verlet run ...
  Unit style    : metal
  Current step  : 45164
  Time step     : 0.001
Per MPI rank memory allocation (min/avg/max) = 18.22 | 18.22 | 18.22 Mbytes
Step Temp Press TotEng PotEng Enthalpy Volume 
   45164     2073.192   -24.153347   -16897.282   -22163.379   -16906.428    606633.19 
   45336    2046.1164   -132.47483   -16992.511   -22189.833   -17042.657    606475.79 
Loop time of 12.6472 on 1 procs for 172 steps with 19652 atoms

Performance: 1.175 ns/day, 20.425 hours/ns, 13.600 timesteps/s
100.0% CPU use with 1 MPI tasks x no OpenMP threads

MPI task timing breakdown:
Section |  min time  |  avg time  |  max time  |%varavg| %total
---------------------------------------------------------------
Pair    | 5.9744     | 5.9744     | 5.9744     |   0.0 | 47.24
Neigh   | 6.3481     | 6.3481     | 6.3481     |   0.0 | 50.19
Comm    | 0.11569    | 0.11569    | 0.11569    |   0.0 |  0.91
Output  | 0.00012207 | 0.00012207 | 0.00012207 |   0.0 |  0.00
Modify  | 0.16586    | 0.16586    | 0.16586    |   0.0 |  1.31
Other   |            | 0.04306    |            |       |  0.34

Nlocal:    19652 ave 19652 max 19652 min
Histogram: 1 0 0 0 0 0 0 0 0 0
Nghost:    14440 ave 14440 max 14440 min
Histogram: 1 0 0 0 0 0 0 0 0 0
Neighs:    810011 ave 810011 max 810011 min
Histogram: 1 0 0 0 0 0 0 0 0 0

Total # of neighbors = 810011
Ave neighs/atom = 41.2177
Neighbor list builds = 172
Dangerous builds not checked
Setting up Verlet run ...
  Unit style    : metal
  Current step  : 45336
  Time step     : 0.001
Per MPI rank memory allocation (min/avg/max) = 18.22 | 18.22 | 18.22 Mbytes
Step Temp Press TotEng PotEng Enthalpy Volume 
   45336    2046.1164   -132.47483   -16992.511   -22189.833   -17042.657    606475.79 
   45356    2047.5579   -94.561419   -16992.456    -22193.44    -17028.25    606470.35 
   45831    2010.4549   -307.61827   -17192.943   -22299.682    -17308.72    603002.88 
Loop time of 42.6803 on 1 procs for 495 steps with 19652 atoms

Performance: 1.002 ns/day, 23.951 hours/ns, 11.598 timesteps/s
99.4% CPU use with 1 MPI tasks x no OpenMP threads

MPI task timing breakdown:
Section |  min time  |  avg time  |  max time  |%varavg| %total
---------------------------------------------------------------
Pair    | 20.768     | 20.768     | 20.768     |   0.0 | 48.66
Neigh   | 20.756     | 20.756     | 20.756     |   0.0 | 48.63
Comm    | 0.38936    | 0.38936    | 0.38936    |   0.0 |  0.91
Output  | 0.063507   | 0.063507   | 0.063507   |   0.0 |  0.15
Modify  | 0.55849    | 0.55849    | 0.55849    |   0.0 |  1.31
Other   |            | 0.1456     |            |       |  0.34

Nlocal:    19652 ave 19652 max 19652 min
Histogram: 1 0 0 0 0 0 0 0 0 0
Nghost:    14444 ave 14444 max 14444 min
Histogram: 1 0 0 0 0 0 0 0 0 0
Neighs:    814260 ave 814260 max 814260 min
Histogram: 1 0 0 0 0 0 0 0 0 0

Total # of neighbors = 814260
Ave neighs/atom = 41.434
Neighbor list builds = 495
Dangerous builds not checked
Setting up Verlet run ...
  Unit style    : metal
  Current step  : 45831
  Time step     : 0.001
Per MPI rank memory allocation (min/avg/max) = 18.22 | 18.22 | 18.22 Mbytes
Step Temp Press TotEng PotEng Enthalpy Volume 
   45831    2010.4549   -307.61827   -17192.943   -22299.682    -17308.72    603002.88 
   46003     1994.817   -387.51997   -17281.164    -22348.18   -17426.703    601724.05 
Loop time of 15.5246 on 1 procs for 172 steps with 19652 atoms

Performance: 0.957 ns/day, 25.072 hours/ns, 11.079 timesteps/s
100.0% CPU use with 1 MPI tasks x no OpenMP threads

MPI task timing breakdown:
Section |  min time  |  avg time  |  max time  |%varavg| %total
---------------------------------------------------------------
Pair    | 7.6813     | 7.6813     | 7.6813     |   0.0 | 49.48
Neigh   | 7.4264     | 7.4264     | 7.4264     |   0.0 | 47.84
Comm    | 0.14904    | 0.14904    | 0.14904    |   0.0 |  0.96
Output  | 0.00013518 | 0.00013518 | 0.00013518 |   0.0 |  0.00
Modify  | 0.20963    | 0.20963    | 0.20963    |   0.0 |  1.35
Other   |            | 0.05823    |            |       |  0.38

Nlocal:    19652 ave 19652 max 19652 min
Histogram: 1 0 0 0 0 0 0 0 0 0
Nghost:    14442 ave 14442 max 14442 min
Histogram: 1 0 0 0 0 0 0 0 0 0
Neighs:    815705 ave 815705 max 815705 min
Histogram: 1 0 0 0 0 0 0 0 0 0

Total # of neighbors = 815705
Ave neighs/atom = 41.5075
Neighbor list builds = 172
Dangerous builds not checked
Setting up Verlet run ...
  Unit style    : metal
  Current step  : 46003
  Time step     : 0.001
Per MPI rank memory allocation (min/avg/max) = 18.22 | 18.22 | 18.22 Mbytes
Step Temp Press TotEng PotEng Enthalpy Volume 
   46003     1994.817   -387.51997   -17281.164    -22348.18   -17426.703    601724.05 
   46023    2001.5579   -398.91174   -17280.817   -22364.957   -17430.631     601708.6 
   46498    1960.4226    204.75942   -17505.575   -22485.227   -17429.452    595637.75 
Loop time of 41.8015 on 1 procs for 495 steps with 19652 atoms

Performance: 1.023 ns/day, 23.458 hours/ns, 11.842 timesteps/s
99.9% CPU use with 1 MPI tasks x no OpenMP threads

MPI task timing breakdown:
Section |  min time  |  avg time  |  max time  |%varavg| %total
---------------------------------------------------------------
Pair    | 20.561     | 20.561     | 20.561     |   0.0 | 49.19
Neigh   | 20.102     | 20.102     | 20.102     |   0.0 | 48.09
Comm    | 0.3907     | 0.3907     | 0.3907     |   0.0 |  0.93
Output  | 0.062404   | 0.062404   | 0.062404   |   0.0 |  0.15
Modify  | 0.53476    | 0.53476    | 0.53476    |   0.0 |  1.28
Other   |            | 0.1507     |            |       |  0.36

Nlocal:    19652 ave 19652 max 19652 min
Histogram: 1 0 0 0 0 0 0 0 0 0
Nghost:    14513 ave 14513 max 14513 min
Histogram: 1 0 0 0 0 0 0 0 0 0
Neighs:    824415 ave 824415 max 824415 min
Histogram: 1 0 0 0 0 0 0 0 0 0

Total # of neighbors = 824415
Ave neighs/atom = 41.9507
Neighbor list builds = 495
Dangerous builds not checked
Setting up Verlet run ...
  Unit style    : metal
  Current step  : 46498
  Time step     : 0.001
Per MPI rank memory allocation (min/avg/max) = 18.22 | 18.22 | 18.22 Mbytes
Step Temp Press TotEng PotEng Enthalpy Volume 
   46498    1960.4226    204.75942   -17505.575   -22485.227   -17429.452    595637.75 
   46670    1950.8983   -439.95124   -17583.765   -22539.224   -17747.295    595530.61 
Loop time of 13.7953 on 1 procs for 172 steps with 19652 atoms

Performance: 1.077 ns/day, 22.279 hours/ns, 12.468 timesteps/s
100.0% CPU use with 1 MPI tasks x no OpenMP threads

MPI task timing breakdown:
Section |  min time  |  avg time  |  max time  |%varavg| %total
---------------------------------------------------------------
Pair    | 6.7109     | 6.7109     | 6.7109     |   0.0 | 48.65
Neigh   | 6.7264     | 6.7264     | 6.7264     |   0.0 | 48.76
Comm    | 0.127      | 0.127      | 0.127      |   0.0 |  0.92
Output  | 0.0001719  | 0.0001719  | 0.0001719  |   0.0 |  0.00
Modify  | 0.1793     | 0.1793     | 0.1793     |   0.0 |  1.30
Other   |            | 0.0515     |            |       |  0.37

Nlocal:    19652 ave 19652 max 19652 min
Histogram: 1 0 0 0 0 0 0 0 0 0
Nghost:    14440 ave 14440 max 14440 min
Histogram: 1 0 0 0 0 0 0 0 0 0
Neighs:    824953 ave 824953 max 824953 min
Histogram: 1 0 0 0 0 0 0 0 0 0

Total # of neighbors = 824953
Ave neighs/atom = 41.9781
Neighbor list builds = 172
Dangerous builds not checked
Setting up Verlet run ...
  Unit style    : metal
  Current step  : 46670
  Time step     : 0.001
Per MPI rank memory allocation (min/avg/max) = 18.22 | 18.22 | 18.22 Mbytes
Step Temp Press TotEng PotEng Enthalpy Volume 
   46670    1950.8983   -439.95124   -17583.765   -22539.224   -17747.295    595530.61 
   46690    1944.2581   -300.45513   -17584.014   -22522.607    -17695.69    595513.74 
   47165    1922.1365    286.34152   -17849.522   -22731.923   -17744.437    587982.78 
Loop time of 39.4065 on 1 procs for 495 steps with 19652 atoms

Performance: 1.085 ns/day, 22.114 hours/ns, 12.561 timesteps/s
99.9% CPU use with 1 MPI tasks x no OpenMP threads

MPI task timing breakdown:
Section |  min time  |  avg time  |  max time  |%varavg| %total
---------------------------------------------------------------
Pair    | 19.222     | 19.222     | 19.222     |   0.0 | 48.78
Neigh   | 19.091     | 19.091     | 19.091     |   0.0 | 48.45
Comm    | 0.37091    | 0.37091    | 0.37091    |   0.0 |  0.94
Output  | 0.063378   | 0.063378   | 0.063378   |   0.0 |  0.16
Modify  | 0.51192    | 0.51192    | 0.51192    |   0.0 |  1.30
Other   |            | 0.1473     |            |       |  0.37

Nlocal:    19652 ave 19652 max 19652 min
Histogram: 1 0 0 0 0 0 0 0 0 0
Nghost:    14605 ave 14605 max 14605 min
Histogram: 1 0 0 0 0 0 0 0 0 0
Neighs:    835026 ave 835026 max 835026 min
Histogram: 1 0 0 0 0 0 0 0 0 0

Total # of neighbors = 835026
Ave neighs/atom = 42.4906
Neighbor list builds = 495
Dangerous builds not checked
Setting up Verlet run ...
  Unit style    : metal
  Current step  : 47165
  Time step     : 0.001
Per MPI rank memory allocation (min/avg/max) = 18.22 | 18.22 | 18.22 Mbytes
Step Temp Press TotEng PotEng Enthalpy Volume 
   47165    1922.1365    286.34152   -17849.522   -22731.923   -17744.437    587982.78 
   47337    1904.2314   -171.95756   -17934.765   -22771.686    -17997.97    588903.68 
Loop time of 13.0628 on 1 procs for 172 steps with 19652 atoms

Performance: 1.138 ns/day, 21.096 hours/ns, 13.167 timesteps/s
100.0% CPU use with 1 MPI tasks x no OpenMP threads

MPI task timing breakdown:
Section |  min time  |  avg time  |  max time  |%varavg| %total
---------------------------------------------------------------
Pair    | 6.3309     | 6.3309     | 6.3309     |   0.0 | 48.46
Neigh   | 6.3944     | 6.3944     | 6.3944     |   0.0 | 48.95
Comm    | 0.11997    | 0.11997    | 0.11997    |   0.0 |  0.92
Output  | 0.00013518 | 0.00013518 | 0.00013518 |   0.0 |  0.00
Modify  | 0.16843    | 0.16843    | 0.16843    |   0.0 |  1.29
Other   |            | 0.04895    |            |       |  0.37

Nlocal:    19652 ave 19652 max 19652 min
Histogram: 1 0 0 0 0 0 0 0 0 0
Nghost:    14708 ave 14708 max 14708 min
Histogram: 1 0 0 0 0 0 0 0 0 0
Neighs:    834004 ave 834004 max 834004 min
Histogram: 1 0 0 0 0 0 0 0 0 0

Total # of neighbors = 834004
Ave neighs/atom = 42.4386
Neighbor list builds = 172
Dangerous builds not checked
Setting up Verlet run ...
  Unit style    : metal
  Current step  : 47337
  Time step     : 0.001
Per MPI rank memory allocation (min/avg/max) = 18.22 | 18.22 | 18.22 Mbytes
Step Temp Press TotEng PotEng Enthalpy Volume 
   47337    1904.2314   -171.95756   -17934.765   -22771.686    -17997.97    588903.68 
   47357    1905.9431   -275.87788   -17935.574   -22776.843   -18036.975    588894.86 
   47832    1870.5154    194.25813   -18166.206   -22917.485   -18095.527    582936.33 
Loop time of 41.1663 on 1 procs for 495 steps with 19652 atoms

Performance: 1.039 ns/day, 23.101 hours/ns, 12.024 timesteps/s
99.9% CPU use with 1 MPI tasks x no OpenMP threads

MPI task timing breakdown:
Section |  min time  |  avg time  |  max time  |%varavg| %total
---------------------------------------------------------------
Pair    | 20.249     | 20.249     | 20.249     |   0.0 | 49.19
Neigh   | 19.801     | 19.801     | 19.801     |   0.0 | 48.10
Comm    | 0.38052    | 0.38052    | 0.38052    |   0.0 |  0.92
Output  | 0.065385   | 0.065385   | 0.065385   |   0.0 |  0.16
Modify  | 0.51951    | 0.51951    | 0.51951    |   0.0 |  1.26
Other   |            | 0.1512     |            |       |  0.37

Nlocal:    19652 ave 19652 max 19652 min
Histogram: 1 0 0 0 0 0 0 0 0 0
Nghost:    14729 ave 14729 max 14729 min
Histogram: 1 0 0 0 0 0 0 0 0 0
Neighs:    842880 ave 842880 max 842880 min
Histogram: 1 0 0 0 0 0 0 0 0 0

Total # of neighbors = 842880
Ave neighs/atom = 42.8903
Neighbor list builds = 495
Dangerous builds not checked
Setting up Verlet run ...
  Unit style    : metal
  Current step  : 47832
  Time step     : 0.001
Per MPI rank memory allocation (min/avg/max) = 18.22 | 18.22 | 18.22 Mbytes
Step Temp Press TotEng PotEng Enthalpy Volume 
   47832    1870.5154    194.25813   -18166.206   -22917.485   -18095.527    582936.33 
   48004    1833.9985   -190.29684   -18247.087   -22905.611   -18316.354    583182.67 
Loop time of 13.1183 on 1 procs for 172 steps with 19652 atoms

Performance: 1.133 ns/day, 21.186 hours/ns, 13.111 timesteps/s
100.0% CPU use with 1 MPI tasks x no OpenMP threads

MPI task timing breakdown:
Section |  min time  |  avg time  |  max time  |%varavg| %total
---------------------------------------------------------------
Pair    | 6.3794     | 6.3794     | 6.3794     |   0.0 | 48.63
Neigh   | 6.3996     | 6.3996     | 6.3996     |   0.0 | 48.78
Comm    | 0.1213     | 0.1213     | 0.1213     |   0.0 |  0.92
Output  | 0.00013685 | 0.00013685 | 0.00013685 |   0.0 |  0.00
Modify  | 0.1684     | 0.1684     | 0.1684     |   0.0 |  1.28
Other   |            | 0.04939    |            |       |  0.38

Nlocal:    19652 ave 19652 max 19652 min
Histogram: 1 0 0 0 0 0 0 0 0 0
Nghost:    14675 ave 14675 max 14675 min
Histogram: 1 0 0 0 0 0 0 0 0 0
Neighs:    842084 ave 842084 max 842084 min
Histogram: 1 0 0 0 0 0 0 0 0 0

Total # of neighbors = 842084
Ave neighs/atom = 42.8498
Neighbor list builds = 172
Dangerous builds not checked
Setting up Verlet run ...
  Unit style    : metal
  Current step  : 48004
  Time step     : 0.001
Per MPI rank memory allocation (min/avg/max) = 18.22 | 18.22 | 18.22 Mbytes
Step Temp Press TotEng PotEng Enthalpy Volume 
   48004    1833.9985   -190.29684   -18247.087   -22905.611   -18316.354    583182.67 
   48024    1833.0551   -143.12551   -18245.248   -22901.375   -18297.344     583176.7 
   48499    1809.9447    136.64153   -18462.512   -23059.936   -18413.197    578238.47 
Loop time of 40.5726 on 1 procs for 495 steps with 19652 atoms

Performance: 1.054 ns/day, 22.768 hours/ns, 12.200 timesteps/s
99.9% CPU use with 1 MPI tasks x no OpenMP threads

MPI task timing breakdown:
Section |  min time  |  avg time  |  max time  |%varavg| %total
---------------------------------------------------------------
Pair    | 19.967     | 19.967     | 19.967     |   0.0 | 49.21
Neigh   | 19.509     | 19.509     | 19.509     |   0.0 | 48.09
Comm    | 0.37011    | 0.37011    | 0.37011    |   0.0 |  0.91
Output  | 0.067586   | 0.067586   | 0.067586   |   0.0 |  0.17
Modify  | 0.50949    | 0.50949    | 0.50949    |   0.0 |  1.26
Other   |            | 0.1493     |            |       |  0.37

Nlocal:    19652 ave 19652 max 19652 min
Histogram: 1 0 0 0 0 0 0 0 0 0
Nghost:    14650 ave 14650 max 14650 min
Histogram: 1 0 0 0 0 0 0 0 0 0
Neighs:    849009 ave 849009 max 849009 min
Histogram: 1 0 0 0 0 0 0 0 0 0

Total # of neighbors = 849009
Ave neighs/atom = 43.2022
Neighbor list builds = 495
Dangerous builds not checked
Setting up Verlet run ...
  Unit style    : metal
  Current step  : 48499
  Time step     : 0.001
Per MPI rank memory allocation (min/avg/max) = 18.22 | 18.22 | 18.22 Mbytes
Step Temp Press TotEng PotEng Enthalpy Volume 
   48499    1809.9447    136.64153   -18462.512   -23059.936   -18413.197    578238.47 
   48671    1808.0021   -396.63334   -18541.907   -23134.397   -18685.039    578172.69 
Loop time of 13.7991 on 1 procs for 172 steps with 19652 atoms

Performance: 1.077 ns/day, 22.285 hours/ns, 12.465 timesteps/s
100.0% CPU use with 1 MPI tasks x no OpenMP threads

MPI task timing breakdown:
Section |  min time  |  avg time  |  max time  |%varavg| %total
---------------------------------------------------------------
Pair    | 6.7805     | 6.7805     | 6.7805     |   0.0 | 49.14
Neigh   | 6.6607     | 6.6607     | 6.6607     |   0.0 | 48.27
Comm    | 0.12591    | 0.12591    | 0.12591    |   0.0 |  0.91
Output  | 0.00014496 | 0.00014496 | 0.00014496 |   0.0 |  0.00
Modify  | 0.17941    | 0.17941    | 0.17941    |   0.0 |  1.30
Other   |            | 0.05246    |            |       |  0.38

Nlocal:    19652 ave 19652 max 19652 min
Histogram: 1 0 0 0 0 0 0 0 0 0
Nghost:    14676 ave 14676 max 14676 min
Histogram: 1 0 0 0 0 0 0 0 0 0
Neighs:    849229 ave 849229 max 849229 min
Histogram: 1 0 0 0 0 0 0 0 0 0

Total # of neighbors = 849229
Ave neighs/atom = 43.2134
Neighbor list builds = 172
Dangerous builds not checked
Setting up Verlet run ...
  Unit style    : metal
  Current step  : 48671
  Time step     : 0.001
Per MPI rank memory allocation (min/avg/max) = 18.22 | 18.22 | 18.22 Mbytes
Step Temp Press TotEng PotEng Enthalpy Volume 
   48671    1808.0021   -396.63334   -18541.907   -23134.397   -18685.039    578172.69 
   48691     1803.456   -324.62788    -18542.74   -23123.682   -18659.884     578156.6 
   49166    1769.8973    65.327547    -18768.37    -23264.07       -18745    573145.88 
Loop time of 40.4224 on 1 procs for 495 steps with 19652 atoms

Performance: 1.058 ns/day, 22.684 hours/ns, 12.246 timesteps/s
99.9% CPU use with 1 MPI tasks x no OpenMP threads

MPI task timing breakdown:
Section |  min time  |  avg time  |  max time  |%varavg| %total
---------------------------------------------------------------
Pair    | 19.908     | 19.908     | 19.908     |   0.0 | 49.25
Neigh   | 19.409     | 19.409     | 19.409     |   0.0 | 48.02
Comm    | 0.36821    | 0.36821    | 0.36821    |   0.0 |  0.91
Output  | 0.063527   | 0.063527   | 0.063527   |   0.0 |  0.16
Modify  | 0.52169    | 0.52169    | 0.52169    |   0.0 |  1.29
Other   |            | 0.1513     |            |       |  0.37

Nlocal:    19652 ave 19652 max 19652 min
Histogram: 1 0 0 0 0 0 0 0 0 0
Nghost:    14652 ave 14652 max 14652 min
Histogram: 1 0 0 0 0 0 0 0 0 0
Neighs:    857093 ave 857093 max 857093 min
Histogram: 1 0 0 0 0 0 0 0 0 0

Total # of neighbors = 857093
Ave neighs/atom = 43.6135
Neighbor list builds = 495
Dangerous builds not checked
Setting up Verlet run ...
  Unit style    : metal
  Current step  : 49166
  Time step     : 0.001
Per MPI rank memory allocation (min/avg/max) = 18.22 | 18.22 | 18.22 Mbytes
Step Temp Press TotEng PotEng Enthalpy Volume 
   49166    1769.8973    65.327547    -18768.37    -23264.07       -18745    573145.88 
   49338    1748.7559   -63.835016    -18842.22    -23284.22   -18865.061    573274.66 
Loop time of 13.7497 on 1 procs for 172 steps with 19652 atoms

Performance: 1.081 ns/day, 22.206 hours/ns, 12.509 timesteps/s
100.0% CPU use with 1 MPI tasks x no OpenMP threads

MPI task timing breakdown:
Section |  min time  |  avg time  |  max time  |%varavg| %total
---------------------------------------------------------------
Pair    | 6.7619     | 6.7619     | 6.7619     |   0.0 | 49.18
Neigh   | 6.6324     | 6.6324     | 6.6324     |   0.0 | 48.24
Comm    | 0.12492    | 0.12492    | 0.12492    |   0.0 |  0.91
Output  | 0.000144   | 0.000144   | 0.000144   |   0.0 |  0.00
Modify  | 0.17815    | 0.17815    | 0.17815    |   0.0 |  1.30
Other   |            | 0.05217    |            |       |  0.38

Nlocal:    19652 ave 19652 max 19652 min
Histogram: 1 0 0 0 0 0 0 0 0 0
Nghost:    14596 ave 14596 max 14596 min
Histogram: 1 0 0 0 0 0 0 0 0 0
Neighs:    857250 ave 857250 max 857250 min
Histogram: 1 0 0 0 0 0 0 0 0 0

Total # of neighbors = 857250
Ave neighs/atom = 43.6215
Neighbor list builds = 172
Dangerous builds not checked
Setting up Verlet run ...
  Unit style    : metal
  Current step  : 49338
  Time step     : 0.001
Per MPI rank memory allocation (min/avg/max) = 18.22 | 18.22 | 18.22 Mbytes
Step Temp Press TotEng PotEng Enthalpy Volume 
   49338    1748.7559   -63.835016    -18842.22    -23284.22   -18865.061    573274.66 
   49358     1752.157   -138.69249   -18842.113   -23292.751   -18891.738    573271.75 
   49833    1715.2807    217.32885   -19087.109   -23444.078   -19010.083    567843.57 
Loop time of 40.7698 on 1 procs for 495 steps with 19652 atoms

Performance: 1.049 ns/day, 22.879 hours/ns, 12.141 timesteps/s
99.9% CPU use with 1 MPI tasks x no OpenMP threads

MPI task timing breakdown:
Section |  min time  |  avg time  |  max time  |%varavg| %total
---------------------------------------------------------------
Pair    | 20.176     | 20.176     | 20.176     |   0.0 | 49.49
Neigh   | 19.504     | 19.504     | 19.504     |   0.0 | 47.84
Comm    | 0.36529    | 0.36529    | 0.36529    |   0.0 |  0.90
Output  | 0.066461   | 0.066461   | 0.066461   |   0.0 |  0.16
Modify  | 0.51054    | 0.51054    | 0.51054    |   0.0 |  1.25
Other   |            | 0.1476     |            |       |  0.36

Nlocal:    19652 ave 19652 max 19652 min
Histogram: 1 0 0 0 0 0 0 0 0 0
Nghost:    14767 ave 14767 max 14767 min
Histogram: 1 0 0 0 0 0 0 0 0 0
Neighs:    865077 ave 865077 max 865077 min
Histogram: 1 0 0 0 0 0 0 0 0 0

Total # of neighbors = 865077
Ave neighs/atom = 44.0198
Neighbor list builds = 495
Dangerous builds not checked
Setting up Verlet run ...
  Unit style    : metal
  Current step  : 49833
  Time step     : 0.001
Per MPI rank memory allocation (min/avg/max) = 18.22 | 18.22 | 18.22 Mbytes
Step Temp Press TotEng PotEng Enthalpy Volume 
   49833    1715.2807    217.32885   -19087.109   -23444.078   -19010.083    567843.57 
   50005     1691.626   -13.085757   -19169.067   -23465.951   -19173.706    567928.51 
Loop time of 13.6341 on 1 procs for 172 steps with 19652 atoms

Performance: 1.090 ns/day, 22.019 hours/ns, 12.615 timesteps/s
100.0% CPU use with 1 MPI tasks x no OpenMP threads

MPI task timing breakdown:
Section |  min time  |  avg time  |  max time  |%varavg| %total
---------------------------------------------------------------
Pair    | 6.7095     | 6.7095     | 6.7095     |   0.0 | 49.21
Neigh   | 6.5727     | 6.5727     | 6.5727     |   0.0 | 48.21
Comm    | 0.12443    | 0.12443    | 0.12443    |   0.0 |  0.91
Output  | 0.0001471  | 0.0001471  | 0.0001471  |   0.0 |  0.00
Modify  | 0.17632    | 0.17632    | 0.17632    |   0.0 |  1.29
Other   |            | 0.05107    |            |       |  0.37

Nlocal:    19652 ave 19652 max 19652 min
Histogram: 1 0 0 0 0 0 0 0 0 0
Nghost:    14846 ave 14846 max 14846 min
Histogram: 1 0 0 0 0 0 0 0 0 0
Neighs:    865396 ave 865396 max 865396 min
Histogram: 1 0 0 0 0 0 0 0 0 0

Total # of neighbors = 865396
Ave neighs/atom = 44.036
Neighbor list builds = 172
Dangerous builds not checked
Setting up Verlet run ...
  Unit style    : metal
  Current step  : 50005
  Time step     : 0.001
Per MPI rank memory allocation (min/avg/max) = 18.22 | 18.22 | 18.22 Mbytes
Step Temp Press TotEng PotEng Enthalpy Volume 
   50005     1691.626   -13.085757   -19169.067   -23465.951   -19173.706    567928.51 
   50025     1699.678   -150.80101   -19168.499   -23485.836   -19221.953    567925.87 
   50500    1673.8378    172.58427   -19408.216   -23659.917   -19347.647    562296.88 
Loop time of 46.4716 on 1 procs for 495 steps with 19652 atoms

Performance: 0.920 ns/day, 26.078 hours/ns, 10.652 timesteps/s
99.9% CPU use with 1 MPI tasks x no OpenMP threads

MPI task timing breakdown:
Section |  min time  |  avg time  |  max time  |%varavg| %total
---------------------------------------------------------------
Pair    | 23.447     | 23.447     | 23.447     |   0.0 | 50.46
Neigh   | 21.77      | 21.77      | 21.77      |   0.0 | 46.85
Comm    | 0.42222    | 0.42222    | 0.42222    |   0.0 |  0.91
Output  | 0.063747   | 0.063747   | 0.063747   |   0.0 |  0.14
Modify  | 0.60013    | 0.60013    | 0.60013    |   0.0 |  1.29
Other   |            | 0.1684     |            |       |  0.36

Nlocal:    19652 ave 19652 max 19652 min
Histogram: 1 0 0 0 0 0 0 0 0 0
Nghost:    14828 ave 14828 max 14828 min
Histogram: 1 0 0 0 0 0 0 0 0 0
Neighs:    873967 ave 873967 max 873967 min
Histogram: 1 0 0 0 0 0 0 0 0 0

Total # of neighbors = 873967
Ave neighs/atom = 44.4722
Neighbor list builds = 495
Dangerous builds not checked
Setting up Verlet run ...
  Unit style    : metal
  Current step  : 50500
  Time step     : 0.001
Per MPI rank memory allocation (min/avg/max) = 18.22 | 18.22 | 18.22 Mbytes
Step Temp Press TotEng PotEng Enthalpy Volume 
   50500    1673.8378    172.58427   -19408.216   -23659.917   -19347.647    562296.88 
   50672    1648.7957   -45.532771   -19485.508     -23673.6   -19501.497    562587.88 
Loop time of 18.3685 on 1 procs for 172 steps with 19652 atoms

Performance: 0.809 ns/day, 29.665 hours/ns, 9.364 timesteps/s
99.9% CPU use with 1 MPI tasks x no OpenMP threads

MPI task timing breakdown:
Section |  min time  |  avg time  |  max time  |%varavg| %total
---------------------------------------------------------------
Pair    | 9.4781     | 9.4781     | 9.4781     |   0.0 | 51.60
Neigh   | 8.395      | 8.395      | 8.395      |   0.0 | 45.70
Comm    | 0.17177    | 0.17177    | 0.17177    |   0.0 |  0.94
Output  | 0.00019598 | 0.00019598 | 0.00019598 |   0.0 |  0.00
Modify  | 0.25339    | 0.25339    | 0.25339    |   0.0 |  1.38
Other   |            | 0.07011    |            |       |  0.38

Nlocal:    19652 ave 19652 max 19652 min
Histogram: 1 0 0 0 0 0 0 0 0 0
Nghost:    14814 ave 14814 max 14814 min
Histogram: 1 0 0 0 0 0 0 0 0 0
Neighs:    874045 ave 874045 max 874045 min
Histogram: 1 0 0 0 0 0 0 0 0 0

Total # of neighbors = 874045
Ave neighs/atom = 44.4761
Neighbor list builds = 172
Dangerous builds not checked
Setting up Verlet run ...
  Unit style    : metal
  Current step  : 50672
  Time step     : 0.001
Per MPI rank memory allocation (min/avg/max) = 18.22 | 18.22 | 18.22 Mbytes
Step Temp Press TotEng PotEng Enthalpy Volume 
   50672    1648.7957   -45.532771   -19485.508     -23673.6   -19501.497    562587.88 
   50692    1650.5356   -69.751339   -19485.455   -23677.966   -19509.947    562586.04 
   51167    1619.8899    395.81526   -19714.621   -23829.289    -19576.91    557424.97 
Loop time of 44.8807 on 1 procs for 495 steps with 19652 atoms

Performance: 0.953 ns/day, 25.186 hours/ns, 11.029 timesteps/s
99.9% CPU use with 1 MPI tasks x no OpenMP threads

MPI task timing breakdown:
Section |  min time  |  avg time  |  max time  |%varavg| %total
---------------------------------------------------------------
Pair    | 22.55      | 22.55      | 22.55      |   0.0 | 50.24
Neigh   | 21.089     | 21.089     | 21.089     |   0.0 | 46.99
Comm    | 0.40547    | 0.40547    | 0.40547    |   0.0 |  0.90
Output  | 0.088914   | 0.088914   | 0.088914   |   0.0 |  0.20
Modify  | 0.58287    | 0.58287    | 0.58287    |   0.0 |  1.30
Other   |            | 0.1645     |            |       |  0.37

Nlocal:    19652 ave 19652 max 19652 min
Histogram: 1 0 0 0 0 0 0 0 0 0
Nghost:    14833 ave 14833 max 14833 min
Histogram: 1 0 0 0 0 0 0 0 0 0
Neighs:    881412 ave 881412 max 881412 min
Histogram: 1 0 0 0 0 0 0 0 0 0

Total # of neighbors = 881412
Ave neighs/atom = 44.851
Neighbor list builds = 495
Dangerous builds not checked
Setting up Verlet run ...
  Unit style    : metal
  Current step  : 51167
  Time step     : 0.001
Per MPI rank memory allocation (min/avg/max) = 18.22 | 18.22 | 18.22 Mbytes
Step Temp Press TotEng PotEng Enthalpy Volume 
   51167    1619.8899    395.81526   -19714.621   -23829.289    -19576.91    557424.97 
   51339    1601.6375   -247.97369   -19786.855    -23855.16   -19873.189    557813.44 
Loop time of 18.7902 on 1 procs for 172 steps with 19652 atoms

Performance: 0.791 ns/day, 30.346 hours/ns, 9.154 timesteps/s
100.0% CPU use with 1 MPI tasks x no OpenMP threads

MPI task timing breakdown:
Section |  min time  |  avg time  |  max time  |%varavg| %total
---------------------------------------------------------------
Pair    | 9.722      | 9.722      | 9.722      |   0.0 | 51.74
Neigh   | 8.5924     | 8.5924     | 8.5924     |   0.0 | 45.73
Comm    | 0.16351    | 0.16351    | 0.16351    |   0.0 |  0.87
Output  | 0.00014496 | 0.00014496 | 0.00014496 |   0.0 |  0.00
Modify  | 0.24676    | 0.24676    | 0.24676    |   0.0 |  1.31
Other   |            | 0.06533    |            |       |  0.35

Nlocal:    19652 ave 19652 max 19652 min
Histogram: 1 0 0 0 0 0 0 0 0 0
Nghost:    14813 ave 14813 max 14813 min
Histogram: 1 0 0 0 0 0 0 0 0 0
Neighs:    881115 ave 881115 max 881115 min
Histogram: 1 0 0 0 0 0 0 0 0 0

Total # of neighbors = 881115
Ave neighs/atom = 44.8359
Neighbor list builds = 172
Dangerous builds not checked
Setting up Verlet run ...
  Unit style    : metal
  Current step  : 51339
  Time step     : 0.001
Per MPI rank memory allocation (min/avg/max) = 18.22 | 18.22 | 18.22 Mbytes
Step Temp Press TotEng PotEng Enthalpy Volume 
   51339    1601.6375   -247.97369   -19786.855    -23855.16   -19873.189    557813.44 
   51359    1604.0185   -178.02652   -19787.249   -23861.602    -19849.23    557803.82 
   51834    1565.5178     126.3603   -20000.295   -23976.853   -19956.631     553641.2 
Loop time of 46.1741 on 1 procs for 495 steps with 19652 atoms

Performance: 0.926 ns/day, 25.911 hours/ns, 10.720 timesteps/s
99.9% CPU use with 1 MPI tasks x no OpenMP threads

MPI task timing breakdown:
Section |  min time  |  avg time  |  max time  |%varavg| %total
---------------------------------------------------------------
Pair    | 23.455     | 23.455     | 23.455     |   0.0 | 50.80
Neigh   | 21.504     | 21.504     | 21.504     |   0.0 | 46.57
Comm    | 0.41802    | 0.41802    | 0.41802    |   0.0 |  0.91
Output  | 0.05735    | 0.05735    | 0.05735    |   0.0 |  0.12
Modify  | 0.57423    | 0.57423    | 0.57423    |   0.0 |  1.24
Other   |            | 0.1648     |            |       |  0.36

Nlocal:    19652 ave 19652 max 19652 min
Histogram: 1 0 0 0 0 0 0 0 0 0
Nghost:    14879 ave 14879 max 14879 min
Histogram: 1 0 0 0 0 0 0 0 0 0
Neighs:    888015 ave 888015 max 888015 min
Histogram: 1 0 0 0 0 0 0 0 0 0

Total # of neighbors = 888015
Ave neighs/atom = 45.187
Neighbor list builds = 495
Dangerous builds not checked
Setting up Verlet run ...
  Unit style    : metal
  Current step  : 51834
  Time step     : 0.001
Per MPI rank memory allocation (min/avg/max) = 18.22 | 18.22 | 18.22 Mbytes
Step Temp Press TotEng PotEng Enthalpy Volume 
   51834    1565.5178     126.3603   -20000.295   -23976.853   -19956.631     553641.2 
   52006     1552.511   -190.84308   -20070.373   -24013.892   -20136.332    553743.71 
Loop time of 13.7796 on 1 procs for 172 steps with 19652 atoms

Performance: 1.078 ns/day, 22.254 hours/ns, 12.482 timesteps/s
100.0% CPU use with 1 MPI tasks x no OpenMP threads

MPI task timing breakdown:
Section |  min time  |  avg time  |  max time  |%varavg| %total
---------------------------------------------------------------
Pair    | 6.8496     | 6.8496     | 6.8496     |   0.0 | 49.71
Neigh   | 6.5783     | 6.5783     | 6.5783     |   0.0 | 47.74
Comm    | 0.12734    | 0.12734    | 0.12734    |   0.0 |  0.92
Output  | 0.00014091 | 0.00014091 | 0.00014091 |   0.0 |  0.00
Modify  | 0.1737     | 0.1737     | 0.1737     |   0.0 |  1.26
Other   |            | 0.05045    |            |       |  0.37

Nlocal:    19652 ave 19652 max 19652 min
Histogram: 1 0 0 0 0 0 0 0 0 0
Nghost:    14940 ave 14940 max 14940 min
Histogram: 1 0 0 0 0 0 0 0 0 0
Neighs:    887964 ave 887964 max 887964 min
Histogram: 1 0 0 0 0 0 0 0 0 0

Total # of neighbors = 887964
Ave neighs/atom = 45.1844
Neighbor list builds = 172
Dangerous builds not checked
Setting up Verlet run ...
  Unit style    : metal
  Current step  : 52006
  Time step     : 0.001
Per MPI rank memory allocation (min/avg/max) = 18.22 | 18.22 | 18.22 Mbytes
Step Temp Press TotEng PotEng Enthalpy Volume 
   52006     1552.511   -190.84308   -20070.373   -24013.892   -20136.332    553743.71 
   52026    1554.0096   -169.75896   -20070.831   -24018.157   -20129.502     553735.8 
   52501    1520.0604     91.21333    -20292.25   -24153.342   -20260.943    549920.55 
Loop time of 41.5596 on 1 procs for 495 steps with 19652 atoms

Performance: 1.029 ns/day, 23.322 hours/ns, 11.911 timesteps/s
99.8% CPU use with 1 MPI tasks x no OpenMP threads

MPI task timing breakdown:
Section |  min time  |  avg time  |  max time  |%varavg| %total
---------------------------------------------------------------
Pair    | 20.912     | 20.912     | 20.912     |   0.0 | 50.32
Neigh   | 19.547     | 19.547     | 19.547     |   0.0 | 47.03
Comm    | 0.37996    | 0.37996    | 0.37996    |   0.0 |  0.91
Output  | 0.061839   | 0.061839   | 0.061839   |   0.0 |  0.15
Modify  | 0.51161    | 0.51161    | 0.51161    |   0.0 |  1.23
Other   |            | 0.1472     |            |       |  0.35

Nlocal:    19652 ave 19652 max 19652 min
Histogram: 1 0 0 0 0 0 0 0 0 0
Nghost:    14938 ave 14938 max 14938 min
Histogram: 1 0 0 0 0 0 0 0 0 0
Neighs:    893745 ave 893745 max 893745 min
Histogram: 1 0 0 0 0 0 0 0 0 0

Total # of neighbors = 893745
Ave neighs/atom = 45.4786
Neighbor list builds = 495
Dangerous builds not checked
Setting up Verlet run ...
  Unit style    : metal
  Current step  : 52501
  Time step     : 0.001
Per MPI rank memory allocation (min/avg/max) = 18.22 | 18.22 | 18.22 Mbytes
Step Temp Press TotEng PotEng Enthalpy Volume 
   52501    1520.0604     91.21333    -20292.25   -24153.342   -20260.943    549920.55 
   52673     1505.866   -436.21031   -20364.769   -24189.806   -20514.532     550069.3 
Loop time of 14.3194 on 1 procs for 172 steps with 19652 atoms

Performance: 1.038 ns/day, 23.126 hours/ns, 12.012 timesteps/s
100.0% CPU use with 1 MPI tasks x no OpenMP threads

MPI task timing breakdown:
Section |  min time  |  avg time  |  max time  |%varavg| %total
---------------------------------------------------------------
Pair    | 7.2187     | 7.2187     | 7.2187     |   0.0 | 50.41
Neigh   | 6.7397     | 6.7397     | 6.7397     |   0.0 | 47.07
Comm    | 0.13092    | 0.13092    | 0.13092    |   0.0 |  0.91
Output  | 0.00013995 | 0.00013995 | 0.00013995 |   0.0 |  0.00
Modify  | 0.17829    | 0.17829    | 0.17829    |   0.0 |  1.25
Other   |            | 0.05164    |            |       |  0.36

Nlocal:    19652 ave 19652 max 19652 min
Histogram: 1 0 0 0 0 0 0 0 0 0
Nghost:    14858 ave 14858 max 14858 min
Histogram: 1 0 0 0 0 0 0 0 0 0
Neighs:    893747 ave 893747 max 893747 min
Histogram: 1 0 0 0 0 0 0 0 0 0

Total # of neighbors = 893747
Ave neighs/atom = 45.4787
Neighbor list builds = 172
Dangerous builds not checked
Setting up Verlet run ...
  Unit style    : metal
  Current step  : 52673
  Time step     : 0.001
Per MPI rank memory allocation (min/avg/max) = 18.22 | 18.22 | 18.22 Mbytes
Step Temp Press TotEng PotEng Enthalpy Volume 
   52673     1505.866   -436.21031   -20364.769   -24189.806   -20514.532     550069.3 
   52693    1502.7446   -462.69468   -20365.173   -24182.282   -20524.023    550049.55 
   53168    1464.4157    209.85823   -20615.565   -24335.314   -20544.179    545000.73 
Loop time of 42.5541 on 1 procs for 495 steps with 19652 atoms

Performance: 1.005 ns/day, 23.880 hours/ns, 11.632 timesteps/s
99.9% CPU use with 1 MPI tasks x no OpenMP threads

MPI task timing breakdown:
Section |  min time  |  avg time  |  max time  |%varavg| %total
---------------------------------------------------------------
Pair    | 21.513     | 21.513     | 21.513     |   0.0 | 50.55
Neigh   | 19.912     | 19.912     | 19.912     |   0.0 | 46.79
Comm    | 0.38853    | 0.38853    | 0.38853    |   0.0 |  0.91
Output  | 0.069008   | 0.069008   | 0.069008   |   0.0 |  0.16
Modify  | 0.52315    | 0.52315    | 0.52315    |   0.0 |  1.23
Other   |            | 0.1486     |            |       |  0.35

Nlocal:    19652 ave 19652 max 19652 min
Histogram: 1 0 0 0 0 0 0 0 0 0
Nghost:    15008 ave 15008 max 15008 min
Histogram: 1 0 0 0 0 0 0 0 0 0
Neighs:    902442 ave 902442 max 902442 min
Histogram: 1 0 0 0 0 0 0 0 0 0

Total # of neighbors = 902442
Ave neighs/atom = 45.9211
Neighbor list builds = 495
Dangerous builds not checked
Setting up Verlet run ...
  Unit style    : metal
  Current step  : 53168
  Time step     : 0.001
Per MPI rank memory allocation (min/avg/max) = 18.22 | 18.22 | 18.22 Mbytes
Step Temp Press TotEng PotEng Enthalpy Volume 
   53168    1464.4157    209.85823   -20615.565   -24335.314   -20544.179    545000.73 
   53340    1450.9077   -354.98906   -20683.586   -24369.024   -20804.426    545387.14 
Loop time of 14.5263 on 1 procs for 172 steps with 19652 atoms

Performance: 1.023 ns/day, 23.460 hours/ns, 11.841 timesteps/s
99.9% CPU use with 1 MPI tasks x no OpenMP threads

MPI task timing breakdown:
Section |  min time  |  avg time  |  max time  |%varavg| %total
---------------------------------------------------------------
Pair    | 7.3364     | 7.3364     | 7.3364     |   0.0 | 50.50
Neigh   | 6.8263     | 6.8263     | 6.8263     |   0.0 | 46.99
Comm    | 0.13166    | 0.13166    | 0.13166    |   0.0 |  0.91
Output  | 0.00014806 | 0.00014806 | 0.00014806 |   0.0 |  0.00
Modify  | 0.17998    | 0.17998    | 0.17998    |   0.0 |  1.24
Other   |            | 0.05182    |            |       |  0.36

Nlocal:    19652 ave 19652 max 19652 min
Histogram: 1 0 0 0 0 0 0 0 0 0
Nghost:    14972 ave 14972 max 14972 min
Histogram: 1 0 0 0 0 0 0 0 0 0
Neighs:    901947 ave 901947 max 901947 min
Histogram: 1 0 0 0 0 0 0 0 0 0

Total # of neighbors = 901947
Ave neighs/atom = 45.8959
Neighbor list builds = 172
Dangerous builds not checked
Setting up Verlet run ...
  Unit style    : metal
  Current step  : 53340
  Time step     : 0.001
Per MPI rank memory allocation (min/avg/max) = 18.22 | 18.22 | 18.22 Mbytes
Step Temp Press TotEng PotEng Enthalpy Volume 
   53340    1450.9077   -354.98906   -20683.586   -24369.024   -20804.426    545387.14 
   53360    1452.3328   -391.40253   -20683.742   -24372.799   -20816.973     545370.5 
   53835    1407.1445    308.93407   -20908.789   -24483.064   -20804.443    541151.42 
Loop time of 44.4979 on 1 procs for 495 steps with 19652 atoms

Performance: 0.961 ns/day, 24.971 hours/ns, 11.124 timesteps/s
99.9% CPU use with 1 MPI tasks x no OpenMP threads

MPI task timing breakdown:
Section |  min time  |  avg time  |  max time  |%varavg| %total
---------------------------------------------------------------
Pair    | 22.804     | 22.804     | 22.804     |   0.0 | 51.25
Neigh   | 20.534     | 20.534     | 20.534     |   0.0 | 46.15
Comm    | 0.39863    | 0.39863    | 0.39863    |   0.0 |  0.90
Output  | 0.068106   | 0.068106   | 0.068106   |   0.0 |  0.15
Modify  | 0.54042    | 0.54042    | 0.54042    |   0.0 |  1.21
Other   |            | 0.1531     |            |       |  0.34

Nlocal:    19652 ave 19652 max 19652 min
Histogram: 1 0 0 0 0 0 0 0 0 0
Nghost:    15058 ave 15058 max 15058 min
Histogram: 1 0 0 0 0 0 0 0 0 0
Neighs:    909493 ave 909493 max 909493 min
Histogram: 1 0 0 0 0 0 0 0 0 0

Total # of neighbors = 909493
Ave neighs/atom = 46.2799
Neighbor list builds = 495
Dangerous builds not checked
Setting up Verlet run ...
  Unit style    : metal
  Current step  : 53835
  Time step     : 0.001
Per MPI rank memory allocation (min/avg/max) = 18.22 | 18.22 | 18.22 Mbytes
Step Temp Press TotEng PotEng Enthalpy Volume 
   53835    1407.1445    308.93407   -20908.789   -24483.064   -20804.443    541151.42 
   54007     1402.257    -254.9446   -20982.169    -24544.03   -21068.303    541299.54 
Loop time of 14.1265 on 1 procs for 172 steps with 19652 atoms

Performance: 1.052 ns/day, 22.814 hours/ns, 12.176 timesteps/s
100.0% CPU use with 1 MPI tasks x no OpenMP threads

MPI task timing breakdown:
Section |  min time  |  avg time  |  max time  |%varavg| %total
---------------------------------------------------------------
Pair    | 7.1105     | 7.1105     | 7.1105     |   0.0 | 50.33
Neigh   | 6.6623     | 6.6623     | 6.6623     |   0.0 | 47.16
Comm    | 0.12851    | 0.12851    | 0.12851    |   0.0 |  0.91
Output  | 0.00014901 | 0.00014901 | 0.00014901 |   0.0 |  0.00
Modify  | 0.17435    | 0.17435    | 0.17435    |   0.0 |  1.23
Other   |            | 0.05066    |            |       |  0.36

Nlocal:    19652 ave 19652 max 19652 min
Histogram: 1 0 0 0 0 0 0 0 0 0
Nghost:    15046 ave 15046 max 15046 min
Histogram: 1 0 0 0 0 0 0 0 0 0
Neighs:    909158 ave 909158 max 909158 min
Histogram: 1 0 0 0 0 0 0 0 0 0

Total # of neighbors = 909158
Ave neighs/atom = 46.2629
Neighbor list builds = 172
Dangerous builds not checked
Setting up Verlet run ...
  Unit style    : metal
  Current step  : 54007
  Time step     : 0.001
Per MPI rank memory allocation (min/avg/max) = 18.22 | 18.22 | 18.22 Mbytes
Step Temp Press TotEng PotEng Enthalpy Volume 
   54007     1402.257    -254.9446   -20982.169    -24544.03   -21068.303    541299.54 
   54027    1406.4594   -383.05556   -20982.564   -24555.099   -21111.977    541285.88 
   54502    1379.8115   -183.00416   -21191.688   -24696.535   -21253.146    538053.02 
Loop time of 45.465 on 1 procs for 495 steps with 19652 atoms

Performance: 0.941 ns/day, 25.513 hours/ns, 10.888 timesteps/s
99.9% CPU use with 1 MPI tasks x no OpenMP threads

MPI task timing breakdown:
Section |  min time  |  avg time  |  max time  |%varavg| %total
---------------------------------------------------------------
Pair    | 23.341     | 23.341     | 23.341     |   0.0 | 51.34
Neigh   | 20.935     | 20.935     | 20.935     |   0.0 | 46.05
Comm    | 0.40524    | 0.40524    | 0.40524    |   0.0 |  0.89
Output  | 0.068702   | 0.068702   | 0.068702   |   0.0 |  0.15
Modify  | 0.5588     | 0.5588     | 0.5588     |   0.0 |  1.23
Other   |            | 0.1566     |            |       |  0.34

Nlocal:    19652 ave 19652 max 19652 min
Histogram: 1 0 0 0 0 0 0 0 0 0
Nghost:    15166 ave 15166 max 15166 min
Histogram: 1 0 0 0 0 0 0 0 0 0
Neighs:    915328 ave 915328 max 915328 min
Histogram: 1 0 0 0 0 0 0 0 0 0

Total # of neighbors = 915328
Ave neighs/atom = 46.5768
Neighbor list builds = 495
Dangerous builds not checked
Setting up Verlet run ...
  Unit style    : metal
  Current step  : 54502
  Time step     : 0.001
Per MPI rank memory allocation (min/avg/max) = 18.22 | 18.22 | 18.22 Mbytes
Step Temp Press TotEng PotEng Enthalpy Volume 
   54502    1379.8115   -183.00416   -21191.688   -24696.535   -21253.146    538053.02 
   54674    1356.6935   -272.59321   -21259.233   -24705.358   -21350.683    537498.86 
Loop time of 14.4156 on 1 procs for 172 steps with 19652 atoms

Performance: 1.031 ns/day, 23.281 hours/ns, 11.932 timesteps/s
100.0% CPU use with 1 MPI tasks x no OpenMP threads

MPI task timing breakdown:
Section |  min time  |  avg time  |  max time  |%varavg| %total
---------------------------------------------------------------
Pair    | 7.2823     | 7.2823     | 7.2823     |   0.0 | 50.52
Neigh   | 6.7723     | 6.7723     | 6.7723     |   0.0 | 46.98
Comm    | 0.13003    | 0.13003    | 0.13003    |   0.0 |  0.90
Output  | 0.00014091 | 0.00014091 | 0.00014091 |   0.0 |  0.00
Modify  | 0.17969    | 0.17969    | 0.17969    |   0.0 |  1.25
Other   |            | 0.05107    |            |       |  0.35

Nlocal:    19652 ave 19652 max 19652 min
Histogram: 1 0 0 0 0 0 0 0 0 0
Nghost:    15149 ave 15149 max 15149 min
Histogram: 1 0 0 0 0 0 0 0 0 0
Neighs:    915775 ave 915775 max 915775 min
Histogram: 1 0 0 0 0 0 0 0 0 0

Total # of neighbors = 915775
Ave neighs/atom = 46.5996
Neighbor list builds = 172
Dangerous builds not checked
Setting up Verlet run ...
  Unit style    : metal
  Current step  : 54674
  Time step     : 0.001
Per MPI rank memory allocation (min/avg/max) = 18.22 | 18.22 | 18.22 Mbytes
Step Temp Press TotEng PotEng Enthalpy Volume 
   54674    1356.6935   -272.59321   -21259.233   -24705.358   -21350.683    537498.86 
   54694    1367.1377   -398.77287   -21260.427   -24733.081   -21394.204    537483.48 
   55169    1318.7718    -43.03398   -21530.018   -24879.819   -21544.337    533080.58 
Loop time of 44.9041 on 1 procs for 495 steps with 19652 atoms

Performance: 0.952 ns/day, 25.199 hours/ns, 11.024 timesteps/s
100.0% CPU use with 1 MPI tasks x no OpenMP threads

MPI task timing breakdown:
Section |  min time  |  avg time  |  max time  |%varavg| %total
---------------------------------------------------------------
Pair    | 22.994     | 22.994     | 22.994     |   0.0 | 51.21
Neigh   | 20.744     | 20.744     | 20.744     |   0.0 | 46.20
Comm    | 0.39829    | 0.39829    | 0.39829    |   0.0 |  0.89
Output  | 0.053415   | 0.053415   | 0.053415   |   0.0 |  0.12
Modify  | 0.55899    | 0.55899    | 0.55899    |   0.0 |  1.24
Other   |            | 0.1557     |            |       |  0.35

Nlocal:    19652 ave 19652 max 19652 min
Histogram: 1 0 0 0 0 0 0 0 0 0
Nghost:    15085 ave 15085 max 15085 min
Histogram: 1 0 0 0 0 0 0 0 0 0
Neighs:    923957 ave 923957 max 923957 min
Histogram: 1 0 0 0 0 0 0 0 0 0

Total # of neighbors = 923957
Ave neighs/atom = 47.0159
Neighbor list builds = 495
Dangerous builds not checked
Setting up Verlet run ...
  Unit style    : metal
  Current step  : 55169
  Time step     : 0.001
Per MPI rank memory allocation (min/avg/max) = 18.22 | 18.22 | 18.22 Mbytes
Step Temp Press TotEng PotEng Enthalpy Volume 
   55169    1318.7718    -43.03398   -21530.018   -24879.819   -21544.337    533080.58 
   55341    1304.9406   -21.762848   -21597.324   -24911.992   -21604.557    532528.47 
Loop time of 18.4757 on 1 procs for 172 steps with 19652 atoms

Performance: 0.804 ns/day, 29.838 hours/ns, 9.310 timesteps/s
100.0% CPU use with 1 MPI tasks x no OpenMP threads

MPI task timing breakdown:
Section |  min time  |  avg time  |  max time  |%varavg| %total
---------------------------------------------------------------
Pair    | 9.7067     | 9.7067     | 9.7067     |   0.0 | 52.54
Neigh   | 8.2995     | 8.2995     | 8.2995     |   0.0 | 44.92
Comm    | 0.167      | 0.167      | 0.167      |   0.0 |  0.90
Output  | 0.00014997 | 0.00014997 | 0.00014997 |   0.0 |  0.00
Modify  | 0.23809    | 0.23809    | 0.23809    |   0.0 |  1.29
Other   |            | 0.06428    |            |       |  0.35

Nlocal:    19652 ave 19652 max 19652 min
Histogram: 1 0 0 0 0 0 0 0 0 0
Nghost:    15148 ave 15148 max 15148 min
Histogram: 1 0 0 0 0 0 0 0 0 0
Neighs:    925191 ave 925191 max 925191 min
Histogram: 1 0 0 0 0 0 0 0 0 0

Total # of neighbors = 925191
Ave neighs/atom = 47.0787
[...]
Modify  | 0.48222    | 0.48222    | 0.48222    |   0.0 |  1.11
Other   |            | 0.1281     |            |       |  0.29

Nlocal:    19652 ave 19652 max 19652 min
Histogram: 1 0 0 0 0 0 0 0 0 0
Nghost:    15924 ave 15924 max 15924 min
Histogram: 1 0 0 0 0 0 0 0 0 0
Neighs:    1.06051e+06 ave 1.06051e+06 max 1.06051e+06 min
Histogram: 1 0 0 0 0 0 0 0 0 0

Total # of neighbors = 1060513
Ave neighs/atom = 53.9646
Neighbor list builds = 495
Dangerous builds not checked
Setting up Verlet run ...
  Unit style    : metal
  Current step  : 67175
  Time step     : 0.001
Per MPI rank memory allocation (min/avg/max) = 18.22 | 18.22 | 18.22 Mbytes
Step Temp Press TotEng PotEng Enthalpy Volume 
   67175    426.43844   -92.826947   -27182.461   -28265.653   -27209.843    472608.22 
   67347    418.03512    67.477067   -27244.591   -28306.438   -27224.723     471735.8 
Loop time of 15.0088 on 1 procs for 172 steps with 19652 atoms

Performance: 0.990 ns/day, 24.239 hours/ns, 11.460 timesteps/s
100.0% CPU use with 1 MPI tasks x no OpenMP threads

MPI task timing breakdown:
Section |  min time  |  avg time  |  max time  |%varavg| %total
---------------------------------------------------------------
Pair    | 7.647      | 7.647      | 7.647      |   0.0 | 50.95
Neigh   | 7.0357     | 7.0357     | 7.0357     |   0.0 | 46.88
Comm    | 0.11712    | 0.11712    | 0.11712    |   0.0 |  0.78
Output  | 0.00012112 | 0.00012112 | 0.00012112 |   0.0 |  0.00
Modify  | 0.16519    | 0.16519    | 0.16519    |   0.0 |  1.10
Other   |            | 0.04369    |            |       |  0.29

Nlocal:    19652 ave 19652 max 19652 min
Histogram: 1 0 0 0 0 0 0 0 0 0
Nghost:    15898 ave 15898 max 15898 min
Histogram: 1 0 0 0 0 0 0 0 0 0
Neighs:    1.06326e+06 ave 1.06326e+06 max 1.06326e+06 min
Histogram: 1 0 0 0 0 0 0 0 0 0

Total # of neighbors = 1063262
Ave neighs/atom = 54.1045
Neighbor list builds = 172
Dangerous builds not checked
Setting up Verlet run ...
  Unit style    : metal
  Current step  : 67347
  Time step     : 0.001
Per MPI rank memory allocation (min/avg/max) = 18.22 | 18.22 | 18.22 Mbytes
Step Temp Press TotEng PotEng Enthalpy Volume 
   67347    418.03512    67.477067   -27244.591   -28306.438   -27224.723     471735.8 
   67367     418.7579    16.193124   -27246.675   -28310.358   -27241.907    471741.35 
   67842    375.17646   -202.01642     -27482.9   -28435.883   -27542.189    470211.95 
Loop time of 43.5389 on 1 procs for 495 steps with 19652 atoms

Performance: 0.982 ns/day, 24.433 hours/ns, 11.369 timesteps/s
99.9% CPU use with 1 MPI tasks x no OpenMP threads

MPI task timing breakdown:
Section |  min time  |  avg time  |  max time  |%varavg| %total
---------------------------------------------------------------
Pair    | 22.19      | 22.19      | 22.19      |   0.0 | 50.97
Neigh   | 20.343     | 20.343     | 20.343     |   0.0 | 46.72
Comm    | 0.34089    | 0.34089    | 0.34089    |   0.0 |  0.78
Output  | 0.062424   | 0.062424   | 0.062424   |   0.0 |  0.14
Modify  | 0.47665    | 0.47665    | 0.47665    |   0.0 |  1.09
Other   |            | 0.1259     |            |       |  0.29

Nlocal:    19652 ave 19652 max 19652 min
Histogram: 1 0 0 0 0 0 0 0 0 0
Nghost:    15894 ave 15894 max 15894 min
Histogram: 1 0 0 0 0 0 0 0 0 0
Neighs:    1.06812e+06 ave 1.06812e+06 max 1.06812e+06 min
Histogram: 1 0 0 0 0 0 0 0 0 0

Total # of neighbors = 1068121
Ave neighs/atom = 54.3518
Neighbor list builds = 495
Dangerous builds not checked
Setting up Verlet run ...
  Unit style    : metal
  Current step  : 67842
  Time step     : 0.001
Per MPI rank memory allocation (min/avg/max) = 18.22 | 18.22 | 18.22 Mbytes
Step Temp Press TotEng PotEng Enthalpy Volume 
   67842    375.17646   -202.01642     -27482.9   -28435.883   -27542.189    470211.95 
   68014    364.50714    346.68373   -27544.624   -28470.505   -27443.171     468854.5 
Loop time of 15.014 on 1 procs for 172 steps with 19652 atoms

Performance: 0.990 ns/day, 24.247 hours/ns, 11.456 timesteps/s
100.0% CPU use with 1 MPI tasks x no OpenMP threads

MPI task timing breakdown:
Section |  min time  |  avg time  |  max time  |%varavg| %total
---------------------------------------------------------------
Pair    | 7.6545     | 7.6545     | 7.6545     |   0.0 | 50.98
Neigh   | 7.0313     | 7.0313     | 7.0313     |   0.0 | 46.83
Comm    | 0.11902    | 0.11902    | 0.11902    |   0.0 |  0.79
Output  | 0.00012302 | 0.00012302 | 0.00012302 |   0.0 |  0.00
Modify  | 0.1654     | 0.1654     | 0.1654     |   0.0 |  1.10
Other   |            | 0.04366    |            |       |  0.29

Nlocal:    19652 ave 19652 max 19652 min
Histogram: 1 0 0 0 0 0 0 0 0 0
Nghost:    15887 ave 15887 max 15887 min
Histogram: 1 0 0 0 0 0 0 0 0 0
Neighs:    1.07138e+06 ave 1.07138e+06 max 1.07138e+06 min
Histogram: 1 0 0 0 0 0 0 0 0 0

Total # of neighbors = 1071377
Ave neighs/atom = 54.5175
Neighbor list builds = 172
Dangerous builds not checked
Setting up Verlet run ...
  Unit style    : metal
  Current step  : 68014
  Time step     : 0.001
Per MPI rank memory allocation (min/avg/max) = 18.22 | 18.22 | 18.22 Mbytes
Step Temp Press TotEng PotEng Enthalpy Volume 
   68014    364.50714    346.68373   -27544.624   -28470.505   -27443.171     468854.5 
   68034    369.68026    258.25485   -27546.456   -28485.477   -27470.874    468900.28 
   68509    327.81126   -172.07278   -27781.338   -28614.009   -27831.552    467538.88 
Loop time of 44.539 on 1 procs for 495 steps with 19652 atoms

Performance: 0.960 ns/day, 24.994 hours/ns, 11.114 timesteps/s
100.0% CPU use with 1 MPI tasks x no OpenMP threads

MPI task timing breakdown:
Section |  min time  |  avg time  |  max time  |%varavg| %total
---------------------------------------------------------------
Pair    | 22.856     | 22.856     | 22.856     |   0.0 | 51.32
Neigh   | 20.629     | 20.629     | 20.629     |   0.0 | 46.32
Comm    | 0.36195    | 0.36195    | 0.36195    |   0.0 |  0.81
Output  | 0.064064   | 0.064064   | 0.064064   |   0.0 |  0.14
Modify  | 0.49271    | 0.49271    | 0.49271    |   0.0 |  1.11
Other   |            | 0.1351     |            |       |  0.30

Nlocal:    19652 ave 19652 max 19652 min
Histogram: 1 0 0 0 0 0 0 0 0 0
Nghost:    15996 ave 15996 max 15996 min
Histogram: 1 0 0 0 0 0 0 0 0 0
Neighs:    1.07616e+06 ave 1.07616e+06 max 1.07616e+06 min
Histogram: 1 0 0 0 0 0 0 0 0 0

Total # of neighbors = 1076162
Ave neighs/atom = 54.7609
Neighbor list builds = 495
Dangerous builds not checked
Setting up Verlet run ...
  Unit style    : metal
  Current step  : 68509
  Time step     : 0.001
Per MPI rank memory allocation (min/avg/max) = 18.22 | 18.22 | 18.22 Mbytes
Step Temp Press TotEng PotEng Enthalpy Volume 
   68509    327.81126   -172.07278   -27781.338   -28614.009   -27831.552    467538.88 
   68681    319.12001     127.9627   -27840.882   -28651.476   -27803.618    466571.15 
Loop time of 15.6309 on 1 procs for 172 steps with 19652 atoms

Performance: 0.951 ns/day, 25.244 hours/ns, 11.004 timesteps/s
100.0% CPU use with 1 MPI tasks x no OpenMP threads

MPI task timing breakdown:
Section |  min time  |  avg time  |  max time  |%varavg| %total
---------------------------------------------------------------
Pair    | 8.0414     | 8.0414     | 8.0414     |   0.0 | 51.45
Neigh   | 7.2372     | 7.2372     | 7.2372     |   0.0 | 46.30
Comm    | 0.12842    | 0.12842    | 0.12842    |   0.0 |  0.82
Output  | 0.00012493 | 0.00012493 | 0.00012493 |   0.0 |  0.00
Modify  | 0.17544    | 0.17544    | 0.17544    |   0.0 |  1.12
Other   |            | 0.0483     |            |       |  0.31

Nlocal:    19652 ave 19652 max 19652 min
Histogram: 1 0 0 0 0 0 0 0 0 0
Nghost:    16000 ave 16000 max 16000 min
Histogram: 1 0 0 0 0 0 0 0 0 0
Neighs:    1.07873e+06 ave 1.07873e+06 max 1.07873e+06 min
Histogram: 1 0 0 0 0 0 0 0 0 0

Total # of neighbors = 1078726
Ave neighs/atom = 54.8914
Neighbor list builds = 172
Dangerous builds not checked
Setting up Verlet run ...
  Unit style    : metal
  Current step  : 68681
  Time step     : 0.001
Per MPI rank memory allocation (min/avg/max) = 18.22 | 18.22 | 18.22 Mbytes
Step Temp Press TotEng PotEng Enthalpy Volume 
   68681    319.12001     127.9627   -27840.882   -28651.476   -27803.618    466571.15 
   68701    317.29792    110.98823   -27842.976   -28648.942   -27810.654    466591.23 
   69176     280.5515    165.22759   -28067.036   -28779.662   -28019.124    464589.42 
Loop time of 43.8512 on 1 procs for 495 steps with 19652 atoms

Performance: 0.975 ns/day, 24.608 hours/ns, 11.288 timesteps/s
99.9% CPU use with 1 MPI tasks x no OpenMP threads

MPI task timing breakdown:
Section |  min time  |  avg time  |  max time  |%varavg| %total
---------------------------------------------------------------
Pair    | 22.459     | 22.459     | 22.459     |   0.0 | 51.22
Neigh   | 20.365     | 20.365     | 20.365     |   0.0 | 46.44
Comm    | 0.34968    | 0.34968    | 0.34968    |   0.0 |  0.80
Output  | 0.064622   | 0.064622   | 0.064622   |   0.0 |  0.15
Modify  | 0.48292    | 0.48292    | 0.48292    |   0.0 |  1.10
Other   |            | 0.1302     |            |       |  0.30

Nlocal:    19652 ave 19652 max 19652 min
Histogram: 1 0 0 0 0 0 0 0 0 0
Nghost:    16019 ave 16019 max 16019 min
Histogram: 1 0 0 0 0 0 0 0 0 0
Neighs:    1.08399e+06 ave 1.08399e+06 max 1.08399e+06 min
Histogram: 1 0 0 0 0 0 0 0 0 0

Total # of neighbors = 1083988
Ave neighs/atom = 55.1592
Neighbor list builds = 495
Dangerous builds not checked
Setting up Verlet run ...
  Unit style    : metal
  Current step  : 69176
  Time step     : 0.001
Per MPI rank memory allocation (min/avg/max) = 18.22 | 18.22 | 18.22 Mbytes
Step Temp Press TotEng PotEng Enthalpy Volume 
   69176     280.5515    165.22759   -28067.036   -28779.662   -28019.124    464589.42 
   69348    267.03871   -85.149296   -28125.849   -28804.152   -28150.543    464639.12 
Loop time of 15.2526 on 1 procs for 172 steps with 19652 atoms

Performance: 0.974 ns/day, 24.633 hours/ns, 11.277 timesteps/s
100.0% CPU use with 1 MPI tasks x no OpenMP threads

MPI task timing breakdown:
Section |  min time  |  avg time  |  max time  |%varavg| %total
---------------------------------------------------------------
Pair    | 7.8297     | 7.8297     | 7.8297     |   0.0 | 51.33
Neigh   | 7.088      | 7.088      | 7.088      |   0.0 | 46.47
Comm    | 0.12155    | 0.12155    | 0.12155    |   0.0 |  0.80
Output  | 0.00011802 | 0.00011802 | 0.00011802 |   0.0 |  0.00
Modify  | 0.16815    | 0.16815    | 0.16815    |   0.0 |  1.10
Other   |            | 0.0451     |            |       |  0.30

Nlocal:    19652 ave 19652 max 19652 min
Histogram: 1 0 0 0 0 0 0 0 0 0
Nghost:    16025 ave 16025 max 16025 min
Histogram: 1 0 0 0 0 0 0 0 0 0
Neighs:    1.08428e+06 ave 1.08428e+06 max 1.08428e+06 min
Histogram: 1 0 0 0 0 0 0 0 0 0

Total # of neighbors = 1084284
Ave neighs/atom = 55.1742
Neighbor list builds = 172
Dangerous builds not checked
Setting up Verlet run ...
  Unit style    : metal
  Current step  : 69348
  Time step     : 0.001
Per MPI rank memory allocation (min/avg/max) = 18.22 | 18.22 | 18.22 Mbytes
Step Temp Press TotEng PotEng Enthalpy Volume 
   69348    267.03871   -85.149296   -28125.849   -28804.152   -28150.543    464639.12 
   69368    269.42645   -119.56278   -28127.883   -28812.251   -28162.555    464620.66 
   69843    230.19809    107.25768   -28345.337   -28930.061   -28314.372    462531.09 
Loop time of 44.214 on 1 procs for 495 steps with 19652 atoms

Performance: 0.967 ns/day, 24.811 hours/ns, 11.196 timesteps/s
99.9% CPU use with 1 MPI tasks x no OpenMP threads

MPI task timing breakdown:
Section |  min time  |  avg time  |  max time  |%varavg| %total
---------------------------------------------------------------
Pair    | 22.663     | 22.663     | 22.663     |   0.0 | 51.26
Neigh   | 20.489     | 20.489     | 20.489     |   0.0 | 46.34
Comm    | 0.35121    | 0.35121    | 0.35121    |   0.0 |  0.79
Output  | 0.097629   | 0.097629   | 0.097629   |   0.0 |  0.22
Modify  | 0.48286    | 0.48286    | 0.48286    |   0.0 |  1.09
Other   |            | 0.1303     |            |       |  0.29

Nlocal:    19652 ave 19652 max 19652 min
Histogram: 1 0 0 0 0 0 0 0 0 0
Nghost:    16053 ave 16053 max 16053 min
Histogram: 1 0 0 0 0 0 0 0 0 0
Neighs:    1.09028e+06 ave 1.09028e+06 max 1.09028e+06 min
Histogram: 1 0 0 0 0 0 0 0 0 0

Total # of neighbors = 1090285
Ave neighs/atom = 55.4796
Neighbor list builds = 495
Dangerous builds not checked
Setting up Verlet run ...
  Unit style    : metal
  Current step  : 69843
  Time step     : 0.001
Per MPI rank memory allocation (min/avg/max) = 18.22 | 18.22 | 18.22 Mbytes
Step Temp Press TotEng PotEng Enthalpy Volume 
   69843    230.19809    107.25768   -28345.337   -28930.061   -28314.372    462531.09 
   70015    219.20167    58.847837   -28402.291   -28959.083   -28385.315     462177.9 
Loop time of 15.1986 on 1 procs for 172 steps with 19652 atoms

Performance: 0.978 ns/day, 24.545 hours/ns, 11.317 timesteps/s
99.9% CPU use with 1 MPI tasks x no OpenMP threads

MPI task timing breakdown:
Section |  min time  |  avg time  |  max time  |%varavg| %total
---------------------------------------------------------------
Pair    | 7.8304     | 7.8304     | 7.8304     |   0.0 | 51.52
Neigh   | 7.0387     | 7.0387     | 7.0387     |   0.0 | 46.31
Comm    | 0.11888    | 0.11888    | 0.11888    |   0.0 |  0.78
Output  | 0.00012589 | 0.00012589 | 0.00012589 |   0.0 |  0.00
Modify  | 0.16572    | 0.16572    | 0.16572    |   0.0 |  1.09
Other   |            | 0.04471    |            |       |  0.29

Nlocal:    19652 ave 19652 max 19652 min
Histogram: 1 0 0 0 0 0 0 0 0 0
Nghost:    16038 ave 16038 max 16038 min
Histogram: 1 0 0 0 0 0 0 0 0 0
Neighs:    1.09116e+06 ave 1.09116e+06 max 1.09116e+06 min
Histogram: 1 0 0 0 0 0 0 0 0 0

Total # of neighbors = 1091159
Ave neighs/atom = 55.5241
Neighbor list builds = 172
Dangerous builds not checked
Setting up Verlet run ...
  Unit style    : metal
  Current step  : 70015
  Time step     : 0.001
Per MPI rank memory allocation (min/avg/max) = 18.22 | 18.22 | 18.22 Mbytes
Step Temp Press TotEng PotEng Enthalpy Volume 
   70015    219.20167    58.847837   -28402.291   -28959.083   -28385.315     462177.9 
   70035    220.43595    9.8068712   -28404.567   -28964.494   -28401.738    462188.33 
   70510    180.96263   -71.138323   -28615.578    -29075.24   -28636.038    460801.62 
Loop time of 43.7827 on 1 procs for 495 steps with 19652 atoms

Performance: 0.977 ns/day, 24.569 hours/ns, 11.306 timesteps/s
100.0% CPU use with 1 MPI tasks x no OpenMP threads

MPI task timing breakdown:
Section |  min time  |  avg time  |  max time  |%varavg| %total
---------------------------------------------------------------
Pair    | 22.476     | 22.476     | 22.476     |   0.0 | 51.34
Neigh   | 20.306     | 20.306     | 20.306     |   0.0 | 46.38
Comm    | 0.33997    | 0.33997    | 0.33997    |   0.0 |  0.78
Output  | 0.054091   | 0.054091   | 0.054091   |   0.0 |  0.12
Modify  | 0.47651    | 0.47651    | 0.47651    |   0.0 |  1.09
Other   |            | 0.1293     |            |       |  0.30

Nlocal:    19652 ave 19652 max 19652 min
Histogram: 1 0 0 0 0 0 0 0 0 0
Nghost:    16063 ave 16063 max 16063 min
Histogram: 1 0 0 0 0 0 0 0 0 0
Neighs:    1.09505e+06 ave 1.09505e+06 max 1.09505e+06 min
Histogram: 1 0 0 0 0 0 0 0 0 0

Total # of neighbors = 1095054
Ave neighs/atom = 55.7223
Neighbor list builds = 495
Dangerous builds not checked
Setting up Verlet run ...
  Unit style    : metal
  Current step  : 70510
  Time step     : 0.001
Per MPI rank memory allocation (min/avg/max) = 18.22 | 18.22 | 18.22 Mbytes
Step Temp Press TotEng PotEng Enthalpy Volume 
   70510    180.96263   -71.138323   -28615.578    -29075.24   -28636.038    460801.62 
   70682    171.31327   -23.428658   -28671.814   -29106.965   -28678.543    460201.55 
Loop time of 15.2667 on 1 procs for 172 steps with 19652 atoms

Performance: 0.973 ns/day, 24.656 hours/ns, 11.266 timesteps/s
100.0% CPU use with 1 MPI tasks x no OpenMP threads

MPI task timing breakdown:
Section |  min time  |  avg time  |  max time  |%varavg| %total
---------------------------------------------------------------
Pair    | 7.8715     | 7.8715     | 7.8715     |   0.0 | 51.56
Neigh   | 7.0601     | 7.0601     | 7.0601     |   0.0 | 46.24
Comm    | 0.12034    | 0.12034    | 0.12034    |   0.0 |  0.79
Output  | 0.00013518 | 0.00013518 | 0.00013518 |   0.0 |  0.00
Modify  | 0.16847    | 0.16847    | 0.16847    |   0.0 |  1.10
Other   |            | 0.04624    |            |       |  0.30

Nlocal:    19652 ave 19652 max 19652 min
Histogram: 1 0 0 0 0 0 0 0 0 0
Nghost:    16068 ave 16068 max 16068 min
Histogram: 1 0 0 0 0 0 0 0 0 0
Neighs:    1.09713e+06 ave 1.09713e+06 max 1.09713e+06 min
Histogram: 1 0 0 0 0 0 0 0 0 0

Total # of neighbors = 1097133
Ave neighs/atom = 55.8281
Neighbor list builds = 172
Dangerous builds not checked
Setting up Verlet run ...
  Unit style    : metal
  Current step  : 70682
  Time step     : 0.001
Per MPI rank memory allocation (min/avg/max) = 18.22 | 18.22 | 18.22 Mbytes
Step Temp Press TotEng PotEng Enthalpy Volume 
   70682    171.31327   -23.428658   -28671.814   -29106.965   -28678.543    460201.55 
   70702    172.34629   -48.662603   -28674.364    -29112.14   -28688.342    460191.16 
   71177     131.5376   -68.554482   -28878.624   -29212.741   -28898.253    458745.88 
Loop time of 43.9854 on 1 procs for 495 steps with 19652 atoms

Performance: 0.972 ns/day, 24.683 hours/ns, 11.254 timesteps/s
99.9% CPU use with 1 MPI tasks x no OpenMP threads

MPI task timing breakdown:
Section |  min time  |  avg time  |  max time  |%varavg| %total
---------------------------------------------------------------
Pair    | 22.596     | 22.596     | 22.596     |   0.0 | 51.37
Neigh   | 20.334     | 20.334     | 20.334     |   0.0 | 46.23
Comm    | 0.3447     | 0.3447     | 0.3447     |   0.0 |  0.78
Output  | 0.098058   | 0.098058   | 0.098058   |   0.0 |  0.22
Modify  | 0.48118    | 0.48118    | 0.48118    |   0.0 |  1.09
Other   |            | 0.1317     |            |       |  0.30

Nlocal:    19652 ave 19652 max 19652 min
Histogram: 1 0 0 0 0 0 0 0 0 0
Nghost:    16103 ave 16103 max 16103 min
Histogram: 1 0 0 0 0 0 0 0 0 0
Neighs:    1.10058e+06 ave 1.10058e+06 max 1.10058e+06 min
Histogram: 1 0 0 0 0 0 0 0 0 0

Total # of neighbors = 1100580
Ave neighs/atom = 56.0035
Neighbor list builds = 495
Dangerous builds not checked
Setting up Verlet run ...
  Unit style    : metal
  Current step  : 71177
  Time step     : 0.001
Per MPI rank memory allocation (min/avg/max) = 18.22 | 18.22 | 18.22 Mbytes
Step Temp Press TotEng PotEng Enthalpy Volume 
   71177     131.5376   -68.554482   -28878.624   -29212.741   -28898.253    458745.88 
   71349    122.08598   -151.28934    -28933.41   -29243.519   -28976.699    458441.45 
Loop time of 15.2989 on 1 procs for 172 steps with 19652 atoms

Performance: 0.971 ns/day, 24.708 hours/ns, 11.243 timesteps/s
100.0% CPU use with 1 MPI tasks x no OpenMP threads

MPI task timing breakdown:
Section |  min time  |  avg time  |  max time  |%varavg| %total
---------------------------------------------------------------
Pair    | 7.8966     | 7.8966     | 7.8966     |   0.0 | 51.62
Neigh   | 7.0681     | 7.0681     | 7.0681     |   0.0 | 46.20
Comm    | 0.12018    | 0.12018    | 0.12018    |   0.0 |  0.79
Output  | 0.00012994 | 0.00012994 | 0.00012994 |   0.0 |  0.00
Modify  | 0.1675     | 0.1675     | 0.1675     |   0.0 |  1.09
Other   |            | 0.04647    |            |       |  0.30

Nlocal:    19652 ave 19652 max 19652 min
Histogram: 1 0 0 0 0 0 0 0 0 0
Nghost:    16127 ave 16127 max 16127 min
Histogram: 1 0 0 0 0 0 0 0 0 0
Neighs:    1.10192e+06 ave 1.10192e+06 max 1.10192e+06 min
Histogram: 1 0 0 0 0 0 0 0 0 0

Total # of neighbors = 1101923
Ave neighs/atom = 56.0718
Neighbor list builds = 172
Dangerous builds not checked
Total wall time: 1:43:02
