LAMMPS (12 Dec 2018)
Lattice spacing in x,y,z = 4 4 4
Created orthogonal box = (0 0 0) to (68 68 68)
  1 by 1 by 1 MPI processor grid
Created 19652 atoms
  Time spent = 0.00385308 secs
Setting atom values ...
  19480 settings made for type/fraction
Neighbor list info ...
  update every 1 steps, delay 0 steps, check no
  max neighbors/atom: 2000, page size: 100000
  master list distance cutoff = 8.5
  ghost atom cutoff = 8.5
  binsize = 4.25, bins = 16 16 16
  1 neighbor lists, perpetual/occasional/extra = 1 0 0
  (1) pair eam/alloy, perpetual
      attributes: half, newton on
      pair build: half/bin/atomonly/newton
      stencil: half/bin/3d/newton
      bin: standard
Setting up Verlet run ...
  Unit style    : metal
  Current step  : 0
  Time step     : 0.001
Per MPI rank memory allocation (min/avg/max) = 18.19 | 18.19 | 18.19 Mbytes
Step Temp Press TotEng PotEng Enthalpy Volume 
       0          300    701299.96   -100796.08   -101558.11    36836.167       314432 
    1000    307.35389     594399.3   -100796.02   -101576.73    15856.643       314432 
Loop time of 163.969 on 1 procs for 1000 steps with 19652 atoms

Performance: 0.527 ns/day, 45.547 hours/ns, 6.099 timesteps/s
96.7% CPU use with 1 MPI tasks x no OpenMP threads

MPI task timing breakdown:
Section |  min time  |  avg time  |  max time  |%varavg| %total
---------------------------------------------------------------
Pair    | 91.656     | 91.656     | 91.656     |   0.0 | 55.90
Neigh   | 70.121     | 70.121     | 70.121     |   0.0 | 42.76
Comm    | 1.251      | 1.251      | 1.251      |   0.0 |  0.76
Output  | 0.082727   | 0.082727   | 0.082727   |   0.0 |  0.05
Modify  | 0.42756    | 0.42756    | 0.42756    |   0.0 |  0.26
Other   |            | 0.431      |            |       |  0.26

Nlocal:    19652 ave 19652 max 19652 min
Histogram: 1 0 0 0 0 0 0 0 0 0
Nghost:    19645 ave 19645 max 19645 min
Histogram: 1 0 0 0 0 0 0 0 0 0
Neighs:    1.58287e+06 ave 1.58287e+06 max 1.58287e+06 min
Histogram: 1 0 0 0 0 0 0 0 0 0

Total # of neighbors = 1582874
Ave neighs/atom = 80.5452
Neighbor list builds = 1000
Dangerous builds not checked
Setting up Verlet run ...
  Unit style    : metal
  Current step  : 1000
  Time step     : 0.001
Per MPI rank memory allocation (min/avg/max) = 18.19 | 18.19 | 18.19 Mbytes
Step Temp Press TotEng PotEng Enthalpy Volume 
    1000    307.35389     594399.3   -100796.02   -101576.73    15856.643       314432 
    2000    290.61092    26.107162    -122591.8   -123329.98   -122584.32    459536.33 
Loop time of 131.987 on 1 procs for 1000 steps with 19652 atoms

Performance: 0.655 ns/day, 36.663 hours/ns, 7.576 timesteps/s
99.9% CPU use with 1 MPI tasks x no OpenMP threads

MPI task timing breakdown:
Section |  min time  |  avg time  |  max time  |%varavg| %total
---------------------------------------------------------------
Pair    | 70.83      | 70.83      | 70.83      |   0.0 | 53.66
Neigh   | 58.235     | 58.235     | 58.235     |   0.0 | 44.12
Comm    | 1.0992     | 1.0992     | 1.0992     |   0.0 |  0.83
Output  | 0.073058   | 0.073058   | 0.073058   |   0.0 |  0.06
Modify  | 1.3553     | 1.3553     | 1.3553     |   0.0 |  1.03
Other   |            | 0.3951     |            |       |  0.30

Nlocal:    19652 ave 19652 max 19652 min
Histogram: 1 0 0 0 0 0 0 0 0 0
Nghost:    14820 ave 14820 max 14820 min
Histogram: 1 0 0 0 0 0 0 0 0 0
Neighs:    1.08046e+06 ave 1.08046e+06 max 1.08046e+06 min
Histogram: 1 0 0 0 0 0 0 0 0 0

Total # of neighbors = 1080458
Ave neighs/atom = 54.9795
Neighbor list builds = 1000
Dangerous builds not checked
Setting up Verlet run ...
  Unit style    : metal
  Current step  : 2000
  Time step     : 0.001
Per MPI rank memory allocation (min/avg/max) = 18.19 | 18.19 | 18.19 Mbytes
Step Temp Press TotEng PotEng Enthalpy Volume 
    2000    290.61092    26.107162    -122591.8   -123329.98   -122584.32    459536.33 
    3000    469.26094    166.91041   -121644.55   -122836.51    -121596.6    460190.87 
    4000    805.37992   -899.06872    -119855.8   -121901.54   -120115.58    462943.21 
    5000    1099.4145   -1214.4572   -118228.09   -121020.71   -118581.19    465827.21 
    6000    1360.4729    -249.0208   -116662.86   -120118.58   -116735.62    468157.69 
    7000    1643.4661   -217.33098   -114991.61   -119166.16   -115055.55    471374.39 
    8000    1899.9344   -686.80986   -113194.95   -118020.96    -113398.8    475533.12 
    9000    2144.8923   -2049.6617   -111072.36   -116520.59   -111688.23    481408.28 
   10000    2405.5465   -630.67636   -107967.72   -114078.03   -108160.12     488777.3 
Loop time of 936.073 on 1 procs for 8000 steps with 19652 atoms

Performance: 0.738 ns/day, 32.503 hours/ns, 8.546 timesteps/s
98.3% CPU use with 1 MPI tasks x no OpenMP threads

MPI task timing breakdown:
Section |  min time  |  avg time  |  max time  |%varavg| %total
---------------------------------------------------------------
Pair    | 493.77     | 493.77     | 493.77     |   0.0 | 52.75
Neigh   | 418.7      | 418.7      | 418.7      |   0.0 | 44.73
Comm    | 7.7877     | 7.7877     | 7.7877     |   0.0 |  0.83
Output  | 1.4604     | 1.4604     | 1.4604     |   0.0 |  0.16
Modify  | 11.345     | 11.345     | 11.345     |   0.0 |  1.21
Other   |            | 3.012      |            |       |  0.32

Nlocal:    19652 ave 19652 max 19652 min
Histogram: 1 0 0 0 0 0 0 0 0 0
Nghost:    15452 ave 15452 max 15452 min
Histogram: 1 0 0 0 0 0 0 0 0 0
Neighs:    1.00515e+06 ave 1.00515e+06 max 1.00515e+06 min
Histogram: 1 0 0 0 0 0 0 0 0 0

Total # of neighbors = 1005152
Ave neighs/atom = 51.1476
Neighbor list builds = 8000
Dangerous builds not checked
Setting up Verlet run ...
  Unit style    : metal
  Current step  : 10000
  Time step     : 0.001
Per MPI rank memory allocation (min/avg/max) = 18.19 | 18.19 | 18.19 Mbytes
Step Temp Press TotEng PotEng Enthalpy Volume 
   10000    2405.5465   -630.67636   -107967.72   -114078.03   -108160.12     488777.3 
   11000     2473.797    -1433.069    -106786.2   -113069.87   -107227.16    492995.86 
   12000    2430.2176   -1274.2686   -106917.31   -113090.29   -107309.12    492632.36 
   13000    2407.8755   -656.46183   -106953.95   -113070.17   -107155.58    492098.68 
   14000    2447.0542   -743.82836   -106861.97   -113077.71   -107090.48    492207.68 
   15000      2429.86    866.59926   -106881.01   -113053.08   -106615.36    491146.28 
   16000    2454.5856   -627.29201   -106809.78   -113044.65   -107002.42     492032.9 
   17000    2450.9176   -1508.5309   -106836.37   -113061.92   -107300.62    493069.24 
   18000    2425.3633    55.228524   -106931.85   -113092.49    -106914.9    491618.61 
   19000    2429.1875    51.469403   -107011.82   -113182.18   -106996.04     491426.5 
   20000    2465.9526   -1686.7413   -106787.44   -113051.18   -107306.82    493337.76 
   21000    2442.2038   -409.13953   -106953.77   -113157.19   -107079.36    491777.52 
   22000    2480.1967    1264.7745   -106734.17   -113034.09   -106346.53    491052.32 
   23000    2446.3611    833.84601   -106833.71   -113047.69   -106578.14    491071.66 
   24000    2446.2829    1041.8297   -106845.53   -113059.31   -106526.16     491144.8 
   25000    2447.5799   -959.36505   -106926.59   -113143.67   -107221.44    492409.81 
   26000    2433.7044   -21.690252    -106925.5   -113107.33   -106932.15    491563.74 
   27000     2465.454     934.3612   -106928.03   -113190.51   -106641.85    490727.26 
   28000    2450.7728     572.5643   -106871.13   -113096.31   -106695.67    490980.75 
   29000    2464.6349    1499.6133   -106883.18   -113143.58   -106423.97    490617.76 
   30000    2454.6473    1386.4323   -106896.64   -113131.67   -106472.21     490478.8 
   31000    2437.3862   -379.32233   -106946.63   -113137.82   -107063.07    491812.13 
   32000    2475.5705    828.00275   -106802.14   -113090.32   -106548.18     491413.2 
   33000    2451.5717    1213.9864   -106845.23   -113072.45   -106473.31    490847.52 
   34000    2427.9633   -927.82866   -106890.74   -113057.99   -107175.53    491772.91 
   35000     2456.105    115.57597   -106812.77    -113051.5   -106777.28    491963.59 
   36000    2457.6227    320.56124   -106925.77   -113168.36    -106827.5    491166.64 
   37000    2447.6912    622.03176   -106829.76   -113047.12   -106638.94    491507.05 
   38000    2463.5873   0.17923678   -106871.25   -113128.98   -106871.19    491623.42 
   39000     2446.241   -279.38031   -106850.78   -113064.46   -106936.59    492093.96 
   40000    2445.7584   -865.21436   -106945.04   -113157.49   -107210.68     491901.9 
Loop time of 3539.97 on 1 procs for 30000 steps with 19652 atoms

Performance: 0.732 ns/day, 32.778 hours/ns, 8.475 timesteps/s
97.8% CPU use with 1 MPI tasks x no OpenMP threads

MPI task timing breakdown:
Section |  min time  |  avg time  |  max time  |%varavg| %total
---------------------------------------------------------------
Pair    | 1804.3     | 1804.3     | 1804.3     |   0.0 | 50.97
Neigh   | 1643.6     | 1643.6     | 1643.6     |   0.0 | 46.43
Comm    | 29.44      | 29.44      | 29.44      |   0.0 |  0.83
Output  | 9.0714     | 9.0714     | 9.0714     |   0.0 |  0.26
Modify  | 41.976     | 41.976     | 41.976     |   0.0 |  1.19
Other   |            | 11.54      |            |       |  0.33

Nlocal:    19652 ave 19652 max 19652 min
Histogram: 1 0 0 0 0 0 0 0 0 0
Nghost:    15670 ave 15670 max 15670 min
Histogram: 1 0 0 0 0 0 0 0 0 0
Neighs:    998829 ave 998829 max 998829 min
Histogram: 1 0 0 0 0 0 0 0 0 0

Total # of neighbors = 998829
Ave neighs/atom = 50.8258
Neighbor list builds = 30000
Dangerous builds not checked
Setting up Verlet run ...
  Unit style    : metal
  Current step  : 40000
  Time step     : 0.001
Per MPI rank memory allocation (min/avg/max) = 18.19 | 18.19 | 18.19 Mbytes
Step Temp Press TotEng PotEng Enthalpy Volume 
   40000    2445.7584   -865.21436   -106945.04   -113157.49   -107210.68     491901.9 
   40495     2407.221   -384.85465   -107064.14    -113178.7   -107182.28    491815.17 
Loop time of 56.9668 on 1 procs for 495 steps with 19652 atoms

Performance: 0.751 ns/day, 31.968 hours/ns, 8.689 timesteps/s
99.8% CPU use with 1 MPI tasks x no OpenMP threads

MPI task timing breakdown:
Section |  min time  |  avg time  |  max time  |%varavg| %total
---------------------------------------------------------------
Pair    | 29.069     | 29.069     | 29.069     |   0.0 | 51.03
Neigh   | 26.539     | 26.539     | 26.539     |   0.0 | 46.59
Comm    | 0.47061    | 0.47061    | 0.47061    |   0.0 |  0.83
Output  | 0.00013995 | 0.00013995 | 0.00013995 |   0.0 |  0.00
Modify  | 0.69528    | 0.69528    | 0.69528    |   0.0 |  1.22
Other   |            | 0.1922     |            |       |  0.34

Nlocal:    19652 ave 19652 max 19652 min
Histogram: 1 0 0 0 0 0 0 0 0 0
Nghost:    15563 ave 15563 max 15563 min
Histogram: 1 0 0 0 0 0 0 0 0 0
Neighs:    999071 ave 999071 max 999071 min
Histogram: 1 0 0 0 0 0 0 0 0 0

Total # of neighbors = 999071
Ave neighs/atom = 50.8381
Neighbor list builds = 495
Dangerous builds not checked
Setting up Verlet run ...
  Unit style    : metal
  Current step  : 40495
  Time step     : 0.001
Per MPI rank memory allocation (min/avg/max) = 18.19 | 18.19 | 18.19 Mbytes
Step Temp Press TotEng PotEng Enthalpy Volume 
   40495     2407.221   -384.85465   -107064.14    -113178.7   -107182.28    491815.17 
   41000    2388.7111   -825.81828   -107244.14   -113311.68    -107497.3     491161.4 
Loop time of 57.932 on 1 procs for 505 steps with 19652 atoms

Performance: 0.753 ns/day, 31.866 hours/ns, 8.717 timesteps/s
99.4% CPU use with 1 MPI tasks x no OpenMP threads

MPI task timing breakdown:
Section |  min time  |  avg time  |  max time  |%varavg| %total
---------------------------------------------------------------
Pair    | 29.589     | 29.589     | 29.589     |   0.0 | 51.08
Neigh   | 26.82      | 26.82      | 26.82      |   0.0 | 46.30
Comm    | 0.47114    | 0.47114    | 0.47114    |   0.0 |  0.81
Output  | 0.17012    | 0.17012    | 0.17012    |   0.0 |  0.29
Modify  | 0.6893     | 0.6893     | 0.6893     |   0.0 |  1.19
Other   |            | 0.1927     |            |       |  0.33

Nlocal:    19652 ave 19652 max 19652 min
Histogram: 1 0 0 0 0 0 0 0 0 0
Nghost:    15626 ave 15626 max 15626 min
Histogram: 1 0 0 0 0 0 0 0 0 0
Neighs:    1.00035e+06 ave 1.00035e+06 max 1.00035e+06 min
Histogram: 1 0 0 0 0 0 0 0 0 0

Total # of neighbors = 1000348
Ave neighs/atom = 50.9031
Neighbor list builds = 505
Dangerous builds not checked
Setting up Verlet run ...
  Unit style    : metal
  Current step  : 41000
  Time step     : 0.001
Per MPI rank memory allocation (min/avg/max) = 18.19 | 18.19 | 18.19 Mbytes
Step Temp Press TotEng PotEng Enthalpy Volume 
   41000    2388.7111   -825.81828   -107244.14   -113311.68    -107497.3     491161.4 
   41495    2351.0859   -166.15219   -107429.74   -113401.71   -107480.63    490761.66 
Loop time of 52.5056 on 1 procs for 495 steps with 19652 atoms

Performance: 0.815 ns/day, 29.464 hours/ns, 9.428 timesteps/s
100.0% CPU use with 1 MPI tasks x no OpenMP threads

MPI task timing breakdown:
Section |  min time  |  avg time  |  max time  |%varavg| %total
---------------------------------------------------------------
Pair    | 26.598     | 26.598     | 26.598     |   0.0 | 50.66
Neigh   | 24.673     | 24.673     | 24.673     |   0.0 | 46.99
Comm    | 0.42812    | 0.42812    | 0.42812    |   0.0 |  0.82
Output  | 0.00015402 | 0.00015402 | 0.00015402 |   0.0 |  0.00
Modify  | 0.63141    | 0.63141    | 0.63141    |   0.0 |  1.20
Other   |            | 0.1754     |            |       |  0.33

Nlocal:    19652 ave 19652 max 19652 min
Histogram: 1 0 0 0 0 0 0 0 0 0
Nghost:    15676 ave 15676 max 15676 min
Histogram: 1 0 0 0 0 0 0 0 0 0
Neighs:    1.00144e+06 ave 1.00144e+06 max 1.00144e+06 min
Histogram: 1 0 0 0 0 0 0 0 0 0

Total # of neighbors = 1001435
Ave neighs/atom = 50.9584
Neighbor list builds = 495
Dangerous builds not checked
Setting up Verlet run ...
  Unit style    : metal
  Current step  : 41495
  Time step     : 0.001
Per MPI rank memory allocation (min/avg/max) = 18.19 | 18.19 | 18.19 Mbytes
Step Temp Press TotEng PotEng Enthalpy Volume 
   41495    2351.0859   -166.15219   -107429.74   -113401.71   -107480.63    490761.66 
   42000    2350.3667   -217.09533   -107511.45    -113481.6   -107577.85    490029.42 
Loop time of 56.3435 on 1 procs for 505 steps with 19652 atoms

Performance: 0.774 ns/day, 30.992 hours/ns, 8.963 timesteps/s
97.6% CPU use with 1 MPI tasks x no OpenMP threads

MPI task timing breakdown:
Section |  min time  |  avg time  |  max time  |%varavg| %total
---------------------------------------------------------------
Pair    | 28.494     | 28.494     | 28.494     |   0.0 | 50.57
Neigh   | 26.027     | 26.027     | 26.027     |   0.0 | 46.19
Comm    | 0.46615    | 0.46615    | 0.46615    |   0.0 |  0.83
Output  | 0.50579    | 0.50579    | 0.50579    |   0.0 |  0.90
Modify  | 0.65673    | 0.65673    | 0.65673    |   0.0 |  1.17
Other   |            | 0.194      |            |       |  0.34

Nlocal:    19652 ave 19652 max 19652 min
Histogram: 1 0 0 0 0 0 0 0 0 0
Nghost:    15713 ave 15713 max 15713 min
Histogram: 1 0 0 0 0 0 0 0 0 0
Neighs:    1.00279e+06 ave 1.00279e+06 max 1.00279e+06 min
Histogram: 1 0 0 0 0 0 0 0 0 0

Total # of neighbors = 1002790
Ave neighs/atom = 51.0274
Neighbor list builds = 505
Dangerous builds not checked
Setting up Verlet run ...
  Unit style    : metal
  Current step  : 42000
  Time step     : 0.001
Per MPI rank memory allocation (min/avg/max) = 18.19 | 18.19 | 18.19 Mbytes
Step Temp Press TotEng PotEng Enthalpy Volume 
   42000    2350.3667   -217.09533   -107511.45    -113481.6   -107577.85    490029.42 
   42495    2304.0454   -56.139067   -107733.75   -113586.23    -107750.9    489608.63 
Loop time of 56.8458 on 1 procs for 495 steps with 19652 atoms

Performance: 0.752 ns/day, 31.900 hours/ns, 8.708 timesteps/s
99.9% CPU use with 1 MPI tasks x no OpenMP threads

MPI task timing breakdown:
Section |  min time  |  avg time  |  max time  |%varavg| %total
---------------------------------------------------------------
Pair    | 29.212     | 29.212     | 29.212     |   0.0 | 51.39
Neigh   | 26.294     | 26.294     | 26.294     |   0.0 | 46.26
Comm    | 0.4696     | 0.4696     | 0.4696     |   0.0 |  0.83
Output  | 0.00014687 | 0.00014687 | 0.00014687 |   0.0 |  0.00
Modify  | 0.68007    | 0.68007    | 0.68007    |   0.0 |  1.20
Other   |            | 0.1902     |            |       |  0.33

Nlocal:    19652 ave 19652 max 19652 min
Histogram: 1 0 0 0 0 0 0 0 0 0
Nghost:    15661 ave 15661 max 15661 min
Histogram: 1 0 0 0 0 0 0 0 0 0
Neighs:    1.00416e+06 ave 1.00416e+06 max 1.00416e+06 min
Histogram: 1 0 0 0 0 0 0 0 0 0

Total # of neighbors = 1004155
Ave neighs/atom = 51.0968
Neighbor list builds = 495
Dangerous builds not checked
Setting up Verlet run ...
  Unit style    : metal
  Current step  : 42495
  Time step     : 0.001
Per MPI rank memory allocation (min/avg/max) = 18.19 | 18.19 | 18.19 Mbytes
Step Temp Press TotEng PotEng Enthalpy Volume 
   42495    2304.0454   -56.139067   -107733.75   -113586.23    -107750.9    489608.63 
   43000    2313.8182    90.567205   -107783.97   -113661.28   -107756.31    489300.36 
Loop time of 54.4161 on 1 procs for 505 steps with 19652 atoms

Performance: 0.802 ns/day, 29.932 hours/ns, 9.280 timesteps/s
97.9% CPU use with 1 MPI tasks x no OpenMP threads

MPI task timing breakdown:
Section |  min time  |  avg time  |  max time  |%varavg| %total
---------------------------------------------------------------
Pair    | 27.418     | 27.418     | 27.418     |   0.0 | 50.39
Neigh   | 25.279     | 25.279     | 25.279     |   0.0 | 46.46
Comm    | 0.4463     | 0.4463     | 0.4463     |   0.0 |  0.82
Output  | 0.44538    | 0.44538    | 0.44538    |   0.0 |  0.82
Modify  | 0.63476    | 0.63476    | 0.63476    |   0.0 |  1.17
Other   |            | 0.1926     |            |       |  0.35

Nlocal:    19652 ave 19652 max 19652 min
Histogram: 1 0 0 0 0 0 0 0 0 0
Nghost:    15651 ave 15651 max 15651 min
Histogram: 1 0 0 0 0 0 0 0 0 0
Neighs:    1.00481e+06 ave 1.00481e+06 max 1.00481e+06 min
Histogram: 1 0 0 0 0 0 0 0 0 0

Total # of neighbors = 1004814
Ave neighs/atom = 51.1304
Neighbor list builds = 505
Dangerous builds not checked
Setting up Verlet run ...
  Unit style    : metal
  Current step  : 43000
  Time step     : 0.001
Per MPI rank memory allocation (min/avg/max) = 18.19 | 18.19 | 18.19 Mbytes
Step Temp Press TotEng PotEng Enthalpy Volume 
   43000    2313.8182    90.567205   -107783.97   -113661.28   -107756.31    489300.36 
   43495    2252.4139    983.89817    -108064.9   -113786.23   -107765.19    488036.95 
Loop time of 53.5102 on 1 procs for 495 steps with 19652 atoms

Performance: 0.799 ns/day, 30.028 hours/ns, 9.251 timesteps/s
99.9% CPU use with 1 MPI tasks x no OpenMP threads

MPI task timing breakdown:
Section |  min time  |  avg time  |  max time  |%varavg| %total
---------------------------------------------------------------
Pair    | 27.182     | 27.182     | 27.182     |   0.0 | 50.80
Neigh   | 25.058     | 25.058     | 25.058     |   0.0 | 46.83
Comm    | 0.44344    | 0.44344    | 0.44344    |   0.0 |  0.83
Output  | 0.0001812  | 0.0001812  | 0.0001812  |   0.0 |  0.00
Modify  | 0.6437     | 0.6437     | 0.6437     |   0.0 |  1.20
Other   |            | 0.1832     |            |       |  0.34

Nlocal:    19652 ave 19652 max 19652 min
Histogram: 1 0 0 0 0 0 0 0 0 0
Nghost:    15598 ave 15598 max 15598 min
Histogram: 1 0 0 0 0 0 0 0 0 0
Neighs:    1.00757e+06 ave 1.00757e+06 max 1.00757e+06 min
Histogram: 1 0 0 0 0 0 0 0 0 0

Total # of neighbors = 1007573
Ave neighs/atom = 51.2708
Neighbor list builds = 495
Dangerous builds not checked
Setting up Verlet run ...
  Unit style    : metal
  Current step  : 43495
  Time step     : 0.001
Per MPI rank memory allocation (min/avg/max) = 18.19 | 18.19 | 18.19 Mbytes
Step Temp Press TotEng PotEng Enthalpy Volume 
   43495    2252.4139    983.89817    -108064.9   -113786.23   -107765.19    488036.95 
   44000    2241.9959    642.88349   -108195.21   -113890.09   -107999.58    487543.96 
Loop time of 57.7372 on 1 procs for 505 steps with 19652 atoms

Performance: 0.756 ns/day, 31.759 hours/ns, 8.747 timesteps/s
98.1% CPU use with 1 MPI tasks x no OpenMP threads

MPI task timing breakdown:
Section |  min time  |  avg time  |  max time  |%varavg| %total
---------------------------------------------------------------
Pair    | 29.074     | 29.074     | 29.074     |   0.0 | 50.36
Neigh   | 26.197     | 26.197     | 26.197     |   0.0 | 45.37
Comm    | 0.46434    | 0.46434    | 0.46434    |   0.0 |  0.80
Output  | 1.1443     | 1.1443     | 1.1443     |   0.0 |  1.98
Modify  | 0.67037    | 0.67037    | 0.67037    |   0.0 |  1.16
Other   |            | 0.187      |            |       |  0.32

Nlocal:    19652 ave 19652 max 19652 min
Histogram: 1 0 0 0 0 0 0 0 0 0
Nghost:    15662 ave 15662 max 15662 min
Histogram: 1 0 0 0 0 0 0 0 0 0
Neighs:    1.0084e+06 ave 1.0084e+06 max 1.0084e+06 min
Histogram: 1 0 0 0 0 0 0 0 0 0

Total # of neighbors = 1008404
Ave neighs/atom = 51.313
Neighbor list builds = 505
Dangerous builds not checked
Setting up Verlet run ...
  Unit style    : metal
  Current step  : 44000
  Time step     : 0.001
Per MPI rank memory allocation (min/avg/max) = 18.19 | 18.19 | 18.19 Mbytes
Step Temp Press TotEng PotEng Enthalpy Volume 
   44000    2241.9959    642.88349   -108195.21   -113890.09   -107999.58    487543.96 
   44495    2190.1028     1030.901   -108407.87   -113970.94   -108094.72    486697.26 
Loop time of 54.2807 on 1 procs for 495 steps with 19652 atoms

Performance: 0.788 ns/day, 30.461 hours/ns, 9.119 timesteps/s
98.7% CPU use with 1 MPI tasks x no OpenMP threads

MPI task timing breakdown:
Section |  min time  |  avg time  |  max time  |%varavg| %total
---------------------------------------------------------------
Pair    | 27.776     | 27.776     | 27.776     |   0.0 | 51.17
Neigh   | 25.245     | 25.245     | 25.245     |   0.0 | 46.51
Comm    | 0.44603    | 0.44603    | 0.44603    |   0.0 |  0.82
Output  | 0.00018001 | 0.00018001 | 0.00018001 |   0.0 |  0.00
Modify  | 0.63137    | 0.63137    | 0.63137    |   0.0 |  1.16
Other   |            | 0.1829     |            |       |  0.34

Nlocal:    19652 ave 19652 max 19652 min
Histogram: 1 0 0 0 0 0 0 0 0 0
Nghost:    15729 ave 15729 max 15729 min
Histogram: 1 0 0 0 0 0 0 0 0 0
Neighs:    1.01035e+06 ave 1.01035e+06 max 1.01035e+06 min
Histogram: 1 0 0 0 0 0 0 0 0 0

Total # of neighbors = 1010352
Ave neighs/atom = 51.4122
Neighbor list builds = 495
Dangerous builds not checked
Setting up Verlet run ...
  Unit style    : metal
  Current step  : 44495
  Time step     : 0.001
Per MPI rank memory allocation (min/avg/max) = 18.19 | 18.19 | 18.19 Mbytes
Step Temp Press TotEng PotEng Enthalpy Volume 
   44495    2190.1028     1030.901   -108407.87   -113970.94   -108094.72    486697.26 
   45000    2195.0274    1320.3481   -108555.98   -114131.55   -108155.41    486080.45 
Loop time of 57.2961 on 1 procs for 505 steps with 19652 atoms

Performance: 0.762 ns/day, 31.516 hours/ns, 8.814 timesteps/s
99.4% CPU use with 1 MPI tasks x no OpenMP threads

MPI task timing breakdown:
Section |  min time  |  avg time  |  max time  |%varavg| %total
---------------------------------------------------------------
Pair    | 29.242     | 29.242     | 29.242     |   0.0 | 51.04
Neigh   | 26.423     | 26.423     | 26.423     |   0.0 | 46.12
Comm    | 0.46709    | 0.46709    | 0.46709    |   0.0 |  0.82
Output  | 0.29815    | 0.29815    | 0.29815    |   0.0 |  0.52
Modify  | 0.67657    | 0.67657    | 0.67657    |   0.0 |  1.18
Other   |            | 0.1894     |            |       |  0.33

Nlocal:    19652 ave 19652 max 19652 min
Histogram: 1 0 0 0 0 0 0 0 0 0
Nghost:    15730 ave 15730 max 15730 min
Histogram: 1 0 0 0 0 0 0 0 0 0
Neighs:    1.01198e+06 ave 1.01198e+06 max 1.01198e+06 min
Histogram: 1 0 0 0 0 0 0 0 0 0

Total # of neighbors = 1011979
Ave neighs/atom = 51.495
Neighbor list builds = 505
Dangerous builds not checked
Setting up Verlet run ...
  Unit style    : metal
  Current step  : 45000
  Time step     : 0.001
Per MPI rank memory allocation (min/avg/max) = 18.19 | 18.19 | 18.19 Mbytes
Step Temp Press TotEng PotEng Enthalpy Volume 
   45000    2195.0274    1320.3481   -108555.98   -114131.55   -108155.41    486080.45 
   45495    2167.7958    1663.2032    -108681.6      -114188   -108177.53    485576.41 
Loop time of 55.0246 on 1 procs for 495 steps with 19652 atoms

Performance: 0.777 ns/day, 30.878 hours/ns, 8.996 timesteps/s
98.6% CPU use with 1 MPI tasks x no OpenMP threads

MPI task timing breakdown:
Section |  min time  |  avg time  |  max time  |%varavg| %total
---------------------------------------------------------------
Pair    | 28.378     | 28.378     | 28.378     |   0.0 | 51.57
Neigh   | 25.373     | 25.373     | 25.373     |   0.0 | 46.11
Comm    | 0.45625    | 0.45625    | 0.45625    |   0.0 |  0.83
Output  | 0.00018978 | 0.00018978 | 0.00018978 |   0.0 |  0.00
Modify  | 0.63392    | 0.63392    | 0.63392    |   0.0 |  1.15
Other   |            | 0.1839     |            |       |  0.33

Nlocal:    19652 ave 19652 max 19652 min
Histogram: 1 0 0 0 0 0 0 0 0 0
Nghost:    15705 ave 15705 max 15705 min
Histogram: 1 0 0 0 0 0 0 0 0 0
Neighs:    1.01346e+06 ave 1.01346e+06 max 1.01346e+06 min
Histogram: 1 0 0 0 0 0 0 0 0 0

Total # of neighbors = 1013465
Ave neighs/atom = 51.5706
Neighbor list builds = 495
Dangerous builds not checked
Setting up Verlet run ...
  Unit style    : metal
  Current step  : 45495
  Time step     : 0.001
Per MPI rank memory allocation (min/avg/max) = 18.19 | 18.19 | 18.19 Mbytes
Step Temp Press TotEng PotEng Enthalpy Volume 
   45495    2167.7958    1663.2032    -108681.6      -114188   -108177.53    485576.41 
   46000    2121.8028    1286.1735   -108882.28   -114271.85   -108492.71    485283.58 
Loop time of 52.1275 on 1 procs for 505 steps with 19652 atoms

Performance: 0.837 ns/day, 28.673 hours/ns, 9.688 timesteps/s
99.3% CPU use with 1 MPI tasks x no OpenMP threads

MPI task timing breakdown:
Section |  min time  |  avg time  |  max time  |%varavg| %total
---------------------------------------------------------------
Pair    | 26.518     | 26.518     | 26.518     |   0.0 | 50.87
Neigh   | 24.148     | 24.148     | 24.148     |   0.0 | 46.32
Comm    | 0.42577    | 0.42577    | 0.42577    |   0.0 |  0.82
Output  | 0.26213    | 0.26213    | 0.26213    |   0.0 |  0.50
Modify  | 0.59966    | 0.59966    | 0.59966    |   0.0 |  1.15
Other   |            | 0.1742     |            |       |  0.33

Nlocal:    19652 ave 19652 max 19652 min
Histogram: 1 0 0 0 0 0 0 0 0 0
Nghost:    15708 ave 15708 max 15708 min
Histogram: 1 0 0 0 0 0 0 0 0 0
Neighs:    1.01409e+06 ave 1.01409e+06 max 1.01409e+06 min
Histogram: 1 0 0 0 0 0 0 0 0 0

Total # of neighbors = 1014087
Ave neighs/atom = 51.6022
Neighbor list builds = 505
Dangerous builds not checked
Setting up Verlet run ...
  Unit style    : metal
  Current step  : 46000
  Time step     : 0.001
Per MPI rank memory allocation (min/avg/max) = 18.19 | 18.19 | 18.19 Mbytes
Step Temp Press TotEng PotEng Enthalpy Volume 
   46000    2121.8028    1286.1735   -108882.28   -114271.85   -108492.71    485283.58 
   46495      2125.71    686.97477   -109056.89   -114456.38   -108848.86    485166.57 
Loop time of 53.5017 on 1 procs for 495 steps with 19652 atoms

Performance: 0.799 ns/day, 30.023 hours/ns, 9.252 timesteps/s
99.8% CPU use with 1 MPI tasks x no OpenMP threads

MPI task timing breakdown:
Section |  min time  |  avg time  |  max time  |%varavg| %total
---------------------------------------------------------------
Pair    | 27.459     | 27.459     | 27.459     |   0.0 | 51.32
Neigh   | 24.796     | 24.796     | 24.796     |   0.0 | 46.35
Comm    | 0.43832    | 0.43832    | 0.43832    |   0.0 |  0.82
Output  | 0.00019789 | 0.00019789 | 0.00019789 |   0.0 |  0.00
Modify  | 0.62858    | 0.62858    | 0.62858    |   0.0 |  1.17
Other   |            | 0.1794     |            |       |  0.34

Nlocal:    19652 ave 19652 max 19652 min
Histogram: 1 0 0 0 0 0 0 0 0 0
Nghost:    15745 ave 15745 max 15745 min
Histogram: 1 0 0 0 0 0 0 0 0 0
Neighs:    1.014e+06 ave 1.014e+06 max 1.014e+06 min
Histogram: 1 0 0 0 0 0 0 0 0 0

Total # of neighbors = 1014001
Ave neighs/atom = 51.5979
Neighbor list builds = 495
Dangerous builds not checked
Setting up Verlet run ...
  Unit style    : metal
  Current step  : 46495
  Time step     : 0.001
Per MPI rank memory allocation (min/avg/max) = 18.19 | 18.19 | 18.19 Mbytes
Step Temp Press TotEng PotEng Enthalpy Volume 
   46495      2125.71    686.97477   -109056.89   -114456.38   -108848.86    485166.57 
   47000    2115.2837    693.54703    -109148.5   -114521.51    -108938.6    484899.93 
Loop time of 52.28 on 1 procs for 505 steps with 19652 atoms

Performance: 0.835 ns/day, 28.757 hours/ns, 9.660 timesteps/s
98.1% CPU use with 1 MPI tasks x no OpenMP threads

MPI task timing breakdown:
Section |  min time  |  avg time  |  max time  |%varavg| %total
---------------------------------------------------------------
Pair    | 26.348     | 26.348     | 26.348     |   0.0 | 50.40
Neigh   | 24.471     | 24.471     | 24.471     |   0.0 | 46.81
Comm    | 0.43264    | 0.43264    | 0.43264    |   0.0 |  0.83
Output  | 0.24911    | 0.24911    | 0.24911    |   0.0 |  0.48
Modify  | 0.60055    | 0.60055    | 0.60055    |   0.0 |  1.15
Other   |            | 0.1791     |            |       |  0.34

Nlocal:    19652 ave 19652 max 19652 min
Histogram: 1 0 0 0 0 0 0 0 0 0
Nghost:    15713 ave 15713 max 15713 min
Histogram: 1 0 0 0 0 0 0 0 0 0
Neighs:    1.01466e+06 ave 1.01466e+06 max 1.01466e+06 min
Histogram: 1 0 0 0 0 0 0 0 0 0

Total # of neighbors = 1014657
Ave neighs/atom = 51.6312
Neighbor list builds = 505
Dangerous builds not checked
Setting up Verlet run ...
  Unit style    : metal
  Current step  : 47000
  Time step     : 0.001
Per MPI rank memory allocation (min/avg/max) = 18.19 | 18.19 | 18.19 Mbytes
Step Temp Press TotEng PotEng Enthalpy Volume 
   47000    2115.2837    693.54703    -109148.5   -114521.51    -108938.6    484899.93 
   47495     2057.735    1241.9788   -109393.29   -114620.13   -109017.93    484229.48 
Loop time of 51.5466 on 1 procs for 495 steps with 19652 atoms

Performance: 0.830 ns/day, 28.926 hours/ns, 9.603 timesteps/s
98.8% CPU use with 1 MPI tasks x no OpenMP threads

MPI task timing breakdown:
Section |  min time  |  avg time  |  max time  |%varavg| %total
---------------------------------------------------------------
Pair    | 26.246     | 26.246     | 26.246     |   0.0 | 50.92
Neigh   | 24.113     | 24.113     | 24.113     |   0.0 | 46.78
Comm    | 0.42523    | 0.42523    | 0.42523    |   0.0 |  0.82
Output  | 0.00018501 | 0.00018501 | 0.00018501 |   0.0 |  0.00
Modify  | 0.58877    | 0.58877    | 0.58877    |   0.0 |  1.14
Other   |            | 0.1737     |            |       |  0.34

Nlocal:    19652 ave 19652 max 19652 min
Histogram: 1 0 0 0 0 0 0 0 0 0
Nghost:    15684 ave 15684 max 15684 min
Histogram: 1 0 0 0 0 0 0 0 0 0
Neighs:    1.0166e+06 ave 1.0166e+06 max 1.0166e+06 min
Histogram: 1 0 0 0 0 0 0 0 0 0

Total # of neighbors = 1016604
Ave neighs/atom = 51.7303
Neighbor list builds = 495
Dangerous builds not checked
Setting up Verlet run ...
  Unit style    : metal
  Current step  : 47495
  Time step     : 0.001
Per MPI rank memory allocation (min/avg/max) = 18.19 | 18.19 | 18.19 Mbytes
Step Temp Press TotEng PotEng Enthalpy Volume 
   47495     2057.735    1241.9788   -109393.29   -114620.13   -109017.93    484229.48 
   48000    2037.2644    827.25315   -109480.47    -114655.3   -109230.41    484286.52 
Loop time of 54.1656 on 1 procs for 505 steps with 19652 atoms

Performance: 0.806 ns/day, 29.794 hours/ns, 9.323 timesteps/s
99.6% CPU use with 1 MPI tasks x no OpenMP threads

MPI task timing breakdown:
Section |  min time  |  avg time  |  max time  |%varavg| %total
---------------------------------------------------------------
Pair    | 27.535     | 27.535     | 27.535     |   0.0 | 50.84
Neigh   | 25.173     | 25.173     | 25.173     |   0.0 | 46.47
Comm    | 0.43585    | 0.43585    | 0.43585    |   0.0 |  0.80
Output  | 0.2056     | 0.2056     | 0.2056     |   0.0 |  0.38
Modify  | 0.63533    | 0.63533    | 0.63533    |   0.0 |  1.17
Other   |            | 0.1803     |            |       |  0.33

Nlocal:    19652 ave 19652 max 19652 min
Histogram: 1 0 0 0 0 0 0 0 0 0
Nghost:    15725 ave 15725 max 15725 min
Histogram: 1 0 0 0 0 0 0 0 0 0
Neighs:    1.01639e+06 ave 1.01639e+06 max 1.01639e+06 min
Histogram: 1 0 0 0 0 0 0 0 0 0

Total # of neighbors = 1016391
Ave neighs/atom = 51.7195
Neighbor list builds = 505
Dangerous builds not checked
Setting up Verlet run ...
  Unit style    : metal
  Current step  : 48000
  Time step     : 0.001
Per MPI rank memory allocation (min/avg/max) = 18.19 | 18.19 | 18.19 Mbytes
Step Temp Press TotEng PotEng Enthalpy Volume 
   48000    2037.2644    827.25315   -109480.47    -114655.3   -109230.41    484286.52 
   48495    2001.0315    928.50275   -109702.35   -114785.15   -109422.07    483637.92 
Loop time of 52.7663 on 1 procs for 495 steps with 19652 atoms

Performance: 0.811 ns/day, 29.611 hours/ns, 9.381 timesteps/s
99.6% CPU use with 1 MPI tasks x no OpenMP threads

MPI task timing breakdown:
Section |  min time  |  avg time  |  max time  |%varavg| %total
---------------------------------------------------------------
Pair    | 27.052     | 27.052     | 27.052     |   0.0 | 51.27
Neigh   | 24.489     | 24.489     | 24.489     |   0.0 | 46.41
Comm    | 0.43148    | 0.43148    | 0.43148    |   0.0 |  0.82
Output  | 0.00016403 | 0.00016403 | 0.00016403 |   0.0 |  0.00
Modify  | 0.61636    | 0.61636    | 0.61636    |   0.0 |  1.17
Other   |            | 0.1767     |            |       |  0.33

Nlocal:    19652 ave 19652 max 19652 min
Histogram: 1 0 0 0 0 0 0 0 0 0
Nghost:    15756 ave 15756 max 15756 min
Histogram: 1 0 0 0 0 0 0 0 0 0
Neighs:    1.01799e+06 ave 1.01799e+06 max 1.01799e+06 min
Histogram: 1 0 0 0 0 0 0 0 0 0

Total # of neighbors = 1017991
Ave neighs/atom = 51.8009
Neighbor list builds = 495
Dangerous builds not checked
Setting up Verlet run ...
  Unit style    : metal
  Current step  : 48495
  Time step     : 0.001
Per MPI rank memory allocation (min/avg/max) = 18.19 | 18.19 | 18.19 Mbytes
Step Temp Press TotEng PotEng Enthalpy Volume 
   48495    2001.0315    928.50275   -109702.35   -114785.15   -109422.07    483637.92 
   49000    1985.4887   -51.395275   -109848.95   -114892.27   -109864.47    483724.44 
Loop time of 53.0543 on 1 procs for 505 steps with 19652 atoms

Performance: 0.822 ns/day, 29.183 hours/ns, 9.519 timesteps/s
99.4% CPU use with 1 MPI tasks x no OpenMP threads

MPI task timing breakdown:
Section |  min time  |  avg time  |  max time  |%varavg| %total
---------------------------------------------------------------
Pair    | 26.956     | 26.956     | 26.956     |   0.0 | 50.81
Neigh   | 24.672     | 24.672     | 24.672     |   0.0 | 46.50
Comm    | 0.4341     | 0.4341     | 0.4341     |   0.0 |  0.82
Output  | 0.18662    | 0.18662    | 0.18662    |   0.0 |  0.35
Modify  | 0.62546    | 0.62546    | 0.62546    |   0.0 |  1.18
Other   |            | 0.1806     |            |       |  0.34

Nlocal:    19652 ave 19652 max 19652 min
Histogram: 1 0 0 0 0 0 0 0 0 0
Nghost:    15753 ave 15753 max 15753 min
Histogram: 1 0 0 0 0 0 0 0 0 0
Neighs:    1.01799e+06 ave 1.01799e+06 max 1.01799e+06 min
Histogram: 1 0 0 0 0 0 0 0 0 0

Total # of neighbors = 1017989
Ave neighs/atom = 51.8008
Neighbor list builds = 505
Dangerous builds not checked
Setting up Verlet run ...
  Unit style    : metal
  Current step  : 49000
  Time step     : 0.001
Per MPI rank memory allocation (min/avg/max) = 18.19 | 18.19 | 18.19 Mbytes
Step Temp Press TotEng PotEng Enthalpy Volume 
   49000    1985.4887   -51.395275   -109848.95   -114892.27   -109864.47    483724.44 
   49495    1977.2663     764.5157    -110023.3   -115045.73   -109792.88    482878.02 
Loop time of 47.9333 on 1 procs for 495 steps with 19652 atoms

Performance: 0.892 ns/day, 26.899 hours/ns, 10.327 timesteps/s
100.0% CPU use with 1 MPI tasks x no OpenMP threads

MPI task timing breakdown:
Section |  min time  |  avg time  |  max time  |%varavg| %total
---------------------------------------------------------------
Pair    | 24.257     | 24.257     | 24.257     |   0.0 | 50.61
Neigh   | 22.587     | 22.587     | 22.587     |   0.0 | 47.12
Comm    | 0.38402    | 0.38402    | 0.38402    |   0.0 |  0.80
Output  | 0.00018406 | 0.00018406 | 0.00018406 |   0.0 |  0.00
Modify  | 0.54502    | 0.54502    | 0.54502    |   0.0 |  1.14
Other   |            | 0.16       |            |       |  0.33

Nlocal:    19652 ave 19652 max 19652 min
Histogram: 1 0 0 0 0 0 0 0 0 0
Nghost:    15752 ave 15752 max 15752 min
Histogram: 1 0 0 0 0 0 0 0 0 0
Neighs:    1.01951e+06 ave 1.01951e+06 max 1.01951e+06 min
Histogram: 1 0 0 0 0 0 0 0 0 0

Total # of neighbors = 1019513
Ave neighs/atom = 51.8783
Neighbor list builds = 495
Dangerous builds not checked
Setting up Verlet run ...
  Unit style    : metal
  Current step  : 49495
  Time step     : 0.001
Per MPI rank memory allocation (min/avg/max) = 18.19 | 18.19 | 18.19 Mbytes
Step Temp Press TotEng PotEng Enthalpy Volume 
   49495    1977.2663     764.5157    -110023.3   -115045.73   -109792.88    482878.02 
   50000    1951.5649    310.74365   -110173.14   -115130.29   -110079.51     482729.9 
Loop time of 51.8279 on 1 procs for 505 steps with 19652 atoms

Performance: 0.842 ns/day, 28.508 hours/ns, 9.744 timesteps/s
99.0% CPU use with 1 MPI tasks x no OpenMP threads

MPI task timing breakdown:
Section |  min time  |  avg time  |  max time  |%varavg| %total
---------------------------------------------------------------
Pair    | 26.171     | 26.171     | 26.171     |   0.0 | 50.50
Neigh   | 23.992     | 23.992     | 23.992     |   0.0 | 46.29
Comm    | 0.41503    | 0.41503    | 0.41503    |   0.0 |  0.80
Output  | 0.48563    | 0.48563    | 0.48563    |   0.0 |  0.94
Modify  | 0.59249    | 0.59249    | 0.59249    |   0.0 |  1.14
Other   |            | 0.172      |            |       |  0.33

Nlocal:    19652 ave 19652 max 19652 min
Histogram: 1 0 0 0 0 0 0 0 0 0
Nghost:    15739 ave 15739 max 15739 min
Histogram: 1 0 0 0 0 0 0 0 0 0
Neighs:    1.02032e+06 ave 1.02032e+06 max 1.02032e+06 min
Histogram: 1 0 0 0 0 0 0 0 0 0

Total # of neighbors = 1020322
Ave neighs/atom = 51.9195
Neighbor list builds = 505
Dangerous builds not checked
Setting up Verlet run ...
  Unit style    : metal
  Current step  : 50000
  Time step     : 0.001
Per MPI rank memory allocation (min/avg/max) = 18.19 | 18.19 | 18.19 Mbytes
Step Temp Press TotEng PotEng Enthalpy Volume 
   50000    1951.5649    310.74365   -110173.14   -115130.29   -110079.51     482729.9 
   50495    1915.6346    918.86712   -110389.09   -115254.98   -110112.69    481945.71 
Loop time of 49.2715 on 1 procs for 495 steps with 19652 atoms

Performance: 0.868 ns/day, 27.650 hours/ns, 10.046 timesteps/s
98.8% CPU use with 1 MPI tasks x no OpenMP threads

MPI task timing breakdown:
Section |  min time  |  avg time  |  max time  |%varavg| %total
---------------------------------------------------------------
Pair    | 25.205     | 25.205     | 25.205     |   0.0 | 51.15
Neigh   | 22.957     | 22.957     | 22.957     |   0.0 | 46.59
Comm    | 0.39403    | 0.39403    | 0.39403    |   0.0 |  0.80
Output  | 0.00014901 | 0.00014901 | 0.00014901 |   0.0 |  0.00
Modify  | 0.55166    | 0.55166    | 0.55166    |   0.0 |  1.12
Other   |            | 0.164      |            |       |  0.33

Nlocal:    19652 ave 19652 max 19652 min
Histogram: 1 0 0 0 0 0 0 0 0 0
Nghost:    15794 ave 15794 max 15794 min
Histogram: 1 0 0 0 0 0 0 0 0 0
Neighs:    1.02257e+06 ave 1.02257e+06 max 1.02257e+06 min
Histogram: 1 0 0 0 0 0 0 0 0 0

Total # of neighbors = 1022566
Ave neighs/atom = 52.0337
Neighbor list builds = 495
Dangerous builds not checked
Setting up Verlet run ...
  Unit style    : metal
  Current step  : 50495
  Time step     : 0.001
Per MPI rank memory allocation (min/avg/max) = 18.19 | 18.19 | 18.19 Mbytes
Step Temp Press TotEng PotEng Enthalpy Volume 
   50495    1915.6346    918.86712   -110389.09   -115254.98   -110112.69    481945.71 
   51000    1901.7359    618.12606   -110539.64   -115370.22   -110353.74    481850.74 
Loop time of 50.3702 on 1 procs for 505 steps with 19652 atoms

Performance: 0.866 ns/day, 27.706 hours/ns, 10.026 timesteps/s
99.5% CPU use with 1 MPI tasks x no OpenMP threads

MPI task timing breakdown:
Section |  min time  |  avg time  |  max time  |%varavg| %total
---------------------------------------------------------------
Pair    | 25.484     | 25.484     | 25.484     |   0.0 | 50.59
Neigh   | 23.427     | 23.427     | 23.427     |   0.0 | 46.51
Comm    | 0.40977    | 0.40977    | 0.40977    |   0.0 |  0.81
Output  | 0.29946    | 0.29946    | 0.29946    |   0.0 |  0.59
Modify  | 0.57807    | 0.57807    | 0.57807    |   0.0 |  1.15
Other   |            | 0.1719     |            |       |  0.34

Nlocal:    19652 ave 19652 max 19652 min
Histogram: 1 0 0 0 0 0 0 0 0 0
Nghost:    15782 ave 15782 max 15782 min
Histogram: 1 0 0 0 0 0 0 0 0 0
Neighs:    1.0231e+06 ave 1.0231e+06 max 1.0231e+06 min
Histogram: 1 0 0 0 0 0 0 0 0 0

Total # of neighbors = 1023099
Ave neighs/atom = 52.0608
Neighbor list builds = 505
Dangerous builds not checked
Setting up Verlet run ...
  Unit style    : metal
  Current step  : 51000
  Time step     : 0.001
Per MPI rank memory allocation (min/avg/max) = 18.19 | 18.19 | 18.19 Mbytes
Step Temp Press TotEng PotEng Enthalpy Volume 
   51000    1901.7359    618.12606   -110539.64   -115370.22   -110353.74    481850.74 
   51495    1880.5399    385.93929   -110754.46   -115531.21   -110638.56    481140.73 
Loop time of 46.6079 on 1 procs for 495 steps with 19652 atoms

Performance: 0.918 ns/day, 26.155 hours/ns, 10.621 timesteps/s
99.5% CPU use with 1 MPI tasks x no OpenMP threads

MPI task timing breakdown:
Section |  min time  |  avg time  |  max time  |%varavg| %total
---------------------------------------------------------------
Pair    | 23.58      | 23.58      | 23.58      |   0.0 | 50.59
Neigh   | 21.965     | 21.965     | 21.965     |   0.0 | 47.13
Comm    | 0.38283    | 0.38283    | 0.38283    |   0.0 |  0.82
Output  | 0.00017095 | 0.00017095 | 0.00017095 |   0.0 |  0.00
Modify  | 0.522      | 0.522      | 0.522      |   0.0 |  1.12
Other   |            | 0.1574     |            |       |  0.34

Nlocal:    19652 ave 19652 max 19652 min
Histogram: 1 0 0 0 0 0 0 0 0 0
Nghost:    15741 ave 15741 max 15741 min
Histogram: 1 0 0 0 0 0 0 0 0 0
Neighs:    1.02422e+06 ave 1.02422e+06 max 1.02422e+06 min
Histogram: 1 0 0 0 0 0 0 0 0 0

Total # of neighbors = 1024218
Ave neighs/atom = 52.1177
Neighbor list builds = 495
Dangerous builds not checked
Setting up Verlet run ...
  Unit style    : metal
  Current step  : 51495
  Time step     : 0.001
Per MPI rank memory allocation (min/avg/max) = 18.19 | 18.19 | 18.19 Mbytes
Step Temp Press TotEng PotEng Enthalpy Volume 
   51495    1880.5399    385.93929   -110754.46   -115531.21   -110638.56    481140.73 
   52000    1871.8914    353.54815   -110769.28   -115524.05   -110663.07    481324.63 
Loop time of 49.858 on 1 procs for 505 steps with 19652 atoms

Performance: 0.875 ns/day, 27.425 hours/ns, 10.129 timesteps/s
99.1% CPU use with 1 MPI tasks x no OpenMP threads

MPI task timing breakdown:
Section |  min time  |  avg time  |  max time  |%varavg| %total
---------------------------------------------------------------
Pair    | 25.137     | 25.137     | 25.137     |   0.0 | 50.42
Neigh   | 23.102     | 23.102     | 23.102     |   0.0 | 46.34
Comm    | 0.40347    | 0.40347    | 0.40347    |   0.0 |  0.81
Output  | 0.48108    | 0.48108    | 0.48108    |   0.0 |  0.96
Modify  | 0.56831    | 0.56831    | 0.56831    |   0.0 |  1.14
Other   |            | 0.1657     |            |       |  0.33

Nlocal:    19652 ave 19652 max 19652 min
Histogram: 1 0 0 0 0 0 0 0 0 0
Nghost:    15782 ave 15782 max 15782 min
Histogram: 1 0 0 0 0 0 0 0 0 0
Neighs:    1.02408e+06 ave 1.02408e+06 max 1.02408e+06 min
Histogram: 1 0 0 0 0 0 0 0 0 0

Total # of neighbors = 1024083
Ave neighs/atom = 52.1109
Neighbor list builds = 505
Dangerous builds not checked
Setting up Verlet run ...
  Unit style    : metal
  Current step  : 52000
  Time step     : 0.001
Per MPI rank memory allocation (min/avg/max) = 18.19 | 18.19 | 18.19 Mbytes
Step Temp Press TotEng PotEng Enthalpy Volume 
   52000    1871.8914    353.54815   -110769.28   -115524.05   -110663.07    481324.63 
   52495    1824.2781     185.2363   -111047.99   -115681.82   -110992.42    480689.69 
Loop time of 50.6007 on 1 procs for 495 steps with 19652 atoms

Performance: 0.845 ns/day, 28.395 hours/ns, 9.782 timesteps/s
99.9% CPU use with 1 MPI tasks x no OpenMP threads

MPI task timing breakdown:
Section |  min time  |  avg time  |  max time  |%varavg| %total
---------------------------------------------------------------
Pair    | 26.013     | 26.013     | 26.013     |   0.0 | 51.41
Neigh   | 23.42      | 23.42      | 23.42      |   0.0 | 46.28
Comm    | 0.41593    | 0.41593    | 0.41593    |   0.0 |  0.82
Output  | 0.00017905 | 0.00017905 | 0.00017905 |   0.0 |  0.00
Modify  | 0.57899    | 0.57899    | 0.57899    |   0.0 |  1.14
Other   |            | 0.1727     |            |       |  0.34

Nlocal:    19652 ave 19652 max 19652 min
Histogram: 1 0 0 0 0 0 0 0 0 0
Nghost:    15785 ave 15785 max 15785 min
Histogram: 1 0 0 0 0 0 0 0 0 0
Neighs:    1.02596e+06 ave 1.02596e+06 max 1.02596e+06 min
Histogram: 1 0 0 0 0 0 0 0 0 0

Total # of neighbors = 1025957
Ave neighs/atom = 52.2062
Neighbor list builds = 495
Dangerous builds not checked
Setting up Verlet run ...
  Unit style    : metal
  Current step  : 52495
  Time step     : 0.001
Per MPI rank memory allocation (min/avg/max) = 18.19 | 18.19 | 18.19 Mbytes
Step Temp Press TotEng PotEng Enthalpy Volume 
   52495    1824.2781     185.2363   -111047.99   -115681.82   -110992.42    480689.69 
   53000    1797.2928   -172.87867   -111224.74   -115790.03   -111276.59    480479.08 
Loop time of 49.9011 on 1 procs for 505 steps with 19652 atoms

Performance: 0.874 ns/day, 27.448 hours/ns, 10.120 timesteps/s
99.6% CPU use with 1 MPI tasks x no OpenMP threads

MPI task timing breakdown:
Section |  min time  |  avg time  |  max time  |%varavg| %total
---------------------------------------------------------------
Pair    | 25.296     | 25.296     | 25.296     |   0.0 | 50.69
Neigh   | 23.297     | 23.297     | 23.297     |   0.0 | 46.69
Comm    | 0.40257    | 0.40257    | 0.40257    |   0.0 |  0.81
Output  | 0.16978    | 0.16978    | 0.16978    |   0.0 |  0.34
Modify  | 0.56986    | 0.56986    | 0.56986    |   0.0 |  1.14
Other   |            | 0.1662     |            |       |  0.33

Nlocal:    19652 ave 19652 max 19652 min
Histogram: 1 0 0 0 0 0 0 0 0 0
Nghost:    15727 ave 15727 max 15727 min
Histogram: 1 0 0 0 0 0 0 0 0 0
Neighs:    1.02613e+06 ave 1.02613e+06 max 1.02613e+06 min
Histogram: 1 0 0 0 0 0 0 0 0 0

Total # of neighbors = 1026130
Ave neighs/atom = 52.215
Neighbor list builds = 505
Dangerous builds not checked
Setting up Verlet run ...
  Unit style    : metal
  Current step  : 53000
  Time step     : 0.001
Per MPI rank memory allocation (min/avg/max) = 18.19 | 18.19 | 18.19 Mbytes
Step Temp Press TotEng PotEng Enthalpy Volume 
   53000    1797.2928   -172.87867   -111224.74   -115790.03   -111276.59    480479.08 
   53495    1753.8307   -56.939314   -111418.72   -115873.61   -111435.78    480075.91 
Loop time of 47.6528 on 1 procs for 495 steps with 19652 atoms

Performance: 0.897 ns/day, 26.741 hours/ns, 10.388 timesteps/s
100.0% CPU use with 1 MPI tasks x no OpenMP threads

MPI task timing breakdown:
Section |  min time  |  avg time  |  max time  |%varavg| %total
---------------------------------------------------------------
Pair    | 24.146     | 24.146     | 24.146     |   0.0 | 50.67
Neigh   | 22.417     | 22.417     | 22.417     |   0.0 | 47.04
Comm    | 0.38694    | 0.38694    | 0.38694    |   0.0 |  0.81
Output  | 0.00014687 | 0.00014687 | 0.00014687 |   0.0 |  0.00
Modify  | 0.54207    | 0.54207    | 0.54207    |   0.0 |  1.14
Other   |            | 0.1608     |            |       |  0.34

Nlocal:    19652 ave 19652 max 19652 min
Histogram: 1 0 0 0 0 0 0 0 0 0
Nghost:    15736 ave 15736 max 15736 min
Histogram: 1 0 0 0 0 0 0 0 0 0
Neighs:    1.02748e+06 ave 1.02748e+06 max 1.02748e+06 min
Histogram: 1 0 0 0 0 0 0 0 0 0

Total # of neighbors = 1027475
Ave neighs/atom = 52.2835
Neighbor list builds = 495
Dangerous builds not checked
Setting up Verlet run ...
  Unit style    : metal
  Current step  : 53495
  Time step     : 0.001
Per MPI rank memory allocation (min/avg/max) = 18.19 | 18.19 | 18.19 Mbytes
Step Temp Press TotEng PotEng Enthalpy Volume 
   53495    1753.8307   -56.939314   -111418.72   -115873.61   -111435.78    480075.91 
   54000    1752.2205   -34.230001   -111547.18   -115997.98   -111557.43    479635.49 
Loop time of 46.3985 on 1 procs for 505 steps with 19652 atoms

Performance: 0.940 ns/day, 25.522 hours/ns, 10.884 timesteps/s
99.1% CPU use with 1 MPI tasks x no OpenMP threads

MPI task timing breakdown:
Section |  min time  |  avg time  |  max time  |%varavg| %total
---------------------------------------------------------------
Pair    | 23.143     | 23.143     | 23.143     |   0.0 | 49.88
Neigh   | 21.808     | 21.808     | 21.808     |   0.0 | 47.00
Comm    | 0.36932    | 0.36932    | 0.36932    |   0.0 |  0.80
Output  | 0.4065     | 0.4065     | 0.4065     |   0.0 |  0.88
Modify  | 0.51777    | 0.51777    | 0.51777    |   0.0 |  1.12
Other   |            | 0.1545     |            |       |  0.33

Nlocal:    19652 ave 19652 max 19652 min
Histogram: 1 0 0 0 0 0 0 0 0 0
Nghost:    15788 ave 15788 max 15788 min
Histogram: 1 0 0 0 0 0 0 0 0 0
Neighs:    1.0287e+06 ave 1.0287e+06 max 1.0287e+06 min
Histogram: 1 0 0 0 0 0 0 0 0 0

Total # of neighbors = 1028695
Ave neighs/atom = 52.3456
Neighbor list builds = 505
Dangerous builds not checked
Setting up Verlet run ...
  Unit style    : metal
  Current step  : 54000
  Time step     : 0.001
Per MPI rank memory allocation (min/avg/max) = 18.19 | 18.19 | 18.19 Mbytes
Step Temp Press TotEng PotEng Enthalpy Volume 
   54000    1752.2205   -34.230001   -111547.18   -115997.98   -111557.43    479635.49 
   54495    1712.1588   -424.88474   -111802.56    -116151.6   -111929.67    479295.59 
Loop time of 48.0555 on 1 procs for 495 steps with 19652 atoms

Performance: 0.890 ns/day, 26.967 hours/ns, 10.301 timesteps/s
99.8% CPU use with 1 MPI tasks x no OpenMP threads

MPI task timing breakdown:
Section |  min time  |  avg time  |  max time  |%varavg| %total
---------------------------------------------------------------
Pair    | 24.526     | 24.526     | 24.526     |   0.0 | 51.04
Neigh   | 22.44      | 22.44      | 22.44      |   0.0 | 46.70
Comm    | 0.3885     | 0.3885     | 0.3885     |   0.0 |  0.81
Output  | 0.00014997 | 0.00014997 | 0.00014997 |   0.0 |  0.00
Modify  | 0.54111    | 0.54111    | 0.54111    |   0.0 |  1.13
Other   |            | 0.1597     |            |       |  0.33

Nlocal:    19652 ave 19652 max 19652 min
Histogram: 1 0 0 0 0 0 0 0 0 0
Nghost:    15752 ave 15752 max 15752 min
Histogram: 1 0 0 0 0 0 0 0 0 0
Neighs:    1.02947e+06 ave 1.02947e+06 max 1.02947e+06 min
Histogram: 1 0 0 0 0 0 0 0 0 0

Total # of neighbors = 1029473
Ave neighs/atom = 52.3852
Neighbor list builds = 495
Dangerous builds not checked
Setting up Verlet run ...
  Unit style    : metal
  Current step  : 54495
  Time step     : 0.001
Per MPI rank memory allocation (min/avg/max) = 18.19 | 18.19 | 18.19 Mbytes
Step Temp Press TotEng PotEng Enthalpy Volume 
   54495    1712.1588   -424.88474   -111802.56    -116151.6   -111929.67    479295.59 
   55000    1702.3024   -848.71762   -111903.01   -116227.01   -112156.95    479380.95 
Loop time of 48.1972 on 1 procs for 505 steps with 19652 atoms

Performance: 0.905 ns/day, 26.511 hours/ns, 10.478 timesteps/s
99.4% CPU use with 1 MPI tasks x no OpenMP threads

MPI task timing breakdown:
Section |  min time  |  avg time  |  max time  |%varavg| %total
---------------------------------------------------------------
Pair    | 24.38      | 24.38      | 24.38      |   0.0 | 50.58
Neigh   | 22.498     | 22.498     | 22.498     |   0.0 | 46.68
Comm    | 0.39002    | 0.39002    | 0.39002    |   0.0 |  0.81
Output  | 0.23174    | 0.23174    | 0.23174    |   0.0 |  0.48
Modify  | 0.53843    | 0.53843    | 0.53843    |   0.0 |  1.12
Other   |            | 0.1595     |            |       |  0.33

Nlocal:    19652 ave 19652 max 19652 min
Histogram: 1 0 0 0 0 0 0 0 0 0
Nghost:    15788 ave 15788 max 15788 min
Histogram: 1 0 0 0 0 0 0 0 0 0
Neighs:    1.03003e+06 ave 1.03003e+06 max 1.03003e+06 min
Histogram: 1 0 0 0 0 0 0 0 0 0

Total # of neighbors = 1030028
Ave neighs/atom = 52.4134
Neighbor list builds = 505
Dangerous builds not checked
Setting up Verlet run ...
  Unit style    : metal
  Current step  : 55000
  Time step     : 0.001
Per MPI rank memory allocation (min/avg/max) = 18.19 | 18.19 | 18.19 Mbytes
Step Temp Press TotEng PotEng Enthalpy Volume 
   55000    1702.3024   -848.71762   -111903.01   -116227.01   -112156.95    479380.95 
   55495    1647.5607   -270.71945   -112122.63   -116307.58   -112203.51    478695.09 
Loop time of 48.2069 on 1 procs for 495 steps with 19652 atoms

Performance: 0.887 ns/day, 27.052 hours/ns, 10.268 timesteps/s
99.7% CPU use with 1 MPI tasks x no OpenMP threads

MPI task timing breakdown:
Section |  min time  |  avg time  |  max time  |%varavg| %total
---------------------------------------------------------------
Pair    | 24.552     | 24.552     | 24.552     |   0.0 | 50.93
Neigh   | 22.548     | 22.548     | 22.548     |   0.0 | 46.77
Comm    | 0.3985     | 0.3985     | 0.3985     |   0.0 |  0.83
Output  | 0.00012994 | 0.00012994 | 0.00012994 |   0.0 |  0.00
Modify  | 0.55008    | 0.55008    | 0.55008    |   0.0 |  1.14
Other   |            | 0.1583     |            |       |  0.33

Nlocal:    19652 ave 19652 max 19652 min
Histogram: 1 0 0 0 0 0 0 0 0 0
Nghost:    15776 ave 15776 max 15776 min
Histogram: 1 0 0 0 0 0 0 0 0 0
Neighs:    1.0316e+06 ave 1.0316e+06 max 1.0316e+06 min
Histogram: 1 0 0 0 0 0 0 0 0 0

Total # of neighbors = 1031599
Ave neighs/atom = 52.4933
Neighbor list builds = 495
Dangerous builds not checked
Setting up Verlet run ...
  Unit style    : metal
  Current step  : 55495
  Time step     : 0.001
Per MPI rank memory allocation (min/avg/max) = 18.19 | 18.19 | 18.19 Mbytes
Step Temp Press TotEng PotEng Enthalpy Volume 
   55495    1647.5607   -270.71945   -112122.63   -116307.58   -112203.51    478695.09 
   56000    1670.2249    41.919335   -112175.11   -116417.64    -112162.6    478233.23 
Loop time of 51.3036 on 1 procs for 505 steps with 19652 atoms

Performance: 0.850 ns/day, 28.220 hours/ns, 9.843 timesteps/s
91.4% CPU use with 1 MPI tasks x no OpenMP threads

MPI task timing breakdown:
Section |  min time  |  avg time  |  max time  |%varavg| %total
---------------------------------------------------------------
Pair    | 23.716     | 23.716     | 23.716     |   0.0 | 46.23
Neigh   | 22.147     | 22.147     | 22.147     |   0.0 | 43.17
Comm    | 0.38772    | 0.38772    | 0.38772    |   0.0 |  0.76
Output  | 4.3778     | 4.3778     | 4.3778     |   0.0 |  8.53
Modify  | 0.53566    | 0.53566    | 0.53566    |   0.0 |  1.04
Other   |            | 0.1393     |            |       |  0.27

Nlocal:    19652 ave 19652 max 19652 min
Histogram: 1 0 0 0 0 0 0 0 0 0
Nghost:    15813 ave 15813 max 15813 min
Histogram: 1 0 0 0 0 0 0 0 0 0
Neighs:    1.03274e+06 ave 1.03274e+06 max 1.03274e+06 min
Histogram: 1 0 0 0 0 0 0 0 0 0

Total # of neighbors = 1032743
Ave neighs/atom = 52.5515
Neighbor list builds = 505
Dangerous builds not checked
Setting up Verlet run ...
  Unit style    : metal
  Current step  : 56000
  Time step     : 0.001
Per MPI rank memory allocation (min/avg/max) = 18.19 | 18.19 | 18.19 Mbytes
Step Temp Press TotEng PotEng Enthalpy Volume 
   56000    1670.2249    41.919335   -112175.11   -116417.64    -112162.6    478233.23 
   56495    1632.4402   -136.18165   -112449.88   -116596.43   -112490.49    477724.86 
Loop time of 46.7848 on 1 procs for 495 steps with 19652 atoms

Performance: 0.914 ns/day, 26.254 hours/ns, 10.580 timesteps/s
100.0% CPU use with 1 MPI tasks x no OpenMP threads

MPI task timing breakdown:
Section |  min time  |  avg time  |  max time  |%varavg| %total
---------------------------------------------------------------
Pair    | 23.646     | 23.646     | 23.646     |   0.0 | 50.54
Neigh   | 22.07      | 22.07      | 22.07      |   0.0 | 47.17
Comm    | 0.38111    | 0.38111    | 0.38111    |   0.0 |  0.81
Output  | 0.00017691 | 0.00017691 | 0.00017691 |   0.0 |  0.00
Modify  | 0.53633    | 0.53633    | 0.53633    |   0.0 |  1.15
Other   |            | 0.1515     |            |       |  0.32

Nlocal:    19652 ave 19652 max 19652 min
Histogram: 1 0 0 0 0 0 0 0 0 0
Nghost:    15770 ave 15770 max 15770 min
Histogram: 1 0 0 0 0 0 0 0 0 0
Neighs:    1.03426e+06 ave 1.03426e+06 max 1.03426e+06 min
Histogram: 1 0 0 0 0 0 0 0 0 0

Total # of neighbors = 1034257
Ave neighs/atom = 52.6286
Neighbor list builds = 495
Dangerous builds not checked
Setting up Verlet run ...
  Unit style    : metal
  Current step  : 56495
  Time step     : 0.001
Per MPI rank memory allocation (min/avg/max) = 18.19 | 18.19 | 18.19 Mbytes
Step Temp Press TotEng PotEng Enthalpy Volume 
   56495    1632.4402   -136.18165   -112449.88   -116596.43   -112490.49    477724.86 
   57000    1604.7026    392.12962   -112578.11    -116654.2   -112461.33    477142.19 
Loop time of 52.7612 on 1 procs for 505 steps with 19652 atoms

Performance: 0.827 ns/day, 29.022 hours/ns, 9.571 timesteps/s
98.4% CPU use with 1 MPI tasks x no OpenMP threads

MPI task timing breakdown:
Section |  min time  |  avg time  |  max time  |%varavg| %total
---------------------------------------------------------------
Pair    | 27.016     | 27.016     | 27.016     |   0.0 | 51.20
Neigh   | 24.363     | 24.363     | 24.363     |   0.0 | 46.18
Comm    | 0.42279    | 0.42279    | 0.42279    |   0.0 |  0.80
Output  | 0.16445    | 0.16445    | 0.16445    |   0.0 |  0.31
Modify  | 0.61626    | 0.61626    | 0.61626    |   0.0 |  1.17
Other   |            | 0.1791     |            |       |  0.34

Nlocal:    19652 ave 19652 max 19652 min
Histogram: 1 0 0 0 0 0 0 0 0 0
Nghost:    15866 ave 15866 max 15866 min
Histogram: 1 0 0 0 0 0 0 0 0 0
Neighs:    1.03541e+06 ave 1.03541e+06 max 1.03541e+06 min
Histogram: 1 0 0 0 0 0 0 0 0 0

Total # of neighbors = 1035406
Ave neighs/atom = 52.6871
Neighbor list builds = 505
Dangerous builds not checked
Setting up Verlet run ...
  Unit style    : metal
  Current step  : 57000
  Time step     : 0.001
Per MPI rank memory allocation (min/avg/max) = 18.19 | 18.19 | 18.19 Mbytes
Step Temp Press TotEng PotEng Enthalpy Volume 
   57000    1604.7026    392.12962   -112578.11    -116654.2   -112461.33    477142.19 
   57495    1556.2948    255.05032    -112822.2   -116775.33   -112746.32    476673.76 
Loop time of 46.1108 on 1 procs for 495 steps with 19652 atoms

Performance: 0.928 ns/day, 25.876 hours/ns, 10.735 timesteps/s
99.1% CPU use with 1 MPI tasks x no OpenMP threads

MPI task timing breakdown:
Section |  min time  |  avg time  |  max time  |%varavg| %total
---------------------------------------------------------------
Pair    | 23.203     | 23.203     | 23.203     |   0.0 | 50.32
Neigh   | 21.552     | 21.552     | 21.552     |   0.0 | 46.74
Comm    | 0.365      | 0.365      | 0.365      |   0.0 |  0.79
Output  | 0.32617    | 0.32617    | 0.32617    |   0.0 |  0.71
Modify  | 0.51141    | 0.51141    | 0.51141    |   0.0 |  1.11
Other   |            | 0.1536     |            |       |  0.33

Nlocal:    19652 ave 19652 max 19652 min
Histogram: 1 0 0 0 0 0 0 0 0 0
Nghost:    15759 ave 15759 max 15759 min
Histogram: 1 0 0 0 0 0 0 0 0 0
Neighs:    1.03727e+06 ave 1.03727e+06 max 1.03727e+06 min
Histogram: 1 0 0 0 0 0 0 0 0 0

Total # of neighbors = 1037274
Ave neighs/atom = 52.7821
Neighbor list builds = 495
Dangerous builds not checked
Setting up Verlet run ...
  Unit style    : metal
  Current step  : 57495
  Time step     : 0.001
Per MPI rank memory allocation (min/avg/max) = 18.19 | 18.19 | 18.19 Mbytes
Step Temp Press TotEng PotEng Enthalpy Volume 
   57495    1556.2948    255.05032    -112822.2   -116775.33   -112746.32    476673.76 
   58000    1553.4395   -413.01458   -112938.03    -116883.9   -113060.93    476771.05 
Loop time of 50.9607 on 1 procs for 505 steps with 19652 atoms

Performance: 0.856 ns/day, 28.031 hours/ns, 9.910 timesteps/s
99.6% CPU use with 1 MPI tasks x no OpenMP threads

MPI task timing breakdown:
Section |  min time  |  avg time  |  max time  |%varavg| %total
---------------------------------------------------------------
Pair    | 26.081     | 26.081     | 26.081     |   0.0 | 51.18
Neigh   | 23.558     | 23.558     | 23.558     |   0.0 | 46.23
Comm    | 0.4188     | 0.4188     | 0.4188     |   0.0 |  0.82
Output  | 0.13059    | 0.13059    | 0.13059    |   0.0 |  0.26
Modify  | 0.59942    | 0.59942    | 0.59942    |   0.0 |  1.18
Other   |            | 0.1728     |            |       |  0.34

Nlocal:    19652 ave 19652 max 19652 min
Histogram: 1 0 0 0 0 0 0 0 0 0
Nghost:    15793 ave 15793 max 15793 min
Histogram: 1 0 0 0 0 0 0 0 0 0
Neighs:    1.03758e+06 ave 1.03758e+06 max 1.03758e+06 min
Histogram: 1 0 0 0 0 0 0 0 0 0

Total # of neighbors = 1037576
Ave neighs/atom = 52.7975
Neighbor list builds = 505
Dangerous builds not checked
Setting up Verlet run ...
  Unit style    : metal
  Current step  : 58000
  Time step     : 0.001
Per MPI rank memory allocation (min/avg/max) = 18.19 | 18.19 | 18.19 Mbytes
Step Temp Press TotEng PotEng Enthalpy Volume 
   58000    1553.4395   -413.01458   -112938.03    -116883.9   -113060.93    476771.05 
   58495    1517.0969    69.014132   -113154.66   -117008.22   -113134.15    475936.36 
Loop time of 51.1963 on 1 procs for 495 steps with 19652 atoms

Performance: 0.835 ns/day, 28.730 hours/ns, 9.669 timesteps/s
99.1% CPU use with 1 MPI tasks x no OpenMP threads

MPI task timing breakdown:
Section |  min time  |  avg time  |  max time  |%varavg| %total
---------------------------------------------------------------
Pair    | 26.312     | 26.312     | 26.312     |   0.0 | 51.40
Neigh   | 23.686     | 23.686     | 23.686     |   0.0 | 46.27
Comm    | 0.42145    | 0.42145    | 0.42145    |   0.0 |  0.82
Output  | 0.00011587 | 0.00011587 | 0.00011587 |   0.0 |  0.00
Modify  | 0.60219    | 0.60219    | 0.60219    |   0.0 |  1.18
Other   |            | 0.1738     |            |       |  0.34

Nlocal:    19652 ave 19652 max 19652 min
Histogram: 1 0 0 0 0 0 0 0 0 0
Nghost:    15814 ave 15814 max 15814 min
Histogram: 1 0 0 0 0 0 0 0 0 0
Neighs:    1.03948e+06 ave 1.03948e+06 max 1.03948e+06 min
Histogram: 1 0 0 0 0 0 0 0 0 0

Total # of neighbors = 1039481
Ave neighs/atom = 52.8944
Neighbor list builds = 495
Dangerous builds not checked
Setting up Verlet run ...
  Unit style    : metal
  Current step  : 58495
  Time step     : 0.001
Per MPI rank memory allocation (min/avg/max) = 18.19 | 18.19 | 18.19 Mbytes
Step Temp Press TotEng PotEng Enthalpy Volume 
   58495    1517.0969    69.014132   -113154.66   -117008.22   -113134.15    475936.36 
   59000    1505.9192    206.00876   -113311.31   -117136.49   -113250.18    475420.46 
Loop time of 45.7436 on 1 procs for 505 steps with 19652 atoms

Performance: 0.954 ns/day, 25.162 hours/ns, 11.040 timesteps/s
99.7% CPU use with 1 MPI tasks x no OpenMP threads

MPI task timing breakdown:
Section |  min time  |  avg time  |  max time  |%varavg| %total
---------------------------------------------------------------
Pair    | 23.067     | 23.067     | 23.067     |   0.0 | 50.43
Neigh   | 21.48      | 21.48      | 21.48      |   0.0 | 46.96
Comm    | 0.36073    | 0.36073    | 0.36073    |   0.0 |  0.79
Output  | 0.17461    | 0.17461    | 0.17461    |   0.0 |  0.38
Modify  | 0.50705    | 0.50705    | 0.50705    |   0.0 |  1.11
Other   |            | 0.154      |            |       |  0.34

Nlocal:    19652 ave 19652 max 19652 min
Histogram: 1 0 0 0 0 0 0 0 0 0
Nghost:    15812 ave 15812 max 15812 min
Histogram: 1 0 0 0 0 0 0 0 0 0
Neighs:    1.04089e+06 ave 1.04089e+06 max 1.04089e+06 min
Histogram: 1 0 0 0 0 0 0 0 0 0

Total # of neighbors = 1040890
Ave neighs/atom = 52.9661
Neighbor list builds = 505
Dangerous builds not checked
Setting up Verlet run ...
  Unit style    : metal
  Current step  : 59000
  Time step     : 0.001
Per MPI rank memory allocation (min/avg/max) = 18.19 | 18.19 | 18.19 Mbytes
Step Temp Press TotEng PotEng Enthalpy Volume 
   59000    1505.9192    206.00876   -113311.31   -117136.49   -113250.18    475420.46 
   59495    1462.7068    702.55622   -113478.07   -117193.47   -113269.82    474902.34 
Loop time of 47.0416 on 1 procs for 495 steps with 19652 atoms

Performance: 0.909 ns/day, 26.398 hours/ns, 10.523 timesteps/s
99.8% CPU use with 1 MPI tasks x no OpenMP threads

MPI task timing breakdown:
Section |  min time  |  avg time  |  max time  |%varavg| %total
---------------------------------------------------------------
Pair    | 23.874     | 23.874     | 23.874     |   0.0 | 50.75
Neigh   | 22.099     | 22.099     | 22.099     |   0.0 | 46.98
Comm    | 0.37225    | 0.37225    | 0.37225    |   0.0 |  0.79
Output  | 0.00017715 | 0.00017715 | 0.00017715 |   0.0 |  0.00
Modify  | 0.53892    | 0.53892    | 0.53892    |   0.0 |  1.15
Other   |            | 0.1568     |            |       |  0.33

Nlocal:    19652 ave 19652 max 19652 min
Histogram: 1 0 0 0 0 0 0 0 0 0
Nghost:    15918 ave 15918 max 15918 min
Histogram: 1 0 0 0 0 0 0 0 0 0
Neighs:    1.0424e+06 ave 1.0424e+06 max 1.0424e+06 min
Histogram: 1 0 0 0 0 0 0 0 0 0

Total # of neighbors = 1042398
Ave neighs/atom = 53.0428
Neighbor list builds = 495
Dangerous builds not checked
Setting up Verlet run ...
  Unit style    : metal
  Current step  : 59495
  Time step     : 0.001
Per MPI rank memory allocation (min/avg/max) = 18.19 | 18.19 | 18.19 Mbytes
Step Temp Press TotEng PotEng Enthalpy Volume 
   59495    1462.7068    702.55622   -113478.07   -117193.47   -113269.82    474902.34 
   60000    1446.2427   -264.81039   -113655.83   -117329.41   -113734.33    474968.78 
Loop time of 48.9024 on 1 procs for 505 steps with 19652 atoms

Performance: 0.892 ns/day, 26.899 hours/ns, 10.327 timesteps/s
99.6% CPU use with 1 MPI tasks x no OpenMP threads

MPI task timing breakdown:
Section |  min time  |  avg time  |  max time  |%varavg| %total
---------------------------------------------------------------
Pair    | 24.882     | 24.882     | 24.882     |   0.0 | 50.88
Neigh   | 22.676     | 22.676     | 22.676     |   0.0 | 46.37
Comm    | 0.39219    | 0.39219    | 0.39219    |   0.0 |  0.80
Output  | 0.2375     | 0.2375     | 0.2375     |   0.0 |  0.49
Modify  | 0.55227    | 0.55227    | 0.55227    |   0.0 |  1.13
Other   |            | 0.1624     |            |       |  0.33

Nlocal:    19652 ave 19652 max 19652 min
Histogram: 1 0 0 0 0 0 0 0 0 0
Nghost:    15853 ave 15853 max 15853 min
Histogram: 1 0 0 0 0 0 0 0 0 0
Neighs:    1.04256e+06 ave 1.04256e+06 max 1.04256e+06 min
Histogram: 1 0 0 0 0 0 0 0 0 0

Total # of neighbors = 1042561
Ave neighs/atom = 53.0511
Neighbor list builds = 505
Dangerous builds not checked
Setting up Verlet run ...
  Unit style    : metal
  Current step  : 60000
  Time step     : 0.001
Per MPI rank memory allocation (min/avg/max) = 18.19 | 18.19 | 18.19 Mbytes
Step Temp Press TotEng PotEng Enthalpy Volume 
   60000    1446.2427   -264.81039   -113655.83   -117329.41   -113734.33    474968.78 
   60495    1424.6974    329.88881   -113833.14      -117452   -113735.51    474150.64 
Loop time of 47.7738 on 1 procs for 495 steps with 19652 atoms

Performance: 0.895 ns/day, 26.809 hours/ns, 10.361 timesteps/s
99.8% CPU use with 1 MPI tasks x no OpenMP threads

MPI task timing breakdown:
Section |  min time  |  avg time  |  max time  |%varavg| %total
---------------------------------------------------------------
Pair    | 24.426     | 24.426     | 24.426     |   0.0 | 51.13
Neigh   | 22.263     | 22.263     | 22.263     |   0.0 | 46.60
Comm    | 0.38226    | 0.38226    | 0.38226    |   0.0 |  0.80
Output  | 0.00012898 | 0.00012898 | 0.00012898 |   0.0 |  0.00
Modify  | 0.5423     | 0.5423     | 0.5423     |   0.0 |  1.14
Other   |            | 0.1594     |            |       |  0.33

Nlocal:    19652 ave 19652 max 19652 min
Histogram: 1 0 0 0 0 0 0 0 0 0
Nghost:    15847 ave 15847 max 15847 min
Histogram: 1 0 0 0 0 0 0 0 0 0
Neighs:    1.0453e+06 ave 1.0453e+06 max 1.0453e+06 min
Histogram: 1 0 0 0 0 0 0 0 0 0

Total # of neighbors = 1045299
Ave neighs/atom = 53.1905
Neighbor list builds = 495
Dangerous builds not checked
Setting up Verlet run ...
  Unit style    : metal
  Current step  : 60495
  Time step     : 0.001
Per MPI rank memory allocation (min/avg/max) = 18.19 | 18.19 | 18.19 Mbytes
Step Temp Press TotEng PotEng Enthalpy Volume 
   60495    1424.6974    329.88881   -113833.14      -117452   -113735.51    474150.64 
   61000    1404.6377   -225.59014   -113990.44   -117558.35   -114057.22    474292.79 
Loop time of 46.74 on 1 procs for 505 steps with 19652 atoms

Performance: 0.934 ns/day, 25.710 hours/ns, 10.804 timesteps/s
99.4% CPU use with 1 MPI tasks x no OpenMP threads

MPI task timing breakdown:
Section |  min time  |  avg time  |  max time  |%varavg| %total
---------------------------------------------------------------
Pair    | 23.572     | 23.572     | 23.572     |   0.0 | 50.43
Neigh   | 21.891     | 21.891     | 21.891     |   0.0 | 46.84
Comm    | 0.36622    | 0.36622    | 0.36622    |   0.0 |  0.78
Output  | 0.23725    | 0.23725    | 0.23725    |   0.0 |  0.51
Modify  | 0.51841    | 0.51841    | 0.51841    |   0.0 |  1.11
Other   |            | 0.1551     |            |       |  0.33

Nlocal:    19652 ave 19652 max 19652 min
Histogram: 1 0 0 0 0 0 0 0 0 0
Nghost:    15851 ave 15851 max 15851 min
Histogram: 1 0 0 0 0 0 0 0 0 0
Neighs:    1.04522e+06 ave 1.04522e+06 max 1.04522e+06 min
Histogram: 1 0 0 0 0 0 0 0 0 0

Total # of neighbors = 1045216
Ave neighs/atom = 53.1862
Neighbor list builds = 505
Dangerous builds not checked
Setting up Verlet run ...
  Unit style    : metal
  Current step  : 61000
  Time step     : 0.001
Per MPI rank memory allocation (min/avg/max) = 18.19 | 18.19 | 18.19 Mbytes
Step Temp Press TotEng PotEng Enthalpy Volume 
   61000    1404.6377   -225.59014   -113990.44   -117558.35   -114057.22    474292.79 
   61495    1354.9987    320.80424   -114205.09   -117646.91   -114110.29    473476.44 
Loop time of 53.0661 on 1 procs for 495 steps with 19652 atoms

Performance: 0.806 ns/day, 29.779 hours/ns, 9.328 timesteps/s
99.8% CPU use with 1 MPI tasks x no OpenMP threads

MPI task timing breakdown:
Section |  min time  |  avg time  |  max time  |%varavg| %total
---------------------------------------------------------------
Pair    | 27.615     | 27.615     | 27.615     |   0.0 | 52.04
Neigh   | 24.242     | 24.242     | 24.242     |   0.0 | 45.68
Comm    | 0.42733    | 0.42733    | 0.42733    |   0.0 |  0.81
Output  | 0.00016594 | 0.00016594 | 0.00016594 |   0.0 |  0.00
Modify  | 0.60605    | 0.60605    | 0.60605    |   0.0 |  1.14
Other   |            | 0.1755     |            |       |  0.33

Nlocal:    19652 ave 19652 max 19652 min
Histogram: 1 0 0 0 0 0 0 0 0 0
Nghost:    15911 ave 15911 max 15911 min
Histogram: 1 0 0 0 0 0 0 0 0 0
Neighs:    1.04723e+06 ave 1.04723e+06 max 1.04723e+06 min
Histogram: 1 0 0 0 0 0 0 0 0 0

Total # of neighbors = 1047234
Ave neighs/atom = 53.2889
Neighbor list builds = 495
Dangerous builds not checked
Setting up Verlet run ...
  Unit style    : metal
  Current step  : 61495
  Time step     : 0.001
Per MPI rank memory allocation (min/avg/max) = 18.19 | 18.19 | 18.19 Mbytes
Step Temp Press TotEng PotEng Enthalpy Volume 
   61495    1354.9987    320.80424   -114205.09   -117646.91   -114110.29    473476.44 
   62000    1342.8549   -242.82298    -114365.6   -117776.57   -114437.37    473565.23 
Loop time of 52.6419 on 1 procs for 505 steps with 19652 atoms

Performance: 0.829 ns/day, 28.956 hours/ns, 9.593 timesteps/s
99.8% CPU use with 1 MPI tasks x no OpenMP threads

MPI task timing breakdown:
Section |  min time  |  avg time  |  max time  |%varavg| %total
---------------------------------------------------------------
Pair    | 27.148     | 27.148     | 27.148     |   0.0 | 51.57
Neigh   | 24.165     | 24.165     | 24.165     |   0.0 | 45.90
Comm    | 0.42336    | 0.42336    | 0.42336    |   0.0 |  0.80
Output  | 0.12796    | 0.12796    | 0.12796    |   0.0 |  0.24
Modify  | 0.60272    | 0.60272    | 0.60272    |   0.0 |  1.14
Other   |            | 0.1748     |            |       |  0.33

Nlocal:    19652 ave 19652 max 19652 min
Histogram: 1 0 0 0 0 0 0 0 0 0
Nghost:    15891 ave 15891 max 15891 min
Histogram: 1 0 0 0 0 0 0 0 0 0
Neighs:    1.04771e+06 ave 1.04771e+06 max 1.04771e+06 min
Histogram: 1 0 0 0 0 0 0 0 0 0

Total # of neighbors = 1047712
Ave neighs/atom = 53.3133
Neighbor list builds = 505
Dangerous builds not checked
Setting up Verlet run ...
  Unit style    : metal
  Current step  : 62000
  Time step     : 0.001
Per MPI rank memory allocation (min/avg/max) = 18.19 | 18.19 | 18.19 Mbytes
Step Temp Press TotEng PotEng Enthalpy Volume 
   62000    1342.8549   -242.82298    -114365.6   -117776.57   -114437.37    473565.23 
   62495    1312.4577    203.32029   -114543.84    -117877.6   -114483.84    472812.52 
Loop time of 48.4045 on 1 procs for 495 steps with 19652 atoms

Performance: 0.884 ns/day, 27.163 hours/ns, 10.226 timesteps/s
92.3% CPU use with 1 MPI tasks x no OpenMP threads

MPI task timing breakdown:
Section |  min time  |  avg time  |  max time  |%varavg| %total
---------------------------------------------------------------
Pair    | 22.611     | 22.611     | 22.611     |   0.0 | 46.71
Neigh   | 21.059     | 21.059     | 21.059     |   0.0 | 43.51
Comm    | 0.35359    | 0.35359    | 0.35359    |   0.0 |  0.73
Output  | 3.7353     | 3.7353     | 3.7353     |   0.0 |  7.72
Modify  | 0.49786    | 0.49786    | 0.49786    |   0.0 |  1.03
Other   |            | 0.1484     |            |       |  0.31

Nlocal:    19652 ave 19652 max 19652 min
Histogram: 1 0 0 0 0 0 0 0 0 0
Nghost:    15864 ave 15864 max 15864 min
Histogram: 1 0 0 0 0 0 0 0 0 0
Neighs:    1.04945e+06 ave 1.04945e+06 max 1.04945e+06 min
Histogram: 1 0 0 0 0 0 0 0 0 0

Total # of neighbors = 1049447
Ave neighs/atom = 53.4015
Neighbor list builds = 495
Dangerous builds not checked
Setting up Verlet run ...
  Unit style    : metal
  Current step  : 62495
  Time step     : 0.001
Per MPI rank memory allocation (min/avg/max) = 18.19 | 18.19 | 18.19 Mbytes
Step Temp Press TotEng PotEng Enthalpy Volume 
   62495    1312.4577    203.32029   -114543.84    -117877.6   -114483.84    472812.52 
   63000    1309.9845    110.76385   -114691.34   -118018.82   -114658.68    472404.84 
Loop time of 48.4272 on 1 procs for 505 steps with 19652 atoms

Performance: 0.901 ns/day, 26.638 hours/ns, 10.428 timesteps/s
100.0% CPU use with 1 MPI tasks x no OpenMP threads

MPI task timing breakdown:
Section |  min time  |  avg time  |  max time  |%varavg| %total
---------------------------------------------------------------
Pair    | 24.8       | 24.8       | 24.8       |   0.0 | 51.21
Neigh   | 22.478     | 22.478     | 22.478     |   0.0 | 46.42
Comm    | 0.38737    | 0.38737    | 0.38737    |   0.0 |  0.80
Output  | 0.060187   | 0.060187   | 0.060187   |   0.0 |  0.12
Modify  | 0.54029    | 0.54029    | 0.54029    |   0.0 |  1.12
Other   |            | 0.1618     |            |       |  0.33

Nlocal:    19652 ave 19652 max 19652 min
Histogram: 1 0 0 0 0 0 0 0 0 0
Nghost:    15876 ave 15876 max 15876 min
Histogram: 1 0 0 0 0 0 0 0 0 0
Neighs:    1.05112e+06 ave 1.05112e+06 max 1.05112e+06 min
Histogram: 1 0 0 0 0 0 0 0 0 0

Total # of neighbors = 1051123
Ave neighs/atom = 53.4868
Neighbor list builds = 505
Dangerous builds not checked
Setting up Verlet run ...
  Unit style    : metal
  Current step  : 63000
  Time step     : 0.001
Per MPI rank memory allocation (min/avg/max) = 18.19 | 18.19 | 18.19 Mbytes
Step Temp Press TotEng PotEng Enthalpy Volume 
   63000    1309.9845    110.76385   -114691.34   -118018.82   -114658.68    472404.84 
   63495    1262.5006   -337.72197   -114883.33    -118090.2   -114982.91    472398.34 
Loop time of 45.1721 on 1 procs for 495 steps with 19652 atoms

Performance: 0.947 ns/day, 25.349 hours/ns, 10.958 timesteps/s
100.0% CPU use with 1 MPI tasks x no OpenMP threads

MPI task timing breakdown:
Section |  min time  |  avg time  |  max time  |%varavg| %total
---------------------------------------------------------------
Pair    | 22.963     | 22.963     | 22.963     |   0.0 | 50.83
Neigh   | 21.197     | 21.197     | 21.197     |   0.0 | 46.92
Comm    | 0.35782    | 0.35782    | 0.35782    |   0.0 |  0.79
Output  | 0.0001421  | 0.0001421  | 0.0001421  |   0.0 |  0.00
Modify  | 0.50367    | 0.50367    | 0.50367    |   0.0 |  1.11
Other   |            | 0.1511     |            |       |  0.33

Nlocal:    19652 ave 19652 max 19652 min
Histogram: 1 0 0 0 0 0 0 0 0 0
Nghost:    15845 ave 15845 max 15845 min
Histogram: 1 0 0 0 0 0 0 0 0 0
Neighs:    1.05111e+06 ave 1.05111e+06 max 1.05111e+06 min
Histogram: 1 0 0 0 0 0 0 0 0 0

Total # of neighbors = 1051111
Ave neighs/atom = 53.4862
Neighbor list builds = 495
Dangerous builds not checked
Setting up Verlet run ...
  Unit style    : metal
  Current step  : 63495
  Time step     : 0.001
Per MPI rank memory allocation (min/avg/max) = 18.19 | 18.19 | 18.19 Mbytes
Step Temp Press TotEng PotEng Enthalpy Volume 
   63495    1262.5006   -337.72197   -114883.33    -118090.2   -114982.91    472398.34 
   64000    1254.5156    519.94734    -115039.3   -118225.88   -114886.25    471604.11 
Loop time of 49.4948 on 1 procs for 505 steps with 19652 atoms

Performance: 0.882 ns/day, 27.225 hours/ns, 10.203 timesteps/s
99.7% CPU use with 1 MPI tasks x no OpenMP threads

MPI task timing breakdown:
Section |  min time  |  avg time  |  max time  |%varavg| %total
---------------------------------------------------------------
Pair    | 25.392     | 25.392     | 25.392     |   0.0 | 51.30
Neigh   | 22.797     | 22.797     | 22.797     |   0.0 | 46.06
Comm    | 0.39744    | 0.39744    | 0.39744    |   0.0 |  0.80
Output  | 0.19291    | 0.19291    | 0.19291    |   0.0 |  0.39
Modify  | 0.55166    | 0.55166    | 0.55166    |   0.0 |  1.11
Other   |            | 0.1638     |            |       |  0.33

Nlocal:    19652 ave 19652 max 19652 min
Histogram: 1 0 0 0 0 0 0 0 0 0
Nghost:    15871 ave 15871 max 15871 min
Histogram: 1 0 0 0 0 0 0 0 0 0
Neighs:    1.05369e+06 ave 1.05369e+06 max 1.05369e+06 min
Histogram: 1 0 0 0 0 0 0 0 0 0

Total # of neighbors = 1053691
Ave neighs/atom = 53.6175
Neighbor list builds = 505
Dangerous builds not checked
Setting up Verlet run ...
  Unit style    : metal
  Current step  : 64000
  Time step     : 0.001
Per MPI rank memory allocation (min/avg/max) = 18.19 | 18.19 | 18.19 Mbytes
Step Temp Press TotEng PotEng Enthalpy Volume 
   64000    1254.5156    519.94734    -115039.3   -118225.88   -114886.25    471604.11 
   64495    1214.7434   -426.07431   -115228.81   -118314.37   -115354.26    471716.99 
[...]

Performance: 0.952 ns/day, 25.220 hours/ns, 11.014 timesteps/s
99.6% CPU use with 1 MPI tasks x no OpenMP threads

MPI task timing breakdown:
Section |  min time  |  avg time  |  max time  |%varavg| %total
---------------------------------------------------------------
Pair    | 23.051     | 23.051     | 23.051     |   0.0 | 51.29
Neigh   | 20.898     | 20.898     | 20.898     |   0.0 | 46.50
Comm    | 0.36181    | 0.36181    | 0.36181    |   0.0 |  0.81
Output  | 0.00015783 | 0.00015783 | 0.00015783 |   0.0 |  0.00
Modify  | 0.49838    | 0.49838    | 0.49838    |   0.0 |  1.11
Other   |            | 0.1326     |            |       |  0.30

Nlocal:    19652 ave 19652 max 19652 min
Histogram: 1 0 0 0 0 0 0 0 0 0
Nghost:    16032 ave 16032 max 16032 min
Histogram: 1 0 0 0 0 0 0 0 0 0
Neighs:    1.08927e+06 ave 1.08927e+06 max 1.08927e+06 min
Histogram: 1 0 0 0 0 0 0 0 0 0

Total # of neighbors = 1089271
Ave neighs/atom = 55.428
Neighbor list builds = 495
Dangerous builds not checked
Setting up Verlet run ...
  Unit style    : metal
  Current step  : 80495
  Time step     : 0.001
Per MPI rank memory allocation (min/avg/max) = 18.19 | 18.19 | 18.19 Mbytes
Step Temp Press TotEng PotEng Enthalpy Volume 
   80495    420.42187    140.79502   -120174.56   -121242.47   -120133.98     461776.8 
   81000    396.60372   -42.995864   -120302.24   -121309.65   -120314.63    461716.76 
Loop time of 44.9413 on 1 procs for 505 steps with 19652 atoms

Performance: 0.971 ns/day, 24.720 hours/ns, 11.237 timesteps/s
99.9% CPU use with 1 MPI tasks x no OpenMP threads

MPI task timing breakdown:
Section |  min time  |  avg time  |  max time  |%varavg| %total
---------------------------------------------------------------
Pair    | 22.89      | 22.89      | 22.89      |   0.0 | 50.93
Neigh   | 20.99      | 20.99      | 20.99      |   0.0 | 46.71
Comm    | 0.35714    | 0.35714    | 0.35714    |   0.0 |  0.79
Output  | 0.078068   | 0.078068   | 0.078068   |   0.0 |  0.17
Modify  | 0.49471    | 0.49471    | 0.49471    |   0.0 |  1.10
Other   |            | 0.1309     |            |       |  0.29

Nlocal:    19652 ave 19652 max 19652 min
Histogram: 1 0 0 0 0 0 0 0 0 0
Nghost:    16079 ave 16079 max 16079 min
Histogram: 1 0 0 0 0 0 0 0 0 0
Neighs:    1.08955e+06 ave 1.08955e+06 max 1.08955e+06 min
Histogram: 1 0 0 0 0 0 0 0 0 0

Total # of neighbors = 1089553
Ave neighs/atom = 55.4423
Neighbor list builds = 505
Dangerous builds not checked
Setting up Verlet run ...
  Unit style    : metal
  Current step  : 81000
  Time step     : 0.001
Per MPI rank memory allocation (min/avg/max) = 18.19 | 18.19 | 18.19 Mbytes
Step Temp Press TotEng PotEng Enthalpy Volume 
   81000    396.60372   -42.995864   -120302.24   -121309.65   -120314.63    461716.76 
   81495    370.00158   -161.02328   -120445.36    -121385.2   -120491.74    461429.74 
Loop time of 48.8175 on 1 procs for 495 steps with 19652 atoms

Performance: 0.876 ns/day, 27.395 hours/ns, 10.140 timesteps/s
99.8% CPU use with 1 MPI tasks x no OpenMP threads

MPI task timing breakdown:
Section |  min time  |  avg time  |  max time  |%varavg| %total
---------------------------------------------------------------
Pair    | 25.225     | 25.225     | 25.225     |   0.0 | 51.67
Neigh   | 22.487     | 22.487     | 22.487     |   0.0 | 46.06
Comm    | 0.39849    | 0.39849    | 0.39849    |   0.0 |  0.82
Output  | 0.00019908 | 0.00019908 | 0.00019908 |   0.0 |  0.00
Modify  | 0.55991    | 0.55991    | 0.55991    |   0.0 |  1.15
Other   |            | 0.1468     |            |       |  0.30

Nlocal:    19652 ave 19652 max 19652 min
Histogram: 1 0 0 0 0 0 0 0 0 0
Nghost:    16040 ave 16040 max 16040 min
Histogram: 1 0 0 0 0 0 0 0 0 0
Neighs:    1.09082e+06 ave 1.09082e+06 max 1.09082e+06 min
Histogram: 1 0 0 0 0 0 0 0 0 0

Total # of neighbors = 1090818
Ave neighs/atom = 55.5067
Neighbor list builds = 495
Dangerous builds not checked
Setting up Verlet run ...
  Unit style    : metal
  Current step  : 81495
  Time step     : 0.001
Per MPI rank memory allocation (min/avg/max) = 18.19 | 18.19 | 18.19 Mbytes
Step Temp Press TotEng PotEng Enthalpy Volume 
   81495    370.00158   -161.02328   -120445.36    -121385.2   -120491.74    461429.74 
   82000    347.35002   -352.33991   -120569.31   -121451.61   -120670.77    461335.23 
Loop time of 44.8869 on 1 procs for 505 steps with 19652 atoms

Performance: 0.972 ns/day, 24.690 hours/ns, 11.251 timesteps/s
100.0% CPU use with 1 MPI tasks x no OpenMP threads

MPI task timing breakdown:
Section |  min time  |  avg time  |  max time  |%varavg| %total
---------------------------------------------------------------
Pair    | 22.893     | 22.893     | 22.893     |   0.0 | 51.00
Neigh   | 20.95      | 20.95      | 20.95      |   0.0 | 46.67
Comm    | 0.35416    | 0.35416    | 0.35416    |   0.0 |  0.79
Output  | 0.060082   | 0.060082   | 0.060082   |   0.0 |  0.13
Modify  | 0.49841    | 0.49841    | 0.49841    |   0.0 |  1.11
Other   |            | 0.1308     |            |       |  0.29

Nlocal:    19652 ave 19652 max 19652 min
Histogram: 1 0 0 0 0 0 0 0 0 0
Nghost:    16066 ave 16066 max 16066 min
Histogram: 1 0 0 0 0 0 0 0 0 0
Neighs:    1.09169e+06 ave 1.09169e+06 max 1.09169e+06 min
Histogram: 1 0 0 0 0 0 0 0 0 0

Total # of neighbors = 1091688
Ave neighs/atom = 55.551
Neighbor list builds = 505
Dangerous builds not checked
Setting up Verlet run ...
  Unit style    : metal
  Current step  : 82000
  Time step     : 0.001
Per MPI rank memory allocation (min/avg/max) = 18.19 | 18.19 | 18.19 Mbytes
Step Temp Press TotEng PotEng Enthalpy Volume 
   82000    347.35002   -352.33991   -120569.31   -121451.61   -120670.77    461335.23 
   82495    320.93634   -216.05025   -120708.61   -121523.82   -120770.78    461022.17 
Loop time of 46.8055 on 1 procs for 495 steps with 19652 atoms

Performance: 0.914 ns/day, 26.266 hours/ns, 10.576 timesteps/s
100.0% CPU use with 1 MPI tasks x no OpenMP threads

MPI task timing breakdown:
Section |  min time  |  avg time  |  max time  |%varavg| %total
---------------------------------------------------------------
Pair    | 24.191     | 24.191     | 24.191     |   0.0 | 51.68
Neigh   | 21.582     | 21.582     | 21.582     |   0.0 | 46.11
Comm    | 0.37286    | 0.37286    | 0.37286    |   0.0 |  0.80
Output  | 0.000175   | 0.000175   | 0.000175   |   0.0 |  0.00
Modify  | 0.5195     | 0.5195     | 0.5195     |   0.0 |  1.11
Other   |            | 0.1395     |            |       |  0.30

Nlocal:    19652 ave 19652 max 19652 min
Histogram: 1 0 0 0 0 0 0 0 0 0
Nghost:    16050 ave 16050 max 16050 min
Histogram: 1 0 0 0 0 0 0 0 0 0
Neighs:    1.0926e+06 ave 1.0926e+06 max 1.0926e+06 min
Histogram: 1 0 0 0 0 0 0 0 0 0

Total # of neighbors = 1092597
Ave neighs/atom = 55.5972
Neighbor list builds = 495
Dangerous builds not checked
Setting up Verlet run ...
  Unit style    : metal
  Current step  : 82495
  Time step     : 0.001
Per MPI rank memory allocation (min/avg/max) = 18.19 | 18.19 | 18.19 Mbytes
Step Temp Press TotEng PotEng Enthalpy Volume 
   82495    320.93634   -216.05025   -120708.61   -121523.82   -120770.78    461022.17 
   83000    298.74108   -271.50884   -120838.82   -121597.65   -120916.92    460831.07 
Loop time of 51.3093 on 1 procs for 505 steps with 19652 atoms

Performance: 0.850 ns/day, 28.223 hours/ns, 9.842 timesteps/s
99.8% CPU use with 1 MPI tasks x no OpenMP threads

MPI task timing breakdown:
Section |  min time  |  avg time  |  max time  |%varavg| %total
---------------------------------------------------------------
Pair    | 26.719     | 26.719     | 26.719     |   0.0 | 52.07
Neigh   | 23.262     | 23.262     | 23.262     |   0.0 | 45.34
Comm    | 0.40481    | 0.40481    | 0.40481    |   0.0 |  0.79
Output  | 0.18193    | 0.18193    | 0.18193    |   0.0 |  0.35
Modify  | 0.5736     | 0.5736     | 0.5736     |   0.0 |  1.12
Other   |            | 0.1678     |            |       |  0.33

Nlocal:    19652 ave 19652 max 19652 min
Histogram: 1 0 0 0 0 0 0 0 0 0
Nghost:    16041 ave 16041 max 16041 min
Histogram: 1 0 0 0 0 0 0 0 0 0
Neighs:    1.09342e+06 ave 1.09342e+06 max 1.09342e+06 min
Histogram: 1 0 0 0 0 0 0 0 0 0

Total # of neighbors = 1093425
Ave neighs/atom = 55.6394
Neighbor list builds = 505
Dangerous builds not checked
Setting up Verlet run ...
  Unit style    : metal
  Current step  : 83000
  Time step     : 0.001
Per MPI rank memory allocation (min/avg/max) = 18.19 | 18.19 | 18.19 Mbytes
Step Temp Press TotEng PotEng Enthalpy Volume 
   83000    298.74108   -271.50884   -120838.82   -121597.65   -120916.92    460831.07 
   83495    273.32857   -148.76419   -120970.39   -121664.67   -121013.15    460526.28 
Loop time of 44.5565 on 1 procs for 495 steps with 19652 atoms

Performance: 0.960 ns/day, 25.004 hours/ns, 11.109 timesteps/s
100.0% CPU use with 1 MPI tasks x no OpenMP threads

MPI task timing breakdown:
Section |  min time  |  avg time  |  max time  |%varavg| %total
---------------------------------------------------------------
Pair    | 22.821     | 22.821     | 22.821     |   0.0 | 51.22
Neigh   | 20.764     | 20.764     | 20.764     |   0.0 | 46.60
Comm    | 0.34644    | 0.34644    | 0.34644    |   0.0 |  0.78
Output  | 0.000103   | 0.000103   | 0.000103   |   0.0 |  0.00
Modify  | 0.49265    | 0.49265    | 0.49265    |   0.0 |  1.11
Other   |            | 0.132      |            |       |  0.30

Nlocal:    19652 ave 19652 max 19652 min
Histogram: 1 0 0 0 0 0 0 0 0 0
Nghost:    16048 ave 16048 max 16048 min
Histogram: 1 0 0 0 0 0 0 0 0 0
Neighs:    1.09425e+06 ave 1.09425e+06 max 1.09425e+06 min
Histogram: 1 0 0 0 0 0 0 0 0 0

Total # of neighbors = 1094248
Ave neighs/atom = 55.6813
Neighbor list builds = 495
Dangerous builds not checked
Setting up Verlet run ...
  Unit style    : metal
  Current step  : 83495
  Time step     : 0.001
Per MPI rank memory allocation (min/avg/max) = 18.19 | 18.19 | 18.19 Mbytes
Step Temp Press TotEng PotEng Enthalpy Volume 
   83495    273.32857   -148.76419   -120970.39   -121664.67   -121013.15    460526.28 
   84000    248.56177   -40.567265    -121100.4   -121731.77   -121112.05    460212.06 
Loop time of 52.4139 on 1 procs for 505 steps with 19652 atoms

Performance: 0.832 ns/day, 28.831 hours/ns, 9.635 timesteps/s
99.8% CPU use with 1 MPI tasks x no OpenMP threads

MPI task timing breakdown:
Section |  min time  |  avg time  |  max time  |%varavg| %total
---------------------------------------------------------------
Pair    | 27.404     | 27.404     | 27.404     |   0.0 | 52.28
Neigh   | 23.754     | 23.754     | 23.754     |   0.0 | 45.32
Comm    | 0.42       | 0.42       | 0.42       |   0.0 |  0.80
Output  | 0.071744   | 0.071744   | 0.071744   |   0.0 |  0.14
Modify  | 0.59704    | 0.59704    | 0.59704    |   0.0 |  1.14
Other   |            | 0.1675     |            |       |  0.32

Nlocal:    19652 ave 19652 max 19652 min
Histogram: 1 0 0 0 0 0 0 0 0 0
Nghost:    16058 ave 16058 max 16058 min
Histogram: 1 0 0 0 0 0 0 0 0 0
Neighs:    1.09537e+06 ave 1.09537e+06 max 1.09537e+06 min
Histogram: 1 0 0 0 0 0 0 0 0 0

Total # of neighbors = 1095374
Ave neighs/atom = 55.7386
Neighbor list builds = 505
Dangerous builds not checked
Setting up Verlet run ...
  Unit style    : metal
  Current step  : 84000
  Time step     : 0.001
Per MPI rank memory allocation (min/avg/max) = 18.19 | 18.19 | 18.19 Mbytes
Step Temp Press TotEng PotEng Enthalpy Volume 
   84000    248.56177   -40.567265    -121100.4   -121731.77   -121112.05    460212.06 
   84495    224.48624   -2.7007907   -121226.83   -121797.04    -121227.6    460009.88 
Loop time of 46.606 on 1 procs for 495 steps with 19652 atoms

Performance: 0.918 ns/day, 26.154 hours/ns, 10.621 timesteps/s
100.0% CPU use with 1 MPI tasks x no OpenMP threads

MPI task timing breakdown:
Section |  min time  |  avg time  |  max time  |%varavg| %total
---------------------------------------------------------------
Pair    | 24.111     | 24.111     | 24.111     |   0.0 | 51.73
Neigh   | 21.468     | 21.468     | 21.468     |   0.0 | 46.06
Comm    | 0.36193    | 0.36193    | 0.36193    |   0.0 |  0.78
Output  | 0.00014186 | 0.00014186 | 0.00014186 |   0.0 |  0.00
Modify  | 0.51105    | 0.51105    | 0.51105    |   0.0 |  1.10
Other   |            | 0.1538     |            |       |  0.33

Nlocal:    19652 ave 19652 max 19652 min
Histogram: 1 0 0 0 0 0 0 0 0 0
Nghost:    16049 ave 16049 max 16049 min
Histogram: 1 0 0 0 0 0 0 0 0 0
Neighs:    1.09629e+06 ave 1.09629e+06 max 1.09629e+06 min
Histogram: 1 0 0 0 0 0 0 0 0 0

Total # of neighbors = 1096293
Ave neighs/atom = 55.7853
Neighbor list builds = 495
Dangerous builds not checked
Setting up Verlet run ...
  Unit style    : metal
  Current step  : 84495
  Time step     : 0.001
Per MPI rank memory allocation (min/avg/max) = 18.19 | 18.19 | 18.19 Mbytes
Step Temp Press TotEng PotEng Enthalpy Volume 
   84495    224.48624   -2.7007907   -121226.83   -121797.04    -121227.6    460009.88 
   85000    201.17044    8.8058508   -121359.25   -121870.24   -121356.73    459770.76 
Loop time of 51.8361 on 1 procs for 505 steps with 19652 atoms

Performance: 0.842 ns/day, 28.513 hours/ns, 9.742 timesteps/s
89.1% CPU use with 1 MPI tasks x no OpenMP threads

MPI task timing breakdown:
Section |  min time  |  avg time  |  max time  |%varavg| %total
---------------------------------------------------------------
Pair    | 23.676     | 23.676     | 23.676     |   0.0 | 45.68
Neigh   | 21.464     | 21.464     | 21.464     |   0.0 | 41.41
Comm    | 0.3544     | 0.3544     | 0.3544     |   0.0 |  0.68
Output  | 5.6806     | 5.6806     | 5.6806     |   0.0 | 10.96
Modify  | 0.50892    | 0.50892    | 0.50892    |   0.0 |  0.98
Other   |            | 0.1524     |            |       |  0.29

Nlocal:    19652 ave 19652 max 19652 min
Histogram: 1 0 0 0 0 0 0 0 0 0
Nghost:    16058 ave 16058 max 16058 min
Histogram: 1 0 0 0 0 0 0 0 0 0
Neighs:    1.09688e+06 ave 1.09688e+06 max 1.09688e+06 min
Histogram: 1 0 0 0 0 0 0 0 0 0

Total # of neighbors = 1096875
Ave neighs/atom = 55.8149
Neighbor list builds = 505
Dangerous builds not checked
Setting up Verlet run ...
  Unit style    : metal
  Current step  : 85000
  Time step     : 0.001
Per MPI rank memory allocation (min/avg/max) = 18.19 | 18.19 | 18.19 Mbytes
Step Temp Press TotEng PotEng Enthalpy Volume 
   85000    201.17044    8.8058508   -121359.25   -121870.24   -121356.73    459770.76 
   85495    176.06911   -136.68231   -121482.12   -121929.35   -121521.33    459656.73 
Loop time of 45.4817 on 1 procs for 495 steps with 19652 atoms

Performance: 0.940 ns/day, 25.523 hours/ns, 10.883 timesteps/s
99.3% CPU use with 1 MPI tasks x no OpenMP threads

MPI task timing breakdown:
Section |  min time  |  avg time  |  max time  |%varavg| %total
---------------------------------------------------------------
Pair    | 23.333     | 23.333     | 23.333     |   0.0 | 51.30
Neigh   | 21.131     | 21.131     | 21.131     |   0.0 | 46.46
Comm    | 0.3574     | 0.3574     | 0.3574     |   0.0 |  0.79
Output  | 0.00013804 | 0.00013804 | 0.00013804 |   0.0 |  0.00
Modify  | 0.50119    | 0.50119    | 0.50119    |   0.0 |  1.10
Other   |            | 0.1592     |            |       |  0.35

Nlocal:    19652 ave 19652 max 19652 min
Histogram: 1 0 0 0 0 0 0 0 0 0
Nghost:    16090 ave 16090 max 16090 min
Histogram: 1 0 0 0 0 0 0 0 0 0
Neighs:    1.0972e+06 ave 1.0972e+06 max 1.0972e+06 min
Histogram: 1 0 0 0 0 0 0 0 0 0

Total # of neighbors = 1097202
Ave neighs/atom = 55.8316
Neighbor list builds = 495
Dangerous builds not checked
Setting up Verlet run ...
  Unit style    : metal
  Current step  : 85495
  Time step     : 0.001
Per MPI rank memory allocation (min/avg/max) = 18.19 | 18.19 | 18.19 Mbytes
Step Temp Press TotEng PotEng Enthalpy Volume 
   85495    176.06911   -136.68231   -121482.12   -121929.35   -121521.33    459656.73 
   86000    150.37336    130.76226   -121612.14    -121994.1   -121574.65    459293.01 
Loop time of 49.5193 on 1 procs for 505 steps with 19652 atoms

Performance: 0.881 ns/day, 27.238 hours/ns, 10.198 timesteps/s
99.9% CPU use with 1 MPI tasks x no OpenMP threads

MPI task timing breakdown:
Section |  min time  |  avg time  |  max time  |%varavg| %total
---------------------------------------------------------------
Pair    | 25.701     | 25.701     | 25.701     |   0.0 | 51.90
Neigh   | 22.641     | 22.641     | 22.641     |   0.0 | 45.72
Comm    | 0.38884    | 0.38884    | 0.38884    |   0.0 |  0.79
Output  | 0.063654   | 0.063654   | 0.063654   |   0.0 |  0.13
Modify  | 0.55874    | 0.55874    | 0.55874    |   0.0 |  1.13
Other   |            | 0.1658     |            |       |  0.33

Nlocal:    19652 ave 19652 max 19652 min
Histogram: 1 0 0 0 0 0 0 0 0 0
Nghost:    16069 ave 16069 max 16069 min
Histogram: 1 0 0 0 0 0 0 0 0 0
Neighs:    1.09849e+06 ave 1.09849e+06 max 1.09849e+06 min
Histogram: 1 0 0 0 0 0 0 0 0 0

Total # of neighbors = 1098489
Ave neighs/atom = 55.8971
Neighbor list builds = 505
Dangerous builds not checked
Setting up Verlet run ...
  Unit style    : metal
  Current step  : 86000
  Time step     : 0.001
Per MPI rank memory allocation (min/avg/max) = 18.19 | 18.19 | 18.19 Mbytes
Step Temp Press TotEng PotEng Enthalpy Volume 
   86000    150.37336    130.76226   -121612.14    -121994.1   -121574.65    459293.01 
   86495    126.64873   -131.13003   -121733.55   -122055.25   -121771.13    459236.32 
Loop time of 47.3789 on 1 procs for 495 steps with 19652 atoms

Performance: 0.903 ns/day, 26.587 hours/ns, 10.448 timesteps/s
100.0% CPU use with 1 MPI tasks x no OpenMP threads

MPI task timing breakdown:
Section |  min time  |  avg time  |  max time  |%varavg| %total
---------------------------------------------------------------
Pair    | 24.576     | 24.576     | 24.576     |   0.0 | 51.87
Neigh   | 21.754     | 21.754     | 21.754     |   0.0 | 45.91
Comm    | 0.36554    | 0.36554    | 0.36554    |   0.0 |  0.77
Output  | 0.00016093 | 0.00016093 | 0.00016093 |   0.0 |  0.00
Modify  | 0.52624    | 0.52624    | 0.52624    |   0.0 |  1.11
Other   |            | 0.1575     |            |       |  0.33

Nlocal:    19652 ave 19652 max 19652 min
Histogram: 1 0 0 0 0 0 0 0 0 0
Nghost:    16045 ave 16045 max 16045 min
Histogram: 1 0 0 0 0 0 0 0 0 0
Neighs:    1.09899e+06 ave 1.09899e+06 max 1.09899e+06 min
Histogram: 1 0 0 0 0 0 0 0 0 0

Total # of neighbors = 1098994
Ave neighs/atom = 55.9228
Neighbor list builds = 495
Dangerous builds not checked
Setting up Verlet run ...
  Unit style    : metal
  Current step  : 86495
  Time step     : 0.001
Per MPI rank memory allocation (min/avg/max) = 18.19 | 18.19 | 18.19 Mbytes
Step Temp Press TotEng PotEng Enthalpy Volume 
   86495    126.64873   -131.13003   -121733.55   -122055.25   -121771.13    459236.32 
   87000    102.42886    151.88133   -121860.63   -122120.81   -121817.13    458878.74 
Loop time of 52.5906 on 1 procs for 505 steps with 19652 atoms

Performance: 0.830 ns/day, 28.928 hours/ns, 9.602 timesteps/s
99.3% CPU use with 1 MPI tasks x no OpenMP threads

MPI task timing breakdown:
Section |  min time  |  avg time  |  max time  |%varavg| %total
---------------------------------------------------------------
Pair    | 27.356     | 27.356     | 27.356     |   0.0 | 52.02
Neigh   | 23.656     | 23.656     | 23.656     |   0.0 | 44.98
Comm    | 0.41132    | 0.41132    | 0.41132    |   0.0 |  0.78
Output  | 0.39899    | 0.39899    | 0.39899    |   0.0 |  0.76
Modify  | 0.59551    | 0.59551    | 0.59551    |   0.0 |  1.13
Other   |            | 0.1725     |            |       |  0.33

Nlocal:    19652 ave 19652 max 19652 min
Histogram: 1 0 0 0 0 0 0 0 0 0
Nghost:    16061 ave 16061 max 16061 min
Histogram: 1 0 0 0 0 0 0 0 0 0
Neighs:    1.10009e+06 ave 1.10009e+06 max 1.10009e+06 min
Histogram: 1 0 0 0 0 0 0 0 0 0

Total # of neighbors = 1100088
Ave neighs/atom = 55.9784
Neighbor list builds = 505
Dangerous builds not checked
Total wall time: 2:36:36
