LAMMPS (12 Dec 2018)
Lattice spacing in x,y,z = 4 4 4
Created orthogonal box = (0 0 0) to (68 68 68)
  1 by 1 by 1 MPI processor grid
Created 19652 atoms
  Time spent = 0.00396395 secs
Setting atom values ...
  417 settings made for type/fraction
Neighbor list info ...
  update every 1 steps, delay 0 steps, check no
  max neighbors/atom: 2000, page size: 100000
  master list distance cutoff = 8.5
  ghost atom cutoff = 8.5
  binsize = 4.25, bins = 16 16 16
  1 neighbor lists, perpetual/occasional/extra = 1 0 0
  (1) pair eam/alloy, perpetual
      attributes: half, newton on
      pair build: half/bin/atomonly/newton
      stencil: half/bin/3d/newton
      bin: standard
Setting up Verlet run ...
  Unit style    : metal
  Current step  : 0
  Time step     : 0.001
Per MPI rank memory allocation (min/avg/max) = 18.19 | 18.19 | 18.19 Mbytes
Step Temp Press TotEng PotEng Enthalpy 
       0          300   -181486.91   -62960.675   -63722.702   -98578.032 
    1000    198.80377    -163554.9   -62960.664   -63465.644   -95058.809 
Loop time of 153.087 on 1 procs for 1000 steps with 19652 atoms

Performance: 0.564 ns/day, 42.524 hours/ns, 6.532 timesteps/s
99.7% CPU use with 1 MPI tasks x no OpenMP threads

MPI task timing breakdown:
Section |  min time  |  avg time  |  max time  |%varavg| %total
---------------------------------------------------------------
Pair    | 87.604     | 87.604     | 87.604     |   0.0 | 57.22
Neigh   | 63.506     | 63.506     | 63.506     |   0.0 | 41.48
Comm    | 1.1961     | 1.1961     | 1.1961     |   0.0 |  0.78
Output  | 0.00015807 | 0.00015807 | 0.00015807 |   0.0 |  0.00
Modify  | 0.40248    | 0.40248    | 0.40248    |   0.0 |  0.26
Other   |            | 0.3781     |            |       |  0.25

Nlocal:    19652 ave 19652 max 19652 min
Histogram: 1 0 0 0 0 0 0 0 0 0
Nghost:    20040 ave 20040 max 20040 min
Histogram: 1 0 0 0 0 0 0 0 0 0
Neighs:    1.56893e+06 ave 1.56893e+06 max 1.56893e+06 min
Histogram: 1 0 0 0 0 0 0 0 0 0

Total # of neighbors = 1568934
Ave neighs/atom = 79.8358
Neighbor list builds = 1000
Dangerous builds not checked
Setting up Verlet run ...
  Unit style    : metal
  Current step  : 1000
  Time step     : 0.001
Per MPI rank memory allocation (min/avg/max) = 18.19 | 18.19 | 18.19 Mbytes
Step Temp Press TotEng PotEng Enthalpy 
    1000    198.80377    -163554.9   -62960.664   -63465.644   -95058.809 
    2000     312.0553   -376.51554   -68142.564   -68935.213   -68199.476 
Loop time of 194.219 on 1 procs for 1000 steps with 19652 atoms

Performance: 0.445 ns/day, 53.950 hours/ns, 5.149 timesteps/s
99.6% CPU use with 1 MPI tasks x no OpenMP threads

MPI task timing breakdown:
Section |  min time  |  avg time  |  max time  |%varavg| %total
---------------------------------------------------------------
Pair    | 104.74     | 104.74     | 104.74     |   0.0 | 53.93
Neigh   | 86.592     | 86.592     | 86.592     |   0.0 | 44.58
Comm    | 1.1113     | 1.1113     | 1.1113     |   0.0 |  0.57
Output  | 0.00019789 | 0.00019789 | 0.00019789 |   0.0 |  0.00
Modify  | 1.3954     | 1.3954     | 1.3954     |   0.0 |  0.72
Other   |            | 0.3856     |            |       |  0.20

Nlocal:    19652 ave 19652 max 19652 min
Histogram: 1 0 0 0 0 0 0 0 0 0
Nghost:    20114 ave 20114 max 20114 min
Histogram: 1 0 0 0 0 0 0 0 0 0
Neighs:    2.01648e+06 ave 2.01648e+06 max 2.01648e+06 min
Histogram: 1 0 0 0 0 0 0 0 0 0

Total # of neighbors = 2016480
Ave neighs/atom = 102.609
Neighbor list builds = 1000
Dangerous builds not checked
Setting up Verlet run ...
  Unit style    : metal
  Current step  : 2000
  Time step     : 0.001
Per MPI rank memory allocation (min/avg/max) = 19.33 | 19.33 | 19.33 Mbytes
Step Temp Press TotEng PotEng Enthalpy 
    2000     312.0553   -376.51554   -68142.564   -68935.213   -68199.476 
    5000    1115.7151     203.1968   -63756.418   -66590.436   -63723.976 
   10000    2443.4342   -692.04994   -53896.423   -60102.969   -54026.202 
Loop time of 1426.47 on 1 procs for 8000 steps with 19652 atoms

Performance: 0.485 ns/day, 49.530 hours/ns, 5.608 timesteps/s
99.2% CPU use with 1 MPI tasks x no OpenMP threads

MPI task timing breakdown:
Section |  min time  |  avg time  |  max time  |%varavg| %total
---------------------------------------------------------------
Pair    | 779.2      | 779.2      | 779.2      |   0.0 | 54.62
Neigh   | 624.84     | 624.84     | 624.84     |   0.0 | 43.80
Comm    | 8.6144     | 8.6144     | 8.6144     |   0.0 |  0.60
Output  | 0.16436    | 0.16436    | 0.16436    |   0.0 |  0.01
Modify  | 10.639     | 10.639     | 10.639     |   0.0 |  0.75
Other   |            | 3.012      |            |       |  0.21

Nlocal:    19652 ave 19652 max 19652 min
Histogram: 1 0 0 0 0 0 0 0 0 0
Nghost:    18930 ave 18930 max 18930 min
Histogram: 1 0 0 0 0 0 0 0 0 0
Neighs:    1.64202e+06 ave 1.64202e+06 max 1.64202e+06 min
Histogram: 1 0 0 0 0 0 0 0 0 0

Total # of neighbors = 1642019
Ave neighs/atom = 83.5548
Neighbor list builds = 8000
Dangerous builds not checked
Setting up Verlet run ...
  Unit style    : metal
  Current step  : 10000
  Time step     : 0.001
Per MPI rank memory allocation (min/avg/max) = 19.34 | 19.34 | 19.34 Mbytes
Step Temp Press TotEng PotEng Enthalpy 
   10000    2443.4342   -692.04994   -53896.423   -60102.969   -54026.202 
ERROR: Atom count is inconsistent, cannot write restart file (../write_restart.cpp:256)
Last command: run 30000
