LAMMPS (12 Dec 2018)
Lattice spacing in x,y,z = 4 4 4
Created orthogonal box = (0 0 0) to (68 68 68)
  1 by 1 by 1 MPI processor grid
Created 19652 atoms
  Time spent = 0.00399494 secs
Setting atom values ...
  19652 settings made for type/fraction
Neighbor list info ...
  update every 1 steps, delay 0 steps, check no
  max neighbors/atom: 2000, page size: 100000
  master list distance cutoff = 8.5
  ghost atom cutoff = 8.5
  binsize = 4.25, bins = 16 16 16
  1 neighbor lists, perpetual/occasional/extra = 1 0 0
  (1) pair eam/alloy, perpetual
      attributes: half, newton on
      pair build: half/bin/atomonly/newton
      stencil: half/bin/3d/newton
      bin: standard
Setting up Verlet run ...
  Unit style    : metal
  Current step  : 0
  Time step     : 0.001
Per MPI rank memory allocation (min/avg/max) = 18.19 | 18.19 | 18.19 Mbytes
Step Temp Press TotEng PotEng Enthalpy Volume 
       0          300    646743.88   -38638.853    -39400.88    88286.597       314432 
    1000    914.09743    639580.99   -38639.061   -40960.952    86880.649       314432 
Loop time of 198.665 on 1 procs for 1000 steps with 19652 atoms

Performance: 0.435 ns/day, 55.185 hours/ns, 5.034 timesteps/s
100.1% CPU use with 1 MPI tasks x no OpenMP threads

MPI task timing breakdown:
Section |  min time  |  avg time  |  max time  |%varavg| %total
---------------------------------------------------------------
Pair    | 111.85     | 111.85     | 111.85     |   0.0 | 56.30
Neigh   | 84.168     | 84.168     | 84.168     |   0.0 | 42.37
Comm    | 1.5099     | 1.5099     | 1.5099     |   0.0 |  0.76
Output  | 0.068041   | 0.068041   | 0.068041   |   0.0 |  0.03
Modify  | 0.58204    | 0.58204    | 0.58204    |   0.0 |  0.29
Other   |            | 0.4824     |            |       |  0.24

Nlocal:    19652 ave 19652 max 19652 min
Histogram: 1 0 0 0 0 0 0 0 0 0
Nghost:    18839 ave 18839 max 18839 min
Histogram: 1 0 0 0 0 0 0 0 0 0
Neighs:    1.5831e+06 ave 1.5831e+06 max 1.5831e+06 min
Histogram: 1 0 0 0 0 0 0 0 0 0

Total # of neighbors = 1583098
Ave neighs/atom = 80.5566
Neighbor list builds = 1000
Dangerous builds not checked
Setting up Verlet run ...
  Unit style    : metal
  Current step  : 1000
  Time step     : 0.001
Per MPI rank memory allocation (min/avg/max) = 18.19 | 18.19 | 18.19 Mbytes
Step Temp Press TotEng PotEng Enthalpy Volume 
    1000    914.09743    639580.99   -38639.061   -40960.952    86880.649       314432 
    2000    350.55311   -115.01077   -81655.671   -82546.108   -81702.392    650849.07 
Loop time of 130.15 on 1 procs for 1000 steps with 19652 atoms

Performance: 0.664 ns/day, 36.153 hours/ns, 7.683 timesteps/s
99.9% CPU use with 1 MPI tasks x no OpenMP threads

MPI task timing breakdown:
Section |  min time  |  avg time  |  max time  |%varavg| %total
---------------------------------------------------------------
Pair    | 67.339     | 67.339     | 67.339     |   0.0 | 51.74
Neigh   | 59.026     | 59.026     | 59.026     |   0.0 | 45.35
Comm    | 1.2645     | 1.2645     | 1.2645     |   0.0 |  0.97
Output  | 0.066839   | 0.066839   | 0.066839   |   0.0 |  0.05
Modify  | 1.992      | 1.992      | 1.992      |   0.0 |  1.53
Other   |            | 0.4615     |            |       |  0.35

Nlocal:    19652 ave 19652 max 19652 min
Histogram: 1 0 0 0 0 0 0 0 0 0
Nghost:    14053 ave 14053 max 14053 min
Histogram: 1 0 0 0 0 0 0 0 0 0
Neighs:    719941 ave 719941 max 719941 min
Histogram: 1 0 0 0 0 0 0 0 0 0

Total # of neighbors = 719941
Ave neighs/atom = 36.6345
Neighbor list builds = 1000
Dangerous builds not checked
Setting up Verlet run ...
  Unit style    : metal
  Current step  : 2000
  Time step     : 0.001
Per MPI rank memory allocation (min/avg/max) = 18.2 | 18.2 | 18.2 Mbytes
Step Temp Press TotEng PotEng Enthalpy Volume 
    2000    350.55311   -115.01077   -81655.671   -82546.108   -81702.392    650849.07 
    3000    509.40548    35.251362   -81237.201   -82531.137   -81222.835    652928.09 
    4000    802.05289    389.57499   -79813.294   -81850.581   -79653.315    657934.11 
    5000    1085.4686    719.28162   -78238.843   -80996.032   -77940.926    663599.96 
    6000    1348.6064   -284.30435   -76599.508   -80025.091   -76718.831    672436.47 
    7000    1627.6357   -212.95767   -74810.057     -78944.4   -74900.502    680462.42 
    8000    1901.2558    632.83562    -72979.75   -77809.113     -72708.2    687494.06 
    9000    2168.7364   -793.33214   -71190.308   -76699.096   -71536.615    699384.65 
   10000    2434.3464    340.86148   -69547.962   -75731.423   -69397.997    704888.69 
Loop time of 838.067 on 1 procs for 8000 steps with 19652 atoms

Performance: 0.825 ns/day, 29.100 hours/ns, 9.546 timesteps/s
99.2% CPU use with 1 MPI tasks x no OpenMP threads

MPI task timing breakdown:
Section |  min time  |  avg time  |  max time  |%varavg| %total
---------------------------------------------------------------
Pair    | 411.73     | 411.73     | 411.73     |   0.0 | 49.13
Neigh   | 396.67     | 396.67     | 396.67     |   0.0 | 47.33
Comm    | 9.738      | 9.738      | 9.738      |   0.0 |  1.16
Output  | 0.49894    | 0.49894    | 0.49894    |   0.0 |  0.06
Modify  | 15.771     | 15.771     | 15.771     |   0.0 |  1.88
Other   |            | 3.655      |            |       |  0.44

Nlocal:    19652 ave 19652 max 19652 min
Histogram: 1 0 0 0 0 0 0 0 0 0
Nghost:    13619 ave 13619 max 13619 min
Histogram: 1 0 0 0 0 0 0 0 0 0
Neighs:    684963 ave 684963 max 684963 min
Histogram: 1 0 0 0 0 0 0 0 0 0

Total # of neighbors = 684963
Ave neighs/atom = 34.8546
Neighbor list builds = 8000
Dangerous builds not checked
Setting up Verlet run ...
  Unit style    : metal
  Current step  : 10000
  Time step     : 0.001
Per MPI rank memory allocation (min/avg/max) = 18.2 | 18.2 | 18.2 Mbytes
Step Temp Press TotEng PotEng Enthalpy Volume 
   10000    2434.3464    340.86148   -69547.962   -75731.423   -69397.997    704888.69 
   11000    2459.4114    -860.5827   -69376.235   -75623.364   -69756.674     708276.1 
   12000    2454.0495    1258.5621   -69464.392   -75697.901   -68911.647    703656.29 
   13000    2435.6928   -588.40054   -69454.377   -75641.259   -69714.373    707951.16 
   14000    2442.5808    543.38284   -69546.484   -75750.861   -69307.466       704749 
   15000    2434.4514   -784.49406   -69380.055   -75563.783   -69727.217    709011.04 
   16000    2451.9324    838.37143   -69345.593   -75573.725    -68976.45    705454.28 
   17000    2447.5348   -837.71489   -69383.359   -75600.321   -69753.792    708472.38 
   18000    2453.1664    693.38951   -69421.541   -75652.807    -69116.57    704677.75 
   19000    2450.7756   -715.62687   -69432.885   -75658.079   -69749.352     708518.6 
   20000    2423.4996   -18.610243   -69483.235   -75639.145   -69491.436    706065.36 
   21000    2445.4482    381.21688   -69468.084   -75679.745   -69300.298    705166.74 
   22000    2451.2013   -705.55884   -69390.294   -75616.569    -69702.39    708703.32 
   23000    2434.2406    760.59021   -69470.736   -75653.929   -69136.297    704493.37 
   24000    2462.9866   -622.83469   -69425.747   -75681.957   -69701.032    708141.39 
   25000    2458.1584    127.18678   -69405.161   -75649.108   -69349.099     706218.7 
   26000    2427.3456   -131.37186   -69448.077   -75613.755    -69506.08    707392.08 
   27000    2460.7986    395.44751    -69360.07   -75610.723   -69185.783    706133.54 
   28000    2448.8751    -96.63869   -69352.144    -75572.51    -69394.81    707368.46 
   29000    2453.3276    219.71767   -69433.581   -75665.257    -69336.77    705943.27 
   30000    2442.9374    607.16873   -69355.638   -75560.922   -69088.065    706063.79 
   31000    2432.0116   -1071.6893    -69420.39   -75597.921   -69894.459    708733.62 
   32000    2449.9702    803.42142   -69416.039   -75639.187   -69062.628    704768.93 
   33000    2471.6047   -331.70107   -69325.225   -75603.326   -69471.907    708501.91 
   34000    2461.1402    861.81253   -69399.985   -75651.505   -69021.175     704236.4 
   35000    2452.6171    -980.3856   -69334.342   -75564.213   -69768.193    709012.14 
   36000    2480.6521    530.56838    -69327.09   -75628.173   -69093.294    706004.89 
   37000    2456.3809    139.87547   -69374.621   -75614.052   -69312.926    706667.72 
   38000     2450.347     50.35508       -69356   -75580.105   -69333.791    706646.83 
   39000     2459.838    767.38314   -69399.144   -75647.357   -69061.771    704382.05 
   40000    2467.0255   -576.11112   -69371.122   -75637.592   -69625.525    707499.29 
Loop time of 3225.84 on 1 procs for 30000 steps with 19652 atoms

Performance: 0.804 ns/day, 29.869 hours/ns, 9.300 timesteps/s
98.8% CPU use with 1 MPI tasks x no OpenMP threads

MPI task timing breakdown:
Section |  min time  |  avg time  |  max time  |%varavg| %total
---------------------------------------------------------------
Pair    | 1556.4     | 1556.4     | 1556.4     |   0.0 | 48.25
Neigh   | 1555       | 1555       | 1555       |   0.0 | 48.20
Comm    | 38.02      | 38.02      | 38.02      |   0.0 |  1.18
Output  | 1.8001     | 1.8001     | 1.8001     |   0.0 |  0.06
Modify  | 60.535     | 60.535     | 60.535     |   0.0 |  1.88
Other   |            | 14.15      |            |       |  0.44

Nlocal:    19652 ave 19652 max 19652 min
Histogram: 1 0 0 0 0 0 0 0 0 0
Nghost:    13606 ave 13606 max 13606 min
Histogram: 1 0 0 0 0 0 0 0 0 0
Neighs:    682381 ave 682381 max 682381 min
Histogram: 1 0 0 0 0 0 0 0 0 0

Total # of neighbors = 682381
Ave neighs/atom = 34.7232
Neighbor list builds = 30000
Dangerous builds not checked
Setting up Verlet run ...
  Unit style    : metal
  Current step  : 40000
  Time step     : 0.001
Per MPI rank memory allocation (min/avg/max) = 18.2 | 18.2 | 18.2 Mbytes
Step Temp Press TotEng PotEng Enthalpy Volume 
   40000    2467.0255   -576.11112   -69371.122   -75637.592   -69625.525    707499.29 
   40495    2385.8221   -335.01379   -69632.955    -75693.16   -69780.657     706373.6 
Loop time of 51.4543 on 1 procs for 495 steps with 19652 atoms

Performance: 0.831 ns/day, 28.874 hours/ns, 9.620 timesteps/s
97.9% CPU use with 1 MPI tasks x no OpenMP threads

MPI task timing breakdown:
Section |  min time  |  avg time  |  max time  |%varavg| %total
---------------------------------------------------------------
Pair    | 24.836     | 24.836     | 24.836     |   0.0 | 48.27
Neigh   | 24.791     | 24.791     | 24.791     |   0.0 | 48.18
Comm    | 0.60237    | 0.60237    | 0.60237    |   0.0 |  1.17
Output  | 0.00019193 | 0.00019193 | 0.00019193 |   0.0 |  0.00
Modify  | 0.97941    | 0.97941    | 0.97941    |   0.0 |  1.90
Other   |            | 0.2453     |            |       |  0.48

Nlocal:    19652 ave 19652 max 19652 min
Histogram: 1 0 0 0 0 0 0 0 0 0
Nghost:    13525 ave 13525 max 13525 min
Histogram: 1 0 0 0 0 0 0 0 0 0
Neighs:    683484 ave 683484 max 683484 min
Histogram: 1 0 0 0 0 0 0 0 0 0

Total # of neighbors = 683484
Ave neighs/atom = 34.7794
Neighbor list builds = 495
Dangerous builds not checked
Setting up Verlet run ...
  Unit style    : metal
  Current step  : 40495
  Time step     : 0.001
Per MPI rank memory allocation (min/avg/max) = 18.2 | 18.2 | 18.2 Mbytes
Step Temp Press TotEng PotEng Enthalpy Volume 
   40495    2385.8221   -335.01379   -69632.955    -75693.16   -69780.657     706373.6 
   41000    2392.3433    -186.2171   -69721.599   -75798.369   -69803.603    705545.52 
Loop time of 51.1221 on 1 procs for 505 steps with 19652 atoms

Performance: 0.853 ns/day, 28.120 hours/ns, 9.878 timesteps/s
99.7% CPU use with 1 MPI tasks x no OpenMP threads

MPI task timing breakdown:
Section |  min time  |  avg time  |  max time  |%varavg| %total
---------------------------------------------------------------
Pair    | 24.645     | 24.645     | 24.645     |   0.0 | 48.21
Neigh   | 24.59      | 24.59      | 24.59      |   0.0 | 48.10
Comm    | 0.60991    | 0.60991    | 0.60991    |   0.0 |  1.19
Output  | 0.067727   | 0.067727   | 0.067727   |   0.0 |  0.13
Modify  | 0.97175    | 0.97175    | 0.97175    |   0.0 |  1.90
Other   |            | 0.238      |            |       |  0.47

Nlocal:    19652 ave 19652 max 19652 min
Histogram: 1 0 0 0 0 0 0 0 0 0
Nghost:    13543 ave 13543 max 13543 min
Histogram: 1 0 0 0 0 0 0 0 0 0
Neighs:    683559 ave 683559 max 683559 min
Histogram: 1 0 0 0 0 0 0 0 0 0

Total # of neighbors = 683559
Ave neighs/atom = 34.7832
Neighbor list builds = 505
Dangerous builds not checked
Setting up Verlet run ...
  Unit style    : metal
  Current step  : 41000
  Time step     : 0.001
Per MPI rank memory allocation (min/avg/max) = 18.2 | 18.2 | 18.2 Mbytes
Step Temp Press TotEng PotEng Enthalpy Volume 
   41000    2392.3433    -186.2171   -69721.599   -75798.369   -69803.603    705545.52 
   41495    2357.1351    357.09659   -69953.433    -75940.77   -69796.691    703247.29 
Loop time of 53.3569 on 1 procs for 495 steps with 19652 atoms

Performance: 0.802 ns/day, 29.942 hours/ns, 9.277 timesteps/s
95.8% CPU use with 1 MPI tasks x no OpenMP threads

MPI task timing breakdown:
Section |  min time  |  avg time  |  max time  |%varavg| %total
---------------------------------------------------------------
Pair    | 25.754     | 25.754     | 25.754     |   0.0 | 48.27
Neigh   | 25.732     | 25.732     | 25.732     |   0.0 | 48.23
Comm    | 0.62449    | 0.62449    | 0.62449    |   0.0 |  1.17
Output  | 0.000144   | 0.000144   | 0.000144   |   0.0 |  0.00
Modify  | 1.0251     | 1.0251     | 1.0251     |   0.0 |  1.92
Other   |            | 0.2209     |            |       |  0.41

Nlocal:    19652 ave 19652 max 19652 min
Histogram: 1 0 0 0 0 0 0 0 0 0
Nghost:    13602 ave 13602 max 13602 min
Histogram: 1 0 0 0 0 0 0 0 0 0
Neighs:    685930 ave 685930 max 685930 min
Histogram: 1 0 0 0 0 0 0 0 0 0

Total # of neighbors = 685930
Ave neighs/atom = 34.9038
Neighbor list builds = 495
Dangerous builds not checked
Setting up Verlet run ...
  Unit style    : metal
  Current step  : 41495
  Time step     : 0.001
Per MPI rank memory allocation (min/avg/max) = 18.2 | 18.2 | 18.2 Mbytes
Step Temp Press TotEng PotEng Enthalpy Volume 
   41495    2357.1351    357.09659   -69953.433    -75940.77   -69796.691    703247.29 
   42000    2347.4679    578.38643   -69957.744   -75920.527    -69704.04    702782.42 
Loop time of 50.881 on 1 procs for 505 steps with 19652 atoms

Performance: 0.858 ns/day, 27.987 hours/ns, 9.925 timesteps/s
100.0% CPU use with 1 MPI tasks x no OpenMP threads

MPI task timing breakdown:
Section |  min time  |  avg time  |  max time  |%varavg| %total
---------------------------------------------------------------
Pair    | 24.683     | 24.683     | 24.683     |   0.0 | 48.51
Neigh   | 24.326     | 24.326     | 24.326     |   0.0 | 47.81
Comm    | 0.6005     | 0.6005     | 0.6005     |   0.0 |  1.18
Output  | 0.066535   | 0.066535   | 0.066535   |   0.0 |  0.13
Modify  | 0.98144    | 0.98144    | 0.98144    |   0.0 |  1.93
Other   |            | 0.2241     |            |       |  0.44

Nlocal:    19652 ave 19652 max 19652 min
Histogram: 1 0 0 0 0 0 0 0 0 0
Nghost:    13562 ave 13562 max 13562 min
Histogram: 1 0 0 0 0 0 0 0 0 0
Neighs:    686439 ave 686439 max 686439 min
Histogram: 1 0 0 0 0 0 0 0 0 0

Total # of neighbors = 686439
Ave neighs/atom = 34.9297
Neighbor list builds = 505
Dangerous builds not checked
Setting up Verlet run ...
  Unit style    : metal
  Current step  : 42000
  Time step     : 0.001
Per MPI rank memory allocation (min/avg/max) = 18.2 | 18.2 | 18.2 Mbytes
Step Temp Press TotEng PotEng Enthalpy Volume 
   42000    2347.4679    578.38643   -69957.744   -75920.527    -69704.04    702782.42 
   42495    2319.1384    283.92145   -70159.128   -76049.951   -70034.698     702160.6 
Loop time of 50.3276 on 1 procs for 495 steps with 19652 atoms

Performance: 0.850 ns/day, 28.242 hours/ns, 9.836 timesteps/s
100.1% CPU use with 1 MPI tasks x no OpenMP threads

MPI task timing breakdown:
Section |  min time  |  avg time  |  max time  |%varavg| %total
---------------------------------------------------------------
Pair    | 24.223     | 24.223     | 24.223     |   0.0 | 48.13
Neigh   | 24.329     | 24.329     | 24.329     |   0.0 | 48.34
Comm    | 0.59187    | 0.59187    | 0.59187    |   0.0 |  1.18
Output  | 0.00014591 | 0.00014591 | 0.00014591 |   0.0 |  0.00
Modify  | 0.95962    | 0.95962    | 0.95962    |   0.0 |  1.91
Other   |            | 0.2247     |            |       |  0.45

Nlocal:    19652 ave 19652 max 19652 min
Histogram: 1 0 0 0 0 0 0 0 0 0
Nghost:    13499 ave 13499 max 13499 min
Histogram: 1 0 0 0 0 0 0 0 0 0
Neighs:    686940 ave 686940 max 686940 min
Histogram: 1 0 0 0 0 0 0 0 0 0

Total # of neighbors = 686940
Ave neighs/atom = 34.9552
Neighbor list builds = 495
Dangerous builds not checked
Setting up Verlet run ...
  Unit style    : metal
  Current step  : 42495
  Time step     : 0.001
Per MPI rank memory allocation (min/avg/max) = 18.2 | 18.2 | 18.2 Mbytes
Step Temp Press TotEng PotEng Enthalpy Volume 
   42495    2319.1384    283.92145   -70159.128   -76049.951   -70034.698     702160.6 
   43000    2311.8657    554.08263   -70265.046   -76137.395   -70022.588    701087.22 
Loop time of 48.3463 on 1 procs for 505 steps with 19652 atoms

Performance: 0.902 ns/day, 26.593 hours/ns, 10.445 timesteps/s
96.8% CPU use with 1 MPI tasks x no OpenMP threads

MPI task timing breakdown:
Section |  min time  |  avg time  |  max time  |%varavg| %total
---------------------------------------------------------------
Pair    | 23.337     | 23.337     | 23.337     |   0.0 | 48.27
Neigh   | 23.285     | 23.285     | 23.285     |   0.0 | 48.16
Comm    | 0.56147    | 0.56147    | 0.56147    |   0.0 |  1.16
Output  | 0.066149   | 0.066149   | 0.066149   |   0.0 |  0.14
Modify  | 0.89183    | 0.89183    | 0.89183    |   0.0 |  1.84
Other   |            | 0.205      |            |       |  0.42

Nlocal:    19652 ave 19652 max 19652 min
Histogram: 1 0 0 0 0 0 0 0 0 0
Nghost:    13586 ave 13586 max 13586 min
Histogram: 1 0 0 0 0 0 0 0 0 0
Neighs:    687906 ave 687906 max 687906 min
Histogram: 1 0 0 0 0 0 0 0 0 0

Total # of neighbors = 687906
Ave neighs/atom = 35.0044
Neighbor list builds = 505
Dangerous builds not checked
Setting up Verlet run ...
  Unit style    : metal
  Current step  : 43000
  Time step     : 0.001
Per MPI rank memory allocation (min/avg/max) = 18.2 | 18.2 | 18.2 Mbytes
Step Temp Press TotEng PotEng Enthalpy Volume 
   43000    2311.8657    554.08263   -70265.046   -76137.395   -70022.588    701087.22 
   43495    2267.3286     47.69917   -70502.932   -76262.153   -70482.057    701151.36 
Loop time of 51.2254 on 1 procs for 495 steps with 19652 atoms

Performance: 0.835 ns/day, 28.746 hours/ns, 9.663 timesteps/s
98.8% CPU use with 1 MPI tasks x no OpenMP threads

MPI task timing breakdown:
Section |  min time  |  avg time  |  max time  |%varavg| %total
---------------------------------------------------------------
Pair    | 24.735     | 24.735     | 24.735     |   0.0 | 48.29
Neigh   | 24.671     | 24.671     | 24.671     |   0.0 | 48.16
Comm    | 0.60363    | 0.60363    | 0.60363    |   0.0 |  1.18
Output  | 0.00019503 | 0.00019503 | 0.00019503 |   0.0 |  0.00
Modify  | 0.98769    | 0.98769    | 0.98769    |   0.0 |  1.93
Other   |            | 0.228      |            |       |  0.45

Nlocal:    19652 ave 19652 max 19652 min
Histogram: 1 0 0 0 0 0 0 0 0 0
Nghost:    13590 ave 13590 max 13590 min
Histogram: 1 0 0 0 0 0 0 0 0 0
Neighs:    687371 ave 687371 max 687371 min
Histogram: 1 0 0 0 0 0 0 0 0 0

Total # of neighbors = 687371
Ave neighs/atom = 34.9772
Neighbor list builds = 495
Dangerous builds not checked
Setting up Verlet run ...
  Unit style    : metal
  Current step  : 43495
  Time step     : 0.001
Per MPI rank memory allocation (min/avg/max) = 18.2 | 18.2 | 18.2 Mbytes
Step Temp Press TotEng PotEng Enthalpy Volume 
   43495    2267.3286     47.69917   -70502.932   -76262.153   -70482.057    701151.36 
   44000    2266.4395    286.72881   -70666.611   -76423.573   -70541.395    699675.84 
Loop time of 59.5396 on 1 procs for 505 steps with 19652 atoms

Performance: 0.733 ns/day, 32.750 hours/ns, 8.482 timesteps/s
92.3% CPU use with 1 MPI tasks x no OpenMP threads

MPI task timing breakdown:
Section |  min time  |  avg time  |  max time  |%varavg| %total
---------------------------------------------------------------
Pair    | 28.993     | 28.993     | 28.993     |   0.0 | 48.69
Neigh   | 28.353     | 28.353     | 28.353     |   0.0 | 47.62
Comm    | 0.71527    | 0.71527    | 0.71527    |   0.0 |  1.20
Output  | 0.064871   | 0.064871   | 0.064871   |   0.0 |  0.11
Modify  | 1.1606     | 1.1606     | 1.1606     |   0.0 |  1.95
Other   |            | 0.2528     |            |       |  0.42

Nlocal:    19652 ave 19652 max 19652 min
Histogram: 1 0 0 0 0 0 0 0 0 0
Nghost:    13509 ave 13509 max 13509 min
Histogram: 1 0 0 0 0 0 0 0 0 0
Neighs:    688302 ave 688302 max 688302 min
Histogram: 1 0 0 0 0 0 0 0 0 0

Total # of neighbors = 688302
Ave neighs/atom = 35.0245
Neighbor list builds = 505
Dangerous builds not checked
Setting up Verlet run ...
  Unit style    : metal
  Current step  : 44000
  Time step     : 0.001
Per MPI rank memory allocation (min/avg/max) = 18.2 | 18.2 | 18.2 Mbytes
Step Temp Press TotEng PotEng Enthalpy Volume 
   44000    2266.4395    286.72881   -70666.611   -76423.573   -70541.395    699675.84 
   44495    2203.5795    366.71267   -70858.579   -76455.872   -70698.655    698712.41 
Loop time of 57.021 on 1 procs for 495 steps with 19652 atoms

Performance: 0.750 ns/day, 31.998 hours/ns, 8.681 timesteps/s
98.0% CPU use with 1 MPI tasks x no OpenMP threads

MPI task timing breakdown:
Section |  min time  |  avg time  |  max time  |%varavg| %total
---------------------------------------------------------------
Pair    | 28.05      | 28.05      | 28.05      |   0.0 | 49.19
Neigh   | 26.928     | 26.928     | 26.928     |   0.0 | 47.23
Comm    | 0.67773    | 0.67773    | 0.67773    |   0.0 |  1.19
Output  | 0.00018501 | 0.00018501 | 0.00018501 |   0.0 |  0.00
Modify  | 1.1006     | 1.1006     | 1.1006     |   0.0 |  1.93
Other   |            | 0.2641     |            |       |  0.46

Nlocal:    19652 ave 19652 max 19652 min
Histogram: 1 0 0 0 0 0 0 0 0 0
Nghost:    13652 ave 13652 max 13652 min
Histogram: 1 0 0 0 0 0 0 0 0 0
Neighs:    689638 ave 689638 max 689638 min
Histogram: 1 0 0 0 0 0 0 0 0 0

Total # of neighbors = 689638
Ave neighs/atom = 35.0925
Neighbor list builds = 495
Dangerous builds not checked
Setting up Verlet run ...
  Unit style    : metal
  Current step  : 44495
  Time step     : 0.001
Per MPI rank memory allocation (min/avg/max) = 18.2 | 18.2 | 18.2 Mbytes
Step Temp Press TotEng PotEng Enthalpy Volume 
   44495    2203.5795    366.71267   -70858.579   -76455.872   -70698.655    698712.41 
   45000    2216.1574    368.82649   -70843.997   -76473.239   -70683.081    699016.71 
Loop time of 52.6692 on 1 procs for 505 steps with 19652 atoms

Performance: 0.828 ns/day, 28.971 hours/ns, 9.588 timesteps/s
100.1% CPU use with 1 MPI tasks x no OpenMP threads

MPI task timing breakdown:
Section |  min time  |  avg time  |  max time  |%varavg| %total
---------------------------------------------------------------
Pair    | 25.913     | 25.913     | 25.913     |   0.0 | 49.20
Neigh   | 24.808     | 24.808     | 24.808     |   0.0 | 47.10
Comm    | 0.6339     | 0.6339     | 0.6339     |   0.0 |  1.20
Output  | 0.069927   | 0.069927   | 0.069927   |   0.0 |  0.13
Modify  | 1.0035     | 1.0035     | 1.0035     |   0.0 |  1.91
Other   |            | 0.2403     |            |       |  0.46

Nlocal:    19652 ave 19652 max 19652 min
Histogram: 1 0 0 0 0 0 0 0 0 0
Nghost:    13626 ave 13626 max 13626 min
Histogram: 1 0 0 0 0 0 0 0 0 0
Neighs:    688772 ave 688772 max 688772 min
Histogram: 1 0 0 0 0 0 0 0 0 0

Total # of neighbors = 688772
Ave neighs/atom = 35.0484
Neighbor list builds = 505
Dangerous builds not checked
Setting up Verlet run ...
  Unit style    : metal
  Current step  : 45000
  Time step     : 0.001
Per MPI rank memory allocation (min/avg/max) = 18.2 | 18.2 | 18.2 Mbytes
Step Temp Press TotEng PotEng Enthalpy Volume 
   45000    2216.1574    368.82649   -70843.997   -76473.239   -70683.081    699016.71 
   45495    2169.0593    240.03605    -71123.63   -76633.238   -71019.038    698119.36 
Loop time of 55.4164 on 1 procs for 495 steps with 19652 atoms

Performance: 0.772 ns/day, 31.098 hours/ns, 8.932 timesteps/s
98.3% CPU use with 1 MPI tasks x no OpenMP threads

MPI task timing breakdown:
Section |  min time  |  avg time  |  max time  |%varavg| %total
---------------------------------------------------------------
Pair    | 27.17      | 27.17      | 27.17      |   0.0 | 49.03
Neigh   | 26.283     | 26.283     | 26.283     |   0.0 | 47.43
Comm    | 0.67393    | 0.67393    | 0.67393    |   0.0 |  1.22
Output  | 0.00021696 | 0.00021696 | 0.00021696 |   0.0 |  0.00
Modify  | 1.0423     | 1.0423     | 1.0423     |   0.0 |  1.88
Other   |            | 0.2461     |            |       |  0.44

Nlocal:    19652 ave 19652 max 19652 min
Histogram: 1 0 0 0 0 0 0 0 0 0
Nghost:    13593 ave 13593 max 13593 min
Histogram: 1 0 0 0 0 0 0 0 0 0
Neighs:    689322 ave 689322 max 689322 min
Histogram: 1 0 0 0 0 0 0 0 0 0

Total # of neighbors = 689322
Ave neighs/atom = 35.0764
Neighbor list builds = 495
Dangerous builds not checked
Setting up Verlet run ...
  Unit style    : metal
  Current step  : 45495
  Time step     : 0.001
Per MPI rank memory allocation (min/avg/max) = 18.2 | 18.2 | 18.2 Mbytes
Step Temp Press TotEng PotEng Enthalpy Volume 
   45495    2169.0593    240.03605    -71123.63   -76633.238   -71019.038    698119.36 
   46000    2153.7619    357.38055     -71194.2   -76664.952   -71038.743    696933.99 
Loop time of 56.4744 on 1 procs for 505 steps with 19652 atoms

Performance: 0.773 ns/day, 31.064 hours/ns, 8.942 timesteps/s
99.0% CPU use with 1 MPI tasks x no OpenMP threads

MPI task timing breakdown:
Section |  min time  |  avg time  |  max time  |%varavg| %total
---------------------------------------------------------------
Pair    | 27.443     | 27.443     | 27.443     |   0.0 | 48.59
Neigh   | 26.937     | 26.937     | 26.937     |   0.0 | 47.70
Comm    | 0.70581    | 0.70581    | 0.70581    |   0.0 |  1.25
Output  | 0.068694   | 0.068694   | 0.068694   |   0.0 |  0.12
Modify  | 1.0659     | 1.0659     | 1.0659     |   0.0 |  1.89
Other   |            | 0.254      |            |       |  0.45

Nlocal:    19652 ave 19652 max 19652 min
Histogram: 1 0 0 0 0 0 0 0 0 0
Nghost:    13536 ave 13536 max 13536 min
Histogram: 1 0 0 0 0 0 0 0 0 0
Neighs:    690420 ave 690420 max 690420 min
Histogram: 1 0 0 0 0 0 0 0 0 0

Total # of neighbors = 690420
Ave neighs/atom = 35.1323
Neighbor list builds = 505
Dangerous builds not checked
Setting up Verlet run ...
  Unit style    : metal
  Current step  : 46000
  Time step     : 0.001
Per MPI rank memory allocation (min/avg/max) = 18.2 | 18.2 | 18.2 Mbytes
Step Temp Press TotEng PotEng Enthalpy Volume 
   46000    2153.7619    357.38055     -71194.2   -76664.952   -71038.743    696933.99 
   46495    2096.3872    191.86097   -71422.033   -76747.047   -71338.663    696192.73 
Loop time of 51.7932 on 1 procs for 495 steps with 19652 atoms

Performance: 0.826 ns/day, 29.065 hours/ns, 9.557 timesteps/s
99.1% CPU use with 1 MPI tasks x no OpenMP threads

MPI task timing breakdown:
Section |  min time  |  avg time  |  max time  |%varavg| %total
---------------------------------------------------------------
Pair    | 25.386     | 25.386     | 25.386     |   0.0 | 49.01
Neigh   | 24.55      | 24.55      | 24.55      |   0.0 | 47.40
Comm    | 0.62879    | 0.62879    | 0.62879    |   0.0 |  1.21
Output  | 0.00019813 | 0.00019813 | 0.00019813 |   0.0 |  0.00
Modify  | 0.99396    | 0.99396    | 0.99396    |   0.0 |  1.92
Other   |            | 0.2336     |            |       |  0.45

Nlocal:    19652 ave 19652 max 19652 min
Histogram: 1 0 0 0 0 0 0 0 0 0
Nghost:    13536 ave 13536 max 13536 min
Histogram: 1 0 0 0 0 0 0 0 0 0
Neighs:    691077 ave 691077 max 691077 min
Histogram: 1 0 0 0 0 0 0 0 0 0

Total # of neighbors = 691077
Ave neighs/atom = 35.1657
Neighbor list builds = 495
Dangerous builds not checked
Setting up Verlet run ...
  Unit style    : metal
  Current step  : 46495
  Time step     : 0.001
Per MPI rank memory allocation (min/avg/max) = 18.2 | 18.2 | 18.2 Mbytes
Step Temp Press TotEng PotEng Enthalpy Volume 
   46495    2096.3872    191.86097   -71422.033   -76747.047   -71338.663    696192.73 
   47000    2099.1802    254.35363   -71566.013   -76898.122   -71455.612    695415.48 
Loop time of 55.1941 on 1 procs for 505 steps with 19652 atoms

Performance: 0.791 ns/day, 30.360 hours/ns, 9.150 timesteps/s
100.0% CPU use with 1 MPI tasks x no OpenMP threads

MPI task timing breakdown:
Section |  min time  |  avg time  |  max time  |%varavg| %total
---------------------------------------------------------------
Pair    | 26.871     | 26.871     | 26.871     |   0.0 | 48.69
Neigh   | 26.323     | 26.323     | 26.323     |   0.0 | 47.69
Comm    | 0.65383    | 0.65383    | 0.65383    |   0.0 |  1.18
Output  | 0.041978   | 0.041978   | 0.041978   |   0.0 |  0.08
Modify  | 1.0516     | 1.0516     | 1.0516     |   0.0 |  1.91
Other   |            | 0.252      |            |       |  0.46

Nlocal:    19652 ave 19652 max 19652 min
Histogram: 1 0 0 0 0 0 0 0 0 0
Nghost:    13625 ave 13625 max 13625 min
Histogram: 1 0 0 0 0 0 0 0 0 0
Neighs:    691591 ave 691591 max 691591 min
Histogram: 1 0 0 0 0 0 0 0 0 0

Total # of neighbors = 691591
Ave neighs/atom = 35.1919
Neighbor list builds = 505
Dangerous builds not checked
Setting up Verlet run ...
  Unit style    : metal
  Current step  : 47000
  Time step     : 0.001
Per MPI rank memory allocation (min/avg/max) = 18.2 | 18.2 | 18.2 Mbytes
Step Temp Press TotEng PotEng Enthalpy Volume 
   47000    2099.1802    254.35363   -71566.013   -76898.122   -71455.612    695415.48 
   47495    2070.3492   -4.1541647   -71784.602   -77043.478   -71786.404    694775.27 
Loop time of 49.3841 on 1 procs for 495 steps with 19652 atoms

Performance: 0.866 ns/day, 27.713 hours/ns, 10.023 timesteps/s
99.5% CPU use with 1 MPI tasks x no OpenMP threads

MPI task timing breakdown:
Section |  min time  |  avg time  |  max time  |%varavg| %total
---------------------------------------------------------------
Pair    | 23.891     | 23.891     | 23.891     |   0.0 | 48.38
Neigh   | 23.753     | 23.753     | 23.753     |   0.0 | 48.10
Comm    | 0.56401    | 0.56401    | 0.56401    |   0.0 |  1.14
Output  | 0.00019312 | 0.00019312 | 0.00019312 |   0.0 |  0.00
Modify  | 0.94724    | 0.94724    | 0.94724    |   0.0 |  1.92
Other   |            | 0.2279     |            |       |  0.46

Nlocal:    19652 ave 19652 max 19652 min
Histogram: 1 0 0 0 0 0 0 0 0 0
Nghost:    13630 ave 13630 max 13630 min
Histogram: 1 0 0 0 0 0 0 0 0 0
Neighs:    691264 ave 691264 max 691264 min
Histogram: 1 0 0 0 0 0 0 0 0 0

Total # of neighbors = 691264
Ave neighs/atom = 35.1752
Neighbor list builds = 495
Dangerous builds not checked
Setting up Verlet run ...
  Unit style    : metal
  Current step  : 47495
  Time step     : 0.001
Per MPI rank memory allocation (min/avg/max) = 18.2 | 18.2 | 18.2 Mbytes
Step Temp Press TotEng PotEng Enthalpy Volume 
   47495    2070.3492   -4.1541647   -71784.602   -77043.478   -71786.404    694775.27 
   48000    2069.0363    1.6090033   -71810.535   -77066.075   -71809.837    694979.36 
Loop time of 54.8135 on 1 procs for 505 steps with 19652 atoms

Performance: 0.796 ns/day, 30.150 hours/ns, 9.213 timesteps/s
99.4% CPU use with 1 MPI tasks x no OpenMP threads

MPI task timing breakdown:
Section |  min time  |  avg time  |  max time  |%varavg| %total
---------------------------------------------------------------
Pair    | 26.4       | 26.4       | 26.4       |   0.0 | 48.16
Neigh   | 26.39      | 26.39      | 26.39      |   0.0 | 48.14
Comm    | 0.64268    | 0.64268    | 0.64268    |   0.0 |  1.17
Output  | 0.069151   | 0.069151   | 0.069151   |   0.0 |  0.13
Modify  | 1.0551     | 1.0551     | 1.0551     |   0.0 |  1.92
Other   |            | 0.2566     |            |       |  0.47

Nlocal:    19652 ave 19652 max 19652 min
Histogram: 1 0 0 0 0 0 0 0 0 0
Nghost:    13640 ave 13640 max 13640 min
Histogram: 1 0 0 0 0 0 0 0 0 0
Neighs:    691838 ave 691838 max 691838 min
Histogram: 1 0 0 0 0 0 0 0 0 0

Total # of neighbors = 691838
Ave neighs/atom = 35.2045
Neighbor list builds = 505
Dangerous builds not checked
Setting up Verlet run ...
  Unit style    : metal
  Current step  : 48000
  Time step     : 0.001
Per MPI rank memory allocation (min/avg/max) = 18.2 | 18.2 | 18.2 Mbytes
Step Temp Press TotEng PotEng Enthalpy Volume 
   48000    2069.0363    1.6090033   -71810.535   -77066.075   -71809.837    694979.36 
   48495    1998.5611   -286.44206    -72051.67   -77128.198   -72175.822     694425.4 
Loop time of 54.3199 on 1 procs for 495 steps with 19652 atoms

Performance: 0.787 ns/day, 30.483 hours/ns, 9.113 timesteps/s
96.2% CPU use with 1 MPI tasks x no OpenMP threads

MPI task timing breakdown:
Section |  min time  |  avg time  |  max time  |%varavg| %total
---------------------------------------------------------------
Pair    | 26.287     | 26.287     | 26.287     |   0.0 | 48.39
Neigh   | 26.118     | 26.118     | 26.118     |   0.0 | 48.08
Comm    | 0.62966    | 0.62966    | 0.62966    |   0.0 |  1.16
Output  | 0.000211   | 0.000211   | 0.000211   |   0.0 |  0.00
Modify  | 1.0382     | 1.0382     | 1.0382     |   0.0 |  1.91
Other   |            | 0.2467     |            |       |  0.45

Nlocal:    19652 ave 19652 max 19652 min
Histogram: 1 0 0 0 0 0 0 0 0 0
Nghost:    13668 ave 13668 max 13668 min
Histogram: 1 0 0 0 0 0 0 0 0 0
Neighs:    691917 ave 691917 max 691917 min
Histogram: 1 0 0 0 0 0 0 0 0 0

Total # of neighbors = 691917
Ave neighs/atom = 35.2085
Neighbor list builds = 495
Dangerous builds not checked
Setting up Verlet run ...
  Unit style    : metal
  Current step  : 48495
  Time step     : 0.001
Per MPI rank memory allocation (min/avg/max) = 18.2 | 18.2 | 18.2 Mbytes
Step Temp Press TotEng PotEng Enthalpy Volume 
   48495    1998.5611   -286.44206    -72051.67   -77128.198   -72175.822     694425.4 
   49000    1989.4557    397.60161   -72162.099   -77215.498   -71990.261     692439.8 
Loop time of 50.0733 on 1 procs for 505 steps with 19652 atoms

Performance: 0.871 ns/day, 27.543 hours/ns, 10.085 timesteps/s
99.9% CPU use with 1 MPI tasks x no OpenMP threads

MPI task timing breakdown:
Section |  min time  |  avg time  |  max time  |%varavg| %total
---------------------------------------------------------------
Pair    | 24.24      | 24.24      | 24.24      |   0.0 | 48.41
Neigh   | 24.018     | 24.018     | 24.018     |   0.0 | 47.97
Comm    | 0.57604    | 0.57604    | 0.57604    |   0.0 |  1.15
Output  | 0.051637   | 0.051637   | 0.051637   |   0.0 |  0.10
Modify  | 0.95499    | 0.95499    | 0.95499    |   0.0 |  1.91
Other   |            | 0.2327     |            |       |  0.46

Nlocal:    19652 ave 19652 max 19652 min
Histogram: 1 0 0 0 0 0 0 0 0 0
Nghost:    13623 ave 13623 max 13623 min
Histogram: 1 0 0 0 0 0 0 0 0 0
Neighs:    693536 ave 693536 max 693536 min
Histogram: 1 0 0 0 0 0 0 0 0 0

Total # of neighbors = 693536
Ave neighs/atom = 35.2909
Neighbor list builds = 505
Dangerous builds not checked
Setting up Verlet run ...
  Unit style    : metal
  Current step  : 49000
  Time step     : 0.001
Per MPI rank memory allocation (min/avg/max) = 18.2 | 18.2 | 18.2 Mbytes
Step Temp Press TotEng PotEng Enthalpy Volume 
   49000    1989.4557    397.60161   -72162.099   -77215.498   -71990.261     692439.8 
   49495    1962.3301    408.79167   -72355.907   -77340.404   -72179.578     691087.3 
Loop time of 48.4117 on 1 procs for 495 steps with 19652 atoms

Performance: 0.883 ns/day, 27.167 hours/ns, 10.225 timesteps/s
100.1% CPU use with 1 MPI tasks x no OpenMP threads

MPI task timing breakdown:
Section |  min time  |  avg time  |  max time  |%varavg| %total
---------------------------------------------------------------
Pair    | 23.472     | 23.472     | 23.472     |   0.0 | 48.48
Neigh   | 23.238     | 23.238     | 23.238     |   0.0 | 48.00
Comm    | 0.5538     | 0.5538     | 0.5538     |   0.0 |  1.14
Output  | 0.00014305 | 0.00014305 | 0.00014305 |   0.0 |  0.00
Modify  | 0.92322    | 0.92322    | 0.92322    |   0.0 |  1.91
Other   |            | 0.2246     |            |       |  0.46

Nlocal:    19652 ave 19652 max 19652 min
Histogram: 1 0 0 0 0 0 0 0 0 0
Nghost:    13651 ave 13651 max 13651 min
Histogram: 1 0 0 0 0 0 0 0 0 0
Neighs:    694242 ave 694242 max 694242 min
Histogram: 1 0 0 0 0 0 0 0 0 0

Total # of neighbors = 694242
Ave neighs/atom = 35.3268
Neighbor list builds = 495
Dangerous builds not checked
Setting up Verlet run ...
  Unit style    : metal
  Current step  : 49495
  Time step     : 0.001
Per MPI rank memory allocation (min/avg/max) = 18.2 | 18.2 | 18.2 Mbytes
Step Temp Press TotEng PotEng Enthalpy Volume 
   49495    1962.3301    408.79167   -72355.907   -77340.404   -72179.578     691087.3 
   50000    1936.1211    594.10324    -72458.33   -77376.254   -72202.296    690472.69 
Loop time of 56.4996 on 1 procs for 505 steps with 19652 atoms

Performance: 0.772 ns/day, 31.078 hours/ns, 8.938 timesteps/s
95.3% CPU use with 1 MPI tasks x no OpenMP threads

MPI task timing breakdown:
Section |  min time  |  avg time  |  max time  |%varavg| %total
---------------------------------------------------------------
Pair    | 27.334     | 27.334     | 27.334     |   0.0 | 48.38
Neigh   | 27.017     | 27.017     | 27.017     |   0.0 | 47.82
Comm    | 0.69192    | 0.69192    | 0.69192    |   0.0 |  1.22
Output  | 0.06172    | 0.06172    | 0.06172    |   0.0 |  0.11
Modify  | 1.1108     | 1.1108     | 1.1108     |   0.0 |  1.97
Other   |            | 0.2836     |            |       |  0.50

Nlocal:    19652 ave 19652 max 19652 min
Histogram: 1 0 0 0 0 0 0 0 0 0
Nghost:    13585 ave 13585 max 13585 min
Histogram: 1 0 0 0 0 0 0 0 0 0
Neighs:    694882 ave 694882 max 694882 min
Histogram: 1 0 0 0 0 0 0 0 0 0

Total # of neighbors = 694882
Ave neighs/atom = 35.3594
Neighbor list builds = 505
Dangerous builds not checked
Setting up Verlet run ...
  Unit style    : metal
  Current step  : 50000
  Time step     : 0.001
Per MPI rank memory allocation (min/avg/max) = 18.2 | 18.2 | 18.2 Mbytes
Step Temp Press TotEng PotEng Enthalpy Volume 
   50000    1936.1211    594.10324    -72458.33   -77376.254   -72202.296    690472.69 
   50495    1938.8096    313.81265   -72667.325   -77592.078   -72532.198    689891.08 
Loop time of 52.2441 on 1 procs for 495 steps with 19652 atoms

Performance: 0.819 ns/day, 29.318 hours/ns, 9.475 timesteps/s
97.7% CPU use with 1 MPI tasks x no OpenMP threads

MPI task timing breakdown:
Section |  min time  |  avg time  |  max time  |%varavg| %total
---------------------------------------------------------------
Pair    | 25.197     | 25.197     | 25.197     |   0.0 | 48.23
Neigh   | 25.103     | 25.103     | 25.103     |   0.0 | 48.05
Comm    | 0.64546    | 0.64546    | 0.64546    |   0.0 |  1.24
Output  | 0.00019193 | 0.00019193 | 0.00019193 |   0.0 |  0.00
Modify  | 1.0582     | 1.0582     | 1.0582     |   0.0 |  2.03
Other   |            | 0.2393     |            |       |  0.46

Nlocal:    19652 ave 19652 max 19652 min
Histogram: 1 0 0 0 0 0 0 0 0 0
Nghost:    13631 ave 13631 max 13631 min
Histogram: 1 0 0 0 0 0 0 0 0 0
Neighs:    694922 ave 694922 max 694922 min
Histogram: 1 0 0 0 0 0 0 0 0 0

Total # of neighbors = 694922
Ave neighs/atom = 35.3614
Neighbor list builds = 495
Dangerous builds not checked
Setting up Verlet run ...
  Unit style    : metal
  Current step  : 50495
  Time step     : 0.001
Per MPI rank memory allocation (min/avg/max) = 18.2 | 18.2 | 18.2 Mbytes
Step Temp Press TotEng PotEng Enthalpy Volume 
   50495    1938.8096    313.81265   -72667.325   -77592.078   -72532.198    689891.08 
   51000     1884.144    341.17253   -72834.272   -77620.169   -72687.528     689123.6 
Loop time of 54.6793 on 1 procs for 505 steps with 19652 atoms

Performance: 0.798 ns/day, 30.077 hours/ns, 9.236 timesteps/s
97.1% CPU use with 1 MPI tasks x no OpenMP threads

MPI task timing breakdown:
Section |  min time  |  avg time  |  max time  |%varavg| %total
---------------------------------------------------------------
Pair    | 26.515     | 26.515     | 26.515     |   0.0 | 48.49
Neigh   | 26.04      | 26.04      | 26.04      |   0.0 | 47.62
Comm    | 0.7204     | 0.7204     | 0.7204     |   0.0 |  1.32
Output  | 0.067384   | 0.067384   | 0.067384   |   0.0 |  0.12
Modify  | 1.0714     | 1.0714     | 1.0714     |   0.0 |  1.96
Other   |            | 0.2654     |            |       |  0.49

Nlocal:    19652 ave 19652 max 19652 min
Histogram: 1 0 0 0 0 0 0 0 0 0
Nghost:    13672 ave 13672 max 13672 min
Histogram: 1 0 0 0 0 0 0 0 0 0
Neighs:    695641 ave 695641 max 695641 min
Histogram: 1 0 0 0 0 0 0 0 0 0

Total # of neighbors = 695641
Ave neighs/atom = 35.398
Neighbor list builds = 505
Dangerous builds not checked
Setting up Verlet run ...
  Unit style    : metal
  Current step  : 51000
  Time step     : 0.001
Per MPI rank memory allocation (min/avg/max) = 18.2 | 18.2 | 18.2 Mbytes
Step Temp Press TotEng PotEng Enthalpy Volume 
   51000     1884.144    341.17253   -72834.272   -77620.169   -72687.528     689123.6 
   51495    1860.4986    390.21621    -72979.21   -77705.046   -72811.521    688507.91 
Loop time of 51.333 on 1 procs for 495 steps with 19652 atoms

Performance: 0.833 ns/day, 28.806 hours/ns, 9.643 timesteps/s
99.2% CPU use with 1 MPI tasks x no OpenMP threads

MPI task timing breakdown:
Section |  min time  |  avg time  |  max time  |%varavg| %total
---------------------------------------------------------------
Pair    | 24.737     | 24.737     | 24.737     |   0.0 | 48.19
Neigh   | 24.73      | 24.73      | 24.73      |   0.0 | 48.18
Comm    | 0.62415    | 0.62415    | 0.62415    |   0.0 |  1.22
Output  | 0.00020504 | 0.00020504 | 0.00020504 |   0.0 |  0.00
Modify  | 1.0009     | 1.0009     | 1.0009     |   0.0 |  1.95
Other   |            | 0.2408     |            |       |  0.47

Nlocal:    19652 ave 19652 max 19652 min
Histogram: 1 0 0 0 0 0 0 0 0 0
Nghost:    13643 ave 13643 max 13643 min
Histogram: 1 0 0 0 0 0 0 0 0 0
Neighs:    695642 ave 695642 max 695642 min
Histogram: 1 0 0 0 0 0 0 0 0 0

Total # of neighbors = 695642
Ave neighs/atom = 35.398
Neighbor list builds = 495
Dangerous builds not checked
Setting up Verlet run ...
  Unit style    : metal
  Current step  : 51495
  Time step     : 0.001
Per MPI rank memory allocation (min/avg/max) = 18.2 | 18.2 | 18.2 Mbytes
Step Temp Press TotEng PotEng Enthalpy Volume 
   51495    1860.4986    390.21621    -72979.21   -77705.046   -72811.521    688507.91 
   52000    1850.6157    517.60714   -73084.941   -77785.674   -72862.914    687251.13 
Loop time of 52.027 on 1 procs for 505 steps with 19652 atoms

Performance: 0.839 ns/day, 28.618 hours/ns, 9.707 timesteps/s
99.2% CPU use with 1 MPI tasks x no OpenMP threads

MPI task timing breakdown:
Section |  min time  |  avg time  |  max time  |%varavg| %total
---------------------------------------------------------------
Pair    | 25.105     | 25.105     | 25.105     |   0.0 | 48.25
Neigh   | 24.984     | 24.984     | 24.984     |   0.0 | 48.02
Comm    | 0.63582    | 0.63582    | 0.63582    |   0.0 |  1.22
Output  | 0.041503   | 0.041503   | 0.041503   |   0.0 |  0.08
Modify  | 1.024      | 1.024      | 1.024      |   0.0 |  1.97
Other   |            | 0.2373     |            |       |  0.46

Nlocal:    19652 ave 19652 max 19652 min
Histogram: 1 0 0 0 0 0 0 0 0 0
Nghost:    13649 ave 13649 max 13649 min
Histogram: 1 0 0 0 0 0 0 0 0 0
Neighs:    697184 ave 697184 max 697184 min
Histogram: 1 0 0 0 0 0 0 0 0 0

Total # of neighbors = 697184
Ave neighs/atom = 35.4765
Neighbor list builds = 505
Dangerous builds not checked
Setting up Verlet run ...
  Unit style    : metal
  Current step  : 52000
  Time step     : 0.001
Per MPI rank memory allocation (min/avg/max) = 18.2 | 18.2 | 18.2 Mbytes
Step Temp Press TotEng PotEng Enthalpy Volume 
   52000    1850.6157    517.60714   -73084.941   -77785.674   -72862.914    687251.13 
   52495    1814.8359    495.43022   -73293.112   -77902.961   -73080.813    686556.68 
Loop time of 49.9584 on 1 procs for 495 steps with 19652 atoms

Performance: 0.856 ns/day, 28.035 hours/ns, 9.908 timesteps/s
98.1% CPU use with 1 MPI tasks x no OpenMP threads

MPI task timing breakdown:
Section |  min time  |  avg time  |  max time  |%varavg| %total
---------------------------------------------------------------
Pair    | 24.215     | 24.215     | 24.215     |   0.0 | 48.47
Neigh   | 23.932     | 23.932     | 23.932     |   0.0 | 47.90
Comm    | 0.60519    | 0.60519    | 0.60519    |   0.0 |  1.21
Output  | 0.00019908 | 0.00019908 | 0.00019908 |   0.0 |  0.00
Modify  | 0.98174    | 0.98174    | 0.98174    |   0.0 |  1.97
Other   |            | 0.2247     |            |       |  0.45

Nlocal:    19652 ave 19652 max 19652 min
Histogram: 1 0 0 0 0 0 0 0 0 0
Nghost:    13642 ave 13642 max 13642 min
Histogram: 1 0 0 0 0 0 0 0 0 0
Neighs:    697361 ave 697361 max 697361 min
Histogram: 1 0 0 0 0 0 0 0 0 0

Total # of neighbors = 697361
Ave neighs/atom = 35.4855
Neighbor list builds = 495
Dangerous builds not checked
Setting up Verlet run ...
  Unit style    : metal
  Current step  : 52495
  Time step     : 0.001
Per MPI rank memory allocation (min/avg/max) = 18.2 | 18.2 | 18.2 Mbytes
Step Temp Press TotEng PotEng Enthalpy Volume 
   52495    1814.8359    495.43022   -73293.112   -77902.961   -73080.813    686556.68 
   53000     1818.202    443.49423   -73430.156   -78048.555   -73240.282    685941.07 
Loop time of 51.6981 on 1 procs for 505 steps with 19652 atoms

Performance: 0.844 ns/day, 28.437 hours/ns, 9.768 timesteps/s
99.8% CPU use with 1 MPI tasks x no OpenMP threads

MPI task timing breakdown:
Section |  min time  |  avg time  |  max time  |%varavg| %total
---------------------------------------------------------------
Pair    | 24.991     | 24.991     | 24.991     |   0.0 | 48.34
Neigh   | 24.748     | 24.748     | 24.748     |   0.0 | 47.87
Comm    | 0.63828    | 0.63828    | 0.63828    |   0.0 |  1.23
Output  | 0.062152   | 0.062152   | 0.062152   |   0.0 |  0.12
Modify  | 1.0234     | 1.0234     | 1.0234     |   0.0 |  1.98
Other   |            | 0.2353     |            |       |  0.46

Nlocal:    19652 ave 19652 max 19652 min
Histogram: 1 0 0 0 0 0 0 0 0 0
Nghost:    13665 ave 13665 max 13665 min
Histogram: 1 0 0 0 0 0 0 0 0 0
Neighs:    697392 ave 697392 max 697392 min
Histogram: 1 0 0 0 0 0 0 0 0 0

Total # of neighbors = 697392
Ave neighs/atom = 35.4871
Neighbor list builds = 505
Dangerous builds not checked
Setting up Verlet run ...
  Unit style    : metal
  Current step  : 53000
  Time step     : 0.001
Per MPI rank memory allocation (min/avg/max) = 18.2 | 18.2 | 18.2 Mbytes
Step Temp Press TotEng PotEng Enthalpy Volume 
   53000     1818.202    443.49423   -73430.156   -78048.555   -73240.282    685941.07 
   53495     1759.046    125.30898   -73578.364   -78046.501   -73524.714    685960.83 
Loop time of 48.3543 on 1 procs for 495 steps with 19652 atoms

Performance: 0.884 ns/day, 27.135 hours/ns, 10.237 timesteps/s
99.4% CPU use with 1 MPI tasks x no OpenMP threads

MPI task timing breakdown:
Section |  min time  |  avg time  |  max time  |%varavg| %total
---------------------------------------------------------------
Pair    | 23.314     | 23.314     | 23.314     |   0.0 | 48.21
Neigh   | 23.316     | 23.316     | 23.316     |   0.0 | 48.22
Comm    | 0.5694     | 0.5694     | 0.5694     |   0.0 |  1.18
Output  | 0.00013804 | 0.00013804 | 0.00013804 |   0.0 |  0.00
Modify  | 0.93978    | 0.93978    | 0.93978    |   0.0 |  1.94
Other   |            | 0.2158     |            |       |  0.45

Nlocal:    19652 ave 19652 max 19652 min
Histogram: 1 0 0 0 0 0 0 0 0 0
Nghost:    13704 ave 13704 max 13704 min
Histogram: 1 0 0 0 0 0 0 0 0 0
Neighs:    697409 ave 697409 max 697409 min
Histogram: 1 0 0 0 0 0 0 0 0 0

Total # of neighbors = 697409
Ave neighs/atom = 35.4879
Neighbor list builds = 495
Dangerous builds not checked
Setting up Verlet run ...
  Unit style    : metal
  Current step  : 53495
  Time step     : 0.001
Per MPI rank memory allocation (min/avg/max) = 18.2 | 18.2 | 18.2 Mbytes
Step Temp Press TotEng PotEng Enthalpy Volume 
   53495     1759.046    125.30898   -73578.364   -78046.501   -73524.714    685960.83 
   54000    1735.2578    156.88849   -73758.677   -78166.389   -73691.586    685144.02 
Loop time of 51.1506 on 1 procs for 505 steps with 19652 atoms

Performance: 0.853 ns/day, 28.136 hours/ns, 9.873 timesteps/s
97.7% CPU use with 1 MPI tasks x no OpenMP threads

MPI task timing breakdown:
Section |  min time  |  avg time  |  max time  |%varavg| %total
---------------------------------------------------------------
Pair    | 24.714     | 24.714     | 24.714     |   0.0 | 48.32
Neigh   | 24.317     | 24.317     | 24.317     |   0.0 | 47.54
Comm    | 0.61122    | 0.61122    | 0.61122    |   0.0 |  1.19
Output  | 0.29681    | 0.29681    | 0.29681    |   0.0 |  0.58
Modify  | 0.98297    | 0.98297    | 0.98297    |   0.0 |  1.92
Other   |            | 0.2282     |            |       |  0.45

Nlocal:    19652 ave 19652 max 19652 min
Histogram: 1 0 0 0 0 0 0 0 0 0
Nghost:    13753 ave 13753 max 13753 min
Histogram: 1 0 0 0 0 0 0 0 0 0
Neighs:    697437 ave 697437 max 697437 min
Histogram: 1 0 0 0 0 0 0 0 0 0

Total # of neighbors = 697437
Ave neighs/atom = 35.4894
Neighbor list builds = 505
Dangerous builds not checked
Setting up Verlet run ...
  Unit style    : metal
  Current step  : 54000
  Time step     : 0.001
Per MPI rank memory allocation (min/avg/max) = 18.2 | 18.2 | 18.2 Mbytes
Step Temp Press TotEng PotEng Enthalpy Volume 
   54000    1735.2578    156.88849   -73758.677   -78166.389   -73691.586    685144.02 
   54495    1699.9856    67.231214   -73955.858   -78273.976   -73927.148    684175.13 
Loop time of 53.5053 on 1 procs for 495 steps with 19652 atoms

Performance: 0.799 ns/day, 30.025 hours/ns, 9.251 timesteps/s
96.3% CPU use with 1 MPI tasks x no OpenMP threads

MPI task timing breakdown:
Section |  min time  |  avg time  |  max time  |%varavg| %total
---------------------------------------------------------------
Pair    | 25.648     | 25.648     | 25.648     |   0.0 | 47.93
Neigh   | 25.967     | 25.967     | 25.967     |   0.0 | 48.53
Comm    | 0.6151     | 0.6151     | 0.6151     |   0.0 |  1.15
Output  | 0.00018883 | 0.00018883 | 0.00018883 |   0.0 |  0.00
Modify  | 1.0392     | 1.0392     | 1.0392     |   0.0 |  1.94
Other   |            | 0.2358     |            |       |  0.44

Nlocal:    19652 ave 19652 max 19652 min
Histogram: 1 0 0 0 0 0 0 0 0 0
Nghost:    13685 ave 13685 max 13685 min
Histogram: 1 0 0 0 0 0 0 0 0 0
Neighs:    698401 ave 698401 max 698401 min
Histogram: 1 0 0 0 0 0 0 0 0 0

Total # of neighbors = 698401
Ave neighs/atom = 35.5384
Neighbor list builds = 495
Dangerous builds not checked
Setting up Verlet run ...
  Unit style    : metal
  Current step  : 54495
  Time step     : 0.001
Per MPI rank memory allocation (min/avg/max) = 18.2 | 18.2 | 18.2 Mbytes
Step Temp Press TotEng PotEng Enthalpy Volume 
   54495    1699.9856    67.231214   -73955.858   -78273.976   -73927.148    684175.13 
   55000    1680.8951    283.41681   -74079.479   -78349.106   -73958.645    683082.62 
Loop time of 54.6025 on 1 procs for 505 steps with 19652 atoms

Performance: 0.799 ns/day, 30.034 hours/ns, 9.249 timesteps/s
99.1% CPU use with 1 MPI tasks x no OpenMP threads

MPI task timing breakdown:
Section |  min time  |  avg time  |  max time  |%varavg| %total
---------------------------------------------------------------
Pair    | 26.159     | 26.159     | 26.159     |   0.0 | 47.91
Neigh   | 26.475     | 26.475     | 26.475     |   0.0 | 48.49
Comm    | 0.62416    | 0.62416    | 0.62416    |   0.0 |  1.14
Output  | 0.045882   | 0.045882   | 0.045882   |   0.0 |  0.08
Modify  | 1.0577     | 1.0577     | 1.0577     |   0.0 |  1.94
Other   |            | 0.2401     |            |       |  0.44

Nlocal:    19652 ave 19652 max 19652 min
Histogram: 1 0 0 0 0 0 0 0 0 0
Nghost:    13617 ave 13617 max 13617 min
Histogram: 1 0 0 0 0 0 0 0 0 0
Neighs:    699042 ave 699042 max 699042 min
Histogram: 1 0 0 0 0 0 0 0 0 0

Total # of neighbors = 699042
Ave neighs/atom = 35.571
Neighbor list builds = 505
Dangerous builds not checked
Setting up Verlet run ...
  Unit style    : metal
  Current step  : 55000
  Time step     : 0.001
Per MPI rank memory allocation (min/avg/max) = 18.2 | 18.2 | 18.2 Mbytes
Step Temp Press TotEng PotEng Enthalpy Volume 
   55000    1680.8951    283.41681   -74079.479   -78349.106   -73958.645    683082.62 
   55495    1664.0508    172.03692    -74258.28   -78485.121   -74184.994    682516.91 
Loop time of 54.5395 on 1 procs for 495 steps with 19652 atoms

Performance: 0.784 ns/day, 30.606 hours/ns, 9.076 timesteps/s
99.4% CPU use with 1 MPI tasks x no OpenMP threads

MPI task timing breakdown:
Section |  min time  |  avg time  |  max time  |%varavg| %total
---------------------------------------------------------------
Pair    | 26.266     | 26.266     | 26.266     |   0.0 | 48.16
Neigh   | 26.332     | 26.332     | 26.332     |   0.0 | 48.28
Comm    | 0.63816    | 0.63816    | 0.63816    |   0.0 |  1.17
Output  | 0.00020504 | 0.00020504 | 0.00020504 |   0.0 |  0.00
Modify  | 1.0607     | 1.0607     | 1.0607     |   0.0 |  1.94
Other   |            | 0.2422     |            |       |  0.44

Nlocal:    19652 ave 19652 max 19652 min
Histogram: 1 0 0 0 0 0 0 0 0 0
Nghost:    13724 ave 13724 max 13724 min
Histogram: 1 0 0 0 0 0 0 0 0 0
Neighs:    699486 ave 699486 max 699486 min
Histogram: 1 0 0 0 0 0 0 0 0 0

Total # of neighbors = 699486
Ave neighs/atom = 35.5936
Neighbor list builds = 495
Dangerous builds not checked
Setting up Verlet run ...
  Unit style    : metal
  Current step  : 55495
  Time step     : 0.001
Per MPI rank memory allocation (min/avg/max) = 18.2 | 18.2 | 18.2 Mbytes
Step Temp Press TotEng PotEng Enthalpy Volume 
   55495    1664.0508    172.03692    -74258.28   -78485.121   -74184.994    682516.91 
   56000    1662.9699    268.99101    -74320.61   -78544.705   -74206.178    681584.47 
Loop time of 55.4694 on 1 procs for 505 steps with 19652 atoms

Performance: 0.787 ns/day, 30.511 hours/ns, 9.104 timesteps/s
98.4% CPU use with 1 MPI tasks x no OpenMP threads

MPI task timing breakdown:
Section |  min time  |  avg time  |  max time  |%varavg| %total
---------------------------------------------------------------
Pair    | 26.675     | 26.675     | 26.675     |   0.0 | 48.09
Neigh   | 26.764     | 26.764     | 26.764     |   0.0 | 48.25
Comm    | 0.66524    | 0.66524    | 0.66524    |   0.0 |  1.20
Output  | 0.043732   | 0.043732   | 0.043732   |   0.0 |  0.08
Modify  | 1.0709     | 1.0709     | 1.0709     |   0.0 |  1.93
Other   |            | 0.2505     |            |       |  0.45

Nlocal:    19652 ave 19652 max 19652 min
Histogram: 1 0 0 0 0 0 0 0 0 0
Nghost:    13704 ave 13704 max 13704 min
Histogram: 1 0 0 0 0 0 0 0 0 0
Neighs:    700509 ave 700509 max 700509 min
Histogram: 1 0 0 0 0 0 0 0 0 0

Total # of neighbors = 700509
Ave neighs/atom = 35.6457
Neighbor list builds = 505
Dangerous builds not checked
Setting up Verlet run ...
  Unit style    : metal
  Current step  : 56000
  Time step     : 0.001
Per MPI rank memory allocation (min/avg/max) = 18.2 | 18.2 | 18.2 Mbytes
Step Temp Press TotEng PotEng Enthalpy Volume 
   56000    1662.9699    268.99101    -74320.61   -78544.705   -74206.178    681584.47 
   56495     1604.821    274.54945    -74587.29   -78663.682   -74470.612    680892.88 
Loop time of 54.1772 on 1 procs for 495 steps with 19652 atoms

Performance: 0.789 ns/day, 30.402 hours/ns, 9.137 timesteps/s
98.5% CPU use with 1 MPI tasks x no OpenMP threads

MPI task timing breakdown:
Section |  min time  |  avg time  |  max time  |%varavg| %total
---------------------------------------------------------------
Pair    | 26.019     | 26.019     | 26.019     |   0.0 | 48.03
Neigh   | 26.182     | 26.182     | 26.182     |   0.0 | 48.33
Comm    | 0.62415    | 0.62415    | 0.62415    |   0.0 |  1.15
Output  | 0.00019979 | 0.00019979 | 0.00019979 |   0.0 |  0.00
Modify  | 1.0961     | 1.0961     | 1.0961     |   0.0 |  2.02
Other   |            | 0.2559     |            |       |  0.47

Nlocal:    19652 ave 19652 max 19652 min
Histogram: 1 0 0 0 0 0 0 0 0 0
Nghost:    13715 ave 13715 max 13715 min
Histogram: 1 0 0 0 0 0 0 0 0 0
Neighs:    700465 ave 700465 max 700465 min
Histogram: 1 0 0 0 0 0 0 0 0 0

Total # of neighbors = 700465
Ave neighs/atom = 35.6434
Neighbor list builds = 495
Dangerous builds not checked
Setting up Verlet run ...
  Unit style    : metal
  Current step  : 56495
  Time step     : 0.001
Per MPI rank memory allocation (min/avg/max) = 18.2 | 18.2 | 18.2 Mbytes
Step Temp Press TotEng PotEng Enthalpy Volume 
   56495     1604.821    274.54945    -74587.29   -78663.682   -74470.612    680892.88 
   57000    1594.1785    149.74945   -74669.169   -78718.528   -74605.576    680391.04 
Loop time of 54.0604 on 1 procs for 505 steps with 19652 atoms

Performance: 0.807 ns/day, 29.736 hours/ns, 9.341 timesteps/s
99.1% CPU use with 1 MPI tasks x no OpenMP threads

MPI task timing breakdown:
Section |  min time  |  avg time  |  max time  |%varavg| %total
---------------------------------------------------------------
Pair    | 26.047     | 26.047     | 26.047     |   0.0 | 48.18
Neigh   | 26.017     | 26.017     | 26.017     |   0.0 | 48.13
Comm    | 0.63999    | 0.63999    | 0.63999    |   0.0 |  1.18
Output  | 0.062749   | 0.062749   | 0.062749   |   0.0 |  0.12
Modify  | 1.0467     | 1.0467     | 1.0467     |   0.0 |  1.94
Other   |            | 0.2472     |            |       |  0.46

Nlocal:    19652 ave 19652 max 19652 min
Histogram: 1 0 0 0 0 0 0 0 0 0
Nghost:    13679 ave 13679 max 13679 min
Histogram: 1 0 0 0 0 0 0 0 0 0
Neighs:    700741 ave 700741 max 700741 min
Histogram: 1 0 0 0 0 0 0 0 0 0

Total # of neighbors = 700741
Ave neighs/atom = 35.6575
Neighbor list builds = 505
Dangerous builds not checked
Setting up Verlet run ...
  Unit style    : metal
  Current step  : 57000
  Time step     : 0.001
Per MPI rank memory allocation (min/avg/max) = 18.2 | 18.2 | 18.2 Mbytes
Step Temp Press TotEng PotEng Enthalpy Volume 
   57000    1594.1785    149.74945   -74669.169   -78718.528   -74605.576    680391.04 
   57495    1562.9666    447.99562   -74917.636   -78887.714   -74727.824     678831.8 
Loop time of 46.5225 on 1 procs for 495 steps with 19652 atoms

Performance: 0.919 ns/day, 26.107 hours/ns, 10.640 timesteps/s
100.1% CPU use with 1 MPI tasks x no OpenMP threads

MPI task timing breakdown:
Section |  min time  |  avg time  |  max time  |%varavg| %total
---------------------------------------------------------------
Pair    | 22.779     | 22.779     | 22.779     |   0.0 | 48.96
Neigh   | 22.087     | 22.087     | 22.087     |   0.0 | 47.48
Comm    | 0.54698    | 0.54698    | 0.54698    |   0.0 |  1.18
Output  | 0.000211   | 0.000211   | 0.000211   |   0.0 |  0.00
Modify  | 0.90183    | 0.90183    | 0.90183    |   0.0 |  1.94
Other   |            | 0.2074     |            |       |  0.45

Nlocal:    19652 ave 19652 max 19652 min
Histogram: 1 0 0 0 0 0 0 0 0 0
Nghost:    13805 ave 13805 max 13805 min
Histogram: 1 0 0 0 0 0 0 0 0 0
Neighs:    701863 ave 701863 max 701863 min
Histogram: 1 0 0 0 0 0 0 0 0 0

Total # of neighbors = 701863
Ave neighs/atom = 35.7146
Neighbor list builds = 495
Dangerous builds not checked
Setting up Verlet run ...
  Unit style    : metal
  Current step  : 57495
  Time step     : 0.001
Per MPI rank memory allocation (min/avg/max) = 18.2 | 18.2 | 18.2 Mbytes
Step Temp Press TotEng PotEng Enthalpy Volume 
   57495    1562.9666    447.99562   -74917.636   -78887.714   -74727.824     678831.8 
   58000    1539.5247    547.61168   -75024.617    -78935.15   -74792.804    678227.02 
Loop time of 50.4874 on 1 procs for 505 steps with 19652 atoms

Performance: 0.864 ns/day, 27.771 hours/ns, 10.002 timesteps/s
100.0% CPU use with 1 MPI tasks x no OpenMP threads

MPI task timing breakdown:
Section |  min time  |  avg time  |  max time  |%varavg| %total
---------------------------------------------------------------
Pair    | 25.079     | 25.079     | 25.079     |   0.0 | 49.67
Neigh   | 23.495     | 23.495     | 23.495     |   0.0 | 46.54
Comm    | 0.61396    | 0.61396    | 0.61396    |   0.0 |  1.22
Output  | 0.060984   | 0.060984   | 0.060984   |   0.0 |  0.12
Modify  | 1.0055     | 1.0055     | 1.0055     |   0.0 |  1.99
Other   |            | 0.233      |            |       |  0.46

Nlocal:    19652 ave 19652 max 19652 min
Histogram: 1 0 0 0 0 0 0 0 0 0
Nghost:    13751 ave 13751 max 13751 min
Histogram: 1 0 0 0 0 0 0 0 0 0
Neighs:    702173 ave 702173 max 702173 min
Histogram: 1 0 0 0 0 0 0 0 0 0

Total # of neighbors = 702173
Ave neighs/atom = 35.7304
Neighbor list builds = 505
Dangerous builds not checked
Setting up Verlet run ...
  Unit style    : metal
  Current step  : 58000
  Time step     : 0.001
Per MPI rank memory allocation (min/avg/max) = 18.2 | 18.2 | 18.2 Mbytes
Step Temp Press TotEng PotEng Enthalpy Volume 
   58000    1539.5247    547.61168   -75024.617    -78935.15   -74792.804    678227.02 
   58495    1509.3191    397.04658   -75217.171   -79050.979   -75049.228    677689.71 
Loop time of 54.1572 on 1 procs for 495 steps with 19652 atoms

Performance: 0.790 ns/day, 30.391 hours/ns, 9.140 timesteps/s
97.8% CPU use with 1 MPI tasks x no OpenMP threads

MPI task timing breakdown:
Section |  min time  |  avg time  |  max time  |%varavg| %total
---------------------------------------------------------------
Pair    | 26.325     | 26.325     | 26.325     |   0.0 | 48.61
Neigh   | 25.882     | 25.882     | 25.882     |   0.0 | 47.79
Comm    | 0.64105    | 0.64105    | 0.64105    |   0.0 |  1.18
Output  | 0.00019288 | 0.00019288 | 0.00019288 |   0.0 |  0.00
Modify  | 1.0459     | 1.0459     | 1.0459     |   0.0 |  1.93
Other   |            | 0.2629     |            |       |  0.49

Nlocal:    19652 ave 19652 max 19652 min
Histogram: 1 0 0 0 0 0 0 0 0 0
Nghost:    13756 ave 13756 max 13756 min
Histogram: 1 0 0 0 0 0 0 0 0 0
Neighs:    702492 ave 702492 max 702492 min
Histogram: 1 0 0 0 0 0 0 0 0 0

Total # of neighbors = 702492
Ave neighs/atom = 35.7466
Neighbor list builds = 495
Dangerous builds not checked
Setting up Verlet run ...
  Unit style    : metal
  Current step  : 58495
  Time step     : 0.001
Per MPI rank memory allocation (min/avg/max) = 18.2 | 18.2 | 18.2 Mbytes
Step Temp Press TotEng PotEng Enthalpy Volume 
   58495    1509.3191    397.04658   -75217.171   -79050.979   -75049.228    677689.71 
   59000    1486.2979    439.93891   -75381.916   -79157.248   -75196.081    676775.94 
Loop time of 56.7119 on 1 procs for 505 steps with 19652 atoms

Performance: 0.769 ns/day, 31.195 hours/ns, 8.905 timesteps/s
97.2% CPU use with 1 MPI tasks x no OpenMP threads

MPI task timing breakdown:
Section |  min time  |  avg time  |  max time  |%varavg| %total
---------------------------------------------------------------
Pair    | 27.319     | 27.319     | 27.319     |   0.0 | 48.17
Neigh   | 27.3       | 27.3       | 27.3       |   0.0 | 48.14
Comm    | 0.66755    | 0.66755    | 0.66755    |   0.0 |  1.18
Output  | 0.067417   | 0.067417   | 0.067417   |   0.0 |  0.12
Modify  | 1.097      | 1.097      | 1.097      |   0.0 |  1.93
Other   |            | 0.2605     |            |       |  0.46

Nlocal:    19652 ave 19652 max 19652 min
Histogram: 1 0 0 0 0 0 0 0 0 0
Nghost:    13732 ave 13732 max 13732 min
Histogram: 1 0 0 0 0 0 0 0 0 0
Neighs:    702652 ave 702652 max 702652 min
Histogram: 1 0 0 0 0 0 0 0 0 0

Total # of neighbors = 702652
Ave neighs/atom = 35.7547
Neighbor list builds = 505
Dangerous builds not checked
Setting up Verlet run ...
  Unit style    : metal
  Current step  : 59000
  Time step     : 0.001
Per MPI rank memory allocation (min/avg/max) = 18.2 | 18.2 | 18.2 Mbytes
Step Temp Press TotEng PotEng Enthalpy Volume 
   59000    1486.2979    439.93891   -75381.916   -79157.248   -75196.081    676775.94 
   59495    1467.8042    428.03035   -75581.863   -79310.219   -75401.337     675735.6 
Loop time of 53.8569 on 1 procs for 495 steps with 19652 atoms

Performance: 0.794 ns/day, 30.223 hours/ns, 9.191 timesteps/s
97.0% CPU use with 1 MPI tasks x no OpenMP threads

MPI task timing breakdown:
Section |  min time  |  avg time  |  max time  |%varavg| %total
---------------------------------------------------------------
Pair    | 26.042     | 26.042     | 26.042     |   0.0 | 48.35
Neigh   | 25.941     | 25.941     | 25.941     |   0.0 | 48.17
Comm    | 0.61137    | 0.61137    | 0.61137    |   0.0 |  1.14
Output  | 0.00020003 | 0.00020003 | 0.00020003 |   0.0 |  0.00
Modify  | 1.0227     | 1.0227     | 1.0227     |   0.0 |  1.90
Other   |            | 0.2403     |            |       |  0.45

Nlocal:    19652 ave 19652 max 19652 min
Histogram: 1 0 0 0 0 0 0 0 0 0
Nghost:    13775 ave 13775 max 13775 min
Histogram: 1 0 0 0 0 0 0 0 0 0
Neighs:    703327 ave 703327 max 703327 min
Histogram: 1 0 0 0 0 0 0 0 0 0

Total # of neighbors = 703327
Ave neighs/atom = 35.7891
Neighbor list builds = 495
Dangerous builds not checked
Setting up Verlet run ...
  Unit style    : metal
  Current step  : 59495
  Time step     : 0.001
Per MPI rank memory allocation (min/avg/max) = 18.2 | 18.2 | 18.2 Mbytes
Step Temp Press TotEng PotEng Enthalpy Volume 
   59495    1467.8042    428.03035   -75581.863   -79310.219   -75401.337     675735.6 
   60000    1452.1184    617.23676   -75704.709   -79393.222   -75444.723    674850.83 
Loop time of 54.4811 on 1 procs for 505 steps with 19652 atoms

Performance: 0.801 ns/day, 29.968 hours/ns, 9.269 timesteps/s
98.7% CPU use with 1 MPI tasks x no OpenMP threads

MPI task timing breakdown:
Section |  min time  |  avg time  |  max time  |%varavg| %total
---------------------------------------------------------------
Pair    | 26.189     | 26.189     | 26.189     |   0.0 | 48.07
Neigh   | 25.992     | 25.992     | 25.992     |   0.0 | 47.71
Comm    | 0.61489    | 0.61489    | 0.61489    |   0.0 |  1.13
Output  | 0.40846    | 0.40846    | 0.40846    |   0.0 |  0.75
Modify  | 1.0326     | 1.0326     | 1.0326     |   0.0 |  1.90
Other   |            | 0.2447     |            |       |  0.45

Nlocal:    19652 ave 19652 max 19652 min
Histogram: 1 0 0 0 0 0 0 0 0 0
Nghost:    13765 ave 13765 max 13765 min
Histogram: 1 0 0 0 0 0 0 0 0 0
Neighs:    703788 ave 703788 max 703788 min
Histogram: 1 0 0 0 0 0 0 0 0 0

Total # of neighbors = 703788
Ave neighs/atom = 35.8125
Neighbor list builds = 505
Dangerous builds not checked
Setting up Verlet run ...
  Unit style    : metal
  Current step  : 60000
  Time step     : 0.001
Per MPI rank memory allocation (min/avg/max) = 18.2 | 18.2 | 18.2 Mbytes
Step Temp Press TotEng PotEng Enthalpy Volume 
   60000    1452.1184    617.23676   -75704.709   -79393.222   -75444.723    674850.83 
   60495    1405.3394    676.59399   -75895.807   -79465.497   -75611.166    674031.46 
Loop time of 52.0065 on 1 procs for 495 steps with 19652 atoms

Performance: 0.822 ns/day, 29.184 hours/ns, 9.518 timesteps/s
97.1% CPU use with 1 MPI tasks x no OpenMP threads

MPI task timing breakdown:
Section |  min time  |  avg time  |  max time  |%varavg| %total
---------------------------------------------------------------
Pair    | 25.197     | 25.197     | 25.197     |   0.0 | 48.45
Neigh   | 24.993     | 24.993     | 24.993     |   0.0 | 48.06
Comm    | 0.6033     | 0.6033     | 0.6033     |   0.0 |  1.16
Output  | 0.00014591 | 0.00014591 | 0.00014591 |   0.0 |  0.00
Modify  | 0.98349    | 0.98349    | 0.98349    |   0.0 |  1.89
Other   |            | 0.2292     |            |       |  0.44

Nlocal:    19652 ave 19652 max 19652 min
Histogram: 1 0 0 0 0 0 0 0 0 0
Nghost:    13800 ave 13800 max 13800 min
Histogram: 1 0 0 0 0 0 0 0 0 0
Neighs:    704465 ave 704465 max 704465 min
Histogram: 1 0 0 0 0 0 0 0 0 0

Total # of neighbors = 704465
Ave neighs/atom = 35.847
Neighbor list builds = 495
Dangerous builds not checked
Setting up Verlet run ...
  Unit style    : metal
  Current step  : 60495
  Time step     : 0.001
Per MPI rank memory allocation (min/avg/max) = 18.2 | 18.2 | 18.2 Mbytes
Step Temp Press TotEng PotEng Enthalpy Volume 
   60495    1405.3394    676.59399   -75895.807   -79465.497   -75611.166    674031.46 
   61000    1393.2519     197.4915   -76054.781   -79593.768   -75971.718    673866.13 
Loop time of 49.4389 on 1 procs for 505 steps with 19652 atoms

Performance: 0.883 ns/day, 27.194 hours/ns, 10.215 timesteps/s
98.4% CPU use with 1 MPI tasks x no OpenMP threads

MPI task timing breakdown:
Section |  min time  |  avg time  |  max time  |%varavg| %total
---------------------------------------------------------------
Pair    | 24.027     | 24.027     | 24.027     |   0.0 | 48.60
Neigh   | 23.628     | 23.628     | 23.628     |   0.0 | 47.79
Comm    | 0.54904    | 0.54904    | 0.54904    |   0.0 |  1.11
Output  | 0.066412   | 0.066412   | 0.066412   |   0.0 |  0.13
Modify  | 0.95438    | 0.95438    | 0.95438    |   0.0 |  1.93
Other   |            | 0.2139     |            |       |  0.43

Nlocal:    19652 ave 19652 max 19652 min
Histogram: 1 0 0 0 0 0 0 0 0 0
Nghost:    13759 ave 13759 max 13759 min
Histogram: 1 0 0 0 0 0 0 0 0 0
Neighs:    703814 ave 703814 max 703814 min
Histogram: 1 0 0 0 0 0 0 0 0 0

Total # of neighbors = 703814
Ave neighs/atom = 35.8139
Neighbor list builds = 505
Dangerous builds not checked
Setting up Verlet run ...
  Unit style    : metal
  Current step  : 61000
  Time step     : 0.001
Per MPI rank memory allocation (min/avg/max) = 18.2 | 18.2 | 18.2 Mbytes
Step Temp Press TotEng PotEng Enthalpy Volume 
   61000    1393.2519     197.4915   -76054.781   -79593.768   -75971.718    673866.13 
   61495    1361.2478    353.68866   -76234.031   -79691.724   -76085.495    672853.69 
Loop time of 48.2861 on 1 procs for 495 steps with 19652 atoms

Performance: 0.886 ns/day, 27.097 hours/ns, 10.251 timesteps/s
98.7% CPU use with 1 MPI tasks x no OpenMP threads

MPI task timing breakdown:
Section |  min time  |  avg time  |  max time  |%varavg| %total
---------------------------------------------------------------
Pair    | 23.48      | 23.48      | 23.48      |   0.0 | 48.63
Neigh   | 23.143     | 23.143     | 23.143     |   0.0 | 47.93
Comm    | 0.53043    | 0.53043    | 0.53043    |   0.0 |  1.10
Output  | 0.00020003 | 0.00020003 | 0.00020003 |   0.0 |  0.00
Modify  | 0.92568    | 0.92568    | 0.92568    |   0.0 |  1.92
Other   |            | 0.2065     |            |       |  0.43

Nlocal:    19652 ave 19652 max 19652 min
Histogram: 1 0 0 0 0 0 0 0 0 0
Nghost:    13798 ave 13798 max 13798 min
Histogram: 1 0 0 0 0 0 0 0 0 0
Neighs:    704699 ave 704699 max 704699 min
Histogram: 1 0 0 0 0 0 0 0 0 0

Total # of neighbors = 704699
Ave neighs/atom = 35.8589
Neighbor list builds = 495
Dangerous builds not checked
Setting up Verlet run ...
  Unit style    : metal
  Current step  : 61495
  Time step     : 0.001
Per MPI rank memory allocation (min/avg/max) = 18.2 | 18.2 | 18.2 Mbytes
Step Temp Press TotEng PotEng Enthalpy Volume 
   61495    1361.2478    353.68866   -76234.031   -79691.724   -76085.495    672853.69 
   62000    1351.3033    388.28505   -76394.287   -79826.721   -76231.401    672117.34 
Loop time of 51.9573 on 1 procs for 505 steps with 19652 atoms

Performance: 0.840 ns/day, 28.579 hours/ns, 9.720 timesteps/s
100.1% CPU use with 1 MPI tasks x no OpenMP threads

MPI task timing breakdown:
Section |  min time  |  avg time  |  max time  |%varavg| %total
---------------------------------------------------------------
Pair    | 25.255     | 25.255     | 25.255     |   0.0 | 48.61
Neigh   | 24.82      | 24.82      | 24.82      |   0.0 | 47.77
Comm    | 0.60662    | 0.60662    | 0.60662    |   0.0 |  1.17
Output  | 0.042259   | 0.042259   | 0.042259   |   0.0 |  0.08
Modify  | 1.0006     | 1.0006     | 1.0006     |   0.0 |  1.93
Other   |            | 0.2327     |            |       |  0.45

Nlocal:    19652 ave 19652 max 19652 min
Histogram: 1 0 0 0 0 0 0 0 0 0
Nghost:    13747 ave 13747 max 13747 min
Histogram: 1 0 0 0 0 0 0 0 0 0
Neighs:    704700 ave 704700 max 704700 min
Histogram: 1 0 0 0 0 0 0 0 0 0

Total # of neighbors = 704700
Ave neighs/atom = 35.8589
Neighbor list builds = 505
Dangerous builds not checked
Setting up Verlet run ...
  Unit style    : metal
  Current step  : 62000
  Time step     : 0.001
Per MPI rank memory allocation (min/avg/max) = 18.2 | 18.2 | 18.2 Mbytes
Step Temp Press TotEng PotEng Enthalpy Volume 
   62000    1351.3033    388.28505   -76394.287   -79826.721   -76231.401    672117.34 
   62495    1305.6045    327.08682   -76586.818   -79903.172   -76449.686    671714.69 
Loop time of 51.6499 on 1 procs for 495 steps with 19652 atoms

Performance: 0.828 ns/day, 28.984 hours/ns, 9.584 timesteps/s
98.0% CPU use with 1 MPI tasks x no OpenMP threads

MPI task timing breakdown:
Section |  min time  |  avg time  |  max time  |%varavg| %total
---------------------------------------------------------------
Pair    | 25.256     | 25.256     | 25.256     |   0.0 | 48.90
Neigh   | 24.531     | 24.531     | 24.531     |   0.0 | 47.50
Comm    | 0.61654    | 0.61654    | 0.61654    |   0.0 |  1.19
Output  | 0.00014901 | 0.00014901 | 0.00014901 |   0.0 |  0.00
Modify  | 1.0174     | 1.0174     | 1.0174     |   0.0 |  1.97
Other   |            | 0.2288     |            |       |  0.44

Nlocal:    19652 ave 19652 max 19652 min
Histogram: 1 0 0 0 0 0 0 0 0 0
Nghost:    13801 ave 13801 max 13801 min
Histogram: 1 0 0 0 0 0 0 0 0 0
Neighs:    704511 ave 704511 max 704511 min
Histogram: 1 0 0 0 0 0 0 0 0 0

Total # of neighbors = 704511
Ave neighs/atom = 35.8493
Neighbor list builds = 495
Dangerous builds not checked
Setting up Verlet run ...
  Unit style    : metal
  Current step  : 62495
  Time step     : 0.001
Per MPI rank memory allocation (min/avg/max) = 18.2 | 18.2 | 18.2 Mbytes
Step Temp Press TotEng PotEng Enthalpy Volume 
   62495    1305.6045    327.08682   -76586.818   -79903.172   -76449.686    671714.69 
   63000    1291.2884    51.260938   -76746.859   -80026.849   -76725.375     671493.7 
Loop time of 52.1173 on 1 procs for 505 steps with 19652 atoms

Performance: 0.837 ns/day, 28.667 hours/ns, 9.690 timesteps/s
99.0% CPU use with 1 MPI tasks x no OpenMP threads

MPI task timing breakdown:
Section |  min time  |  avg time  |  max time  |%varavg| %total
---------------------------------------------------------------
Pair    | 25.452     | 25.452     | 25.452     |   0.0 | 48.84
Neigh   | 24.778     | 24.778     | 24.778     |   0.0 | 47.54
Comm    | 0.60772    | 0.60772    | 0.60772    |   0.0 |  1.17
Output  | 0.041383   | 0.041383   | 0.041383   |   0.0 |  0.08
Modify  | 1.0067     | 1.0067     | 1.0067     |   0.0 |  1.93
Other   |            | 0.2315     |            |       |  0.44

Nlocal:    19652 ave 19652 max 19652 min
Histogram: 1 0 0 0 0 0 0 0 0 0
Nghost:    13783 ave 13783 max 13783 min
Histogram: 1 0 0 0 0 0 0 0 0 0
Neighs:    704221 ave 704221 max 704221 min
Histogram: 1 0 0 0 0 0 0 0 0 0

Total # of neighbors = 704221
Ave neighs/atom = 35.8346
Neighbor list builds = 505
Dangerous builds not checked
Setting up Verlet run ...
  Unit style    : metal
  Current step  : 63000
  Time step     : 0.001
Per MPI rank memory allocation (min/avg/max) = 18.2 | 18.2 | 18.2 Mbytes
Step Temp Press TotEng PotEng Enthalpy Volume 
   63000    1291.2884    51.260938   -76746.859   -80026.849   -76725.375     671493.7 
   63495    1260.3752    266.01904    -76938.42   -80139.888   -76827.172     670027.9 
Loop time of 52.3363 on 1 procs for 495 steps with 19652 atoms

Performance: 0.817 ns/day, 29.369 hours/ns, 9.458 timesteps/s
100.1% CPU use with 1 MPI tasks x no OpenMP threads

MPI task timing breakdown:
Section |  min time  |  avg time  |  max time  |%varavg| %total
---------------------------------------------------------------
Pair    | 25.448     | 25.448     | 25.448     |   0.0 | 48.62
Neigh   | 25.035     | 25.035     | 25.035     |   0.0 | 47.83
Comm    | 0.60677    | 0.60677    | 0.60677    |   0.0 |  1.16
Output  | 0.00020099 | 0.00020099 | 0.00020099 |   0.0 |  0.00
Modify  | 1.009      | 1.009      | 1.009      |   0.0 |  1.93
Other   |            | 0.2375     |            |       |  0.45

Nlocal:    19652 ave 19652 max 19652 min
Histogram: 1 0 0 0 0 0 0 0 0 0
Nghost:    13790 ave 13790 max 13790 min
Histogram: 1 0 0 0 0 0 0 0 0 0
Neighs:    705469 ave 705469 max 705469 min
Histogram: 1 0 0 0 0 0 0 0 0 0

Total # of neighbors = 705469
Ave neighs/atom = 35.8981
Neighbor list builds = 495
Dangerous builds not checked
Setting up Verlet run ...
  Unit style    : metal
  Current step  : 63495
  Time step     : 0.001
Per MPI rank memory allocation (min/avg/max) = 18.2 | 18.2 | 18.2 Mbytes
Step Temp Press TotEng PotEng Enthalpy Volume 
   63495    1260.3752    266.01904    -76938.42   -80139.888   -76827.172     670027.9 
   64000    1250.7217   -134.82235   -77037.092   -80214.039   -77093.518    670538.56 
Loop time of 52.518 on 1 procs for 505 steps with 19652 atoms

Performance: 0.831 ns/day, 28.888 hours/ns, 9.616 timesteps/s
98.7% CPU use with 1 MPI tasks x no OpenMP threads

MPI task timing breakdown:
Section |  min time  |  avg time  |  max time  |%varavg| %total
---------------------------------------------------------------
Pair    | 25.499     | 25.499     | 25.499     |   0.0 | 48.55
Neigh   | 25.127     | 25.127     | 25.127     |   0.0 | 47.84
Comm    | 0.5921     | 0.5921     | 0.5921     |   0.0 |  1.13
Output  | 0.067316   | 0.067316   | 0.067316   |   0.0 |  0.13
Modify  | 1.0024     | 1.0024     | 1.0024     |   0.0 |  1.91
Other   |            | 0.2298     |            |       |  0.44

Nlocal:    19652 ave 19652 max 19652 min
Histogram: 1 0 0 0 0 0 0 0 0 0
Nghost:    13813 ave 13813 max 13813 min
Histogram: 1 0 0 0 0 0 0 0 0 0
Neighs:    704324 ave 704324 max 704324 min
Histogram: 1 0 0 0 0 0 0 0 0 0

Total # of neighbors = 704324
Ave neighs/atom = 35.8398
Neighbor list builds = 505
Dangerous builds not checked
Setting up Verlet run ...
  Unit style    : metal
  Current step  : 64000
  Time step     : 0.001
Per MPI rank memory allocation (min/avg/max) = 18.2 | 18.2 | 18.2 Mbytes
Step Temp Press TotEng PotEng Enthalpy Volume 
   64000    1250.7217   -134.82235   -77037.092   -80214.039   -77093.518    670538.56 
   64495    1218.0878   -123.42547   -77215.936   -80309.989   -77267.546    669951.46 
Loop time of 47.3249 on 1 procs for 495 steps with 19652 atoms

Performance: 0.904 ns/day, 26.557 hours/ns, 10.460 timesteps/s
100.0% CPU use with 1 MPI tasks x no OpenMP threads

MPI task timing breakdown:
Section |  min time  |  avg time  |  max time  |%varavg| %total
---------------------------------------------------------------
Pair    | 23.037     | 23.037     | 23.037     |   0.0 | 48.68
Neigh   | 22.657     | 22.657     | 22.657     |   0.0 | 47.88
Comm    | 0.52706    | 0.52706    | 0.52706    |   0.0 |  1.11
Output  | 0.00014496 | 0.00014496 | 0.00014496 |   0.0 |  0.00
Modify  | 0.89626    | 0.89626    | 0.89626    |   0.0 |  1.89
Other   |            | 0.2068     |            |       |  0.44

Nlocal:    19652 ave 19652 max 19652 min
Histogram: 1 0 0 0 0 0 0 0 0 0
Nghost:    13834 ave 13834 max 13834 min
Histogram: 1 0 0 0 0 0 0 0 0 0
Neighs:    704792 ave 704792 max 704792 min
Histogram: 1 0 0 0 0 0 0 0 0 0

[...]
Step Temp Press TotEng PotEng Enthalpy Volume 
   80000    445.93067    149.04866   -81983.235   -83115.939   -81922.773    649926.53 
   80495    418.74978    82.728012   -82126.325   -83189.987   -82092.789    649478.78 
Loop time of 52.067 on 1 procs for 495 steps with 19652 atoms

Performance: 0.821 ns/day, 29.218 hours/ns, 9.507 timesteps/s
99.8% CPU use with 1 MPI tasks x no OpenMP threads

MPI task timing breakdown:
Section |  min time  |  avg time  |  max time  |%varavg| %total
---------------------------------------------------------------
Pair    | 25.794     | 25.794     | 25.794     |   0.0 | 49.54
Neigh   | 24.44      | 24.44      | 24.44      |   0.0 | 46.94
Comm    | 0.60234    | 0.60234    | 0.60234    |   0.0 |  1.16
Output  | 0.00018692 | 0.00018692 | 0.00018692 |   0.0 |  0.00
Modify  | 0.99606    | 0.99606    | 0.99606    |   0.0 |  1.91
Other   |            | 0.2347     |            |       |  0.45

Nlocal:    19652 ave 19652 max 19652 min
Histogram: 1 0 0 0 0 0 0 0 0 0
Nghost:    13999 ave 13999 max 13999 min
Histogram: 1 0 0 0 0 0 0 0 0 0
Neighs:    710161 ave 710161 max 710161 min
Histogram: 1 0 0 0 0 0 0 0 0 0

Total # of neighbors = 710161
Ave neighs/atom = 36.1368
Neighbor list builds = 495
Dangerous builds not checked
Setting up Verlet run ...
  Unit style    : metal
  Current step  : 80495
  Time step     : 0.001
Per MPI rank memory allocation (min/avg/max) = 18.2 | 18.2 | 18.2 Mbytes
Step Temp Press TotEng PotEng Enthalpy Volume 
   80495    418.74978    82.728012   -82126.325   -83189.987   -82092.789    649478.78 
   81000    396.82186    10.111249    -82262.19   -83270.153   -82258.094    649010.48 
Loop time of 51.953 on 1 procs for 505 steps with 19652 atoms

Performance: 0.840 ns/day, 28.577 hours/ns, 9.720 timesteps/s
99.5% CPU use with 1 MPI tasks x no OpenMP threads

MPI task timing breakdown:
Section |  min time  |  avg time  |  max time  |%varavg| %total
---------------------------------------------------------------
Pair    | 25.669     | 25.669     | 25.669     |   0.0 | 49.41
Neigh   | 24.421     | 24.421     | 24.421     |   0.0 | 47.01
Comm    | 0.58117    | 0.58117    | 0.58117    |   0.0 |  1.12
Output  | 0.066879   | 0.066879   | 0.066879   |   0.0 |  0.13
Modify  | 0.98494    | 0.98494    | 0.98494    |   0.0 |  1.90
Other   |            | 0.2291     |            |       |  0.44

Nlocal:    19652 ave 19652 max 19652 min
Histogram: 1 0 0 0 0 0 0 0 0 0
Nghost:    13988 ave 13988 max 13988 min
Histogram: 1 0 0 0 0 0 0 0 0 0
Neighs:    710007 ave 710007 max 710007 min
Histogram: 1 0 0 0 0 0 0 0 0 0

Total # of neighbors = 710007
Ave neighs/atom = 36.129
Neighbor list builds = 505
Dangerous builds not checked
Setting up Verlet run ...
  Unit style    : metal
  Current step  : 81000
  Time step     : 0.001
Per MPI rank memory allocation (min/avg/max) = 18.2 | 18.2 | 18.2 Mbytes
Step Temp Press TotEng PotEng Enthalpy Volume 
   81000    396.82186    10.111249    -82262.19   -83270.153   -82258.094    649010.48 
   81495    371.85448    121.27303   -82400.182   -83344.726   -82351.103    648402.38 
Loop time of 52.8585 on 1 procs for 495 steps with 19652 atoms

Performance: 0.809 ns/day, 29.662 hours/ns, 9.365 timesteps/s
98.3% CPU use with 1 MPI tasks x no OpenMP threads

MPI task timing breakdown:
Section |  min time  |  avg time  |  max time  |%varavg| %total
---------------------------------------------------------------
Pair    | 26.163     | 26.163     | 26.163     |   0.0 | 49.50
Neigh   | 24.87      | 24.87      | 24.87      |   0.0 | 47.05
Comm    | 0.59837    | 0.59837    | 0.59837    |   0.0 |  1.13
Output  | 0.00018811 | 0.00018811 | 0.00018811 |   0.0 |  0.00
Modify  | 0.99273    | 0.99273    | 0.99273    |   0.0 |  1.88
Other   |            | 0.2334     |            |       |  0.44

Nlocal:    19652 ave 19652 max 19652 min
Histogram: 1 0 0 0 0 0 0 0 0 0
Nghost:    13982 ave 13982 max 13982 min
Histogram: 1 0 0 0 0 0 0 0 0 0
Neighs:    710141 ave 710141 max 710141 min
Histogram: 1 0 0 0 0 0 0 0 0 0

Total # of neighbors = 710141
Ave neighs/atom = 36.1358
Neighbor list builds = 495
Dangerous builds not checked
Setting up Verlet run ...
  Unit style    : metal
  Current step  : 81495
  Time step     : 0.001
Per MPI rank memory allocation (min/avg/max) = 18.2 | 18.2 | 18.2 Mbytes
Step Temp Press TotEng PotEng Enthalpy Volume 
   81495    371.85448    121.27303   -82400.182   -83344.726   -82351.103    648402.38 
   82000     346.7189   -58.052694   -82534.185   -83414.883    -82557.67    648155.23 
Loop time of 52.9141 on 1 procs for 505 steps with 19652 atoms

Performance: 0.825 ns/day, 29.106 hours/ns, 9.544 timesteps/s
99.5% CPU use with 1 MPI tasks x no OpenMP threads

MPI task timing breakdown:
Section |  min time  |  avg time  |  max time  |%varavg| %total
---------------------------------------------------------------
Pair    | 26.094     | 26.094     | 26.094     |   0.0 | 49.31
Neigh   | 24.966     | 24.966     | 24.966     |   0.0 | 47.18
Comm    | 0.58592    | 0.58592    | 0.58592    |   0.0 |  1.11
Output  | 0.040633   | 0.040633   | 0.040633   |   0.0 |  0.08
Modify  | 0.9968     | 0.9968     | 0.9968     |   0.0 |  1.88
Other   |            | 0.2311     |            |       |  0.44

Nlocal:    19652 ave 19652 max 19652 min
Histogram: 1 0 0 0 0 0 0 0 0 0
Nghost:    14001 ave 14001 max 14001 min
Histogram: 1 0 0 0 0 0 0 0 0 0
Neighs:    710220 ave 710220 max 710220 min
Histogram: 1 0 0 0 0 0 0 0 0 0

Total # of neighbors = 710220
Ave neighs/atom = 36.1398
Neighbor list builds = 505
Dangerous builds not checked
Setting up Verlet run ...
  Unit style    : metal
  Current step  : 82000
  Time step     : 0.001
Per MPI rank memory allocation (min/avg/max) = 18.2 | 18.2 | 18.2 Mbytes
Step Temp Press TotEng PotEng Enthalpy Volume 
   82000     346.7189   -58.052694   -82534.185   -83414.883    -82557.67    648155.23 
   82495    322.84835    126.72861   -82669.824   -83489.889   -82618.622    647326.17 
Loop time of 52.566 on 1 procs for 495 steps with 19652 atoms

Performance: 0.814 ns/day, 29.498 hours/ns, 9.417 timesteps/s
96.8% CPU use with 1 MPI tasks x no OpenMP threads

MPI task timing breakdown:
Section |  min time  |  avg time  |  max time  |%varavg| %total
---------------------------------------------------------------
Pair    | 26.04      | 26.04      | 26.04      |   0.0 | 49.54
Neigh   | 24.693     | 24.693     | 24.693     |   0.0 | 46.98
Comm    | 0.57973    | 0.57973    | 0.57973    |   0.0 |  1.10
Output  | 0.00019503 | 0.00019503 | 0.00019503 |   0.0 |  0.00
Modify  | 1.0043     | 1.0043     | 1.0043     |   0.0 |  1.91
Other   |            | 0.248      |            |       |  0.47

Nlocal:    19652 ave 19652 max 19652 min
Histogram: 1 0 0 0 0 0 0 0 0 0
Nghost:    14019 ave 14019 max 14019 min
Histogram: 1 0 0 0 0 0 0 0 0 0
Neighs:    710903 ave 710903 max 710903 min
Histogram: 1 0 0 0 0 0 0 0 0 0

Total # of neighbors = 710903
Ave neighs/atom = 36.1746
Neighbor list builds = 495
Dangerous builds not checked
Setting up Verlet run ...
  Unit style    : metal
  Current step  : 82495
  Time step     : 0.001
Per MPI rank memory allocation (min/avg/max) = 18.2 | 18.2 | 18.2 Mbytes
Step Temp Press TotEng PotEng Enthalpy Volume 
   82495    322.84835    126.72861   -82669.824   -83489.889   -82618.622    647326.17 
   83000    297.38221   -33.604655   -82801.607   -83556.985   -82815.181    647159.09 
Loop time of 53.2073 on 1 procs for 505 steps with 19652 atoms

Performance: 0.820 ns/day, 29.267 hours/ns, 9.491 timesteps/s
98.5% CPU use with 1 MPI tasks x no OpenMP threads

MPI task timing breakdown:
Section |  min time  |  avg time  |  max time  |%varavg| %total
---------------------------------------------------------------
Pair    | 26.34      | 26.34      | 26.34      |   0.0 | 49.50
Neigh   | 24.956     | 24.956     | 24.956     |   0.0 | 46.90
Comm    | 0.59897    | 0.59897    | 0.59897    |   0.0 |  1.13
Output  | 0.066885   | 0.066885   | 0.066885   |   0.0 |  0.13
Modify  | 1.0138     | 1.0138     | 1.0138     |   0.0 |  1.91
Other   |            | 0.2325     |            |       |  0.44

Nlocal:    19652 ave 19652 max 19652 min
Histogram: 1 0 0 0 0 0 0 0 0 0
Nghost:    13989 ave 13989 max 13989 min
Histogram: 1 0 0 0 0 0 0 0 0 0
Neighs:    710904 ave 710904 max 710904 min
Histogram: 1 0 0 0 0 0 0 0 0 0

Total # of neighbors = 710904
Ave neighs/atom = 36.1746
Neighbor list builds = 505
Dangerous builds not checked
Setting up Verlet run ...
  Unit style    : metal
  Current step  : 83000
  Time step     : 0.001
Per MPI rank memory allocation (min/avg/max) = 18.2 | 18.2 | 18.2 Mbytes
Step Temp Press TotEng PotEng Enthalpy Volume 
   83000    297.38221   -33.604655   -82801.607   -83556.985   -82815.181    647159.09 
   83495    272.18657   -104.45151   -82934.378   -83625.757   -82976.542    646748.93 
Loop time of 57.0834 on 1 procs for 495 steps with 19652 atoms

Performance: 0.749 ns/day, 32.033 hours/ns, 8.672 timesteps/s
95.9% CPU use with 1 MPI tasks x no OpenMP threads

MPI task timing breakdown:
Section |  min time  |  avg time  |  max time  |%varavg| %total
---------------------------------------------------------------
Pair    | 28.384     | 28.384     | 28.384     |   0.0 | 49.72
Neigh   | 26.709     | 26.709     | 26.709     |   0.0 | 46.79
Comm    | 0.65614    | 0.65614    | 0.65614    |   0.0 |  1.15
Output  | 0.00019217 | 0.00019217 | 0.00019217 |   0.0 |  0.00
Modify  | 1.072      | 1.072      | 1.072      |   0.0 |  1.88
Other   |            | 0.2619     |            |       |  0.46

Nlocal:    19652 ave 19652 max 19652 min
Histogram: 1 0 0 0 0 0 0 0 0 0
Nghost:    14048 ave 14048 max 14048 min
Histogram: 1 0 0 0 0 0 0 0 0 0
Neighs:    710673 ave 710673 max 710673 min
Histogram: 1 0 0 0 0 0 0 0 0 0

Total # of neighbors = 710673
Ave neighs/atom = 36.1629
Neighbor list builds = 495
Dangerous builds not checked
Setting up Verlet run ...
  Unit style    : metal
  Current step  : 83495
  Time step     : 0.001
Per MPI rank memory allocation (min/avg/max) = 18.2 | 18.2 | 18.2 Mbytes
Step Temp Press TotEng PotEng Enthalpy Volume 
   83495    272.18657   -104.45151   -82934.378   -83625.757   -82976.542    646748.93 
   84000    251.08898    8.8479462   -83065.331    -83703.12   -83061.763    646165.75 
Loop time of 54.7275 on 1 procs for 505 steps with 19652 atoms

Performance: 0.797 ns/day, 30.103 hours/ns, 9.228 timesteps/s
97.2% CPU use with 1 MPI tasks x no OpenMP threads

MPI task timing breakdown:
Section |  min time  |  avg time  |  max time  |%varavg| %total
---------------------------------------------------------------
Pair    | 27.33      | 27.33      | 27.33      |   0.0 | 49.94
Neigh   | 25.394     | 25.394     | 25.394     |   0.0 | 46.40
Comm    | 0.64849    | 0.64849    | 0.64849    |   0.0 |  1.18
Output  | 0.066905   | 0.066905   | 0.066905   |   0.0 |  0.12
Modify  | 1.0418     | 1.0418     | 1.0418     |   0.0 |  1.90
Other   |            | 0.2462     |            |       |  0.45

Nlocal:    19652 ave 19652 max 19652 min
Histogram: 1 0 0 0 0 0 0 0 0 0
Nghost:    14002 ave 14002 max 14002 min
Histogram: 1 0 0 0 0 0 0 0 0 0
Neighs:    710861 ave 710861 max 710861 min
Histogram: 1 0 0 0 0 0 0 0 0 0

Total # of neighbors = 710861
Ave neighs/atom = 36.1725
Neighbor list builds = 505
Dangerous builds not checked
Setting up Verlet run ...
  Unit style    : metal
  Current step  : 84000
  Time step     : 0.001
Per MPI rank memory allocation (min/avg/max) = 18.2 | 18.2 | 18.2 Mbytes
Step Temp Press TotEng PotEng Enthalpy Volume 
   84000    251.08898    8.8479462   -83065.331    -83703.12   -83061.763    646165.75 
   84495    223.65786    97.340367   -83194.784   -83762.896   -83155.573    645405.16 
Loop time of 49.4646 on 1 procs for 495 steps with 19652 atoms

Performance: 0.865 ns/day, 27.758 hours/ns, 10.007 timesteps/s
99.7% CPU use with 1 MPI tasks x no OpenMP threads

MPI task timing breakdown:
Section |  min time  |  avg time  |  max time  |%varavg| %total
---------------------------------------------------------------
Pair    | 24.614     | 24.614     | 24.614     |   0.0 | 49.76
Neigh   | 23.131     | 23.131     | 23.131     |   0.0 | 46.76
Comm    | 0.56526    | 0.56526    | 0.56526    |   0.0 |  1.14
Output  | 0.00013709 | 0.00013709 | 0.00013709 |   0.0 |  0.00
Modify  | 0.93731    | 0.93731    | 0.93731    |   0.0 |  1.89
Other   |            | 0.2178     |            |       |  0.44

Nlocal:    19652 ave 19652 max 19652 min
Histogram: 1 0 0 0 0 0 0 0 0 0
Nghost:    14027 ave 14027 max 14027 min
Histogram: 1 0 0 0 0 0 0 0 0 0
Neighs:    711550 ave 711550 max 711550 min
Histogram: 1 0 0 0 0 0 0 0 0 0

Total # of neighbors = 711550
Ave neighs/atom = 36.2075
Neighbor list builds = 495
Dangerous builds not checked
Setting up Verlet run ...
  Unit style    : metal
  Current step  : 84495
  Time step     : 0.001
Per MPI rank memory allocation (min/avg/max) = 18.2 | 18.2 | 18.2 Mbytes
Step Temp Press TotEng PotEng Enthalpy Volume 
   84495    223.65786    97.340367   -83194.784   -83762.896   -83155.573    645405.16 
   85000    200.30402    70.332091   -83327.097   -83835.888   -83298.782    645019.75 
Loop time of 52.5078 on 1 procs for 505 steps with 19652 atoms

Performance: 0.831 ns/day, 28.882 hours/ns, 9.618 timesteps/s
99.4% CPU use with 1 MPI tasks x no OpenMP threads

MPI task timing breakdown:
Section |  min time  |  avg time  |  max time  |%varavg| %total
---------------------------------------------------------------
Pair    | 26.101     | 26.101     | 26.101     |   0.0 | 49.71
Neigh   | 24.437     | 24.437     | 24.437     |   0.0 | 46.54
Comm    | 0.59737    | 0.59737    | 0.59737    |   0.0 |  1.14
Output  | 0.12956    | 0.12956    | 0.12956    |   0.0 |  0.25
Modify  | 1.0099     | 1.0099     | 1.0099     |   0.0 |  1.92
Other   |            | 0.2333     |            |       |  0.44

Nlocal:    19652 ave 19652 max 19652 min
Histogram: 1 0 0 0 0 0 0 0 0 0
Nghost:    14043 ave 14043 max 14043 min
Histogram: 1 0 0 0 0 0 0 0 0 0
Neighs:    711395 ave 711395 max 711395 min
Histogram: 1 0 0 0 0 0 0 0 0 0

Total # of neighbors = 711395
Ave neighs/atom = 36.1996
Neighbor list builds = 505
Dangerous builds not checked
Setting up Verlet run ...
  Unit style    : metal
  Current step  : 85000
  Time step     : 0.001
Per MPI rank memory allocation (min/avg/max) = 18.2 | 18.2 | 18.2 Mbytes
Step Temp Press TotEng PotEng Enthalpy Volume 
   85000    200.30402    70.332091   -83327.097   -83835.888   -83298.782    645019.75 
   85495    175.19908    38.865168    -83452.89   -83897.912   -83437.253     644604.6 
Loop time of 54.8298 on 1 procs for 495 steps with 19652 atoms

Performance: 0.780 ns/day, 30.769 hours/ns, 9.028 timesteps/s
95.9% CPU use with 1 MPI tasks x no OpenMP threads

MPI task timing breakdown:
Section |  min time  |  avg time  |  max time  |%varavg| %total
---------------------------------------------------------------
Pair    | 27.472     | 27.472     | 27.472     |   0.0 | 50.10
Neigh   | 25.426     | 25.426     | 25.426     |   0.0 | 46.37
Comm    | 0.62783    | 0.62783    | 0.62783    |   0.0 |  1.15
Output  | 0.00020385 | 0.00020385 | 0.00020385 |   0.0 |  0.00
Modify  | 1.0681     | 1.0681     | 1.0681     |   0.0 |  1.95
Other   |            | 0.2359     |            |       |  0.43

Nlocal:    19652 ave 19652 max 19652 min
Histogram: 1 0 0 0 0 0 0 0 0 0
Nghost:    14057 ave 14057 max 14057 min
Histogram: 1 0 0 0 0 0 0 0 0 0
Neighs:    711712 ave 711712 max 711712 min
Histogram: 1 0 0 0 0 0 0 0 0 0

Total # of neighbors = 711712
Ave neighs/atom = 36.2158
Neighbor list builds = 495
Dangerous builds not checked
Setting up Verlet run ...
  Unit style    : metal
  Current step  : 85495
  Time step     : 0.001
Per MPI rank memory allocation (min/avg/max) = 18.2 | 18.2 | 18.2 Mbytes
Step Temp Press TotEng PotEng Enthalpy Volume 
   85495    175.19908    38.865168    -83452.89   -83897.912   -83437.253     644604.6 
   86000    150.87825   -55.685575   -83582.917   -83966.162   -83605.307    644195.75 
Loop time of 54.3406 on 1 procs for 505 steps with 19652 atoms

Performance: 0.803 ns/day, 29.890 hours/ns, 9.293 timesteps/s
98.1% CPU use with 1 MPI tasks x no OpenMP threads

MPI task timing breakdown:
Section |  min time  |  avg time  |  max time  |%varavg| %total
---------------------------------------------------------------
Pair    | 27.215     | 27.215     | 27.215     |   0.0 | 50.08
Neigh   | 25.101     | 25.101     | 25.101     |   0.0 | 46.19
Comm    | 0.63764    | 0.63764    | 0.63764    |   0.0 |  1.17
Output  | 0.068206   | 0.068206   | 0.068206   |   0.0 |  0.13
Modify  | 1.0671     | 1.0671     | 1.0671     |   0.0 |  1.96
Other   |            | 0.2517     |            |       |  0.46

Nlocal:    19652 ave 19652 max 19652 min
Histogram: 1 0 0 0 0 0 0 0 0 0
Nghost:    14049 ave 14049 max 14049 min
Histogram: 1 0 0 0 0 0 0 0 0 0
Neighs:    711674 ave 711674 max 711674 min
Histogram: 1 0 0 0 0 0 0 0 0 0

Total # of neighbors = 711674
Ave neighs/atom = 36.2138
Neighbor list builds = 505
Dangerous builds not checked
Setting up Verlet run ...
  Unit style    : metal
  Current step  : 86000
  Time step     : 0.001
Per MPI rank memory allocation (min/avg/max) = 18.2 | 18.2 | 18.2 Mbytes
Step Temp Press TotEng PotEng Enthalpy Volume 
   86000    150.87825   -55.685575   -83582.917   -83966.162   -83605.307    644195.75 
   86495    126.66889    32.941411   -83704.345   -84026.096   -83691.114    643518.59 
Loop time of 54.6105 on 1 procs for 495 steps with 19652 atoms

Performance: 0.783 ns/day, 30.646 hours/ns, 9.064 timesteps/s
96.6% CPU use with 1 MPI tasks x no OpenMP threads

MPI task timing breakdown:
Section |  min time  |  avg time  |  max time  |%varavg| %total
---------------------------------------------------------------
Pair    | 27.303     | 27.303     | 27.303     |   0.0 | 50.00
Neigh   | 25.37      | 25.37      | 25.37      |   0.0 | 46.46
Comm    | 0.62657    | 0.62657    | 0.62657    |   0.0 |  1.15
Output  | 0.00013208 | 0.00013208 | 0.00013208 |   0.0 |  0.00
Modify  | 1.0497     | 1.0497     | 1.0497     |   0.0 |  1.92
Other   |            | 0.2611     |            |       |  0.48

Nlocal:    19652 ave 19652 max 19652 min
Histogram: 1 0 0 0 0 0 0 0 0 0
Nghost:    14011 ave 14011 max 14011 min
Histogram: 1 0 0 0 0 0 0 0 0 0
Neighs:    712230 ave 712230 max 712230 min
Histogram: 1 0 0 0 0 0 0 0 0 0

Total # of neighbors = 712230
Ave neighs/atom = 36.2421
Neighbor list builds = 495
Dangerous builds not checked
Setting up Verlet run ...
  Unit style    : metal
  Current step  : 86495
  Time step     : 0.001
Per MPI rank memory allocation (min/avg/max) = 18.2 | 18.2 | 18.2 Mbytes
Step Temp Press TotEng PotEng Enthalpy Volume 
   86495    126.66889    32.941411   -83704.345   -84026.096   -83691.114    643518.59 
   87000    102.91958   -54.479969   -83832.137   -84093.562   -83854.009    643229.98 
Loop time of 52.0438 on 1 procs for 505 steps with 19652 atoms

Performance: 0.838 ns/day, 28.627 hours/ns, 9.703 timesteps/s
99.6% CPU use with 1 MPI tasks x no OpenMP threads

MPI task timing breakdown:
Section |  min time  |  avg time  |  max time  |%varavg| %total
---------------------------------------------------------------
Pair    | 26.14      | 26.14      | 26.14      |   0.0 | 50.23
Neigh   | 24.034     | 24.034     | 24.034     |   0.0 | 46.18
Comm    | 0.57467    | 0.57467    | 0.57467    |   0.0 |  1.10
Output  | 0.068167   | 0.068167   | 0.068167   |   0.0 |  0.13
Modify  | 0.98502    | 0.98502    | 0.98502    |   0.0 |  1.89
Other   |            | 0.242      |            |       |  0.46

Nlocal:    19652 ave 19652 max 19652 min
Histogram: 1 0 0 0 0 0 0 0 0 0
Nghost:    14061 ave 14061 max 14061 min
Histogram: 1 0 0 0 0 0 0 0 0 0
Neighs:    712146 ave 712146 max 712146 min
Histogram: 1 0 0 0 0 0 0 0 0 0

Total # of neighbors = 712146
Ave neighs/atom = 36.2378
Neighbor list builds = 505
Dangerous builds not checked
Total wall time: 2:35:31
