LAMMPS (12 Dec 2018)
Lattice spacing in x,y,z = 4 4 4
Created orthogonal box = (0 0 0) to (68 68 68)
  1 by 1 by 1 MPI processor grid
Created 19652 atoms
  Time spent = 0.00401211 secs
Setting atom values ...
  19652 settings made for type/fraction
Neighbor list info ...
  update every 1 steps, delay 0 steps, check no
  max neighbors/atom: 2000, page size: 100000
  master list distance cutoff = 8.5
  ghost atom cutoff = 8.5
  binsize = 4.25, bins = 16 16 16
  1 neighbor lists, perpetual/occasional/extra = 1 0 0
  (1) pair eam/alloy, perpetual
      attributes: half, newton on
      pair build: half/bin/atomonly/newton
      stencil: half/bin/3d/newton
      bin: standard
Setting up Verlet run ...
  Unit style    : metal
  Current step  : 0
  Time step     : 0.001
Per MPI rank memory allocation (min/avg/max) = 18.19 | 18.19 | 18.19 Mbytes
Step Temp Press TotEng PotEng Enthalpy 
       0          300    646743.88   -38638.853    -39400.88    88286.597 
    1000    914.77005    639445.62   -38639.068   -40962.667    86854.075 
Loop time of 165.649 on 1 procs for 1000 steps with 19652 atoms

Performance: 0.522 ns/day, 46.014 hours/ns, 6.037 timesteps/s
99.2% CPU use with 1 MPI tasks x no OpenMP threads

MPI task timing breakdown:
Section |  min time  |  avg time  |  max time  |%varavg| %total
---------------------------------------------------------------
Pair    | 92.643     | 92.643     | 92.643     |   0.0 | 55.93
Neigh   | 70.967     | 70.967     | 70.967     |   0.0 | 42.84
Comm    | 1.2209     | 1.2209     | 1.2209     |   0.0 |  0.74
Output  | 0.00013113 | 0.00013113 | 0.00013113 |   0.0 |  0.00
Modify  | 0.42224    | 0.42224    | 0.42224    |   0.0 |  0.25
Other   |            | 0.3949     |            |       |  0.24

Nlocal:    19652 ave 19652 max 19652 min
Histogram: 1 0 0 0 0 0 0 0 0 0
Nghost:    18825 ave 18825 max 18825 min
Histogram: 1 0 0 0 0 0 0 0 0 0
Neighs:    1.58336e+06 ave 1.58336e+06 max 1.58336e+06 min
Histogram: 1 0 0 0 0 0 0 0 0 0

Total # of neighbors = 1583365
Ave neighs/atom = 80.5702
Neighbor list builds = 1000
Dangerous builds not checked
Setting up Verlet run ...
  Unit style    : metal
  Current step  : 1000
  Time step     : 0.001
Per MPI rank memory allocation (min/avg/max) = 18.19 | 18.19 | 18.19 Mbytes
Step Temp Press TotEng PotEng Enthalpy 
    1000    914.77005    639445.62   -38639.068   -40962.667    86854.075 
    2000    351.26444   -143.53893   -81672.567   -82564.811   -81730.869 
Loop time of 107.058 on 1 procs for 1000 steps with 19652 atoms

Performance: 0.807 ns/day, 29.738 hours/ns, 9.341 timesteps/s
99.5% CPU use with 1 MPI tasks x no OpenMP threads

MPI task timing breakdown:
Section |  min time  |  avg time  |  max time  |%varavg| %total
---------------------------------------------------------------
Pair    | 54.984     | 54.984     | 54.984     |   0.0 | 51.36
Neigh   | 49.35      | 49.35      | 49.35      |   0.0 | 46.10
Comm    | 0.98301    | 0.98301    | 0.98301    |   0.0 |  0.92
Output  | 0.00016189 | 0.00016189 | 0.00016189 |   0.0 |  0.00
Modify  | 1.3758     | 1.3758     | 1.3758     |   0.0 |  1.29
Other   |            | 0.3644     |            |       |  0.34

Nlocal:    19652 ave 19652 max 19652 min
Histogram: 1 0 0 0 0 0 0 0 0 0
Nghost:    13996 ave 13996 max 13996 min
Histogram: 1 0 0 0 0 0 0 0 0 0
Neighs:    719940 ave 719940 max 719940 min
Histogram: 1 0 0 0 0 0 0 0 0 0

Total # of neighbors = 719940
Ave neighs/atom = 36.6344
Neighbor list builds = 1000
Dangerous builds not checked
Setting up Verlet run ...
  Unit style    : metal
  Current step  : 2000
  Time step     : 0.001
Per MPI rank memory allocation (min/avg/max) = 18.2 | 18.2 | 18.2 Mbytes
Step Temp Press TotEng PotEng Enthalpy 
    2000    351.26444   -143.53893   -81672.567   -82564.811   -81730.869 
    5000    1078.3919    712.29362   -78242.457   -80981.671   -77947.432 
   10000     2439.477     -207.748   -69596.497   -75792.991   -69687.984 
Loop time of 759.838 on 1 procs for 8000 steps with 19652 atoms

Performance: 0.910 ns/day, 26.383 hours/ns, 10.529 timesteps/s
98.5% CPU use with 1 MPI tasks x no OpenMP threads

MPI task timing breakdown:
Section |  min time  |  avg time  |  max time  |%varavg| %total
---------------------------------------------------------------
Pair    | 372.75     | 372.75     | 372.75     |   0.0 | 49.06
Neigh   | 363.21     | 363.21     | 363.21     |   0.0 | 47.80
Comm    | 8.3348     | 8.3348     | 8.3348     |   0.0 |  1.10
Output  | 0.26997    | 0.26997    | 0.26997    |   0.0 |  0.04
Modify  | 12.02      | 12.02      | 12.02      |   0.0 |  1.58
Other   |            | 3.247      |            |       |  0.43

Nlocal:    19652 ave 19652 max 19652 min
Histogram: 1 0 0 0 0 0 0 0 0 0
Nghost:    13537 ave 13537 max 13537 min
Histogram: 1 0 0 0 0 0 0 0 0 0
Neighs:    683943 ave 683943 max 683943 min
Histogram: 1 0 0 0 0 0 0 0 0 0

Total # of neighbors = 683943
Ave neighs/atom = 34.8027
Neighbor list builds = 8000
Dangerous builds not checked
Setting up Verlet run ...
  Unit style    : metal
  Current step  : 10000
  Time step     : 0.001
Per MPI rank memory allocation (min/avg/max) = 18.2 | 18.2 | 18.2 Mbytes
Step Temp Press TotEng PotEng Enthalpy 
   10000     2439.477     -207.748   -69596.497   -75792.991   -69687.984 
   15000    2467.6681   -92.599682   -69383.565   -75651.667   -69424.427 
   20000    2431.7226    112.68145   -69410.314   -75587.111   -69360.594 
   25000    2455.8368    519.61277   -69327.016   -75565.065   -69097.975 
   30000    2452.1584    433.01677   -69362.497   -75591.203    -69171.65 
   35000    2458.8779    79.203889   -69483.323   -75729.097   -69448.415 
   40000    2439.2386   -535.77719   -69361.547   -75557.435   -69598.425 
Loop time of 3006.17 on 1 procs for 30000 steps with 19652 atoms

Performance: 0.862 ns/day, 27.835 hours/ns, 9.979 timesteps/s
98.8% CPU use with 1 MPI tasks x no OpenMP threads

MPI task timing breakdown:
Section |  min time  |  avg time  |  max time  |%varavg| %total
---------------------------------------------------------------
Pair    | 1464.9     | 1464.9     | 1464.9     |   0.0 | 48.73
Neigh   | 1447.7     | 1447.7     | 1447.7     |   0.0 | 48.16
Comm    | 32.89      | 32.89      | 32.89      |   0.0 |  1.09
Output  | 0.94861    | 0.94861    | 0.94861    |   0.0 |  0.03
Modify  | 46.795     | 46.795     | 46.795     |   0.0 |  1.56
Other   |            | 12.94      |            |       |  0.43

Nlocal:    19652 ave 19652 max 19652 min
Histogram: 1 0 0 0 0 0 0 0 0 0
Nghost:    13432 ave 13432 max 13432 min
Histogram: 1 0 0 0 0 0 0 0 0 0
Neighs:    681987 ave 681987 max 681987 min
Histogram: 1 0 0 0 0 0 0 0 0 0

Total # of neighbors = 681987
Ave neighs/atom = 34.7032
Neighbor list builds = 30000
Dangerous builds not checked
Setting up Verlet run ...
  Unit style    : metal
  Current step  : 40000
  Time step     : 0.001
Per MPI rank memory allocation (min/avg/max) = 18.2 | 18.2 | 18.2 Mbytes
Step Temp Press TotEng PotEng Enthalpy 
   40000    2439.2386   -535.77719   -69361.547   -75557.435   -69598.425 
   40495    2396.0476    177.52806   -69645.565   -75731.745   -69567.459 
Loop time of 49.8598 on 1 procs for 495 steps with 19652 atoms

Performance: 0.858 ns/day, 27.980 hours/ns, 9.928 timesteps/s
97.4% CPU use with 1 MPI tasks x no OpenMP threads

MPI task timing breakdown:
Section |  min time  |  avg time  |  max time  |%varavg| %total
---------------------------------------------------------------
Pair    | 24.208     | 24.208     | 24.208     |   0.0 | 48.55
Neigh   | 24.059     | 24.059     | 24.059     |   0.0 | 48.25
Comm    | 0.55115    | 0.55115    | 0.55115    |   0.0 |  1.11
Output  | 0.000175   | 0.000175   | 0.000175   |   0.0 |  0.00
Modify  | 0.80994    | 0.80994    | 0.80994    |   0.0 |  1.62
Other   |            | 0.2316     |            |       |  0.46

Nlocal:    19652 ave 19652 max 19652 min
Histogram: 1 0 0 0 0 0 0 0 0 0
Nghost:    13573 ave 13573 max 13573 min
Histogram: 1 0 0 0 0 0 0 0 0 0
Neighs:    684770 ave 684770 max 684770 min
Histogram: 1 0 0 0 0 0 0 0 0 0

Total # of neighbors = 684770
Ave neighs/atom = 34.8448
Neighbor list builds = 495
Dangerous builds not checked
Setting up Verlet run ...
  Unit style    : metal
  Current step  : 40495
  Time step     : 0.001
Per MPI rank memory allocation (min/avg/max) = 18.2 | 18.2 | 18.2 Mbytes
Step Temp Press TotEng PotEng Enthalpy 
   40495    2396.0476    177.52806   -69645.565   -75731.745   -69567.459 
   45000     2407.517    163.15869   -69606.884   -75722.196   -69535.024 
Loop time of 445.372 on 1 procs for 4505 steps with 19652 atoms

Performance: 0.874 ns/day, 27.462 hours/ns, 10.115 timesteps/s
99.0% CPU use with 1 MPI tasks x no OpenMP threads

MPI task timing breakdown:
Section |  min time  |  avg time  |  max time  |%varavg| %total
---------------------------------------------------------------
Pair    | 216.56     | 216.56     | 216.56     |   0.0 | 48.63
Neigh   | 214.96     | 214.96     | 214.96     |   0.0 | 48.27
Comm    | 4.8791     | 4.8791     | 4.8791     |   0.0 |  1.10
Output  | 0.088532   | 0.088532   | 0.088532   |   0.0 |  0.02
Modify  | 6.9679     | 6.9679     | 6.9679     |   0.0 |  1.56
Other   |            | 1.912      |            |       |  0.43

Nlocal:    19652 ave 19652 max 19652 min
Histogram: 1 0 0 0 0 0 0 0 0 0
Nghost:    13611 ave 13611 max 13611 min
Histogram: 1 0 0 0 0 0 0 0 0 0
Neighs:    684183 ave 684183 max 684183 min
Histogram: 1 0 0 0 0 0 0 0 0 0

Total # of neighbors = 684183
Ave neighs/atom = 34.8149
Neighbor list builds = 4505
Dangerous builds not checked
Setting up Verlet run ...
  Unit style    : metal
  Current step  : 45000
  Time step     : 0.001
Per MPI rank memory allocation (min/avg/max) = 18.2 | 18.2 | 18.2 Mbytes
Step Temp Press TotEng PotEng Enthalpy 
   45000     2407.517    163.15869   -69606.884   -75722.196   -69535.024 
   45495    2361.4905   -39.383628   -69898.903   -75897.304   -69916.222 
Loop time of 48.657 on 1 procs for 495 steps with 19652 atoms

Performance: 0.879 ns/day, 27.305 hours/ns, 10.173 timesteps/s
98.4% CPU use with 1 MPI tasks x no OpenMP threads

MPI task timing breakdown:
Section |  min time  |  avg time  |  max time  |%varavg| %total
---------------------------------------------------------------
Pair    | 23.621     | 23.621     | 23.621     |   0.0 | 48.55
Neigh   | 23.49      | 23.49      | 23.49      |   0.0 | 48.28
Comm    | 0.53048    | 0.53048    | 0.53048    |   0.0 |  1.09
Output  | 0.00019622 | 0.00019622 | 0.00019622 |   0.0 |  0.00
Modify  | 0.80191    | 0.80191    | 0.80191    |   0.0 |  1.65
Other   |            | 0.2131     |            |       |  0.44

Nlocal:    19652 ave 19652 max 19652 min
Histogram: 1 0 0 0 0 0 0 0 0 0
Nghost:    13479 ave 13479 max 13479 min
Histogram: 1 0 0 0 0 0 0 0 0 0
Neighs:    684424 ave 684424 max 684424 min
Histogram: 1 0 0 0 0 0 0 0 0 0

Total # of neighbors = 684424
Ave neighs/atom = 34.8272
Neighbor list builds = 495
Dangerous builds not checked
Setting up Verlet run ...
  Unit style    : metal
  Current step  : 45495
  Time step     : 0.001
Per MPI rank memory allocation (min/avg/max) = 18.2 | 18.2 | 18.2 Mbytes
Step Temp Press TotEng PotEng Enthalpy 
   45495    2361.4905   -39.383628   -69898.903   -75897.304   -69916.222 
   50000    2361.3285    1044.8756   -69987.398   -75985.388   -69529.968 
Loop time of 462.757 on 1 procs for 4505 steps with 19652 atoms

Performance: 0.841 ns/day, 28.534 hours/ns, 9.735 timesteps/s
96.6% CPU use with 1 MPI tasks x no OpenMP threads

MPI task timing breakdown:
Section |  min time  |  avg time  |  max time  |%varavg| %total
---------------------------------------------------------------
Pair    | 225.91     | 225.91     | 225.91     |   0.0 | 48.82
Neigh   | 222.46     | 222.46     | 222.46     |   0.0 | 48.07
Comm    | 4.9642     | 4.9642     | 4.9642     |   0.0 |  1.07
Output  | 0.08603    | 0.08603    | 0.08603    |   0.0 |  0.02
Modify  | 7.3561     | 7.3561     | 7.3561     |   0.0 |  1.59
Other   |            | 1.979      |            |       |  0.43

Nlocal:    19652 ave 19652 max 19652 min
Histogram: 1 0 0 0 0 0 0 0 0 0
Nghost:    13570 ave 13570 max 13570 min
Histogram: 1 0 0 0 0 0 0 0 0 0
Neighs:    687667 ave 687667 max 687667 min
Histogram: 1 0 0 0 0 0 0 0 0 0

Total # of neighbors = 687667
Ave neighs/atom = 34.9922
Neighbor list builds = 4505
Dangerous builds not checked
Setting up Verlet run ...
  Unit style    : metal
  Current step  : 50000
  Time step     : 0.001
Per MPI rank memory allocation (min/avg/max) = 18.2 | 18.2 | 18.2 Mbytes
Step Temp Press TotEng PotEng Enthalpy 
   50000    2361.3285    1044.8756   -69987.398   -75985.388   -69529.968 
   50495    2311.6056    379.04294   -70162.203   -76033.891   -69996.044 
Loop time of 47.2376 on 1 procs for 495 steps with 19652 atoms

Performance: 0.905 ns/day, 26.508 hours/ns, 10.479 timesteps/s
99.6% CPU use with 1 MPI tasks x no OpenMP threads

MPI task timing breakdown:
Section |  min time  |  avg time  |  max time  |%varavg| %total
---------------------------------------------------------------
Pair    | 23.043     | 23.043     | 23.043     |   0.0 | 48.78
Neigh   | 22.645     | 22.645     | 22.645     |   0.0 | 47.94
Comm    | 0.54373    | 0.54373    | 0.54373    |   0.0 |  1.15
Output  | 0.00018406 | 0.00018406 | 0.00018406 |   0.0 |  0.00
Modify  | 0.7915     | 0.7915     | 0.7915     |   0.0 |  1.68
Other   |            | 0.2144     |            |       |  0.45

Nlocal:    19652 ave 19652 max 19652 min
Histogram: 1 0 0 0 0 0 0 0 0 0
Nghost:    13552 ave 13552 max 13552 min
Histogram: 1 0 0 0 0 0 0 0 0 0
Neighs:    686604 ave 686604 max 686604 min
Histogram: 1 0 0 0 0 0 0 0 0 0

Total # of neighbors = 686604
Ave neighs/atom = 34.9381
Neighbor list builds = 495
Dangerous builds not checked
Setting up Verlet run ...
  Unit style    : metal
  Current step  : 50495
  Time step     : 0.001
Per MPI rank memory allocation (min/avg/max) = 18.2 | 18.2 | 18.2 Mbytes
Step Temp Press TotEng PotEng Enthalpy 
   50495    2311.6056    379.04294   -70162.203   -76033.891   -69996.044 
   55000    2295.9754    514.11317   -70300.127   -76132.114   -70075.222 
Loop time of 440.184 on 1 procs for 4505 steps with 19652 atoms

Performance: 0.884 ns/day, 27.142 hours/ns, 10.234 timesteps/s
99.6% CPU use with 1 MPI tasks x no OpenMP threads

MPI task timing breakdown:
Section |  min time  |  avg time  |  max time  |%varavg| %total
---------------------------------------------------------------
Pair    | 214.78     | 214.78     | 214.78     |   0.0 | 48.79
Neigh   | 211.51     | 211.51     | 211.51     |   0.0 | 48.05
Comm    | 4.8528     | 4.8528     | 4.8528     |   0.0 |  1.10
Output  | 0.081183   | 0.081183   | 0.081183   |   0.0 |  0.02
Modify  | 7.0449     | 7.0449     | 7.0449     |   0.0 |  1.60
Other   |            | 1.916      |            |       |  0.44

Nlocal:    19652 ave 19652 max 19652 min
Histogram: 1 0 0 0 0 0 0 0 0 0
Nghost:    13582 ave 13582 max 13582 min
Histogram: 1 0 0 0 0 0 0 0 0 0
Neighs:    688078 ave 688078 max 688078 min
Histogram: 1 0 0 0 0 0 0 0 0 0

Total # of neighbors = 688078
Ave neighs/atom = 35.0131
Neighbor list builds = 4505
Dangerous builds not checked
Setting up Verlet run ...
  Unit style    : metal
  Current step  : 55000
  Time step     : 0.001
Per MPI rank memory allocation (min/avg/max) = 18.2 | 18.2 | 18.2 Mbytes
Step Temp Press TotEng PotEng Enthalpy 
   55000    2295.9754    514.11317   -70300.127   -76132.114   -70075.222 
   55495       2250.9    437.94944    -70488.11   -76205.602   -70296.546 
Loop time of 48.7581 on 1 procs for 495 steps with 19652 atoms

Performance: 0.877 ns/day, 27.361 hours/ns, 10.152 timesteps/s
99.9% CPU use with 1 MPI tasks x no OpenMP threads

MPI task timing breakdown:
Section |  min time  |  avg time  |  max time  |%varavg| %total
---------------------------------------------------------------
Pair    | 23.507     | 23.507     | 23.507     |   0.0 | 48.21
Neigh   | 23.735     | 23.735     | 23.735     |   0.0 | 48.68
Comm    | 0.52168    | 0.52168    | 0.52168    |   0.0 |  1.07
Output  | 0.00018978 | 0.00018978 | 0.00018978 |   0.0 |  0.00
Modify  | 0.78425    | 0.78425    | 0.78425    |   0.0 |  1.61
Other   |            | 0.2094     |            |       |  0.43

Nlocal:    19652 ave 19652 max 19652 min
Histogram: 1 0 0 0 0 0 0 0 0 0
Nghost:    13617 ave 13617 max 13617 min
Histogram: 1 0 0 0 0 0 0 0 0 0
Neighs:    687560 ave 687560 max 687560 min
Histogram: 1 0 0 0 0 0 0 0 0 0

Total # of neighbors = 687560
Ave neighs/atom = 34.9868
Neighbor list builds = 495
Dangerous builds not checked
Setting up Verlet run ...
  Unit style    : metal
  Current step  : 55495
  Time step     : 0.001
Per MPI rank memory allocation (min/avg/max) = 18.2 | 18.2 | 18.2 Mbytes
Step Temp Press TotEng PotEng Enthalpy 
   55495       2250.9    437.94944    -70488.11   -76205.602   -70296.546 
   60000    2232.5312   -521.75035   -70642.019   -76312.852   -70870.623 
Loop time of 417.929 on 1 procs for 4505 steps with 19652 atoms

Performance: 0.931 ns/day, 25.769 hours/ns, 10.779 timesteps/s
98.6% CPU use with 1 MPI tasks x no OpenMP threads

MPI task timing breakdown:
Section |  min time  |  avg time  |  max time  |%varavg| %total
---------------------------------------------------------------
Pair    | 200.27     | 200.27     | 200.27     |   0.0 | 47.92
Neigh   | 204.56     | 204.56     | 204.56     |   0.0 | 48.95
Comm    | 4.5225     | 4.5225     | 4.5225     |   0.0 |  1.08
Output  | 0.083699   | 0.083699   | 0.083699   |   0.0 |  0.02
Modify  | 6.7341     | 6.7341     | 6.7341     |   0.0 |  1.61
Other   |            | 1.752      |            |       |  0.42

Nlocal:    19652 ave 19652 max 19652 min
Histogram: 1 0 0 0 0 0 0 0 0 0
Nghost:    13570 ave 13570 max 13570 min
Histogram: 1 0 0 0 0 0 0 0 0 0
Neighs:    686966 ave 686966 max 686966 min
Histogram: 1 0 0 0 0 0 0 0 0 0

Total # of neighbors = 686966
Ave neighs/atom = 34.9565
Neighbor list builds = 4505
Dangerous builds not checked
Setting up Verlet run ...
  Unit style    : metal
  Current step  : 60000
  Time step     : 0.001
Per MPI rank memory allocation (min/avg/max) = 18.2 | 18.2 | 18.2 Mbytes
Step Temp Press TotEng PotEng Enthalpy 
   60000    2232.5312   -521.75035   -70642.019   -76312.852   -70870.623 
   60495    2216.2362   -520.43427   -70802.901   -76432.342   -71030.547 
Loop time of 44.7216 on 1 procs for 495 steps with 19652 atoms

Performance: 0.956 ns/day, 25.096 hours/ns, 11.068 timesteps/s
99.1% CPU use with 1 MPI tasks x no OpenMP threads

MPI task timing breakdown:
Section |  min time  |  avg time  |  max time  |%varavg| %total
---------------------------------------------------------------
Pair    | 21.371     | 21.371     | 21.371     |   0.0 | 47.79
Neigh   | 21.953     | 21.953     | 21.953     |   0.0 | 49.09
Comm    | 0.48242    | 0.48242    | 0.48242    |   0.0 |  1.08
Output  | 0.00015211 | 0.00015211 | 0.00015211 |   0.0 |  0.00
Modify  | 0.72776    | 0.72776    | 0.72776    |   0.0 |  1.63
Other   |            | 0.1874     |            |       |  0.42

Nlocal:    19652 ave 19652 max 19652 min
Histogram: 1 0 0 0 0 0 0 0 0 0
Nghost:    13557 ave 13557 max 13557 min
Histogram: 1 0 0 0 0 0 0 0 0 0
Neighs:    687043 ave 687043 max 687043 min
Histogram: 1 0 0 0 0 0 0 0 0 0

Total # of neighbors = 687043
Ave neighs/atom = 34.9605
Neighbor list builds = 495
Dangerous builds not checked
Setting up Verlet run ...
  Unit style    : metal
  Current step  : 60495
  Time step     : 0.001
Per MPI rank memory allocation (min/avg/max) = 18.2 | 18.2 | 18.2 Mbytes
Step Temp Press TotEng PotEng Enthalpy 
   60495    2216.2362   -520.43427   -70802.901   -76432.342   -71030.547 
   65000    2203.8471   -31.174323   -70916.185   -76514.158   -70929.788 
Loop time of 413.217 on 1 procs for 4505 steps with 19652 atoms

Performance: 0.942 ns/day, 25.479 hours/ns, 10.902 timesteps/s
98.6% CPU use with 1 MPI tasks x no OpenMP threads

MPI task timing breakdown:
Section |  min time  |  avg time  |  max time  |%varavg| %total
---------------------------------------------------------------
Pair    | 196.64     | 196.64     | 196.64     |   0.0 | 47.59
Neigh   | 203.5      | 203.5      | 203.5      |   0.0 | 49.25
Comm    | 4.5302     | 4.5302     | 4.5302     |   0.0 |  1.10
Output  | 0.087884   | 0.087884   | 0.087884   |   0.0 |  0.02
Modify  | 6.6894     | 6.6894     | 6.6894     |   0.0 |  1.62
Other   |            | 1.77       |            |       |  0.43

Nlocal:    19652 ave 19652 max 19652 min
Histogram: 1 0 0 0 0 0 0 0 0 0
Nghost:    13521 ave 13521 max 13521 min
Histogram: 1 0 0 0 0 0 0 0 0 0
Neighs:    688396 ave 688396 max 688396 min
Histogram: 1 0 0 0 0 0 0 0 0 0

Total # of neighbors = 688396
Ave neighs/atom = 35.0293
Neighbor list builds = 4505
Dangerous builds not checked
Setting up Verlet run ...
  Unit style    : metal
  Current step  : 65000
  Time step     : 0.001
Per MPI rank memory allocation (min/avg/max) = 18.2 | 18.2 | 18.2 Mbytes
Step Temp Press TotEng PotEng Enthalpy 
   65000    2203.8471   -31.174323   -70916.185   -76514.158   -70929.788 
   65495    2163.2723    380.86414   -71143.663   -76638.571   -70978.007 
Loop time of 49.7695 on 1 procs for 495 steps with 19652 atoms

Performance: 0.859 ns/day, 27.929 hours/ns, 9.946 timesteps/s
92.7% CPU use with 1 MPI tasks x no OpenMP threads

MPI task timing breakdown:
Section |  min time  |  avg time  |  max time  |%varavg| %total
---------------------------------------------------------------
Pair    | 23.778     | 23.778     | 23.778     |   0.0 | 47.78
Neigh   | 24.37      | 24.37      | 24.37      |   0.0 | 48.97
Comm    | 0.56982    | 0.56982    | 0.56982    |   0.0 |  1.14
Output  | 0.00020194 | 0.00020194 | 0.00020194 |   0.0 |  0.00
Modify  | 0.82687    | 0.82687    | 0.82687    |   0.0 |  1.66
Other   |            | 0.2243     |            |       |  0.45

Nlocal:    19652 ave 19652 max 19652 min
Histogram: 1 0 0 0 0 0 0 0 0 0
Nghost:    13589 ave 13589 max 13589 min
Histogram: 1 0 0 0 0 0 0 0 0 0
Neighs:    690763 ave 690763 max 690763 min
Histogram: 1 0 0 0 0 0 0 0 0 0

Total # of neighbors = 690763
Ave neighs/atom = 35.1498
Neighbor list builds = 495
Dangerous builds not checked
Setting up Verlet run ...
  Unit style    : metal
  Current step  : 65495
  Time step     : 0.001
Per MPI rank memory allocation (min/avg/max) = 18.2 | 18.2 | 18.2 Mbytes
Step Temp Press TotEng PotEng Enthalpy 
   65495    2163.2723    380.86414   -71143.663   -76638.571   -70978.007 
   70000    2143.6693    27.623502   -71252.126   -76697.241   -71240.113 
Loop time of 433.959 on 1 procs for 4505 steps with 19652 atoms

Performance: 0.897 ns/day, 26.758 hours/ns, 10.381 timesteps/s
98.4% CPU use with 1 MPI tasks x no OpenMP threads

MPI task timing breakdown:
Section |  min time  |  avg time  |  max time  |%varavg| %total
---------------------------------------------------------------
Pair    | 208.12     | 208.12     | 208.12     |   0.0 | 47.96
Neigh   | 212.14     | 212.14     | 212.14     |   0.0 | 48.88
Comm    | 4.7293     | 4.7293     | 4.7293     |   0.0 |  1.09
Output  | 0.087496   | 0.087496   | 0.087496   |   0.0 |  0.02
Modify  | 6.9635     | 6.9635     | 6.9635     |   0.0 |  1.60
Other   |            | 1.917      |            |       |  0.44

Nlocal:    19652 ave 19652 max 19652 min
Histogram: 1 0 0 0 0 0 0 0 0 0
Nghost:    13577 ave 13577 max 13577 min
Histogram: 1 0 0 0 0 0 0 0 0 0
Neighs:    690674 ave 690674 max 690674 min
Histogram: 1 0 0 0 0 0 0 0 0 0

Total # of neighbors = 690674
Ave neighs/atom = 35.1452
Neighbor list builds = 4505
Dangerous builds not checked
Setting up Verlet run ...
  Unit style    : metal
  Current step  : 70000
  Time step     : 0.001
Per MPI rank memory allocation (min/avg/max) = 18.2 | 18.2 | 18.2 Mbytes
Step Temp Press TotEng PotEng Enthalpy 
   70000    2143.6693    27.623502   -71252.126   -76697.241   -71240.113 
   70495    2100.3517    111.02239   -71468.627   -76803.712   -71420.366 
Loop time of 46.9194 on 1 procs for 495 steps with 19652 atoms

Performance: 0.912 ns/day, 26.330 hours/ns, 10.550 timesteps/s
98.2% CPU use with 1 MPI tasks x no OpenMP threads

MPI task timing breakdown:
Section |  min time  |  avg time  |  max time  |%varavg| %total
---------------------------------------------------------------
Pair    | 22.452     | 22.452     | 22.452     |   0.0 | 47.85
Neigh   | 23.012     | 23.012     | 23.012     |   0.0 | 49.05
Comm    | 0.49949    | 0.49949    | 0.49949    |   0.0 |  1.06
Output  | 0.00016809 | 0.00016809 | 0.00016809 |   0.0 |  0.00
Modify  | 0.75758    | 0.75758    | 0.75758    |   0.0 |  1.61
Other   |            | 0.198      |            |       |  0.42

Nlocal:    19652 ave 19652 max 19652 min
Histogram: 1 0 0 0 0 0 0 0 0 0
Nghost:    13591 ave 13591 max 13591 min
Histogram: 1 0 0 0 0 0 0 0 0 0
Neighs:    690727 ave 690727 max 690727 min
Histogram: 1 0 0 0 0 0 0 0 0 0

Total # of neighbors = 690727
Ave neighs/atom = 35.1479
Neighbor list builds = 495
Dangerous builds not checked
Setting up Verlet run ...
  Unit style    : metal
  Current step  : 70495
  Time step     : 0.001
Per MPI rank memory allocation (min/avg/max) = 18.2 | 18.2 | 18.2 Mbytes
Step Temp Press TotEng PotEng Enthalpy 
   70495    2100.3517    111.02239   -71468.627   -76803.712   -71420.366 
   75000     2092.108    169.40817   -71599.765    -76913.91   -71526.223 
Loop time of 406.97 on 1 procs for 4505 steps with 19652 atoms

Performance: 0.956 ns/day, 25.094 hours/ns, 11.070 timesteps/s
99.2% CPU use with 1 MPI tasks x no OpenMP threads

MPI task timing breakdown:
Section |  min time  |  avg time  |  max time  |%varavg| %total
---------------------------------------------------------------
Pair    | 192.92     | 192.92     | 192.92     |   0.0 | 47.40
Neigh   | 201.14     | 201.14     | 201.14     |   0.0 | 49.42
Comm    | 4.4451     | 4.4451     | 4.4451     |   0.0 |  1.09
Output  | 0.084128   | 0.084128   | 0.084128   |   0.0 |  0.02
Modify  | 6.6432     | 6.6432     | 6.6432     |   0.0 |  1.63
Other   |            | 1.732      |            |       |  0.43

Nlocal:    19652 ave 19652 max 19652 min
Histogram: 1 0 0 0 0 0 0 0 0 0
Nghost:    13646 ave 13646 max 13646 min
Histogram: 1 0 0 0 0 0 0 0 0 0
Neighs:    690942 ave 690942 max 690942 min
Histogram: 1 0 0 0 0 0 0 0 0 0

Total # of neighbors = 690942
Ave neighs/atom = 35.1589
Neighbor list builds = 4505
Dangerous builds not checked
Setting up Verlet run ...
  Unit style    : metal
  Current step  : 75000
  Time step     : 0.001
Per MPI rank memory allocation (min/avg/max) = 18.2 | 18.2 | 18.2 Mbytes
Step Temp Press TotEng PotEng Enthalpy 
   75000     2092.108    169.40817   -71599.765    -76913.91   -71526.223 
   75495    2057.4219    39.443427   -71730.886   -76956.925   -71713.768 
Loop time of 46.7185 on 1 procs for 495 steps with 19652 atoms

Performance: 0.915 ns/day, 26.217 hours/ns, 10.595 timesteps/s
98.8% CPU use with 1 MPI tasks x no OpenMP threads

MPI task timing breakdown:
Section |  min time  |  avg time  |  max time  |%varavg| %total
---------------------------------------------------------------
Pair    | 22.273     | 22.273     | 22.273     |   0.0 | 47.68
Neigh   | 22.911     | 22.911     | 22.911     |   0.0 | 49.04
Comm    | 0.5166     | 0.5166     | 0.5166     |   0.0 |  1.11
Output  | 0.00016022 | 0.00016022 | 0.00016022 |   0.0 |  0.00
Modify  | 0.80862    | 0.80862    | 0.80862    |   0.0 |  1.73
Other   |            | 0.2085     |            |       |  0.45

Nlocal:    19652 ave 19652 max 19652 min
Histogram: 1 0 0 0 0 0 0 0 0 0
Nghost:    13654 ave 13654 max 13654 min
Histogram: 1 0 0 0 0 0 0 0 0 0
Neighs:    691329 ave 691329 max 691329 min
Histogram: 1 0 0 0 0 0 0 0 0 0

Total # of neighbors = 691329
Ave neighs/atom = 35.1786
Neighbor list builds = 495
Dangerous builds not checked
Setting up Verlet run ...
  Unit style    : metal
  Current step  : 75495
  Time step     : 0.001
Per MPI rank memory allocation (min/avg/max) = 18.2 | 18.2 | 18.2 Mbytes
Step Temp Press TotEng PotEng Enthalpy 
   75495    2057.4219    39.443427   -71730.886   -76956.925   -71713.768 
   80000    2044.1844    33.646346   -71872.609   -77065.023   -71858.024 
Loop time of 413.904 on 1 procs for 4505 steps with 19652 atoms

Performance: 0.940 ns/day, 25.521 hours/ns, 10.884 timesteps/s
99.1% CPU use with 1 MPI tasks x no OpenMP threads

MPI task timing breakdown:
Section |  min time  |  avg time  |  max time  |%varavg| %total
---------------------------------------------------------------
Pair    | 197.92     | 197.92     | 197.92     |   0.0 | 47.82
Neigh   | 202.73     | 202.73     | 202.73     |   0.0 | 48.98
Comm    | 4.5819     | 4.5819     | 4.5819     |   0.0 |  1.11
Output  | 0.088284   | 0.088284   | 0.088284   |   0.0 |  0.02
Modify  | 6.7794     | 6.7794     | 6.7794     |   0.0 |  1.64
Other   |            | 1.799      |            |       |  0.43

Nlocal:    19652 ave 19652 max 19652 min
Histogram: 1 0 0 0 0 0 0 0 0 0
Nghost:    13661 ave 13661 max 13661 min
Histogram: 1 0 0 0 0 0 0 0 0 0
Neighs:    691974 ave 691974 max 691974 min
Histogram: 1 0 0 0 0 0 0 0 0 0

Total # of neighbors = 691974
Ave neighs/atom = 35.2114
Neighbor list builds = 4505
Dangerous builds not checked
Setting up Verlet run ...
  Unit style    : metal
  Current step  : 80000
  Time step     : 0.001
Per MPI rank memory allocation (min/avg/max) = 18.2 | 18.2 | 18.2 Mbytes
Step Temp Press TotEng PotEng Enthalpy 
   80000    2044.1844    33.646346   -71872.609   -77065.023   -71858.024 
   80495    2012.9297    225.35882   -72067.257   -77180.282   -71969.781 
Loop time of 46.8002 on 1 procs for 495 steps with 19652 atoms

Performance: 0.914 ns/day, 26.263 hours/ns, 10.577 timesteps/s
99.1% CPU use with 1 MPI tasks x no OpenMP threads

MPI task timing breakdown:
Section |  min time  |  avg time  |  max time  |%varavg| %total
---------------------------------------------------------------
Pair    | 22.112     | 22.112     | 22.112     |   0.0 | 47.25
Neigh   | 23.18      | 23.18      | 23.18      |   0.0 | 49.53
Comm    | 0.50416    | 0.50416    | 0.50416    |   0.0 |  1.08
Output  | 0.00016499 | 0.00016499 | 0.00016499 |   0.0 |  0.00
Modify  | 0.78574    | 0.78574    | 0.78574    |   0.0 |  1.68
Other   |            | 0.2182     |            |       |  0.47

Nlocal:    19652 ave 19652 max 19652 min
Histogram: 1 0 0 0 0 0 0 0 0 0
Nghost:    13711 ave 13711 max 13711 min
Histogram: 1 0 0 0 0 0 0 0 0 0
Neighs:    693185 ave 693185 max 693185 min
Histogram: 1 0 0 0 0 0 0 0 0 0

Total # of neighbors = 693185
Ave neighs/atom = 35.273
Neighbor list builds = 495
Dangerous builds not checked
Setting up Verlet run ...
  Unit style    : metal
  Current step  : 80495
  Time step     : 0.001
Per MPI rank memory allocation (min/avg/max) = 18.2 | 18.2 | 18.2 Mbytes
Step Temp Press TotEng PotEng Enthalpy 
   80495    2012.9297    225.35882   -72067.257   -77180.282   -71969.781 
   85000    2011.3624    241.78022   -72122.931   -77231.975   -72018.417 
Loop time of 383.613 on 1 procs for 4505 steps with 19652 atoms

Performance: 1.015 ns/day, 23.654 hours/ns, 11.744 timesteps/s
99.2% CPU use with 1 MPI tasks x no OpenMP threads

MPI task timing breakdown:
Section |  min time  |  avg time  |  max time  |%varavg| %total
---------------------------------------------------------------
Pair    | 180.27     | 180.27     | 180.27     |   0.0 | 46.99
Neigh   | 191.34     | 191.34     | 191.34     |   0.0 | 49.88
Comm    | 4.1134     | 4.1134     | 4.1134     |   0.0 |  1.07
Output  | 0.086491   | 0.086491   | 0.086491   |   0.0 |  0.02
Modify  | 6.1727     | 6.1727     | 6.1727     |   0.0 |  1.61
Other   |            | 1.638      |            |       |  0.43

Nlocal:    19652 ave 19652 max 19652 min
Histogram: 1 0 0 0 0 0 0 0 0 0
Nghost:    13623 ave 13623 max 13623 min
Histogram: 1 0 0 0 0 0 0 0 0 0
Neighs:    693461 ave 693461 max 693461 min
Histogram: 1 0 0 0 0 0 0 0 0 0

Total # of neighbors = 693461
Ave neighs/atom = 35.287
Neighbor list builds = 4505
Dangerous builds not checked
Setting up Verlet run ...
  Unit style    : metal
  Current step  : 85000
  Time step     : 0.001
Per MPI rank memory allocation (min/avg/max) = 18.2 | 18.2 | 18.2 Mbytes
Step Temp Press TotEng PotEng Enthalpy 
   85000    2011.3624    241.78022   -72122.931   -77231.975   -72018.417 
   85495    1965.4577    108.59646   -72353.652   -77346.093    -72306.74 
Loop time of 44.1173 on 1 procs for 495 steps with 19652 atoms

Performance: 0.969 ns/day, 24.757 hours/ns, 11.220 timesteps/s
98.1% CPU use with 1 MPI tasks x no OpenMP threads

MPI task timing breakdown:
Section |  min time  |  avg time  |  max time  |%varavg| %total
---------------------------------------------------------------
Pair    | 20.612     | 20.612     | 20.612     |   0.0 | 46.72
Neigh   | 22.121     | 22.121     | 22.121     |   0.0 | 50.14
Comm    | 0.45593    | 0.45593    | 0.45593    |   0.0 |  1.03
Output  | 0.00013518 | 0.00013518 | 0.00013518 |   0.0 |  0.00
Modify  | 0.73696    | 0.73696    | 0.73696    |   0.0 |  1.67
Other   |            | 0.1906     |            |       |  0.43

Nlocal:    19652 ave 19652 max 19652 min
Histogram: 1 0 0 0 0 0 0 0 0 0
Nghost:    13624 ave 13624 max 13624 min
Histogram: 1 0 0 0 0 0 0 0 0 0
Neighs:    693567 ave 693567 max 693567 min
Histogram: 1 0 0 0 0 0 0 0 0 0

Total # of neighbors = 693567
Ave neighs/atom = 35.2924
Neighbor list builds = 495
Dangerous builds not checked
Setting up Verlet run ...
  Unit style    : metal
  Current step  : 85495
  Time step     : 0.001
Per MPI rank memory allocation (min/avg/max) = 18.2 | 18.2 | 18.2 Mbytes
Step Temp Press TotEng PotEng Enthalpy 
   85495    1965.4577    108.59646   -72353.652   -77346.093    -72306.74 
   90000    1936.5732   -501.64703   -72509.059   -77428.132   -72726.038 
Loop time of 437.483 on 1 procs for 4505 steps with 19652 atoms

Performance: 0.890 ns/day, 26.975 hours/ns, 10.298 timesteps/s
99.4% CPU use with 1 MPI tasks x no OpenMP threads

MPI task timing breakdown:
Section |  min time  |  avg time  |  max time  |%varavg| %total
---------------------------------------------------------------
Pair    | 211.27     | 211.27     | 211.27     |   0.0 | 48.29
Neigh   | 212.58     | 212.58     | 212.58     |   0.0 | 48.59
Comm    | 4.7416     | 4.7416     | 4.7416     |   0.0 |  1.08
Output  | 0.08648    | 0.08648    | 0.08648    |   0.0 |  0.02
Modify  | 6.9572     | 6.9572     | 6.9572     |   0.0 |  1.59
Other   |            | 1.85       |            |       |  0.42

Nlocal:    19652 ave 19652 max 19652 min
Histogram: 1 0 0 0 0 0 0 0 0 0
Nghost:    13615 ave 13615 max 13615 min
Histogram: 1 0 0 0 0 0 0 0 0 0
Neighs:    692278 ave 692278 max 692278 min
Histogram: 1 0 0 0 0 0 0 0 0 0

Total # of neighbors = 692278
Ave neighs/atom = 35.2268
Neighbor list builds = 4505
Dangerous builds not checked
Setting up Verlet run ...
  Unit style    : metal
  Current step  : 90000
  Time step     : 0.001
Per MPI rank memory allocation (min/avg/max) = 18.2 | 18.2 | 18.2 Mbytes
Step Temp Press TotEng PotEng Enthalpy 
   90000    1936.5732   -501.64703   -72509.059   -77428.132   -72726.038 
   90495    1911.7534   -131.63978   -72651.741   -77507.768   -72708.545 
Loop time of 48.8718 on 1 procs for 495 steps with 19652 atoms

Performance: 0.875 ns/day, 27.425 hours/ns, 10.129 timesteps/s
97.7% CPU use with 1 MPI tasks x no OpenMP threads

MPI task timing breakdown:
Section |  min time  |  avg time  |  max time  |%varavg| %total
---------------------------------------------------------------
Pair    | 23.622     | 23.622     | 23.622     |   0.0 | 48.33
Neigh   | 23.661     | 23.661     | 23.661     |   0.0 | 48.42
Comm    | 0.55509    | 0.55509    | 0.55509    |   0.0 |  1.14
Output  | 0.00016999 | 0.00016999 | 0.00016999 |   0.0 |  0.00
Modify  | 0.81892    | 0.81892    | 0.81892    |   0.0 |  1.68
Other   |            | 0.2147     |            |       |  0.44

Nlocal:    19652 ave 19652 max 19652 min
Histogram: 1 0 0 0 0 0 0 0 0 0
Nghost:    13673 ave 13673 max 13673 min
Histogram: 1 0 0 0 0 0 0 0 0 0
Neighs:    693813 ave 693813 max 693813 min
Histogram: 1 0 0 0 0 0 0 0 0 0

Total # of neighbors = 693813
Ave neighs/atom = 35.305
Neighbor list builds = 495
Dangerous builds not checked
Setting up Verlet run ...
  Unit style    : metal
  Current step  : 90495
  Time step     : 0.001
Per MPI rank memory allocation (min/avg/max) = 18.2 | 18.2 | 18.2 Mbytes
Step Temp Press TotEng PotEng Enthalpy 
   90495    1911.7534   -131.63978   -72651.741   -77507.768   -72708.545 
   95000     1911.291   -27.332128    -72738.55   -77593.403   -72750.321 
Loop time of 430.348 on 1 procs for 4505 steps with 19652 atoms

Performance: 0.904 ns/day, 26.535 hours/ns, 10.468 timesteps/s
99.4% CPU use with 1 MPI tasks x no OpenMP threads

MPI task timing breakdown:
Section |  min time  |  avg time  |  max time  |%varavg| %total
---------------------------------------------------------------
Pair    | 207.54     | 207.54     | 207.54     |   0.0 | 48.23
Neigh   | 209.25     | 209.25     | 209.25     |   0.0 | 48.62
Comm    | 4.6681     | 4.6681     | 4.6681     |   0.0 |  1.08
Output  | 0.088307   | 0.088307   | 0.088307   |   0.0 |  0.02
Modify  | 6.9325     | 6.9325     | 6.9325     |   0.0 |  1.61
Other   |            | 1.869      |            |       |  0.43

Nlocal:    19652 ave 19652 max 19652 min
Histogram: 1 0 0 0 0 0 0 0 0 0
Nghost:    13705 ave 13705 max 13705 min
Histogram: 1 0 0 0 0 0 0 0 0 0
Neighs:    695016 ave 695016 max 695016 min
Histogram: 1 0 0 0 0 0 0 0 0 0

Total # of neighbors = 695016
Ave neighs/atom = 35.3662
Neighbor list builds = 4505
Dangerous builds not checked
Setting up Verlet run ...
  Unit style    : metal
  Current step  : 95000
  Time step     : 0.001
Per MPI rank memory allocation (min/avg/max) = 18.2 | 18.2 | 18.2 Mbytes
Step Temp Press TotEng PotEng Enthalpy 
   95000     1911.291   -27.332128    -72738.55   -77593.403   -72750.321 
   95495    1858.9309    112.96797   -72963.207   -77685.061   -72914.636 
Loop time of 48.0111 on 1 procs for 495 steps with 19652 atoms

Performance: 0.891 ns/day, 26.942 hours/ns, 10.310 timesteps/s
97.8% CPU use with 1 MPI tasks x no OpenMP threads

MPI task timing breakdown:
Section |  min time  |  avg time  |  max time  |%varavg| %total
---------------------------------------------------------------
Pair    | 23.131     | 23.131     | 23.131     |   0.0 | 48.18
Neigh   | 23.324     | 23.324     | 23.324     |   0.0 | 48.58
Comm    | 0.54107    | 0.54107    | 0.54107    |   0.0 |  1.13
Output  | 0.00018501 | 0.00018501 | 0.00018501 |   0.0 |  0.00
Modify  | 0.80062    | 0.80062    | 0.80062    |   0.0 |  1.67
Other   |            | 0.2135     |            |       |  0.44

Nlocal:    19652 ave 19652 max 19652 min
Histogram: 1 0 0 0 0 0 0 0 0 0
Nghost:    13657 ave 13657 max 13657 min
Histogram: 1 0 0 0 0 0 0 0 0 0
Neighs:    695607 ave 695607 max 695607 min
Histogram: 1 0 0 0 0 0 0 0 0 0

Total # of neighbors = 695607
Ave neighs/atom = 35.3962
Neighbor list builds = 495
Dangerous builds not checked
Setting up Verlet run ...
  Unit style    : metal
  Current step  : 95495
  Time step     : 0.001
Per MPI rank memory allocation (min/avg/max) = 18.2 | 18.2 | 18.2 Mbytes
Step Temp Press TotEng PotEng Enthalpy 
   95495    1858.9309    112.96797   -72963.207   -77685.061   -72914.636 
  100000    1854.8642    680.29903   -73142.698   -77854.222    -72851.12 
Loop time of 423.144 on 1 procs for 4505 steps with 19652 atoms

Performance: 0.920 ns/day, 26.091 hours/ns, 10.646 timesteps/s
99.7% CPU use with 1 MPI tasks x no OpenMP threads

MPI task timing breakdown:
Section |  min time  |  avg time  |  max time  |%varavg| %total
---------------------------------------------------------------
Pair    | 204.87     | 204.87     | 204.87     |   0.0 | 48.42
Neigh   | 204.85     | 204.85     | 204.85     |   0.0 | 48.41
Comm    | 4.6871     | 4.6871     | 4.6871     |   0.0 |  1.11
Output  | 0.057836   | 0.057836   | 0.057836   |   0.0 |  0.01
Modify  | 6.8016     | 6.8016     | 6.8016     |   0.0 |  1.61
Other   |            | 1.879      |            |       |  0.44

Nlocal:    19652 ave 19652 max 19652 min
Histogram: 1 0 0 0 0 0 0 0 0 0
Nghost:    13690 ave 13690 max 13690 min
Histogram: 1 0 0 0 0 0 0 0 0 0
Neighs:    697197 ave 697197 max 697197 min
Histogram: 1 0 0 0 0 0 0 0 0 0

Total # of neighbors = 697197
Ave neighs/atom = 35.4772
Neighbor list builds = 4505
Dangerous builds not checked
Setting up Verlet run ...
  Unit style    : metal
  Current step  : 100000
  Time step     : 0.001
Per MPI rank memory allocation (min/avg/max) = 18.2 | 18.2 | 18.2 Mbytes
Step Temp Press TotEng PotEng Enthalpy 
  100000    1854.8642    680.29903   -73142.698   -77854.222    -72851.12 
  100495    1793.6256    733.24083   -73320.578    -77876.55   -73006.646 
Loop time of 46.1713 on 1 procs for 495 steps with 19652 atoms

Performance: 0.926 ns/day, 25.910 hours/ns, 10.721 timesteps/s
99.1% CPU use with 1 MPI tasks x no OpenMP threads

MPI task timing breakdown:
Section |  min time  |  avg time  |  max time  |%varavg| %total
---------------------------------------------------------------
Pair    | 22.123     | 22.123     | 22.123     |   0.0 | 47.91
Neigh   | 22.612     | 22.612     | 22.612     |   0.0 | 48.97
Comm    | 0.50313    | 0.50313    | 0.50313    |   0.0 |  1.09
Output  | 0.00019121 | 0.00019121 | 0.00019121 |   0.0 |  0.00
Modify  | 0.73264    | 0.73264    | 0.73264    |   0.0 |  1.59
Other   |            | 0.2008     |            |       |  0.43

Nlocal:    19652 ave 19652 max 19652 min
Histogram: 1 0 0 0 0 0 0 0 0 0
Nghost:    13692 ave 13692 max 13692 min
Histogram: 1 0 0 0 0 0 0 0 0 0
Neighs:    698030 ave 698030 max 698030 min
Histogram: 1 0 0 0 0 0 0 0 0 0

Total # of neighbors = 698030
Ave neighs/atom = 35.5195
Neighbor list builds = 495
Dangerous builds not checked
Setting up Verlet run ...
  Unit style    : metal
  Current step  : 100495
  Time step     : 0.001
Per MPI rank memory allocation (min/avg/max) = 18.2 | 18.2 | 18.2 Mbytes
Step Temp Press TotEng PotEng Enthalpy 
  100495    1793.6256    733.24083   -73320.578    -77876.55   -73006.646 
  105000    1790.2203   -502.57754   -73494.631   -78041.953   -73710.242 
Loop time of 433.401 on 1 procs for 4505 steps with 19652 atoms

Performance: 0.898 ns/day, 26.723 hours/ns, 10.395 timesteps/s
98.7% CPU use with 1 MPI tasks x no OpenMP threads

MPI task timing breakdown:
Section |  min time  |  avg time  |  max time  |%varavg| %total
---------------------------------------------------------------
Pair    | 208.85     | 208.85     | 208.85     |   0.0 | 48.19
Neigh   | 210.88     | 210.88     | 210.88     |   0.0 | 48.66
Comm    | 4.7851     | 4.7851     | 4.7851     |   0.0 |  1.10
Output  | 0.083095   | 0.083095   | 0.083095   |   0.0 |  0.02
Modify  | 6.9151     | 6.9151     | 6.9151     |   0.0 |  1.60
Other   |            | 1.888      |            |       |  0.44

Nlocal:    19652 ave 19652 max 19652 min
Histogram: 1 0 0 0 0 0 0 0 0 0
Nghost:    13725 ave 13725 max 13725 min
Histogram: 1 0 0 0 0 0 0 0 0 0
Neighs:    696397 ave 696397 max 696397 min
Histogram: 1 0 0 0 0 0 0 0 0 0

Total # of neighbors = 696397
Ave neighs/atom = 35.4364
Neighbor list builds = 4505
Dangerous builds not checked
Setting up Verlet run ...
  Unit style    : metal
  Current step  : 105000
  Time step     : 0.001
Per MPI rank memory allocation (min/avg/max) = 18.2 | 18.2 | 18.2 Mbytes
Step Temp Press TotEng PotEng Enthalpy 
  105000    1790.2203   -502.57754   -73494.631   -78041.953   -73710.242 
  105495    1752.0112   -509.11759   -73640.844   -78091.112   -73859.138 
Loop time of 49.0969 on 1 procs for 495 steps with 19652 atoms

Performance: 0.871 ns/day, 27.552 hours/ns, 10.082 timesteps/s
95.8% CPU use with 1 MPI tasks x no OpenMP threads

MPI task timing breakdown:
Section |  min time  |  avg time  |  max time  |%varavg| %total
---------------------------------------------------------------
Pair    | 23.755     | 23.755     | 23.755     |   0.0 | 48.38
Neigh   | 23.8       | 23.8       | 23.8       |   0.0 | 48.48
Comm    | 0.53633    | 0.53633    | 0.53633    |   0.0 |  1.09
Output  | 0.00020695 | 0.00020695 | 0.00020695 |   0.0 |  0.00
Modify  | 0.77821    | 0.77821    | 0.77821    |   0.0 |  1.59
Other   |            | 0.2268     |            |       |  0.46

Nlocal:    19652 ave 19652 max 19652 min
Histogram: 1 0 0 0 0 0 0 0 0 0
Nghost:    13632 ave 13632 max 13632 min
Histogram: 1 0 0 0 0 0 0 0 0 0
Neighs:    696483 ave 696483 max 696483 min
Histogram: 1 0 0 0 0 0 0 0 0 0

Total # of neighbors = 696483
Ave neighs/atom = 35.4408
Neighbor list builds = 495
Dangerous builds not checked
Setting up Verlet run ...
  Unit style    : metal
  Current step  : 105495
  Time step     : 0.001
Per MPI rank memory allocation (min/avg/max) = 18.2 | 18.2 | 18.2 Mbytes
Step Temp Press TotEng PotEng Enthalpy 
  105495    1752.0112   -509.11759   -73640.844   -78091.112   -73859.138 
  110000    1762.4532    721.74421   -73706.349   -78183.141   -73398.278 
Loop time of 438.349 on 1 procs for 4505 steps with 19652 atoms

Performance: 0.888 ns/day, 27.029 hours/ns, 10.277 timesteps/s
99.2% CPU use with 1 MPI tasks x no OpenMP threads

MPI task timing breakdown:
Section |  min time  |  avg time  |  max time  |%varavg| %total
---------------------------------------------------------------
Pair    | 212.5      | 212.5      | 212.5      |   0.0 | 48.48
Neigh   | 212.04     | 212.04     | 212.04     |   0.0 | 48.37
Comm    | 4.838      | 4.838      | 4.838      |   0.0 |  1.10
Output  | 0.10577    | 0.10577    | 0.10577    |   0.0 |  0.02
Modify  | 6.9153     | 6.9153     | 6.9153     |   0.0 |  1.58
Other   |            | 1.941      |            |       |  0.44

Nlocal:    19652 ave 19652 max 19652 min
Histogram: 1 0 0 0 0 0 0 0 0 0
Nghost:    13675 ave 13675 max 13675 min
Histogram: 1 0 0 0 0 0 0 0 0 0
Neighs:    699152 ave 699152 max 699152 min
Histogram: 1 0 0 0 0 0 0 0 0 0

Total # of neighbors = 699152
Ave neighs/atom = 35.5766
Neighbor list builds = 4505
Dangerous builds not checked
Setting up Verlet run ...
  Unit style    : metal
  Current step  : 110000
  Time step     : 0.001
Per MPI rank memory allocation (min/avg/max) = 18.2 | 18.2 | 18.2 Mbytes
Step Temp Press TotEng PotEng Enthalpy 
  110000    1762.4532    721.74421   -73706.349   -78183.141   -73398.278 
  110495     1713.213    817.64874   -73921.855   -78273.572   -73573.243 
Loop time of 49.8033 on 1 procs for 495 steps with 19652 atoms

Performance: 0.859 ns/day, 27.948 hours/ns, 9.939 timesteps/s
99.3% CPU use with 1 MPI tasks x no OpenMP threads

MPI task timing breakdown:
Section |  min time  |  avg time  |  max time  |%varavg| %total
---------------------------------------------------------------
Pair    | 23.969     | 23.969     | 23.969     |   0.0 | 48.13
Neigh   | 24.259     | 24.259     | 24.259     |   0.0 | 48.71
Comm    | 0.52525    | 0.52525    | 0.52525    |   0.0 |  1.05
Output  | 0.0001781  | 0.0001781  | 0.0001781  |   0.0 |  0.00
Modify  | 0.83034    | 0.83034    | 0.83034    |   0.0 |  1.67
Other   |            | 0.2188     |            |       |  0.44

Nlocal:    19652 ave 19652 max 19652 min
Histogram: 1 0 0 0 0 0 0 0 0 0
Nghost:    13722 ave 13722 max 13722 min
Histogram: 1 0 0 0 0 0 0 0 0 0
Neighs:    699908 ave 699908 max 699908 min
Histogram: 1 0 0 0 0 0 0 0 0 0

Total # of neighbors = 699908
Ave neighs/atom = 35.6151
Neighbor list builds = 495
Dangerous builds not checked
Setting up Verlet run ...
  Unit style    : metal
  Current step  : 110495
  Time step     : 0.001
Per MPI rank memory allocation (min/avg/max) = 18.2 | 18.2 | 18.2 Mbytes
Step Temp Press TotEng PotEng Enthalpy 
  110495     1713.213    817.64874   -73921.855   -78273.572   -73573.243 
  115000     1703.112   -470.57726   -74029.844   -78355.904   -74230.974 
Loop time of 407.647 on 1 procs for 4505 steps with 19652 atoms

Performance: 0.955 ns/day, 25.135 hours/ns, 11.051 timesteps/s
98.6% CPU use with 1 MPI tasks x no OpenMP threads

MPI task timing breakdown:
Section |  min time  |  avg time  |  max time  |%varavg| %total
---------------------------------------------------------------
Pair    | 194.95     | 194.95     | 194.95     |   0.0 | 47.82
Neigh   | 199.8      | 199.8      | 199.8      |   0.0 | 49.01
Comm    | 4.4124     | 4.4124     | 4.4124     |   0.0 |  1.08
Output  | 0.081764   | 0.081764   | 0.081764   |   0.0 |  0.02
Modify  | 6.6299     | 6.6299     | 6.6299     |   0.0 |  1.63
Other   |            | 1.776      |            |       |  0.44

Nlocal:    19652 ave 19652 max 19652 min
Histogram: 1 0 0 0 0 0 0 0 0 0
Nghost:    13695 ave 13695 max 13695 min
Histogram: 1 0 0 0 0 0 0 0 0 0
Neighs:    697482 ave 697482 max 697482 min
Histogram: 1 0 0 0 0 0 0 0 0 0

Total # of neighbors = 697482
Ave neighs/atom = 35.4917
Neighbor list builds = 4505
Dangerous builds not checked
Setting up Verlet run ...
  Unit style    : metal
  Current step  : 115000
  Time step     : 0.001
Per MPI rank memory allocation (min/avg/max) = 18.2 | 18.2 | 18.2 Mbytes
Step Temp Press TotEng PotEng Enthalpy 
  115000     1703.112   -470.57726   -74029.844   -78355.904   -74230.974 
  115495    1659.5188   -267.12126   -74269.874   -78485.203   -74383.776 
Loop time of 50.522 on 1 procs for 495 steps with 19652 atoms

Performance: 0.847 ns/day, 28.351 hours/ns, 9.798 timesteps/s
95.2% CPU use with 1 MPI tasks x no OpenMP threads

MPI task timing breakdown:
Section |  min time  |  avg time  |  max time  |%varavg| %total
---------------------------------------------------------------
Pair    | 23.51      | 23.51      | 23.51      |   0.0 | 46.53
Neigh   | 23.006     | 23.006     | 23.006     |   0.0 | 45.54
Comm    | 0.53752    | 0.53752    | 0.53752    |   0.0 |  1.06
Output  | 2.4401     | 2.4401     | 2.4401     |   0.0 |  4.83
Modify  | 0.80993    | 0.80993    | 0.80993    |   0.0 |  1.60
Other   |            | 0.219      |            |       |  0.43

Nlocal:    19652 ave 19652 max 19652 min
Histogram: 1 0 0 0 0 0 0 0 0 0
Nghost:    13782 ave 13782 max 13782 min
Histogram: 1 0 0 0 0 0 0 0 0 0
Neighs:    698868 ave 698868 max 698868 min
Histogram: 1 0 0 0 0 0 0 0 0 0

Total # of neighbors = 698868
Ave neighs/atom = 35.5622
Neighbor list builds = 495
Dangerous builds not checked
Setting up Verlet run ...
  Unit style    : metal
  Current step  : 115495
  Time step     : 0.001
Per MPI rank memory allocation (min/avg/max) = 18.2 | 18.2 | 18.2 Mbytes
Step Temp Press TotEng PotEng Enthalpy 
  115495    1659.5188   -267.12126   -74269.874   -78485.203   -74383.776 
  120000    1665.3376    449.66505   -74341.004   -78571.113   -74149.773 
Loop time of 428.461 on 1 procs for 4505 steps with 19652 atoms

Performance: 0.908 ns/day, 26.419 hours/ns, 10.514 timesteps/s
99.6% CPU use with 1 MPI tasks x no OpenMP threads

MPI task timing breakdown:
Section |  min time  |  avg time  |  max time  |%varavg| %total
---------------------------------------------------------------
Pair    | 207.23     | 207.23     | 207.23     |   0.0 | 48.37
Neigh   | 207.56     | 207.56     | 207.56     |   0.0 | 48.44
Comm    | 4.7477     | 4.7477     | 4.7477     |   0.0 |  1.11
Output  | 0.1013     | 0.1013     | 0.1013     |   0.0 |  0.02
Modify  | 6.9114     | 6.9114     | 6.9114     |   0.0 |  1.61
Other   |            | 1.915      |            |       |  0.45

Nlocal:    19652 ave 19652 max 19652 min
Histogram: 1 0 0 0 0 0 0 0 0 0
Nghost:    13735 ave 13735 max 13735 min
Histogram: 1 0 0 0 0 0 0 0 0 0
Neighs:    700157 ave 700157 max 700157 min
Histogram: 1 0 0 0 0 0 0 0 0 0

Total # of neighbors = 700157
Ave neighs/atom = 35.6278
Neighbor list builds = 4505
Dangerous builds not checked
Setting up Verlet run ...
  Unit style    : metal
  Current step  : 120000
  Time step     : 0.001
Per MPI rank memory allocation (min/avg/max) = 18.2 | 18.2 | 18.2 Mbytes
Step Temp Press TotEng PotEng Enthalpy 
  120000    1665.3376    449.66505   -74341.004   -78571.113   -74149.773 
  120495    1606.8599    867.79135   -74588.278   -78669.848   -74219.984 
Loop time of 46.4781 on 1 procs for 495 steps with 19652 atoms

Performance: 0.920 ns/day, 26.082 hours/ns, 10.650 timesteps/s
99.2% CPU use with 1 MPI tasks x no OpenMP threads

MPI task timing breakdown:
Section |  min time  |  avg time  |  max time  |%varavg| %total
---------------------------------------------------------------
Pair    | 22.398     | 22.398     | 22.398     |   0.0 | 48.19
Neigh   | 22.622     | 22.622     | 22.622     |   0.0 | 48.67
Comm    | 0.5118     | 0.5118     | 0.5118     |   0.0 |  1.10
Output  | 0.00018382 | 0.00018382 | 0.00018382 |   0.0 |  0.00
Modify  | 0.73891    | 0.73891    | 0.73891    |   0.0 |  1.59
Other   |            | 0.2079     |            |       |  0.45

Nlocal:    19652 ave 19652 max 19652 min
Histogram: 1 0 0 0 0 0 0 0 0 0
Nghost:    13713 ave 13713 max 13713 min
Histogram: 1 0 0 0 0 0 0 0 0 0
Neighs:    701437 ave 701437 max 701437 min
Histogram: 1 0 0 0 0 0 0 0 0 0

Total # of neighbors = 701437
Ave neighs/atom = 35.6929
Neighbor list builds = 495
Dangerous builds not checked
Setting up Verlet run ...
  Unit style    : metal
  Current step  : 120495
  Time step     : 0.001
Per MPI rank memory allocation (min/avg/max) = 18.2 | 18.2 | 18.2 Mbytes
Step Temp Press TotEng PotEng Enthalpy 
  120495    1606.8599    867.79135   -74588.278   -78669.848   -74219.984 
  125000    1611.1114    320.88634   -74636.279   -78728.649    -74500.03 
Loop time of 438.089 on 1 procs for 4505 steps with 19652 atoms

Performance: 0.888 ns/day, 27.013 hours/ns, 10.283 timesteps/s
98.6% CPU use with 1 MPI tasks x no OpenMP threads

MPI task timing breakdown:
Section |  min time  |  avg time  |  max time  |%varavg| %total
---------------------------------------------------------------
Pair    | 212.05     | 212.05     | 212.05     |   0.0 | 48.40
Neigh   | 212.33     | 212.33     | 212.33     |   0.0 | 48.47
Comm    | 4.7564     | 4.7564     | 4.7564     |   0.0 |  1.09
Output  | 0.080205   | 0.080205   | 0.080205   |   0.0 |  0.02
Modify  | 6.9415     | 6.9415     | 6.9415     |   0.0 |  1.58
Other   |            | 1.933      |            |       |  0.44

Nlocal:    19652 ave 19652 max 19652 min
Histogram: 1 0 0 0 0 0 0 0 0 0
Nghost:    13722 ave 13722 max 13722 min
Histogram: 1 0 0 0 0 0 0 0 0 0
Neighs:    700488 ave 700488 max 700488 min
Histogram: 1 0 0 0 0 0 0 0 0 0

Total # of neighbors = 700488
Ave neighs/atom = 35.6446
Neighbor list builds = 4505
Dangerous builds not checked
Setting up Verlet run ...
  Unit style    : metal
  Current step  : 125000
  Time step     : 0.001
Per MPI rank memory allocation (min/avg/max) = 18.2 | 18.2 | 18.2 Mbytes
Step Temp Press TotEng PotEng Enthalpy 
  125000    1611.1114    320.88634   -74636.279   -78728.649    -74500.03 
  125495     1564.799    541.55423   -74921.075   -78895.807   -74691.579 
Loop time of 47.9704 on 1 procs for 495 steps with 19652 atoms

Performance: 0.892 ns/day, 26.919 hours/ns, 10.319 timesteps/s
97.4% CPU use with 1 MPI tasks x no OpenMP threads

MPI task timing breakdown:
Section |  min time  |  avg time  |  max time  |%varavg| %total
---------------------------------------------------------------
Pair    | 23.22      | 23.22      | 23.22      |   0.0 | 48.41
Neigh   | 23.249     | 23.249     | 23.249     |   0.0 | 48.47
Comm    | 0.53405    | 0.53405    | 0.53405    |   0.0 |  1.11
Output  | 0.00019097 | 0.00019097 | 0.00019097 |   0.0 |  0.00
Modify  | 0.75178    | 0.75178    | 0.75178    |   0.0 |  1.57
Other   |            | 0.2148     |            |       |  0.45

Nlocal:    19652 ave 19652 max 19652 min
Histogram: 1 0 0 0 0 0 0 0 0 0
Nghost:    13787 ave 13787 max 13787 min
Histogram: 1 0 0 0 0 0 0 0 0 0
Neighs:    701785 ave 701785 max 701785 min
Histogram: 1 0 0 0 0 0 0 0 0 0

Total # of neighbors = 701785
Ave neighs/atom = 35.7106
Neighbor list builds = 495
Dangerous builds not checked
Setting up Verlet run ...
  Unit style    : metal
  Current step  : 125495
  Time step     : 0.001
Per MPI rank memory allocation (min/avg/max) = 18.2 | 18.2 | 18.2 Mbytes
Step Temp Press TotEng PotEng Enthalpy 
  125495     1564.799    541.55423   -74921.075   -78895.807   -74691.579 
  130000    1543.1189    342.05758   -75073.334   -78992.996   -74928.481 
Loop time of 416.706 on 1 procs for 4505 steps with 19652 atoms

Performance: 0.934 ns/day, 25.694 hours/ns, 10.811 timesteps/s
98.6% CPU use with 1 MPI tasks x no OpenMP threads

MPI task timing breakdown:
Section |  min time  |  avg time  |  max time  |%varavg| %total
---------------------------------------------------------------
Pair    | 201.05     | 201.05     | 201.05     |   0.0 | 48.25
Neigh   | 202.52     | 202.52     | 202.52     |   0.0 | 48.60
Comm    | 4.5458     | 4.5458     | 4.5458     |   0.0 |  1.09
Output  | 0.077747   | 0.077747   | 0.077747   |   0.0 |  0.02
Modify  | 6.6567     | 6.6567     | 6.6567     |   0.0 |  1.60
Other   |            | 1.853      |            |       |  0.44

Nlocal:    19652 ave 19652 max 19652 min
Histogram: 1 0 0 0 0 0 0 0 0 0
Nghost:    13757 ave 13757 max 13757 min
Histogram: 1 0 0 0 0 0 0 0 0 0
Neighs:    701192 ave 701192 max 701192 min
Histogram: 1 0 0 0 0 0 0 0 0 0

Total # of neighbors = 701192
Ave neighs/atom = 35.6804
Neighbor list builds = 4505
Dangerous builds not checked
Setting up Verlet run ...
  Unit style    : metal
  Current step  : 130000
  Time step     : 0.001
Per MPI rank memory allocation (min/avg/max) = 18.2 | 18.2 | 18.2 Mbytes
Step Temp Press TotEng PotEng Enthalpy 
  130000    1543.1189    342.05758   -75073.334   -78992.996   -74928.481 
  130495    1518.4237    407.47571   -75279.907   -79136.842   -75107.636 
Loop time of 44.554 on 1 procs for 495 steps with 19652 atoms

Performance: 0.960 ns/day, 25.002 hours/ns, 11.110 timesteps/s
97.6% CPU use with 1 MPI tasks x no OpenMP threads

MPI task timing breakdown:
Section |  min time  |  avg time  |  max time  |%varavg| %total
---------------------------------------------------------------
Pair    | 21.42      | 21.42      | 21.42      |   0.0 | 48.08
Neigh   | 21.732     | 21.732     | 21.732     |   0.0 | 48.78
Comm    | 0.4867     | 0.4867     | 0.4867     |   0.0 |  1.09
Output  | 0.00018191 | 0.00018191 | 0.00018191 |   0.0 |  0.00
Modify  | 0.71872    | 0.71872    | 0.71872    |   0.0 |  1.61
Other   |            | 0.1965     |            |       |  0.44

Nlocal:    19652 ave 19652 max 19652 min
Histogram: 1 0 0 0 0 0 0 0 0 0
Nghost:    13799 ave 13799 max 13799 min
Histogram: 1 0 0 0 0 0 0 0 0 0
Neighs:    701969 ave 701969 max 701969 min
Histogram: 1 0 0 0 0 0 0 0 0 0

Total # of neighbors = 701969
Ave neighs/atom = 35.72
Neighbor list builds = 495
Dangerous builds not checked
Setting up Verlet run ...
  Unit style    : metal
  Current step  : 130495
  Time step     : 0.001
Per MPI rank memory allocation (min/avg/max) = 18.2 | 18.2 | 18.2 Mbytes
Step Temp Press TotEng PotEng Enthalpy 
  130495    1518.4237    407.47571   -75279.907   -79136.842   -75107.636 
  135000    1499.1949   -814.15289   -75399.549   -79207.641   -75744.702 
Loop time of 424.627 on 1 procs for 4505 steps with 19652 atoms

Performance: 0.917 ns/day, 26.182 hours/ns, 10.609 timesteps/s
98.4% CPU use with 1 MPI tasks x no OpenMP threads

MPI task timing breakdown:
Section |  min time  |  avg time  |  max time  |%varavg| %total
---------------------------------------------------------------
Pair    | 205.87     | 205.87     | 205.87     |   0.0 | 48.48
Neigh   | 205.5      | 205.5      | 205.5      |   0.0 | 48.40
Comm    | 4.6233     | 4.6233     | 4.6233     |   0.0 |  1.09
Output  | 0.085673   | 0.085673   | 0.085673   |   0.0 |  0.02
Modify  | 6.6847     | 6.6847     | 6.6847     |   0.0 |  1.57
Other   |            | 1.862      |            |       |  0.44

Nlocal:    19652 ave 19652 max 19652 min
Histogram: 1 0 0 0 0 0 0 0 0 0
Nghost:    13706 ave 13706 max 13706 min
Histogram: 1 0 0 0 0 0 0 0 0 0
Neighs:    700284 ave 700284 max 700284 min
Histogram: 1 0 0 0 0 0 0 0 0 0

Total # of neighbors = 700284
Ave neighs/atom = 35.6342
Neighbor list builds = 4505
Dangerous builds not checked
Setting up Verlet run ...
  Unit style    : metal
  Current step  : 135000
  Time step     : 0.001
Per MPI rank memory allocation (min/avg/max) = 18.2 | 18.2 | 18.2 Mbytes
Step Temp Press TotEng PotEng Enthalpy 
  135000    1499.1949   -814.15289   -75399.549   -79207.641   -75744.702 
  135495    1462.7191   -678.18775   -75587.855   -79303.294   -75874.883 
Loop time of 48.4091 on 1 procs for 495 steps with 19652 atoms

Performance: 0.883 ns/day, 27.166 hours/ns, 10.225 timesteps/s
94.6% CPU use with 1 MPI tasks x no OpenMP threads

MPI task timing breakdown:
Section |  min time  |  avg time  |  max time  |%varavg| %total
---------------------------------------------------------------
Pair    | 23.593     | 23.593     | 23.593     |   0.0 | 48.74
Neigh   | 23.321     | 23.321     | 23.321     |   0.0 | 48.18
Comm    | 0.53644    | 0.53644    | 0.53644    |   0.0 |  1.11
Output  | 0.00017595 | 0.00017595 | 0.00017595 |   0.0 |  0.00
Modify  | 0.75369    | 0.75369    | 0.75369    |   0.0 |  1.56
Other   |            | 0.2049     |            |       |  0.42

Nlocal:    19652 ave 19652 max 19652 min
Histogram: 1 0 0 0 0 0 0 0 0 0
Nghost:    13760 ave 13760 max 13760 min
Histogram: 1 0 0 0 0 0 0 0 0 0
Neighs:    701113 ave 701113 max 701113 min
Histogram: 1 0 0 0 0 0 0 0 0 0

Total # of neighbors = 701113
Ave neighs/atom = 35.6764
Neighbor list builds = 495
Dangerous builds not checked
Setting up Verlet run ...
  Unit style    : metal
  Current step  : 135495
  Time step     : 0.001
Per MPI rank memory allocation (min/avg/max) = 18.2 | 18.2 | 18.2 Mbytes
Step Temp Press TotEng PotEng Enthalpy 
  135495    1462.7191   -678.18775   -75587.855   -79303.294   -75874.883 
  140000    1457.9144     834.4631    -75709.47   -79412.706   -75358.251 
Loop time of 406.121 on 1 procs for 4505 steps with 19652 atoms

Performance: 0.958 ns/day, 25.041 hours/ns, 11.093 timesteps/s
98.9% CPU use with 1 MPI tasks x no OpenMP threads

MPI task timing breakdown:
Section |  min time  |  avg time  |  max time  |%varavg| %total
---------------------------------------------------------------
Pair    | 194.95     | 194.95     | 194.95     |   0.0 | 48.00
Neigh   | 198.49     | 198.49     | 198.49     |   0.0 | 48.87
Comm    | 4.3566     | 4.3566     | 4.3566     |   0.0 |  1.07
Output  | 0.082844   | 0.082844   | 0.082844   |   0.0 |  0.02
Modify  | 6.5173     | 6.5173     | 6.5173     |   0.0 |  1.60
Other   |            | 1.729      |            |       |  0.43

Nlocal:    19652 ave 19652 max 19652 min
Histogram: 1 0 0 0 0 0 0 0 0 0
Nghost:    13828 ave 13828 max 13828 min
Histogram: 1 0 0 0 0 0 0 0 0 0
Neighs:    703984 ave 703984 max 703984 min
Histogram: 1 0 0 0 0 0 0 0 0 0

Total # of neighbors = 703984
Ave neighs/atom = 35.8225
Neighbor list builds = 4505
Dangerous builds not checked
Setting up Verlet run ...
  Unit style    : metal
  Current step  : 140000
  Time step     : 0.001
Per MPI rank memory allocation (min/avg/max) = 18.2 | 18.2 | 18.2 Mbytes
Step Temp Press TotEng PotEng Enthalpy 
  140000    1457.9144     834.4631    -75709.47   -79412.706   -75358.251 
  140495    1416.5535    773.21539   -75893.399   -79491.573   -75568.228 
Loop time of 43.4353 on 1 procs for 495 steps with 19652 atoms

Performance: 0.985 ns/day, 24.374 hours/ns, 11.396 timesteps/s
99.8% CPU use with 1 MPI tasks x no OpenMP threads

MPI task timing breakdown:
Section |  min time  |  avg time  |  max time  |%varavg| %total
---------------------------------------------------------------
Pair    | 20.849     | 20.849     | 20.849     |   0.0 | 48.00
Neigh   | 21.235     | 21.235     | 21.235     |   0.0 | 48.89
Comm    | 0.46968    | 0.46968    | 0.46968    |   0.0 |  1.08
Output  | 0.00023103 | 0.00023103 | 0.00023103 |   0.0 |  0.00
Modify  | 0.69346    | 0.69346    | 0.69346    |   0.0 |  1.60
Other   |            | 0.1877     |            |       |  0.43

Nlocal:    19652 ave 19652 max 19652 min
Histogram: 1 0 0 0 0 0 0 0 0 0
Nghost:    13749 ave 13749 max 13749 min
Histogram: 1 0 0 0 0 0 0 0 0 0
Neighs:    704487 ave 704487 max 704487 min
Histogram: 1 0 0 0 0 0 0 0 0 0

Total # of neighbors = 704487
Ave neighs/atom = 35.8481
Neighbor list builds = 495
Dangerous builds not checked
Setting up Verlet run ...
  Unit style    : metal
  Current step  : 140495
  Time step     : 0.001
Per MPI rank memory allocation (min/avg/max) = 18.2 | 18.2 | 18.2 Mbytes
Step Temp Press TotEng PotEng Enthalpy 
  140495    1416.5535    773.21539   -75893.399   -79491.573   -75568.228 
  145000    1412.0047   -381.47392   -76113.775   -79700.396   -76274.489 
Loop time of 410.077 on 1 procs for 4505 steps with 19652 atoms

Performance: 0.949 ns/day, 25.285 hours/ns, 10.986 timesteps/s
98.6% CPU use with 1 MPI tasks x no OpenMP threads

MPI task timing breakdown:
Section |  min time  |  avg time  |  max time  |%varavg| %total
---------------------------------------------------------------
Pair    | 197.83     | 197.83     | 197.83     |   0.0 | 48.24
Neigh   | 199.22     | 199.22     | 199.22     |   0.0 | 48.58
Comm    | 4.4196     | 4.4196     | 4.4196     |   0.0 |  1.08
Output  | 0.17206    | 0.17206    | 0.17206    |   0.0 |  0.04
Modify  | 6.6545     | 6.6545     | 6.6545     |   0.0 |  1.62
Other   |            | 1.775      |            |       |  0.43

Nlocal:    19652 ave 19652 max 19652 min
Histogram: 1 0 0 0 0 0 0 0 0 0
Nghost:    13819 ave 13819 max 13819 min
Histogram: 1 0 0 0 0 0 0 0 0 0
Neighs:    702088 ave 702088 max 702088 min
Histogram: 1 0 0 0 0 0 0 0 0 0

Total # of neighbors = 702088
Ave neighs/atom = 35.726
Neighbor list builds = 4505
Dangerous builds not checked
Setting up Verlet run ...
  Unit style    : metal
  Current step  : 145000
  Time step     : 0.001
Per MPI rank memory allocation (min/avg/max) = 18.2 | 18.2 | 18.2 Mbytes
Step Temp Press TotEng PotEng Enthalpy 
  145000    1412.0047   -381.47392   -76113.775   -79700.396   -76274.489 
  145495    1372.5106   -442.30178   -76295.872   -79782.174   -76482.024 
Loop time of 49.2078 on 1 procs for 495 steps with 19652 atoms

Performance: 0.869 ns/day, 27.614 hours/ns, 10.059 timesteps/s
96.6% CPU use with 1 MPI tasks x no OpenMP threads

MPI task timing breakdown:
Section |  min time  |  avg time  |  max time  |%varavg| %total
---------------------------------------------------------------
Pair    | 23.928     | 23.928     | 23.928     |   0.0 | 48.63
Neigh   | 23.715     | 23.715     | 23.715     |   0.0 | 48.19
Comm    | 0.54316    | 0.54316    | 0.54316    |   0.0 |  1.10
Output  | 0.00018883 | 0.00018883 | 0.00018883 |   0.0 |  0.00
Modify  | 0.78748    | 0.78748    | 0.78748    |   0.0 |  1.60
Other   |            | 0.2339     |            |       |  0.48

Nlocal:    19652 ave 19652 max 19652 min
Histogram: 1 0 0 0 0 0 0 0 0 0
Nghost:    13819 ave 13819 max 13819 min
Histogram: 1 0 0 0 0 0 0 0 0 0
Neighs:    702498 ave 702498 max 702498 min
Histogram: 1 0 0 0 0 0 0 0 0 0

Total # of neighbors = 702498
Ave neighs/atom = 35.7469
Neighbor list builds = 495
Dangerous builds not checked
Setting up Verlet run ...
  Unit style    : metal
  Current step  : 145495
  Time step     : 0.001
Per MPI rank memory allocation (min/avg/max) = 18.2 | 18.2 | 18.2 Mbytes
Step Temp Press TotEng PotEng Enthalpy 
  145495    1372.5106   -442.30178   -76295.872   -79782.174   -76482.024 
  150000    1345.9496    245.85164   -76436.931   -79855.766   -76333.781 
Loop time of 408.554 on 1 procs for 4505 steps with 19652 atoms

Performance: 0.953 ns/day, 25.191 hours/ns, 11.027 timesteps/s
99.6% CPU use with 1 MPI tasks x no OpenMP threads

MPI task timing breakdown:
Section |  min time  |  avg time  |  max time  |%varavg| %total
---------------------------------------------------------------
Pair    | 197.69     | 197.69     | 197.69     |   0.0 | 48.39
Neigh   | 198.07     | 198.07     | 198.07     |   0.0 | 48.48
Comm    | 4.4217     | 4.4217     | 4.4217     |   0.0 |  1.08
Output  | 0.090823   | 0.090823   | 0.090823   |   0.0 |  0.02
Modify  | 6.4905     | 6.4905     | 6.4905     |   0.0 |  1.59
Other   |            | 1.791      |            |       |  0.44

Nlocal:    19652 ave 19652 max 19652 min
Histogram: 1 0 0 0 0 0 0 0 0 0
Nghost:    13772 ave 13772 max 13772 min
Histogram: 1 0 0 0 0 0 0 0 0 0
Neighs:    704363 ave 704363 max 704363 min
Histogram: 1 0 0 0 0 0 0 0 0 0

Total # of neighbors = 704363
Ave neighs/atom = 35.8418
Neighbor list builds = 4505
Dangerous builds not checked
Setting up Verlet run ...
  Unit style    : metal
  Current step  : 150000
  Time step     : 0.001
Per MPI rank memory allocation (min/avg/max) = 18.2 | 18.2 | 18.2 Mbytes
Step Temp Press TotEng PotEng Enthalpy 
  150000    1345.9496    245.85164   -76436.931   -79855.766   -76333.781 
  150495    1320.5133     197.4525   -76634.461   -79988.685   -76551.709 
Loop time of 45.8202 on 1 procs for 495 steps with 19652 atoms

Performance: 0.933 ns/day, 25.713 hours/ns, 10.803 timesteps/s
100.0% CPU use with 1 MPI tasks x no OpenMP threads

MPI task timing breakdown:
Section |  min time  |  avg time  |  max time  |%varavg| %total
---------------------------------------------------------------
Pair    | 22.29      | 22.29      | 22.29      |   0.0 | 48.65
Neigh   | 22.093     | 22.093     | 22.093     |   0.0 | 48.22
Comm    | 0.50022    | 0.50022    | 0.50022    |   0.0 |  1.09
Output  | 0.00014591 | 0.00014591 | 0.00014591 |   0.0 |  0.00
Modify  | 0.73546    | 0.73546    | 0.73546    |   0.0 |  1.61
Other   |            | 0.2016     |            |       |  0.44

Nlocal:    19652 ave 19652 max 19652 min
Histogram: 1 0 0 0 0 0 0 0 0 0
Nghost:    13826 ave 13826 max 13826 min
Histogram: 1 0 0 0 0 0 0 0 0 0
Neighs:    704442 ave 704442 max 704442 min
Histogram: 1 0 0 0 0 0 0 0 0 0

Total # of neighbors = 704442
Ave neighs/atom = 35.8458
Neighbor list builds = 495
Dangerous builds not checked
Setting up Verlet run ...
  Unit style    : metal
  Current step  : 150495
  Time step     : 0.001
Per MPI rank memory allocation (min/avg/max) = 18.2 | 18.2 | 18.2 Mbytes
Step Temp Press TotEng PotEng Enthalpy 
  150495    1320.5133     197.4525   -76634.461   -79988.685   -76551.709 
  155000    1305.8913    442.98552   -76748.198   -80065.281   -76562.868 
Loop time of 415.908 on 1 procs for 4505 steps with 19652 atoms

Performance: 0.936 ns/day, 25.645 hours/ns, 10.832 timesteps/s
97.1% CPU use with 1 MPI tasks x no OpenMP threads

MPI task timing breakdown:
Section |  min time  |  avg time  |  max time  |%varavg| %total
---------------------------------------------------------------
Pair    | 201.11     | 201.11     | 201.11     |   0.0 | 48.35
Neigh   | 201.69     | 201.69     | 201.69     |   0.0 | 48.49
Comm    | 4.5411     | 4.5411     | 4.5411     |   0.0 |  1.09
Output  | 0.13271    | 0.13271    | 0.13271    |   0.0 |  0.03
Modify  | 6.6248     | 6.6248     | 6.6248     |   0.0 |  1.59
Other   |            | 1.816      |            |       |  0.44

Nlocal:    19652 ave 19652 max 19652 min
Histogram: 1 0 0 0 0 0 0 0 0 0
Nghost:    13878 ave 13878 max 13878 min
Histogram: 1 0 0 0 0 0 0 0 0 0
Neighs:    705180 ave 705180 max 705180 min
Histogram: 1 0 0 0 0 0 0 0 0 0

Total # of neighbors = 705180
Ave neighs/atom = 35.8834
Neighbor list builds = 4505
Dangerous builds not checked
Setting up Verlet run ...
  Unit style    : metal
  Current step  : 155000
  Time step     : 0.001
Per MPI rank memory allocation (min/avg/max) = 18.2 | 18.2 | 18.2 Mbytes
Step Temp Press TotEng PotEng Enthalpy 
  155000    1305.8913    442.98552   -76748.198   -80065.281   -76562.868 
  155495    1269.5726    219.27985   -76934.705   -80159.535   -76842.979 
Loop time of 64.536 on 1 procs for 495 steps with 19652 atoms

Performance: 0.663 ns/day, 36.215 hours/ns, 7.670 timesteps/s
70.7% CPU use with 1 MPI tasks x no OpenMP threads

MPI task timing breakdown:
Section |  min time  |  avg time  |  max time  |%varavg| %total
---------------------------------------------------------------
Pair    | 31.301     | 31.301     | 31.301     |   0.0 | 48.50
Neigh   | 31.13      | 31.13      | 31.13      |   0.0 | 48.24
Comm    | 0.72048    | 0.72048    | 0.72048    |   0.0 |  1.12
Output  | 0.00014997 | 0.00014997 | 0.00014997 |   0.0 |  0.00
Modify  | 1.1184     | 1.1184     | 1.1184     |   0.0 |  1.73
Other   |            | 0.266      |            |       |  0.41

Nlocal:    19652 ave 19652 max 19652 min
Histogram: 1 0 0 0 0 0 0 0 0 0
Nghost:    13813 ave 13813 max 13813 min
Histogram: 1 0 0 0 0 0 0 0 0 0
Neighs:    705127 ave 705127 max 705127 min
Histogram: 1 0 0 0 0 0 0 0 0 0

Total # of neighbors = 705127
Ave neighs/atom = 35.8807
Neighbor list builds = 495
Dangerous builds not checked
Setting up Verlet run ...
  Unit style    : metal
  Current step  : 155495
  Time step     : 0.001
Per MPI rank memory allocation (min/avg/max) = 18.2 | 18.2 | 18.2 Mbytes
Step Temp Press TotEng PotEng Enthalpy 
  155495    1269.5726    219.27985   -76934.705   -80159.535   -76842.979 
  160000    1250.0562   -213.73848   -77092.122   -80267.379   -77181.525 
Loop time of 411.93 on 1 procs for 4505 steps with 19652 atoms

Performance: 0.945 ns/day, 25.400 hours/ns, 10.936 timesteps/s
99.5% CPU use with 1 MPI tasks x no OpenMP threads

MPI task timing breakdown:
Section |  min time  |  avg time  |  max time  |%varavg| %total
---------------------------------------------------------------
Pair    | 199.58     | 199.58     | 199.58     |   0.0 | 48.45
Neigh   | 199.36     | 199.36     | 199.36     |   0.0 | 48.40
Comm    | 4.502      | 4.502      | 4.502      |   0.0 |  1.09
Output  | 0.074304   | 0.074304   | 0.074304   |   0.0 |  0.02
Modify  | 6.6034     | 6.6034     | 6.6034     |   0.0 |  1.60
Other   |            | 1.805      |            |       |  0.44

Nlocal:    19652 ave 19652 max 19652 min
Histogram: 1 0 0 0 0 0 0 0 0 0
Nghost:    13837 ave 13837 max 13837 min
Histogram: 1 0 0 0 0 0 0 0 0 0
Neighs:    704372 ave 704372 max 704372 min
Histogram: 1 0 0 0 0 0 0 0 0 0

Total # of neighbors = 704372
Ave neighs/atom = 35.8423
Neighbor list builds = 4505
Dangerous builds not checked
Setting up Verlet run ...
  Unit style    : metal
  Current step  : 160000
  Time step     : 0.001
Per MPI rank memory allocation (min/avg/max) = 18.2 | 18.2 | 18.2 Mbytes
Step Temp Press TotEng PotEng Enthalpy 
  160000    1250.0562   -213.73848   -77092.122   -80267.379   -77181.525 
  160495    1203.8301    17.138923   -77296.952    -80354.79   -77289.793 
Loop time of 50.423 on 1 procs for 495 steps with 19652 atoms

Performance: 0.848 ns/day, 28.296 hours/ns, 9.817 timesteps/s
93.5% CPU use with 1 MPI tasks x no OpenMP threads

MPI task timing breakdown:
Section |  min time  |  avg time  |  max time  |%varavg| %total
---------------------------------------------------------------
Pair    | 24.613     | 24.613     | 24.613     |   0.0 | 48.81
Neigh   | 24.233     | 24.233     | 24.233     |   0.0 | 48.06
Comm    | 0.57232    | 0.57232    | 0.57232    |   0.0 |  1.14
Output  | 0.000139   | 0.000139   | 0.000139   |   0.0 |  0.00
Modify  | 0.78616    | 0.78616    | 0.78616    |   0.0 |  1.56
Other   |            | 0.2177     |            |       |  0.43

Nlocal:    19652 ave 19652 max 19652 min
Histogram: 1 0 0 0 0 0 0 0 0 0
Nghost:    13827 ave 13827 max 13827 min
Histogram: 1 0 0 0 0 0 0 0 0 0
Neighs:    704882 ave 704882 max 704882 min
Histogram: 1 0 0 0 0 0 0 0 0 0

Total # of neighbors = 704882
Ave neighs/atom = 35.8682
Neighbor list builds = 495
Dangerous builds not checked
Setting up Verlet run ...
  Unit style    : metal
  Current step  : 160495
  Time step     : 0.001
Per MPI rank memory allocation (min/avg/max) = 18.2 | 18.2 | 18.2 Mbytes
Step Temp Press TotEng PotEng Enthalpy 
  160495    1203.8301    17.138923   -77296.952    -80354.79   -77289.793 
  165000    1206.4266     740.4304   -77438.817    -80503.25   -77130.562 
Loop time of 418.524 on 1 procs for 4505 steps with 19652 atoms

Performance: 0.930 ns/day, 25.806 hours/ns, 10.764 timesteps/s
98.7% CPU use with 1 MPI tasks x no OpenMP threads

MPI task timing breakdown:
Section |  min time  |  avg time  |  max time  |%varavg| %total
---------------------------------------------------------------
Pair    | 203.34     | 203.34     | 203.34     |   0.0 | 48.59
Neigh   | 202.06     | 202.06     | 202.06     |   0.0 | 48.28
Comm    | 4.5253     | 4.5253     | 4.5253     |   0.0 |  1.08
Output  | 0.090521   | 0.090521   | 0.090521   |   0.0 |  0.02
Modify  | 6.6847     | 6.6847     | 6.6847     |   0.0 |  1.60
Other   |            | 1.822      |            |       |  0.44

Nlocal:    19652 ave 19652 max 19652 min
Histogram: 1 0 0 0 0 0 0 0 0 0
Nghost:    13863 ave 13863 max 13863 min
Histogram: 1 0 0 0 0 0 0 0 0 0
Neighs:    706093 ave 706093 max 706093 min
Histogram: 1 0 0 0 0 0 0 0 0 0

Total # of neighbors = 706093
Ave neighs/atom = 35.9298
Neighbor list builds = 4505
Dangerous builds not checked
Setting up Verlet run ...
  Unit style    : metal
  Current step  : 165000
  Time step     : 0.001
Per MPI rank memory allocation (min/avg/max) = 18.2 | 18.2 | 18.2 Mbytes
Step Temp Press TotEng PotEng Enthalpy 
  165000    1206.4266     740.4304   -77438.817    -80503.25   -77130.562 
  165495    1157.6061    529.67107   -77647.119   -80587.544   -77426.716 
Loop time of 44.188 on 1 procs for 495 steps with 19652 atoms

Performance: 0.968 ns/day, 24.797 hours/ns, 11.202 timesteps/s
100.0% CPU use with 1 MPI tasks x no OpenMP threads

MPI task timing breakdown:
Section |  min time  |  avg time  |  max time  |%varavg| %total
---------------------------------------------------------------
Pair    | 21.509     | 21.509     | 21.509     |   0.0 | 48.68
Neigh   | 21.332     | 21.332     | 21.332     |   0.0 | 48.28
Comm    | 0.47847    | 0.47847    | 0.47847    |   0.0 |  1.08
Output  | 0.00018096 | 0.00018096 | 0.00018096 |   0.0 |  0.00
Modify  | 0.67704    | 0.67704    | 0.67704    |   0.0 |  1.53
Other   |            | 0.1911     |            |       |  0.43

Nlocal:    19652 ave 19652 max 19652 min
Histogram: 1 0 0 0 0 0 0 0 0 0
Nghost:    13926 ave 13926 max 13926 min
Histogram: 1 0 0 0 0 0 0 0 0 0
Neighs:    706500 ave 706500 max 706500 min
Histogram: 1 0 0 0 0 0 0 0 0 0

Total # of neighbors = 706500
Ave neighs/atom = 35.9505
Neighbor list builds = 495
Dangerous builds not checked
Setting up Verlet run ...
  Unit style    : metal
  Current step  : 165495
  Time step     : 0.001
Per MPI rank memory allocation (min/avg/max) = 18.2 | 18.2 | 18.2 Mbytes
Step Temp Press TotEng PotEng Enthalpy 
  165495    1157.6061    529.67107   -77647.119   -80587.544   -77426.716 
  170000     1156.297    296.99449   -77778.878   -80715.978   -77655.364 
Loop time of 420.67 on 1 procs for 4505 steps with 19652 atoms

Performance: 0.925 ns/day, 25.938 hours/ns, 10.709 timesteps/s
98.6% CPU use with 1 MPI tasks x no OpenMP threads

MPI task timing breakdown:
Section |  min time  |  avg time  |  max time  |%varavg| %total
---------------------------------------------------------------
Pair    | 205.13     | 205.13     | 205.13     |   0.0 | 48.76
Neigh   | 202.25     | 202.25     | 202.25     |   0.0 | 48.08
Comm    | 4.5761     | 4.5761     | 4.5761     |   0.0 |  1.09
Output  | 0.086131   | 0.086131   | 0.086131   |   0.0 |  0.02
Modify  | 6.7449     | 6.7449     | 6.7449     |   0.0 |  1.60
Other   |            | 1.878      |            |       |  0.45

Nlocal:    19652 ave 19652 max 19652 min
Histogram: 1 0 0 0 0 0 0 0 0 0
Nghost:    13821 ave 13821 max 13821 min
Histogram: 1 0 0 0 0 0 0 0 0 0
Neighs:    705891 ave 705891 max 705891 min
Histogram: 1 0 0 0 0 0 0 0 0 0

Total # of neighbors = 705891
Ave neighs/atom = 35.9196
Neighbor list builds = 4505
Dangerous builds not checked
Setting up Verlet run ...
  Unit style    : metal
[...]
Nghost:    14002 ave 14002 max 14002 min
Histogram: 1 0 0 0 0 0 0 0 0 0
Neighs:    707619 ave 707619 max 707619 min
Histogram: 1 0 0 0 0 0 0 0 0 0

Total # of neighbors = 707619
Ave neighs/atom = 36.0075
Neighbor list builds = 4505
Dangerous builds not checked
Setting up Verlet run ...
  Unit style    : metal
  Current step  : 240000
  Time step     : 0.001
Per MPI rank memory allocation (min/avg/max) = 18.2 | 18.2 | 18.2 Mbytes
Step Temp Press TotEng PotEng Enthalpy 
  240000    448.33888   -143.70358     -82271.8   -83410.622   -82329.906 
  240495    418.49574   -25.109586   -82420.736   -83483.753   -82430.876 
Loop time of 47.1878 on 1 procs for 495 steps with 19652 atoms

Performance: 0.906 ns/day, 26.480 hours/ns, 10.490 timesteps/s
100.0% CPU use with 1 MPI tasks x no OpenMP threads

MPI task timing breakdown:
Section |  min time  |  avg time  |  max time  |%varavg| %total
---------------------------------------------------------------
Pair    | 23.936     | 23.936     | 23.936     |   0.0 | 50.72
Neigh   | 21.748     | 21.748     | 21.748     |   0.0 | 46.09
Comm    | 0.53177    | 0.53177    | 0.53177    |   0.0 |  1.13
Output  | 0.00017285 | 0.00017285 | 0.00017285 |   0.0 |  0.00
Modify  | 0.77743    | 0.77743    | 0.77743    |   0.0 |  1.65
Other   |            | 0.1952     |            |       |  0.41

Nlocal:    19652 ave 19652 max 19652 min
Histogram: 1 0 0 0 0 0 0 0 0 0
Nghost:    13986 ave 13986 max 13986 min
Histogram: 1 0 0 0 0 0 0 0 0 0
Neighs:    708066 ave 708066 max 708066 min
Histogram: 1 0 0 0 0 0 0 0 0 0

Total # of neighbors = 708066
Ave neighs/atom = 36.0302
Neighbor list builds = 495
Dangerous builds not checked
Setting up Verlet run ...
  Unit style    : metal
  Current step  : 240495
  Time step     : 0.001
Per MPI rank memory allocation (min/avg/max) = 18.2 | 18.2 | 18.2 Mbytes
Step Temp Press TotEng PotEng Enthalpy 
  240495    418.49574   -25.109586   -82420.736   -83483.753   -82430.876 
  245000    401.62486   -170.52697    -82527.31   -83547.473   -82596.143 
Loop time of 420.387 on 1 procs for 4505 steps with 19652 atoms

Performance: 0.926 ns/day, 25.921 hours/ns, 10.716 timesteps/s
98.3% CPU use with 1 MPI tasks x no OpenMP threads

MPI task timing breakdown:
Section |  min time  |  avg time  |  max time  |%varavg| %total
---------------------------------------------------------------
Pair    | 209.4      | 209.4      | 209.4      |   0.0 | 49.81
Neigh   | 197.74     | 197.74     | 197.74     |   0.0 | 47.04
Comm    | 4.6148     | 4.6148     | 4.6148     |   0.0 |  1.10
Output  | 0.06773    | 0.06773    | 0.06773    |   0.0 |  0.02
Modify  | 6.8183     | 6.8183     | 6.8183     |   0.0 |  1.62
Other   |            | 1.745      |            |       |  0.42

Nlocal:    19652 ave 19652 max 19652 min
Histogram: 1 0 0 0 0 0 0 0 0 0
Nghost:    14010 ave 14010 max 14010 min
Histogram: 1 0 0 0 0 0 0 0 0 0
Neighs:    708217 ave 708217 max 708217 min
Histogram: 1 0 0 0 0 0 0 0 0 0

Total # of neighbors = 708217
Ave neighs/atom = 36.0379
Neighbor list builds = 4505
Dangerous builds not checked
Setting up Verlet run ...
  Unit style    : metal
  Current step  : 245000
  Time step     : 0.001
Per MPI rank memory allocation (min/avg/max) = 18.2 | 18.2 | 18.2 Mbytes
Step Temp Press TotEng PotEng Enthalpy 
  245000    401.62486   -170.52697    -82527.31   -83547.473   -82596.143 
  245495    373.16463   -39.941744   -82690.158    -83638.03   -82706.261 
Loop time of 48.1111 on 1 procs for 495 steps with 19652 atoms

Performance: 0.889 ns/day, 26.998 hours/ns, 10.289 timesteps/s
97.9% CPU use with 1 MPI tasks x no OpenMP threads

MPI task timing breakdown:
Section |  min time  |  avg time  |  max time  |%varavg| %total
---------------------------------------------------------------
Pair    | 23.806     | 23.806     | 23.806     |   0.0 | 49.48
Neigh   | 22.789     | 22.789     | 22.789     |   0.0 | 47.37
Comm    | 0.51599    | 0.51599    | 0.51599    |   0.0 |  1.07
Output  | 0.00014305 | 0.00014305 | 0.00014305 |   0.0 |  0.00
Modify  | 0.80047    | 0.80047    | 0.80047    |   0.0 |  1.66
Other   |            | 0.2        |            |       |  0.42

Nlocal:    19652 ave 19652 max 19652 min
Histogram: 1 0 0 0 0 0 0 0 0 0
Nghost:    14011 ave 14011 max 14011 min
Histogram: 1 0 0 0 0 0 0 0 0 0
Neighs:    708523 ave 708523 max 708523 min
Histogram: 1 0 0 0 0 0 0 0 0 0

Total # of neighbors = 708523
Ave neighs/atom = 36.0535
Neighbor list builds = 495
Dangerous builds not checked
Setting up Verlet run ...
  Unit style    : metal
  Current step  : 245495
  Time step     : 0.001
Per MPI rank memory allocation (min/avg/max) = 18.2 | 18.2 | 18.2 Mbytes
Step Temp Press TotEng PotEng Enthalpy 
  245495    373.16463   -39.941744   -82690.158    -83638.03   -82706.261 
  250000    352.01943    486.70931   -82819.023   -83713.185   -82623.258 
Loop time of 421.437 on 1 procs for 4505 steps with 19652 atoms

Performance: 0.924 ns/day, 25.986 hours/ns, 10.690 timesteps/s
97.3% CPU use with 1 MPI tasks x no OpenMP threads

MPI task timing breakdown:
Section |  min time  |  avg time  |  max time  |%varavg| %total
---------------------------------------------------------------
Pair    | 208.57     | 208.57     | 208.57     |   0.0 | 49.49
Neigh   | 199.13     | 199.13     | 199.13     |   0.0 | 47.25
Comm    | 4.5145     | 4.5145     | 4.5145     |   0.0 |  1.07
Output  | 0.63822    | 0.63822    | 0.63822    |   0.0 |  0.15
Modify  | 6.7811     | 6.7811     | 6.7811     |   0.0 |  1.61
Other   |            | 1.795      |            |       |  0.43

Nlocal:    19652 ave 19652 max 19652 min
Histogram: 1 0 0 0 0 0 0 0 0 0
Nghost:    14043 ave 14043 max 14043 min
Histogram: 1 0 0 0 0 0 0 0 0 0
Neighs:    709703 ave 709703 max 709703 min
Histogram: 1 0 0 0 0 0 0 0 0 0

Total # of neighbors = 709703
Ave neighs/atom = 36.1135
Neighbor list builds = 4505
Dangerous builds not checked
Setting up Verlet run ...
  Unit style    : metal
  Current step  : 250000
  Time step     : 0.001
Per MPI rank memory allocation (min/avg/max) = 18.2 | 18.2 | 18.2 Mbytes
Step Temp Press TotEng PotEng Enthalpy 
  250000    352.01943    486.70931   -82819.023   -83713.185   -82623.258 
  250495    321.25378   -55.420166   -82963.203   -83779.216    -82985.51 
Loop time of 50.6828 on 1 procs for 495 steps with 19652 atoms

Performance: 0.844 ns/day, 28.442 hours/ns, 9.767 timesteps/s
96.1% CPU use with 1 MPI tasks x no OpenMP threads

MPI task timing breakdown:
Section |  min time  |  avg time  |  max time  |%varavg| %total
---------------------------------------------------------------
Pair    | 26.189     | 26.189     | 26.189     |   0.0 | 51.67
Neigh   | 22.787     | 22.787     | 22.787     |   0.0 | 44.96
Comm    | 0.60386    | 0.60386    | 0.60386    |   0.0 |  1.19
Output  | 0.00021315 | 0.00021315 | 0.00021315 |   0.0 |  0.00
Modify  | 0.89014    | 0.89014    | 0.89014    |   0.0 |  1.76
Other   |            | 0.2122     |            |       |  0.42

Nlocal:    19652 ave 19652 max 19652 min
Histogram: 1 0 0 0 0 0 0 0 0 0
Nghost:    14024 ave 14024 max 14024 min
Histogram: 1 0 0 0 0 0 0 0 0 0
Neighs:    708299 ave 708299 max 708299 min
Histogram: 1 0 0 0 0 0 0 0 0 0

Total # of neighbors = 708299
Ave neighs/atom = 36.0421
Neighbor list builds = 495
Dangerous builds not checked
Setting up Verlet run ...
  Unit style    : metal
  Current step  : 250495
  Time step     : 0.001
Per MPI rank memory allocation (min/avg/max) = 18.2 | 18.2 | 18.2 Mbytes
Step Temp Press TotEng PotEng Enthalpy 
  250495    321.25378   -55.420166   -82963.203   -83779.216    -82985.51 
  255000    300.01632    464.31692   -83089.827   -83851.895   -82903.345 
Loop time of 429.968 on 1 procs for 4505 steps with 19652 atoms

Performance: 0.905 ns/day, 26.512 hours/ns, 10.478 timesteps/s
98.4% CPU use with 1 MPI tasks x no OpenMP threads

MPI task timing breakdown:
Section |  min time  |  avg time  |  max time  |%varavg| %total
---------------------------------------------------------------
Pair    | 215.27     | 215.27     | 215.27     |   0.0 | 50.07
Neigh   | 200.98     | 200.98     | 200.98     |   0.0 | 46.74
Comm    | 4.7611     | 4.7611     | 4.7611     |   0.0 |  1.11
Output  | 0.099624   | 0.099624   | 0.099624   |   0.0 |  0.02
Modify  | 7.0195     | 7.0195     | 7.0195     |   0.0 |  1.63
Other   |            | 1.84       |            |       |  0.43

Nlocal:    19652 ave 19652 max 19652 min
Histogram: 1 0 0 0 0 0 0 0 0 0
Nghost:    14018 ave 14018 max 14018 min
Histogram: 1 0 0 0 0 0 0 0 0 0
Neighs:    709500 ave 709500 max 709500 min
Histogram: 1 0 0 0 0 0 0 0 0 0

Total # of neighbors = 709500
Ave neighs/atom = 36.1032
Neighbor list builds = 4505
Dangerous builds not checked
Setting up Verlet run ...
  Unit style    : metal
  Current step  : 255000
  Time step     : 0.001
Per MPI rank memory allocation (min/avg/max) = 18.2 | 18.2 | 18.2 Mbytes
Step Temp Press TotEng PotEng Enthalpy 
  255000    300.01632    464.31692   -83089.827   -83851.895   -82903.345 
  255495    273.40125   -428.84259    -83225.08   -83919.545   -83397.546 
Loop time of 48.8898 on 1 procs for 495 steps with 19652 atoms

Performance: 0.875 ns/day, 27.435 hours/ns, 10.125 timesteps/s
99.6% CPU use with 1 MPI tasks x no OpenMP threads

MPI task timing breakdown:
Section |  min time  |  avg time  |  max time  |%varavg| %total
---------------------------------------------------------------
Pair    | 24.372     | 24.372     | 24.372     |   0.0 | 49.85
Neigh   | 22.924     | 22.924     | 22.924     |   0.0 | 46.89
Comm    | 0.5565     | 0.5565     | 0.5565     |   0.0 |  1.14
Output  | 0.00018501 | 0.00018501 | 0.00018501 |   0.0 |  0.00
Modify  | 0.81994    | 0.81994    | 0.81994    |   0.0 |  1.68
Other   |            | 0.2177     |            |       |  0.45

Nlocal:    19652 ave 19652 max 19652 min
Histogram: 1 0 0 0 0 0 0 0 0 0
Nghost:    13997 ave 13997 max 13997 min
Histogram: 1 0 0 0 0 0 0 0 0 0
Neighs:    708439 ave 708439 max 708439 min
Histogram: 1 0 0 0 0 0 0 0 0 0

Total # of neighbors = 708439
Ave neighs/atom = 36.0492
Neighbor list builds = 495
Dangerous builds not checked
Setting up Verlet run ...
  Unit style    : metal
  Current step  : 255495
  Time step     : 0.001
Per MPI rank memory allocation (min/avg/max) = 18.2 | 18.2 | 18.2 Mbytes
Step Temp Press TotEng PotEng Enthalpy 
  255495    273.40125   -428.84259    -83225.08   -83919.545   -83397.546 
  260000    251.71331     445.9164   -83346.127   -83985.502   -83167.322 
Loop time of 446.372 on 1 procs for 4505 steps with 19652 atoms

Performance: 0.872 ns/day, 27.523 hours/ns, 10.092 timesteps/s
98.5% CPU use with 1 MPI tasks x no OpenMP threads

MPI task timing breakdown:
Section |  min time  |  avg time  |  max time  |%varavg| %total
---------------------------------------------------------------
Pair    | 222.31     | 222.31     | 222.31     |   0.0 | 49.80
Neigh   | 209.81     | 209.81     | 209.81     |   0.0 | 47.00
Comm    | 4.8432     | 4.8432     | 4.8432     |   0.0 |  1.09
Output  | 0.088914   | 0.088914   | 0.088914   |   0.0 |  0.02
Modify  | 7.3758     | 7.3758     | 7.3758     |   0.0 |  1.65
Other   |            | 1.944      |            |       |  0.44

Nlocal:    19652 ave 19652 max 19652 min
Histogram: 1 0 0 0 0 0 0 0 0 0
Nghost:    14046 ave 14046 max 14046 min
Histogram: 1 0 0 0 0 0 0 0 0 0
Neighs:    710236 ave 710236 max 710236 min
Histogram: 1 0 0 0 0 0 0 0 0 0

Total # of neighbors = 710236
Ave neighs/atom = 36.1406
Neighbor list builds = 4505
Dangerous builds not checked
Setting up Verlet run ...
  Unit style    : metal
  Current step  : 260000
  Time step     : 0.001
Per MPI rank memory allocation (min/avg/max) = 18.2 | 18.2 | 18.2 Mbytes
Step Temp Press TotEng PotEng Enthalpy 
  260000    251.71331     445.9164   -83346.127   -83985.502   -83167.322 
  260495    223.69716   -113.72489    -83485.61   -84053.821    -83531.23 
Loop time of 51.2234 on 1 procs for 495 steps with 19652 atoms

Performance: 0.835 ns/day, 28.745 hours/ns, 9.664 timesteps/s
95.3% CPU use with 1 MPI tasks x no OpenMP threads

MPI task timing breakdown:
Section |  min time  |  avg time  |  max time  |%varavg| %total
---------------------------------------------------------------
Pair    | 25.864     | 25.864     | 25.864     |   0.0 | 50.49
Neigh   | 23.761     | 23.761     | 23.761     |   0.0 | 46.39
Comm    | 0.57981    | 0.57981    | 0.57981    |   0.0 |  1.13
Output  | 0.00019407 | 0.00019407 | 0.00019407 |   0.0 |  0.00
Modify  | 0.79553    | 0.79553    | 0.79553    |   0.0 |  1.55
Other   |            | 0.2235     |            |       |  0.44

Nlocal:    19652 ave 19652 max 19652 min
Histogram: 1 0 0 0 0 0 0 0 0 0
Nghost:    14076 ave 14076 max 14076 min
Histogram: 1 0 0 0 0 0 0 0 0 0
Neighs:    709270 ave 709270 max 709270 min
Histogram: 1 0 0 0 0 0 0 0 0 0

Total # of neighbors = 709270
Ave neighs/atom = 36.0915
Neighbor list builds = 495
Dangerous builds not checked
Setting up Verlet run ...
  Unit style    : metal
  Current step  : 260495
  Time step     : 0.001
Per MPI rank memory allocation (min/avg/max) = 18.2 | 18.2 | 18.2 Mbytes
Step Temp Press TotEng PotEng Enthalpy 
  260495    223.69716   -113.72489    -83485.61   -84053.821    -83531.23 
  265000    199.45715    448.78428   -83621.457   -84128.096   -83441.828 
Loop time of 440.411 on 1 procs for 4505 steps with 19652 atoms

Performance: 0.884 ns/day, 27.156 hours/ns, 10.229 timesteps/s
98.7% CPU use with 1 MPI tasks x no OpenMP threads

MPI task timing breakdown:
Section |  min time  |  avg time  |  max time  |%varavg| %total
---------------------------------------------------------------
Pair    | 220.05     | 220.05     | 220.05     |   0.0 | 49.97
Neigh   | 205.95     | 205.95     | 205.95     |   0.0 | 46.76
Comm    | 4.9406     | 4.9406     | 4.9406     |   0.0 |  1.12
Output  | 0.082776   | 0.082776   | 0.082776   |   0.0 |  0.02
Modify  | 7.3656     | 7.3656     | 7.3656     |   0.0 |  1.67
Other   |            | 2.022      |            |       |  0.46

Nlocal:    19652 ave 19652 max 19652 min
Histogram: 1 0 0 0 0 0 0 0 0 0
Nghost:    14055 ave 14055 max 14055 min
Histogram: 1 0 0 0 0 0 0 0 0 0
Neighs:    710583 ave 710583 max 710583 min
Histogram: 1 0 0 0 0 0 0 0 0 0

Total # of neighbors = 710583
Ave neighs/atom = 36.1583
Neighbor list builds = 4505
Dangerous builds not checked
Setting up Verlet run ...
  Unit style    : metal
  Current step  : 265000
  Time step     : 0.001
Per MPI rank memory allocation (min/avg/max) = 18.2 | 18.2 | 18.2 Mbytes
Step Temp Press TotEng PotEng Enthalpy 
  265000    199.45715    448.78428   -83621.457   -84128.096   -83441.828 
  265495     175.5821    359.53707   -83746.744   -84192.739   -83602.919 
Loop time of 49.6271 on 1 procs for 495 steps with 19652 atoms

Performance: 0.862 ns/day, 27.849 hours/ns, 9.974 timesteps/s
98.6% CPU use with 1 MPI tasks x no OpenMP threads

MPI task timing breakdown:
Section |  min time  |  avg time  |  max time  |%varavg| %total
---------------------------------------------------------------
Pair    | 25.763     | 25.763     | 25.763     |   0.0 | 51.91
Neigh   | 22.171     | 22.171     | 22.171     |   0.0 | 44.68
Comm    | 0.60488    | 0.60488    | 0.60488    |   0.0 |  1.22
Output  | 0.00018406 | 0.00018406 | 0.00018406 |   0.0 |  0.00
Modify  | 0.87119    | 0.87119    | 0.87119    |   0.0 |  1.76
Other   |            | 0.2169     |            |       |  0.44

Nlocal:    19652 ave 19652 max 19652 min
Histogram: 1 0 0 0 0 0 0 0 0 0
Nghost:    14066 ave 14066 max 14066 min
Histogram: 1 0 0 0 0 0 0 0 0 0
Neighs:    710488 ave 710488 max 710488 min
Histogram: 1 0 0 0 0 0 0 0 0 0

Total # of neighbors = 710488
Ave neighs/atom = 36.1535
Neighbor list builds = 495
Dangerous builds not checked
Setting up Verlet run ...
  Unit style    : metal
  Current step  : 265495
  Time step     : 0.001
Per MPI rank memory allocation (min/avg/max) = 18.2 | 18.2 | 18.2 Mbytes
Step Temp Press TotEng PotEng Enthalpy 
  265495     175.5821    359.53707   -83746.744   -84192.739   -83602.919 
  270000    150.43898    321.13274   -83882.555   -84264.684   -83754.197 
Loop time of 432.762 on 1 procs for 4505 steps with 19652 atoms

Performance: 0.899 ns/day, 26.684 hours/ns, 10.410 timesteps/s
99.5% CPU use with 1 MPI tasks x no OpenMP threads

MPI task timing breakdown:
Section |  min time  |  avg time  |  max time  |%varavg| %total
---------------------------------------------------------------
Pair    | 217.44     | 217.44     | 217.44     |   0.0 | 50.24
Neigh   | 201.17     | 201.17     | 201.17     |   0.0 | 46.48
Comm    | 4.9391     | 4.9391     | 4.9391     |   0.0 |  1.14
Output  | 0.087427   | 0.087427   | 0.087427   |   0.0 |  0.02
Modify  | 7.2125     | 7.2125     | 7.2125     |   0.0 |  1.67
Other   |            | 1.92       |            |       |  0.44

Nlocal:    19652 ave 19652 max 19652 min
Histogram: 1 0 0 0 0 0 0 0 0 0
Nghost:    14051 ave 14051 max 14051 min
Histogram: 1 0 0 0 0 0 0 0 0 0
Neighs:    710312 ave 710312 max 710312 min
Histogram: 1 0 0 0 0 0 0 0 0 0

Total # of neighbors = 710312
Ave neighs/atom = 36.1445
Neighbor list builds = 4505
Dangerous builds not checked
Setting up Verlet run ...
  Unit style    : metal
  Current step  : 270000
  Time step     : 0.001
Per MPI rank memory allocation (min/avg/max) = 18.2 | 18.2 | 18.2 Mbytes
Step Temp Press TotEng PotEng Enthalpy 
  270000    150.43898    321.13274   -83882.555   -84264.684   -83754.197 
  270495    127.24708   -243.04906    -84001.28   -84324.499   -84098.486 
Loop time of 47.3619 on 1 procs for 495 steps with 19652 atoms

Performance: 0.903 ns/day, 26.578 hours/ns, 10.451 timesteps/s
99.9% CPU use with 1 MPI tasks x no OpenMP threads

MPI task timing breakdown:
Section |  min time  |  avg time  |  max time  |%varavg| %total
---------------------------------------------------------------
Pair    | 23.743     | 23.743     | 23.743     |   0.0 | 50.13
Neigh   | 22.031     | 22.031     | 22.031     |   0.0 | 46.52
Comm    | 0.55009    | 0.55009    | 0.55009    |   0.0 |  1.16
Output  | 0.00018215 | 0.00018215 | 0.00018215 |   0.0 |  0.00
Modify  | 0.81755    | 0.81755    | 0.81755    |   0.0 |  1.73
Other   |            | 0.2195     |            |       |  0.46

Nlocal:    19652 ave 19652 max 19652 min
Histogram: 1 0 0 0 0 0 0 0 0 0
Nghost:    14030 ave 14030 max 14030 min
Histogram: 1 0 0 0 0 0 0 0 0 0
Neighs:    709576 ave 709576 max 709576 min
Histogram: 1 0 0 0 0 0 0 0 0 0

Total # of neighbors = 709576
Ave neighs/atom = 36.1071
Neighbor list builds = 495
Dangerous builds not checked
Setting up Verlet run ...
  Unit style    : metal
  Current step  : 270495
  Time step     : 0.001
Per MPI rank memory allocation (min/avg/max) = 18.2 | 18.2 | 18.2 Mbytes
Step Temp Press TotEng PotEng Enthalpy 
  270495    127.24708   -243.04906    -84001.28   -84324.499   -84098.486 
  275000    99.791952   -11.222884   -84144.781   -84398.262   -84149.263 
Loop time of 434.125 on 1 procs for 4505 steps with 19652 atoms

Performance: 0.897 ns/day, 26.768 hours/ns, 10.377 timesteps/s
98.8% CPU use with 1 MPI tasks x no OpenMP threads

MPI task timing breakdown:
Section |  min time  |  avg time  |  max time  |%varavg| %total
---------------------------------------------------------------
Pair    | 218.39     | 218.39     | 218.39     |   0.0 | 50.31
Neigh   | 201.86     | 201.86     | 201.86     |   0.0 | 46.50
Comm    | 4.804      | 4.804      | 4.804      |   0.0 |  1.11
Output  | 0.14691    | 0.14691    | 0.14691    |   0.0 |  0.03
Modify  | 7.0224     | 7.0224     | 7.0224     |   0.0 |  1.62
Other   |            | 1.903      |            |       |  0.44

Nlocal:    19652 ave 19652 max 19652 min
Histogram: 1 0 0 0 0 0 0 0 0 0
Nghost:    14060 ave 14060 max 14060 min
Histogram: 1 0 0 0 0 0 0 0 0 0
Neighs:    710228 ave 710228 max 710228 min
Histogram: 1 0 0 0 0 0 0 0 0 0

Total # of neighbors = 710228
Ave neighs/atom = 36.1402
Neighbor list builds = 4505
Dangerous builds not checked
Total wall time: 7:18:01
