LAMMPS (12 Dec 2018)
Lattice spacing in x,y,z = 4 4 4
Created orthogonal box = (0 0 0) to (68 68 68)
  1 by 1 by 2 MPI processor grid
Created 19652 atoms
  Time spent = 0.00159883 secs
Setting atom values ...
  19281 settings made for type/fraction
Neighbor list info ...
  update every 1 steps, delay 0 steps, check no
  max neighbors/atom: 2000, page size: 100000
  master list distance cutoff = 8.5
  ghost atom cutoff = 8.5
  binsize = 4.25, bins = 16 16 16
  1 neighbor lists, perpetual/occasional/extra = 1 0 0
  (1) pair eam/alloy, perpetual
      attributes: half, newton on
      pair build: half/bin/atomonly/newton
      stencil: half/bin/3d/newton
      bin: standard
Setting up Verlet run ...
  Unit style    : metal
  Current step  : 0
  Time step     : 0.001
Per MPI rank memory allocation (min/avg/max) = 11.15 | 11.15 | 11.15 Mbytes
Step Temp Press TotEng PotEng Enthalpy 
       0          300    56881.345   -55279.362   -56041.389   -44116.225 
    1000    155.60562    63566.374   -55279.313   -55674.565   -42804.219 
Loop time of 89.8366 on 2 procs for 1000 steps with 19652 atoms

Performance: 0.962 ns/day, 24.955 hours/ns, 11.131 timesteps/s
98.4% CPU use with 2 MPI tasks x no OpenMP threads

MPI task timing breakdown:
Section |  min time  |  avg time  |  max time  |%varavg| %total
---------------------------------------------------------------
Pair    | 51.234     | 51.385     | 51.537     |   2.1 | 57.20
Neigh   | 34.007     | 34.24      | 34.473     |   4.0 | 38.11
Comm    | 3.3698     | 3.7768     | 4.1837     |  20.9 |  4.20
Output  | 0.00015998 | 0.00023103 | 0.00030208 |   0.0 |  0.00
Modify  | 0.20927    | 0.21862    | 0.22797    |   2.0 |  0.24
Other   |            | 0.2159     |            |       |  0.24

Nlocal:    9826 ave 9846 max 9806 min
Histogram: 1 0 0 0 0 0 0 0 0 1
Nghost:    14211 ave 14231 max 14191 min
Histogram: 1 0 0 0 0 0 0 0 0 1
Neighs:    786568 ave 788359 max 784776 min
Histogram: 1 0 0 0 0 0 0 0 0 1

Total # of neighbors = 1573135
Ave neighs/atom = 80.0496
Neighbor list builds = 1000
Dangerous builds not checked
Setting up Verlet run ...
  Unit style    : metal
  Current step  : 1000
  Time step     : 0.001
Per MPI rank memory allocation (min/avg/max) = 11.15 | 11.15 | 11.15 Mbytes
Step Temp Press TotEng PotEng Enthalpy 
    1000    155.60562    63566.374   -55279.313   -55674.565   -42804.219 
    2000    292.73248    156.58773   -54795.028   -55538.595   -54762.166 
Loop time of 87.8754 on 2 procs for 1000 steps with 19652 atoms

Performance: 0.983 ns/day, 24.410 hours/ns, 11.380 timesteps/s
96.8% CPU use with 2 MPI tasks x no OpenMP threads

MPI task timing breakdown:
Section |  min time  |  avg time  |  max time  |%varavg| %total
---------------------------------------------------------------
Pair    | 48.768     | 48.973     | 49.179     |   2.9 | 55.73
Neigh   | 32.629     | 33.702     | 34.775     |  18.5 | 38.35
Comm    | 3.2906     | 4.1746     | 5.0586     |  43.3 |  4.75
Output  | 8.5115e-05 | 0.00012147 | 0.00015783 |   0.0 |  0.00
Modify  | 0.8032     | 0.80923    | 0.81526    |   0.7 |  0.92
Other   |            | 0.2167     |            |       |  0.25

Nlocal:    9826 ave 9842 max 9810 min
Histogram: 1 0 0 0 0 0 0 0 0 1
Nghost:    14201.5 ave 14219 max 14184 min
Histogram: 1 0 0 0 0 0 0 0 0 1
Neighs:    706242 ave 707525 max 704960 min
Histogram: 1 0 0 0 0 0 0 0 0 1

Total # of neighbors = 1412485
Ave neighs/atom = 71.8749
Neighbor list builds = 1000
Dangerous builds not checked
Setting up Verlet run ...
  Unit style    : metal
  Current step  : 2000
  Time step     : 0.001
Per MPI rank memory allocation (min/avg/max) = 11.15 | 11.15 | 11.15 Mbytes
Step Temp Press TotEng PotEng Enthalpy 
    2000    292.73248    156.58773   -54795.028   -55538.595   -54762.166 
   10000    2435.8152    872.29573   -40065.349   -46252.542   -39817.967 
Loop time of 641.65 on 2 procs for 8000 steps with 19652 atoms

Performance: 1.077 ns/day, 22.280 hours/ns, 12.468 timesteps/s
98.4% CPU use with 2 MPI tasks x no OpenMP threads

MPI task timing breakdown:
Section |  min time  |  avg time  |  max time  |%varavg| %total
---------------------------------------------------------------
Pair    | 344.32     | 345.09     | 345.86     |   4.1 | 53.78
Neigh   | 256.36     | 259.53     | 262.7      |  19.7 | 40.45
Comm    | 24.363     | 28.39      | 32.418     |  75.6 |  4.42
Output  | 0.027173   | 0.02719    | 0.027207   |   0.0 |  0.00
Modify  | 6.9607     | 7.0289     | 7.0971     |   2.6 |  1.10
Other   |            | 1.585      |            |       |  0.25

Nlocal:    9826 ave 9836 max 9816 min
Histogram: 1 0 0 0 0 0 0 0 0 1
Nghost:    11314.5 ave 11349 max 11280 min
Histogram: 1 0 0 0 0 0 0 0 0 1
Neighs:    543574 ave 544563 max 542586 min
Histogram: 1 0 0 0 0 0 0 0 0 1

Total # of neighbors = 1087149
Ave neighs/atom = 55.32
Neighbor list builds = 8000
Dangerous builds not checked
Setting up Verlet run ...
  Unit style    : metal
  Current step  : 10000
  Time step     : 0.001
Per MPI rank memory allocation (min/avg/max) = 11.19 | 11.19 | 11.19 Mbytes
Step Temp Press TotEng PotEng Enthalpy 
   10000    2435.8152    872.29573   -40065.349   -46252.542   -39817.967 
   20000    2454.0468   -178.60937   -39828.519   -46062.021   -39879.745 
   30000    2463.3232   -195.15887   -39883.199   -46140.264   -39938.938 
   40000    2421.9837   -841.34366   -40026.108   -46178.167   -40266.192 
Loop time of 2194.3 on 2 procs for 30000 steps with 19652 atoms

Performance: 1.181 ns/day, 20.318 hours/ns, 13.672 timesteps/s
98.1% CPU use with 2 MPI tasks x no OpenMP threads

MPI task timing breakdown:
Section |  min time  |  avg time  |  max time  |%varavg| %total
---------------------------------------------------------------
Pair    | 1163.6     | 1163.9     | 1164.1     |   0.7 | 53.04
Neigh   | 900.81     | 902.48     | 904.14     |   5.5 | 41.13
Comm    | 94.968     | 96.098     | 97.229     |  11.5 |  4.38
Output  | 0.10587    | 0.10603    | 0.1062     |   0.1 |  0.00
Modify  | 25.386     | 25.721     | 26.056     |   6.6 |  1.17
Other   |            | 6.035      |            |       |  0.28

Nlocal:    9826 ave 9843 max 9809 min
Histogram: 1 0 0 0 0 0 0 0 0 1
Nghost:    11252.5 ave 11274 max 11231 min
Histogram: 1 0 0 0 0 0 0 0 0 1
Neighs:    540253 ave 540938 max 539568 min
Histogram: 1 0 0 0 0 0 0 0 0 1

Total # of neighbors = 1080506
Ave neighs/atom = 54.982
Neighbor list builds = 30000
Dangerous builds not checked
Setting up Verlet run ...
  Unit style    : metal
  Current step  : 40000
  Time step     : 0.001
Per MPI rank memory allocation (min/avg/max) = 11.25 | 11.25 | 11.25 Mbytes
Step Temp Press TotEng PotEng Enthalpy 
   40000    2421.9837   -841.34366   -40026.108   -46178.167   -40266.192 
   40495    2403.5559   -786.83157   -40076.872   -46182.123   -40301.506 
Loop time of 37.5862 on 2 procs for 495 steps with 19652 atoms

Performance: 1.138 ns/day, 21.092 hours/ns, 13.170 timesteps/s
97.5% CPU use with 2 MPI tasks x no OpenMP threads

MPI task timing breakdown:
Section |  min time  |  avg time  |  max time  |%varavg| %total
---------------------------------------------------------------
Pair    | 20.136     | 20.243     | 20.349     |   2.4 | 53.86
Neigh   | 15.274     | 15.455     | 15.636     |   4.6 | 41.12
Comm    | 1.2898     | 1.3718     | 1.4538     |   7.0 |  3.65
Output  | 6.6996e-05 | 0.000108   | 0.00014901 |   0.0 |  0.00
Modify  | 0.40457    | 0.40944    | 0.41432    |   0.8 |  1.09
Other   |            | 0.1071     |            |       |  0.28

Nlocal:    9826 ave 9834 max 9818 min
Histogram: 1 0 0 0 0 0 0 0 0 1
Nghost:    11252 ave 11261 max 11243 min
Histogram: 1 0 0 0 0 0 0 0 0 1
Neighs:    540110 ave 542153 max 538066 min
Histogram: 1 0 0 0 0 0 0 0 0 1

Total # of neighbors = 1080219
Ave neighs/atom = 54.9674
Neighbor list builds = 495
Dangerous builds not checked
Setting up Verlet run ...
  Unit style    : metal
  Current step  : 40495
  Time step     : 0.001
Per MPI rank memory allocation (min/avg/max) = 11.25 | 11.25 | 11.25 Mbytes
Step Temp Press TotEng PotEng Enthalpy 
   40495    2403.5559   -786.83157   -40076.872   -46182.123   -40301.506 
   50000     2410.133   -89.508251   -40267.306   -46389.263   -40292.638 
Loop time of 762.002 on 2 procs for 9505 steps with 19652 atoms

Performance: 1.078 ns/day, 22.269 hours/ns, 12.474 timesteps/s
95.9% CPU use with 2 MPI tasks x no OpenMP threads

MPI task timing breakdown:
Section |  min time  |  avg time  |  max time  |%varavg| %total
---------------------------------------------------------------
Pair    | 408.78     | 410.88     | 412.98     |  10.4 | 53.92
Neigh   | 297.12     | 300.75     | 304.38     |  20.9 | 39.47
Comm    | 38.322     | 39.909     | 41.495     |  25.1 |  5.24
Output  | 0.035677   | 0.035694   | 0.035711   |   0.0 |  0.00
Modify  | 8.3452     | 8.3654     | 8.3856     |   0.7 |  1.10
Other   |            | 2.066      |            |       |  0.27

Nlocal:    9826 ave 9829 max 9823 min
Histogram: 1 0 0 0 0 0 0 0 0 1
Nghost:    11293 ave 11306 max 11280 min
Histogram: 1 0 0 0 0 0 0 0 0 1
Neighs:    545068 ave 545992 max 544143 min
Histogram: 1 0 0 0 0 0 0 0 0 1

Total # of neighbors = 1090135
Ave neighs/atom = 55.472
Neighbor list builds = 9505
Dangerous builds not checked
Setting up Verlet run ...
  Unit style    : metal
  Current step  : 50000
  Time step     : 0.001
Per MPI rank memory allocation (min/avg/max) = 11.26 | 11.26 | 11.26 Mbytes
Step Temp Press TotEng PotEng Enthalpy 
   50000     2410.133   -89.508251   -40267.306   -46389.263   -40292.638 
   50495    2352.5562   -300.85304   -40419.938   -46395.645   -40505.055 
Loop time of 37.2078 on 2 procs for 495 steps with 19652 atoms

Performance: 1.149 ns/day, 20.880 hours/ns, 13.304 timesteps/s
97.0% CPU use with 2 MPI tasks x no OpenMP threads

MPI task timing breakdown:
Section |  min time  |  avg time  |  max time  |%varavg| %total
---------------------------------------------------------------
Pair    | 19.492     | 19.508     | 19.524     |   0.4 | 52.43
Neigh   | 15.286     | 15.351     | 15.415     |   1.6 | 41.26
Comm    | 1.7493     | 1.8307     | 1.9121     |   6.0 |  4.92
Output  | 0.00025606 | 0.00028503 | 0.000314   |   0.0 |  0.00
Modify  | 0.41261    | 0.41373    | 0.41485    |   0.2 |  1.11
Other   |            | 0.1045     |            |       |  0.28

Nlocal:    9826 ave 9845 max 9807 min
Histogram: 1 0 0 0 0 0 0 0 0 1
Nghost:    11371.5 ave 11394 max 11349 min
Histogram: 1 0 0 0 0 0 0 0 0 1
Neighs:    545088 ave 547157 max 543020 min
Histogram: 1 0 0 0 0 0 0 0 0 1

Total # of neighbors = 1090177
Ave neighs/atom = 55.4741
Neighbor list builds = 495
Dangerous builds not checked
Setting up Verlet run ...
  Unit style    : metal
  Current step  : 50495
  Time step     : 0.001
Per MPI rank memory allocation (min/avg/max) = 11.26 | 11.26 | 11.26 Mbytes
Step Temp Press TotEng PotEng Enthalpy 
   50495    2352.5562   -300.85304   -40419.938   -46395.645   -40505.055 
   60000    2324.9787    263.52699   -40580.183   -46485.841   -40505.985 
Loop time of 716.187 on 2 procs for 9505 steps with 19652 atoms

Performance: 1.147 ns/day, 20.930 hours/ns, 13.272 timesteps/s
98.3% CPU use with 2 MPI tasks x no OpenMP threads

MPI task timing breakdown:
Section |  min time  |  avg time  |  max time  |%varavg| %total
---------------------------------------------------------------
Pair    | 383.59     | 384.06     | 384.54     |   2.4 | 53.63
Neigh   | 294.8      | 296.7      | 298.6      |  11.0 | 41.43
Comm    | 23.113     | 25.574     | 28.035     |  48.7 |  3.57
Output  | 0.036334   | 0.036396   | 0.036457   |   0.0 |  0.01
Modify  | 7.7649     | 7.8314     | 7.8979     |   2.4 |  1.09
Other   |            | 1.981      |            |       |  0.28

Nlocal:    9826 ave 9839 max 9813 min
Histogram: 1 0 0 0 0 0 0 0 0 1
Nghost:    11310 ave 11311 max 11309 min
Histogram: 1 0 0 0 0 0 0 0 0 1
Neighs:    547741 ave 548608 max 546874 min
Histogram: 1 0 0 0 0 0 0 0 0 1

Total # of neighbors = 1095482
Ave neighs/atom = 55.744
Neighbor list builds = 9505
Dangerous builds not checked
Setting up Verlet run ...
  Unit style    : metal
  Current step  : 60000
  Time step     : 0.001
Per MPI rank memory allocation (min/avg/max) = 11.27 | 11.27 | 11.27 Mbytes
Step Temp Press TotEng PotEng Enthalpy 
   60000    2324.9787    263.52699   -40580.183   -46485.841   -40505.985 
   60495    2307.5074    397.10864   -40727.681   -46588.959   -40616.209 
Loop time of 37.3378 on 2 procs for 495 steps with 19652 atoms

Performance: 1.145 ns/day, 20.953 hours/ns, 13.257 timesteps/s
96.1% CPU use with 2 MPI tasks x no OpenMP threads

MPI task timing breakdown:
Section |  min time  |  avg time  |  max time  |%varavg| %total
---------------------------------------------------------------
Pair    | 20.747     | 20.791     | 20.834     |   0.9 | 55.68
Neigh   | 15.124     | 15.209     | 15.294     |   2.2 | 40.73
Comm    | 0.77206    | 0.81905    | 0.86604    |   5.2 |  2.19
Output  | 8.2016e-05 | 0.00016797 | 0.00025392 |   0.0 |  0.00
Modify  | 0.40599    | 0.41188    | 0.41778    |   0.9 |  1.10
Other   |            | 0.1071     |            |       |  0.29

Nlocal:    9826 ave 9838 max 9814 min
Histogram: 1 0 0 0 0 0 0 0 0 1
Nghost:    11360.5 ave 11386 max 11335 min
Histogram: 1 0 0 0 0 0 0 0 0 1
Neighs:    549580 ave 549609 max 549552 min
Histogram: 1 0 0 0 0 0 0 0 0 1

Total # of neighbors = 1099161
Ave neighs/atom = 55.9313
Neighbor list builds = 495
Dangerous builds not checked
Setting up Verlet run ...
  Unit style    : metal
  Current step  : 60495
  Time step     : 0.001
Per MPI rank memory allocation (min/avg/max) = 11.27 | 11.27 | 11.27 Mbytes
Step Temp Press TotEng PotEng Enthalpy 
   60495    2307.5074    397.10864   -40727.681   -46588.959   -40616.209 
   70000    2310.0515    128.69981    -40803.93   -46671.671   -40767.949 
Loop time of 739.859 on 2 procs for 9505 steps with 19652 atoms

Performance: 1.110 ns/day, 21.622 hours/ns, 12.847 timesteps/s
97.5% CPU use with 2 MPI tasks x no OpenMP threads

MPI task timing breakdown:
Section |  min time  |  avg time  |  max time  |%varavg| %total
---------------------------------------------------------------
Pair    | 385.62     | 388.01     | 390.41     |  12.2 | 52.44
Neigh   | 312.15     | 312.42     | 312.68     |   1.5 | 42.23
Comm    | 26.132     | 28.233     | 30.333     |  39.5 |  3.82
Output  | 0.03514    | 0.035227   | 0.035314   |   0.0 |  0.00
Modify  | 9.1308     | 9.1636     | 9.1963     |   1.1 |  1.24
Other   |            | 1.996      |            |       |  0.27

Nlocal:    9826 ave 9842 max 9810 min
Histogram: 1 0 0 0 0 0 0 0 0 1
Nghost:    11405.5 ave 11428 max 11383 min
Histogram: 1 0 0 0 0 0 0 0 0 1
Neighs:    551362 ave 553148 max 549576 min
Histogram: 1 0 0 0 0 0 0 0 0 1

Total # of neighbors = 1102724
Ave neighs/atom = 56.1126
Neighbor list builds = 9505
Dangerous builds not checked
Setting up Verlet run ...
  Unit style    : metal
  Current step  : 70000
  Time step     : 0.001
Per MPI rank memory allocation (min/avg/max) = 11.28 | 11.28 | 11.28 Mbytes
Step Temp Press TotEng PotEng Enthalpy 
   70000    2310.0515    128.69981    -40803.93   -46671.671   -40767.949 
   70495    2255.6003   -131.23741   -41055.756   -46785.186   -41092.292 
Loop time of 37.362 on 2 procs for 495 steps with 19652 atoms

Performance: 1.145 ns/day, 20.966 hours/ns, 13.249 timesteps/s
98.1% CPU use with 2 MPI tasks x no OpenMP threads

MPI task timing breakdown:
Section |  min time  |  avg time  |  max time  |%varavg| %total
---------------------------------------------------------------
Pair    | 19.545     | 19.661     | 19.777     |   2.6 | 52.62
Neigh   | 15.673     | 15.935     | 16.197     |   6.6 | 42.65
Comm    | 0.86688    | 1.2461     | 1.6253     |  34.0 |  3.34
Output  | 9.2983e-05 | 0.00013256 | 0.00017214 |   0.0 |  0.00
Modify  | 0.41659    | 0.41692    | 0.41724    |   0.1 |  1.12
Other   |            | 0.1033     |            |       |  0.28

Nlocal:    9826 ave 9836 max 9816 min
Histogram: 1 0 0 0 0 0 0 0 0 1
Nghost:    11424.5 ave 11454 max 11395 min
Histogram: 1 0 0 0 0 0 0 0 0 1
Neighs:    554465 ave 561664 max 547266 min
Histogram: 1 0 0 0 0 0 0 0 0 1

Total # of neighbors = 1108930
Ave neighs/atom = 56.4284
Neighbor list builds = 495
Dangerous builds not checked
Setting up Verlet run ...
  Unit style    : metal
  Current step  : 70495
  Time step     : 0.001
Per MPI rank memory allocation (min/avg/max) = 11.28 | 11.28 | 11.28 Mbytes
Step Temp Press TotEng PotEng Enthalpy 
   70495    2255.6003   -131.23741   -41055.756   -46785.186   -41092.292 
   80000     2244.214    99.753008   -41163.519   -46864.027   -41135.854 
Loop time of 718.63 on 2 procs for 9505 steps with 19652 atoms

Performance: 1.143 ns/day, 21.002 hours/ns, 13.227 timesteps/s
99.8% CPU use with 2 MPI tasks x no OpenMP threads

MPI task timing breakdown:
Section |  min time  |  avg time  |  max time  |%varavg| %total
---------------------------------------------------------------
Pair    | 366.45     | 371.24     | 376.04     |  24.9 | 51.66
Neigh   | 319.54     | 320.07     | 320.61     |   3.0 | 44.54
Comm    | 12.156     | 17.526     | 22.895     | 128.3 |  2.44
Output  | 0.035631   | 0.035695   | 0.035759   |   0.0 |  0.00
Modify  | 7.7582     | 7.7949     | 7.8317     |   1.3 |  1.08
Other   |            | 1.956      |            |       |  0.27

Nlocal:    9826 ave 9843 max 9809 min
Histogram: 1 0 0 0 0 0 0 0 0 1
Nghost:    11347 ave 11365 max 11329 min
Histogram: 1 0 0 0 0 0 0 0 0 1
Neighs:    555987 ave 560500 max 551474 min
Histogram: 1 0 0 0 0 0 0 0 0 1

Total # of neighbors = 1111974
Ave neighs/atom = 56.5832
Neighbor list builds = 9505
Dangerous builds not checked
Setting up Verlet run ...
  Unit style    : metal
  Current step  : 80000
  Time step     : 0.001
Per MPI rank memory allocation (min/avg/max) = 11.28 | 11.28 | 11.28 Mbytes
Step Temp Press TotEng PotEng Enthalpy 
   80000     2244.214    99.753008   -41163.519   -46864.027   -41135.854 
   80495    2225.6817    373.91058    -41359.08   -47012.515   -41255.961 
Loop time of 36.7056 on 2 procs for 495 steps with 19652 atoms

Performance: 1.165 ns/day, 20.598 hours/ns, 13.486 timesteps/s
99.8% CPU use with 2 MPI tasks x no OpenMP threads

MPI task timing breakdown:
Section |  min time  |  avg time  |  max time  |%varavg| %total
---------------------------------------------------------------
Pair    | 18.75      | 18.923     | 19.095     |   4.0 | 51.55
Neigh   | 16.422     | 16.472     | 16.522     |   1.2 | 44.88
Comm    | 0.57326    | 0.79761    | 1.022      |  25.1 |  2.17
Output  | 6.8903e-05 | 0.00015438 | 0.00023985 |   0.0 |  0.00
Modify  | 0.40891    | 0.40924    | 0.40956    |   0.1 |  1.11
Other   |            | 0.104      |            |       |  0.28

Nlocal:    9826 ave 9838 max 9814 min
Histogram: 1 0 0 0 0 0 0 0 0 1
Nghost:    11450 ave 11462 max 11438 min
Histogram: 1 0 0 0 0 0 0 0 0 1
Neighs:    559386 ave 565905 max 552867 min
Histogram: 1 0 0 0 0 0 0 0 0 1

Total # of neighbors = 1118772
Ave neighs/atom = 56.9292
Neighbor list builds = 495
Dangerous builds not checked
Setting up Verlet run ...
  Unit style    : metal
  Current step  : 80495
  Time step     : 0.001
Per MPI rank memory allocation (min/avg/max) = 11.28 | 11.28 | 11.28 Mbytes
Step Temp Press TotEng PotEng Enthalpy 
   80495    2225.6817    373.91058    -41359.08   -47012.515   -41255.961 
   90000    2216.7771   -439.60109   -41387.315   -47018.131   -41508.558 
Loop time of 723.465 on 2 procs for 9505 steps with 19652 atoms

Performance: 1.135 ns/day, 21.143 hours/ns, 13.138 timesteps/s
99.6% CPU use with 2 MPI tasks x no OpenMP threads

MPI task timing breakdown:
Section |  min time  |  avg time  |  max time  |%varavg| %total
---------------------------------------------------------------
Pair    | 371.26     | 375.15     | 379.04     |  20.1 | 51.85
Neigh   | 321.76     | 321.85     | 321.93     |   0.5 | 44.49
Comm    | 12.811     | 16.635     | 20.459     |  93.8 |  2.30
Output  | 0.036373   | 0.036446   | 0.03652    |   0.0 |  0.01
Modify  | 7.8063     | 7.8256     | 7.845      |   0.7 |  1.08
Other   |            | 1.973      |            |       |  0.27

Nlocal:    9826 ave 9868 max 9784 min
Histogram: 1 0 0 0 0 0 0 0 0 1
Nghost:    11458 ave 11459 max 11457 min
Histogram: 1 0 0 0 0 0 0 0 0 1
Neighs:    559206 ave 568469 max 549943 min
Histogram: 1 0 0 0 0 0 0 0 0 1

Total # of neighbors = 1118412
Ave neighs/atom = 56.9108
Neighbor list builds = 9505
Dangerous builds not checked
Setting up Verlet run ...
  Unit style    : metal
  Current step  : 90000
  Time step     : 0.001
Per MPI rank memory allocation (min/avg/max) = 11.29 | 11.29 | 11.29 Mbytes
Step Temp Press TotEng PotEng Enthalpy 
   90000    2216.7771   -439.60109   -41387.315   -47018.131   -41508.558 
   90495    2159.7563   -164.47788   -41675.139   -47161.117   -41720.265 
Loop time of 37.673 on 2 procs for 495 steps with 19652 atoms

Performance: 1.135 ns/day, 21.141 hours/ns, 13.139 timesteps/s
99.6% CPU use with 2 MPI tasks x no OpenMP threads

MPI task timing breakdown:
Section |  min time  |  avg time  |  max time  |%varavg| %total
---------------------------------------------------------------
Pair    | 19.555     | 19.599     | 19.644     |   1.0 | 52.03
Neigh   | 16.016     | 16.515     | 17.014     |  12.3 | 43.84
Comm    | 0.57497    | 1.0396     | 1.5042     |  45.6 |  2.76
Output  | 9.203e-05  | 0.00018513 | 0.00027823 |   0.0 |  0.00
Modify  | 0.40583    | 0.41534    | 0.42485    |   1.5 |  1.10
Other   |            | 0.1035     |            |       |  0.27

Nlocal:    9826 ave 9836 max 9816 min
Histogram: 1 0 0 0 0 0 0 0 0 1
Nghost:    11427 ave 11437 max 11417 min
Histogram: 1 0 0 0 0 0 0 0 0 1
Neighs:    562310 ave 569336 max 555285 min
Histogram: 1 0 0 0 0 0 0 0 0 1

Total # of neighbors = 1124621
Ave neighs/atom = 57.2268
Neighbor list builds = 495
Dangerous builds not checked
Setting up Verlet run ...
  Unit style    : metal
  Current step  : 90495
  Time step     : 0.001
Per MPI rank memory allocation (min/avg/max) = 11.29 | 11.29 | 11.29 Mbytes
Step Temp Press TotEng PotEng Enthalpy 
   90495    2159.7563   -164.47788   -41675.139   -47161.117   -41720.265 
  100000    2159.0589   -14.308956   -41833.465   -47317.672   -41837.362 
Loop time of 719.864 on 2 procs for 9505 steps with 19652 atoms

Performance: 1.141 ns/day, 21.038 hours/ns, 13.204 timesteps/s
99.6% CPU use with 2 MPI tasks x no OpenMP threads

MPI task timing breakdown:
Section |  min time  |  avg time  |  max time  |%varavg| %total
---------------------------------------------------------------
Pair    | 370.7      | 375.26     | 379.83     |  23.6 | 52.13
Neigh   | 317.55     | 319.37     | 321.19     |  10.2 | 44.37
Comm    | 12.746     | 15.502     | 18.258     |  70.0 |  2.15
Output  | 0.03371    | 0.033729   | 0.033748   |   0.0 |  0.00
Modify  | 7.7048     | 7.7188     | 7.7328     |   0.5 |  1.07
Other   |            | 1.976      |            |       |  0.27

Nlocal:    9826 ave 9839 max 9813 min
Histogram: 1 0 0 0 0 0 0 0 0 1
Nghost:    11572 ave 11600 max 11544 min
Histogram: 1 0 0 0 0 0 0 0 0 1
Neighs:    566766 ave 573480 max 560051 min
Histogram: 1 0 0 0 0 0 0 0 0 1

Total # of neighbors = 1133531
Ave neighs/atom = 57.6802
Neighbor list builds = 9505
Dangerous builds not checked
Setting up Verlet run ...
  Unit style    : metal
  Current step  : 100000
  Time step     : 0.001
Per MPI rank memory allocation (min/avg/max) = 11.3 | 11.3 | 11.3 Mbytes
Step Temp Press TotEng PotEng Enthalpy 
  100000    2159.0589   -14.308956   -41833.465   -47317.672   -41837.362 
  100495    2115.0544    292.34122   -42015.747   -47388.178    -41936.29 
Loop time of 37.344 on 2 procs for 495 steps with 19652 atoms

Performance: 1.145 ns/day, 20.956 hours/ns, 13.255 timesteps/s
99.1% CPU use with 2 MPI tasks x no OpenMP threads

MPI task timing breakdown:
Section |  min time  |  avg time  |  max time  |%varavg| %total
---------------------------------------------------------------
Pair    | 19.146     | 19.461     | 19.777     |   7.1 | 52.11
Neigh   | 16.315     | 16.57      | 16.825     |   6.3 | 44.37
Comm    | 0.74158    | 0.79609    | 0.85061    |   6.1 |  2.13
Output  | 8.5115e-05 | 0.00016403 | 0.00024295 |   0.0 |  0.00
Modify  | 0.40701    | 0.41038    | 0.41375    |   0.5 |  1.10
Other   |            | 0.1057     |            |       |  0.28

Nlocal:    9826 ave 9856 max 9796 min
Histogram: 1 0 0 0 0 0 0 0 0 1
Nghost:    11547.5 ave 11551 max 11544 min
Histogram: 1 0 0 0 0 0 0 0 0 1
Neighs:    567814 ave 571195 max 564434 min
Histogram: 1 0 0 0 0 0 0 0 0 1

Total # of neighbors = 1135629
Ave neighs/atom = 57.7869
Neighbor list builds = 495
Dangerous builds not checked
Setting up Verlet run ...
  Unit style    : metal
  Current step  : 100495
  Time step     : 0.001
Per MPI rank memory allocation (min/avg/max) = 11.3 | 11.3 | 11.3 Mbytes
Step Temp Press TotEng PotEng Enthalpy 
  100495    2115.0544    292.34122   -42015.747   -47388.178    -41936.29 
  110000    2109.2984   -1138.8733   -41990.029   -47347.839   -42300.471 
Loop time of 729.029 on 2 procs for 9505 steps with 19652 atoms

Performance: 1.126 ns/day, 21.305 hours/ns, 13.038 timesteps/s
99.4% CPU use with 2 MPI tasks x no OpenMP threads

MPI task timing breakdown:
Section |  min time  |  avg time  |  max time  |%varavg| %total
---------------------------------------------------------------
Pair    | 374.46     | 378.93     | 383.4      |  23.0 | 51.98
Neigh   | 320.3      | 321.55     | 322.8      |   7.0 | 44.11
Comm    | 15.499     | 18.704     | 21.909     |  74.1 |  2.57
Output  | 0.03492    | 0.034935   | 0.03495    |   0.0 |  0.00
Modify  | 7.8142     | 7.8206     | 7.8271     |   0.2 |  1.07
Other   |            | 1.984      |            |       |  0.27

Nlocal:    9826 ave 9835 max 9817 min
Histogram: 1 0 0 0 0 0 0 0 0 1
Nghost:    11518.5 ave 11551 max 11486 min
Histogram: 1 0 0 0 0 0 0 0 0 1
Neighs:    566227 ave 571059 max 561395 min
Histogram: 1 0 0 0 0 0 0 0 0 1

Total # of neighbors = 1132454
Ave neighs/atom = 57.6254
Neighbor list builds = 9505
Dangerous builds not checked
Setting up Verlet run ...
  Unit style    : metal
  Current step  : 110000
  Time step     : 0.001
Per MPI rank memory allocation (min/avg/max) = 11.3 | 11.3 | 11.3 Mbytes
Step Temp Press TotEng PotEng Enthalpy 
  110000    2109.2984   -1138.8733   -41990.029   -47347.839   -42300.471 
  110495     2079.172   -50.049941   -42295.875   -47577.162    -42309.38 
Loop time of 36.9508 on 2 procs for 495 steps with 19652 atoms

Performance: 1.157 ns/day, 20.736 hours/ns, 13.396 timesteps/s
99.7% CPU use with 2 MPI tasks x no OpenMP threads

MPI task timing breakdown:
Section |  min time  |  avg time  |  max time  |%varavg| %total
---------------------------------------------------------------
Pair    | 19.207     | 19.319     | 19.432     |   2.6 | 52.28
Neigh   | 15.716     | 16.23      | 16.743     |  12.8 | 43.92
Comm    | 0.48324    | 0.89806    | 1.3129     |  43.8 |  2.43
Output  | 6.7949e-05 | 0.00016797 | 0.00026798 |   0.0 |  0.00
Modify  | 0.38708    | 0.39987    | 0.41266    |   2.0 |  1.08
Other   |            | 0.1038     |            |       |  0.28

Nlocal:    9826 ave 9832 max 9820 min
Histogram: 1 0 0 0 0 0 0 0 0 1
Nghost:    11566 ave 11604 max 11528 min
Histogram: 1 0 0 0 0 0 0 0 0 1
Neighs:    571806 ave 578795 max 564818 min
Histogram: 1 0 0 0 0 0 0 0 0 1

Total # of neighbors = 1143613
Ave neighs/atom = 58.1932
Neighbor list builds = 495
Dangerous builds not checked
Setting up Verlet run ...
  Unit style    : metal
  Current step  : 110495
  Time step     : 0.001
Per MPI rank memory allocation (min/avg/max) = 11.3 | 11.3 | 11.3 Mbytes
Step Temp Press TotEng PotEng Enthalpy 
  110495     2079.172   -50.049941   -42295.875   -47577.162    -42309.38 
  120000    2059.9474    849.29689   -42335.688   -47568.142   -42106.632 
Loop time of 740.425 on 2 procs for 9505 steps with 19652 atoms

Performance: 1.109 ns/day, 21.638 hours/ns, 12.837 timesteps/s
99.7% CPU use with 2 MPI tasks x no OpenMP threads

MPI task timing breakdown:
Section |  min time  |  avg time  |  max time  |%varavg| %total
---------------------------------------------------------------
Pair    | 383.65     | 386.85     | 390.06     |  16.3 | 52.25
Neigh   | 327.7      | 328.87     | 330.05     |   6.5 | 44.42
Comm    | 12.625     | 14.687     | 16.749     |  53.8 |  1.98
Output  | 0.035959   | 0.036014   | 0.036069   |   0.0 |  0.00
Modify  | 7.935      | 7.962      | 7.989      |   1.0 |  1.08
Other   |            | 2.013      |            |       |  0.27

Nlocal:    9826 ave 9864 max 9788 min
Histogram: 1 0 0 0 0 0 0 0 0 1
Nghost:    11512.5 ave 11540 max 11485 min
Histogram: 1 0 0 0 0 0 0 0 0 1
Neighs:    572057 ave 580282 max 563832 min
Histogram: 1 0 0 0 0 0 0 0 0 1

Total # of neighbors = 1144114
Ave neighs/atom = 58.2187
Neighbor list builds = 9505
Dangerous builds not checked
Setting up Verlet run ...
  Unit style    : metal
  Current step  : 120000
  Time step     : 0.001
Per MPI rank memory allocation (min/avg/max) = 11.31 | 11.31 | 11.31 Mbytes
Step Temp Press TotEng PotEng Enthalpy 
  120000    2059.9474    849.29689   -42335.688   -47568.142   -42106.632 
  120495    2007.9952    312.25547   -42575.978   -47676.468     -42492.1 
Loop time of 37.2951 on 2 procs for 495 steps with 19652 atoms

Performance: 1.147 ns/day, 20.929 hours/ns, 13.273 timesteps/s
99.9% CPU use with 2 MPI tasks x no OpenMP threads

MPI task timing breakdown:
Section |  min time  |  avg time  |  max time  |%varavg| %total
---------------------------------------------------------------
Pair    | 19.074     | 19.721     | 20.368     |  14.6 | 52.88
Neigh   | 15.877     | 16.515     | 17.154     |  15.7 | 44.28
Comm    | 0.54881    | 0.55725    | 0.5657     |   1.1 |  1.49
Output  | 8.7023e-05 | 0.00011611 | 0.0001452  |   0.0 |  0.00
Modify  | 0.38356    | 0.39872    | 0.41387    |   2.4 |  1.07
Other   |            | 0.1025     |            |       |  0.27

Nlocal:    9826 ave 9849 max 9803 min
Histogram: 1 0 0 0 0 0 0 0 0 1
Nghost:    11573 ave 11605 max 11541 min
Histogram: 1 0 0 0 0 0 0 0 0 1
Neighs:    574590 ave 582730 max 566449 min
Histogram: 1 0 0 0 0 0 0 0 0 1

Total # of neighbors = 1149179
Ave neighs/atom = 58.4764
Neighbor list builds = 495
Dangerous builds not checked
Setting up Verlet run ...
  Unit style    : metal
  Current step  : 120495
  Time step     : 0.001
Per MPI rank memory allocation (min/avg/max) = 11.31 | 11.31 | 11.31 Mbytes
Step Temp Press TotEng PotEng Enthalpy 
  120495    2007.9952    312.25547   -42575.978   -47676.468     -42492.1 
  130000     1983.677   -236.17628   -42821.251   -47859.971   -42884.337 
Loop time of 733.733 on 2 procs for 9505 steps with 19652 atoms

Performance: 1.119 ns/day, 21.443 hours/ns, 12.954 timesteps/s
99.5% CPU use with 2 MPI tasks x no OpenMP threads

MPI task timing breakdown:
Section |  min time  |  avg time  |  max time  |%varavg| %total
---------------------------------------------------------------
Pair    | 380.01     | 384.31     | 388.6      |  21.9 | 52.38
Neigh   | 321.07     | 322        | 322.93     |   5.2 | 43.89
Comm    | 13.969     | 17.333     | 20.698     |  80.8 |  2.36
Output  | 0.035046   | 0.035061   | 0.035075   |   0.0 |  0.00
Modify  | 8.0664     | 8.0727     | 8.079      |   0.2 |  1.10
Other   |            | 1.984      |            |       |  0.27

Nlocal:    9826 ave 9850 max 9802 min
Histogram: 1 0 0 0 0 0 0 0 0 1
Nghost:    11611.5 ave 11631 max 11592 min
Histogram: 1 0 0 0 0 0 0 0 0 1
Neighs:    578236 ave 582619 max 573854 min
Histogram: 1 0 0 0 0 0 0 0 0 1

Total # of neighbors = 1156473
Ave neighs/atom = 58.8476
Neighbor list builds = 9505
Dangerous builds not checked
Setting up Verlet run ...
  Unit style    : metal
  Current step  : 130000
  Time step     : 0.001
Per MPI rank memory allocation (min/avg/max) = 11.31 | 11.31 | 11.31 Mbytes
Step Temp Press TotEng PotEng Enthalpy 
  130000     1983.677   -236.17628   -42821.251   -47859.971   -42884.337 
  130495    1966.7673   -140.91071   -42905.553   -47901.321   -42943.102 
Loop time of 37.1709 on 2 procs for 495 steps with 19652 atoms

Performance: 1.151 ns/day, 20.859 hours/ns, 13.317 timesteps/s
99.7% CPU use with 2 MPI tasks x no OpenMP threads

MPI task timing breakdown:
Section |  min time  |  avg time  |  max time  |%varavg| %total
---------------------------------------------------------------
Pair    | 19.313     | 19.495     | 19.677     |   4.1 | 52.45
Neigh   | 15.956     | 16.027     | 16.097     |   1.8 | 43.12
Comm    | 0.8972     | 1.1524     | 1.4076     |  23.8 |  3.10
Output  | 0.00010204 | 0.00014007 | 0.0001781  |   0.0 |  0.00
Modify  | 0.3928     | 0.39553    | 0.39825    |   0.4 |  1.06
Other   |            | 0.1009     |            |       |  0.27

Nlocal:    9826 ave 9827 max 9825 min
Histogram: 1 0 0 0 0 0 0 0 0 1
Nghost:    11600.5 ave 11617 max 11584 min
Histogram: 1 0 0 0 0 0 0 0 0 1
Neighs:    579370 ave 585439 max 573301 min
Histogram: 1 0 0 0 0 0 0 0 0 1

Total # of neighbors = 1158740
Ave neighs/atom = 58.963
Neighbor list builds = 495
Dangerous builds not checked
Setting up Verlet run ...
  Unit style    : metal
  Current step  : 130495
  Time step     : 0.001
Per MPI rank memory allocation (min/avg/max) = 11.31 | 11.31 | 11.31 Mbytes
Step Temp Press TotEng PotEng Enthalpy 
  130495    1966.7673   -140.91071   -42905.553   -47901.321   -42943.102 
  140000    1951.0683   -147.77596   -42968.457   -47924.349   -43007.819 
Loop time of 729.151 on 2 procs for 9505 steps with 19652 atoms

Performance: 1.126 ns/day, 21.309 hours/ns, 13.036 timesteps/s
99.7% CPU use with 2 MPI tasks x no OpenMP threads

MPI task timing breakdown:
Section |  min time  |  avg time  |  max time  |%varavg| %total
---------------------------------------------------------------
Pair    | 378.72     | 382.88     | 387.04     |  21.2 | 52.51
Neigh   | 316.23     | 316.75     | 317.26     |   2.9 | 43.44
Comm    | 15.084     | 19.801     | 24.518     | 106.0 |  2.72
Output  | 0.035374   | 0.035442   | 0.03551    |   0.0 |  0.00
Modify  | 7.6783     | 7.7202     | 7.7621     |   1.5 |  1.06
Other   |            | 1.968      |            |       |  0.27

Nlocal:    9826 ave 9826 max 9826 min
Histogram: 2 0 0 0 0 0 0 0 0 0
Nghost:    11630 ave 11642 max 11618 min
Histogram: 1 0 0 0 0 0 0 0 0 1
Neighs:    579968 ave 586006 max 573931 min
Histogram: 1 0 0 0 0 0 0 0 0 1

Total # of neighbors = 1159937
Ave neighs/atom = 59.0239
Neighbor list builds = 9505
Dangerous builds not checked
Setting up Verlet run ...
  Unit style    : metal
  Current step  : 140000
  Time step     : 0.001
Per MPI rank memory allocation (min/avg/max) = 11.31 | 11.31 | 11.31 Mbytes
Step Temp Press TotEng PotEng Enthalpy 
  140000    1951.0683   -147.77596   -42968.457   -47924.349   -43007.819 
  140495    1911.3511   -106.82202   -43213.623   -48068.629    -43241.91 
Loop time of 38.2204 on 2 procs for 495 steps with 19652 atoms

Performance: 1.119 ns/day, 21.448 hours/ns, 12.951 timesteps/s
97.8% CPU use with 2 MPI tasks x no OpenMP threads

MPI task timing breakdown:
Section |  min time  |  avg time  |  max time  |%varavg| %total
---------------------------------------------------------------
Pair    | 20.28      | 20.433     | 20.587     |   3.4 | 53.46
Neigh   | 16.138     | 16.2       | 16.262     |   1.5 | 42.39
Comm    | 0.993      | 1.0836     | 1.1742     |   8.7 |  2.84
Output  | 7.8917e-05 | 0.00010598 | 0.00013304 |   0.0 |  0.00
Modify  | 0.40066    | 0.40079    | 0.40093    |   0.0 |  1.05
Other   |            | 0.1028     |            |       |  0.27

Nlocal:    9826 ave 9835 max 9817 min
Histogram: 1 0 0 0 0 0 0 0 0 1
Nghost:    11645 ave 11666 max 11624 min
Histogram: 1 0 0 0 0 0 0 0 0 1
Neighs:    583089 ave 589794 max 576384 min
Histogram: 1 0 0 0 0 0 0 0 0 1

Total # of neighbors = 1166178
Ave neighs/atom = 59.3414
Neighbor list builds = 495
Dangerous builds not checked
Setting up Verlet run ...
  Unit style    : metal
  Current step  : 140495
  Time step     : 0.001
Per MPI rank memory allocation (min/avg/max) = 11.31 | 11.31 | 11.31 Mbytes
Step Temp Press TotEng PotEng Enthalpy 
  140495    1911.3511   -106.82202   -43213.623   -48068.629    -43241.91 
  150000    1886.9164    136.11765   -43393.332   -48186.272   -43357.453 
Loop time of 730.887 on 2 procs for 9505 steps with 19652 atoms

Performance: 1.124 ns/day, 21.360 hours/ns, 13.005 timesteps/s
99.7% CPU use with 2 MPI tasks x no OpenMP threads

MPI task timing breakdown:
Section |  min time  |  avg time  |  max time  |%varavg| %total
---------------------------------------------------------------
Pair    | 382.29     | 385.21     | 388.13     |  14.9 | 52.70
Neigh   | 316.95     | 317.3      | 317.65     |   2.0 | 43.41
Comm    | 15.358     | 18.669     | 21.98      |  76.6 |  2.55
Output  | 0.036111   | 0.036123   | 0.036135   |   0.0 |  0.00
Modify  | 7.6736     | 7.7121     | 7.7506     |   1.4 |  1.06
Other   |            | 1.962      |            |       |  0.27

Nlocal:    9826 ave 9861 max 9791 min
Histogram: 1 0 0 0 0 0 0 0 0 1
Nghost:    11642.5 ave 11655 max 11630 min
Histogram: 1 0 0 0 0 0 0 0 0 1
Neighs:    585827 ave 595354 max 576300 min
Histogram: 1 0 0 0 0 0 0 0 0 1

Total # of neighbors = 1171654
Ave neighs/atom = 59.6201
Neighbor list builds = 9505
Dangerous builds not checked
Setting up Verlet run ...
  Unit style    : metal
  Current step  : 150000
  Time step     : 0.001
Per MPI rank memory allocation (min/avg/max) = 11.32 | 11.32 | 11.32 Mbytes
Step Temp Press TotEng PotEng Enthalpy 
  150000    1886.9164    136.11765   -43393.332   -48186.272   -43357.453 
  150495    1870.5129   -180.58929   -43526.653   -48277.926   -43574.143 
Loop time of 37.4043 on 2 procs for 495 steps with 19652 atoms

Performance: 1.143 ns/day, 20.990 hours/ns, 13.234 timesteps/s
99.9% CPU use with 2 MPI tasks x no OpenMP threads

MPI task timing breakdown:
Section |  min time  |  avg time  |  max time  |%varavg| %total
---------------------------------------------------------------
Pair    | 19.622     | 19.752     | 19.881     |   2.9 | 52.81
Neigh   | 15.966     | 16.166     | 16.366     |   5.0 | 43.22
Comm    | 0.64357    | 0.98036    | 1.3171     |  34.0 |  2.62
Output  | 7.2956e-05 | 0.00010097 | 0.00012898 |   0.0 |  0.00
Modify  | 0.39798    | 0.4042     | 0.41042    |   1.0 |  1.08
Other   |            | 0.1019     |            |       |  0.27

Nlocal:    9826 ave 9853 max 9799 min
Histogram: 1 0 0 0 0 0 0 0 0 1
Nghost:    11656.5 ave 11659 max 11654 min
Histogram: 1 0 0 0 0 0 0 0 0 1
Neighs:    587536 ave 597021 max 578051 min
Histogram: 1 0 0 0 0 0 0 0 0 1

Total # of neighbors = 1175072
Ave neighs/atom = 59.794
Neighbor list builds = 495
Dangerous builds not checked
Setting up Verlet run ...
  Unit style    : metal
  Current step  : 150495
  Time step     : 0.001
Per MPI rank memory allocation (min/avg/max) = 11.32 | 11.32 | 11.32 Mbytes
Step Temp Press TotEng PotEng Enthalpy 
  150495    1870.5129   -180.58929   -43526.653   -48277.926   -43574.143 
  160000    1864.4293    993.64993   -43583.715   -48319.535   -43323.299 
Loop time of 731.142 on 2 procs for 9505 steps with 19652 atoms

Performance: 1.123 ns/day, 21.367 hours/ns, 13.000 timesteps/s
99.8% CPU use with 2 MPI tasks x no OpenMP threads

MPI task timing breakdown:
Section |  min time  |  avg time  |  max time  |%varavg| %total
---------------------------------------------------------------
Pair    | 381.91     | 386.09     | 390.27     |  21.3 | 52.81
Neigh   | 316.76     | 316.83     | 316.89     |   0.4 | 43.33
Comm    | 14.373     | 18.519     | 22.666     |  96.4 |  2.53
Output  | 0.035452   | 0.035519   | 0.035586   |   0.0 |  0.00
Modify  | 7.6718     | 7.7049     | 7.738      |   1.2 |  1.05
Other   |            | 1.963      |            |       |  0.27

Nlocal:    9826 ave 9837 max 9815 min
Histogram: 1 0 0 0 0 0 0 0 0 1
Nghost:    11644.5 ave 11656 max 11633 min
Histogram: 1 0 0 0 0 0 0 0 0 1
Neighs:    589449 ave 594857 max 584041 min
Histogram: 1 0 0 0 0 0 0 0 0 1

Total # of neighbors = 1178898
Ave neighs/atom = 59.9887
Neighbor list builds = 9505
Dangerous builds not checked
Setting up Verlet run ...
  Unit style    : metal
  Current step  : 160000
  Time step     : 0.001
Per MPI rank memory allocation (min/avg/max) = 11.32 | 11.32 | 11.32 Mbytes
Step Temp Press TotEng PotEng Enthalpy 
  160000    1864.4293    993.64993   -43583.715   -48319.535   -43323.299 
  160495    1809.9641     525.7621    -43812.95   -48410.423   -43675.542 
Loop time of 37.111 on 2 procs for 495 steps with 19652 atoms

Performance: 1.152 ns/day, 20.825 hours/ns, 13.338 timesteps/s
99.9% CPU use with 2 MPI tasks x no OpenMP threads

MPI task timing breakdown:
Section |  min time  |  avg time  |  max time  |%varavg| %total
---------------------------------------------------------------
Pair    | 19.415     | 19.66      | 19.904     |   5.5 | 52.98
Neigh   | 16.02      | 16.054     | 16.088     |   0.9 | 43.26
Comm    | 0.68091    | 0.89466    | 1.1084     |  22.6 |  2.41
Output  | 7.7963e-05 | 0.00011957 | 0.00016117 |   0.0 |  0.00
Modify  | 0.39638    | 0.39977    | 0.40315    |   0.5 |  1.08
Other   |            | 0.1023     |            |       |  0.28

Nlocal:    9826 ave 9841 max 9811 min
Histogram: 1 0 0 0 0 0 0 0 0 1
Nghost:    11656 ave 11660 max 11652 min
Histogram: 1 0 0 0 0 0 0 0 0 1
Neighs:    591240 ave 598744 max 583735 min
Histogram: 1 0 0 0 0 0 0 0 0 1

Total # of neighbors = 1182479
Ave neighs/atom = 60.1709
Neighbor list builds = 495
Dangerous builds not checked
Setting up Verlet run ...
  Unit style    : metal
  Current step  : 160495
  Time step     : 0.001
Per MPI rank memory allocation (min/avg/max) = 11.32 | 11.32 | 11.32 Mbytes
Step Temp Press TotEng PotEng Enthalpy 
  160495    1809.9641     525.7621    -43812.95   -48410.423   -43675.542 
  170000    1811.7371     821.7262   -43934.697   -48536.674       -43721 
Loop time of 735.915 on 2 procs for 9505 steps with 19652 atoms

Performance: 1.116 ns/day, 21.507 hours/ns, 12.916 timesteps/s
99.7% CPU use with 2 MPI tasks x no OpenMP threads

MPI task timing breakdown:
Section |  min time  |  avg time  |  max time  |%varavg| %total
---------------------------------------------------------------
Pair    | 385.49     | 389.78     | 394.06     |  21.7 | 52.96
Neigh   | 316.48     | 317.17     | 317.86     |   3.9 | 43.10
Comm    | 15.644     | 19.258     | 22.872     |  82.4 |  2.62
Output  | 0.03545    | 0.035526   | 0.035602   |   0.0 |  0.00
Modify  | 7.682      | 7.7109     | 7.7397     |   1.0 |  1.05
Other   |            | 1.962      |            |       |  0.27

Nlocal:    9826 ave 9831 max 9821 min
Histogram: 1 0 0 0 0 0 0 0 0 1
Nghost:    11686.5 ave 11687 max 11686 min
Histogram: 1 0 0 0 0 0 0 0 0 1
Neighs:    594417 ave 600719 max 588115 min
Histogram: 1 0 0 0 0 0 0 0 0 1

Total # of neighbors = 1188834
Ave neighs/atom = 60.4943
Neighbor list builds = 9505
Dangerous builds not checked
Setting up Verlet run ...
  Unit style    : metal
  Current step  : 170000
  Time step     : 0.001
Per MPI rank memory allocation (min/avg/max) = 11.32 | 11.32 | 11.32 Mbytes
Step Temp Press TotEng PotEng Enthalpy 
  170000    1811.7371     821.7262   -43934.697   -48536.674       -43721 
  170495    1772.4117    218.13446    -44105.86   -48607.947    -44049.25 
Loop time of 38.7877 on 2 procs for 495 steps with 19652 atoms

Performance: 1.103 ns/day, 21.766 hours/ns, 12.762 timesteps/s
98.5% CPU use with 2 MPI tasks x no OpenMP threads

MPI task timing breakdown:
Section |  min time  |  avg time  |  max time  |%varavg| %total
---------------------------------------------------------------
Pair    | 20.315     | 20.6       | 20.885     |   6.3 | 53.11
Neigh   | 16.208     | 16.318     | 16.429     |   2.7 | 42.07
Comm    | 1.1886     | 1.3623     | 1.5361     |  14.9 |  3.51
Output  | 9.0837e-05 | 0.00017893 | 0.00026703 |   0.0 |  0.00
Modify  | 0.40395    | 0.40415    | 0.40434    |   0.0 |  1.04
Other   |            | 0.1026     |            |       |  0.26

Nlocal:    9826 ave 9835 max 9817 min
Histogram: 1 0 0 0 0 0 0 0 0 1
Nghost:    11681 ave 11710 max 11652 min
Histogram: 1 0 0 0 0 0 0 0 0 1
Neighs:    595408 ave 601641 max 589175 min
Histogram: 1 0 0 0 0 0 0 0 0 1

Total # of neighbors = 1190816
Ave neighs/atom = 60.5952
Neighbor list builds = 495
Dangerous builds not checked
Setting up Verlet run ...
  Unit style    : metal
  Current step  : 170495
  Time step     : 0.001
Per MPI rank memory allocation (min/avg/max) = 11.32 | 11.32 | 11.32 Mbytes
Step Temp Press TotEng PotEng Enthalpy 
  170495    1772.4117    218.13446    -44105.86   -48607.947    -44049.25 
  180000    1761.4917   -161.47724   -44179.947   -48654.296   -44221.801 
Loop time of 740.857 on 2 procs for 9505 steps with 19652 atoms

Performance: 1.108 ns/day, 21.651 hours/ns, 12.830 timesteps/s
99.7% CPU use with 2 MPI tasks x no OpenMP threads

MPI task timing breakdown:
Section |  min time  |  avg time  |  max time  |%varavg| %total
---------------------------------------------------------------
Pair    | 388.19     | 392.83     | 397.46     |  23.4 | 53.02
Neigh   | 317.37     | 317.51     | 317.65     |   0.8 | 42.86
Comm    | 15.996     | 20.527     | 25.057     | 100.0 |  2.77
Output  | 0.034583   | 0.034597   | 0.03461    |   0.0 |  0.00
Modify  | 7.7537     | 8          | 8.2462     |   8.7 |  1.08
Other   |            | 1.958      |            |       |  0.26

Nlocal:    9826 ave 9829 max 9823 min
Histogram: 1 0 0 0 0 0 0 0 0 1
Nghost:    11716 ave 11732 max 11700 min
Histogram: 1 0 0 0 0 0 0 0 0 1
Neighs:    596338 ave 602585 max 590090 min
Histogram: 1 0 0 0 0 0 0 0 0 1

Total # of neighbors = 1192675
Ave neighs/atom = 60.6898
Neighbor list builds = 9505
Dangerous builds not checked
Setting up Verlet run ...
  Unit style    : metal
  Current step  : 180000
  Time step     : 0.001
Per MPI rank memory allocation (min/avg/max) = 11.32 | 11.32 | 11.32 Mbytes
Step Temp Press TotEng PotEng Enthalpy 
  180000    1761.4917   -161.47724   -44179.947   -48654.296   -44221.801 
  180495    1709.2799    199.18175   -44425.998   -48767.725   -44374.563 
Loop time of 37.8682 on 2 procs for 495 steps with 19652 atoms

Performance: 1.129 ns/day, 21.250 hours/ns, 13.072 timesteps/s
99.9% CPU use with 2 MPI tasks x no OpenMP threads

MPI task timing breakdown:
Section |  min time  |  avg time  |  max time  |%varavg| %total
---------------------------------------------------------------
Pair    | 19.997     | 20.186     | 20.375     |   4.2 | 53.31
Neigh   | 16.094     | 16.173     | 16.251     |   1.9 | 42.71
Comm    | 0.73515    | 1.0085     | 1.2818     |  27.2 |  2.66
Output  | 9.1076e-05 | 0.00017858 | 0.00026608 |   0.0 |  0.00
Modify  | 0.39388    | 0.399      | 0.40411    |   0.8 |  1.05
Other   |            | 0.1017     |            |       |  0.27

Nlocal:    9826 ave 9837 max 9815 min
Histogram: 1 0 0 0 0 0 0 0 0 1
Nghost:    11786 ave 11789 max 11783 min
Histogram: 1 0 0 0 0 0 0 0 0 1
Neighs:    598493 ave 602905 max 594081 min
Histogram: 1 0 0 0 0 0 0 0 0 1

Total # of neighbors = 1196986
Ave neighs/atom = 60.9091
Neighbor list builds = 495
Dangerous builds not checked
Setting up Verlet run ...
  Unit style    : metal
  Current step  : 180495
  Time step     : 0.001
Per MPI rank memory allocation (min/avg/max) = 11.32 | 11.32 | 11.32 Mbytes
Step Temp Press TotEng PotEng Enthalpy 
  180495    1709.2799    199.18175   -44425.998   -48767.725   -44374.563 
  190000    1683.5852   -196.73706   -44558.473   -48834.933   -44609.172 
Loop time of 741.717 on 2 procs for 9505 steps with 19652 atoms

Performance: 1.107 ns/day, 21.676 hours/ns, 12.815 timesteps/s
99.7% CPU use with 2 MPI tasks x no OpenMP threads

MPI task timing breakdown:
Section |  min time  |  avg time  |  max time  |%varavg| %total
---------------------------------------------------------------
Pair    | 392.11     | 395.19     | 398.28     |  15.5 | 53.28
Neigh   | 316.73     | 316.91     | 317.09     |   1.0 | 42.73
Comm    | 16.623     | 19.911     | 23.2       |  73.7 |  2.68
Output  | 0.03388    | 0.033898   | 0.033916   |   0.0 |  0.00
Modify  | 7.6831     | 7.709      | 7.735      |   0.9 |  1.04
Other   |            | 1.959      |            |       |  0.26

Nlocal:    9826 ave 9834 max 9818 min
Histogram: 1 0 0 0 0 0 0 0 0 1
Nghost:    11726.5 ave 11746 max 11707 min
Histogram: 1 0 0 0 0 0 0 0 0 1
Neighs:    600114 ave 604482 max 595746 min
Histogram: 1 0 0 0 0 0 0 0 0 1

Total # of neighbors = 1200228
Ave neighs/atom = 61.0741
Neighbor list builds = 9505
Dangerous builds not checked
Setting up Verlet run ...
  Unit style    : metal
  Current step  : 190000
  Time step     : 0.001
Per MPI rank memory allocation (min/avg/max) = 11.32 | 11.32 | 11.32 Mbytes
Step Temp Press TotEng PotEng Enthalpy 
  190000    1683.5852   -196.73706   -44558.473   -48834.933   -44609.172 
  190495    1667.2683    570.77941   -44783.955   -49018.969       -44638 
Loop time of 37.2964 on 2 procs for 495 steps with 19652 atoms

Performance: 1.147 ns/day, 20.930 hours/ns, 13.272 timesteps/s
99.9% CPU use with 2 MPI tasks x no OpenMP threads

MPI task timing breakdown:
Section |  min time  |  avg time  |  max time  |%varavg| %total
---------------------------------------------------------------
Pair    | 19.623     | 19.785     | 19.948     |   3.7 | 53.05
Neigh   | 15.956     | 15.988     | 16.021     |   0.8 | 42.87
Comm    | 0.89694    | 1.0284     | 1.1598     |  13.0 |  2.76
Output  | 9.2983e-05 | 0.00011957 | 0.00014615 |   0.0 |  0.00
Modify  | 0.39135    | 0.39309    | 0.39483    |   0.3 |  1.05
Other   |            | 0.101      |            |       |  0.27

Nlocal:    9826 ave 9832 max 9820 min
Histogram: 1 0 0 0 0 0 0 0 0 1
Nghost:    11826.5 ave 11862 max 11791 min
Histogram: 1 0 0 0 0 0 0 0 0 1
Neighs:    604660 ave 609226 max 600094 min
Histogram: 1 0 0 0 0 0 0 0 0 1

Total # of neighbors = 1209320
Ave neighs/atom = 61.5367
Neighbor list builds = 495
Dangerous builds not checked
Setting up Verlet run ...
  Unit style    : metal
  Current step  : 190495
  Time step     : 0.001
Per MPI rank memory allocation (min/avg/max) = 11.32 | 11.32 | 11.32 Mbytes
Step Temp Press TotEng PotEng Enthalpy 
  190495    1667.2683    570.77941   -44783.955   -49018.969       -44638 
  200000    1644.6268     743.1292   -44911.448    -49088.95    -44721.86 
Loop time of 754.047 on 2 procs for 9505 steps with 19652 atoms

Performance: 1.089 ns/day, 22.037 hours/ns, 12.605 timesteps/s
99.0% CPU use with 2 MPI tasks x no OpenMP threads

MPI task timing breakdown:
Section |  min time  |  avg time  |  max time  |%varavg| %total
---------------------------------------------------------------
Pair    | 395.45     | 399.96     | 404.47     |  22.6 | 53.04
Neigh   | 319.02     | 319.97     | 320.91     |   5.3 | 42.43
Comm    | 19.862     | 23.447     | 27.032     |  74.0 |  3.11
Output  | 0.035445   | 0.03546    | 0.035474   |   0.0 |  0.00
Modify  | 8.6445     | 8.6636     | 8.6827     |   0.6 |  1.15
Other   |            | 1.973      |            |       |  0.26

Nlocal:    9826 ave 9833 max 9819 min
Histogram: 1 0 0 0 0 0 0 0 0 1
Nghost:    11824.5 ave 11831 max 11818 min
Histogram: 1 0 0 0 0 0 0 0 0 1
Neighs:    606242 ave 613562 max 598923 min
Histogram: 1 0 0 0 0 0 0 0 0 1

Total # of neighbors = 1212485
Ave neighs/atom = 61.6978
Neighbor list builds = 9505
Dangerous builds not checked
Setting up Verlet run ...
  Unit style    : metal
  Current step  : 200000
  Time step     : 0.001
Per MPI rank memory allocation (min/avg/max) = 11.32 | 11.33 | 11.33 Mbytes
Step Temp Press TotEng PotEng Enthalpy 
  200000    1644.6268     743.1292   -44911.448    -49088.95    -44721.86 
  200495    1619.1979    96.415558   -45064.417   -49177.327   -45039.888 
Loop time of 39.7416 on 2 procs for 495 steps with 19652 atoms

Performance: 1.076 ns/day, 22.302 hours/ns, 12.455 timesteps/s
98.0% CPU use with 2 MPI tasks x no OpenMP threads

MPI task timing breakdown:
Section |  min time  |  avg time  |  max time  |%varavg| %total
---------------------------------------------------------------
Pair    | 21.143     | 21.564     | 21.985     |   9.1 | 54.26
Neigh   | 16.51      | 16.666     | 16.823     |   3.8 | 41.94
Comm    | 0.7042     | 0.98199    | 1.2598     |  28.0 |  2.47
Output  | 0.00018597 | 0.00024092 | 0.00029588 |   0.0 |  0.00
Modify  | 0.41187    | 0.42348    | 0.43509    |   1.8 |  1.07
Other   |            | 0.1053     |            |       |  0.27

Nlocal:    9826 ave 9843 max 9809 min
Histogram: 1 0 0 0 0 0 0 0 0 1
Nghost:    11791.5 ave 11795 max 11788 min
Histogram: 1 0 0 0 0 0 0 0 0 1
Neighs:    607990 ave 612753 max 603227 min
Histogram: 1 0 0 0 0 0 0 0 0 1

Total # of neighbors = 1215980
Ave neighs/atom = 61.8756
Neighbor list builds = 495
Dangerous builds not checked
Setting up Verlet run ...
  Unit style    : metal
  Current step  : 200495
  Time step     : 0.001
Per MPI rank memory allocation (min/avg/max) = 11.32 | 11.33 | 11.33 Mbytes
Step Temp Press TotEng PotEng Enthalpy 
  200495    1619.1979    96.415558   -45064.417   -49177.327   -45039.888 
  210000    1594.4525    1392.7364   -45236.273   -49286.327   -44883.728 
Loop time of 758.318 on 2 procs for 9505 steps with 19652 atoms

Performance: 1.083 ns/day, 22.161 hours/ns, 12.534 timesteps/s
98.5% CPU use with 2 MPI tasks x no OpenMP threads

MPI task timing breakdown:
Section |  min time  |  avg time  |  max time  |%varavg| %total
---------------------------------------------------------------
Pair    | 395.05     | 399.03     | 403.01     |  19.9 | 52.62
Neigh   | 318.04     | 319.38     | 320.72     |   7.5 | 42.12
Comm    | 27.149     | 29.576     | 32.002     |  44.6 |  3.90
Output  | 0.034611   | 0.034635   | 0.034659   |   0.0 |  0.00
Modify  | 8.1166     | 8.3258     | 8.535      |   7.2 |  1.10
Other   |            | 1.969      |            |       |  0.26

Nlocal:    9826 ave 9830 max 9822 min
Histogram: 1 0 0 0 0 0 0 0 0 1
Nghost:    11848 ave 11865 max 11831 min
Histogram: 1 0 0 0 0 0 0 0 0 1
Neighs:    611230 ave 616884 max 605575 min
Histogram: 1 0 0 0 0 0 0 0 0 1

Total # of neighbors = 1222459
Ave neighs/atom = 62.2053
Neighbor list builds = 9505
Dangerous builds not checked
Setting up Verlet run ...
  Unit style    : metal
  Current step  : 210000
  Time step     : 0.001
Per MPI rank memory allocation (min/avg/max) = 11.33 | 11.33 | 11.33 Mbytes
Step Temp Press TotEng PotEng Enthalpy 
  210000    1594.4525    1392.7364   -45236.273   -49286.327   -44883.728 
  210495    1572.7115    100.45062   -45392.534   -49387.365   -45367.159 
Loop time of 38.9025 on 2 procs for 495 steps with 19652 atoms

Performance: 1.099 ns/day, 21.831 hours/ns, 12.724 timesteps/s
97.6% CPU use with 2 MPI tasks x no OpenMP threads

MPI task timing breakdown:
Section |  min time  |  avg time  |  max time  |%varavg| %total
---------------------------------------------------------------
Pair    | 19.714     | 19.936     | 20.158     |   5.0 | 51.25
Neigh   | 15.94      | 16.003     | 16.066     |   1.6 | 41.14
Comm    | 1.472      | 1.7611     | 2.0502     |  21.8 |  4.53
Output  | 8.5831e-05 | 0.00011539 | 0.00014496 |   0.0 |  0.00
Modify  | 1.0973     | 1.1014     | 1.1054     |   0.4 |  2.83
Other   |            | 0.1006     |            |       |  0.26

Nlocal:    9826 ave 9838 max 9814 min
Histogram: 1 0 0 0 0 0 0 0 0 1
Nghost:    11836.5 ave 11863 max 11810 min
Histogram: 1 0 0 0 0 0 0 0 0 1
Neighs:    612602 ave 617599 max 607604 min
Histogram: 1 0 0 0 0 0 0 0 0 1

Total # of neighbors = 1225203
Ave neighs/atom = 62.345
Neighbor list builds = 495
Dangerous builds not checked
Setting up Verlet run ...
  Unit style    : metal
  Current step  : 210495
  Time step     : 0.001
Per MPI rank memory allocation (min/avg/max) = 11.33 | 11.33 | 11.33 Mbytes
Step Temp Press TotEng PotEng Enthalpy 
  210495    1572.7115    100.45062   -45392.534   -49387.365   -45367.159 
  220000    1519.5818    907.59653   -45563.982   -49423.858   -45335.425 
Loop time of 744.03 on 2 procs for 9505 steps with 19652 atoms

Performance: 1.104 ns/day, 21.744 hours/ns, 12.775 timesteps/s
99.3% CPU use with 2 MPI tasks x no OpenMP threads

MPI task timing breakdown:
Section |  min time  |  avg time  |  max time  |%varavg| %total
---------------------------------------------------------------
Pair    | 392.97     | 397.76     | 402.55     |  24.0 | 53.46
Neigh   | 316.23     | 317.47     | 318.71     |   6.9 | 42.67
Comm    | 15.549     | 19.096     | 22.642     |  81.2 |  2.57
Output  | 0.036249   | 0.036359   | 0.03647    |   0.1 |  0.00
Modify  | 7.7071     | 7.7101     | 7.7131     |   0.1 |  1.04
Other   |            | 1.96       |            |       |  0.26

Nlocal:    9826 ave 9866 max 9786 min
Histogram: 1 0 0 0 0 0 0 0 0 1
Nghost:    11866 ave 11887 max 11845 min
Histogram: 1 0 0 0 0 0 0 0 0 1
Neighs:    614464 ave 623670 max 605258 min
Histogram: 1 0 0 0 0 0 0 0 0 1

Total # of neighbors = 1228928
Ave neighs/atom = 62.5345
Neighbor list builds = 9505
Dangerous builds not checked
Setting up Verlet run ...
  Unit style    : metal
  Current step  : 220000
  Time step     : 0.001
Per MPI rank memory allocation (min/avg/max) = 11.33 | 11.33 | 11.33 Mbytes
Step Temp Press TotEng PotEng Enthalpy 
  220000    1519.5818    907.59653   -45563.982   -49423.858   -45335.425 
  220495    1520.3575   -541.02386    -45672.62   -49534.467   -45808.745 
Loop time of 38.0827 on 2 procs for 495 steps with 19652 atoms

Performance: 1.123 ns/day, 21.371 hours/ns, 12.998 timesteps/s
99.8% CPU use with 2 MPI tasks x no OpenMP threads

MPI task timing breakdown:
Section |  min time  |  avg time  |  max time  |%varavg| %total
---------------------------------------------------------------
Pair    | 20.143     | 20.388     | 20.632     |   5.4 | 53.54
Neigh   | 16.182     | 16.315     | 16.447     |   3.3 | 42.84
Comm    | 0.76235    | 0.87514    | 0.98793    |  12.1 |  2.30
Output  | 8.4877e-05 | 0.00012994 | 0.000175   |   0.0 |  0.00
Modify  | 0.40099    | 0.40208    | 0.40318    |   0.2 |  1.06
Other   |            | 0.1028     |            |       |  0.27

Nlocal:    9826 ave 9846 max 9806 min
Histogram: 1 0 0 0 0 0 0 0 0 1
Nghost:    11917.5 ave 11975 max 11860 min
Histogram: 1 0 0 0 0 0 0 0 0 1
Neighs:    615074 ave 620370 max 609778 min
Histogram: 1 0 0 0 0 0 0 0 0 1

Total # of neighbors = 1230148
Ave neighs/atom = 62.5966
Neighbor list builds = 495
Dangerous builds not checked
Setting up Verlet run ...
  Unit style    : metal
  Current step  : 220495
  Time step     : 0.001
Per MPI rank memory allocation (min/avg/max) = 11.33 | 11.33 | 11.33 Mbytes
Step Temp Press TotEng PotEng Enthalpy 
  220495    1520.3575   -541.02386    -45672.62   -49534.467   -45808.745 
  230000      1503.92    534.24318   -45881.116    -49701.21   -45747.704 
Loop time of 775.135 on 2 procs for 9505 steps with 19652 atoms

Performance: 1.059 ns/day, 22.653 hours/ns, 12.262 timesteps/s
98.7% CPU use with 2 MPI tasks x no OpenMP threads

MPI task timing breakdown:
Section |  min time  |  avg time  |  max time  |%varavg| %total
---------------------------------------------------------------
Pair    | 408.84     | 412.23     | 415.62     |  16.7 | 53.18
Neigh   | 319.64     | 320.75     | 321.85     |   6.2 | 41.38
Comm    | 28.268     | 30.575     | 32.882     |  41.7 |  3.94
Output  | 0.03503    | 0.035056   | 0.035081   |   0.0 |  0.00
Modify  | 9.5108     | 9.5404     | 9.57       |   1.0 |  1.23
Other   |            | 2.011      |            |       |  0.26

Nlocal:    9826 ave 9829 max 9823 min
Histogram: 1 0 0 0 0 0 0 0 0 1
Nghost:    11928.5 ave 11940 max 11917 min
Histogram: 1 0 0 0 0 0 0 0 0 1
Neighs:    620048 ave 626402 max 613693 min
Histogram: 1 0 0 0 0 0 0 0 0 1

Total # of neighbors = 1240095
Ave neighs/atom = 63.1027
Neighbor list builds = 9505
Dangerous builds not checked
Setting up Verlet run ...
  Unit style    : metal
  Current step  : 230000
  Time step     : 0.001
Per MPI rank memory allocation (min/avg/max) = 11.33 | 11.33 | 11.33 Mbytes
Step Temp Press TotEng PotEng Enthalpy 
  230000      1503.92    534.24318   -45881.116    -49701.21   -45747.704 
  230495     1461.218    384.36204   -46025.134   -49736.761   -45929.196 
Loop time of 38.793 on 2 procs for 495 steps with 19652 atoms

Performance: 1.102 ns/day, 21.769 hours/ns, 12.760 timesteps/s
99.7% CPU use with 2 MPI tasks x no OpenMP threads

MPI task timing breakdown:
Section |  min time  |  avg time  |  max time  |%varavg| %total
---------------------------------------------------------------
Pair    | 20.632     | 20.778     | 20.923     |   3.2 | 53.56
Neigh   | 16.318     | 16.38      | 16.442     |   1.5 | 42.22
Comm    | 1.0331     | 1.1194     | 1.2057     |   8.2 |  2.89
Output  | 8.7023e-05 | 0.00011849 | 0.00014997 |   0.0 |  0.00
Modify  | 0.40724    | 0.40846    | 0.40967    |   0.2 |  1.05
Other   |            | 0.1072     |            |       |  0.28

Nlocal:    9826 ave 9830 max 9822 min
Histogram: 1 0 0 0 0 0 0 0 0 1
Nghost:    11933 ave 11936 max 11930 min
Histogram: 1 0 0 0 0 0 0 0 0 1
Neighs:    620175 ave 626304 max 614046 min
Histogram: 1 0 0 0 0 0 0 0 0 1

Total # of neighbors = 1240350
Ave neighs/atom = 63.1157
Neighbor list builds = 495
Dangerous builds not checked
Setting up Verlet run ...
  Unit style    : metal
  Current step  : 230495
  Time step     : 0.001
Per MPI rank memory allocation (min/avg/max) = 11.33 | 11.33 | 11.33 Mbytes
Step Temp Press TotEng PotEng Enthalpy 
  230495     1461.218    384.36204   -46025.134   -49736.761   -45929.196 
  240000    1443.2865    59.195613   -46127.303   -49793.382   -46112.552 
Loop time of 762.975 on 2 procs for 9505 steps with 19652 atoms

Performance: 1.076 ns/day, 22.297 hours/ns, 12.458 timesteps/s
99.8% CPU use with 2 MPI tasks x no OpenMP threads

MPI task timing breakdown:
Section |  min time  |  avg time  |  max time  |%varavg| %total
---------------------------------------------------------------
Pair    | 407.28     | 410.94     | 414.6      |  18.0 | 53.86
Neigh   | 319.95     | 320.2      | 320.45     |   1.4 | 41.97
Comm    | 18.543     | 21.977     | 25.41      |  73.2 |  2.88
Output  | 0.036636   | 0.036723   | 0.03681    |   0.0 |  0.00
Modify  | 7.7783     | 7.8093     | 7.8402     |   1.1 |  1.02
Other   |            | 2.013      |            |       |  0.26

Nlocal:    9826 ave 9839 max 9813 min
Histogram: 1 0 0 0 0 0 0 0 0 1
Nghost:    11906 ave 11942 max 11870 min
Histogram: 1 0 0 0 0 0 0 0 0 1
Neighs:    621044 ave 625847 max 616240 min
Histogram: 1 0 0 0 0 0 0 0 0 1

Total # of neighbors = 1242087
Ave neighs/atom = 63.2041
Neighbor list builds = 9505
Dangerous builds not checked
Setting up Verlet run ...
  Unit style    : metal
  Current step  : 240000
  Time step     : 0.001
Per MPI rank memory allocation (min/avg/max) = 11.33 | 11.33 | 11.33 Mbytes
Step Temp Press TotEng PotEng Enthalpy 
  240000    1443.2865    59.195613   -46127.303   -49793.382   -46112.552 
  240495     1407.197    182.24181   -46341.571   -49915.979   -46296.366 
Loop time of 39.5466 on 2 procs for 495 steps with 19652 atoms

Performance: 1.081 ns/day, 22.192 hours/ns, 12.517 timesteps/s
99.9% CPU use with 2 MPI tasks x no OpenMP threads

MPI task timing breakdown:
Section |  min time  |  avg time  |  max time  |%varavg| %total
---------------------------------------------------------------
Pair    | 21.112     | 21.389     | 21.666     |   6.0 | 54.09
Neigh   | 16.342     | 16.385     | 16.429     |   1.1 | 41.43
Comm    | 0.93258    | 1.2586     | 1.5846     |  29.1 |  3.18
Output  | 7.391e-05  | 0.00011039 | 0.00014687 |   0.0 |  0.00
Modify  | 0.40437    | 0.4082     | 0.41202    |   0.6 |  1.03
Other   |            | 0.1055     |            |       |  0.27

Nlocal:    9826 ave 9827 max 9825 min
Histogram: 1 0 0 0 0 0 0 0 0 1
Nghost:    11978.5 ave 11993 max 11964 min
Histogram: 1 0 0 0 0 0 0 0 0 1
Neighs:    623921 ave 629721 max 618121 min
Histogram: 1 0 0 0 0 0 0 0 0 1

Total # of neighbors = 1247842
Ave neighs/atom = 63.4969
Neighbor list builds = 495
Dangerous builds not checked
Setting up Verlet run ...
  Unit style    : metal
  Current step  : 240495
  Time step     : 0.001
Per MPI rank memory allocation (min/avg/max) = 11.33 | 11.33 | 11.33 Mbytes
Step Temp Press TotEng PotEng Enthalpy 
  240495     1407.197    182.24181   -46341.571   -49915.979   -46296.366 
  250000    1409.5302   -331.40616   -46395.948   -49976.283   -46478.106 
Loop time of 766.62 on 2 procs for 9505 steps with 19652 atoms

Performance: 1.071 ns/day, 22.404 hours/ns, 12.399 timesteps/s
98.9% CPU use with 2 MPI tasks x no OpenMP threads

MPI task timing breakdown:
Section |  min time  |  avg time  |  max time  |%varavg| %total
---------------------------------------------------------------
Pair    | 402.01     | 407.59     | 413.17     |  27.6 | 53.17
Neigh   | 316.86     | 317.55     | 318.25     |   3.9 | 41.42
Comm    | 25.331     | 30.231     | 35.132     |  89.1 |  3.94
Output  | 0.035788   | 0.03585    | 0.035912   |   0.0 |  0.00
Modify  | 9.2072     | 9.2254     | 9.2436     |   0.6 |  1.20
Other   |            | 1.985      |            |       |  0.26

Nlocal:    9826 ave 9845 max 9807 min
Histogram: 1 0 0 0 0 0 0 0 0 1
Nghost:    11973.5 ave 11993 max 11954 min
Histogram: 1 0 0 0 0 0 0 0 0 1
Neighs:    625076 ave 628349 max 621803 min
Histogram: 1 0 0 0 0 0 0 0 0 1

Total # of neighbors = 1250152
Ave neighs/atom = 63.6145
Neighbor list builds = 9505
Dangerous builds not checked
Setting up Verlet run ...
  Unit style    : metal
  Current step  : 250000
  Time step     : 0.001
Per MPI rank memory allocation (min/avg/max) = 11.33 | 11.33 | 11.33 Mbytes
Step Temp Press TotEng PotEng Enthalpy 
  250000    1409.5302   -331.40616   -46395.948   -49976.283   -46478.106 
  250495    1356.8804     82.18143   -46681.543   -50128.143   -46661.288 
Loop time of 38.6749 on 2 procs for 495 steps with 19652 atoms

Performance: 1.106 ns/day, 21.703 hours/ns, 12.799 timesteps/s
99.7% CPU use with 2 MPI tasks x no OpenMP threads

MPI task timing breakdown:
Section |  min time  |  avg time  |  max time  |%varavg| %total
---------------------------------------------------------------
Pair    | 20.681     | 20.762     | 20.843     |   1.8 | 53.68
Neigh   | 16.081     | 16.267     | 16.454     |   4.6 | 42.06
Comm    | 1.0311     | 1.1372     | 1.2434     |  10.0 |  2.94
Output  | 9.203e-05  | 0.00011754 | 0.00014305 |   0.0 |  0.00
Modify  | 0.40467    | 0.40545    | 0.40622    |   0.1 |  1.05
Other   |            | 0.103      |            |       |  0.27

Nlocal:    9826 ave 9852 max 9800 min
Histogram: 1 0 0 0 0 0 0 0 0 1
Nghost:    11965.5 ave 11968 max 11963 min
Histogram: 1 0 0 0 0 0 0 0 0 1
Neighs:    628651 ave 631408 max 625894 min
Histogram: 1 0 0 0 0 0 0 0 0 1

Total # of neighbors = 1257302
Ave neighs/atom = 63.9783
Neighbor list builds = 495
Dangerous builds not checked
Setting up Verlet run ...
  Unit style    : metal
  Current step  : 250495
  Time step     : 0.001
Per MPI rank memory allocation (min/avg/max) = 11.33 | 11.33 | 11.33 Mbytes
Step Temp Press TotEng PotEng Enthalpy 
  250495    1356.8804     82.18143   -46681.543   -50128.143   -46661.288 
  260000    1353.2773    527.37217   -46733.785   -50171.232   -46604.094 
Loop time of 846.794 on 2 procs for 9505 steps with 19652 atoms

Performance: 0.970 ns/day, 24.747 hours/ns, 11.225 timesteps/s
93.7% CPU use with 2 MPI tasks x no OpenMP threads

MPI task timing breakdown:
Section |  min time  |  avg time  |  max time  |%varavg| %total
---------------------------------------------------------------
Pair    | 454.31     | 458.67     | 463.04     |  20.4 | 54.17
Neigh   | 339.75     | 340.79     | 341.82     |   5.6 | 40.24
Comm    | 32.714     | 36.025     | 39.337     |  55.2 |  4.25
Output  | 0.18415    | 0.18417    | 0.1842     |   0.0 |  0.02
Modify  | 8.9778     | 8.9825     | 8.9871     |   0.2 |  1.06
Other   |            | 2.141      |            |       |  0.25

Nlocal:    9826 ave 9836 max 9816 min
Histogram: 1 0 0 0 0 0 0 0 0 1
Nghost:    12004.5 ave 12039 max 11970 min
Histogram: 1 0 0 0 0 0 0 0 0 1
Neighs:    630054 ave 634865 max 625242 min
Histogram: 1 0 0 0 0 0 0 0 0 1

Total # of neighbors = 1260107
Ave neighs/atom = 64.1211
Neighbor list builds = 9505
Dangerous builds not checked
Setting up Verlet run ...
  Unit style    : metal
  Current step  : 260000
  Time step     : 0.001
Per MPI rank memory allocation (min/avg/max) = 11.33 | 11.33 | 11.33 Mbytes
Step Temp Press TotEng PotEng Enthalpy 
  260000    1353.2773    527.37217   -46733.785   -50171.232   -46604.094 
  260495    1318.3141    423.38175   -46945.421   -50294.059   -46841.687 
Loop time of 47.5635 on 2 procs for 495 steps with 19652 atoms

Performance: 0.899 ns/day, 26.691 hours/ns, 10.407 timesteps/s
90.8% CPU use with 2 MPI tasks x no OpenMP threads

MPI task timing breakdown:
Section |  min time  |  avg time  |  max time  |%varavg| %total
---------------------------------------------------------------
Pair    | 24.969     | 25.139     | 25.309     |   3.4 | 52.85
Neigh   | 17.515     | 17.763     | 18.01      |   5.9 | 37.35
Comm    | 3.0752     | 3.6063     | 4.1374     |  28.0 |  7.58
Output  | 8.9169e-05 | 0.00017214 | 0.00025511 |   0.0 |  0.00
Modify  | 0.49742    | 0.94413    | 1.3908     |  46.0 |  1.98
Other   |            | 0.1111     |            |       |  0.23

Nlocal:    9826 ave 9831 max 9821 min
Histogram: 1 0 0 0 0 0 0 0 0 1
Nghost:    12032.5 ave 12049 max 12016 min
Histogram: 1 0 0 0 0 0 0 0 0 1
Neighs:    632184 ave 638573 max 625796 min
Histogram: 1 0 0 0 0 0 0 0 0 1

Total # of neighbors = 1264369
Ave neighs/atom = 64.3379
Neighbor list builds = 495
Dangerous builds not checked
Setting up Verlet run ...
  Unit style    : metal
  Current step  : 260495
  Time step     : 0.001
Per MPI rank memory allocation (min/avg/max) = 11.33 | 11.33 | 11.33 Mbytes
Step Temp Press TotEng PotEng Enthalpy 
  260495    1318.3141    423.38175   -46945.421   -50294.059   -46841.687 
  270000    1305.4044    158.17743   -47087.952   -50403.798   -47049.335 
Loop time of 887.511 on 2 procs for 9505 steps with 19652 atoms

Performance: 0.925 ns/day, 25.937 hours/ns, 10.710 timesteps/s
91.8% CPU use with 2 MPI tasks x no OpenMP threads

MPI task timing breakdown:
Section |  min time  |  avg time  |  max time  |%varavg| %total
---------------------------------------------------------------
Pair    | 479.12     | 484.13     | 489.15     |  22.8 | 54.55
Neigh   | 353.57     | 353.82     | 354.07     |   1.3 | 39.87
Comm    | 33.099     | 37.803     | 42.507     |  76.5 |  4.26
Output  | 0.035306   | 0.035325   | 0.035344   |   0.0 |  0.00
Modify  | 9.4627     | 9.5222     | 9.5818     |   1.9 |  1.07
Other   |            | 2.198      |            |       |  0.25

Nlocal:    9826 ave 9841 max 9811 min
Histogram: 1 0 0 0 0 0 0 0 0 1
Nghost:    12011 ave 12033 max 11989 min
Histogram: 1 0 0 0 0 0 0 0 0 1
Neighs:    634936 ave 642717 max 627155 min
Histogram: 1 0 0 0 0 0 0 0 0 1

Total # of neighbors = 1269872
Ave neighs/atom = 64.618
Neighbor list builds = 9505
Dangerous builds not checked
Setting up Verlet run ...
  Unit style    : metal
  Current step  : 270000
  Time step     : 0.001
Per MPI rank memory allocation (min/avg/max) = 11.33 | 11.33 | 11.34 Mbytes
Step Temp Press TotEng PotEng Enthalpy 
  270000    1305.4044    158.17743   -47087.952   -50403.798   -47049.335 
  270495    1268.6215   -897.14824   -47291.408   -50513.822   -47509.943 
Loop time of 48.355 on 2 procs for 495 steps with 19652 atoms

Performance: 0.884 ns/day, 27.135 hours/ns, 10.237 timesteps/s
89.6% CPU use with 2 MPI tasks x no OpenMP threads

MPI task timing breakdown:
Section |  min time  |  avg time  |  max time  |%varavg| %total
---------------------------------------------------------------
Pair    | 26.422     | 26.732     | 27.043     |   6.0 | 55.28
Neigh   | 18.283     | 18.544     | 18.805     |   6.1 | 38.35
Comm    | 2.3814     | 2.4297     | 2.4781     |   3.1 |  5.02
Output  | 7.5102e-05 | 0.00011814 | 0.00016117 |   0.0 |  0.00
Modify  | 0.53445    | 0.53588    | 0.53732    |   0.2 |  1.11
Other   |            | 0.1128     |            |       |  0.23

Nlocal:    9826 ave 9834 max 9818 min
Histogram: 1 0 0 0 0 0 0 0 0 1
Nghost:    12065.5 ave 12105 max 12026 min
Histogram: 1 0 0 0 0 0 0 0 0 1
Neighs:    636292 ave 642409 max 630176 min
Histogram: 1 0 0 0 0 0 0 0 0 1

Total # of neighbors = 1272585
Ave neighs/atom = 64.756
Neighbor list builds = 495
Dangerous builds not checked
Setting up Verlet run ...
  Unit style    : metal
  Current step  : 270495
  Time step     : 0.001
Per MPI rank memory allocation (min/avg/max) = 11.33 | 11.33 | 11.34 Mbytes
Step Temp Press TotEng PotEng Enthalpy 
  270495    1268.6215   -897.14824   -47291.408   -50513.822   -47509.943 
  280000    1266.4771    1324.8923   -47372.712    -50589.68   -47051.632 
Loop time of 912.255 on 2 procs for 9505 steps with 19652 atoms

Performance: 0.900 ns/day, 26.660 hours/ns, 10.419 timesteps/s
90.5% CPU use with 2 MPI tasks x no OpenMP threads

MPI task timing breakdown:
Section |  min time  |  avg time  |  max time  |%varavg| %total
---------------------------------------------------------------
Pair    | 490.72     | 494.75     | 498.79     |  18.2 | 54.23
Neigh   | 353.54     | 353.81     | 354.08     |   1.4 | 38.78
Comm    | 45.987     | 50.419     | 54.851     |  62.4 |  5.53
Output  | 0.036237   | 0.036258   | 0.036278   |   0.0 |  0.00
Modify  | 10.881     | 10.967     | 11.053     |   2.6 |  1.20
Other   |            | 2.267      |            |       |  0.25

Nlocal:    9826 ave 9842 max 9810 min
Histogram: 1 0 0 0 0 0 0 0 0 1
Nghost:    12079.5 ave 12101 max 12058 min
Histogram: 1 0 0 0 0 0 0 0 0 1
Neighs:    639425 ave 647166 max 631684 min
Histogram: 1 0 0 0 0 0 0 0 0 1

Total # of neighbors = 1278850
Ave neighs/atom = 65.0748
Neighbor list builds = 9505
Dangerous builds not checked
Setting up Verlet run ...
  Unit style    : metal
  Current step  : 280000
  Time step     : 0.001
Per MPI rank memory allocation (min/avg/max) = 11.33 | 11.33 | 11.34 Mbytes
Step Temp Press TotEng PotEng Enthalpy 
  280000    1266.4771    1324.8923   -47372.712    -50589.68   -47051.632 
  280495    1208.6567    956.13932   -47608.971   -50679.069   -47377.883 
Loop time of 44.5784 on 2 procs for 495 steps with 19652 atoms

Performance: 0.959 ns/day, 25.016 hours/ns, 11.104 timesteps/s
93.2% CPU use with 2 MPI tasks x no OpenMP threads

MPI task timing breakdown:
Section |  min time  |  avg time  |  max time  |%varavg| %total
---------------------------------------------------------------
Pair    | 24.143     | 24.352     | 24.561     |   4.2 | 54.63
Neigh   | 17.94      | 17.946     | 17.953     |   0.2 | 40.26
Comm    | 1.4906     | 1.7016     | 1.9126     |  16.2 |  3.82
Output  | 9.0122e-05 | 0.00013208 | 0.00017405 |   0.0 |  0.00
Modify  | 0.46481    | 0.46701    | 0.46922    |   0.3 |  1.05
Other   |            | 0.1115     |            |       |  0.25

Nlocal:    9826 ave 9849 max 9803 min
Histogram: 1 0 0 0 0 0 0 0 0 1
Nghost:    12041 ave 12068 max 12014 min
Histogram: 1 0 0 0 0 0 0 0 0 1
Neighs:    641452 ave 649061 max 633843 min
Histogram: 1 0 0 0 0 0 0 0 0 1

Total # of neighbors = 1282904
Ave neighs/atom = 65.2811
Neighbor list builds = 495
Dangerous builds not checked
Setting up Verlet run ...
  Unit style    : metal
  Current step  : 280495
  Time step     : 0.001
Per MPI rank memory allocation (min/avg/max) = 11.33 | 11.33 | 11.34 Mbytes
Step Temp Press TotEng PotEng Enthalpy 
  280495    1208.6567    956.13932   -47608.971   -50679.069   -47377.883 
  290000    1193.5086    913.76095   -47720.716   -50752.337   -47500.313 
Loop time of 952.235 on 2 procs for 9505 steps with 19652 atoms

Performance: 0.862 ns/day, 27.828 hours/ns, 9.982 timesteps/s
88.8% CPU use with 2 MPI tasks x no OpenMP threads

MPI task timing breakdown:
Section |  min time  |  avg time  |  max time  |%varavg| %total
---------------------------------------------------------------
Pair    | 520.82     | 526.27     | 531.72     |  23.8 | 55.27
Neigh   | 365.12     | 365.95     | 366.79     |   4.4 | 38.43
Comm    | 42.618     | 47.349     | 52.08      |  68.8 |  4.97
Output  | 0.035153   | 0.035172   | 0.035191   |   0.0 |  0.00
Modify  | 10.126     | 10.253     | 10.379     |   4.0 |  1.08
Other   |            | 2.377      |            |       |  0.25

Nlocal:    9826 ave 9827 max 9825 min
Histogram: 1 0 0 0 0 0 0 0 0 1
Nghost:    12113.5 ave 12128 max 12099 min
Histogram: 1 0 0 0 0 0 0 0 0 1
Neighs:    643064 ave 650358 max 635771 min
Histogram: 1 0 0 0 0 0 0 0 0 1

Total # of neighbors = 1286129
Ave neighs/atom = 65.4452
Neighbor list builds = 9505
Dangerous builds not checked
Setting up Verlet run ...
  Unit style    : metal
  Current step  : 290000
  Time step     : 0.001
Per MPI rank memory allocation (min/avg/max) = 11.33 | 11.33 | 11.34 Mbytes
Step Temp Press TotEng PotEng Enthalpy 
  290000    1193.5086    913.76095   -47720.716   -50752.337   -47500.313 
  290495    1166.2206    556.97251   -47904.084   -50866.391   -47770.162 
Loop time of 50.1847 on 2 procs for 495 steps with 19652 atoms

Performance: 0.852 ns/day, 28.162 hours/ns, 9.864 timesteps/s
87.5% CPU use with 2 MPI tasks x no OpenMP threads

MPI task timing breakdown:
Section |  min time  |  avg time  |  max time  |%varavg| %total
---------------------------------------------------------------
Pair    | 27.45      | 27.972     | 28.494     |   9.9 | 55.74
Neigh   | 18.828     | 19.241     | 19.655     |   9.4 | 38.34
Comm    | 2.2369     | 2.3453     | 2.4536     |   7.1 |  4.67
Output  | 8.6069e-05 | 0.00011706 | 0.00014806 |   0.0 |  0.00
Modify  | 0.50257    | 0.50322    | 0.50387    |   0.1 |  1.00
Other   |            | 0.1225     |            |       |  0.24

Nlocal:    9826 ave 9838 max 9814 min
Histogram: 1 0 0 0 0 0 0 0 0 1
Nghost:    12096 ave 12101 max 12091 min
Histogram: 1 0 0 0 0 0 0 0 0 1
Neighs:    644963 ave 652830 max 637096 min
Histogram: 1 0 0 0 0 0 0 0 0 1

Total # of neighbors = 1289926
Ave neighs/atom = 65.6384
Neighbor list builds = 495
Dangerous builds not checked
Setting up Verlet run ...
  Unit style    : metal
  Current step  : 290495
  Time step     : 0.001
Per MPI rank memory allocation (min/avg/max) = 11.33 | 11.33 | 11.34 Mbytes
Step Temp Press TotEng PotEng Enthalpy 
  290495    1166.2206    556.97251   -47904.084   -50866.391   -47770.162 
  300000     1150.682   -343.07478   -48102.421   -51025.258   -48184.562 
Loop time of 1016.42 on 2 procs for 9505 steps with 19652 atoms

Performance: 0.808 ns/day, 29.704 hours/ns, 9.351 timesteps/s
86.6% CPU use with 2 MPI tasks x no OpenMP threads

MPI task timing breakdown:
Section |  min time  |  avg time  |  max time  |%varavg| %total
---------------------------------------------------------------
Pair    | 557.86     | 562.65     | 567.44     |  20.2 | 55.36
Neigh   | 375.3      | 375.94     | 376.59     |   3.3 | 36.99
Comm    | 56.076     | 61.515     | 66.953     |  69.3 |  6.05
Output  | 0.037061   | 0.037084   | 0.037107   |   0.0 |  0.00
Modify  | 13.837     | 13.842     | 13.846     |   0.1 |  1.36
Other   |            | 2.426      |            |       |  0.24

Nlocal:    9826 ave 9840 max 9812 min
Histogram: 1 0 0 0 0 0 0 0 0 1
Nghost:    12138.5 ave 12162 max 12115 min
Histogram: 1 0 0 0 0 0 0 0 0 1
Neighs:    648182 ave 652644 max 643719 min
Histogram: 1 0 0 0 0 0 0 0 0 1

Total # of neighbors = 1296363
Ave neighs/atom = 65.966
Neighbor list builds = 9505
Dangerous builds not checked
Setting up Verlet run ...
  Unit style    : metal
  Current step  : 300000
  Time step     : 0.001
Per MPI rank memory allocation (min/avg/max) = 11.33 | 11.33 | 11.34 Mbytes
Step Temp Press TotEng PotEng Enthalpy 
[...]
Histogram: 1 0 0 0 0 0 0 0 0 1
Neighs:    708724 ave 710119 max 707328 min
Histogram: 1 0 0 0 0 0 0 0 0 1

Total # of neighbors = 1417447
Ave neighs/atom = 72.1274
Neighbor list builds = 9505
Dangerous builds not checked
Setting up Verlet run ...
  Unit style    : metal
  Current step  : 440000
  Time step     : 0.001
Per MPI rank memory allocation (min/avg/max) = 11.34 | 11.34 | 11.34 Mbytes
Step Temp Press TotEng PotEng Enthalpy 
  440000    449.99491   -880.32329   -52846.006   -53989.035     -53039.2 
  440495    419.70509   -138.66229   -53004.243   -54070.332   -53034.584 
Loop time of 42.7555 on 2 procs for 495 steps with 19652 atoms

Performance: 1.000 ns/day, 23.993 hours/ns, 11.577 timesteps/s
98.1% CPU use with 2 MPI tasks x no OpenMP threads

MPI task timing breakdown:
Section |  min time  |  avg time  |  max time  |%varavg| %total
---------------------------------------------------------------
Pair    | 22.784     | 22.98      | 23.177     |   4.1 | 53.75
Neigh   | 17.306     | 17.485     | 17.664     |   4.3 | 40.89
Comm    | 1.3908     | 1.7712     | 2.1515     |  28.6 |  4.14
Output  | 8.893e-05  | 0.0001179  | 0.00014687 |   0.0 |  0.00
Modify  | 0.4089     | 0.41285    | 0.4168     |   0.6 |  0.97
Other   |            | 0.1064     |            |       |  0.25

Nlocal:    9826 ave 9853 max 9799 min
Histogram: 1 0 0 0 0 0 0 0 0 1
Nghost:    12612.5 ave 12625 max 12600 min
Histogram: 1 0 0 0 0 0 0 0 0 1
Neighs:    711010 ave 713384 max 708637 min
Histogram: 1 0 0 0 0 0 0 0 0 1

Total # of neighbors = 1422021
Ave neighs/atom = 72.3601
Neighbor list builds = 495
Dangerous builds not checked
Setting up Verlet run ...
  Unit style    : metal
  Current step  : 440495
  Time step     : 0.001
Per MPI rank memory allocation (min/avg/max) = 11.34 | 11.34 | 11.34 Mbytes
Step Temp Press TotEng PotEng Enthalpy 
  440495    419.70509   -138.66229   -53004.243   -54070.332   -53034.584 
  450000    403.61217    565.22675   -53145.524   -54170.735   -53022.279 
Loop time of 828.787 on 2 procs for 9505 steps with 19652 atoms

Performance: 0.991 ns/day, 24.221 hours/ns, 11.469 timesteps/s
98.4% CPU use with 2 MPI tasks x no OpenMP threads

MPI task timing breakdown:
Section |  min time  |  avg time  |  max time  |%varavg| %total
---------------------------------------------------------------
Pair    | 443.53     | 446.23     | 448.92     |  12.8 | 53.84
Neigh   | 341.32     | 342.06     | 342.8      |   4.0 | 41.27
Comm    | 25.818     | 29.514     | 33.209     |  68.0 |  3.56
Output  | 0.03645    | 0.036481   | 0.036513   |   0.0 |  0.00
Modify  | 8.594      | 8.8439     | 9.0938     |   8.4 |  1.07
Other   |            | 2.106      |            |       |  0.25

Nlocal:    9826 ave 9846 max 9806 min
Histogram: 1 0 0 0 0 0 0 0 0 1
Nghost:    12644 ave 12651 max 12637 min
Histogram: 1 0 0 0 0 0 0 0 0 1
Neighs:    713283 ave 715237 max 711329 min
Histogram: 1 0 0 0 0 0 0 0 0 1

Total # of neighbors = 1426566
Ave neighs/atom = 72.5914
Neighbor list builds = 9505
Dangerous builds not checked
Setting up Verlet run ...
  Unit style    : metal
  Current step  : 450000
  Time step     : 0.001
Per MPI rank memory allocation (min/avg/max) = 11.34 | 11.34 | 11.34 Mbytes
Step Temp Press TotEng PotEng Enthalpy 
  450000    403.61217    565.22675   -53145.524   -54170.735   -53022.279 
  450495    373.89362   -388.40529   -53300.452   -54250.176   -53385.044 
Loop time of 44.7921 on 2 procs for 495 steps with 19652 atoms

Performance: 0.955 ns/day, 25.136 hours/ns, 11.051 timesteps/s
96.8% CPU use with 2 MPI tasks x no OpenMP threads

MPI task timing breakdown:
Section |  min time  |  avg time  |  max time  |%varavg| %total
---------------------------------------------------------------
Pair    | 23.988     | 24.191     | 24.394     |   4.1 | 54.01
Neigh   | 18.576     | 18.7       | 18.823     |   2.9 | 41.75
Comm    | 1.0129     | 1.3494     | 1.6858     |  29.0 |  3.01
Output  | 8.3923e-05 | 0.00012541 | 0.00016689 |   0.0 |  0.00
Modify  | 0.43103    | 0.43342    | 0.43581    |   0.4 |  0.97
Other   |            | 0.1184     |            |       |  0.26

Nlocal:    9826 ave 9835 max 9817 min
Histogram: 1 0 0 0 0 0 0 0 0 1
Nghost:    12640 ave 12654 max 12626 min
Histogram: 1 0 0 0 0 0 0 0 0 1
Neighs:    714396 ave 715333 max 713460 min
Histogram: 1 0 0 0 0 0 0 0 0 1

Total # of neighbors = 1428793
Ave neighs/atom = 72.7047
Neighbor list builds = 495
Dangerous builds not checked
Setting up Verlet run ...
  Unit style    : metal
  Current step  : 450495
  Time step     : 0.001
Per MPI rank memory allocation (min/avg/max) = 11.34 | 11.34 | 11.34 Mbytes
Step Temp Press TotEng PotEng Enthalpy 
  450495    373.89362   -388.40529   -53300.452   -54250.176   -53385.044 
  460000    349.16708    981.22184   -53448.665   -54335.581   -53235.786 
Loop time of 867.725 on 2 procs for 9505 steps with 19652 atoms

Performance: 0.946 ns/day, 25.359 hours/ns, 10.954 timesteps/s
96.6% CPU use with 2 MPI tasks x no OpenMP threads

MPI task timing breakdown:
Section |  min time  |  avg time  |  max time  |%varavg| %total
---------------------------------------------------------------
Pair    | 468.21     | 470.78     | 473.35     |  11.8 | 54.25
Neigh   | 351.4      | 352.72     | 354.05     |   7.0 | 40.65
Comm    | 29.402     | 33.364     | 37.325     |  68.6 |  3.84
Output  | 0.03593    | 0.035949   | 0.035967   |   0.0 |  0.00
Modify  | 8.6022     | 8.6462     | 8.6902     |   1.5 |  1.00
Other   |            | 2.175      |            |       |  0.25

Nlocal:    9826 ave 9835 max 9817 min
Histogram: 1 0 0 0 0 0 0 0 0 1
Nghost:    12655 ave 12657 max 12653 min
Histogram: 1 0 0 0 0 0 0 0 0 1
Neighs:    716676 ave 717866 max 715486 min
Histogram: 1 0 0 0 0 0 0 0 0 1

Total # of neighbors = 1433352
Ave neighs/atom = 72.9367
Neighbor list builds = 9505
Dangerous builds not checked
Setting up Verlet run ...
  Unit style    : metal
  Current step  : 460000
  Time step     : 0.001
Per MPI rank memory allocation (min/avg/max) = 11.34 | 11.34 | 11.34 Mbytes
Step Temp Press TotEng PotEng Enthalpy 
  460000    349.16708    981.22184   -53448.665   -54335.581   -53235.786 
  460495    321.49414   -659.96919   -53589.879   -54406.503   -53733.025 
Loop time of 47.3748 on 2 procs for 495 steps with 19652 atoms

Performance: 0.903 ns/day, 26.585 hours/ns, 10.449 timesteps/s
93.5% CPU use with 2 MPI tasks x no OpenMP threads

MPI task timing breakdown:
Section |  min time  |  avg time  |  max time  |%varavg| %total
---------------------------------------------------------------
Pair    | 25.972     | 26.248     | 26.524     |   5.4 | 55.41
Neigh   | 18.662     | 18.773     | 18.885     |   2.6 | 39.63
Comm    | 1.5304     | 1.6966     | 1.8628     |  12.8 |  3.58
Output  | 0.00014997 | 0.0001924  | 0.00023484 |   0.0 |  0.00
Modify  | 0.54388    | 0.54405    | 0.54423    |   0.0 |  1.15
Other   |            | 0.1124     |            |       |  0.24

Nlocal:    9826 ave 9838 max 9814 min
Histogram: 1 0 0 0 0 0 0 0 0 1
Nghost:    12671 ave 12674 max 12668 min
Histogram: 1 0 0 0 0 0 0 0 0 1
Neighs:    716968 ave 718065 max 715870 min
Histogram: 1 0 0 0 0 0 0 0 0 1

Total # of neighbors = 1433935
Ave neighs/atom = 72.9664
Neighbor list builds = 495
Dangerous builds not checked
Setting up Verlet run ...
  Unit style    : metal
  Current step  : 460495
  Time step     : 0.001
Per MPI rank memory allocation (min/avg/max) = 11.34 | 11.34 | 11.34 Mbytes
Step Temp Press TotEng PotEng Enthalpy 
  460495    321.49414   -659.96919   -53589.879   -54406.503   -53733.025 
  470000    301.85267   -634.69173   -53719.134   -54485.867   -53856.511 
Loop time of 845.377 on 2 procs for 9505 steps with 19652 atoms

Performance: 0.971 ns/day, 24.706 hours/ns, 11.244 timesteps/s
97.3% CPU use with 2 MPI tasks x no OpenMP threads

MPI task timing breakdown:
Section |  min time  |  avg time  |  max time  |%varavg| %total
---------------------------------------------------------------
Pair    | 456.65     | 456.69     | 456.73     |   0.2 | 54.02
Neigh   | 343.66     | 345.36     | 347.07     |   9.2 | 40.85
Comm    | 30.009     | 31.834     | 33.659     |  32.3 |  3.77
Output  | 0.091232   | 0.091247   | 0.091261   |   0.0 |  0.01
Modify  | 9.1795     | 9.2689     | 9.3583     |   2.9 |  1.10
Other   |            | 2.127      |            |       |  0.25

Nlocal:    9826 ave 9829 max 9823 min
Histogram: 1 0 0 0 0 0 0 0 0 1
Nghost:    12650.5 ave 12660 max 12641 min
Histogram: 1 0 0 0 0 0 0 0 0 1
Neighs:    718300 ave 718327 max 718273 min
Histogram: 1 0 0 0 0 0 0 0 0 1

Total # of neighbors = 1436600
Ave neighs/atom = 73.102
Neighbor list builds = 9505
Dangerous builds not checked
Setting up Verlet run ...
  Unit style    : metal
  Current step  : 470000
  Time step     : 0.001
Per MPI rank memory allocation (min/avg/max) = 11.34 | 11.34 | 11.34 Mbytes
Step Temp Press TotEng PotEng Enthalpy 
  470000    301.85267   -634.69173   -53719.134   -54485.867   -53856.511 
  470495    274.29252    191.30045   -53863.594   -54560.322    -53822.31 
Loop time of 52.955 on 2 procs for 495 steps with 19652 atoms

Performance: 0.808 ns/day, 29.717 hours/ns, 9.348 timesteps/s
87.7% CPU use with 2 MPI tasks x no OpenMP threads

MPI task timing breakdown:
Section |  min time  |  avg time  |  max time  |%varavg| %total
---------------------------------------------------------------
Pair    | 29.836     | 29.957     | 30.079     |   2.2 | 56.57
Neigh   | 19.571     | 19.663     | 19.756     |   2.1 | 37.13
Comm    | 2.501      | 2.7291     | 2.9572     |  13.8 |  5.15
Output  | 9.3937e-05 | 0.00013304 | 0.00017214 |   0.0 |  0.00
Modify  | 0.47378    | 0.47905    | 0.48433    |   0.8 |  0.90
Other   |            | 0.1262     |            |       |  0.24

Nlocal:    9826 ave 9838 max 9814 min
Histogram: 1 0 0 0 0 0 0 0 0 1
Nghost:    12708.5 ave 12725 max 12692 min
Histogram: 1 0 0 0 0 0 0 0 0 1
Neighs:    720352 ave 721530 max 719175 min
Histogram: 1 0 0 0 0 0 0 0 0 1

Total # of neighbors = 1440705
Ave neighs/atom = 73.3109
Neighbor list builds = 495
Dangerous builds not checked
Setting up Verlet run ...
  Unit style    : metal
  Current step  : 470495
  Time step     : 0.001
Per MPI rank memory allocation (min/avg/max) = 11.34 | 11.34 | 11.34 Mbytes
Step Temp Press TotEng PotEng Enthalpy 
  470495    274.29252    191.30045   -53863.594   -54560.322    -53822.31 
  480000     249.5129    81.549457   -53998.257   -54632.043   -53980.691 
Loop time of 1038.45 on 2 procs for 9505 steps with 19652 atoms

Performance: 0.791 ns/day, 30.348 hours/ns, 9.153 timesteps/s
86.1% CPU use with 2 MPI tasks x no OpenMP threads

MPI task timing breakdown:
Section |  min time  |  avg time  |  max time  |%varavg| %total
---------------------------------------------------------------
Pair    | 570.25     | 570.72     | 571.18     |   2.0 | 54.96
Neigh   | 391.84     | 393.56     | 395.29     |   8.7 | 37.90
Comm    | 58.178     | 60.452     | 62.725     |  29.2 |  5.82
Output  | 0.036357   | 0.036415   | 0.036473   |   0.0 |  0.00
Modify  | 11.186     | 11.271     | 11.357     |   2.6 |  1.09
Other   |            | 2.416      |            |       |  0.23

Nlocal:    9826 ave 9845 max 9807 min
Histogram: 1 0 0 0 0 0 0 0 0 1
Nghost:    12687 ave 12696 max 12678 min
Histogram: 1 0 0 0 0 0 0 0 0 1
Neighs:    721593 ave 723492 max 719694 min
Histogram: 1 0 0 0 0 0 0 0 0 1

Total # of neighbors = 1443186
Ave neighs/atom = 73.4371
Neighbor list builds = 9505
Dangerous builds not checked
Setting up Verlet run ...
  Unit style    : metal
  Current step  : 480000
  Time step     : 0.001
Per MPI rank memory allocation (min/avg/max) = 11.34 | 11.34 | 11.34 Mbytes
Step Temp Press TotEng PotEng Enthalpy 
  480000     249.5129    81.549457   -53998.257   -54632.043   -53980.691 
  480495    224.21748    -333.5062   -54130.464   -54699.996   -54202.204 
Loop time of 51.8093 on 2 procs for 495 steps with 19652 atoms

Performance: 0.825 ns/day, 29.074 hours/ns, 9.554 timesteps/s
87.3% CPU use with 2 MPI tasks x no OpenMP threads

MPI task timing breakdown:
Section |  min time  |  avg time  |  max time  |%varavg| %total
---------------------------------------------------------------
Pair    | 28.222     | 28.381     | 28.541     |   3.0 | 54.78
Neigh   | 18.43      | 19.905     | 21.38      |  33.1 | 38.42
Comm    | 1.5425     | 2.8887     | 4.235      |  79.2 |  5.58
Output  | 9.7036e-05 | 0.00018549 | 0.00027394 |   0.0 |  0.00
Modify  | 0.48503    | 0.49343    | 0.50183    |   1.2 |  0.95
Other   |            | 0.141      |            |       |  0.27

Nlocal:    9826 ave 9833 max 9819 min
Histogram: 1 0 0 0 0 0 0 0 0 1
Nghost:    12697.5 ave 12711 max 12684 min
Histogram: 1 0 0 0 0 0 0 0 0 1
Neighs:    722512 ave 723290 max 721735 min
Histogram: 1 0 0 0 0 0 0 0 0 1

Total # of neighbors = 1445025
Ave neighs/atom = 73.5307
Neighbor list builds = 495
Dangerous builds not checked
Setting up Verlet run ...
  Unit style    : metal
  Current step  : 480495
  Time step     : 0.001
Per MPI rank memory allocation (min/avg/max) = 11.34 | 11.34 | 11.34 Mbytes
Step Temp Press TotEng PotEng Enthalpy 
  480495    224.21748    -333.5062   -54130.464   -54699.996   -54202.204 
  490000    201.26373    197.71991   -54263.784   -54775.013   -54221.359 
Loop time of 979.799 on 2 procs for 9505 steps with 19652 atoms

Performance: 0.838 ns/day, 28.634 hours/ns, 9.701 timesteps/s
88.3% CPU use with 2 MPI tasks x no OpenMP threads

MPI task timing breakdown:
Section |  min time  |  avg time  |  max time  |%varavg| %total
---------------------------------------------------------------
Pair    | 534.55     | 536.94     | 539.32     |  10.3 | 54.80
Neigh   | 379.53     | 380.91     | 382.29     |   7.1 | 38.88
Comm    | 45.058     | 48.891     | 52.723     |  54.8 |  4.99
Output  | 0.040154   | 0.040234   | 0.040313   |   0.0 |  0.00
Modify  | 10.62      | 10.639     | 10.658     |   0.6 |  1.09
Other   |            | 2.38       |            |       |  0.24

Nlocal:    9826 ave 9837 max 9815 min
Histogram: 1 0 0 0 0 0 0 0 0 1
Nghost:    12700.5 ave 12709 max 12692 min
Histogram: 1 0 0 0 0 0 0 0 0 1
Neighs:    724250 ave 725385 max 723115 min
Histogram: 1 0 0 0 0 0 0 0 0 1

Total # of neighbors = 1448500
Ave neighs/atom = 73.7075
Neighbor list builds = 9505
Dangerous builds not checked
Setting up Verlet run ...
  Unit style    : metal
  Current step  : 490000
  Time step     : 0.001
Per MPI rank memory allocation (min/avg/max) = 11.34 | 11.34 | 11.34 Mbytes
Step Temp Press TotEng PotEng Enthalpy 
  490000    201.26373    197.71991   -54263.784   -54775.013   -54221.359 
  490495    175.53914   -56.762334   -54392.274   -54838.159   -54404.437 
Loop time of 52.1878 on 2 procs for 495 steps with 19652 atoms

Performance: 0.820 ns/day, 29.286 hours/ns, 9.485 timesteps/s
86.8% CPU use with 2 MPI tasks x no OpenMP threads

MPI task timing breakdown:
Section |  min time  |  avg time  |  max time  |%varavg| %total
---------------------------------------------------------------
Pair    | 28.888     | 28.905     | 28.921     |   0.3 | 55.39
Neigh   | 19.686     | 20.018     | 20.35      |   7.4 | 38.36
Comm    | 2.2382     | 2.6066     | 2.9751     |  22.8 |  4.99
Output  | 9.3937e-05 | 0.00011897 | 0.000144   |   0.0 |  0.00
Modify  | 0.51693    | 0.53083    | 0.54473    |   1.9 |  1.02
Other   |            | 0.1276     |            |       |  0.24

Nlocal:    9826 ave 9836 max 9816 min
Histogram: 1 0 0 0 0 0 0 0 0 1
Nghost:    12723.5 ave 12733 max 12714 min
Histogram: 1 0 0 0 0 0 0 0 0 1
Neighs:    725150 ave 726203 max 724096 min
Histogram: 1 0 0 0 0 0 0 0 0 1

Total # of neighbors = 1450299
Ave neighs/atom = 73.7991
Neighbor list builds = 495
Dangerous builds not checked
Setting up Verlet run ...
  Unit style    : metal
  Current step  : 490495
  Time step     : 0.001
Per MPI rank memory allocation (min/avg/max) = 11.34 | 11.34 | 11.34 Mbytes
Step Temp Press TotEng PotEng Enthalpy 
  490495    175.53914   -56.762334   -54392.274   -54838.159   -54404.437 
  500000      150.628    403.99824    -54533.61   -54916.219   -54447.264 
Loop time of 1011.77 on 2 procs for 9505 steps with 19652 atoms

Performance: 0.812 ns/day, 29.568 hours/ns, 9.394 timesteps/s
86.7% CPU use with 2 MPI tasks x no OpenMP threads

MPI task timing breakdown:
Section |  min time  |  avg time  |  max time  |%varavg| %total
---------------------------------------------------------------
Pair    | 549.67     | 550.94     | 552.2      |   5.4 | 54.45
Neigh   | 381.69     | 384.8      | 387.91     |  15.9 | 38.03
Comm    | 58.146     | 62.804     | 67.462     |  58.8 |  6.21
Output  | 0.033461   | 0.033516   | 0.033571   |   0.0 |  0.00
Modify  | 10.533     | 10.809     | 11.086     |   8.4 |  1.07
Other   |            | 2.387      |            |       |  0.24

Nlocal:    9826 ave 9829 max 9823 min
Histogram: 1 0 0 0 0 0 0 0 0 1
Nghost:    12745.5 ave 12751 max 12740 min
Histogram: 1 0 0 0 0 0 0 0 0 1
Neighs:    726972 ave 727298 max 726645 min
Histogram: 1 0 0 0 0 0 0 0 0 1

Total # of neighbors = 1453943
Ave neighs/atom = 73.9845
Neighbor list builds = 9505
Dangerous builds not checked
Setting up Verlet run ...
  Unit style    : metal
  Current step  : 500000
  Time step     : 0.001
Per MPI rank memory allocation (min/avg/max) = 11.34 | 11.34 | 11.34 Mbytes
Step Temp Press TotEng PotEng Enthalpy 
  500000      150.628    403.99824    -54533.61   -54916.219   -54447.264 
  500495    126.46568    161.16933   -54651.554   -54972.789    -54617.15 
Loop time of 49.9224 on 2 procs for 495 steps with 19652 atoms

Performance: 0.857 ns/day, 28.015 hours/ns, 9.915 timesteps/s
89.6% CPU use with 2 MPI tasks x no OpenMP threads

MPI task timing breakdown:
Section |  min time  |  avg time  |  max time  |%varavg| %total
---------------------------------------------------------------
Pair    | 27.099     | 27.203     | 27.308     |   2.0 | 54.49
Neigh   | 19.651     | 19.789     | 19.926     |   3.1 | 39.64
Comm    | 2.2569     | 2.291      | 2.3251     |   2.3 |  4.59
Output  | 0.00010085 | 0.00017941 | 0.00025797 |   0.0 |  0.00
Modify  | 0.49917    | 0.50986    | 0.52055    |   1.5 |  1.02
Other   |            | 0.1295     |            |       |  0.26

Nlocal:    9826 ave 9834 max 9818 min
Histogram: 1 0 0 0 0 0 0 0 0 1
Nghost:    12745 ave 12755 max 12735 min
Histogram: 1 0 0 0 0 0 0 0 0 1
Neighs:    727564 ave 728419 max 726709 min
Histogram: 1 0 0 0 0 0 0 0 0 1

Total # of neighbors = 1455128
Ave neighs/atom = 74.0448
Neighbor list builds = 495
Dangerous builds not checked
Setting up Verlet run ...
  Unit style    : metal
  Current step  : 500495
  Time step     : 0.001
Per MPI rank memory allocation (min/avg/max) = 11.34 | 11.34 | 11.34 Mbytes
Step Temp Press TotEng PotEng Enthalpy 
  500495    126.46568    161.16933   -54651.554   -54972.789    -54617.15 
  510000    99.386208    235.06866   -54797.493   -55049.943   -54747.421 
Loop time of 977.977 on 2 procs for 9505 steps with 19652 atoms

Performance: 0.840 ns/day, 28.581 hours/ns, 9.719 timesteps/s
88.0% CPU use with 2 MPI tasks x no OpenMP threads

MPI task timing breakdown:
Section |  min time  |  avg time  |  max time  |%varavg| %total
---------------------------------------------------------------
Pair    | 537.4      | 537.62     | 537.84     |   0.9 | 54.97
Neigh   | 370.25     | 375.55     | 380.86     |  27.4 | 38.40
Comm    | 47.177     | 52.387     | 57.597     |  72.0 |  5.36
Output  | 0.058462   | 0.058488   | 0.058514   |   0.0 |  0.01
Modify  | 9.8887     | 9.9591     | 10.029     |   2.2 |  1.02
Other   |            | 2.397      |            |       |  0.25

Nlocal:    9826 ave 9844 max 9808 min
Histogram: 1 0 0 0 0 0 0 0 0 1
Nghost:    12740 ave 12761 max 12719 min
Histogram: 1 0 0 0 0 0 0 0 0 1
Neighs:    729170 ave 730771 max 727570 min
Histogram: 1 0 0 0 0 0 0 0 0 1

Total # of neighbors = 1458341
Ave neighs/atom = 74.2083
Neighbor list builds = 9505
Dangerous builds not checked
Total wall time: 12:14:32
