LAMMPS (12 Dec 2018)
Lattice spacing in x,y,z = 4 4 4
Created orthogonal box = (0 0 0) to (68 68 68)
  1 by 1 by 2 MPI processor grid
Created 19652 atoms
  Time spent = 0.00178599 secs
Setting atom values ...
  19652 settings made for type/fraction
Neighbor list info ...
  update every 1 steps, delay 0 steps, check no
  max neighbors/atom: 2000, page size: 100000
  master list distance cutoff = 8.5
  ghost atom cutoff = 8.5
  binsize = 4.25, bins = 16 16 16
  1 neighbor lists, perpetual/occasional/extra = 1 0 0
  (1) pair eam/alloy, perpetual
      attributes: half, newton on
      pair build: half/bin/atomonly/newton
      stencil: half/bin/3d/newton
      bin: standard
Setting up Verlet run ...
  Unit style    : metal
  Current step  : 0
  Time step     : 0.001
Per MPI rank memory allocation (min/avg/max) = 11.15 | 11.15 | 11.15 Mbytes
Step Temp Press TotEng PotEng Enthalpy 
       0          300   -61779.302   -76290.537   -77052.565   -88414.913 
    1000    2087.9475    117882.35   -76291.728   -81595.305    -53156.96 
Loop time of 111.087 on 2 procs for 1000 steps with 19652 atoms

Performance: 0.778 ns/day, 30.858 hours/ns, 9.002 timesteps/s
96.2% CPU use with 2 MPI tasks x no OpenMP threads

MPI task timing breakdown:
Section |  min time  |  avg time  |  max time  |%varavg| %total
---------------------------------------------------------------
Pair    | 62.637     | 63.07      | 63.503     |   5.5 | 56.78
Neigh   | 43.048     | 43.302     | 43.556     |   3.9 | 38.98
Comm    | 3.5276     | 4.2191     | 4.9105     |  33.7 |  3.80
Output  | 0.000108   | 0.00018859 | 0.00026917 |   0.0 |  0.00
Modify  | 0.25107    | 0.25429    | 0.25752    |   0.6 |  0.23
Other   |            | 0.2414     |            |       |  0.22

Nlocal:    9826 ave 9827 max 9825 min
Histogram: 1 0 0 0 0 0 0 0 0 1
Nghost:    13172.5 ave 13182 max 13163 min
Histogram: 1 0 0 0 0 0 0 0 0 1
Neighs:    784642 ave 784988 max 784297 min
Histogram: 1 0 0 0 0 0 0 0 0 1

Total # of neighbors = 1569285
Ave neighs/atom = 79.8537
Neighbor list builds = 1000
Dangerous builds not checked
Setting up Verlet run ...
  Unit style    : metal
  Current step  : 1000
  Time step     : 0.001
Per MPI rank memory allocation (min/avg/max) = 11.15 | 11.15 | 11.15 Mbytes
Step Temp Press TotEng PotEng Enthalpy 
    1000    2087.9475    117882.35   -76291.728   -81595.305    -53156.96 
    2000    340.69505   -186.54999   -86590.632   -87456.028   -86633.219 
Loop time of 99.7764 on 2 procs for 1000 steps with 19652 atoms

Performance: 0.866 ns/day, 27.716 hours/ns, 10.022 timesteps/s
93.1% CPU use with 2 MPI tasks x no OpenMP threads

MPI task timing breakdown:
Section |  min time  |  avg time  |  max time  |%varavg| %total
---------------------------------------------------------------
Pair    | 53.217     | 53.586     | 53.955     |   5.0 | 53.71
Neigh   | 40.874     | 40.993     | 41.112     |   1.9 | 41.08
Comm    | 3.524      | 4.0193     | 4.5146     |  24.7 |  4.03
Output  | 0.00010109 | 0.00015509 | 0.00020909 |   0.0 |  0.00
Modify  | 0.90977    | 0.92042    | 0.93107    |   1.1 |  0.92
Other   |            | 0.2573     |            |       |  0.26

Nlocal:    9826 ave 9838 max 9814 min
Histogram: 1 0 0 0 0 0 0 0 0 1
Nghost:    12392 ave 12422 max 12362 min
Histogram: 1 0 0 0 0 0 0 0 0 1
Neighs:    675251 ave 676272 max 674230 min
Histogram: 1 0 0 0 0 0 0 0 0 1

Total # of neighbors = 1350502
Ave neighs/atom = 68.7208
Neighbor list builds = 1000
Dangerous builds not checked
Setting up Verlet run ...
  Unit style    : metal
  Current step  : 2000
  Time step     : 0.001
Per MPI rank memory allocation (min/avg/max) = 11.15 | 11.15 | 11.15 Mbytes
Step Temp Press TotEng PotEng Enthalpy 
    2000    340.69505   -186.54999   -86590.632   -87456.028   -86633.219 
   10000    2447.3916    -256.7891   -75288.586   -81505.184   -75351.511 
Loop time of 738.664 on 2 procs for 8000 steps with 19652 atoms

Performance: 0.936 ns/day, 25.648 hours/ns, 10.830 timesteps/s
96.8% CPU use with 2 MPI tasks x no OpenMP threads

MPI task timing breakdown:
Section |  min time  |  avg time  |  max time  |%varavg| %total
---------------------------------------------------------------
Pair    | 397.48     | 398.49     | 399.49     |   5.0 | 53.95
Neigh   | 302.27     | 303.05     | 303.84     |   4.5 | 41.03
Comm    | 27.691     | 27.884     | 28.077     |   3.7 |  3.77
Output  | 0.037054   | 0.03708    | 0.037106   |   0.0 |  0.01
Modify  | 7.2027     | 7.2253     | 7.248      |   0.8 |  0.98
Other   |            | 1.978      |            |       |  0.27

Nlocal:    9826 ave 9874 max 9778 min
Histogram: 1 0 0 0 0 0 0 0 0 1
Nghost:    11978 ave 12001 max 11955 min
Histogram: 1 0 0 0 0 0 0 0 0 1
Neighs:    628822 ave 630588 max 627055 min
Histogram: 1 0 0 0 0 0 0 0 0 1

Total # of neighbors = 1257643
Ave neighs/atom = 63.9957
Neighbor list builds = 8000
Dangerous builds not checked
Setting up Verlet run ...
  Unit style    : metal
  Current step  : 10000
  Time step     : 0.001
Per MPI rank memory allocation (min/avg/max) = 11.21 | 11.21 | 11.21 Mbytes
Step Temp Press TotEng PotEng Enthalpy 
   10000    2447.3916    -256.7891   -75288.586   -81505.184   -75351.511 
   20000    2452.8577   -153.08095   -75203.778    -81434.26    -75241.34 
   30000    2471.9009   -326.16351    -75173.41   -81452.263   -75253.403 
   40000    2454.4924    449.08333   -75243.156    -81477.79   -75133.059 
Loop time of 2751.77 on 2 procs for 30000 steps with 19652 atoms

Performance: 0.942 ns/day, 25.479 hours/ns, 10.902 timesteps/s
96.3% CPU use with 2 MPI tasks x no OpenMP threads

MPI task timing breakdown:
Section |  min time  |  avg time  |  max time  |%varavg| %total
---------------------------------------------------------------
Pair    | 1482.6     | 1491.9     | 1501.3     |  24.2 | 54.22
Neigh   | 1119.6     | 1123.7     | 1127.8     |  12.2 | 40.84
Comm    | 87.304     | 100.73     | 114.16     | 133.8 |  3.66
Output  | 0.11049    | 0.1106     | 0.11072    |   0.0 |  0.00
Modify  | 28.347     | 28.352     | 28.357     |   0.1 |  1.03
Other   |            | 6.906      |            |       |  0.25

Nlocal:    9826 ave 9828 max 9824 min
Histogram: 1 0 0 0 0 0 0 0 0 1
Nghost:    12048 ave 12060 max 12036 min
Histogram: 1 0 0 0 0 0 0 0 0 1
Neighs:    628345 ave 633811 max 622879 min
Histogram: 1 0 0 0 0 0 0 0 0 1

Total # of neighbors = 1256690
Ave neighs/atom = 63.9472
Neighbor list builds = 30000
Dangerous builds not checked
Setting up Verlet run ...
  Unit style    : metal
  Current step  : 40000
  Time step     : 0.001
Per MPI rank memory allocation (min/avg/max) = 11.3 | 11.3 | 11.3 Mbytes
Step Temp Press TotEng PotEng Enthalpy 
   40000    2454.4924    449.08333   -75243.156    -81477.79   -75133.059 
   40495    2399.4963    705.72995    -75440.95   -81535.889   -75268.384 
Loop time of 48.3283 on 2 procs for 495 steps with 19652 atoms

Performance: 0.885 ns/day, 27.120 hours/ns, 10.242 timesteps/s
93.4% CPU use with 2 MPI tasks x no OpenMP threads

MPI task timing breakdown:
Section |  min time  |  avg time  |  max time  |%varavg| %total
---------------------------------------------------------------
Pair    | 25.907     | 26.711     | 27.515     |  15.6 | 55.27
Neigh   | 17.083     | 18.351     | 19.62      |  29.6 | 37.97
Comm    | 2.1907     | 2.6818     | 3.1729     |  30.0 |  5.55
Output  | 9.799e-05  | 0.00013244 | 0.00016689 |   0.0 |  0.00
Modify  | 0.43868    | 0.46582    | 0.49297    |   4.0 |  0.96
Other   |            | 0.1183     |            |       |  0.24

Nlocal:    9826 ave 9850 max 9802 min
Histogram: 1 0 0 0 0 0 0 0 0 1
Nghost:    12037 ave 12042 max 12032 min
Histogram: 1 0 0 0 0 0 0 0 0 1
Neighs:    630294 ave 638097 max 622490 min
Histogram: 1 0 0 0 0 0 0 0 0 1

Total # of neighbors = 1260587
Ave neighs/atom = 64.1455
Neighbor list builds = 495
Dangerous builds not checked
Setting up Verlet run ...
  Unit style    : metal
  Current step  : 40495
  Time step     : 0.001
Per MPI rank memory allocation (min/avg/max) = 11.3 | 11.3 | 11.3 Mbytes
Step Temp Press TotEng PotEng Enthalpy 
   40495    2399.4963    705.72995    -75440.95   -81535.889   -75268.384 
   50000    2406.1851   -682.67566   -75420.998   -81532.927   -75588.488 
Loop time of 1272.69 on 2 procs for 9505 steps with 19652 atoms

Performance: 0.645 ns/day, 37.193 hours/ns, 7.468 timesteps/s
77.3% CPU use with 2 MPI tasks x no OpenMP threads

MPI task timing breakdown:
Section |  min time  |  avg time  |  max time  |%varavg| %total
---------------------------------------------------------------
Pair    | 694.06     | 703.37     | 712.67     |  35.1 | 55.27
Neigh   | 457.2      | 460.15     | 463.11     |  13.8 | 36.16
Comm    | 87.017     | 93.257     | 99.497     |  64.6 |  7.33
Output  | 0.038586   | 0.038627   | 0.038668   |   0.0 |  0.00
Modify  | 12.924     | 13.071     | 13.218     |   4.1 |  1.03
Other   |            | 2.802      |            |       |  0.22

Nlocal:    9826 ave 9838 max 9814 min
Histogram: 1 0 0 0 0 0 0 0 0 1
Nghost:    12055.5 ave 12072 max 12039 min
Histogram: 1 0 0 0 0 0 0 0 0 1
Neighs:    628123 ave 635475 max 620771 min
Histogram: 1 0 0 0 0 0 0 0 0 1

Total # of neighbors = 1256246
Ave neighs/atom = 63.9246
Neighbor list builds = 9505
Dangerous builds not checked
Setting up Verlet run ...
  Unit style    : metal
  Current step  : 50000
  Time step     : 0.001
Per MPI rank memory allocation (min/avg/max) = 11.31 | 11.31 | 11.31 Mbytes
Step Temp Press TotEng PotEng Enthalpy 
   50000    2406.1851   -682.67566   -75420.998   -81532.927   -75588.488 
   50495     2347.674    366.40541   -75697.979   -81661.285   -75608.618 
Loop time of 56.891 on 2 procs for 495 steps with 19652 atoms

Performance: 0.752 ns/day, 31.925 hours/ns, 8.701 timesteps/s
83.3% CPU use with 2 MPI tasks x no OpenMP threads

MPI task timing breakdown:
Section |  min time  |  avg time  |  max time  |%varavg| %total
---------------------------------------------------------------
Pair    | 30.908     | 31.243     | 31.578     |   6.0 | 54.92
Neigh   | 17.007     | 19.696     | 22.386     |  60.6 | 34.62
Comm    | 2.285      | 4.6791     | 7.0732     | 110.7 |  8.22
Output  | 9.6083e-05 | 0.00012255 | 0.00014901 |   0.0 |  0.00
Modify  | 1.1174     | 1.139      | 1.1605     |   2.0 |  2.00
Other   |            | 0.133      |            |       |  0.23

Nlocal:    9826 ave 9831 max 9821 min
Histogram: 1 0 0 0 0 0 0 0 0 1
Nghost:    12034 ave 12048 max 12020 min
Histogram: 1 0 0 0 0 0 0 0 0 1
Neighs:    631700 ave 638296 max 625104 min
Histogram: 1 0 0 0 0 0 0 0 0 1

Total # of neighbors = 1263400
Ave neighs/atom = 64.2886
Neighbor list builds = 495
Dangerous builds not checked
Setting up Verlet run ...
  Unit style    : metal
  Current step  : 50495
  Time step     : 0.001
Per MPI rank memory allocation (min/avg/max) = 11.31 | 11.31 | 11.31 Mbytes
Step Temp Press TotEng PotEng Enthalpy 
   50495     2347.674    366.40541   -75697.979   -81661.285   -75608.618 
   60000    2339.9387     2.391178    -75727.22   -81670.877   -75726.637 
Loop time of 1165.84 on 2 procs for 9505 steps with 19652 atoms

Performance: 0.704 ns/day, 34.071 hours/ns, 8.153 timesteps/s
81.6% CPU use with 2 MPI tasks x no OpenMP threads

MPI task timing breakdown:
Section |  min time  |  avg time  |  max time  |%varavg| %total
---------------------------------------------------------------
Pair    | 639.73     | 647.62     | 655.5      |  31.0 | 55.55
Neigh   | 418.97     | 424.36     | 429.75     |  26.2 | 36.40
Comm    | 76.578     | 79.031     | 81.483     |  27.6 |  6.78
Output  | 0.055488   | 0.055509   | 0.055531   |   0.0 |  0.00
Modify  | 11.968     | 12.038     | 12.108     |   2.0 |  1.03
Other   |            | 2.735      |            |       |  0.23

Nlocal:    9826 ave 9833 max 9819 min
Histogram: 1 0 0 0 0 0 0 0 0 1
Nghost:    12058 ave 12071 max 12045 min
Histogram: 1 0 0 0 0 0 0 0 0 1
Neighs:    631608 ave 637979 max 625237 min
Histogram: 1 0 0 0 0 0 0 0 0 1

Total # of neighbors = 1263216
Ave neighs/atom = 64.2793
Neighbor list builds = 9505
Dangerous builds not checked
Setting up Verlet run ...
  Unit style    : metal
  Current step  : 60000
  Time step     : 0.001
Per MPI rank memory allocation (min/avg/max) = 11.32 | 11.32 | 11.32 Mbytes
Step Temp Press TotEng PotEng Enthalpy 
   60000    2339.9387     2.391178    -75727.22   -81670.877   -75726.637 
   60495    2309.5325   -317.92065    -75879.71   -81746.133   -75957.216 
Loop time of 48.0992 on 2 procs for 495 steps with 19652 atoms

Performance: 0.889 ns/day, 26.992 hours/ns, 10.291 timesteps/s
92.3% CPU use with 2 MPI tasks x no OpenMP threads

MPI task timing breakdown:
Section |  min time  |  avg time  |  max time  |%varavg| %total
---------------------------------------------------------------
Pair    | 25.489     | 26.401     | 27.312     |  17.7 | 54.89
Neigh   | 15.571     | 17.859     | 20.148     |  54.2 | 37.13
Comm    | 1.8358     | 3.2532     | 4.6705     |  78.6 |  6.76
Output  | 0.00012589 | 0.00013292 | 0.00013995 |   0.0 |  0.00
Modify  | 0.43388    | 0.46472    | 0.49557    |   4.5 |  0.97
Other   |            | 0.1214     |            |       |  0.25

Nlocal:    9826 ave 9831 max 9821 min
Histogram: 1 0 0 0 0 0 0 0 0 1
Nghost:    12034 ave 12045 max 12023 min
Histogram: 1 0 0 0 0 0 0 0 0 1
Neighs:    632063 ave 637858 max 626268 min
Histogram: 1 0 0 0 0 0 0 0 0 1

Total # of neighbors = 1264126
Ave neighs/atom = 64.3256
Neighbor list builds = 495
Dangerous builds not checked
Setting up Verlet run ...
  Unit style    : metal
  Current step  : 60495
  Time step     : 0.001
Per MPI rank memory allocation (min/avg/max) = 11.32 | 11.32 | 11.32 Mbytes
Step Temp Press TotEng PotEng Enthalpy 
   60495    2309.5325   -317.92065    -75879.71   -81746.133   -75957.216 
   70000    2317.5347   -622.68929   -75838.259   -81725.009   -75990.351 
Loop time of 1130.41 on 2 procs for 9505 steps with 19652 atoms

Performance: 0.726 ns/day, 33.036 hours/ns, 8.408 timesteps/s
84.1% CPU use with 2 MPI tasks x no OpenMP threads

MPI task timing breakdown:
Section |  min time  |  avg time  |  max time  |%varavg| %total
---------------------------------------------------------------
Pair    | 613.08     | 622.36     | 631.63     |  37.2 | 55.06
Neigh   | 395.27     | 408.52     | 421.78     |  65.6 | 36.14
Comm    | 80.963     | 85.105     | 89.247     |  44.9 |  7.53
Output  | 0.040471   | 0.040516   | 0.040561   |   0.0 |  0.00
Modify  | 11.816     | 11.871     | 11.926     |   1.6 |  1.05
Other   |            | 2.516      |            |       |  0.22

Nlocal:    9826 ave 9849 max 9803 min
Histogram: 1 0 0 0 0 0 0 0 0 1
Nghost:    12054 ave 12061 max 12047 min
Histogram: 1 0 0 0 0 0 0 0 0 1
Neighs:    630772 ave 639323 max 622220 min
Histogram: 1 0 0 0 0 0 0 0 0 1

Total # of neighbors = 1261543
Ave neighs/atom = 64.1941
Neighbor list builds = 9505
Dangerous builds not checked
Setting up Verlet run ...
  Unit style    : metal
  Current step  : 70000
  Time step     : 0.001
Per MPI rank memory allocation (min/avg/max) = 11.33 | 11.33 | 11.33 Mbytes
Step Temp Press TotEng PotEng Enthalpy 
   70000    2317.5347   -622.68929   -75838.259   -81725.009   -75990.351 
   70495    2247.9154     45.54644   -76108.416   -81818.326    -76097.36 
Loop time of 64.9056 on 2 procs for 495 steps with 19652 atoms

Performance: 0.659 ns/day, 36.423 hours/ns, 7.626 timesteps/s
77.6% CPU use with 2 MPI tasks x no OpenMP threads

MPI task timing breakdown:
Section |  min time  |  avg time  |  max time  |%varavg| %total
---------------------------------------------------------------
Pair    | 35.793     | 36.297     | 36.801     |   8.4 | 55.92
Neigh   | 21.591     | 22.894     | 24.196     |  27.2 | 35.27
Comm    | 4.0603     | 4.926      | 5.7917     |  39.0 |  7.59
Output  | 0.00010395 | 0.00013149 | 0.00015903 |   0.0 |  0.00
Modify  | 0.58984    | 0.63174    | 0.67364    |   5.3 |  0.97
Other   |            | 0.1572     |            |       |  0.24

Nlocal:    9826 ave 9848 max 9804 min
Histogram: 1 0 0 0 0 0 0 0 0 1
Nghost:    12034.5 ave 12043 max 12026 min
Histogram: 1 0 0 0 0 0 0 0 0 1
Neighs:    634742 ave 638190 max 631294 min
Histogram: 1 0 0 0 0 0 0 0 0 1

Total # of neighbors = 1269484
Ave neighs/atom = 64.5982
Neighbor list builds = 495
Dangerous builds not checked
Setting up Verlet run ...
  Unit style    : metal
  Current step  : 70495
  Time step     : 0.001
Per MPI rank memory allocation (min/avg/max) = 11.33 | 11.33 | 11.33 Mbytes
Step Temp Press TotEng PotEng Enthalpy 
   70495    2247.9154     45.54644   -76108.416   -81818.326    -76097.36 
   80000    2238.2696   -1146.8414   -76145.019   -81830.427   -76424.539 
Loop time of 1217.83 on 2 procs for 9505 steps with 19652 atoms

Performance: 0.674 ns/day, 35.590 hours/ns, 7.805 timesteps/s
81.4% CPU use with 2 MPI tasks x no OpenMP threads

MPI task timing breakdown:
Section |  min time  |  avg time  |  max time  |%varavg| %total
---------------------------------------------------------------
Pair    | 671.67     | 678.31     | 684.96     |  25.5 | 55.70
Neigh   | 433.52     | 437.58     | 441.64     |  19.4 | 35.93
Comm    | 84.352     | 86.802     | 89.251     |  26.3 |  7.13
Output  | 0.037813   | 0.03784    | 0.037868   |   0.0 |  0.00
Modify  | 12.268     | 12.362     | 12.456     |   2.7 |  1.02
Other   |            | 2.735      |            |       |  0.22

Nlocal:    9826 ave 9870 max 9782 min
Histogram: 1 0 0 0 0 0 0 0 0 1
Nghost:    12031.5 ave 12052 max 12011 min
Histogram: 1 0 0 0 0 0 0 0 0 1
Neighs:    632250 ave 642406 max 622095 min
Histogram: 1 0 0 0 0 0 0 0 0 1

Total # of neighbors = 1264501
Ave neighs/atom = 64.3446
Neighbor list builds = 9505
Dangerous builds not checked
Setting up Verlet run ...
  Unit style    : metal
  Current step  : 80000
  Time step     : 0.001
Per MPI rank memory allocation (min/avg/max) = 11.33 | 11.33 | 11.33 Mbytes
Step Temp Press TotEng PotEng Enthalpy 
   80000    2238.2696   -1146.8414   -76145.019   -81830.427   -76424.539 
   80495    2208.3921    121.49509   -76311.549   -81921.066   -76282.088 
Loop time of 55.578 on 2 procs for 495 steps with 19652 atoms

Performance: 0.770 ns/day, 31.189 hours/ns, 8.906 timesteps/s
85.5% CPU use with 2 MPI tasks x no OpenMP threads

MPI task timing breakdown:
Section |  min time  |  avg time  |  max time  |%varavg| %total
---------------------------------------------------------------
Pair    | 30.416     | 30.647     | 30.878     |   4.2 | 55.14
Neigh   | 18.438     | 20.236     | 22.034     |  40.0 | 36.41
Comm    | 2.362      | 3.9736     | 5.5853     |  80.9 |  7.15
Output  | 0.00012898 | 0.00013995 | 0.00015092 |   0.0 |  0.00
Modify  | 0.54927    | 0.58136    | 0.61346    |   4.2 |  1.05
Other   |            | 0.1394     |            |       |  0.25

Nlocal:    9826 ave 9852 max 9800 min
Histogram: 1 0 0 0 0 0 0 0 0 1
Nghost:    12077 ave 12091 max 12063 min
Histogram: 1 0 0 0 0 0 0 0 0 1
Neighs:    635060 ave 643452 max 626669 min
Histogram: 1 0 0 0 0 0 0 0 0 1

Total # of neighbors = 1270121
Ave neighs/atom = 64.6306
Neighbor list builds = 495
Dangerous builds not checked
Setting up Verlet run ...
  Unit style    : metal
  Current step  : 80495
  Time step     : 0.001
Per MPI rank memory allocation (min/avg/max) = 11.33 | 11.33 | 11.33 Mbytes
Step Temp Press TotEng PotEng Enthalpy 
   80495    2208.3921    121.49509   -76311.549   -81921.066   -76282.088 
   90000    2208.1682   -1669.7011   -76284.634   -81893.583   -76690.797 
Loop time of 957.206 on 2 procs for 9505 steps with 19652 atoms

Performance: 0.858 ns/day, 27.974 hours/ns, 9.930 timesteps/s
91.6% CPU use with 2 MPI tasks x no OpenMP threads

MPI task timing breakdown:
Section |  min time  |  avg time  |  max time  |%varavg| %total
---------------------------------------------------------------
Pair    | 512.24     | 517.17     | 522.11     |  21.7 | 54.03
Neigh   | 367.01     | 368.77     | 370.52     |   9.2 | 38.53
Comm    | 54.658     | 57.813     | 60.967     |  41.5 |  6.04
Output  | 0.035914   | 0.035953   | 0.035992   |   0.0 |  0.00
Modify  | 11.156     | 11.186     | 11.217     |   0.9 |  1.17
Other   |            | 2.232      |            |       |  0.23

Nlocal:    9826 ave 9828 max 9824 min
Histogram: 1 0 0 0 0 0 0 0 0 1
Nghost:    12073 ave 12083 max 12063 min
Histogram: 1 0 0 0 0 0 0 0 0 1
Neighs:    633362 ave 639142 max 627583 min
Histogram: 1 0 0 0 0 0 0 0 0 1

Total # of neighbors = 1266725
Ave neighs/atom = 64.4578
Neighbor list builds = 9505
Dangerous builds not checked
Setting up Verlet run ...
  Unit style    : metal
  Current step  : 90000
  Time step     : 0.001
Per MPI rank memory allocation (min/avg/max) = 11.33 | 11.33 | 11.33 Mbytes
Step Temp Press TotEng PotEng Enthalpy 
   90000    2208.1682   -1669.7011   -76284.634   -81893.583   -76690.797 
   90495    2149.1196   -329.50934   -76505.731   -81964.691   -76585.582 
Loop time of 50.2105 on 2 procs for 495 steps with 19652 atoms

Performance: 0.852 ns/day, 28.176 hours/ns, 9.858 timesteps/s
88.7% CPU use with 2 MPI tasks x no OpenMP threads

MPI task timing breakdown:
Section |  min time  |  avg time  |  max time  |%varavg| %total
---------------------------------------------------------------
Pair    | 27.312     | 27.569     | 27.827     |   4.9 | 54.91
Neigh   | 18.157     | 18.873     | 19.589     |  16.5 | 37.59
Comm    | 2.7126     | 3.1851     | 3.6575     |  26.5 |  6.34
Output  | 0.00015306 | 0.00019753 | 0.00024199 |   0.0 |  0.00
Modify  | 0.45717    | 0.45813    | 0.45908    |   0.1 |  0.91
Other   |            | 0.125      |            |       |  0.25

Nlocal:    9826 ave 9845 max 9807 min
Histogram: 1 0 0 0 0 0 0 0 0 1
Nghost:    12035 ave 12054 max 12016 min
Histogram: 1 0 0 0 0 0 0 0 0 1
Neighs:    635700 ave 640242 max 631159 min
Histogram: 1 0 0 0 0 0 0 0 0 1

Total # of neighbors = 1271401
Ave neighs/atom = 64.6958
Neighbor list builds = 495
Dangerous builds not checked
Setting up Verlet run ...
  Unit style    : metal
  Current step  : 90495
  Time step     : 0.001
Per MPI rank memory allocation (min/avg/max) = 11.33 | 11.33 | 11.33 Mbytes
Step Temp Press TotEng PotEng Enthalpy 
   90495    2149.1196   -329.50934   -76505.731   -81964.691   -76585.582 
  100000    2141.2937   -128.32109   -76613.231   -82052.312   -76644.294 
Loop time of 937.642 on 2 procs for 9505 steps with 19652 atoms

Performance: 0.876 ns/day, 27.402 hours/ns, 10.137 timesteps/s
94.1% CPU use with 2 MPI tasks x no OpenMP threads

MPI task timing breakdown:
Section |  min time  |  avg time  |  max time  |%varavg| %total
---------------------------------------------------------------
Pair    | 509.97     | 511.13     | 512.29     |   5.1 | 54.51
Neigh   | 367.88     | 370.73     | 373.59     |  14.8 | 39.54
Comm    | 40.018     | 44.102     | 48.187     |  61.5 |  4.70
Output  | 0.040714   | 0.040756   | 0.040798   |   0.0 |  0.00
Modify  | 9.245      | 9.3496     | 9.4542     |   3.4 |  1.00
Other   |            | 2.282      |            |       |  0.24

Nlocal:    9826 ave 9849 max 9803 min
Histogram: 1 0 0 0 0 0 0 0 0 1
Nghost:    12090 ave 12151 max 12029 min
Histogram: 1 0 0 0 0 0 0 0 0 1
Neighs:    636351 ave 640487 max 632215 min
Histogram: 1 0 0 0 0 0 0 0 0 1

Total # of neighbors = 1272702
Ave neighs/atom = 64.762
Neighbor list builds = 9505
Dangerous builds not checked
Setting up Verlet run ...
  Unit style    : metal
  Current step  : 100000
  Time step     : 0.001
Per MPI rank memory allocation (min/avg/max) = 11.33 | 11.34 | 11.34 Mbytes
Step Temp Press TotEng PotEng Enthalpy 
  100000    2141.2937   -128.32109   -76613.231   -82052.312   -76644.294 
  100495    2108.5453     57.87927    -76761.77   -82117.667   -76747.781 
Loop time of 59.834 on 2 procs for 495 steps with 19652 atoms

Performance: 0.715 ns/day, 33.577 hours/ns, 8.273 timesteps/s
83.0% CPU use with 2 MPI tasks x no OpenMP threads

MPI task timing breakdown:
Section |  min time  |  avg time  |  max time  |%varavg| %total
---------------------------------------------------------------
Pair    | 32.866     | 33.41      | 33.953     |   9.4 | 55.84
Neigh   | 20.65      | 21.809     | 22.968     |  24.8 | 36.45
Comm    | 3.245      | 3.8804     | 4.5159     |  32.3 |  6.49
Output  | 9.0122e-05 | 0.00014055 | 0.00019097 |   0.0 |  0.00
Modify  | 0.5841     | 0.60388    | 0.62367    |   2.5 |  1.01
Other   |            | 0.1312     |            |       |  0.22

Nlocal:    9826 ave 9844 max 9808 min
Histogram: 1 0 0 0 0 0 0 0 0 1
Nghost:    12070 ave 12076 max 12064 min
Histogram: 1 0 0 0 0 0 0 0 0 1
Neighs:    637622 ave 645259 max 629984 min
Histogram: 1 0 0 0 0 0 0 0 0 1

Total # of neighbors = 1275243
Ave neighs/atom = 64.8913
Neighbor list builds = 495
Dangerous builds not checked
Setting up Verlet run ...
  Unit style    : metal
  Current step  : 100495
  Time step     : 0.001
Per MPI rank memory allocation (min/avg/max) = 11.33 | 11.34 | 11.34 Mbytes
Step Temp Press TotEng PotEng Enthalpy 
  100495    2108.5453     57.87927    -76761.77   -82117.667   -76747.781 
  110000    2096.9473    1521.0263   -76778.953    -82105.39   -76412.614 
Loop time of 1029.78 on 2 procs for 9505 steps with 19652 atoms

Performance: 0.797 ns/day, 30.095 hours/ns, 9.230 timesteps/s
91.4% CPU use with 2 MPI tasks x no OpenMP threads

MPI task timing breakdown:
Section |  min time  |  avg time  |  max time  |%varavg| %total
---------------------------------------------------------------
Pair    | 565.7      | 569.61     | 573.51     |  16.4 | 55.31
Neigh   | 388.79     | 389.47     | 390.14     |   3.4 | 37.82
Comm    | 52.439     | 57.246     | 62.052     |  63.5 |  5.56
Output  | 0.037102   | 0.037144   | 0.037185   |   0.0 |  0.00
Modify  | 10.775     | 11.002     | 11.229     |   6.8 |  1.07
Other   |            | 2.421      |            |       |  0.24

Nlocal:    9826 ave 9828 max 9824 min
Histogram: 1 0 0 0 0 0 0 0 0 1
Nghost:    12107 ave 12114 max 12100 min
Histogram: 1 0 0 0 0 0 0 0 0 1
Neighs:    639639 ave 646452 max 632826 min
Histogram: 1 0 0 0 0 0 0 0 0 1

Total # of neighbors = 1279278
Ave neighs/atom = 65.0966
Neighbor list builds = 9505
Dangerous builds not checked
Setting up Verlet run ...
  Unit style    : metal
  Current step  : 110000
  Time step     : 0.001
Per MPI rank memory allocation (min/avg/max) = 11.34 | 11.34 | 11.34 Mbytes
Step Temp Press TotEng PotEng Enthalpy 
  110000    2096.9473    1521.0263   -76778.953    -82105.39   -76412.614 
  110495    2067.2589   -268.32568   -76956.825   -82207.851   -77021.644 
Loop time of 51.6016 on 2 procs for 495 steps with 19652 atoms

Performance: 0.829 ns/day, 28.957 hours/ns, 9.593 timesteps/s
94.3% CPU use with 2 MPI tasks x no OpenMP threads

MPI task timing breakdown:
Section |  min time  |  avg time  |  max time  |%varavg| %total
---------------------------------------------------------------
Pair    | 27.513     | 27.766     | 28.019     |   4.8 | 53.81
Neigh   | 18.174     | 18.974     | 19.774     |  18.4 | 36.77
Comm    | 3.5619     | 4.1364     | 4.7109     |  28.2 |  8.02
Output  | 0.00010395 | 0.00014544 | 0.00018692 |   0.0 |  0.00
Modify  | 0.57857    | 0.59744    | 0.6163     |   2.4 |  1.16
Other   |            | 0.1274     |            |       |  0.25

Nlocal:    9826 ave 9849 max 9803 min
Histogram: 1 0 0 0 0 0 0 0 0 1
Nghost:    12063 ave 12073 max 12053 min
Histogram: 1 0 0 0 0 0 0 0 0 1
Neighs:    637919 ave 641336 max 634502 min
Histogram: 1 0 0 0 0 0 0 0 0 1

Total # of neighbors = 1275838
Ave neighs/atom = 64.9215
Neighbor list builds = 495
Dangerous builds not checked
Setting up Verlet run ...
  Unit style    : metal
  Current step  : 110495
  Time step     : 0.001
Per MPI rank memory allocation (min/avg/max) = 11.34 | 11.34 | 11.34 Mbytes
Step Temp Press TotEng PotEng Enthalpy 
  110495    2067.2589   -268.32568   -76956.825   -82207.851   -77021.644 
  120000    2025.1707   -884.83386   -77076.505   -82220.623   -77290.272 
Loop time of 962.702 on 2 procs for 9505 steps with 19652 atoms

Performance: 0.853 ns/day, 28.134 hours/ns, 9.873 timesteps/s
95.9% CPU use with 2 MPI tasks x no OpenMP threads

MPI task timing breakdown:
Section |  min time  |  avg time  |  max time  |%varavg| %total
---------------------------------------------------------------
Pair    | 527.33     | 533.39     | 539.45     |  26.2 | 55.41
Neigh   | 369.67     | 371.81     | 373.95     |  11.1 | 38.62
Comm    | 37.913     | 46.067     | 54.221     | 120.1 |  4.79
Output  | 0.036686   | 0.036724   | 0.036763   |   0.0 |  0.00
Modify  | 9.0194     | 9.0511     | 9.0828     |   1.1 |  0.94
Other   |            | 2.35       |            |       |  0.24

Nlocal:    9826 ave 9840 max 9812 min
Histogram: 1 0 0 0 0 0 0 0 0 1
Nghost:    12117.5 ave 12118 max 12117 min
Histogram: 1 0 0 0 0 0 0 0 0 1
Neighs:    637698 ave 641229 max 634168 min
Histogram: 1 0 0 0 0 0 0 0 0 1

Total # of neighbors = 1275397
Ave neighs/atom = 64.8991
Neighbor list builds = 9505
Dangerous builds not checked
Setting up Verlet run ...
  Unit style    : metal
  Current step  : 120000
  Time step     : 0.001
Per MPI rank memory allocation (min/avg/max) = 11.34 | 11.34 | 11.34 Mbytes
Step Temp Press TotEng PotEng Enthalpy 
  120000    2025.1707   -884.83386   -77076.505   -82220.623   -77290.272 
  120495    2018.6145   -490.85113   -77162.298   -82289.762   -77280.618 
Loop time of 48.2009 on 2 procs for 495 steps with 19652 atoms

Performance: 0.887 ns/day, 27.049 hours/ns, 10.270 timesteps/s
94.6% CPU use with 2 MPI tasks x no OpenMP threads

MPI task timing breakdown:
Section |  min time  |  avg time  |  max time  |%varavg| %total
---------------------------------------------------------------
Pair    | 26.008     | 26.554     | 27.099     |  10.6 | 55.09
Neigh   | 18.56      | 18.82      | 19.08      |   6.0 | 39.05
Comm    | 1.9003     | 2.1906     | 2.4809     |  19.6 |  4.54
Output  | 0.00010514 | 0.00022411 | 0.00034308 |   0.0 |  0.00
Modify  | 0.51509    | 0.51525    | 0.5154     |   0.0 |  1.07
Other   |            | 0.1208     |            |       |  0.25

Nlocal:    9826 ave 9844 max 9808 min
Histogram: 1 0 0 0 0 0 0 0 0 1
Nghost:    12130 ave 12131 max 12129 min
Histogram: 1 0 0 0 0 0 0 0 0 1
Neighs:    639280 ave 643739 max 634822 min
Histogram: 1 0 0 0 0 0 0 0 0 1

Total # of neighbors = 1278561
Ave neighs/atom = 65.0601
Neighbor list builds = 495
Dangerous builds not checked
Setting up Verlet run ...
  Unit style    : metal
  Current step  : 120495
  Time step     : 0.001
Per MPI rank memory allocation (min/avg/max) = 11.34 | 11.34 | 11.34 Mbytes
Step Temp Press TotEng PotEng Enthalpy 
  120495    2018.6145   -490.85113   -77162.298   -82289.762   -77280.618 
  130000    2019.7696   -98.237561   -77230.042   -82360.441   -77253.705 
Loop time of 970.221 on 2 procs for 9505 steps with 19652 atoms

Performance: 0.846 ns/day, 28.354 hours/ns, 9.797 timesteps/s
96.3% CPU use with 2 MPI tasks x no OpenMP threads

MPI task timing breakdown:
Section |  min time  |  avg time  |  max time  |%varavg| %total
---------------------------------------------------------------
Pair    | 534.34     | 538.87     | 543.41     |  19.5 | 55.54
Neigh   | 370.82     | 373.61     | 376.41     |  14.5 | 38.51
Comm    | 36.058     | 43.928     | 51.799     | 118.8 |  4.53
Output  | 0.24834    | 0.24839    | 0.24844    |   0.0 |  0.03
Modify  | 10.649     | 11.171     | 11.692     |  15.6 |  1.15
Other   |            | 2.388      |            |       |  0.25

Nlocal:    9826 ave 9840 max 9812 min
Histogram: 1 0 0 0 0 0 0 0 0 1
Nghost:    12088 ave 12142 max 12034 min
Histogram: 1 0 0 0 0 0 0 0 0 1
Neighs:    639652 ave 644126 max 635179 min
Histogram: 1 0 0 0 0 0 0 0 0 1

Total # of neighbors = 1279305
Ave neighs/atom = 65.098
Neighbor list builds = 9505
Dangerous builds not checked
Setting up Verlet run ...
  Unit style    : metal
  Current step  : 130000
  Time step     : 0.001
Per MPI rank memory allocation (min/avg/max) = 11.34 | 11.34 | 11.34 Mbytes
Step Temp Press TotEng PotEng Enthalpy 
  130000    2019.7696   -98.237561   -77230.042   -82360.441   -77253.705 
  130495    1952.6168    307.70167   -77421.149   -82380.974   -77347.221 
Loop time of 50.01 on 2 procs for 495 steps with 19652 atoms

Performance: 0.855 ns/day, 28.064 hours/ns, 9.898 timesteps/s
94.8% CPU use with 2 MPI tasks x no OpenMP threads

MPI task timing breakdown:
Section |  min time  |  avg time  |  max time  |%varavg| %total
---------------------------------------------------------------
Pair    | 27.868     | 27.904     | 27.941     |   0.7 | 55.80
Neigh   | 18.504     | 18.548     | 18.592     |   1.0 | 37.09
Comm    | 2.9622     | 2.9685     | 2.9748     |   0.4 |  5.94
Output  | 0.00011611 | 0.00016403 | 0.00021195 |   0.0 |  0.00
Modify  | 0.4623     | 0.46368    | 0.46506    |   0.2 |  0.93
Other   |            | 0.1253     |            |       |  0.25

Nlocal:    9826 ave 9833 max 9819 min
Histogram: 1 0 0 0 0 0 0 0 0 1
Nghost:    12099.5 ave 12100 max 12099 min
Histogram: 1 0 0 0 0 0 0 0 0 1
Neighs:    641381 ave 647952 max 634810 min
Histogram: 1 0 0 0 0 0 0 0 0 1

Total # of neighbors = 1282762
Ave neighs/atom = 65.2739
Neighbor list builds = 495
Dangerous builds not checked
Setting up Verlet run ...
  Unit style    : metal
  Current step  : 130495
  Time step     : 0.001
Per MPI rank memory allocation (min/avg/max) = 11.34 | 11.34 | 11.34 Mbytes
Step Temp Press TotEng PotEng Enthalpy 
  130495    1952.6168    307.70167   -77421.149   -82380.974   -77347.221 
  140000    1942.0655   -310.71973    -77476.64   -82409.663   -77551.326 
Loop time of 977.155 on 2 procs for 9505 steps with 19652 atoms

Performance: 0.840 ns/day, 28.557 hours/ns, 9.727 timesteps/s
94.8% CPU use with 2 MPI tasks x no OpenMP threads

MPI task timing breakdown:
Section |  min time  |  avg time  |  max time  |%varavg| %total
---------------------------------------------------------------
Pair    | 535.51     | 539.43     | 543.34     |  16.8 | 55.20
Neigh   | 371.61     | 374.68     | 377.76     |  15.9 | 38.34
Comm    | 43.213     | 50.275     | 57.337     |  99.6 |  5.15
Output  | 0.037075   | 0.037108   | 0.037141   |   0.0 |  0.00
Modify  | 10.298     | 10.364     | 10.431     |   2.1 |  1.06
Other   |            | 2.372      |            |       |  0.24

Nlocal:    9826 ave 9836 max 9816 min
Histogram: 1 0 0 0 0 0 0 0 0 1
Nghost:    12155.5 ave 12197 max 12114 min
Histogram: 1 0 0 0 0 0 0 0 0 1
Neighs:    641220 ave 646400 max 636041 min
Histogram: 1 0 0 0 0 0 0 0 0 1

Total # of neighbors = 1282441
Ave neighs/atom = 65.2575
Neighbor list builds = 9505
Dangerous builds not checked
Setting up Verlet run ...
  Unit style    : metal
  Current step  : 140000
  Time step     : 0.001
Per MPI rank memory allocation (min/avg/max) = 11.34 | 11.34 | 11.34 Mbytes
Step Temp Press TotEng PotEng Enthalpy 
  140000    1942.0655   -310.71973    -77476.64   -82409.663   -77551.326 
  140495     1902.916   -108.80585   -77678.353   -82511.933   -77704.447 
Loop time of 43.5051 on 2 procs for 495 steps with 19652 atoms

Performance: 0.983 ns/day, 24.414 hours/ns, 11.378 timesteps/s
99.3% CPU use with 2 MPI tasks x no OpenMP threads

MPI task timing breakdown:
Section |  min time  |  avg time  |  max time  |%varavg| %total
---------------------------------------------------------------
Pair    | 23.676     | 23.787     | 23.899     |   2.3 | 54.68
Neigh   | 17.653     | 17.668     | 17.683     |   0.4 | 40.61
Comm    | 1.3739     | 1.498      | 1.6221     |  10.1 |  3.44
Output  | 9.6083e-05 | 0.00015759 | 0.00021911 |   0.0 |  0.00
Modify  | 0.43121    | 0.43291    | 0.4346     |   0.3 |  1.00
Other   |            | 0.1186     |            |       |  0.27

Nlocal:    9826 ave 9840 max 9812 min
Histogram: 1 0 0 0 0 0 0 0 0 1
Nghost:    12095 ave 12099 max 12091 min
Histogram: 1 0 0 0 0 0 0 0 0 1
Neighs:    642478 ave 650533 max 634423 min
Histogram: 1 0 0 0 0 0 0 0 0 1

Total # of neighbors = 1284956
Ave neighs/atom = 65.3855
Neighbor list builds = 495
Dangerous builds not checked
Setting up Verlet run ...
  Unit style    : metal
  Current step  : 140495
  Time step     : 0.001
Per MPI rank memory allocation (min/avg/max) = 11.34 | 11.34 | 11.34 Mbytes
Step Temp Press TotEng PotEng Enthalpy 
  140495     1902.916   -108.80585   -77678.353   -82511.933   -77704.447 
  150000    1893.3285    817.46864   -77702.417   -82511.644   -77506.565 
Loop time of 949.795 on 2 procs for 9505 steps with 19652 atoms

Performance: 0.865 ns/day, 27.757 hours/ns, 10.007 timesteps/s
97.5% CPU use with 2 MPI tasks x no OpenMP threads

MPI task timing breakdown:
Section |  min time  |  avg time  |  max time  |%varavg| %total
---------------------------------------------------------------
Pair    | 519.33     | 528.05     | 536.77     |  38.0 | 55.60
Neigh   | 356.31     | 363.27     | 370.23     |  36.5 | 38.25
Comm    | 43.925     | 45.548     | 47.171     |  24.0 |  4.80
Output  | 0.036886   | 0.036926   | 0.036966   |   0.0 |  0.00
Modify  | 10.47      | 10.551     | 10.632     |   2.5 |  1.11
Other   |            | 2.339      |            |       |  0.25

Nlocal:    9826 ave 9826 max 9826 min
Histogram: 2 0 0 0 0 0 0 0 0 0
Nghost:    12117.5 ave 12133 max 12102 min
Histogram: 1 0 0 0 0 0 0 0 0 1
Neighs:    643457 ave 650144 max 636770 min
Histogram: 1 0 0 0 0 0 0 0 0 1

Total # of neighbors = 1286914
Ave neighs/atom = 65.4851
Neighbor list builds = 9505
Dangerous builds not checked
Setting up Verlet run ...
  Unit style    : metal
  Current step  : 150000
  Time step     : 0.001
Per MPI rank memory allocation (min/avg/max) = 11.34 | 11.34 | 11.34 Mbytes
Step Temp Press TotEng PotEng Enthalpy 
  150000    1893.3285    817.46864   -77702.417   -82511.644   -77506.565 
  150495    1860.4342    499.25008   -77868.557   -82594.229   -77749.265 
Loop time of 46.0514 on 2 procs for 495 steps with 19652 atoms

Performance: 0.929 ns/day, 25.843 hours/ns, 10.749 timesteps/s
99.4% CPU use with 2 MPI tasks x no OpenMP threads

MPI task timing breakdown:
Section |  min time  |  avg time  |  max time  |%varavg| %total
---------------------------------------------------------------
Pair    | 25.476     | 25.657     | 25.838     |   3.6 | 55.71
Neigh   | 17.06      | 17.953     | 18.845     |  21.1 | 38.98
Comm    | 1.1594     | 1.8842     | 2.6091     |  52.8 |  4.09
Output  | 0.00018811 | 0.00020456 | 0.00022101 |   0.0 |  0.00
Modify  | 0.43068    | 0.4387     | 0.44673    |   1.2 |  0.95
Other   |            | 0.1188     |            |       |  0.26

Nlocal:    9826 ave 9837 max 9815 min
Histogram: 1 0 0 0 0 0 0 0 0 1
Nghost:    12146.5 ave 12151 max 12142 min
Histogram: 1 0 0 0 0 0 0 0 0 1
Neighs:    644913 ave 649775 max 640051 min
Histogram: 1 0 0 0 0 0 0 0 0 1

Total # of neighbors = 1289826
Ave neighs/atom = 65.6333
Neighbor list builds = 495
Dangerous builds not checked
Setting up Verlet run ...
  Unit style    : metal
  Current step  : 150495
  Time step     : 0.001
Per MPI rank memory allocation (min/avg/max) = 11.34 | 11.34 | 11.34 Mbytes
Step Temp Press TotEng PotEng Enthalpy 
  150495    1860.4342    499.25008   -77868.557   -82594.229   -77749.265 
  160000    1831.2456   -12.555663   -77986.943   -82638.473   -77989.945 
Loop time of 939.512 on 2 procs for 9505 steps with 19652 atoms

Performance: 0.874 ns/day, 27.457 hours/ns, 10.117 timesteps/s
97.4% CPU use with 2 MPI tasks x no OpenMP threads

MPI task timing breakdown:
Section |  min time  |  avg time  |  max time  |%varavg| %total
---------------------------------------------------------------
Pair    | 510.95     | 515.81     | 520.67     |  21.4 | 54.90
Neigh   | 344.27     | 356.06     | 367.85     |  62.5 | 37.90
Comm    | 47.879     | 55.001     | 62.122     |  96.0 |  5.85
Output  | 0.34339    | 0.34343    | 0.34347    |   0.0 |  0.04
Modify  | 9.9485     | 10.011     | 10.073     |   2.0 |  1.07
Other   |            | 2.288      |            |       |  0.24

Nlocal:    9826 ave 9826 max 9826 min
Histogram: 2 0 0 0 0 0 0 0 0 0
Nghost:    12165 ave 12187 max 12143 min
Histogram: 1 0 0 0 0 0 0 0 0 1
Neighs:    644500 ave 652395 max 636606 min
Histogram: 1 0 0 0 0 0 0 0 0 1

Total # of neighbors = 1289001
Ave neighs/atom = 65.5913
Neighbor list builds = 9505
Dangerous builds not checked
Setting up Verlet run ...
  Unit style    : metal
  Current step  : 160000
  Time step     : 0.001
Per MPI rank memory allocation (min/avg/max) = 11.35 | 11.35 | 11.35 Mbytes
Step Temp Press TotEng PotEng Enthalpy 
  160000    1831.2456   -12.555663   -77986.943   -82638.473   -77989.945 
  160495    1810.6072   -242.82096   -78114.381   -82713.488   -78172.369 
Loop time of 49.804 on 2 procs for 495 steps with 19652 atoms

Performance: 0.859 ns/day, 27.948 hours/ns, 9.939 timesteps/s
98.0% CPU use with 2 MPI tasks x no OpenMP threads

MPI task timing breakdown:
Section |  min time  |  avg time  |  max time  |%varavg| %total
---------------------------------------------------------------
Pair    | 26.854     | 27.164     | 27.474     |   5.9 | 54.54
Neigh   | 16.254     | 18.158     | 20.063     |  44.7 | 36.46
Comm    | 1.6741     | 3.9138     | 6.1535     | 113.2 |  7.86
Output  | 0.00011706 | 0.00017202 | 0.00022697 |   0.0 |  0.00
Modify  | 0.43452    | 0.45056    | 0.4666     |   2.4 |  0.90
Other   |            | 0.1166     |            |       |  0.23

Nlocal:    9826 ave 9843 max 9809 min
Histogram: 1 0 0 0 0 0 0 0 0 1
Nghost:    12109 ave 12113 max 12105 min
Histogram: 1 0 0 0 0 0 0 0 0 1
Neighs:    645360 ave 649677 max 641042 min
Histogram: 1 0 0 0 0 0 0 0 0 1

Total # of neighbors = 1290719
Ave neighs/atom = 65.6788
Neighbor list builds = 495
Dangerous builds not checked
Setting up Verlet run ...
  Unit style    : metal
  Current step  : 160495
  Time step     : 0.001
Per MPI rank memory allocation (min/avg/max) = 11.35 | 11.35 | 11.35 Mbytes
Step Temp Press TotEng PotEng Enthalpy 
  160495    1810.6072   -242.82096   -78114.381   -82713.488   -78172.369 
  170000    1791.7416    1225.5204   -78223.745   -82774.932   -77931.777 
Loop time of 984.975 on 2 procs for 9505 steps with 19652 atoms

Performance: 0.834 ns/day, 28.785 hours/ns, 9.650 timesteps/s
96.0% CPU use with 2 MPI tasks x no OpenMP threads

MPI task timing breakdown:
Section |  min time  |  avg time  |  max time  |%varavg| %total
---------------------------------------------------------------
Pair    | 545.08     | 551.33     | 557.57     |  26.6 | 55.97
Neigh   | 373.19     | 375.44     | 377.7      |  11.6 | 38.12
Comm    | 41.931     | 45.967     | 50.004     |  59.5 |  4.67
Output  | 0.037774   | 0.037817   | 0.03786    |   0.0 |  0.00
Modify  | 9.7113     | 9.7666     | 9.8219     |   1.8 |  0.99
Other   |            | 2.436      |            |       |  0.25

Nlocal:    9826 ave 9854 max 9798 min
Histogram: 1 0 0 0 0 0 0 0 0 1
Nghost:    12167.5 ave 12193 max 12142 min
Histogram: 1 0 0 0 0 0 0 0 0 1
Neighs:    646914 ave 656592 max 637237 min
Histogram: 1 0 0 0 0 0 0 0 0 1

Total # of neighbors = 1293829
Ave neighs/atom = 65.837
Neighbor list builds = 9505
Dangerous builds not checked
Setting up Verlet run ...
  Unit style    : metal
  Current step  : 170000
  Time step     : 0.001
Per MPI rank memory allocation (min/avg/max) = 11.35 | 11.35 | 11.35 Mbytes
Step Temp Press TotEng PotEng Enthalpy 
  170000    1791.7416    1225.5204   -78223.745   -82774.932   -77931.777 
  170495    1754.3465   -949.10349   -78321.368   -82777.568   -78548.201 
Loop time of 48.629 on 2 procs for 495 steps with 19652 atoms

Performance: 0.879 ns/day, 27.289 hours/ns, 10.179 timesteps/s
99.3% CPU use with 2 MPI tasks x no OpenMP threads

MPI task timing breakdown:
Section |  min time  |  avg time  |  max time  |%varavg| %total
---------------------------------------------------------------
Pair    | 26.621     | 27.101     | 27.581     |   9.2 | 55.73
Neigh   | 18.489     | 18.879     | 19.269     |   9.0 | 38.82
Comm    | 1.1589     | 2.0307     | 2.9025     |  61.2 |  4.18
Output  | 0.00015211 | 0.00016963 | 0.00018716 |   0.0 |  0.00
Modify  | 0.47967    | 0.48476    | 0.48985    |   0.7 |  1.00
Other   |            | 0.133      |            |       |  0.27

Nlocal:    9826 ave 9828 max 9824 min
Histogram: 1 0 0 0 0 0 0 0 0 1
Nghost:    12130 ave 12139 max 12121 min
Histogram: 1 0 0 0 0 0 0 0 0 1
Neighs:    644711 ave 651014 max 638408 min
Histogram: 1 0 0 0 0 0 0 0 0 1

Total # of neighbors = 1289422
Ave neighs/atom = 65.6128
Neighbor list builds = 495
Dangerous builds not checked
Setting up Verlet run ...
  Unit style    : metal
  Current step  : 170495
  Time step     : 0.001
Per MPI rank memory allocation (min/avg/max) = 11.35 | 11.35 | 11.35 Mbytes
Step Temp Press TotEng PotEng Enthalpy 
  170495    1754.3465   -949.10349   -78321.368   -82777.568   -78548.201 
  180000    1739.3218    23.532776   -78419.973   -82838.009   -78414.358 
Loop time of 1014.22 on 2 procs for 9505 steps with 19652 atoms

Performance: 0.810 ns/day, 29.640 hours/ns, 9.372 timesteps/s
94.7% CPU use with 2 MPI tasks x no OpenMP threads

MPI task timing breakdown:
Section |  min time  |  avg time  |  max time  |%varavg| %total
---------------------------------------------------------------
Pair    | 560.95     | 567.65     | 574.35     |  28.1 | 55.97
Neigh   | 375.35     | 379.01     | 382.67     |  18.8 | 37.37
Comm    | 45.175     | 55.579     | 65.984     | 139.6 |  5.48
Output  | 0.03986    | 0.039912   | 0.039963   |   0.0 |  0.00
Modify  | 9.3793     | 9.413      | 9.4467     |   1.1 |  0.93
Other   |            | 2.536      |            |       |  0.25

Nlocal:    9826 ave 9833 max 9819 min
Histogram: 1 0 0 0 0 0 0 0 0 1
Nghost:    12197.5 ave 12214 max 12181 min
Histogram: 1 0 0 0 0 0 0 0 0 1
Neighs:    646030 ave 653083 max 638977 min
Histogram: 1 0 0 0 0 0 0 0 0 1

Total # of neighbors = 1292060
Ave neighs/atom = 65.747
Neighbor list builds = 9505
Dangerous builds not checked
Setting up Verlet run ...
  Unit style    : metal
  Current step  : 180000
  Time step     : 0.001
Per MPI rank memory allocation (min/avg/max) = 11.35 | 11.35 | 11.35 Mbytes
Step Temp Press TotEng PotEng Enthalpy 
  180000    1739.3218    23.532776   -78419.973   -82838.009   -78414.358 
  180495    1699.7404   -113.04097   -78599.292   -82916.787    -78626.19 
Loop time of 44.5921 on 2 procs for 495 steps with 19652 atoms

Performance: 0.959 ns/day, 25.024 hours/ns, 11.101 timesteps/s
98.7% CPU use with 2 MPI tasks x no OpenMP threads

MPI task timing breakdown:
Section |  min time  |  avg time  |  max time  |%varavg| %total
---------------------------------------------------------------
Pair    | 24.362     | 24.635     | 24.909     |   5.5 | 55.25
Neigh   | 17.74      | 17.878     | 18.017     |   3.3 | 40.09
Comm    | 1.0975     | 1.5103     | 1.923      |  33.6 |  3.39
Output  | 9.5129e-05 | 0.00014961 | 0.00020409 |   0.0 |  0.00
Modify  | 0.44526    | 0.44549    | 0.44573    |   0.0 |  1.00
Other   |            | 0.1226     |            |       |  0.27

Nlocal:    9826 ave 9843 max 9809 min
Histogram: 1 0 0 0 0 0 0 0 0 1
Nghost:    12185.5 ave 12186 max 12185 min
Histogram: 1 0 0 0 0 0 0 0 0 1
Neighs:    647528 ave 655296 max 639761 min
Histogram: 1 0 0 0 0 0 0 0 0 1

Total # of neighbors = 1295057
Ave neighs/atom = 65.8995
Neighbor list builds = 495
Dangerous builds not checked
Setting up Verlet run ...
  Unit style    : metal
  Current step  : 180495
  Time step     : 0.001
Per MPI rank memory allocation (min/avg/max) = 11.35 | 11.35 | 11.35 Mbytes
Step Temp Press TotEng PotEng Enthalpy 
  180495    1699.7404   -113.04097   -78599.292   -82916.787    -78626.19 
  190000    1696.7469   -760.03228   -78591.553   -82901.445   -78772.771 
Loop time of 936.716 on 2 procs for 9505 steps with 19652 atoms

Performance: 0.877 ns/day, 27.375 hours/ns, 10.147 timesteps/s
97.3% CPU use with 2 MPI tasks x no OpenMP threads

MPI task timing breakdown:
Section |  min time  |  avg time  |  max time  |%varavg| %total
---------------------------------------------------------------
Pair    | 514.08     | 520.36     | 526.65     |  27.6 | 55.55
Neigh   | 366.09     | 368.11     | 370.14     |  10.6 | 39.30
Comm    | 28.916     | 37.249     | 45.581     | 136.5 |  3.98
Output  | 0.03838    | 0.038415   | 0.03845    |   0.0 |  0.00
Modify  | 8.6209     | 8.6371     | 8.6534     |   0.6 |  0.92
Other   |            | 2.313      |            |       |  0.25

Nlocal:    9826 ave 9832 max 9820 min
Histogram: 1 0 0 0 0 0 0 0 0 1
Nghost:    12104 ave 12132 max 12076 min
Histogram: 1 0 0 0 0 0 0 0 0 1
Neighs:    646294 ave 652527 max 640061 min
Histogram: 1 0 0 0 0 0 0 0 0 1

Total # of neighbors = 1292588
Ave neighs/atom = 65.7739
Neighbor list builds = 9505
Dangerous builds not checked
Setting up Verlet run ...
  Unit style    : metal
  Current step  : 190000
  Time step     : 0.001
Per MPI rank memory allocation (min/avg/max) = 11.35 | 11.35 | 11.35 Mbytes
Step Temp Press TotEng PotEng Enthalpy 
  190000    1696.7469   -760.03228   -78591.553   -82901.445   -78772.771 
  190495     1665.194     539.9523   -78820.187   -83049.932    -78692.17 
Loop time of 48.4933 on 2 procs for 495 steps with 19652 atoms

Performance: 0.882 ns/day, 27.213 hours/ns, 10.208 timesteps/s
93.6% CPU use with 2 MPI tasks x no OpenMP threads

MPI task timing breakdown:
Section |  min time  |  avg time  |  max time  |%varavg| %total
---------------------------------------------------------------
Pair    | 27.467     | 27.474     | 27.48      |   0.1 | 56.65
Neigh   | 18.31      | 18.476     | 18.642     |   3.9 | 38.10
Comm    | 1.7954     | 1.965      | 2.1346     |  12.1 |  4.05
Output  | 9.799e-05  | 0.00014591 | 0.00019383 |   0.0 |  0.00
Modify  | 0.44851    | 0.45122    | 0.45393    |   0.4 |  0.93
Other   |            | 0.1273     |            |       |  0.26

Nlocal:    9826 ave 9847 max 9805 min
Histogram: 1 0 0 0 0 0 0 0 0 1
Nghost:    12163 ave 12168 max 12158 min
Histogram: 1 0 0 0 0 0 0 0 0 1
Neighs:    650078 ave 658337 max 641820 min
Histogram: 1 0 0 0 0 0 0 0 0 1

Total # of neighbors = 1300157
Ave neighs/atom = 66.159
Neighbor list builds = 495
Dangerous builds not checked
Setting up Verlet run ...
  Unit style    : metal
  Current step  : 190495
  Time step     : 0.001
Per MPI rank memory allocation (min/avg/max) = 11.35 | 11.35 | 11.35 Mbytes
Step Temp Press TotEng PotEng Enthalpy 
  190495     1665.194     539.9523   -78820.187   -83049.932    -78692.17 
  200000    1645.5845   -998.21944   -78879.671   -83059.605   -79116.881 
Loop time of 980.603 on 2 procs for 9505 steps with 19652 atoms

Performance: 0.837 ns/day, 28.658 hours/ns, 9.693 timesteps/s
94.9% CPU use with 2 MPI tasks x no OpenMP threads

MPI task timing breakdown:
Section |  min time  |  avg time  |  max time  |%varavg| %total
---------------------------------------------------------------
Pair    | 540.5      | 545.66     | 550.81     |  22.1 | 55.65
Neigh   | 366.83     | 367.52     | 368.2      |   3.6 | 37.48
Comm    | 48.958     | 54.846     | 60.734     |  79.5 |  5.59
Output  | 0.036727   | 0.036768   | 0.036809   |   0.0 |  0.00
Modify  | 10.168     | 10.203     | 10.238     |   1.1 |  1.04
Other   |            | 2.342      |            |       |  0.24

Nlocal:    9826 ave 9829 max 9823 min
Histogram: 1 0 0 0 0 0 0 0 0 1
Nghost:    12166 ave 12190 max 12142 min
Histogram: 1 0 0 0 0 0 0 0 0 1
Neighs:    648504 ave 655327 max 641680 min
Histogram: 1 0 0 0 0 0 0 0 0 1

Total # of neighbors = 1297007
Ave neighs/atom = 65.9987
Neighbor list builds = 9505
Dangerous builds not checked
Setting up Verlet run ...
  Unit style    : metal
  Current step  : 200000
  Time step     : 0.001
Per MPI rank memory allocation (min/avg/max) = 11.35 | 11.35 | 11.35 Mbytes
Step Temp Press TotEng PotEng Enthalpy 
  200000    1645.5845   -998.21944   -78879.671   -83059.605   -79116.881 
  200495    1609.9231    27.682514   -79056.597   -83145.948   -79050.039 
Loop time of 45.0398 on 2 procs for 495 steps with 19652 atoms

Performance: 0.950 ns/day, 25.275 hours/ns, 10.990 timesteps/s
98.1% CPU use with 2 MPI tasks x no OpenMP threads

MPI task timing breakdown:
Section |  min time  |  avg time  |  max time  |%varavg| %total
---------------------------------------------------------------
Pair    | 24.62      | 24.884     | 25.147     |   5.3 | 55.25
Neigh   | 17.286     | 17.66      | 18.034     |   8.9 | 39.21
Comm    | 1.8313     | 1.9518     | 2.0723     |   8.6 |  4.33
Output  | 9.799e-05  | 0.00016057 | 0.00022316 |   0.0 |  0.00
Modify  | 0.41978    | 0.42557    | 0.43135    |   0.9 |  0.94
Other   |            | 0.1183     |            |       |  0.26

Nlocal:    9826 ave 9835 max 9817 min
Histogram: 1 0 0 0 0 0 0 0 0 1
Nghost:    12212.5 ave 12215 max 12210 min
Histogram: 1 0 0 0 0 0 0 0 0 1
Neighs:    650705 ave 658298 max 643112 min
Histogram: 1 0 0 0 0 0 0 0 0 1

Total # of neighbors = 1301410
Ave neighs/atom = 66.2228
Neighbor list builds = 495
Dangerous builds not checked
Setting up Verlet run ...
  Unit style    : metal
  Current step  : 200495
  Time step     : 0.001
Per MPI rank memory allocation (min/avg/max) = 11.35 | 11.35 | 11.35 Mbytes
Step Temp Press TotEng PotEng Enthalpy 
  200495    1609.9231    27.682514   -79056.597   -83145.948   -79050.039 
  210000     1592.489    750.22312   -79155.489   -83200.557   -78977.702 
Loop time of 978.815 on 2 procs for 9505 steps with 19652 atoms

Performance: 0.839 ns/day, 28.605 hours/ns, 9.711 timesteps/s
96.8% CPU use with 2 MPI tasks x no OpenMP threads

MPI task timing breakdown:
Section |  min time  |  avg time  |  max time  |%varavg| %total
---------------------------------------------------------------
Pair    | 542.27     | 547.6      | 552.93     |  22.8 | 55.95
Neigh   | 376.42     | 376.86     | 377.3      |   2.3 | 38.50
Comm    | 37.904     | 42.823     | 47.741     |  75.2 |  4.37
Output  | 0.042545   | 0.042647   | 0.042748   |   0.0 |  0.00
Modify  | 9.0282     | 9.0289     | 9.0296     |   0.0 |  0.92
Other   |            | 2.456      |            |       |  0.25

Nlocal:    9826 ave 9837 max 9815 min
Histogram: 1 0 0 0 0 0 0 0 0 1
Nghost:    12186.5 ave 12188 max 12185 min
Histogram: 1 0 0 0 0 0 0 0 0 1
Neighs:    650244 ave 657256 max 643232 min
Histogram: 1 0 0 0 0 0 0 0 0 1

Total # of neighbors = 1300488
Ave neighs/atom = 66.1759
Neighbor list builds = 9505
Dangerous builds not checked
Setting up Verlet run ...
  Unit style    : metal
  Current step  : 210000
  Time step     : 0.001
Per MPI rank memory allocation (min/avg/max) = 11.35 | 11.35 | 11.35 Mbytes
Step Temp Press TotEng PotEng Enthalpy 
  210000     1592.489    750.22312   -79155.489   -83200.557   -78977.702 
  210495    1559.4092    1004.2849   -79280.836   -83241.877   -79043.289 
Loop time of 49.8375 on 2 procs for 495 steps with 19652 atoms

Performance: 0.858 ns/day, 27.967 hours/ns, 9.932 timesteps/s
94.5% CPU use with 2 MPI tasks x no OpenMP threads

MPI task timing breakdown:
Section |  min time  |  avg time  |  max time  |%varavg| %total
---------------------------------------------------------------
Pair    | 27.813     | 28.003     | 28.193     |   3.6 | 56.19
Neigh   | 18.925     | 18.931     | 18.937     |   0.1 | 37.98
Comm    | 2.1186     | 2.3092     | 2.4998     |  12.5 |  4.63
Output  | 0.00011206 | 0.00014758 | 0.00018311 |   0.0 |  0.00
Modify  | 0.45337    | 0.45765    | 0.46194    |   0.6 |  0.92
Other   |            | 0.1369     |            |       |  0.27

Nlocal:    9826 ave 9847 max 9805 min
Histogram: 1 0 0 0 0 0 0 0 0 1
Nghost:    12219.5 ave 12247 max 12192 min
Histogram: 1 0 0 0 0 0 0 0 0 1
Neighs:    651774 ave 656407 max 647142 min
Histogram: 1 0 0 0 0 0 0 0 0 1

Total # of neighbors = 1303549
Ave neighs/atom = 66.3316
Neighbor list builds = 495
Dangerous builds not checked
Setting up Verlet run ...
  Unit style    : metal
  Current step  : 210495
  Time step     : 0.001
Per MPI rank memory allocation (min/avg/max) = 11.35 | 11.35 | 11.35 Mbytes
Step Temp Press TotEng PotEng Enthalpy 
  210495    1559.4092    1004.2849   -79280.836   -83241.877   -79043.289 
  220000    1551.6953   -897.91621   -79362.803   -83304.251   -79575.513 
Loop time of 968.766 on 2 procs for 9505 steps with 19652 atoms

Performance: 0.848 ns/day, 28.312 hours/ns, 9.811 timesteps/s
97.6% CPU use with 2 MPI tasks x no OpenMP threads

MPI task timing breakdown:
Section |  min time  |  avg time  |  max time  |%varavg| %total
---------------------------------------------------------------
Pair    | 531.52     | 537.82     | 544.11     |  27.2 | 55.52
Neigh   | 364.88     | 367.34     | 369.8      |  12.8 | 37.92
Comm    | 42.563     | 51.468     | 60.374     | 124.1 |  5.31
Output  | 0.042046   | 0.042182   | 0.042318   |   0.1 |  0.00
Modify  | 9.5235     | 9.6645     | 9.8055     |   4.5 |  1.00
Other   |            | 2.437      |            |       |  0.25

Nlocal:    9826 ave 9832 max 9820 min
Histogram: 1 0 0 0 0 0 0 0 0 1
Nghost:    12182 ave 12199 max 12165 min
Histogram: 1 0 0 0 0 0 0 0 0 1
Neighs:    650689 ave 657446 max 643932 min
Histogram: 1 0 0 0 0 0 0 0 0 1

Total # of neighbors = 1301378
Ave neighs/atom = 66.2211
Neighbor list builds = 9505
Dangerous builds not checked
Setting up Verlet run ...
  Unit style    : metal
  Current step  : 220000
  Time step     : 0.001
Per MPI rank memory allocation (min/avg/max) = 11.35 | 11.35 | 11.35 Mbytes
Step Temp Press TotEng PotEng Enthalpy 
  220000    1551.6953   -897.91621   -79362.803   -83304.251   -79575.513 
  220495    1503.3041   -548.56433   -79537.876   -83356.405   -79667.559 
Loop time of 46.2362 on 2 procs for 495 steps with 19652 atoms

Performance: 0.925 ns/day, 25.946 hours/ns, 10.706 timesteps/s
98.6% CPU use with 2 MPI tasks x no OpenMP threads

MPI task timing breakdown:
Section |  min time  |  avg time  |  max time  |%varavg| %total
---------------------------------------------------------------
Pair    | 25.243     | 25.409     | 25.575     |   3.3 | 54.96
Neigh   | 17.66      | 18.093     | 18.525     |  10.2 | 39.13
Comm    | 1.901      | 2.1752     | 2.4493     |  18.6 |  4.70
Output  | 0.00015593 | 0.00022101 | 0.0002861  |   0.0 |  0.00
Modify  | 0.43129    | 0.43488    | 0.43847    |   0.5 |  0.94
Other   |            | 0.1239     |            |       |  0.27

Nlocal:    9826 ave 9847 max 9805 min
Histogram: 1 0 0 0 0 0 0 0 0 1
Nghost:    12206.5 ave 12214 max 12199 min
Histogram: 1 0 0 0 0 0 0 0 0 1
Neighs:    651987 ave 660097 max 643877 min
Histogram: 1 0 0 0 0 0 0 0 0 1

Total # of neighbors = 1303974
Ave neighs/atom = 66.3532
Neighbor list builds = 495
Dangerous builds not checked
Setting up Verlet run ...
  Unit style    : metal
  Current step  : 220495
  Time step     : 0.001
Per MPI rank memory allocation (min/avg/max) = 11.35 | 11.35 | 11.35 Mbytes
Step Temp Press TotEng PotEng Enthalpy 
  220495    1503.3041   -548.56433   -79537.876   -83356.405   -79667.559 
  230000    1511.6488   -495.97928   -79585.036   -83424.762   -79702.331 
Loop time of 879.5 on 2 procs for 9505 steps with 19652 atoms

Performance: 0.934 ns/day, 25.703 hours/ns, 10.807 timesteps/s
99.1% CPU use with 2 MPI tasks x no OpenMP threads

MPI task timing breakdown:
Section |  min time  |  avg time  |  max time  |%varavg| %total
---------------------------------------------------------------
Pair    | 482.06     | 486.73     | 491.4      |  21.2 | 55.34
Neigh   | 348.04     | 348.93     | 349.83     |   4.8 | 39.67
Comm    | 27.05      | 32.915     | 38.78      | 102.2 |  3.74
Output  | 0.038671   | 0.038701   | 0.038731   |   0.0 |  0.00
Modify  | 8.3414     | 8.6406     | 8.9398     |  10.2 |  0.98
Other   |            | 2.245      |            |       |  0.26

Nlocal:    9826 ave 9830 max 9822 min
Histogram: 1 0 0 0 0 0 0 0 0 1
Nghost:    12189 ave 12194 max 12184 min
Histogram: 1 0 0 0 0 0 0 0 0 1
Neighs:    651772 ave 657899 max 645644 min
Histogram: 1 0 0 0 0 0 0 0 0 1

Total # of neighbors = 1303543
Ave neighs/atom = 66.3313
Neighbor list builds = 9505
Dangerous builds not checked
Setting up Verlet run ...
  Unit style    : metal
  Current step  : 230000
  Time step     : 0.001
Per MPI rank memory allocation (min/avg/max) = 11.35 | 11.35 | 11.35 Mbytes
Step Temp Press TotEng PotEng Enthalpy 
  230000    1511.6488   -495.97928   -79585.036   -83424.762   -79702.331 
  230495    1461.2756    335.05491   -79793.066   -83504.839   -79713.979 
Loop time of 41.2933 on 2 procs for 495 steps with 19652 atoms

Performance: 1.036 ns/day, 23.172 hours/ns, 11.987 timesteps/s
99.8% CPU use with 2 MPI tasks x no OpenMP threads

MPI task timing breakdown:
Section |  min time  |  avg time  |  max time  |%varavg| %total
---------------------------------------------------------------
Pair    | 22.296     | 22.531     | 22.766     |   5.0 | 54.56
Neigh   | 17.224     | 17.275     | 17.326     |   1.2 | 41.83
Comm    | 0.66328    | 0.95356    | 1.2438     |  29.7 |  2.31
Output  | 0.00013709 | 0.00021303 | 0.00028896 |   0.0 |  0.00
Modify  | 0.41532    | 0.41861    | 0.4219     |   0.5 |  1.01
Other   |            | 0.1153     |            |       |  0.28

Nlocal:    9826 ave 9828 max 9824 min
Histogram: 1 0 0 0 0 0 0 0 0 1
Nghost:    12211.5 ave 12239 max 12184 min
Histogram: 1 0 0 0 0 0 0 0 0 1
Neighs:    652939 ave 657913 max 647965 min
Histogram: 1 0 0 0 0 0 0 0 0 1

Total # of neighbors = 1305878
Ave neighs/atom = 66.4501
Neighbor list builds = 495
Dangerous builds not checked
Setting up Verlet run ...
  Unit style    : metal
  Current step  : 230495
  Time step     : 0.001
Per MPI rank memory allocation (min/avg/max) = 11.35 | 11.35 | 11.35 Mbytes
Step Temp Press TotEng PotEng Enthalpy 
  230495    1461.2756    335.05491   -79793.066   -83504.839   -79713.979 
  240000     1445.849    1163.5239       -79865   -83537.588   -79591.193 
Loop time of 892.403 on 2 procs for 9505 steps with 19652 atoms

Performance: 0.920 ns/day, 26.080 hours/ns, 10.651 timesteps/s
97.8% CPU use with 2 MPI tasks x no OpenMP threads

MPI task timing breakdown:
Section |  min time  |  avg time  |  max time  |%varavg| %total
---------------------------------------------------------------
Pair    | 485.52     | 489.25     | 492.98     |  16.9 | 54.82
Neigh   | 351.07     | 353.86     | 356.65     |  14.8 | 39.65
Comm    | 31.947     | 38.492     | 45.036     | 105.5 |  4.31
Output  | 0.040214   | 0.040254   | 0.040294   |   0.0 |  0.00
Modify  | 8.4947     | 8.5183     | 8.5418     |   0.8 |  0.95
Other   |            | 2.239      |            |       |  0.25

Nlocal:    9826 ave 9844 max 9808 min
Histogram: 1 0 0 0 0 0 0 0 0 1
Nghost:    12226 ave 12235 max 12217 min
Histogram: 1 0 0 0 0 0 0 0 0 1
Neighs:    655214 ave 657310 max 653118 min
Histogram: 1 0 0 0 0 0 0 0 0 1

Total # of neighbors = 1310428
Ave neighs/atom = 66.6817
Neighbor list builds = 9505
Dangerous builds not checked
Setting up Verlet run ...
  Unit style    : metal
  Current step  : 240000
  Time step     : 0.001
Per MPI rank memory allocation (min/avg/max) = 11.35 | 11.35 | 11.35 Mbytes
Step Temp Press TotEng PotEng Enthalpy 
  240000     1445.849    1163.5239       -79865   -83537.588   -79591.193 
  240495    1409.6379     1251.958   -80072.599   -83653.208   -79778.176 
Loop time of 49.0393 on 2 procs for 495 steps with 19652 atoms

Performance: 0.872 ns/day, 27.519 hours/ns, 10.094 timesteps/s
95.4% CPU use with 2 MPI tasks x no OpenMP threads

MPI task timing breakdown:
Section |  min time  |  avg time  |  max time  |%varavg| %total
---------------------------------------------------------------
Pair    | 26.473     | 26.662     | 26.852     |   3.7 | 54.37
Neigh   | 18.771     | 18.974     | 19.177     |   4.7 | 38.69
Comm    | 2.8045     | 2.8188     | 2.8331     |   0.9 |  5.75
Output  | 7.8917e-05 | 0.00012589 | 0.00017285 |   0.0 |  0.00
Modify  | 0.45714    | 0.46123    | 0.46532    |   0.6 |  0.94
Other   |            | 0.1226     |            |       |  0.25

Nlocal:    9826 ave 9826 max 9826 min
Histogram: 2 0 0 0 0 0 0 0 0 0
Nghost:    12245 ave 12252 max 12238 min
Histogram: 1 0 0 0 0 0 0 0 0 1
Neighs:    655586 ave 655806 max 655366 min
Histogram: 1 0 0 0 0 0 0 0 0 1

Total # of neighbors = 1311172
Ave neighs/atom = 66.7195
Neighbor list builds = 495
Dangerous builds not checked
Setting up Verlet run ...
  Unit style    : metal
  Current step  : 240495
  Time step     : 0.001
Per MPI rank memory allocation (min/avg/max) = 11.35 | 11.35 | 11.35 Mbytes
Step Temp Press TotEng PotEng Enthalpy 
  240495    1409.6379     1251.958   -80072.599   -83653.208   -79778.176 
  250000    1405.3381   -392.85041    -80084.13   -83653.816   -80176.792 
Loop time of 1106.13 on 2 procs for 9505 steps with 19652 atoms

Performance: 0.742 ns/day, 32.326 hours/ns, 8.593 timesteps/s
87.3% CPU use with 2 MPI tasks x no OpenMP threads

MPI task timing breakdown:
Section |  min time  |  avg time  |  max time  |%varavg| %total
---------------------------------------------------------------
Pair    | 605.18     | 609.8      | 614.42     |  18.7 | 55.13
Neigh   | 407.77     | 414.07     | 420.37     |  31.0 | 37.43
Comm    | 58.427     | 69.476     | 80.525     | 132.6 |  6.28
Output  | 0.039085   | 0.039129   | 0.039174   |   0.0 |  0.00
Modify  | 10.146     | 10.207     | 10.268     |   1.9 |  0.92
Other   |            | 2.537      |            |       |  0.23

Nlocal:    9826 ave 9829 max 9823 min
Histogram: 1 0 0 0 0 0 0 0 0 1
Nghost:    12186.5 ave 12208 max 12165 min
Histogram: 1 0 0 0 0 0 0 0 0 1
Neighs:    653377 ave 658379 max 648375 min
Histogram: 1 0 0 0 0 0 0 0 0 1

Total # of neighbors = 1306754
Ave neighs/atom = 66.4947
Neighbor list builds = 9505
Dangerous builds not checked
Setting up Verlet run ...
  Unit style    : metal
  Current step  : 250000
  Time step     : 0.001
Per MPI rank memory allocation (min/avg/max) = 11.35 | 11.35 | 11.35 Mbytes
Step Temp Press TotEng PotEng Enthalpy 
  250000    1405.3381   -392.85041    -80084.13   -83653.816   -80176.792 
  250495    1361.2389    420.27151   -80303.178   -83760.849   -80204.397 
Loop time of 48.915 on 2 procs for 495 steps with 19652 atoms

Performance: 0.874 ns/day, 27.450 hours/ns, 10.120 timesteps/s
96.2% CPU use with 2 MPI tasks x no OpenMP threads

MPI task timing breakdown:
Section |  min time  |  avg time  |  max time  |%varavg| %total
---------------------------------------------------------------
Pair    | 26.53      | 26.629     | 26.728     |   1.9 | 54.44
Neigh   | 17.653     | 19.131     | 20.608     |  33.8 | 39.11
Comm    | 1.1674     | 2.5646     | 3.9618     |  87.2 |  5.24
Output  | 0.00011301 | 0.00016999 | 0.00022697 |   0.0 |  0.00
Modify  | 0.46228    | 0.46892    | 0.47556    |   1.0 |  0.96
Other   |            | 0.1215     |            |       |  0.25

Nlocal:    9826 ave 9828 max 9824 min
Histogram: 1 0 0 0 0 0 0 0 0 1
Nghost:    12244.5 ave 12260 max 12229 min
Histogram: 1 0 0 0 0 0 0 0 0 1
Neighs:    655950 ave 656191 max 655708 min
Histogram: 1 0 0 0 0 0 0 0 0 1

Total # of neighbors = 1311899
Ave neighs/atom = 66.7565
Neighbor list builds = 495
Dangerous builds not checked
Setting up Verlet run ...
  Unit style    : metal
  Current step  : 250495
  Time step     : 0.001
Per MPI rank memory allocation (min/avg/max) = 11.35 | 11.35 | 11.35 Mbytes
Step Temp Press TotEng PotEng Enthalpy 
  250495    1361.2389    420.27151   -80303.178   -83760.849   -80204.397 
  260000    1345.2488    770.37289   -80417.804   -83834.858   -80236.908 
Loop time of 1036.42 on 2 procs for 9505 steps with 19652 atoms

Performance: 0.792 ns/day, 30.289 hours/ns, 9.171 timesteps/s
90.9% CPU use with 2 MPI tasks x no OpenMP threads

MPI task timing breakdown:
Section |  min time  |  avg time  |  max time  |%varavg| %total
---------------------------------------------------------------
Pair    | 554.89     | 561.92     | 568.94     |  29.6 | 54.22
Neigh   | 318.77     | 373.06     | 427.35     | 281.1 | 35.99
Comm    | 39.788     | 88.003     | 136.22     | 514.0 |  8.49
Output  | 0.052545   | 0.052583   | 0.052621   |   0.0 |  0.01
Modify  | 10.553     | 11.156     | 11.758     |  18.0 |  1.08
Other   |            | 2.239      |            |       |  0.22

Nlocal:    9826 ave 9827 max 9825 min
Histogram: 1 0 0 0 0 0 0 0 0 1
Nghost:    12250.5 ave 12253 max 12248 min
Histogram: 1 0 0 0 0 0 0 0 0 1
Neighs:    656760 ave 656845 max 656676 min
Histogram: 1 0 0 0 0 0 0 0 0 1

Total # of neighbors = 1313521
Ave neighs/atom = 66.839
Neighbor list builds = 9505
Dangerous builds not checked
Setting up Verlet run ...
  Unit style    : metal
  Current step  : 260000
  Time step     : 0.001
Per MPI rank memory allocation (min/avg/max) = 11.35 | 11.35 | 11.35 Mbytes
Step Temp Press TotEng PotEng Enthalpy 
  260000    1345.2488    770.37289   -80417.804   -83834.858   -80236.908 
  260495    1313.5986   -429.83148   -80527.054   -83863.715   -80628.055 
Loop time of 63.4094 on 2 procs for 495 steps with 19652 atoms

Performance: 0.674 ns/day, 35.583 hours/ns, 7.806 timesteps/s
80.4% CPU use with 2 MPI tasks x no OpenMP threads

MPI task timing breakdown:
Section |  min time  |  avg time  |  max time  |%varavg| %total
---------------------------------------------------------------
Pair    | 34.504     | 34.851     | 35.198     |   5.9 | 54.96
Neigh   | 23.336     | 23.926     | 24.516     |  12.1 | 37.73
Comm    | 3.5178     | 3.7691     | 4.0204     |  12.9 |  5.94
Output  | 0.00013399 | 0.00020254 | 0.00027108 |   0.0 |  0.00
Modify  | 0.70877    | 0.72523    | 0.74169    |   1.9 |  1.14
Other   |            | 0.1381     |            |       |  0.22

Nlocal:    9826 ave 9861 max 9791 min
Histogram: 1 0 0 0 0 0 0 0 0 1
Nghost:    12206.5 ave 12215 max 12198 min
Histogram: 1 0 0 0 0 0 0 0 0 1
Neighs:    656364 ave 660451 max 652277 min
Histogram: 1 0 0 0 0 0 0 0 0 1

Total # of neighbors = 1312728
Ave neighs/atom = 66.7987
Neighbor list builds = 495
Dangerous builds not checked
Setting up Verlet run ...
  Unit style    : metal
  Current step  : 260495
  Time step     : 0.001
Per MPI rank memory allocation (min/avg/max) = 11.35 | 11.35 | 11.35 Mbytes
Step Temp Press TotEng PotEng Enthalpy 
  260495    1313.5986   -429.83148   -80527.054   -83863.715   -80628.055 
  270000    1296.1776    -564.0903   -80658.946   -83951.355   -80791.478 
Loop time of 1098.97 on 2 procs for 9505 steps with 19652 atoms

Performance: 0.747 ns/day, 32.117 hours/ns, 8.649 timesteps/s
88.2% CPU use with 2 MPI tasks x no OpenMP threads

MPI task timing breakdown:
Section |  min time  |  avg time  |  max time  |%varavg| %total
---------------------------------------------------------------
Pair    | 586.23     | 588.43     | 590.63     |   9.1 | 53.54
Neigh   | 416.67     | 417.07     | 417.47     |   2.0 | 37.95
Comm    | 77.229     | 78.837     | 80.444     |  18.1 |  7.17
Output  | 0.038294   | 0.038335   | 0.038376   |   0.0 |  0.00
Modify  | 11.928     | 12.107     | 12.286     |   5.1 |  1.10
Other   |            | 2.487      |            |       |  0.23

Nlocal:    9826 ave 9829 max 9823 min
Histogram: 1 0 0 0 0 0 0 0 0 1
Nghost:    12226.5 ave 12239 max 12214 min
Histogram: 1 0 0 0 0 0 0 0 0 1
Neighs:    656322 ave 656975 max 655668 min
Histogram: 1 0 0 0 0 0 0 0 0 1

Total # of neighbors = 1312643
Ave neighs/atom = 66.7944
Neighbor list builds = 9505
Dangerous builds not checked
Setting up Verlet run ...
  Unit style    : metal
  Current step  : 270000
  Time step     : 0.001
Per MPI rank memory allocation (min/avg/max) = 11.35 | 11.35 | 11.35 Mbytes
Step Temp Press TotEng PotEng Enthalpy 
  270000    1296.1776    -564.0903   -80658.946   -83951.355   -80791.478 
  270495    1265.3157   -51.781467   -80836.957   -84050.974   -80849.096 
Loop time of 57.8606 on 2 procs for 495 steps with 19652 atoms

Performance: 0.739 ns/day, 32.469 hours/ns, 8.555 timesteps/s
83.9% CPU use with 2 MPI tasks x no OpenMP threads

MPI task timing breakdown:
Section |  min time  |  avg time  |  max time  |%varavg| %total
---------------------------------------------------------------
Pair    | 30.656     | 30.69      | 30.723     |   0.6 | 53.04
Neigh   | 22.004     | 22.337     | 22.671     |   7.1 | 38.61
Comm    | 3.8242     | 4.1449     | 4.4656     |  15.8 |  7.16
Output  | 8.4877e-05 | 0.0020604  | 0.0040359  |   4.4 |  0.00
Modify  | 0.53966    | 0.55222    | 0.56479    |   1.7 |  0.95
Other   |            | 0.1345     |            |       |  0.23

Nlocal:    9826 ave 9839 max 9813 min
Histogram: 1 0 0 0 0 0 0 0 0 1
Nghost:    12280.5 ave 12301 max 12260 min
Histogram: 1 0 0 0 0 0 0 0 0 1
Neighs:    657552 ave 658452 max 656653 min
Histogram: 1 0 0 0 0 0 0 0 0 1

Total # of neighbors = 1315105
Ave neighs/atom = 66.9197
Neighbor list builds = 495
Dangerous builds not checked
Setting up Verlet run ...
  Unit style    : metal
  Current step  : 270495
  Time step     : 0.001
Per MPI rank memory allocation (min/avg/max) = 11.35 | 11.35 | 11.35 Mbytes
Step Temp Press TotEng PotEng Enthalpy 
  270495    1265.3157   -51.781467   -80836.957   -84050.974   -80849.096 
  280000    1259.1269    468.63135   -80909.571   -84107.868   -80800.022 
Loop time of 1142.39 on 2 procs for 9505 steps with 19652 atoms

Performance: 0.719 ns/day, 33.386 hours/ns, 8.320 timesteps/s
86.9% CPU use with 2 MPI tasks x no OpenMP threads

MPI task timing breakdown:
Section |  min time  |  avg time  |  max time  |%varavg| %total
---------------------------------------------------------------
Pair    | 613.44     | 614.6      | 615.76     |   4.7 | 53.80
Neigh   | 441.25     | 442.61     | 443.97     |   6.5 | 38.74
Comm    | 71.17      | 71.263     | 71.356     |   1.1 |  6.24
Output  | 0.49673    | 0.49677    | 0.4968     |   0.0 |  0.04
Modify  | 10.768     | 10.86      | 10.953     |   2.8 |  0.95
Other   |            | 2.559      |            |       |  0.22

Nlocal:    9826 ave 9836 max 9816 min
Histogram: 1 0 0 0 0 0 0 0 0 1
Nghost:    12233 ave 12253 max 12213 min
Histogram: 1 0 0 0 0 0 0 0 0 1
Neighs:    659536 ave 660607 max 658464 min
Histogram: 1 0 0 0 0 0 0 0 0 1

Total # of neighbors = 1319071
Ave neighs/atom = 67.1215
Neighbor list builds = 9505
Dangerous builds not checked
Setting up Verlet run ...
  Unit style    : metal
  Current step  : 280000
  Time step     : 0.001
Per MPI rank memory allocation (min/avg/max) = 11.35 | 11.35 | 11.35 Mbytes
Step Temp Press TotEng PotEng Enthalpy 
  280000    1259.1269    468.63135   -80909.571   -84107.868   -80800.022 
  280495    1205.2135    199.23181   -81105.356   -84166.708   -81058.701 
Loop time of 60.8401 on 2 procs for 495 steps with 19652 atoms

Performance: 0.703 ns/day, 34.141 hours/ns, 8.136 timesteps/s
84.2% CPU use with 2 MPI tasks x no OpenMP threads

MPI task timing breakdown:
Section |  min time  |  avg time  |  max time  |%varavg| %total
---------------------------------------------------------------
Pair    | 32.728     | 32.897     | 33.066     |   2.9 | 54.07
Neigh   | 23.38      | 23.465     | 23.55      |   1.8 | 38.57
Comm    | 3.6934     | 3.7881     | 3.8829     |   4.9 |  6.23
Output  | 8.297e-05  | 0.000126   | 0.00016904 |   0.0 |  0.00
Modify  | 0.55091    | 0.5561     | 0.56129    |   0.7 |  0.91
Other   |            | 0.1336     |            |       |  0.22

Nlocal:    9826 ave 9831 max 9821 min
Histogram: 1 0 0 0 0 0 0 0 0 1
Nghost:    12226.5 ave 12232 max 12221 min
Histogram: 1 0 0 0 0 0 0 0 0 1
Neighs:    658472 ave 658549 max 658395 min
Histogram: 1 0 0 0 0 0 0 0 0 1

Total # of neighbors = 1316944
Ave neighs/atom = 67.0132
Neighbor list builds = 495
Dangerous builds not checked
Setting up Verlet run ...
  Unit style    : metal
  Current step  : 280495
  Time step     : 0.001
Per MPI rank memory allocation (min/avg/max) = 11.35 | 11.35 | 11.35 Mbytes
Step Temp Press TotEng PotEng Enthalpy 
  280495    1205.2135    199.23181   -81105.356   -84166.708   -81058.701 
  290000    1203.4328    616.44736   -81187.483   -84244.312   -81043.462 
Loop time of 1190.04 on 2 procs for 9505 steps with 19652 atoms

Performance: 0.690 ns/day, 34.778 hours/ns, 7.987 timesteps/s
84.5% CPU use with 2 MPI tasks x no OpenMP threads

MPI task timing breakdown:
Section |  min time  |  avg time  |  max time  |%varavg| %total
---------------------------------------------------------------
Pair    | 639.32     | 642.75     | 646.17     |  13.5 | 54.01
Neigh   | 447.21     | 452.37     | 457.52     |  24.2 | 38.01
Comm    | 78.486     | 80.254     | 82.022     |  19.7 |  6.74
Output  | 0.054484   | 0.056233   | 0.057982   |   0.7 |  0.00
Modify  | 11.832     | 11.894     | 11.955     |   1.8 |  1.00
Other   |            | 2.727      |            |       |  0.23

Nlocal:    9826 ave 9845 max 9807 min
Histogram: 1 0 0 0 0 0 0 0 0 1
Nghost:    12302.5 ave 12308 max 12297 min
Histogram: 1 0 0 0 0 0 0 0 0 1
Neighs:    660126 ave 662644 max 657609 min
Histogram: 1 0 0 0 0 0 0 0 0 1

Total # of neighbors = 1320253
Ave neighs/atom = 67.1816
Neighbor list builds = 9505
Dangerous builds not checked
Setting up Verlet run ...
  Unit style    : metal
  Current step  : 290000
  Time step     : 0.001
Per MPI rank memory allocation (min/avg/max) = 11.35 | 11.35 | 11.35 Mbytes
Step Temp Press TotEng PotEng Enthalpy 
  290000    1203.4328    616.44736   -81187.483   -84244.312   -81043.462 
  290495    1169.6885   -585.32467     -81378.6   -84349.715     -81515.6 
Loop time of 60.9108 on 2 procs for 495 steps with 19652 atoms

Performance: 0.702 ns/day, 34.181 hours/ns, 8.127 timesteps/s
81.9% CPU use with 2 MPI tasks x no OpenMP threads

MPI task timing breakdown:
Section |  min time  |  avg time  |  max time  |%varavg| %total
---------------------------------------------------------------
Pair    | 31.061     | 31.144     | 31.228     |   1.5 | 51.13
Neigh   | 21.948     | 22.144     | 22.341     |   4.2 | 36.36
Comm    | 6.6381     | 6.7671     | 6.8962     |   5.0 | 11.11
Output  | 0.00010705 | 0.00013399 | 0.00016093 |   0.0 |  0.00
Modify  | 0.71058    | 0.72211    | 0.73364    |   1.4 |  1.19
Other   |            | 0.1324     |            |       |  0.22

Nlocal:    9826 ave 9838 max 9814 min
Histogram: 1 0 0 0 0 0 0 0 0 1
Nghost:    12282 ave 12299 max 12265 min
Histogram: 1 0 0 0 0 0 0 0 0 1
Neighs:    658836 ave 660023 max 657649 min
Histogram: 1 0 0 0 0 0 0 0 0 1

Total # of neighbors = 1317672
Ave neighs/atom = 67.0503
Neighbor list builds = 495
Dangerous builds not checked
Setting up Verlet run ...
  Unit style    : metal
  Current step  : 290495
  Time step     : 0.001
Per MPI rank memory allocation (min/avg/max) = 11.35 | 11.35 | 11.35 Mbytes
Step Temp Press TotEng PotEng Enthalpy 
  290495    1169.6885   -585.32467     -81378.6   -84349.715     -81515.6 
  300000    1131.8068   -595.56196   -81522.582   -84397.475   -81661.747 
Loop time of 1168.62 on 2 procs for 9505 steps with 19652 atoms

Performance: 0.703 ns/day, 34.152 hours/ns, 8.134 timesteps/s
86.1% CPU use with 2 MPI tasks x no OpenMP threads

MPI task timing breakdown:
Section |  min time  |  avg time  |  max time  |%varavg| %total
---------------------------------------------------------------
Pair    | 633.54     | 634.5      | 635.47     |   3.8 | 54.30
Neigh   | 438.72     | 440.62     | 442.52     |   9.1 | 37.70
Comm    | 76.379     | 79.228     | 82.077     |  32.0 |  6.78
Output  | 0.036167   | 0.0362     | 0.036234   |   0.0 |  0.00
Modify  | 11.474     | 11.476     | 11.478     |   0.1 |  0.98
Other   |            | 2.76       |            |       |  0.24

Nlocal:    9826 ave 9830 max 9822 min
Histogram: 1 0 0 0 0 0 0 0 0 1
Nghost:    12276.5 ave 12288 max 12265 min
Histogram: 1 0 0 0 0 0 0 0 0 1
Neighs:    659904 ave 661197 max 658612 min
Histogram: 1 0 0 0 0 0 0 0 0 1

Total # of neighbors = 1319809
Ave neighs/atom = 67.159
Neighbor list builds = 9505
Dangerous builds not checked
Setting up Verlet run ...
  Unit style    : metal
  Current step  : 300000
  Time step     : 0.001
Per MPI rank memory allocation (min/avg/max) = 11.35 | 11.35 | 11.35 Mbytes
Step Temp Press TotEng PotEng Enthalpy 
[...]
Histogram: 1 0 0 0 0 0 0 0 0 1
Neighs:    668736 ave 669736 max 667736 min
Histogram: 1 0 0 0 0 0 0 0 0 1

Total # of neighbors = 1337472
Ave neighs/atom = 68.0578
Neighbor list builds = 9505
Dangerous builds not checked
Setting up Verlet run ...
  Unit style    : metal
  Current step  : 440000
  Time step     : 0.001
Per MPI rank memory allocation (min/avg/max) = 11.35 | 11.35 | 11.35 Mbytes
Step Temp Press TotEng PotEng Enthalpy 
  440000    456.34269   -104.33762   -86659.432   -87818.584   -86683.504 
  440495    420.43104   0.20894412   -86839.978   -87907.911    -86839.93 
Loop time of 71.4463 on 2 procs for 495 steps with 19652 atoms

Performance: 0.599 ns/day, 40.093 hours/ns, 6.928 timesteps/s
71.5% CPU use with 2 MPI tasks x no OpenMP threads

MPI task timing breakdown:
Section |  min time  |  avg time  |  max time  |%varavg| %total
---------------------------------------------------------------
Pair    | 38.491     | 38.8       | 39.109     |   5.0 | 54.31
Neigh   | 25.914     | 26.108     | 26.302     |   3.8 | 36.54
Comm    | 5.384      | 5.4707     | 5.5574     |   3.7 |  7.66
Output  | 9.1076e-05 | 0.00013959 | 0.00018811 |   0.0 |  0.00
Modify  | 0.88249    | 0.89489    | 0.90729    |   1.3 |  1.25
Other   |            | 0.1723     |            |       |  0.24

Nlocal:    9826 ave 9834 max 9818 min
Histogram: 1 0 0 0 0 0 0 0 0 1
Nghost:    12300 ave 12314 max 12286 min
Histogram: 1 0 0 0 0 0 0 0 0 1
Neighs:    669614 ave 670719 max 668509 min
Histogram: 1 0 0 0 0 0 0 0 0 1

Total # of neighbors = 1339228
Ave neighs/atom = 68.1472
Neighbor list builds = 495
Dangerous builds not checked
Setting up Verlet run ...
  Unit style    : metal
  Current step  : 440495
  Time step     : 0.001
Per MPI rank memory allocation (min/avg/max) = 11.35 | 11.35 | 11.35 Mbytes
Step Temp Press TotEng PotEng Enthalpy 
  440495    420.43104   0.20894412   -86839.978   -87907.911    -86839.93 
  450000    400.69626   -938.99277   -87047.672   -88065.477    -87264.37 
Loop time of 1404.54 on 2 procs for 9505 steps with 19652 atoms

Performance: 0.585 ns/day, 41.047 hours/ns, 6.767 timesteps/s
70.8% CPU use with 2 MPI tasks x no OpenMP threads

MPI task timing breakdown:
Section |  min time  |  avg time  |  max time  |%varavg| %total
---------------------------------------------------------------
Pair    | 757.53     | 759.58     | 761.63     |   7.4 | 54.08
Neigh   | 509.56     | 509.94     | 510.31     |   1.7 | 36.31
Comm    | 111.98     | 114.47     | 116.97     |  23.3 |  8.15
Output  | 0.039881   | 0.039938   | 0.039995   |   0.0 |  0.00
Modify  | 16.981     | 16.985     | 16.989     |   0.1 |  1.21
Other   |            | 3.52       |            |       |  0.25

Nlocal:    9826 ave 9827 max 9825 min
Histogram: 1 0 0 0 0 0 0 0 0 1
Nghost:    12314.5 ave 12325 max 12304 min
Histogram: 1 0 0 0 0 0 0 0 0 1
Neighs:    668640 ave 668651 max 668629 min
Histogram: 1 0 0 0 0 0 0 0 0 1

Total # of neighbors = 1337280
Ave neighs/atom = 68.048
Neighbor list builds = 9505
Dangerous builds not checked
Setting up Verlet run ...
  Unit style    : metal
  Current step  : 450000
  Time step     : 0.001
Per MPI rank memory allocation (min/avg/max) = 11.35 | 11.35 | 11.35 Mbytes
Step Temp Press TotEng PotEng Enthalpy 
  450000    400.69626   -938.99277   -87047.672   -88065.477    -87264.37 
  450495    371.95122   -189.00871   -87216.521   -88161.311   -87260.072 
Loop time of 67.8554 on 2 procs for 495 steps with 19652 atoms

Performance: 0.630 ns/day, 38.078 hours/ns, 7.295 timesteps/s
74.1% CPU use with 2 MPI tasks x no OpenMP threads

MPI task timing breakdown:
Section |  min time  |  avg time  |  max time  |%varavg| %total
---------------------------------------------------------------
Pair    | 36.291     | 36.693     | 37.095     |   6.6 | 54.07
Neigh   | 24.999     | 25.171     | 25.344     |   3.4 | 37.10
Comm    | 4.7594     | 4.9767     | 5.194      |   9.7 |  7.33
Output  | 0.00010991 | 0.0032644  | 0.0064189  |   5.5 |  0.00
Modify  | 0.82074    | 0.83349    | 0.84625    |   1.4 |  1.23
Other   |            | 0.1778     |            |       |  0.26

Nlocal:    9826 ave 9826 max 9826 min
Histogram: 2 0 0 0 0 0 0 0 0 0
Nghost:    12321.5 ave 12336 max 12307 min
Histogram: 1 0 0 0 0 0 0 0 0 1
Neighs:    669559 ave 669683 max 669435 min
Histogram: 1 0 0 0 0 0 0 0 0 1

Total # of neighbors = 1339118
Ave neighs/atom = 68.1416
Neighbor list builds = 495
Dangerous builds not checked
Setting up Verlet run ...
  Unit style    : metal
  Current step  : 450495
  Time step     : 0.001
Per MPI rank memory allocation (min/avg/max) = 11.35 | 11.35 | 11.35 Mbytes
Step Temp Press TotEng PotEng Enthalpy 
  450495    371.95122   -189.00871   -87216.521   -88161.311   -87260.072 
  460000    351.87168   -199.15407   -87390.298   -88284.084   -87436.133 
Loop time of 1395.94 on 2 procs for 9505 steps with 19652 atoms

Performance: 0.588 ns/day, 40.795 hours/ns, 6.809 timesteps/s
70.3% CPU use with 2 MPI tasks x no OpenMP threads

MPI task timing breakdown:
Section |  min time  |  avg time  |  max time  |%varavg| %total
---------------------------------------------------------------
Pair    | 754.6      | 756.2      | 757.79     |   5.8 | 54.17
Neigh   | 505.08     | 506.41     | 507.74     |   5.9 | 36.28
Comm    | 112.74     | 112.97     | 113.19     |   2.1 |  8.09
Output  | 0.05451    | 0.054556   | 0.054603   |   0.0 |  0.00
Modify  | 16.715     | 16.738     | 16.762     |   0.6 |  1.20
Other   |            | 3.565      |            |       |  0.26

Nlocal:    9826 ave 9837 max 9815 min
Histogram: 1 0 0 0 0 0 0 0 0 1
Nghost:    12324.5 ave 12327 max 12322 min
Histogram: 1 0 0 0 0 0 0 0 0 1
Neighs:    670208 ave 670982 max 669433 min
Histogram: 1 0 0 0 0 0 0 0 0 1

Total # of neighbors = 1340415
Ave neighs/atom = 68.2076
Neighbor list builds = 9505
Dangerous builds not checked
Setting up Verlet run ...
  Unit style    : metal
  Current step  : 460000
  Time step     : 0.001
Per MPI rank memory allocation (min/avg/max) = 11.35 | 11.35 | 11.35 Mbytes
Step Temp Press TotEng PotEng Enthalpy 
  460000    351.87168   -199.15407   -87390.298   -88284.084   -87436.133 
  460495    325.12275   -200.14923   -87543.568   -88369.409   -87589.573 
Loop time of 81.7861 on 2 procs for 495 steps with 19652 atoms

Performance: 0.523 ns/day, 45.896 hours/ns, 6.052 timesteps/s
64.8% CPU use with 2 MPI tasks x no OpenMP threads

MPI task timing breakdown:
Section |  min time  |  avg time  |  max time  |%varavg| %total
---------------------------------------------------------------
Pair    | 44.442     | 44.67      | 44.897     |   3.4 | 54.62
Neigh   | 28.494     | 28.826     | 29.158     |   6.2 | 35.25
Comm    | 6.4522     | 7.0159     | 7.5796     |  21.3 |  8.58
Output  | 0.00010896 | 0.00019395 | 0.00027895 |   0.0 |  0.00
Modify  | 1.0728     | 1.0845     | 1.0962     |   1.1 |  1.33
Other   |            | 0.1894     |            |       |  0.23

Nlocal:    9826 ave 9839 max 9813 min
Histogram: 1 0 0 0 0 0 0 0 0 1
Nghost:    12333.5 ave 12352 max 12315 min
Histogram: 1 0 0 0 0 0 0 0 0 1
Neighs:    670776 ave 672377 max 669175 min
Histogram: 1 0 0 0 0 0 0 0 0 1

Total # of neighbors = 1341552
Ave neighs/atom = 68.2654
Neighbor list builds = 495
Dangerous builds not checked
Setting up Verlet run ...
  Unit style    : metal
  Current step  : 460495
  Time step     : 0.001
Per MPI rank memory allocation (min/avg/max) = 11.35 | 11.35 | 11.35 Mbytes
Step Temp Press TotEng PotEng Enthalpy 
  460495    325.12275   -200.14923   -87543.568   -88369.409   -87589.573 
  470000    301.74101    64.440918   -87702.217   -88468.667   -87687.402 
Loop time of 1217.07 on 2 procs for 9505 steps with 19652 atoms

Performance: 0.675 ns/day, 35.568 hours/ns, 7.810 timesteps/s
77.6% CPU use with 2 MPI tasks x no OpenMP threads

MPI task timing breakdown:
Section |  min time  |  avg time  |  max time  |%varavg| %total
---------------------------------------------------------------
Pair    | 652.67     | 656.37     | 660.06     |  14.4 | 53.93
Neigh   | 441.64     | 446.05     | 450.47     |  20.9 | 36.65
Comm    | 94.347     | 95.066     | 95.784     |   7.4 |  7.81
Output  | 0.13563    | 0.13569    | 0.13574    |   0.0 |  0.01
Modify  | 16.182     | 16.192     | 16.201     |   0.2 |  1.33
Other   |            | 3.254      |            |       |  0.27

Nlocal:    9826 ave 9829 max 9823 min
Histogram: 1 0 0 0 0 0 0 0 0 1
Nghost:    12325.5 ave 12345 max 12306 min
Histogram: 1 0 0 0 0 0 0 0 0 1
Neighs:    670656 ave 670866 max 670445 min
Histogram: 1 0 0 0 0 0 0 0 0 1

Total # of neighbors = 1341311
Ave neighs/atom = 68.2532
Neighbor list builds = 9505
Dangerous builds not checked
Setting up Verlet run ...
  Unit style    : metal
  Current step  : 470000
  Time step     : 0.001
Per MPI rank memory allocation (min/avg/max) = 11.35 | 11.35 | 11.35 Mbytes
Step Temp Press TotEng PotEng Enthalpy 
  470000    301.74101    64.440918   -87702.217   -88468.667   -87687.402 
  470495     274.8739   -352.96912   -87848.165    -88546.37    -87929.29 
Loop time of 70.7473 on 2 procs for 495 steps with 19652 atoms

Performance: 0.605 ns/day, 39.701 hours/ns, 6.997 timesteps/s
70.6% CPU use with 2 MPI tasks x no OpenMP threads

MPI task timing breakdown:
Section |  min time  |  avg time  |  max time  |%varavg| %total
---------------------------------------------------------------
Pair    | 37.346     | 38.01      | 38.674     |  10.8 | 53.73
Neigh   | 24.943     | 25.408     | 25.872     |   9.2 | 35.91
Comm    | 6.1524     | 6.3729     | 6.5935     |   8.7 |  9.01
Output  | 9.4175e-05 | 0.00014162 | 0.00018907 |   0.0 |  0.00
Modify  | 0.77704    | 0.78419    | 0.79134    |   0.8 |  1.11
Other   |            | 0.1718     |            |       |  0.24

Nlocal:    9826 ave 9829 max 9823 min
Histogram: 1 0 0 0 0 0 0 0 0 1
Nghost:    12348.5 ave 12365 max 12332 min
Histogram: 1 0 0 0 0 0 0 0 0 1
Neighs:    670809 ave 671204 max 670414 min
Histogram: 1 0 0 0 0 0 0 0 0 1

Total # of neighbors = 1341618
Ave neighs/atom = 68.2688
Neighbor list builds = 495
Dangerous builds not checked
Setting up Verlet run ...
  Unit style    : metal
  Current step  : 470495
  Time step     : 0.001
Per MPI rank memory allocation (min/avg/max) = 11.35 | 11.35 | 11.35 Mbytes
Step Temp Press TotEng PotEng Enthalpy 
  470495     274.8739   -352.96912   -87848.165    -88546.37    -87929.29 
  480000    248.62543   -234.94611   -87992.331   -88623.862    -88046.31 
Loop time of 1066.48 on 2 procs for 9505 steps with 19652 atoms

Performance: 0.770 ns/day, 31.167 hours/ns, 8.912 timesteps/s
86.1% CPU use with 2 MPI tasks x no OpenMP threads

MPI task timing breakdown:
Section |  min time  |  avg time  |  max time  |%varavg| %total
---------------------------------------------------------------
Pair    | 573.05     | 574.64     | 576.23     |   6.6 | 53.88
Neigh   | 407.05     | 408.06     | 409.07     |   5.0 | 38.26
Comm    | 65.694     | 68.323     | 70.951     |  31.8 |  6.41
Output  | 0.03973    | 0.039769   | 0.039807   |   0.0 |  0.00
Modify  | 12.154     | 12.194     | 12.234     |   1.1 |  1.14
Other   |            | 3.228      |            |       |  0.30

Nlocal:    9826 ave 9835 max 9817 min
Histogram: 1 0 0 0 0 0 0 0 0 1
Nghost:    12332.5 ave 12364 max 12301 min
Histogram: 1 0 0 0 0 0 0 0 0 1
Neighs:    670970 ave 671598 max 670341 min
Histogram: 1 0 0 0 0 0 0 0 0 1

Total # of neighbors = 1341939
Ave neighs/atom = 68.2851
Neighbor list builds = 9505
Dangerous builds not checked
Setting up Verlet run ...
  Unit style    : metal
  Current step  : 480000
  Time step     : 0.001
Per MPI rank memory allocation (min/avg/max) = 11.35 | 11.35 | 11.35 Mbytes
Step Temp Press TotEng PotEng Enthalpy 
  480000    248.62543   -234.94611   -87992.331   -88623.862    -88046.31 
  480495    223.38996     485.5305   -88131.578   -88699.009   -88020.235 
Loop time of 49.446 on 2 procs for 495 steps with 19652 atoms

Performance: 0.865 ns/day, 27.747 hours/ns, 10.011 timesteps/s
92.3% CPU use with 2 MPI tasks x no OpenMP threads

MPI task timing breakdown:
Section |  min time  |  avg time  |  max time  |%varavg| %total
---------------------------------------------------------------
Pair    | 25.715     | 26.088     | 26.46      |   7.3 | 52.76
Neigh   | 18.033     | 18.819     | 19.606     |  18.1 | 38.06
Comm    | 2.7028     | 3.7963     | 4.8899     |  56.1 |  7.68
Output  | 0.00015616 | 0.00019658 | 0.00023699 |   0.0 |  0.00
Modify  | 0.53379    | 0.6005     | 0.66721    |   8.6 |  1.21
Other   |            | 0.1421     |            |       |  0.29

Nlocal:    9826 ave 9829 max 9823 min
Histogram: 1 0 0 0 0 0 0 0 0 1
Nghost:    12362.5 ave 12384 max 12341 min
Histogram: 1 0 0 0 0 0 0 0 0 1
Neighs:    672238 ave 672703 max 671774 min
Histogram: 1 0 0 0 0 0 0 0 0 1

Total # of neighbors = 1344477
Ave neighs/atom = 68.4143
Neighbor list builds = 495
Dangerous builds not checked
Setting up Verlet run ...
  Unit style    : metal
  Current step  : 480495
  Time step     : 0.001
Per MPI rank memory allocation (min/avg/max) = 11.35 | 11.35 | 11.35 Mbytes
Step Temp Press TotEng PotEng Enthalpy 
  480495    223.38996     485.5305   -88131.578   -88699.009   -88020.235 
  490000     200.3104   -299.60355    -88279.68   -88788.487   -88348.412 
Loop time of 1034.03 on 2 procs for 9505 steps with 19652 atoms

Performance: 0.794 ns/day, 30.219 hours/ns, 9.192 timesteps/s
86.7% CPU use with 2 MPI tasks x no OpenMP threads

MPI task timing breakdown:
Section |  min time  |  avg time  |  max time  |%varavg| %total
---------------------------------------------------------------
Pair    | 554.58     | 556.99     | 559.39     |  10.2 | 53.87
Neigh   | 394.92     | 395.67     | 396.42     |   3.8 | 38.26
Comm    | 64.179     | 66.074     | 67.968     |  23.3 |  6.39
Output  | 0.059187   | 0.059227   | 0.059267   |   0.0 |  0.01
Modify  | 12.087     | 12.335     | 12.582     |   7.0 |  1.19
Other   |            | 2.904      |            |       |  0.28

Nlocal:    9826 ave 9835 max 9817 min
Histogram: 1 0 0 0 0 0 0 0 0 1
Nghost:    12343 ave 12365 max 12321 min
Histogram: 1 0 0 0 0 0 0 0 0 1
Neighs:    671818 ave 672642 max 670994 min
Histogram: 1 0 0 0 0 0 0 0 0 1

Total # of neighbors = 1343636
Ave neighs/atom = 68.3715
Neighbor list builds = 9505
Dangerous builds not checked
Setting up Verlet run ...
  Unit style    : metal
  Current step  : 490000
  Time step     : 0.001
Per MPI rank memory allocation (min/avg/max) = 11.35 | 11.35 | 11.35 Mbytes
Step Temp Press TotEng PotEng Enthalpy 
  490000     200.3104   -299.60355    -88279.68   -88788.487   -88348.412 
  490495    175.09752    72.597262   -88403.542   -88848.306    -88386.91 
Loop time of 53.4183 on 2 procs for 495 steps with 19652 atoms

Performance: 0.801 ns/day, 29.977 hours/ns, 9.266 timesteps/s
85.8% CPU use with 2 MPI tasks x no OpenMP threads

MPI task timing breakdown:
Section |  min time  |  avg time  |  max time  |%varavg| %total
---------------------------------------------------------------
Pair    | 28.788     | 29.184     | 29.58      |   7.3 | 54.63
Neigh   | 20.41      | 20.516     | 20.623     |   2.3 | 38.41
Comm    | 2.7117     | 2.9999     | 3.288      |  16.6 |  5.62
Output  | 0.00011015 | 0.00016761 | 0.00022507 |   0.0 |  0.00
Modify  | 0.56391    | 0.57345    | 0.583      |   1.3 |  1.07
Other   |            | 0.1443     |            |       |  0.27

Nlocal:    9826 ave 9830 max 9822 min
Histogram: 1 0 0 0 0 0 0 0 0 1
Nghost:    12332 ave 12343 max 12321 min
Histogram: 1 0 0 0 0 0 0 0 0 1
Neighs:    672700 ave 673422 max 671978 min
Histogram: 1 0 0 0 0 0 0 0 0 1

Total # of neighbors = 1345400
Ave neighs/atom = 68.4612
Neighbor list builds = 495
Dangerous builds not checked
Setting up Verlet run ...
  Unit style    : metal
  Current step  : 490495
  Time step     : 0.001
Per MPI rank memory allocation (min/avg/max) = 11.35 | 11.35 | 11.35 Mbytes
Step Temp Press TotEng PotEng Enthalpy 
  490495    175.09752    72.597262   -88403.542   -88848.306    -88386.91 
  500000    149.55973    82.139298   -88547.582   -88927.478   -88528.779 
Loop time of 922.88 on 2 procs for 9505 steps with 19652 atoms

Performance: 0.890 ns/day, 26.971 hours/ns, 10.299 timesteps/s
91.6% CPU use with 2 MPI tasks x no OpenMP threads

MPI task timing breakdown:
Section |  min time  |  avg time  |  max time  |%varavg| %total
---------------------------------------------------------------
Pair    | 490.14     | 491.06     | 491.97     |   4.1 | 53.21
Neigh   | 364.76     | 366.7      | 368.65     |  10.1 | 39.73
Comm    | 50.202     | 51.17      | 52.138     |  13.5 |  5.54
Output  | 0.037301   | 0.037351   | 0.0374     |   0.0 |  0.00
Modify  | 11.054     | 11.204     | 11.353     |   4.5 |  1.21
Other   |            | 2.708      |            |       |  0.29

Nlocal:    9826 ave 9837 max 9815 min
Histogram: 1 0 0 0 0 0 0 0 0 1
Nghost:    12371 ave 12394 max 12348 min
Histogram: 1 0 0 0 0 0 0 0 0 1
Neighs:    673157 ave 674273 max 672041 min
Histogram: 1 0 0 0 0 0 0 0 0 1

Total # of neighbors = 1346314
Ave neighs/atom = 68.5077
Neighbor list builds = 9505
Dangerous builds not checked
Setting up Verlet run ...
  Unit style    : metal
  Current step  : 500000
  Time step     : 0.001
Per MPI rank memory allocation (min/avg/max) = 11.35 | 11.35 | 11.35 Mbytes
Step Temp Press TotEng PotEng Enthalpy 
  500000    149.55973    82.139298   -88547.582   -88927.478   -88528.779 
  500495    127.03191   -136.49069   -88664.897   -88987.569   -88696.146 
Loop time of 42.3375 on 2 procs for 495 steps with 19652 atoms

Performance: 1.010 ns/day, 23.758 hours/ns, 11.692 timesteps/s
96.4% CPU use with 2 MPI tasks x no OpenMP threads

MPI task timing breakdown:
Section |  min time  |  avg time  |  max time  |%varavg| %total
---------------------------------------------------------------
Pair    | 22.6       | 22.67      | 22.739     |   1.5 | 53.55
Neigh   | 16.881     | 17.573     | 18.264     |  16.5 | 41.51
Comm    | 0.89805    | 1.5206     | 2.1431     |  50.5 |  3.59
Output  | 9.6083e-05 | 0.00016105 | 0.00022602 |   0.0 |  0.00
Modify  | 0.44376    | 0.44568    | 0.4476     |   0.3 |  1.05
Other   |            | 0.1285     |            |       |  0.30

Nlocal:    9826 ave 9839 max 9813 min
Histogram: 1 0 0 0 0 0 0 0 0 1
Nghost:    12337 ave 12370 max 12304 min
Histogram: 1 0 0 0 0 0 0 0 0 1
Neighs:    673173 ave 674482 max 671864 min
Histogram: 1 0 0 0 0 0 0 0 0 1

Total # of neighbors = 1346346
Ave neighs/atom = 68.5094
Neighbor list builds = 495
Dangerous builds not checked
Setting up Verlet run ...
  Unit style    : metal
  Current step  : 500495
  Time step     : 0.001
Per MPI rank memory allocation (min/avg/max) = 11.35 | 11.35 | 11.35 Mbytes
Step Temp Press TotEng PotEng Enthalpy 
  500495    127.03191   -136.49069   -88664.897   -88987.569   -88696.146 
  510000    100.19521    235.30925   -88807.384   -89061.889   -88753.571 
Loop time of 888.3 on 2 procs for 9505 steps with 19652 atoms

Performance: 0.924 ns/day, 25.960 hours/ns, 10.700 timesteps/s
92.7% CPU use with 2 MPI tasks x no OpenMP threads

MPI task timing breakdown:
Section |  min time  |  avg time  |  max time  |%varavg| %total
---------------------------------------------------------------
Pair    | 472.17     | 473.07     | 473.96     |   4.1 | 53.26
Neigh   | 353.86     | 356.53     | 359.2      |  14.2 | 40.14
Comm    | 44.25      | 46.05      | 47.85      |  26.5 |  5.18
Output  | 0.32701    | 0.32852    | 0.33003    |   0.3 |  0.04
Modify  | 9.6679     | 9.6811     | 9.6943     |   0.4 |  1.09
Other   |            | 2.646      |            |       |  0.30

Nlocal:    9826 ave 9844 max 9808 min
Histogram: 1 0 0 0 0 0 0 0 0 1
Nghost:    12353.5 ave 12375 max 12332 min
Histogram: 1 0 0 0 0 0 0 0 0 1
Neighs:    673802 ave 675524 max 672080 min
Histogram: 1 0 0 0 0 0 0 0 0 1

Total # of neighbors = 1347604
Ave neighs/atom = 68.5734
Neighbor list builds = 9505
Dangerous builds not checked
Total wall time: 15:02:14
