LAMMPS (12 Dec 2018)
Lattice spacing in x,y,z = 4 4 4
Created orthogonal box = (0 0 0) to (68 68 68)
  1 by 1 by 1 MPI processor grid
Created 19652 atoms
  Time spent = 0.00371194 secs
Setting atom values ...
  417 settings made for type/fraction
Neighbor list info ...
  update every 1 steps, delay 0 steps, check no
  max neighbors/atom: 2000, page size: 100000
  master list distance cutoff = 8.2
  ghost atom cutoff = 8.2
  binsize = 4.1, bins = 17 17 17
  1 neighbor lists, perpetual/occasional/extra = 1 0 0
  (1) pair eam/alloy, perpetual
      attributes: half, newton on
      pair build: half/bin/atomonly/newton
      stencil: half/bin/3d/newton
      bin: standard
Setting up Verlet run ...
  Unit style    : metal
  Current step  : 0
  Time step     : 0.001
Per MPI rank memory allocation (min/avg/max) = 17.03 | 17.03 | 17.03 Mbytes
Step Temp Press TotEng PotEng Enthalpy Volume 
       0          300   -244041.94   -60108.252   -60870.279   -108002.22       314432 
     667    410.88603   -147202.98   -60108.276   -61151.964   -88997.308       314432 
    1000    697.63999   -73247.625   -60108.335   -61880.404   -74483.404       314432 
Loop time of 132.087 on 1 procs for 1000 steps with 19652 atoms

Performance: 0.654 ns/day, 36.691 hours/ns, 7.571 timesteps/s
99.9% CPU use with 1 MPI tasks x no OpenMP threads

MPI task timing breakdown:
Section |  min time  |  avg time  |  max time  |%varavg| %total
---------------------------------------------------------------
Pair    | 69.958     | 69.958     | 69.958     |   0.0 | 52.96
Neigh   | 60.193     | 60.193     | 60.193     |   0.0 | 45.57
Comm    | 1.0979     | 1.0979     | 1.0979     |   0.0 |  0.83
Output  | 0.11285    | 0.11285    | 0.11285    |   0.0 |  0.09
Modify  | 0.36501    | 0.36501    | 0.36501    |   0.0 |  0.28
Other   |            | 0.36       |            |       |  0.27

Nlocal:    19652 ave 19652 max 19652 min
Histogram: 1 0 0 0 0 0 0 0 0 0
Nghost:    18041 ave 18041 max 18041 min
Histogram: 1 0 0 0 0 0 0 0 0 0
Neighs:    1.4382e+06 ave 1.4382e+06 max 1.4382e+06 min
Histogram: 1 0 0 0 0 0 0 0 0 0

Total # of neighbors = 1438205
Ave neighs/atom = 73.1836
Neighbor list builds = 1000
Dangerous builds not checked
Setting up Verlet run ...
  Unit style    : metal
  Current step  : 1000
  Time step     : 0.001
Per MPI rank memory allocation (min/avg/max) = 17.03 | 17.03 | 17.03 Mbytes
Step Temp Press TotEng PotEng Enthalpy Volume 
    1000    697.63999   -73247.625   -60108.335   -61880.404   -74483.404       314432 
    1334    654.87608   -12942.971   -62615.725    -64279.17    -64836.59    274915.05 
    2000    402.91849   -2116.8746   -65611.418   -66634.867   -65936.833    246293.67 
Loop time of 140.625 on 1 procs for 1000 steps with 19652 atoms

Performance: 0.614 ns/day, 39.063 hours/ns, 7.111 timesteps/s
99.8% CPU use with 1 MPI tasks x no OpenMP threads

MPI task timing breakdown:
Section |  min time  |  avg time  |  max time  |%varavg| %total
---------------------------------------------------------------
Pair    | 75.47      | 75.47      | 75.47      |   0.0 | 53.67
Neigh   | 62.585     | 62.585     | 62.585     |   0.0 | 44.50
Comm    | 0.91352    | 0.91352    | 0.91352    |   0.0 |  0.65
Output  | 0.19799    | 0.19799    | 0.19799    |   0.0 |  0.14
Modify  | 1.1207     | 1.1207     | 1.1207     |   0.0 |  0.80
Other   |            | 0.3377     |            |       |  0.24

Nlocal:    19652 ave 19652 max 19652 min
Histogram: 1 0 0 0 0 0 0 0 0 0
Nghost:    19959 ave 19959 max 19959 min
Histogram: 1 0 0 0 0 0 0 0 0 0
Neighs:    1.79104e+06 ave 1.79104e+06 max 1.79104e+06 min
Histogram: 1 0 0 0 0 0 0 0 0 0

Total # of neighbors = 1791036
Ave neighs/atom = 91.1376
Neighbor list builds = 1000
Dangerous builds not checked
Setting up Verlet run ...
  Unit style    : metal
  Current step  : 2000
  Time step     : 0.001
Per MPI rank memory allocation (min/avg/max) = 18.56 | 18.56 | 18.56 Mbytes
Step Temp Press TotEng PotEng Enthalpy Volume 
    2000    402.91849   -2116.8746   -65611.418   -66634.867   -65936.833    246293.67 
    2001    403.82927   -2222.9859   -65611.454   -66637.217    -65953.18    246293.43 
    2668    458.16322    578.75283   -66106.141   -67269.918   -66019.436    240028.07 
    3335    649.96213    876.40603   -65530.828   -67181.791   -65399.676     239760.9 
    4002    826.34964    658.90645   -64874.265   -66973.269   -64775.273     240706.5 
    4669    1000.3735   -1838.2037    -64075.17    -66616.21   -64353.686    242753.99 
    5336    1180.7624   -1711.1868   -63152.039   -66151.283   -63413.556    244857.54 
    6003    1354.6148   -365.27162   -62148.694   -65589.539   -62205.041    247152.78 
    6670    1532.6794    1471.8406   -61014.844    -64907.99   -60785.245    249930.99 
    7337    1689.0872   -1166.7209   -59748.013   -64038.449    -59933.34    254495.74 
    8004     1856.895    1407.4763   -58166.784   -62883.467    -57938.59    259760.96 
    8671    1984.6392     600.8486    -56145.02   -61186.185     -56044.1    269105.19 
    9338    2263.0227   -880.75039   -54281.114   -60029.398   -54432.961    276225.47 
   10000     2446.016     679.5135   -53130.624   -59343.728   -53011.745    280296.18 
Loop time of 1164.78 on 1 procs for 8000 steps with 19652 atoms

Performance: 0.593 ns/day, 40.444 hours/ns, 6.868 timesteps/s
99.8% CPU use with 1 MPI tasks x no OpenMP threads

MPI task timing breakdown:
Section |  min time  |  avg time  |  max time  |%varavg| %total
---------------------------------------------------------------
Pair    | 629.5      | 629.5      | 629.5      |   0.0 | 54.04
Neigh   | 515.39     | 515.39     | 515.39     |   0.0 | 44.25
Comm    | 7.4183     | 7.4183     | 7.4183     |   0.0 |  0.64
Output  | 0.79115    | 0.79115    | 0.79115    |   0.0 |  0.07
Modify  | 8.9836     | 8.9836     | 8.9836     |   0.0 |  0.77
Other   |            | 2.696      |            |       |  0.23

Nlocal:    19652 ave 19652 max 19652 min
Histogram: 1 0 0 0 0 0 0 0 0 0
Nghost:    18848 ave 18848 max 18848 min
Histogram: 1 0 0 0 0 0 0 0 0 0
Neighs:    1.5766e+06 ave 1.5766e+06 max 1.5766e+06 min
Histogram: 1 0 0 0 0 0 0 0 0 0

Total # of neighbors = 1576595
Ave neighs/atom = 80.2257
Neighbor list builds = 8000
Dangerous builds not checked
Setting up Verlet run ...
  Unit style    : metal
  Current step  : 10000
  Time step     : 0.001
Per MPI rank memory allocation (min/avg/max) = 18.56 | 18.56 | 18.56 Mbytes
Step Temp Press TotEng PotEng Enthalpy Volume 
   10000     2446.016     679.5135   -53130.624   -59343.728   -53011.745    280296.18 
   10005    2441.0556    829.05893   -53130.579   -59331.083   -52985.538     280296.5 
   10672    2457.7854    1268.9149   -53078.817   -59321.816   -52856.889    280214.96 
   11339    2462.3179    345.19818     -53043.6   -59298.112   -52983.149    280573.28 
   12006    2461.7075   -656.81546    -52952.89   -59205.852    -53068.26    281423.44 
   12673    2434.9395     1508.732   -53174.969   -59359.937   -52911.357    279938.67 
   13340    2458.3768    1313.5274   -53070.371   -59314.872    -52840.64    280214.54 
   14007    2446.2097   -488.25663   -53013.154   -59226.749   -53098.826    281126.83 
   14674    2437.6157    192.65161   -53067.545   -59259.311    -53033.77    280889.15 
   15341    2463.4423    1539.9748   -53021.373    -59278.74   -52751.891    280365.87 
   16008    2404.9471   -2212.3141    -53174.74   -59283.525   -53562.909    281115.47 
   16675    2465.4858    1039.7726   -52984.756   -59247.314   -52802.682    280556.04 
   17342    2459.3757    313.53698   -52988.909   -59235.947    -52933.93    280942.58 
   18009    2429.6911    1424.8707    -53092.22   -59263.856   -52842.731    280533.68 
   18676    2459.1706    1281.0705   -53047.435   -59293.953    -52823.27    280352.61 
   19343    2442.3329    308.88315   -53098.054   -59301.802   -53043.951    280630.77 
   20010     2452.608    2372.4807   -53069.178   -59299.026   -52654.475     280055.8 
   20677    2464.1503    754.24779   -53016.312   -59275.479   -52884.232    280566.54 
   21344    2434.5401   -469.39188   -53114.426   -59298.379   -53196.636     280609.7 
   22011    2470.5408    1357.8792   -52937.434   -59212.833    -52699.44    280811.22 
   22678    2443.3569   -1777.5359   -53091.479   -59297.829   -53403.235    281000.02 
   23345    2436.0451   -889.50574   -53014.641   -59202.417   -53170.862    281384.76 
   24012    2454.9497   -1069.0805    -53048.66   -59284.456   -53236.181    281027.65 
   24679     2426.571     1229.442   -53078.835   -59242.546   -52863.452    280680.67 
   25346    2444.5506    1290.6685   -53132.873   -59342.255   -52907.381    279916.22 
   26013    2436.1174    348.03182   -53144.531   -59332.491   -53083.635    280335.24 
   26680    2461.1496   -690.12095   -52980.445   -59231.989   -53101.535    281120.49 
   27347    2461.5269    396.35991   -52993.106   -59245.609   -52923.635    280816.14 
   28014    2433.8968    2269.9816   -53139.356   -59321.676    -52742.86    279851.09 
   28681    2448.2223   -1861.3239   -53104.433   -59323.141   -53430.676    280820.49 
   29348    2472.9615    854.58409   -52962.412   -59243.959   -52812.633    280805.63 
   30015    2454.8227   -2992.8205    -53101.22   -59336.693   -53626.286    281088.79 
   30682    2441.0724   -28.606091   -52977.075   -59177.621   -52982.095    281164.42 
   31349    2426.8561    815.05351    -53019.11   -59183.546   -52876.128    281064.05 
   32016    2424.6591    1070.9527    -53109.27   -59268.125   -52921.856    280377.93 
   32683    2422.1957    464.33493   -53188.252   -59340.849    -53107.06     280148.5 
   33350     2426.742    1409.6484   -53102.506   -59266.652    -52855.88    280309.23 
   34017    2436.8739   -1676.6194   -53045.091   -59234.973   -53339.576    281409.34 
   34684    2451.3662    1331.8977   -52999.281   -59225.974   -52765.959    280669.46 
   35351    2450.9923     510.3929   -53066.836   -59292.579    -52977.47    280528.88 
   36018    2463.7825    660.11812   -53072.231   -59330.463   -52956.738    280312.22 
   36685    2461.5642     370.9237   -53048.576   -59301.173    -52983.65    280441.66 
   37352    2445.2811   -864.99782   -53052.851   -59264.088    -53204.54    280962.97 
   38019    2454.8958   -2566.8674   -53027.282   -59262.941   -53478.028    281344.67 
   38686    2451.2373   -1151.6107   -53165.066   -59391.432   -53366.445    280168.64 
   39353    2441.6466    1013.1314   -53025.089   -59227.093   -52847.627    280639.03 
   40000    2440.6927   -728.28562    -52977.46   -59177.042   -53105.393    281444.19 
Loop time of 4096.21 on 1 procs for 30000 steps with 19652 atoms

Performance: 0.633 ns/day, 37.928 hours/ns, 7.324 timesteps/s
99.8% CPU use with 1 MPI tasks x no OpenMP threads

MPI task timing breakdown:
Section |  min time  |  avg time  |  max time  |%varavg| %total
---------------------------------------------------------------
Pair    | 2132       | 2132       | 2132       |   0.0 | 52.05
Neigh   | 1894.1     | 1894.1     | 1894.1     |   0.0 | 46.24
Comm    | 26.18      | 26.18      | 26.18      |   0.0 |  0.64
Output  | 2.8754     | 2.8754     | 2.8754     |   0.0 |  0.07
Modify  | 31.889     | 31.889     | 31.889     |   0.0 |  0.78
Other   |            | 9.097      |            |       |  0.22

Nlocal:    19652 ave 19652 max 19652 min
Histogram: 1 0 0 0 0 0 0 0 0 0
Nghost:    18690 ave 18690 max 18690 min
Histogram: 1 0 0 0 0 0 0 0 0 0
Neighs:    1.57149e+06 ave 1.57149e+06 max 1.57149e+06 min
Histogram: 1 0 0 0 0 0 0 0 0 0

Total # of neighbors = 1571490
Ave neighs/atom = 79.9659
Neighbor list builds = 30000
Dangerous builds not checked
Setting up Verlet run ...
  Unit style    : metal
  Current step  : 40000
  Time step     : 0.001
Per MPI rank memory allocation (min/avg/max) = 18.56 | 18.56 | 18.56 Mbytes
Step Temp Press TotEng PotEng Enthalpy Volume 
   40000    2440.6927   -728.28562    -52977.46   -59177.042   -53105.393    281444.19 
   40020    2443.4827   -866.85317   -52976.775   -59183.444   -53129.047    281438.39 
   40495    2419.6977     305.9214   -53296.117    -59442.37   -53242.733    279586.46 
Loop time of 73.0991 on 1 procs for 495 steps with 19652 atoms

Performance: 0.585 ns/day, 41.021 hours/ns, 6.772 timesteps/s
100.0% CPU use with 1 MPI tasks x no OpenMP threads

MPI task timing breakdown:
Section |  min time  |  avg time  |  max time  |%varavg| %total
---------------------------------------------------------------
Pair    | 38.295     | 38.295     | 38.295     |   0.0 | 52.39
Neigh   | 33.52      | 33.52      | 33.52      |   0.0 | 45.86
Comm    | 0.46288    | 0.46288    | 0.46288    |   0.0 |  0.63
Output  | 0.05531    | 0.05531    | 0.05531    |   0.0 |  0.08
Modify  | 0.59247    | 0.59247    | 0.59247    |   0.0 |  0.81
Other   |            | 0.1736     |            |       |  0.24

Nlocal:    19652 ave 19652 max 19652 min
Histogram: 1 0 0 0 0 0 0 0 0 0
Nghost:    18770 ave 18770 max 18770 min
Histogram: 1 0 0 0 0 0 0 0 0 0
Neighs:    1.58115e+06 ave 1.58115e+06 max 1.58115e+06 min
Histogram: 1 0 0 0 0 0 0 0 0 0

Total # of neighbors = 1581148
Ave neighs/atom = 80.4574
Neighbor list builds = 495
Dangerous builds not checked
Setting up Verlet run ...
  Unit style    : metal
  Current step  : 40495
  Time step     : 0.001
Per MPI rank memory allocation (min/avg/max) = 18.56 | 18.56 | 18.56 Mbytes
Step Temp Press TotEng PotEng Enthalpy Volume 
   40495    2419.6977     305.9214   -53296.117    -59442.37   -53242.733    279586.46 
   40667    2397.1579    23.623908   -53368.746   -59457.746   -53364.622    279713.14 
Loop time of 20.8422 on 1 procs for 172 steps with 19652 atoms

Performance: 0.713 ns/day, 33.660 hours/ns, 8.252 timesteps/s
100.0% CPU use with 1 MPI tasks x no OpenMP threads

MPI task timing breakdown:
Section |  min time  |  avg time  |  max time  |%varavg| %total
---------------------------------------------------------------
Pair    | 10.805     | 10.805     | 10.805     |   0.0 | 51.84
Neigh   | 9.6837     | 9.6837     | 9.6837     |   0.0 | 46.46
Comm    | 0.134      | 0.134      | 0.134      |   0.0 |  0.64
Output  | 0.00012589 | 0.00012589 | 0.00012589 |   0.0 |  0.00
Modify  | 0.16866    | 0.16866    | 0.16866    |   0.0 |  0.81
Other   |            | 0.05118    |            |       |  0.25

Nlocal:    19652 ave 19652 max 19652 min
Histogram: 1 0 0 0 0 0 0 0 0 0
Nghost:    18807 ave 18807 max 18807 min
Histogram: 1 0 0 0 0 0 0 0 0 0
Neighs:    1.57976e+06 ave 1.57976e+06 max 1.57976e+06 min
Histogram: 1 0 0 0 0 0 0 0 0 0

Total # of neighbors = 1579759
Ave neighs/atom = 80.3867
Neighbor list builds = 172
Dangerous builds not checked
Setting up Verlet run ...
  Unit style    : metal
  Current step  : 40667
  Time step     : 0.001
Per MPI rank memory allocation (min/avg/max) = 18.56 | 18.56 | 18.56 Mbytes
Step Temp Press TotEng PotEng Enthalpy Volume 
   40667    2397.1579    23.623908   -53368.746   -59457.746   -53364.622    279713.14 
   40687    2404.0857   -588.05115   -53368.704   -59475.301   -53471.368    279711.82 
   41162    2357.6868   -59.704005   -53578.528   -59567.268   -53588.923    278943.13 
Loop time of 72.022 on 1 procs for 495 steps with 19652 atoms

Performance: 0.594 ns/day, 40.416 hours/ns, 6.873 timesteps/s
99.9% CPU use with 1 MPI tasks x no OpenMP threads

MPI task timing breakdown:
Section |  min time  |  avg time  |  max time  |%varavg| %total
---------------------------------------------------------------
Pair    | 37.738     | 37.738     | 37.738     |   0.0 | 52.40
Neigh   | 32.997     | 32.997     | 32.997     |   0.0 | 45.81
Comm    | 0.46532    | 0.46532    | 0.46532    |   0.0 |  0.65
Output  | 0.059642   | 0.059642   | 0.059642   |   0.0 |  0.08
Modify  | 0.58879    | 0.58879    | 0.58879    |   0.0 |  0.82
Other   |            | 0.1736     |            |       |  0.24

Nlocal:    19652 ave 19652 max 19652 min
Histogram: 1 0 0 0 0 0 0 0 0 0
Nghost:    18855 ave 18855 max 18855 min
Histogram: 1 0 0 0 0 0 0 0 0 0
Neighs:    1.58414e+06 ave 1.58414e+06 max 1.58414e+06 min
Histogram: 1 0 0 0 0 0 0 0 0 0

Total # of neighbors = 1584137
Ave neighs/atom = 80.6095
Neighbor list builds = 495
Dangerous builds not checked
Setting up Verlet run ...
  Unit style    : metal
  Current step  : 41162
  Time step     : 0.001
Per MPI rank memory allocation (min/avg/max) = 18.56 | 18.56 | 18.56 Mbytes
Step Temp Press TotEng PotEng Enthalpy Volume 
   41162    2357.6868   -59.704005   -53578.528   -59567.268   -53588.923    278943.13 
   41334    2347.7751   -1293.0568   -53655.405   -59618.968   -53880.536    278950.42 
Loop time of 22.8367 on 1 procs for 172 steps with 19652 atoms

Performance: 0.651 ns/day, 36.881 hours/ns, 7.532 timesteps/s
100.0% CPU use with 1 MPI tasks x no OpenMP threads

MPI task timing breakdown:
Section |  min time  |  avg time  |  max time  |%varavg| %total
---------------------------------------------------------------
Pair    | 11.878     | 11.878     | 11.878     |   0.0 | 52.01
Neigh   | 10.57      | 10.57      | 10.57      |   0.0 | 46.28
Comm    | 0.14472    | 0.14472    | 0.14472    |   0.0 |  0.63
Output  | 0.000139   | 0.000139   | 0.000139   |   0.0 |  0.00
Modify  | 0.18848    | 0.18848    | 0.18848    |   0.0 |  0.83
Other   |            | 0.05561    |            |       |  0.24

Nlocal:    19652 ave 19652 max 19652 min
Histogram: 1 0 0 0 0 0 0 0 0 0
Nghost:    18832 ave 18832 max 18832 min
Histogram: 1 0 0 0 0 0 0 0 0 0
Neighs:    1.58364e+06 ave 1.58364e+06 max 1.58364e+06 min
Histogram: 1 0 0 0 0 0 0 0 0 0

Total # of neighbors = 1583639
Ave neighs/atom = 80.5841
Neighbor list builds = 172
Dangerous builds not checked
Setting up Verlet run ...
  Unit style    : metal
  Current step  : 41334
  Time step     : 0.001
Per MPI rank memory allocation (min/avg/max) = 18.56 | 18.56 | 18.56 Mbytes
Step Temp Press TotEng PotEng Enthalpy Volume 
   41334    2347.7751   -1293.0568   -53655.405   -59618.968   -53880.536    278950.42 
   41354    2348.7635   -1368.1326   -53655.494   -59621.567   -53893.687    278940.42 
   41829    2299.5563    113.62817   -53932.972   -59774.054   -53913.288    277540.51 
Loop time of 68.528 on 1 procs for 495 steps with 19652 atoms

Performance: 0.624 ns/day, 38.456 hours/ns, 7.223 timesteps/s
99.9% CPU use with 1 MPI tasks x no OpenMP threads

MPI task timing breakdown:
Section |  min time  |  avg time  |  max time  |%varavg| %total
---------------------------------------------------------------
Pair    | 35.843     | 35.843     | 35.843     |   0.0 | 52.30
Neigh   | 31.481     | 31.481     | 31.481     |   0.0 | 45.94
Comm    | 0.43688    | 0.43688    | 0.43688    |   0.0 |  0.64
Output  | 0.059573   | 0.059573   | 0.059573   |   0.0 |  0.09
Modify  | 0.54485    | 0.54485    | 0.54485    |   0.0 |  0.80
Other   |            | 0.1627     |            |       |  0.24

Nlocal:    19652 ave 19652 max 19652 min
Histogram: 1 0 0 0 0 0 0 0 0 0
Nghost:    18885 ave 18885 max 18885 min
Histogram: 1 0 0 0 0 0 0 0 0 0
Neighs:    1.59263e+06 ave 1.59263e+06 max 1.59263e+06 min
Histogram: 1 0 0 0 0 0 0 0 0 0

Total # of neighbors = 1592626
Ave neighs/atom = 81.0414
Neighbor list builds = 495
Dangerous builds not checked
Setting up Verlet run ...
  Unit style    : metal
  Current step  : 41829
  Time step     : 0.001
Per MPI rank memory allocation (min/avg/max) = 18.56 | 18.56 | 18.56 Mbytes
Step Temp Press TotEng PotEng Enthalpy Volume 
   41829    2299.5563    113.62817   -53932.972   -59774.054   -53913.288    277540.51 
   42001    2306.0432    155.00493   -53927.384   -59784.944   -53900.518    277692.66 
Loop time of 24.5551 on 1 procs for 172 steps with 19652 atoms

Performance: 0.605 ns/day, 39.656 hours/ns, 7.005 timesteps/s
99.9% CPU use with 1 MPI tasks x no OpenMP threads

MPI task timing breakdown:
Section |  min time  |  avg time  |  max time  |%varavg| %total
---------------------------------------------------------------
Pair    | 12.941     | 12.941     | 12.941     |   0.0 | 52.70
Neigh   | 11.197     | 11.197     | 11.197     |   0.0 | 45.60
Comm    | 0.15984    | 0.15984    | 0.15984    |   0.0 |  0.65
Output  | 0.00013804 | 0.00013804 | 0.00013804 |   0.0 |  0.00
Modify  | 0.19924    | 0.19924    | 0.19924    |   0.0 |  0.81
Other   |            | 0.0585     |            |       |  0.24

Nlocal:    19652 ave 19652 max 19652 min
Histogram: 1 0 0 0 0 0 0 0 0 0
Nghost:    18804 ave 18804 max 18804 min
Histogram: 1 0 0 0 0 0 0 0 0 0
Neighs:    1.59163e+06 ave 1.59163e+06 max 1.59163e+06 min
Histogram: 1 0 0 0 0 0 0 0 0 0

Total # of neighbors = 1591629
Ave neighs/atom = 80.9907
Neighbor list builds = 172
Dangerous builds not checked
Setting up Verlet run ...
  Unit style    : metal
  Current step  : 42001
  Time step     : 0.001
Per MPI rank memory allocation (min/avg/max) = 18.56 | 18.56 | 18.56 Mbytes
Step Temp Press TotEng PotEng Enthalpy Volume 
   42001    2306.0432    155.00493   -53927.384   -59784.944   -53900.518    277692.66 
   42021    2303.1666    51.818416   -53928.365   -59778.618   -53919.384    277692.56 
   42496    2264.5705    609.27742   -54206.637   -59958.852   -54101.496     276480.6 
Loop time of 69.1947 on 1 procs for 495 steps with 19652 atoms

Performance: 0.618 ns/day, 38.830 hours/ns, 7.154 timesteps/s
99.0% CPU use with 1 MPI tasks x no OpenMP threads

MPI task timing breakdown:
Section |  min time  |  avg time  |  max time  |%varavg| %total
---------------------------------------------------------------
Pair    | 36.322     | 36.322     | 36.322     |   0.0 | 52.49
Neigh   | 31.639     | 31.639     | 31.639     |   0.0 | 45.72
Comm    | 0.43859    | 0.43859    | 0.43859    |   0.0 |  0.63
Output  | 0.092362   | 0.092362   | 0.092362   |   0.0 |  0.13
Modify  | 0.54348    | 0.54348    | 0.54348    |   0.0 |  0.79
Other   |            | 0.1595     |            |       |  0.23

Nlocal:    19652 ave 19652 max 19652 min
Histogram: 1 0 0 0 0 0 0 0 0 0
Nghost:    18878 ave 18878 max 18878 min
Histogram: 1 0 0 0 0 0 0 0 0 0
Neighs:    1.59795e+06 ave 1.59795e+06 max 1.59795e+06 min
Histogram: 1 0 0 0 0 0 0 0 0 0

Total # of neighbors = 1597948
Ave neighs/atom = 81.3122
Neighbor list builds = 495
Dangerous builds not checked
Setting up Verlet run ...
  Unit style    : metal
  Current step  : 42496
  Time step     : 0.001
Per MPI rank memory allocation (min/avg/max) = 18.56 | 18.56 | 18.56 Mbytes
Step Temp Press TotEng PotEng Enthalpy Volume 
   42496    2264.5705    609.27742   -54206.637   -59958.852   -54101.496     276480.6 
   42668    2258.1535   -1194.3152   -54299.072   -60034.987   -54505.199    276519.46 
Loop time of 21.4974 on 1 procs for 172 steps with 19652 atoms

Performance: 0.691 ns/day, 34.718 hours/ns, 8.001 timesteps/s
100.0% CPU use with 1 MPI tasks x no OpenMP threads

MPI task timing breakdown:
Section |  min time  |  avg time  |  max time  |%varavg| %total
---------------------------------------------------------------
Pair    | 11.205     | 11.205     | 11.205     |   0.0 | 52.12
Neigh   | 9.9281     | 9.9281     | 9.9281     |   0.0 | 46.18
Comm    | 0.13793    | 0.13793    | 0.13793    |   0.0 |  0.64
Output  | 0.00012302 | 0.00012302 | 0.00012302 |   0.0 |  0.00
Modify  | 0.17403    | 0.17403    | 0.17403    |   0.0 |  0.81
Other   |            | 0.05188    |            |       |  0.24

Nlocal:    19652 ave 19652 max 19652 min
Histogram: 1 0 0 0 0 0 0 0 0 0
Nghost:    18874 ave 18874 max 18874 min
Histogram: 1 0 0 0 0 0 0 0 0 0
Neighs:    1.59789e+06 ave 1.59789e+06 max 1.59789e+06 min
Histogram: 1 0 0 0 0 0 0 0 0 0

Total # of neighbors = 1597891
Ave neighs/atom = 81.3093
Neighbor list builds = 172
Dangerous builds not checked
Setting up Verlet run ...
  Unit style    : metal
  Current step  : 42668
  Time step     : 0.001
Per MPI rank memory allocation (min/avg/max) = 18.56 | 18.56 | 18.56 Mbytes
Step Temp Press TotEng PotEng Enthalpy Volume 
   42668    2258.1535   -1194.3152   -54299.072   -60034.987   -54505.199    276519.46 
   42688    2227.3594    79.663683   -54298.714    -59956.41   -54284.965    276514.24 
   43163     2207.815    510.47063   -54494.595   -60102.646   -54406.814    275511.72 
Loop time of 63.0446 on 1 procs for 495 steps with 19652 atoms

Performance: 0.678 ns/day, 35.379 hours/ns, 7.852 timesteps/s
100.0% CPU use with 1 MPI tasks x no OpenMP threads

MPI task timing breakdown:
Section |  min time  |  avg time  |  max time  |%varavg| %total
---------------------------------------------------------------
Pair    | 32.998     | 32.998     | 32.998     |   0.0 | 52.34
Neigh   | 28.922     | 28.922     | 28.922     |   0.0 | 45.88
Comm    | 0.40688    | 0.40688    | 0.40688    |   0.0 |  0.65
Output  | 0.060258   | 0.060258   | 0.060258   |   0.0 |  0.10
Modify  | 0.50561    | 0.50561    | 0.50561    |   0.0 |  0.80
Other   |            | 0.1513     |            |       |  0.24

Nlocal:    19652 ave 19652 max 19652 min
Histogram: 1 0 0 0 0 0 0 0 0 0
Nghost:    18951 ave 18951 max 18951 min
Histogram: 1 0 0 0 0 0 0 0 0 0
Neighs:    1.60264e+06 ave 1.60264e+06 max 1.60264e+06 min
Histogram: 1 0 0 0 0 0 0 0 0 0

Total # of neighbors = 1602639
Ave neighs/atom = 81.5509
Neighbor list builds = 495
Dangerous builds not checked
Setting up Verlet run ...
  Unit style    : metal
  Current step  : 43163
  Time step     : 0.001
Per MPI rank memory allocation (min/avg/max) = 18.56 | 18.56 | 18.56 Mbytes
Step Temp Press TotEng PotEng Enthalpy Volume 
   43163     2207.815    510.47063   -54494.595   -60102.646   -54406.814    275511.72 
   43335    2207.5034   -1293.7466   -54584.017   -60191.277     -54806.5    275522.21 
Loop time of 21.3939 on 1 procs for 172 steps with 19652 atoms

Performance: 0.695 ns/day, 34.551 hours/ns, 8.040 timesteps/s
100.0% CPU use with 1 MPI tasks x no OpenMP threads

MPI task timing breakdown:
Section |  min time  |  avg time  |  max time  |%varavg| %total
---------------------------------------------------------------
Pair    | 11.199     | 11.199     | 11.199     |   0.0 | 52.35
Neigh   | 9.8313     | 9.8313     | 9.8313     |   0.0 | 45.95
Comm    | 0.13745    | 0.13745    | 0.13745    |   0.0 |  0.64
Output  | 0.00014281 | 0.00014281 | 0.00014281 |   0.0 |  0.00
Modify  | 0.17357    | 0.17357    | 0.17357    |   0.0 |  0.81
Other   |            | 0.05213    |            |       |  0.24

Nlocal:    19652 ave 19652 max 19652 min
Histogram: 1 0 0 0 0 0 0 0 0 0
Nghost:    18904 ave 18904 max 18904 min
Histogram: 1 0 0 0 0 0 0 0 0 0
Neighs:    1.60296e+06 ave 1.60296e+06 max 1.60296e+06 min
Histogram: 1 0 0 0 0 0 0 0 0 0

Total # of neighbors = 1602961
Ave neighs/atom = 81.5673
Neighbor list builds = 172
Dangerous builds not checked
Setting up Verlet run ...
  Unit style    : metal
  Current step  : 43335
  Time step     : 0.001
Per MPI rank memory allocation (min/avg/max) = 18.56 | 18.56 | 18.56 Mbytes
Step Temp Press TotEng PotEng Enthalpy Volume 
   43335    2207.5034   -1293.7466   -54584.017   -60191.277     -54806.5    275522.21 
   43355    2203.2863   -1032.1023   -54584.838   -60181.386   -54762.319    275512.33 
   43830    2149.2256   -344.83904   -54805.915   -60265.143   -54865.055    274775.98 
Loop time of 63.8931 on 1 procs for 495 steps with 19652 atoms

Performance: 0.669 ns/day, 35.855 hours/ns, 7.747 timesteps/s
100.0% CPU use with 1 MPI tasks x no OpenMP threads

MPI task timing breakdown:
Section |  min time  |  avg time  |  max time  |%varavg| %total
---------------------------------------------------------------
Pair    | 33.479     | 33.479     | 33.479     |   0.0 | 52.40
Neigh   | 29.291     | 29.291     | 29.291     |   0.0 | 45.84
Comm    | 0.41006    | 0.41006    | 0.41006    |   0.0 |  0.64
Output  | 0.057195   | 0.057195   | 0.057195   |   0.0 |  0.09
Modify  | 0.5063     | 0.5063     | 0.5063     |   0.0 |  0.79
Other   |            | 0.1503     |            |       |  0.24

Nlocal:    19652 ave 19652 max 19652 min
Histogram: 1 0 0 0 0 0 0 0 0 0
Nghost:    18986 ave 18986 max 18986 min
Histogram: 1 0 0 0 0 0 0 0 0 0
Neighs:    1.60697e+06 ave 1.60697e+06 max 1.60697e+06 min
Histogram: 1 0 0 0 0 0 0 0 0 0

Total # of neighbors = 1606968
Ave neighs/atom = 81.7712
Neighbor list builds = 495
Dangerous builds not checked
Setting up Verlet run ...
  Unit style    : metal
  Current step  : 43830
  Time step     : 0.001
Per MPI rank memory allocation (min/avg/max) = 18.56 | 18.56 | 18.56 Mbytes
Step Temp Press TotEng PotEng Enthalpy Volume 
   43830    2149.2256   -344.83904   -54805.915   -60265.143   -54865.055    274775.98 
   44002    2143.3579   -362.24399    -54888.49   -60332.815   -54950.516    274334.12 
Loop time of 20.8202 on 1 procs for 172 steps with 19652 atoms

Performance: 0.714 ns/day, 33.624 hours/ns, 8.261 timesteps/s
100.0% CPU use with 1 MPI tasks x no OpenMP threads

MPI task timing breakdown:
Section |  min time  |  avg time  |  max time  |%varavg| %total
---------------------------------------------------------------
Pair    | 10.87      | 10.87      | 10.87      |   0.0 | 52.21
Neigh   | 9.5983     | 9.5983     | 9.5983     |   0.0 | 46.10
Comm    | 0.13445    | 0.13445    | 0.13445    |   0.0 |  0.65
Output  | 0.00013304 | 0.00013304 | 0.00013304 |   0.0 |  0.00
Modify  | 0.1672     | 0.1672     | 0.1672     |   0.0 |  0.80
Other   |            | 0.04987    |            |       |  0.24

Nlocal:    19652 ave 19652 max 19652 min
Histogram: 1 0 0 0 0 0 0 0 0 0
Nghost:    18906 ave 18906 max 18906 min
Histogram: 1 0 0 0 0 0 0 0 0 0
Neighs:    1.61036e+06 ave 1.61036e+06 max 1.61036e+06 min
Histogram: 1 0 0 0 0 0 0 0 0 0

Total # of neighbors = 1610362
Ave neighs/atom = 81.9439
Neighbor list builds = 172
Dangerous builds not checked
Setting up Verlet run ...
  Unit style    : metal
  Current step  : 44002
  Time step     : 0.001
Per MPI rank memory allocation (min/avg/max) = 18.56 | 18.56 | 18.56 Mbytes
Step Temp Press TotEng PotEng Enthalpy Volume 
   44002    2143.3579   -362.24399    -54888.49   -60332.815   -54950.516    274334.12 
   44022    2165.0022   -1491.5384   -54888.753   -60388.056   -55144.138    274328.19 
   44497    2115.3337   -1264.2241   -55141.635   -60514.775   -55357.522    273598.27 
Loop time of 63.6545 on 1 procs for 495 steps with 19652 atoms

Performance: 0.672 ns/day, 35.721 hours/ns, 7.776 timesteps/s
100.0% CPU use with 1 MPI tasks x no OpenMP threads

MPI task timing breakdown:
Section |  min time  |  avg time  |  max time  |%varavg| %total
---------------------------------------------------------------
Pair    | 33.358     | 33.358     | 33.358     |   0.0 | 52.40
Neigh   | 29.181     | 29.181     | 29.181     |   0.0 | 45.84
Comm    | 0.4056     | 0.4056     | 0.4056     |   0.0 |  0.64
Output  | 0.055684   | 0.055684   | 0.055684   |   0.0 |  0.09
Modify  | 0.50634    | 0.50634    | 0.50634    |   0.0 |  0.80
Other   |            | 0.1477     |            |       |  0.23

Nlocal:    19652 ave 19652 max 19652 min
Histogram: 1 0 0 0 0 0 0 0 0 0
Nghost:    18952 ave 18952 max 18952 min
Histogram: 1 0 0 0 0 0 0 0 0 0
Neighs:    1.61348e+06 ave 1.61348e+06 max 1.61348e+06 min
Histogram: 1 0 0 0 0 0 0 0 0 0

Total # of neighbors = 1613485
Ave neighs/atom = 82.1028
Neighbor list builds = 495
Dangerous builds not checked
Setting up Verlet run ...
  Unit style    : metal
  Current step  : 44497
  Time step     : 0.001
Per MPI rank memory allocation (min/avg/max) = 18.56 | 18.56 | 18.56 Mbytes
Step Temp Press TotEng PotEng Enthalpy Volume 
   44497    2115.3337   -1264.2241   -55141.635   -60514.775   -55357.522    273598.27 
   44669    2106.5313     -116.405    -55219.49   -60570.271    -55239.33    273080.61 
Loop time of 20.9213 on 1 procs for 172 steps with 19652 atoms

Performance: 0.710 ns/day, 33.788 hours/ns, 8.221 timesteps/s
100.0% CPU use with 1 MPI tasks x no OpenMP threads

MPI task timing breakdown:
Section |  min time  |  avg time  |  max time  |%varavg| %total
---------------------------------------------------------------
Pair    | 10.951     | 10.951     | 10.951     |   0.0 | 52.34
Neigh   | 9.6181     | 9.6181     | 9.6181     |   0.0 | 45.97
Comm    | 0.13437    | 0.13437    | 0.13437    |   0.0 |  0.64
Output  | 0.00012779 | 0.00012779 | 0.00012779 |   0.0 |  0.00
Modify  | 0.16782    | 0.16782    | 0.16782    |   0.0 |  0.80
Other   |            | 0.05023    |            |       |  0.24

Nlocal:    19652 ave 19652 max 19652 min
Histogram: 1 0 0 0 0 0 0 0 0 0
Nghost:    18891 ave 18891 max 18891 min
Histogram: 1 0 0 0 0 0 0 0 0 0
Neighs:    1.61644e+06 ave 1.61644e+06 max 1.61644e+06 min
Histogram: 1 0 0 0 0 0 0 0 0 0

Total # of neighbors = 1616439
Ave neighs/atom = 82.2532
Neighbor list builds = 172
Dangerous builds not checked
Setting up Verlet run ...
  Unit style    : metal
  Current step  : 44669
  Time step     : 0.001
Per MPI rank memory allocation (min/avg/max) = 18.56 | 18.56 | 18.56 Mbytes
Step Temp Press TotEng PotEng Enthalpy Volume 
   44669    2106.5313     -116.405    -55219.49   -60570.271    -55239.33    273080.61 
   44689    2093.0392     397.8333    -55219.81    -60536.32   -55152.002    273080.99 
   45164    2050.4253    1382.7956   -55422.808   -60631.075     -55187.9     272175.8 
Loop time of 60.0388 on 1 procs for 495 steps with 19652 atoms

Performance: 0.712 ns/day, 33.692 hours/ns, 8.245 timesteps/s
99.9% CPU use with 1 MPI tasks x no OpenMP threads

MPI task timing breakdown:
Section |  min time  |  avg time  |  max time  |%varavg| %total
---------------------------------------------------------------
Pair    | 31.269     | 31.269     | 31.269     |   0.0 | 52.08
Neigh   | 27.723     | 27.723     | 27.723     |   0.0 | 46.17
Comm    | 0.37643    | 0.37643    | 0.37643    |   0.0 |  0.63
Output  | 0.059462   | 0.059462   | 0.059462   |   0.0 |  0.10
Modify  | 0.47601    | 0.47601    | 0.47601    |   0.0 |  0.79
Other   |            | 0.1355     |            |       |  0.23

Nlocal:    19652 ave 19652 max 19652 min
Histogram: 1 0 0 0 0 0 0 0 0 0
Nghost:    19068 ave 19068 max 19068 min
Histogram: 1 0 0 0 0 0 0 0 0 0
Neighs:    1.62173e+06 ave 1.62173e+06 max 1.62173e+06 min
Histogram: 1 0 0 0 0 0 0 0 0 0

Total # of neighbors = 1621730
Ave neighs/atom = 82.5224
Neighbor list builds = 495
Dangerous builds not checked
Setting up Verlet run ...
  Unit style    : metal
  Current step  : 45164
  Time step     : 0.001
Per MPI rank memory allocation (min/avg/max) = 18.56 | 18.56 | 18.56 Mbytes
Step Temp Press TotEng PotEng Enthalpy Volume 
   45164    2050.4253    1382.7956   -55422.808   -60631.075     -55187.9     272175.8 
   45336    2037.6526   -357.96856   -55491.351   -60667.174   -55552.223    272448.56 
Loop time of 20.804 on 1 procs for 172 steps with 19652 atoms

Performance: 0.714 ns/day, 33.598 hours/ns, 8.268 timesteps/s
100.0% CPU use with 1 MPI tasks x no OpenMP threads

MPI task timing breakdown:
Section |  min time  |  avg time  |  max time  |%varavg| %total
---------------------------------------------------------------
Pair    | 10.831     | 10.831     | 10.831     |   0.0 | 52.06
Neigh   | 9.634      | 9.634      | 9.634      |   0.0 | 46.31
Comm    | 0.12846    | 0.12846    | 0.12846    |   0.0 |  0.62
Output  | 0.00012112 | 0.00012112 | 0.00012112 |   0.0 |  0.00
Modify  | 0.16584    | 0.16584    | 0.16584    |   0.0 |  0.80
Other   |            | 0.04457    |            |       |  0.21

Nlocal:    19652 ave 19652 max 19652 min
Histogram: 1 0 0 0 0 0 0 0 0 0
Nghost:    19106 ave 19106 max 19106 min
Histogram: 1 0 0 0 0 0 0 0 0 0
Neighs:    1.62073e+06 ave 1.62073e+06 max 1.62073e+06 min
Histogram: 1 0 0 0 0 0 0 0 0 0

Total # of neighbors = 1620729
Ave neighs/atom = 82.4715
Neighbor list builds = 172
Dangerous builds not checked
Setting up Verlet run ...
  Unit style    : metal
  Current step  : 45336
  Time step     : 0.001
Per MPI rank memory allocation (min/avg/max) = 18.56 | 18.56 | 18.56 Mbytes
Step Temp Press TotEng PotEng Enthalpy Volume 
   45336    2037.6526   -357.96856   -55491.351   -60667.174   -55552.223    272448.56 
   45356     2046.015   -808.77165   -55490.527   -60687.592   -55628.056     272444.1 
   45831    2000.5447   -233.68923   -55781.525   -60863.091   -55821.088    271242.95 
Loop time of 62.0882 on 1 procs for 495 steps with 19652 atoms

Performance: 0.689 ns/day, 34.842 hours/ns, 7.973 timesteps/s
99.7% CPU use with 1 MPI tasks x no OpenMP threads

MPI task timing breakdown:
Section |  min time  |  avg time  |  max time  |%varavg| %total
---------------------------------------------------------------
Pair    | 32.158     | 32.158     | 32.158     |   0.0 | 51.79
Neigh   | 28.721     | 28.721     | 28.721     |   0.0 | 46.26
Comm    | 0.38299    | 0.38299    | 0.38299    |   0.0 |  0.62
Output  | 0.20649    | 0.20649    | 0.20649    |   0.0 |  0.33
Modify  | 0.48733    | 0.48733    | 0.48733    |   0.0 |  0.78
Other   |            | 0.1319     |            |       |  0.21

Nlocal:    19652 ave 19652 max 19652 min
Histogram: 1 0 0 0 0 0 0 0 0 0
Nghost:    19016 ave 19016 max 19016 min
Histogram: 1 0 0 0 0 0 0 0 0 0
Neighs:    1.62724e+06 ave 1.62724e+06 max 1.62724e+06 min
Histogram: 1 0 0 0 0 0 0 0 0 0

Total # of neighbors = 1627240
Ave neighs/atom = 82.8028
Neighbor list builds = 495
Dangerous builds not checked
Setting up Verlet run ...
  Unit style    : metal
  Current step  : 45831
  Time step     : 0.001
Per MPI rank memory allocation (min/avg/max) = 18.56 | 18.56 | 18.56 Mbytes
Step Temp Press TotEng PotEng Enthalpy Volume 
   45831    2000.5447   -233.68923   -55781.525   -60863.091   -55821.088    271242.95 
   46003    1986.6467     16.54513   -55858.837   -60905.101   -55856.039    270917.96 
Loop time of 20.5344 on 1 procs for 172 steps with 19652 atoms

Performance: 0.724 ns/day, 33.163 hours/ns, 8.376 timesteps/s
100.0% CPU use with 1 MPI tasks x no OpenMP threads

MPI task timing breakdown:
Section |  min time  |  avg time  |  max time  |%varavg| %total
---------------------------------------------------------------
Pair    | 10.684     | 10.684     | 10.684     |   0.0 | 52.03
Neigh   | 9.5163     | 9.5163     | 9.5163     |   0.0 | 46.34
Comm    | 0.12604    | 0.12604    | 0.12604    |   0.0 |  0.61
Output  | 0.00011802 | 0.00011802 | 0.00011802 |   0.0 |  0.00
Modify  | 0.16343    | 0.16343    | 0.16343    |   0.0 |  0.80
Other   |            | 0.0442     |            |       |  0.22

Nlocal:    19652 ave 19652 max 19652 min
Histogram: 1 0 0 0 0 0 0 0 0 0
Nghost:    18947 ave 18947 max 18947 min
Histogram: 1 0 0 0 0 0 0 0 0 0
Neighs:    1.62862e+06 ave 1.62862e+06 max 1.62862e+06 min
Histogram: 1 0 0 0 0 0 0 0 0 0

Total # of neighbors = 1628618
Ave neighs/atom = 82.8729
Neighbor list builds = 172
Dangerous builds not checked
Setting up Verlet run ...
  Unit style    : metal
  Current step  : 46003
  Time step     : 0.001
Per MPI rank memory allocation (min/avg/max) = 18.56 | 18.56 | 18.56 Mbytes
Step Temp Press TotEng PotEng Enthalpy Volume 
   46003    1986.6467     16.54513   -55858.837   -60905.101   -55856.039    270917.96 
   46023    2003.9124   -813.02115   -55858.251   -60948.371   -55995.726    270915.66 
   46498    1955.2762   -13.564878   -56074.545   -61041.124   -56076.833    270237.34 
Loop time of 60.059 on 1 procs for 495 steps with 19652 atoms

Performance: 0.712 ns/day, 33.703 hours/ns, 8.242 timesteps/s
100.0% CPU use with 1 MPI tasks x no OpenMP threads

MPI task timing breakdown:
Section |  min time  |  avg time  |  max time  |%varavg| %total
---------------------------------------------------------------
Pair    | 31.156     | 31.156     | 31.156     |   0.0 | 51.88
Neigh   | 27.88      | 27.88      | 27.88      |   0.0 | 46.42
Comm    | 0.36829    | 0.36829    | 0.36829    |   0.0 |  0.61
Output  | 0.058907   | 0.058907   | 0.058907   |   0.0 |  0.10
Modify  | 0.46918    | 0.46918    | 0.46918    |   0.0 |  0.78
Other   |            | 0.1265     |            |       |  0.21

Nlocal:    19652 ave 19652 max 19652 min
Histogram: 1 0 0 0 0 0 0 0 0 0
Nghost:    19102 ave 19102 max 19102 min
Histogram: 1 0 0 0 0 0 0 0 0 0
Neighs:    1.633e+06 ave 1.633e+06 max 1.633e+06 min
Histogram: 1 0 0 0 0 0 0 0 0 0

Total # of neighbors = 1633001
Ave neighs/atom = 83.0959
Neighbor list builds = 495
Dangerous builds not checked
Setting up Verlet run ...
  Unit style    : metal
  Current step  : 46498
  Time step     : 0.001
Per MPI rank memory allocation (min/avg/max) = 18.56 | 18.56 | 18.56 Mbytes
Step Temp Press TotEng PotEng Enthalpy Volume 
   46498    1955.2762   -13.564878   -56074.545   -61041.124   -56076.833    270237.34 
   46670    1939.7156   -309.50929   -56145.604   -61072.658   -56197.775    270060.81 
Loop time of 20.7803 on 1 procs for 172 steps with 19652 atoms

Performance: 0.715 ns/day, 33.560 hours/ns, 8.277 timesteps/s
100.0% CPU use with 1 MPI tasks x no OpenMP threads

MPI task timing breakdown:
Section |  min time  |  avg time  |  max time  |%varavg| %total
---------------------------------------------------------------
Pair    | 10.854     | 10.854     | 10.854     |   0.0 | 52.23
Neigh   | 9.5895     | 9.5895     | 9.5895     |   0.0 | 46.15
Comm    | 0.12771    | 0.12771    | 0.12771    |   0.0 |  0.61
Output  | 0.00012112 | 0.00012112 | 0.00012112 |   0.0 |  0.00
Modify  | 0.16475    | 0.16475    | 0.16475    |   0.0 |  0.79
Other   |            | 0.04457    |            |       |  0.21

Nlocal:    19652 ave 19652 max 19652 min
Histogram: 1 0 0 0 0 0 0 0 0 0
Nghost:    19058 ave 19058 max 19058 min
Histogram: 1 0 0 0 0 0 0 0 0 0
Neighs:    1.63428e+06 ave 1.63428e+06 max 1.63428e+06 min
Histogram: 1 0 0 0 0 0 0 0 0 0

Total # of neighbors = 1634278
Ave neighs/atom = 83.1609
Neighbor list builds = 172
Dangerous builds not checked
Setting up Verlet run ...
  Unit style    : metal
  Current step  : 46670
  Time step     : 0.001
Per MPI rank memory allocation (min/avg/max) = 18.56 | 18.56 | 18.56 Mbytes
Step Temp Press TotEng PotEng Enthalpy Volume 
   46670    1939.7156   -309.50929   -56145.604   -61072.658   -56197.775    270060.81 
   46690    1947.6653   -613.00063   -56145.001   -61092.248   -56248.326    270057.29 
   47165    1907.6361    210.74877   -56412.133   -61257.702   -56376.742    269046.54 
Loop time of 60.9036 on 1 procs for 495 steps with 19652 atoms

Performance: 0.702 ns/day, 34.177 hours/ns, 8.128 timesteps/s
99.7% CPU use with 1 MPI tasks x no OpenMP threads

MPI task timing breakdown:
Section |  min time  |  avg time  |  max time  |%varavg| %total
---------------------------------------------------------------
Pair    | 31.697     | 31.697     | 31.697     |   0.0 | 52.04
Neigh   | 27.996     | 27.996     | 27.996     |   0.0 | 45.97
Comm    | 0.37167    | 0.37167    | 0.37167    |   0.0 |  0.61
Output  | 0.22981    | 0.22981    | 0.22981    |   0.0 |  0.38
Modify  | 0.4793     | 0.4793     | 0.4793     |   0.0 |  0.79
Other   |            | 0.1301     |            |       |  0.21

Nlocal:    19652 ave 19652 max 19652 min
Histogram: 1 0 0 0 0 0 0 0 0 0
Nghost:    19142 ave 19142 max 19142 min
Histogram: 1 0 0 0 0 0 0 0 0 0
Neighs:    1.63955e+06 ave 1.63955e+06 max 1.63955e+06 min
Histogram: 1 0 0 0 0 0 0 0 0 0

Total # of neighbors = 1639546
Ave neighs/atom = 83.429
Neighbor list builds = 495
Dangerous builds not checked
Setting up Verlet run ...
  Unit style    : metal
  Current step  : 47165
  Time step     : 0.001
Per MPI rank memory allocation (min/avg/max) = 18.56 | 18.56 | 18.56 Mbytes
Step Temp Press TotEng PotEng Enthalpy Volume 
   47165    1907.6361    210.74877   -56412.133   -61257.702   -56376.742    269046.54 
   47337    1895.2459     -484.715   -56471.061   -61285.158   -56552.427    268947.36 
Loop time of 23.1154 on 1 procs for 172 steps with 19652 atoms

Performance: 0.643 ns/day, 37.331 hours/ns, 7.441 timesteps/s
100.0% CPU use with 1 MPI tasks x no OpenMP threads

MPI task timing breakdown:
Section |  min time  |  avg time  |  max time  |%varavg| %total
---------------------------------------------------------------
Pair    | 12.189     | 12.189     | 12.189     |   0.0 | 52.73
Neigh   | 10.535     | 10.535     | 10.535     |   0.0 | 45.58
Comm    | 0.14723    | 0.14723    | 0.14723    |   0.0 |  0.64
Output  | 0.0001421  | 0.0001421  | 0.0001421  |   0.0 |  0.00
Modify  | 0.19003    | 0.19003    | 0.19003    |   0.0 |  0.82
Other   |            | 0.05421    |            |       |  0.23

Nlocal:    19652 ave 19652 max 19652 min
Histogram: 1 0 0 0 0 0 0 0 0 0
Nghost:    19120 ave 19120 max 19120 min
Histogram: 1 0 0 0 0 0 0 0 0 0
Neighs:    1.64018e+06 ave 1.64018e+06 max 1.64018e+06 min
Histogram: 1 0 0 0 0 0 0 0 0 0

Total # of neighbors = 1640179
Ave neighs/atom = 83.4612
Neighbor list builds = 172
Dangerous builds not checked
Setting up Verlet run ...
  Unit style    : metal
  Current step  : 47337
  Time step     : 0.001
Per MPI rank memory allocation (min/avg/max) = 18.56 | 18.56 | 18.56 Mbytes
Step Temp Press TotEng PotEng Enthalpy Volume 
   47337    1895.2459     -484.715   -56471.061   -61285.158   -56552.427    268947.36 
   47357    1903.7021   -1102.1224   -56471.056   -61306.633   -56656.058    268941.12 
   47832    1872.0612    784.47653   -56689.948   -61445.154   -56558.841    267766.12 
Loop time of 67.8311 on 1 procs for 495 steps with 19652 atoms

Performance: 0.631 ns/day, 38.065 hours/ns, 7.298 timesteps/s
99.9% CPU use with 1 MPI tasks x no OpenMP threads

MPI task timing breakdown:
Section |  min time  |  avg time  |  max time  |%varavg| %total
---------------------------------------------------------------
Pair    | 36.023     | 36.023     | 36.023     |   0.0 | 53.11
Neigh   | 30.627     | 30.627     | 30.627     |   0.0 | 45.15
Comm    | 0.43152    | 0.43152    | 0.43152    |   0.0 |  0.64
Output  | 0.061837   | 0.061837   | 0.061837   |   0.0 |  0.09
Modify  | 0.53023    | 0.53023    | 0.53023    |   0.0 |  0.78
Other   |            | 0.1578     |            |       |  0.23

Nlocal:    19652 ave 19652 max 19652 min
Histogram: 1 0 0 0 0 0 0 0 0 0
Nghost:    19210 ave 19210 max 19210 min
Histogram: 1 0 0 0 0 0 0 0 0 0
Neighs:    1.6469e+06 ave 1.6469e+06 max 1.6469e+06 min
Histogram: 1 0 0 0 0 0 0 0 0 0

Total # of neighbors = 1646905
Ave neighs/atom = 83.8034
Neighbor list builds = 495
Dangerous builds not checked
Setting up Verlet run ...
  Unit style    : metal
  Current step  : 47832
  Time step     : 0.001
Per MPI rank memory allocation (min/avg/max) = 18.56 | 18.56 | 18.56 Mbytes
Step Temp Press TotEng PotEng Enthalpy Volume 
   47832    1872.0612    784.47653   -56689.948   -61445.154   -56558.841    267766.12 
   48004    1851.2393   -1279.0383   -56770.357   -61472.674   -56984.289     267980.6 
Loop time of 21.0453 on 1 procs for 172 steps with 19652 atoms

Performance: 0.706 ns/day, 33.988 hours/ns, 8.173 timesteps/s
100.0% CPU use with 1 MPI tasks x no OpenMP threads

MPI task timing breakdown:
Section |  min time  |  avg time  |  max time  |%varavg| %total
---------------------------------------------------------------
Pair    | 11.078     | 11.078     | 11.078     |   0.0 | 52.64
Neigh   | 9.6132     | 9.6132     | 9.6132     |   0.0 | 45.68
Comm    | 0.13519    | 0.13519    | 0.13519    |   0.0 |  0.64
Output  | 0.00013709 | 0.00013709 | 0.00013709 |   0.0 |  0.00
Modify  | 0.16786    | 0.16786    | 0.16786    |   0.0 |  0.80
Other   |            | 0.05102    |            |       |  0.24

Nlocal:    19652 ave 19652 max 19652 min
Histogram: 1 0 0 0 0 0 0 0 0 0
Nghost:    19244 ave 19244 max 19244 min
Histogram: 1 0 0 0 0 0 0 0 0 0
Neighs:    1.6455e+06 ave 1.6455e+06 max 1.6455e+06 min
Histogram: 1 0 0 0 0 0 0 0 0 0

Total # of neighbors = 1645505
Ave neighs/atom = 83.7322
Neighbor list builds = 172
Dangerous builds not checked
Setting up Verlet run ...
  Unit style    : metal
  Current step  : 48004
  Time step     : 0.001
Per MPI rank memory allocation (min/avg/max) = 18.56 | 18.56 | 18.56 Mbytes
Step Temp Press TotEng PotEng Enthalpy Volume 
   48004    1851.2393   -1279.0383   -56770.357   -61472.674   -56984.289     267980.6 
   48024    1851.8871   -1231.7429   -56770.719   -61474.681   -56976.732     267969.2 
   48499     1797.385    561.09919   -57034.048   -61599.569   -56940.581    266886.11 
Loop time of 66.6763 on 1 procs for 495 steps with 19652 atoms

Performance: 0.641 ns/day, 37.417 hours/ns, 7.424 timesteps/s
99.9% CPU use with 1 MPI tasks x no OpenMP threads

MPI task timing breakdown:
Section |  min time  |  avg time  |  max time  |%varavg| %total
---------------------------------------------------------------
Pair    | 35.337     | 35.337     | 35.337     |   0.0 | 53.00
Neigh   | 30.177     | 30.177     | 30.177     |   0.0 | 45.26
Comm    | 0.42143    | 0.42143    | 0.42143    |   0.0 |  0.63
Output  | 0.061553   | 0.061553   | 0.061553   |   0.0 |  0.09
Modify  | 0.52324    | 0.52324    | 0.52324    |   0.0 |  0.78
Other   |            | 0.1559     |            |       |  0.23

Nlocal:    19652 ave 19652 max 19652 min
Histogram: 1 0 0 0 0 0 0 0 0 0
Nghost:    19193 ave 19193 max 19193 min
Histogram: 1 0 0 0 0 0 0 0 0 0
Neighs:    1.65161e+06 ave 1.65161e+06 max 1.65161e+06 min
Histogram: 1 0 0 0 0 0 0 0 0 0

Total # of neighbors = 1651614
Ave neighs/atom = 84.043
Neighbor list builds = 495
Dangerous builds not checked
Setting up Verlet run ...
  Unit style    : metal
  Current step  : 48499
  Time step     : 0.001
Per MPI rank memory allocation (min/avg/max) = 18.56 | 18.56 | 18.56 Mbytes
Step Temp Press TotEng PotEng Enthalpy Volume 
   48499     1797.385    561.09919   -57034.048   -61599.569   -56940.581    266886.11 
   48671    1802.6244   -812.91163   -57099.652   -61678.483   -57235.023    266803.57 
Loop time of 21.1348 on 1 procs for 172 steps with 19652 atoms

Performance: 0.703 ns/day, 34.132 hours/ns, 8.138 timesteps/s
100.0% CPU use with 1 MPI tasks x no OpenMP threads

MPI task timing breakdown:
Section |  min time  |  avg time  |  max time  |%varavg| %total
---------------------------------------------------------------
Pair    | 11.141     | 11.141     | 11.141     |   0.0 | 52.71
Neigh   | 9.638      | 9.638      | 9.638      |   0.0 | 45.60
Comm    | 0.13602    | 0.13602    | 0.13602    |   0.0 |  0.64
Output  | 0.00012207 | 0.00012207 | 0.00012207 |   0.0 |  0.00
Modify  | 0.16895    | 0.16895    | 0.16895    |   0.0 |  0.80
Other   |            | 0.05079    |            |       |  0.24

Nlocal:    19652 ave 19652 max 19652 min
Histogram: 1 0 0 0 0 0 0 0 0 0
Nghost:    19215 ave 19215 max 19215 min
Histogram: 1 0 0 0 0 0 0 0 0 0
Neighs:    1.65227e+06 ave 1.65227e+06 max 1.65227e+06 min
Histogram: 1 0 0 0 0 0 0 0 0 0

Total # of neighbors = 1652268
Ave neighs/atom = 84.0763
Neighbor list builds = 172
Dangerous builds not checked
Setting up Verlet run ...
  Unit style    : metal
  Current step  : 48671
  Time step     : 0.001
Per MPI rank memory allocation (min/avg/max) = 18.56 | 18.56 | 18.56 Mbytes
Step Temp Press TotEng PotEng Enthalpy Volume 
   48671    1802.6244   -812.91163   -57099.652   -61678.483   -57235.023    266803.57 
   48691     1798.031   -470.11408    -57099.92   -61667.083   -57178.204    266796.95 
   49166    1772.6755   -611.72622   -57334.702    -61837.46   -57436.184    265791.41 
Loop time of 62.7217 on 1 procs for 495 steps with 19652 atoms

Performance: 0.682 ns/day, 35.197 hours/ns, 7.892 timesteps/s
100.0% CPU use with 1 MPI tasks x no OpenMP threads

MPI task timing breakdown:
Section |  min time  |  avg time  |  max time  |%varavg| %total
---------------------------------------------------------------
Pair    | 33.108     | 33.108     | 33.108     |   0.0 | 52.79
Neigh   | 28.511     | 28.511     | 28.511     |   0.0 | 45.46
Comm    | 0.40172    | 0.40172    | 0.40172    |   0.0 |  0.64
Output  | 0.05442    | 0.05442    | 0.05442    |   0.0 |  0.09
Modify  | 0.4982     | 0.4982     | 0.4982     |   0.0 |  0.79
Other   |            | 0.1484     |            |       |  0.24

Nlocal:    19652 ave 19652 max 19652 min
Histogram: 1 0 0 0 0 0 0 0 0 0
Nghost:    19227 ave 19227 max 19227 min
Histogram: 1 0 0 0 0 0 0 0 0 0
Neighs:    1.65808e+06 ave 1.65808e+06 max 1.65808e+06 min
Histogram: 1 0 0 0 0 0 0 0 0 0

Total # of neighbors = 1658075
Ave neighs/atom = 84.3718
Neighbor list builds = 495
Dangerous builds not checked
Setting up Verlet run ...
  Unit style    : metal
  Current step  : 49166
  Time step     : 0.001
Per MPI rank memory allocation (min/avg/max) = 18.56 | 18.56 | 18.56 Mbytes
Step Temp Press TotEng PotEng Enthalpy Volume 
   49166    1772.6755   -611.72622   -57334.702    -61837.46   -57436.184    265791.41 
   49338    1760.5822   -801.67077   -57415.206   -61887.245    -57548.06    265514.96 
Loop time of 21.3942 on 1 procs for 172 steps with 19652 atoms

Performance: 0.695 ns/day, 34.551 hours/ns, 8.040 timesteps/s
100.0% CPU use with 1 MPI tasks x no OpenMP threads

MPI task timing breakdown:
Section |  min time  |  avg time  |  max time  |%varavg| %total
---------------------------------------------------------------
Pair    | 11.311     | 11.311     | 11.311     |   0.0 | 52.87
Neigh   | 9.723      | 9.723      | 9.723      |   0.0 | 45.45
Comm    | 0.13776    | 0.13776    | 0.13776    |   0.0 |  0.64
Output  | 0.00013494 | 0.00013494 | 0.00013494 |   0.0 |  0.00
Modify  | 0.17145    | 0.17145    | 0.17145    |   0.0 |  0.80
Other   |            | 0.05127    |            |       |  0.24

Nlocal:    19652 ave 19652 max 19652 min
Histogram: 1 0 0 0 0 0 0 0 0 0
Nghost:    19123 ave 19123 max 19123 min
Histogram: 1 0 0 0 0 0 0 0 0 0
Neighs:    1.65926e+06 ave 1.65926e+06 max 1.65926e+06 min
Histogram: 1 0 0 0 0 0 0 0 0 0

Total # of neighbors = 1659257
Ave neighs/atom = 84.432
Neighbor list builds = 172
Dangerous builds not checked
Setting up Verlet run ...
  Unit style    : metal
  Current step  : 49338
  Time step     : 0.001
Per MPI rank memory allocation (min/avg/max) = 18.56 | 18.56 | 18.56 Mbytes
Step Temp Press TotEng PotEng Enthalpy Volume 
   49338    1760.5822   -801.67077   -57415.206   -61887.245    -57548.06    265514.96 
   49358    1760.0533   -591.06587   -57416.331   -61887.027   -57514.281    265508.45 
   49833    1713.1802   -409.79568   -57658.883   -62010.517   -57726.636    264893.56 
Loop time of 63.8609 on 1 procs for 495 steps with 19652 atoms

Performance: 0.670 ns/day, 35.837 hours/ns, 7.751 timesteps/s
99.6% CPU use with 1 MPI tasks x no OpenMP threads

MPI task timing breakdown:
Section |  min time  |  avg time  |  max time  |%varavg| %total
---------------------------------------------------------------
Pair    | 33.628     | 33.628     | 33.628     |   0.0 | 52.66
Neigh   | 28.954     | 28.954     | 28.954     |   0.0 | 45.34
Comm    | 0.40362    | 0.40362    | 0.40362    |   0.0 |  0.63
Output  | 0.2248     | 0.2248     | 0.2248     |   0.0 |  0.35
Modify  | 0.50246    | 0.50246    | 0.50246    |   0.0 |  0.79
Other   |            | 0.1484     |            |       |  0.23

Nlocal:    19652 ave 19652 max 19652 min
Histogram: 1 0 0 0 0 0 0 0 0 0
Nghost:    19235 ave 19235 max 19235 min
Histogram: 1 0 0 0 0 0 0 0 0 0
Neighs:    1.66292e+06 ave 1.66292e+06 max 1.66292e+06 min
Histogram: 1 0 0 0 0 0 0 0 0 0

Total # of neighbors = 1662924
Ave neighs/atom = 84.6186
Neighbor list builds = 495
Dangerous builds not checked
Setting up Verlet run ...
  Unit style    : metal
  Current step  : 49833
  Time step     : 0.001
Per MPI rank memory allocation (min/avg/max) = 18.56 | 18.56 | 18.56 Mbytes
Step Temp Press TotEng PotEng Enthalpy Volume 
   49833    1713.1802   -409.79568   -57658.883   -62010.517   -57726.636    264893.56 
   50005    1703.3356   -672.70127   -57735.835   -62062.463   -57846.951    264645.37 
Loop time of 23.7119 on 1 procs for 172 steps with 19652 atoms

Performance: 0.627 ns/day, 38.294 hours/ns, 7.254 timesteps/s
100.0% CPU use with 1 MPI tasks x no OpenMP threads

MPI task timing breakdown:
Section |  min time  |  avg time  |  max time  |%varavg| %total
---------------------------------------------------------------
Pair    | 12.611     | 12.611     | 12.611     |   0.0 | 53.18
Neigh   | 10.703     | 10.703     | 10.703     |   0.0 | 45.14
Comm    | 0.15022    | 0.15022    | 0.15022    |   0.0 |  0.63
Output  | 0.00016999 | 0.00016999 | 0.00016999 |   0.0 |  0.00
Modify  | 0.1903     | 0.1903     | 0.1903     |   0.0 |  0.80
Other   |            | 0.05697    |            |       |  0.24

Nlocal:    19652 ave 19652 max 19652 min
Histogram: 1 0 0 0 0 0 0 0 0 0
Nghost:    19190 ave 19190 max 19190 min
Histogram: 1 0 0 0 0 0 0 0 0 0
Neighs:    1.66435e+06 ave 1.66435e+06 max 1.66435e+06 min
Histogram: 1 0 0 0 0 0 0 0 0 0

Total # of neighbors = 1664347
Ave neighs/atom = 84.691
Neighbor list builds = 172
Dangerous builds not checked
Setting up Verlet run ...
  Unit style    : metal
  Current step  : 50005
  Time step     : 0.001
Per MPI rank memory allocation (min/avg/max) = 18.56 | 18.56 | 18.56 Mbytes
Step Temp Press TotEng PotEng Enthalpy Volume 
   50005    1703.3356   -672.70127   -57735.835   -62062.463   -57846.951    264645.37 
   50025    1701.6432   -405.65993   -57736.096   -62058.425   -57803.101    264640.03 
   50500    1671.4614   -214.23554   -57980.446   -62226.111    -58015.71    263719.08 
Loop time of 68.8745 on 1 procs for 495 steps with 19652 atoms

Performance: 0.621 ns/day, 38.650 hours/ns, 7.187 timesteps/s
99.7% CPU use with 1 MPI tasks x no OpenMP threads

MPI task timing breakdown:
Section |  min time  |  avg time  |  max time  |%varavg| %total
---------------------------------------------------------------
Pair    | 36.544     | 36.544     | 36.544     |   0.0 | 53.06
Neigh   | 30.966     | 30.966     | 30.966     |   0.0 | 44.96
Comm    | 0.43135    | 0.43135    | 0.43135    |   0.0 |  0.63
Output  | 0.2253     | 0.2253     | 0.2253     |   0.0 |  0.33
Modify  | 0.54662    | 0.54662    | 0.54662    |   0.0 |  0.79
Other   |            | 0.1608     |            |       |  0.23

Nlocal:    19652 ave 19652 max 19652 min
Histogram: 1 0 0 0 0 0 0 0 0 0
Nghost:    19273 ave 19273 max 19273 min
Histogram: 1 0 0 0 0 0 0 0 0 0
Neighs:    1.66941e+06 ave 1.66941e+06 max 1.66941e+06 min
Histogram: 1 0 0 0 0 0 0 0 0 0

Total # of neighbors = 1669406
Ave neighs/atom = 84.9484
Neighbor list builds = 495
Dangerous builds not checked
Setting up Verlet run ...
  Unit style    : metal
  Current step  : 50500
  Time step     : 0.001
Per MPI rank memory allocation (min/avg/max) = 18.56 | 18.56 | 18.56 Mbytes
Step Temp Press TotEng PotEng Enthalpy Volume 
   50500    1671.4614   -214.23554   -57980.446   -62226.111    -58015.71    263719.08 
   50672    1660.6755   -897.12527   -58057.695   -62275.962   -58205.262    263539.99 
Loop time of 21.6186 on 1 procs for 172 steps with 19652 atoms

Performance: 0.687 ns/day, 34.914 hours/ns, 7.956 timesteps/s
100.0% CPU use with 1 MPI tasks x no OpenMP threads

MPI task timing breakdown:
Section |  min time  |  avg time  |  max time  |%varavg| %total
---------------------------------------------------------------
Pair    | 11.381     | 11.381     | 11.381     |   0.0 | 52.64
Neigh   | 9.8858     | 9.8858     | 9.8858     |   0.0 | 45.73
Comm    | 0.13291    | 0.13291    | 0.13291    |   0.0 |  0.61
Output  | 0.00011897 | 0.00011897 | 0.00011897 |   0.0 |  0.00
Modify  | 0.17177    | 0.17177    | 0.17177    |   0.0 |  0.79
Other   |            | 0.04743    |            |       |  0.22

Nlocal:    19652 ave 19652 max 19652 min
Histogram: 1 0 0 0 0 0 0 0 0 0
Nghost:    19253 ave 19253 max 19253 min
Histogram: 1 0 0 0 0 0 0 0 0 0
Neighs:    1.6708e+06 ave 1.6708e+06 max 1.6708e+06 min
Histogram: 1 0 0 0 0 0 0 0 0 0

Total # of neighbors = 1670802
Ave neighs/atom = 85.0194
Neighbor list builds = 172
Dangerous builds not checked
Setting up Verlet run ...
  Unit style    : metal
  Current step  : 50672
  Time step     : 0.001
Per MPI rank memory allocation (min/avg/max) = 18.56 | 18.56 | 18.56 Mbytes
Step Temp Press TotEng PotEng Enthalpy Volume 
   50672    1660.6755   -897.12527   -58057.695   -62275.962   -58205.262    263539.99 
   50692    1654.7087   -615.13859   -58058.571   -62261.682   -58159.752    263532.63 
   51167    1599.0425   -978.47972   -58297.415   -62359.128   -58458.051    263027.74 
Loop time of 60.5657 on 1 procs for 495 steps with 19652 atoms

Performance: 0.706 ns/day, 33.987 hours/ns, 8.173 timesteps/s
99.9% CPU use with 1 MPI tasks x no OpenMP threads

MPI task timing breakdown:
Section |  min time  |  avg time  |  max time  |%varavg| %total
---------------------------------------------------------------
Pair    | 31.814     | 31.814     | 31.814     |   0.0 | 52.53
Neigh   | 27.72      | 27.72      | 27.72      |   0.0 | 45.77
Comm    | 0.37055    | 0.37055    | 0.37055    |   0.0 |  0.61
Output  | 0.058071   | 0.058071   | 0.058071   |   0.0 |  0.10
Modify  | 0.47446    | 0.47446    | 0.47446    |   0.0 |  0.78
Other   |            | 0.1284     |            |       |  0.21

Nlocal:    19652 ave 19652 max 19652 min
Histogram: 1 0 0 0 0 0 0 0 0 0
Nghost:    19293 ave 19293 max 19293 min
Histogram: 1 0 0 0 0 0 0 0 0 0
Neighs:    1.67371e+06 ave 1.67371e+06 max 1.67371e+06 min
Histogram: 1 0 0 0 0 0 0 0 0 0

Total # of neighbors = 1673709
Ave neighs/atom = 85.1674
Neighbor list builds = 495
Dangerous builds not checked
Setting up Verlet run ...
  Unit style    : metal
  Current step  : 51167
  Time step     : 0.001
Per MPI rank memory allocation (min/avg/max) = 18.56 | 18.56 | 18.56 Mbytes
Step Temp Press TotEng PotEng Enthalpy Volume 
   51167    1599.0425   -978.47972   -58297.415   -62359.128   -58458.051    263027.74 
   51339    1612.6725   -211.90505   -58352.284   -62448.619   -58387.005    262522.42 
Loop time of 20.8519 on 1 procs for 172 steps with 19652 atoms

Performance: 0.713 ns/day, 33.675 hours/ns, 8.249 timesteps/s
100.0% CPU use with 1 MPI tasks x no OpenMP threads

MPI task timing breakdown:
Section |  min time  |  avg time  |  max time  |%varavg| %total
---------------------------------------------------------------
Pair    | 10.98      | 10.98      | 10.98      |   0.0 | 52.66
Neigh   | 9.5371     | 9.5371     | 9.5371     |   0.0 | 45.74
Comm    | 0.12691    | 0.12691    | 0.12691    |   0.0 |  0.61
Output  | 0.00011516 | 0.00011516 | 0.00011516 |   0.0 |  0.00
Modify  | 0.16367    | 0.16367    | 0.16367    |   0.0 |  0.78
Other   |            | 0.04418    |            |       |  0.21

Nlocal:    19652 ave 19652 max 19652 min
Histogram: 1 0 0 0 0 0 0 0 0 0
Nghost:    19258 ave 19258 max 19258 min
Histogram: 1 0 0 0 0 0 0 0 0 0
Neighs:    1.67673e+06 ave 1.67673e+06 max 1.67673e+06 min
Histogram: 1 0 0 0 0 0 0 0 0 0

Total # of neighbors = 1676729
Ave neighs/atom = 85.321
Neighbor list builds = 172
Dangerous builds not checked
Setting up Verlet run ...
  Unit style    : metal
  Current step  : 51339
  Time step     : 0.001
Per MPI rank memory allocation (min/avg/max) = 18.56 | 18.56 | 18.56 Mbytes
Step Temp Press TotEng PotEng Enthalpy Volume 
   51339    1612.6725   -211.90505   -58352.284   -62448.619   -58387.005    262522.42 
   51359    1602.7351     246.2215   -58353.442   -62424.535   -58313.098    262521.33 
   51834    1566.2101   -1159.8088   -58625.815   -62604.131   -58815.343    261816.82 
Loop time of 60.9339 on 1 procs for 495 steps with 19652 atoms

Performance: 0.702 ns/day, 34.194 hours/ns, 8.124 timesteps/s
100.0% CPU use with 1 MPI tasks x no OpenMP threads

MPI task timing breakdown:
Section |  min time  |  avg time  |  max time  |%varavg| %total
---------------------------------------------------------------
Pair    | 32.011     | 32.011     | 32.011     |   0.0 | 52.53
Neigh   | 27.895     | 27.895     | 27.895     |   0.0 | 45.78
Comm    | 0.37087    | 0.37087    | 0.37087    |   0.0 |  0.61
Output  | 0.056871   | 0.056871   | 0.056871   |   0.0 |  0.09
Modify  | 0.47232    | 0.47232    | 0.47232    |   0.0 |  0.78
Other   |            | 0.128      |            |       |  0.21

Nlocal:    19652 ave 19652 max 19652 min
Histogram: 1 0 0 0 0 0 0 0 0 0
Nghost:    19356 ave 19356 max 19356 min
Histogram: 1 0 0 0 0 0 0 0 0 0
Neighs:    1.68108e+06 ave 1.68108e+06 max 1.68108e+06 min
Histogram: 1 0 0 0 0 0 0 0 0 0

Total # of neighbors = 1681085
Ave neighs/atom = 85.5427
Neighbor list builds = 495
Dangerous builds not checked
Setting up Verlet run ...
  Unit style    : metal
  Current step  : 51834
  Time step     : 0.001
Per MPI rank memory allocation (min/avg/max) = 18.56 | 18.56 | 18.56 Mbytes
Step Temp Press TotEng PotEng Enthalpy Volume 
   51834    1566.2101   -1159.8088   -58625.815   -62604.131   -58815.343    261816.82 
   52006    1546.0829    683.93525   -58695.968   -62623.159   -58584.423    261302.29 
Loop time of 21.015 on 1 procs for 172 steps with 19652 atoms

Performance: 0.707 ns/day, 33.939 hours/ns, 8.185 timesteps/s
100.0% CPU use with 1 MPI tasks x no OpenMP threads

MPI task timing breakdown:
Section |  min time  |  avg time  |  max time  |%varavg| %total
---------------------------------------------------------------
Pair    | 11.101     | 11.101     | 11.101     |   0.0 | 52.83
Neigh   | 9.5757     | 9.5757     | 9.5757     |   0.0 | 45.57
Comm    | 0.12811    | 0.12811    | 0.12811    |   0.0 |  0.61
Output  | 0.00012589 | 0.00012589 | 0.00012589 |   0.0 |  0.00
Modify  | 0.16483    | 0.16483    | 0.16483    |   0.0 |  0.78
Other   |            | 0.04497    |            |       |  0.21

Nlocal:    19652 ave 19652 max 19652 min
Histogram: 1 0 0 0 0 0 0 0 0 0
Nghost:    19345 ave 19345 max 19345 min
Histogram: 1 0 0 0 0 0 0 0 0 0
Neighs:    1.6842e+06 ave 1.6842e+06 max 1.6842e+06 min
Histogram: 1 0 0 0 0 0 0 0 0 0

Total # of neighbors = 1684204
Ave neighs/atom = 85.7014
Neighbor list builds = 172
Dangerous builds not checked
Setting up Verlet run ...
  Unit style    : metal
  Current step  : 52006
  Time step     : 0.001
Per MPI rank memory allocation (min/avg/max) = 18.56 | 18.56 | 18.56 Mbytes
Step Temp Press TotEng PotEng Enthalpy Volume 
   52006    1546.0829    683.93525   -58695.968   -62623.159   -58584.423    261302.29 
   52026    1563.5163   -170.00992   -58696.152   -62667.625   -58723.879     261306.4 
   52501    1506.3692    203.53708   -58953.968   -62780.283   -58920.871    260527.72 
Loop time of 61.4588 on 1 procs for 495 steps with 19652 atoms

Performance: 0.696 ns/day, 34.489 hours/ns, 8.054 timesteps/s
100.0% CPU use with 1 MPI tasks x no OpenMP threads

MPI task timing breakdown:
Section |  min time  |  avg time  |  max time  |%varavg| %total
---------------------------------------------------------------
Pair    | 32.362     | 32.362     | 32.362     |   0.0 | 52.66
Neigh   | 28.056     | 28.056     | 28.056     |   0.0 | 45.65
Comm    | 0.37415    | 0.37415    | 0.37415    |   0.0 |  0.61
Output  | 0.061176   | 0.061176   | 0.061176   |   0.0 |  0.10
Modify  | 0.47654    | 0.47654    | 0.47654    |   0.0 |  0.78
Other   |            | 0.1294     |            |       |  0.21

Nlocal:    19652 ave 19652 max 19652 min
Histogram: 1 0 0 0 0 0 0 0 0 0
Nghost:    19380 ave 19380 max 19380 min
Histogram: 1 0 0 0 0 0 0 0 0 0
Neighs:    1.68869e+06 ave 1.68869e+06 max 1.68869e+06 min
Histogram: 1 0 0 0 0 0 0 0 0 0

Total # of neighbors = 1688690
Ave neighs/atom = 85.9297
Neighbor list builds = 495
Dangerous builds not checked
Setting up Verlet run ...
  Unit style    : metal
  Current step  : 52501
  Time step     : 0.001
Per MPI rank memory allocation (min/avg/max) = 18.56 | 18.56 | 18.56 Mbytes
Step Temp Press TotEng PotEng Enthalpy Volume 
   52501    1506.3692    203.53708   -58953.968   -62780.283   -58920.871    260527.72 
   52673    1511.1546   -631.41698   -59017.607   -62856.077   -59120.208    260342.76 
Loop time of 21.0574 on 1 procs for 172 steps with 19652 atoms

Performance: 0.706 ns/day, 34.007 hours/ns, 8.168 timesteps/s
100.0% CPU use with 1 MPI tasks x no OpenMP threads

MPI task timing breakdown:
Section |  min time  |  avg time  |  max time  |%varavg| %total
---------------------------------------------------------------
Pair    | 11.102     | 11.102     | 11.102     |   0.0 | 52.72
Neigh   | 9.6159     | 9.6159     | 9.6159     |   0.0 | 45.67
Comm    | 0.12898    | 0.12898    | 0.12898    |   0.0 |  0.61
Output  | 0.00012612 | 0.00012612 | 0.00012612 |   0.0 |  0.00
Modify  | 0.16516    | 0.16516    | 0.16516    |   0.0 |  0.78
Other   |            | 0.04505    |            |       |  0.21

Nlocal:    19652 ave 19652 max 19652 min
Histogram: 1 0 0 0 0 0 0 0 0 0
Nghost:    19337 ave 19337 max 19337 min
Histogram: 1 0 0 0 0 0 0 0 0 0
Neighs:    1.69005e+06 ave 1.69005e+06 max 1.69005e+06 min
Histogram: 1 0 0 0 0 0 0 0 0 0

Total # of neighbors = 1690050
Ave neighs/atom = 85.9989
Neighbor list builds = 172
Dangerous builds not checked
Setting up Verlet run ...
  Unit style    : metal
  Current step  : 52673
  Time step     : 0.001
Per MPI rank memory allocation (min/avg/max) = 18.56 | 18.56 | 18.56 Mbytes
Step Temp Press TotEng PotEng Enthalpy Volume 
   52673    1511.1546   -631.41698   -59017.607   -62856.077   -59120.208    260342.76 
   52693     1505.258   -279.74846   -59018.693   -62842.185   -59064.149    260337.57 
   53168    1462.8845    -5.778058   -59301.539   -63017.398   -59302.474    259382.76 
Loop time of 60.9023 on 1 procs for 495 steps with 19652 atoms

Performance: 0.702 ns/day, 34.176 hours/ns, 8.128 timesteps/s
100.0% CPU use with 1 MPI tasks x no OpenMP threads

MPI task timing breakdown:
Section |  min time  |  avg time  |  max time  |%varavg| %total
---------------------------------------------------------------
Pair    | 32.167     | 32.167     | 32.167     |   0.0 | 52.82
Neigh   | 27.707     | 27.707     | 27.707     |   0.0 | 45.49
Comm    | 0.37118    | 0.37118    | 0.37118    |   0.0 |  0.61
Output  | 0.055076   | 0.055076   | 0.055076   |   0.0 |  0.09
Modify  | 0.47394    | 0.47394    | 0.47394    |   0.0 |  0.78
Other   |            | 0.1288     |            |       |  0.21

Nlocal:    19652 ave 19652 max 19652 min
Histogram: 1 0 0 0 0 0 0 0 0 0
Nghost:    19413 ave 19413 max 19413 min
Histogram: 1 0 0 0 0 0 0 0 0 0
Neighs:    1.69508e+06 ave 1.69508e+06 max 1.69508e+06 min
Histogram: 1 0 0 0 0 0 0 0 0 0

Total # of neighbors = 1695081
Ave neighs/atom = 86.2549
Neighbor list builds = 495
Dangerous builds not checked
Setting up Verlet run ...
  Unit style    : metal
  Current step  : 53168
  Time step     : 0.001
Per MPI rank memory allocation (min/avg/max) = 18.56 | 18.56 | 18.56 Mbytes
Step Temp Press TotEng PotEng Enthalpy Volume 
   53168    1462.8845    -5.778058   -59301.539   -63017.398   -59302.474    259382.76 
   53340    1455.9018    -527.8136   -59365.911   -63064.034   -59451.334    259302.78 
Loop time of 21.0851 on 1 procs for 172 steps with 19652 atoms

Performance: 0.705 ns/day, 34.052 hours/ns, 8.157 timesteps/s
100.0% CPU use with 1 MPI tasks x no OpenMP threads

MPI task timing breakdown:
Section |  min time  |  avg time  |  max time  |%varavg| %total
---------------------------------------------------------------
Pair    | 11.167     | 11.167     | 11.167     |   0.0 | 52.96
Neigh   | 9.5815     | 9.5815     | 9.5815     |   0.0 | 45.44
Comm    | 0.12752    | 0.12752    | 0.12752    |   0.0 |  0.60
Output  | 0.00012183 | 0.00012183 | 0.00012183 |   0.0 |  0.00
Modify  | 0.16452    | 0.16452    | 0.16452    |   0.0 |  0.78
Other   |            | 0.04488    |            |       |  0.21

Nlocal:    19652 ave 19652 max 19652 min
Histogram: 1 0 0 0 0 0 0 0 0 0
Nghost:    19419 ave 19419 max 19419 min
Histogram: 1 0 0 0 0 0 0 0 0 0
Neighs:    1.69518e+06 ave 1.69518e+06 max 1.69518e+06 min
Histogram: 1 0 0 0 0 0 0 0 0 0

Total # of neighbors = 1695182
Ave neighs/atom = 86.26
Neighbor list builds = 172
Dangerous builds not checked
Setting up Verlet run ...
  Unit style    : metal
  Current step  : 53340
  Time step     : 0.001
Per MPI rank memory allocation (min/avg/max) = 18.56 | 18.56 | 18.56 Mbytes
Step Temp Press TotEng PotEng Enthalpy Volume 
   53340    1455.9018    -527.8136   -59365.911   -63064.034   -59451.334    259302.78 
   53360    1461.1824   -869.41812   -59366.744   -63078.281   -59507.451    259296.19 
   53835     1409.849   -233.33245   -59598.922   -63180.066   -59636.576    258552.36 
Loop time of 62.4597 on 1 procs for 495 steps with 19652 atoms

Performance: 0.685 ns/day, 35.050 hours/ns, 7.925 timesteps/s
98.2% CPU use with 1 MPI tasks x no OpenMP threads

MPI task timing breakdown:
Section |  min time  |  avg time  |  max time  |%varavg| %total
---------------------------------------------------------------
Pair    | 32.368     | 32.368     | 32.368     |   0.0 | 51.82
Neigh   | 27.948     | 27.948     | 27.948     |   0.0 | 44.74
Comm    | 0.37277    | 0.37277    | 0.37277    |   0.0 |  0.60
Output  | 1.167      | 1.167      | 1.167      |   0.0 |  1.87
Modify  | 0.47507    | 0.47507    | 0.47507    |   0.0 |  0.76
Other   |            | 0.129      |            |       |  0.21

Nlocal:    19652 ave 19652 max 19652 min
Histogram: 1 0 0 0 0 0 0 0 0 0
Nghost:    19405 ave 19405 max 19405 min
Histogram: 1 0 0 0 0 0 0 0 0 0
Neighs:    1.6997e+06 ave 1.6997e+06 max 1.6997e+06 min
Histogram: 1 0 0 0 0 0 0 0 0 0

Total # of neighbors = 1699703
Ave neighs/atom = 86.4901
Neighbor list builds = 495
Dangerous builds not checked
Setting up Verlet run ...
  Unit style    : metal
  Current step  : 53835
  Time step     : 0.001
Per MPI rank memory allocation (min/avg/max) = 18.56 | 18.56 | 18.56 Mbytes
Step Temp Press TotEng PotEng Enthalpy Volume 
   53835     1409.849   -233.33245   -59598.922   -63180.066   -59636.576    258552.36 
   54007    1416.2259   -1006.6658   -59668.836   -63266.178   -59831.048    258171.97 
Loop time of 21.0074 on 1 procs for 172 steps with 19652 atoms

Performance: 0.707 ns/day, 33.927 hours/ns, 8.188 timesteps/s
100.0% CPU use with 1 MPI tasks x no OpenMP threads

MPI task timing breakdown:
Section |  min time  |  avg time  |  max time  |%varavg| %total
---------------------------------------------------------------
Pair    | 11.121     | 11.121     | 11.121     |   0.0 | 52.94
Neigh   | 9.5494     | 9.5494     | 9.5494     |   0.0 | 45.46
Comm    | 0.1278     | 0.1278     | 0.1278     |   0.0 |  0.61
Output  | 0.00012016 | 0.00012016 | 0.00012016 |   0.0 |  0.00
Modify  | 0.16414    | 0.16414    | 0.16414    |   0.0 |  0.78
Other   |            | 0.04461    |            |       |  0.21

Nlocal:    19652 ave 19652 max 19652 min
Histogram: 1 0 0 0 0 0 0 0 0 0
Nghost:    19490 ave 19490 max 19490 min
Histogram: 1 0 0 0 0 0 0 0 0 0
Neighs:    1.70211e+06 ave 1.70211e+06 max 1.70211e+06 min
Histogram: 1 0 0 0 0 0 0 0 0 0

Total # of neighbors = 1702112
Ave neighs/atom = 86.6127
Neighbor list builds = 172
Dangerous builds not checked
Setting up Verlet run ...
  Unit style    : metal
  Current step  : 54007
  Time step     : 0.001
Per MPI rank memory allocation (min/avg/max) = 18.56 | 18.56 | 18.56 Mbytes
Step Temp Press TotEng PotEng Enthalpy Volume 
   54007    1416.2259   -1006.6658   -59668.836   -63266.178   -59831.048    258171.97 
   54027    1411.0409   -643.48453   -59670.362   -63254.535   -59774.049    258162.53 
   54502    1360.2624    -678.8205    -59957.13   -63412.321    -60066.22    257477.92 
Loop time of 61.7208 on 1 procs for 495 steps with 19652 atoms

Performance: 0.693 ns/day, 34.636 hours/ns, 8.020 timesteps/s
100.0% CPU use with 1 MPI tasks x no OpenMP threads

MPI task timing breakdown:
Section |  min time  |  avg time  |  max time  |%varavg| %total
---------------------------------------------------------------
Pair    | 32.68      | 32.68      | 32.68      |   0.0 | 52.95
Neigh   | 27.998     | 27.998     | 27.998     |   0.0 | 45.36
Comm    | 0.37647    | 0.37647    | 0.37647    |   0.0 |  0.61
Output  | 0.058753   | 0.058753   | 0.058753   |   0.0 |  0.10
Modify  | 0.47631    | 0.47631    | 0.47631    |   0.0 |  0.77
Other   |            | 0.1307     |            |       |  0.21

Nlocal:    19652 ave 19652 max 19652 min
Histogram: 1 0 0 0 0 0 0 0 0 0
Nghost:    19421 ave 19421 max 19421 min
Histogram: 1 0 0 0 0 0 0 0 0 0
Neighs:    1.70636e+06 ave 1.70636e+06 max 1.70636e+06 min
Histogram: 1 0 0 0 0 0 0 0 0 0

Total # of neighbors = 1706361
Ave neighs/atom = 86.8289
Neighbor list builds = 495
Dangerous builds not checked
Setting up Verlet run ...
  Unit style    : metal
  Current step  : 54502
  Time step     : 0.001
Per MPI rank memory allocation (min/avg/max) = 18.56 | 18.56 | 18.56 Mbytes
Step Temp Press TotEng PotEng Enthalpy Volume 
   54502    1360.2624    -678.8205    -59957.13   -63412.321    -60066.22    257477.92 
   54674    1348.2143    531.59763   -60017.935   -63442.522   -59932.668    256985.99 
Loop time of 21.0657 on 1 procs for 172 steps with 19652 atoms

Performance: 0.705 ns/day, 34.021 hours/ns, 8.165 timesteps/s
100.0% CPU use with 1 MPI tasks x no OpenMP threads

MPI task timing breakdown:
Section |  min time  |  avg time  |  max time  |%varavg| %total
---------------------------------------------------------------
Pair    | 11.164     | 11.164     | 11.164     |   0.0 | 53.00
Neigh   | 9.5631     | 9.5631     | 9.5631     |   0.0 | 45.40
Comm    | 0.12866    | 0.12866    | 0.12866    |   0.0 |  0.61
Output  | 0.00013185 | 0.00013185 | 0.00013185 |   0.0 |  0.00
Modify  | 0.16482    | 0.16482    | 0.16482    |   0.0 |  0.78
Other   |            | 0.04467    |            |       |  0.21

Nlocal:    19652 ave 19652 max 19652 min
Histogram: 1 0 0 0 0 0 0 0 0 0
Nghost:    19429 ave 19429 max 19429 min
Histogram: 1 0 0 0 0 0 0 0 0 0
Neighs:    1.70934e+06 ave 1.70934e+06 max 1.70934e+06 min
Histogram: 1 0 0 0 0 0 0 0 0 0

Total # of neighbors = 1709339
Ave neighs/atom = 86.9804
Neighbor list builds = 172
Dangerous builds not checked
Setting up Verlet run ...
  Unit style    : metal
  Current step  : 54674
  Time step     : 0.001
Per MPI rank memory allocation (min/avg/max) = 18.56 | 18.56 | 18.56 Mbytes
Step Temp Press TotEng PotEng Enthalpy Volume 
   54674    1348.2143    531.59763   -60017.935   -63442.522   -59932.668    256985.99 
   54694    1356.2693   -77.750037   -60018.003   -63463.051   -60030.474    256989.89 
   55169     1314.206    179.49178   -60285.496   -63623.699   -60256.794     256195.6 
Loop time of 60.8878 on 1 procs for 495 steps with 19652 atoms

Performance: 0.702 ns/day, 34.168 hours/ns, 8.130 timesteps/s
100.0% CPU use with 1 MPI tasks x no OpenMP threads

MPI task timing breakdown:
Section |  min time  |  avg time  |  max time  |%varavg| %total
---------------------------------------------------------------
Pair    | 32.205     | 32.205     | 32.205     |   0.0 | 52.89
Neigh   | 27.659     | 27.659     | 27.659     |   0.0 | 45.43
Comm    | 0.36853    | 0.36853    | 0.36853    |   0.0 |  0.61
Output  | 0.055414   | 0.055414   | 0.055414   |   0.0 |  0.09
Modify  | 0.4721     | 0.4721     | 0.4721     |   0.0 |  0.78
Other   |            | 0.128      |            |       |  0.21

Nlocal:    19652 ave 19652 max 19652 min
Histogram: 1 0 0 0 0 0 0 0 0 0
Nghost:    19467 ave 19467 max 19467 min
Histogram: 1 0 0 0 0 0 0 0 0 0
Neighs:    1.71389e+06 ave 1.71389e+06 max 1.71389e+06 min
Histogram: 1 0 0 0 0 0 0 0 0 0

Total # of neighbors = 1713888
Ave neighs/atom = 87.2119
Neighbor list builds = 495
Dangerous builds not checked
Setting up Verlet run ...
  Unit style    : metal
  Current step  : 55169
  Time step     : 0.001
Per MPI rank memory allocation (min/avg/max) = 18.56 | 18.56 | 18.56 Mbytes
Step Temp Press TotEng PotEng Enthalpy Volume 
   55169     1314.206    179.49178   -60285.496   -63623.699   -60256.794     256195.6 
   55341    1311.7686    338.01201   -60362.717   -63694.729   -60308.732    255891.64 
Loop time of 21.3505 on 1 procs for 172 steps with 19652 atoms

Performance: 0.696 ns/day, 34.481 hours/ns, 8.056 timesteps/s
100.0% CPU use with 1 MPI tasks x no OpenMP threads

MPI task timing breakdown:
Section |  min time  |  avg time  |  max time  |%varavg| %total
[...]
Modify  | 0.55083    | 0.55083    | 0.55083    |   0.0 |  0.80
Other   |            | 0.1586     |            |       |  0.23

Nlocal:    19652 ave 19652 max 19652 min
Histogram: 1 0 0 0 0 0 0 0 0 0
Nghost:    20057 ave 20057 max 20057 min
Histogram: 1 0 0 0 0 0 0 0 0 0
Neighs:    1.81257e+06 ave 1.81257e+06 max 1.81257e+06 min
Histogram: 1 0 0 0 0 0 0 0 0 0

Total # of neighbors = 1812569
Ave neighs/atom = 92.2333
Neighbor list builds = 495
Dangerous builds not checked
Setting up Verlet run ...
  Unit style    : metal
  Current step  : 67175
  Time step     : 0.001
Per MPI rank memory allocation (min/avg/max) = 18.56 | 18.56 | 18.56 Mbytes
Step Temp Press TotEng PotEng Enthalpy Volume 
   67175    420.57295   -511.65938   -66062.903   -67131.196   -66139.391    239509.08 
   67347    414.14666   -122.89611   -66118.279   -67170.249   -66136.635    239300.17 
Loop time of 22.6677 on 1 procs for 172 steps with 19652 atoms

Performance: 0.656 ns/day, 36.608 hours/ns, 7.588 timesteps/s
99.9% CPU use with 1 MPI tasks x no OpenMP threads

MPI task timing breakdown:
Section |  min time  |  avg time  |  max time  |%varavg| %total
---------------------------------------------------------------
Pair    | 12.281     | 12.281     | 12.281     |   0.0 | 54.18
Neigh   | 10.014     | 10.014     | 10.014     |   0.0 | 44.18
Comm    | 0.14236    | 0.14236    | 0.14236    |   0.0 |  0.63
Output  | 0.00016189 | 0.00016189 | 0.00016189 |   0.0 |  0.00
Modify  | 0.17632    | 0.17632    | 0.17632    |   0.0 |  0.78
Other   |            | 0.05383    |            |       |  0.24

Nlocal:    19652 ave 19652 max 19652 min
Histogram: 1 0 0 0 0 0 0 0 0 0
Nghost:    20037 ave 20037 max 20037 min
Histogram: 1 0 0 0 0 0 0 0 0 0
Neighs:    1.81461e+06 ave 1.81461e+06 max 1.81461e+06 min
Histogram: 1 0 0 0 0 0 0 0 0 0

Total # of neighbors = 1814611
Ave neighs/atom = 92.3372
Neighbor list builds = 172
Dangerous builds not checked
Setting up Verlet run ...
  Unit style    : metal
  Current step  : 67347
  Time step     : 0.001
Per MPI rank memory allocation (min/avg/max) = 18.56 | 18.56 | 18.56 Mbytes
Step Temp Press TotEng PotEng Enthalpy Volume 
   67347    414.14666   -122.89611   -66118.279   -67170.249   -66136.635    239300.17 
   67367    414.33656   -123.79515   -66119.873   -67172.326   -66138.363     239296.4 
   67842    373.57328    900.05561    -66334.61    -67283.52    -66200.56     238619.9 
Loop time of 78.8824 on 1 procs for 495 steps with 19652 atoms

Performance: 0.542 ns/day, 44.266 hours/ns, 6.275 timesteps/s
99.9% CPU use with 1 MPI tasks x no OpenMP threads

MPI task timing breakdown:
Section |  min time  |  avg time  |  max time  |%varavg| %total
---------------------------------------------------------------
Pair    | 43.239     | 43.239     | 43.239     |   0.0 | 54.81
Neigh   | 34.254     | 34.254     | 34.254     |   0.0 | 43.42
Comm    | 0.50748    | 0.50748    | 0.50748    |   0.0 |  0.64
Output  | 0.067465   | 0.067465   | 0.067465   |   0.0 |  0.09
Modify  | 0.63069    | 0.63069    | 0.63069    |   0.0 |  0.80
Other   |            | 0.1835     |            |       |  0.23

Nlocal:    19652 ave 19652 max 19652 min
Histogram: 1 0 0 0 0 0 0 0 0 0
Nghost:    20109 ave 20109 max 20109 min
Histogram: 1 0 0 0 0 0 0 0 0 0
Neighs:    1.81973e+06 ave 1.81973e+06 max 1.81973e+06 min
Histogram: 1 0 0 0 0 0 0 0 0 0

Total # of neighbors = 1819730
Ave neighs/atom = 92.5977
Neighbor list builds = 495
Dangerous builds not checked
Setting up Verlet run ...
  Unit style    : metal
  Current step  : 67842
  Time step     : 0.001
Per MPI rank memory allocation (min/avg/max) = 18.56 | 18.56 | 18.56 Mbytes
Step Temp Press TotEng PotEng Enthalpy Volume 
   67842    373.57328    900.05561    -66334.61    -67283.52    -66200.56     238619.9 
   68014    361.55804    1019.8413   -66388.436   -67306.827   -66236.609    238521.08 
Loop time of 26.9191 on 1 procs for 172 steps with 19652 atoms

Performance: 0.552 ns/day, 43.474 hours/ns, 6.390 timesteps/s
99.1% CPU use with 1 MPI tasks x no OpenMP threads

MPI task timing breakdown:
Section |  min time  |  avg time  |  max time  |%varavg| %total
---------------------------------------------------------------
Pair    | 14.712     | 14.712     | 14.712     |   0.0 | 54.65
Neigh   | 11.762     | 11.762     | 11.762     |   0.0 | 43.70
Comm    | 0.16484    | 0.16484    | 0.16484    |   0.0 |  0.61
Output  | 0.00016713 | 0.00016713 | 0.00016713 |   0.0 |  0.00
Modify  | 0.22176    | 0.22176    | 0.22176    |   0.0 |  0.82
Other   |            | 0.05768    |            |       |  0.21

Nlocal:    19652 ave 19652 max 19652 min
Histogram: 1 0 0 0 0 0 0 0 0 0
Nghost:    20089 ave 20089 max 20089 min
Histogram: 1 0 0 0 0 0 0 0 0 0
Neighs:    1.82029e+06 ave 1.82029e+06 max 1.82029e+06 min
Histogram: 1 0 0 0 0 0 0 0 0 0

Total # of neighbors = 1820287
Ave neighs/atom = 92.626
Neighbor list builds = 172
Dangerous builds not checked
Setting up Verlet run ...
  Unit style    : metal
  Current step  : 68014
  Time step     : 0.001
Per MPI rank memory allocation (min/avg/max) = 18.56 | 18.56 | 18.56 Mbytes
Step Temp Press TotEng PotEng Enthalpy Volume 
   68014    361.55804    1019.8413   -66388.436   -67306.827   -66236.609    238521.08 
   68034    364.50215    527.67555   -66389.849   -67315.718   -66311.282    238553.85 
   68509    325.94141   -336.83601   -66603.329    -67431.25   -66653.395    238142.09 
Loop time of 83.7129 on 1 procs for 495 steps with 19652 atoms

Performance: 0.511 ns/day, 46.977 hours/ns, 5.913 timesteps/s
99.6% CPU use with 1 MPI tasks x no OpenMP threads

MPI task timing breakdown:
Section |  min time  |  avg time  |  max time  |%varavg| %total
---------------------------------------------------------------
Pair    | 45.889     | 45.889     | 45.889     |   0.0 | 54.82
Neigh   | 36.381     | 36.381     | 36.381     |   0.0 | 43.46
Comm    | 0.52249    | 0.52249    | 0.52249    |   0.0 |  0.62
Output  | 0.062825   | 0.062825   | 0.062825   |   0.0 |  0.08
Modify  | 0.67676    | 0.67676    | 0.67676    |   0.0 |  0.81
Other   |            | 0.18       |            |       |  0.22

Nlocal:    19652 ave 19652 max 19652 min
Histogram: 1 0 0 0 0 0 0 0 0 0
Nghost:    20116 ave 20116 max 20116 min
Histogram: 1 0 0 0 0 0 0 0 0 0
Neighs:    1.82298e+06 ave 1.82298e+06 max 1.82298e+06 min
Histogram: 1 0 0 0 0 0 0 0 0 0

Total # of neighbors = 1822985
Ave neighs/atom = 92.7633
Neighbor list builds = 495
Dangerous builds not checked
Setting up Verlet run ...
  Unit style    : metal
  Current step  : 68509
  Time step     : 0.001
Per MPI rank memory allocation (min/avg/max) = 18.56 | 18.56 | 18.56 Mbytes
Step Temp Press TotEng PotEng Enthalpy Volume 
   68509    325.94141   -336.83601   -66603.329    -67431.25   -66653.395    238142.09 
   68681    316.11396   -697.71226    -66659.33   -67462.289   -66762.999    238058.24 
Loop time of 25.7623 on 1 procs for 172 steps with 19652 atoms

Performance: 0.577 ns/day, 41.606 hours/ns, 6.676 timesteps/s
99.2% CPU use with 1 MPI tasks x no OpenMP threads

MPI task timing breakdown:
Section |  min time  |  avg time  |  max time  |%varavg| %total
---------------------------------------------------------------
Pair    | 14.066     | 14.066     | 14.066     |   0.0 | 54.60
Neigh   | 11.283     | 11.283     | 11.283     |   0.0 | 43.80
Comm    | 0.15638    | 0.15638    | 0.15638    |   0.0 |  0.61
Output  | 0.00015187 | 0.00015187 | 0.00015187 |   0.0 |  0.00
Modify  | 0.20059    | 0.20059    | 0.20059    |   0.0 |  0.78
Other   |            | 0.05631    |            |       |  0.22

Nlocal:    19652 ave 19652 max 19652 min
Histogram: 1 0 0 0 0 0 0 0 0 0
Nghost:    20125 ave 20125 max 20125 min
Histogram: 1 0 0 0 0 0 0 0 0 0
Neighs:    1.82316e+06 ave 1.82316e+06 max 1.82316e+06 min
Histogram: 1 0 0 0 0 0 0 0 0 0

Total # of neighbors = 1823165
Ave neighs/atom = 92.7725
Neighbor list builds = 172
Dangerous builds not checked
Setting up Verlet run ...
  Unit style    : metal
  Current step  : 68681
  Time step     : 0.001
Per MPI rank memory allocation (min/avg/max) = 18.56 | 18.56 | 18.56 Mbytes
Step Temp Press TotEng PotEng Enthalpy Volume 
   68681    316.11396   -697.71226    -66659.33   -67462.289   -66762.999    238058.24 
   68701    313.68786   -399.18448   -66661.054    -67457.85    -66720.36    238032.02 
   69176    274.44793   -274.51517   -66869.197    -67566.32    -66909.89     237502.8 
Loop time of 82.5918 on 1 procs for 495 steps with 19652 atoms

Performance: 0.518 ns/day, 46.348 hours/ns, 5.993 timesteps/s
98.6% CPU use with 1 MPI tasks x no OpenMP threads

MPI task timing breakdown:
Section |  min time  |  avg time  |  max time  |%varavg| %total
---------------------------------------------------------------
Pair    | 45.226     | 45.226     | 45.226     |   0.0 | 54.76
Neigh   | 35.945     | 35.945     | 35.945     |   0.0 | 43.52
Comm    | 0.50648    | 0.50648    | 0.50648    |   0.0 |  0.61
Output  | 0.071766   | 0.071766   | 0.071766   |   0.0 |  0.09
Modify  | 0.6657     | 0.6657     | 0.6657     |   0.0 |  0.81
Other   |            | 0.1761     |            |       |  0.21

Nlocal:    19652 ave 19652 max 19652 min
Histogram: 1 0 0 0 0 0 0 0 0 0
Nghost:    20103 ave 20103 max 20103 min
Histogram: 1 0 0 0 0 0 0 0 0 0
Neighs:    1.82734e+06 ave 1.82734e+06 max 1.82734e+06 min
Histogram: 1 0 0 0 0 0 0 0 0 0

Total # of neighbors = 1827344
Ave neighs/atom = 92.9851
Neighbor list builds = 495
Dangerous builds not checked
Setting up Verlet run ...
  Unit style    : metal
  Current step  : 69176
  Time step     : 0.001
Per MPI rank memory allocation (min/avg/max) = 18.56 | 18.56 | 18.56 Mbytes
Step Temp Press TotEng PotEng Enthalpy Volume 
   69176    274.44793   -274.51517   -66869.197    -67566.32    -66909.89     237502.8 
   69348    266.94994   -345.13814   -66920.971   -67599.048   -66972.108    237382.48 
Loop time of 25.4754 on 1 procs for 172 steps with 19652 atoms

Performance: 0.583 ns/day, 41.142 hours/ns, 6.752 timesteps/s
100.0% CPU use with 1 MPI tasks x no OpenMP threads

MPI task timing breakdown:
Section |  min time  |  avg time  |  max time  |%varavg| %total
---------------------------------------------------------------
Pair    | 13.951     | 13.951     | 13.951     |   0.0 | 54.76
Neigh   | 11.094     | 11.094     | 11.094     |   0.0 | 43.55
Comm    | 0.16199    | 0.16199    | 0.16199    |   0.0 |  0.64
Output  | 0.00013685 | 0.00013685 | 0.00013685 |   0.0 |  0.00
Modify  | 0.2078     | 0.2078     | 0.2078     |   0.0 |  0.82
Other   |            | 0.06005    |            |       |  0.24

Nlocal:    19652 ave 19652 max 19652 min
Histogram: 1 0 0 0 0 0 0 0 0 0
Nghost:    20105 ave 20105 max 20105 min
Histogram: 1 0 0 0 0 0 0 0 0 0
Neighs:    1.82873e+06 ave 1.82873e+06 max 1.82873e+06 min
Histogram: 1 0 0 0 0 0 0 0 0 0

Total # of neighbors = 1828732
Ave neighs/atom = 93.0558
Neighbor list builds = 172
Dangerous builds not checked
Setting up Verlet run ...
  Unit style    : metal
  Current step  : 69348
  Time step     : 0.001
Per MPI rank memory allocation (min/avg/max) = 18.56 | 18.56 | 18.56 Mbytes
Step Temp Press TotEng PotEng Enthalpy Volume 
   69348    266.94994   -345.13814   -66920.971   -67599.048   -66972.108    237382.48 
   69368    268.30002   -415.90626   -66922.992   -67604.499   -66984.609    237362.29 
   69843    227.09537   -81.116881   -67127.908   -67704.751   -67139.899    236853.09 
Loop time of 84.4789 on 1 procs for 495 steps with 19652 atoms

Performance: 0.506 ns/day, 47.407 hours/ns, 5.859 timesteps/s
99.7% CPU use with 1 MPI tasks x no OpenMP threads

MPI task timing breakdown:
Section |  min time  |  avg time  |  max time  |%varavg| %total
---------------------------------------------------------------
Pair    | 46.556     | 46.556     | 46.556     |   0.0 | 55.11
Neigh   | 36.431     | 36.431     | 36.431     |   0.0 | 43.12
Comm    | 0.53455    | 0.53455    | 0.53455    |   0.0 |  0.63
Output  | 0.086836   | 0.086836   | 0.086836   |   0.0 |  0.10
Modify  | 0.67631    | 0.67631    | 0.67631    |   0.0 |  0.80
Other   |            | 0.1941     |            |       |  0.23

Nlocal:    19652 ave 19652 max 19652 min
Histogram: 1 0 0 0 0 0 0 0 0 0
Nghost:    20153 ave 20153 max 20153 min
Histogram: 1 0 0 0 0 0 0 0 0 0
Neighs:    1.83166e+06 ave 1.83166e+06 max 1.83166e+06 min
Histogram: 1 0 0 0 0 0 0 0 0 0

Total # of neighbors = 1831663
Ave neighs/atom = 93.2049
Neighbor list builds = 495
Dangerous builds not checked
Setting up Verlet run ...
  Unit style    : metal
  Current step  : 69843
  Time step     : 0.001
Per MPI rank memory allocation (min/avg/max) = 18.56 | 18.56 | 18.56 Mbytes
Step Temp Press TotEng PotEng Enthalpy Volume 
   69843    227.09537   -81.116881   -67127.908   -67704.751   -67139.899    236853.09 
   70015    217.43976   -4.6010486   -67181.362   -67733.679   -67182.042    236728.42 
Loop time of 28.1613 on 1 procs for 172 steps with 19652 atoms

Performance: 0.528 ns/day, 45.480 hours/ns, 6.108 timesteps/s
98.7% CPU use with 1 MPI tasks x no OpenMP threads

MPI task timing breakdown:
Section |  min time  |  avg time  |  max time  |%varavg| %total
---------------------------------------------------------------
Pair    | 15.558     | 15.558     | 15.558     |   0.0 | 55.24
Neigh   | 12.144     | 12.144     | 12.144     |   0.0 | 43.12
Comm    | 0.1752     | 0.1752     | 0.1752     |   0.0 |  0.62
Output  | 0.00015998 | 0.00015998 | 0.00015998 |   0.0 |  0.00
Modify  | 0.21967    | 0.21967    | 0.21967    |   0.0 |  0.78
Other   |            | 0.06454    |            |       |  0.23

Nlocal:    19652 ave 19652 max 19652 min
Histogram: 1 0 0 0 0 0 0 0 0 0
Nghost:    20141 ave 20141 max 20141 min
Histogram: 1 0 0 0 0 0 0 0 0 0
Neighs:    1.83274e+06 ave 1.83274e+06 max 1.83274e+06 min
Histogram: 1 0 0 0 0 0 0 0 0 0

Total # of neighbors = 1832744
Ave neighs/atom = 93.2599
Neighbor list builds = 172
Dangerous builds not checked
Setting up Verlet run ...
  Unit style    : metal
  Current step  : 70015
  Time step     : 0.001
Per MPI rank memory allocation (min/avg/max) = 18.56 | 18.56 | 18.56 Mbytes
Step Temp Press TotEng PotEng Enthalpy Volume 
   70015    217.43976   -4.6010486   -67181.362   -67733.679   -67182.042    236728.42 
   70035    218.77878   -143.56089   -67183.469   -67739.187    -67204.68    236723.91 
   70510    179.74621    -281.4915   -67384.217   -67840.789    -67425.73    236276.45 
Loop time of 79.0004 on 1 procs for 495 steps with 19652 atoms

Performance: 0.541 ns/day, 44.332 hours/ns, 6.266 timesteps/s
99.9% CPU use with 1 MPI tasks x no OpenMP threads

MPI task timing breakdown:
Section |  min time  |  avg time  |  max time  |%varavg| %total
---------------------------------------------------------------
Pair    | 43.46      | 43.46      | 43.46      |   0.0 | 55.01
Neigh   | 34.147     | 34.147     | 34.147     |   0.0 | 43.22
Comm    | 0.50794    | 0.50794    | 0.50794    |   0.0 |  0.64
Output  | 0.060794   | 0.060794   | 0.060794   |   0.0 |  0.08
Modify  | 0.6387     | 0.6387     | 0.6387     |   0.0 |  0.81
Other   |            | 0.1862     |            |       |  0.24

Nlocal:    19652 ave 19652 max 19652 min
Histogram: 1 0 0 0 0 0 0 0 0 0
Nghost:    20154 ave 20154 max 20154 min
Histogram: 1 0 0 0 0 0 0 0 0 0
Neighs:    1.83596e+06 ave 1.83596e+06 max 1.83596e+06 min
Histogram: 1 0 0 0 0 0 0 0 0 0

Total # of neighbors = 1835959
Ave neighs/atom = 93.4235
Neighbor list builds = 495
Dangerous builds not checked
Setting up Verlet run ...
  Unit style    : metal
  Current step  : 70510
  Time step     : 0.001
Per MPI rank memory allocation (min/avg/max) = 18.56 | 18.56 | 18.56 Mbytes
Step Temp Press TotEng PotEng Enthalpy Volume 
   70510    179.74621    -281.4915   -67384.217   -67840.789    -67425.73    236276.45 
   70682    167.96299    302.90758   -67437.133   -67863.774   -67392.499    236084.64 
Loop time of 24.4536 on 1 procs for 172 steps with 19652 atoms

Performance: 0.608 ns/day, 39.492 hours/ns, 7.034 timesteps/s
99.7% CPU use with 1 MPI tasks x no OpenMP threads

MPI task timing breakdown:
Section |  min time  |  avg time  |  max time  |%varavg| %total
---------------------------------------------------------------
Pair    | 13.326     | 13.326     | 13.326     |   0.0 | 54.50
Neigh   | 10.735     | 10.735     | 10.735     |   0.0 | 43.90
Comm    | 0.14783    | 0.14783    | 0.14783    |   0.0 |  0.60
Output  | 0.00012398 | 0.00012398 | 0.00012398 |   0.0 |  0.00
Modify  | 0.19079    | 0.19079    | 0.19079    |   0.0 |  0.78
Other   |            | 0.0535     |            |       |  0.22

Nlocal:    19652 ave 19652 max 19652 min
Histogram: 1 0 0 0 0 0 0 0 0 0
Nghost:    20150 ave 20150 max 20150 min
Histogram: 1 0 0 0 0 0 0 0 0 0
Neighs:    1.8375e+06 ave 1.8375e+06 max 1.8375e+06 min
Histogram: 1 0 0 0 0 0 0 0 0 0

Total # of neighbors = 1837498
Ave neighs/atom = 93.5018
Neighbor list builds = 172
Dangerous builds not checked
Setting up Verlet run ...
  Unit style    : metal
  Current step  : 70682
  Time step     : 0.001
Per MPI rank memory allocation (min/avg/max) = 18.56 | 18.56 | 18.56 Mbytes
Step Temp Press TotEng PotEng Enthalpy Volume 
   70682    167.96299    302.90758   -67437.133   -67863.774   -67392.499    236084.64 
   70702    168.26186    116.42196   -67439.224   -67866.625   -67422.068    236107.83 
   71177    131.46243    438.99171   -67633.584   -67967.511   -67569.035    235582.24 
Loop time of 72.5491 on 1 procs for 495 steps with 19652 atoms

Performance: 0.590 ns/day, 40.712 hours/ns, 6.823 timesteps/s
99.1% CPU use with 1 MPI tasks x no OpenMP threads

MPI task timing breakdown:
Section |  min time  |  avg time  |  max time  |%varavg| %total
---------------------------------------------------------------
Pair    | 39.805     | 39.805     | 39.805     |   0.0 | 54.87
Neigh   | 31.489     | 31.489     | 31.489     |   0.0 | 43.40
Comm    | 0.44755    | 0.44755    | 0.44755    |   0.0 |  0.62
Output  | 0.062971   | 0.062971   | 0.062971   |   0.0 |  0.09
Modify  | 0.57681    | 0.57681    | 0.57681    |   0.0 |  0.80
Other   |            | 0.1678     |            |       |  0.23

Nlocal:    19652 ave 19652 max 19652 min
Histogram: 1 0 0 0 0 0 0 0 0 0
Nghost:    20148 ave 20148 max 20148 min
Histogram: 1 0 0 0 0 0 0 0 0 0
Neighs:    1.84156e+06 ave 1.84156e+06 max 1.84156e+06 min
Histogram: 1 0 0 0 0 0 0 0 0 0

Total # of neighbors = 1841558
Ave neighs/atom = 93.7084
Neighbor list builds = 495
Dangerous builds not checked
Setting up Verlet run ...
  Unit style    : metal
  Current step  : 71177
  Time step     : 0.001
Per MPI rank memory allocation (min/avg/max) = 18.56 | 18.56 | 18.56 Mbytes
Step Temp Press TotEng PotEng Enthalpy Volume 
   71177    131.46243    438.99171   -67633.584   -67967.511   -67569.035    235582.24 
   71349    121.14306    288.33517   -67686.261   -67993.975   -67643.883    235478.87 
Loop time of 30.5376 on 1 procs for 172 steps with 19652 atoms

Performance: 0.487 ns/day, 49.318 hours/ns, 5.632 timesteps/s
97.6% CPU use with 1 MPI tasks x no OpenMP threads

MPI task timing breakdown:
Section |  min time  |  avg time  |  max time  |%varavg| %total
---------------------------------------------------------------
Pair    | 17.006     | 17.006     | 17.006     |   0.0 | 55.69
Neigh   | 13.007     | 13.007     | 13.007     |   0.0 | 42.59
Comm    | 0.19402    | 0.19402    | 0.19402    |   0.0 |  0.64
Output  | 0.00016904 | 0.00016904 | 0.00016904 |   0.0 |  0.00
Modify  | 0.26158    | 0.26158    | 0.26158    |   0.0 |  0.86
Other   |            | 0.06908    |            |       |  0.23

Nlocal:    19652 ave 19652 max 19652 min
Histogram: 1 0 0 0 0 0 0 0 0 0
Nghost:    20154 ave 20154 max 20154 min
Histogram: 1 0 0 0 0 0 0 0 0 0
Neighs:    1.842e+06 ave 1.842e+06 max 1.842e+06 min
Histogram: 1 0 0 0 0 0 0 0 0 0

Total # of neighbors = 1841997
Ave neighs/atom = 93.7308
Neighbor list builds = 172
Dangerous builds not checked
Total wall time: 2:43:33
