LAMMPS (12 Dec 2018)
Lattice spacing in x,y,z = 4 4 4
Created orthogonal box = (0 0 0) to (68 68 68)
  1 by 1 by 1 MPI processor grid
Created 19652 atoms
  Time spent = 0.00423288 secs
Setting atom values ...
  19652 settings made for type/fraction
Neighbor list info ...
  update every 1 steps, delay 0 steps, check no
  max neighbors/atom: 2000, page size: 100000
  master list distance cutoff = 8.5
  ghost atom cutoff = 8.5
  binsize = 4.25, bins = 16 16 16
  1 neighbor lists, perpetual/occasional/extra = 1 0 0
  (1) pair eam/alloy, perpetual
      attributes: half, newton on
      pair build: half/bin/atomonly/newton
      stencil: half/bin/3d/newton
      bin: standard
Setting up Verlet run ...
  Unit style    : metal
  Current step  : 0
  Time step     : 0.001
Per MPI rank memory allocation (min/avg/max) = 18.19 | 18.19 | 18.19 Mbytes
Step Temp Press TotEng PotEng Enthalpy 
       0          300   -174102.16   -61540.291   -62302.318   -95708.368 
    1000    375.87304    -90714.44   -61540.289    -62495.04   -79343.273 
Loop time of 145.115 on 1 procs for 1000 steps with 19652 atoms

Performance: 0.595 ns/day, 40.310 hours/ns, 6.891 timesteps/s
99.9% CPU use with 1 MPI tasks x no OpenMP threads

MPI task timing breakdown:
Section |  min time  |  avg time  |  max time  |%varavg| %total
---------------------------------------------------------------
Pair    | 83.065     | 83.065     | 83.065     |   0.0 | 57.24
Neigh   | 59.669     | 59.669     | 59.669     |   0.0 | 41.12
Comm    | 1.4264     | 1.4264     | 1.4264     |   0.0 |  0.98
Output  | 0.00016713 | 0.00016713 | 0.00016713 |   0.0 |  0.00
Modify  | 0.53822    | 0.53822    | 0.53822    |   0.0 |  0.37
Other   |            | 0.4161     |            |       |  0.29

Nlocal:    19652 ave 19652 max 19652 min
Histogram: 1 0 0 0 0 0 0 0 0 0
Nghost:    19184 ave 19184 max 19184 min
Histogram: 1 0 0 0 0 0 0 0 0 0
Neighs:    1.56716e+06 ave 1.56716e+06 max 1.56716e+06 min
Histogram: 1 0 0 0 0 0 0 0 0 0

Total # of neighbors = 1567163
Ave neighs/atom = 79.7457
Neighbor list builds = 1000
Dangerous builds not checked
Setting up Verlet run ...
  Unit style    : metal
  Current step  : 1000
  Time step     : 0.001
Per MPI rank memory allocation (min/avg/max) = 18.19 | 18.19 | 18.19 Mbytes
Step Temp Press TotEng PotEng Enthalpy 
    1000    375.87304    -90714.44   -61540.289    -62495.04   -79343.273 
    2000    409.63388   -1371.7687    -66091.68   -67132.187   -66297.159 
Loop time of 171.459 on 1 procs for 1000 steps with 19652 atoms

Performance: 0.504 ns/day, 47.628 hours/ns, 5.832 timesteps/s
99.9% CPU use with 1 MPI tasks x no OpenMP threads

MPI task timing breakdown:
Section |  min time  |  avg time  |  max time  |%varavg| %total
---------------------------------------------------------------
Pair    | 95.492     | 95.492     | 95.492     |   0.0 | 55.69
Neigh   | 72.862     | 72.862     | 72.862     |   0.0 | 42.50
Comm    | 1.1451     | 1.1451     | 1.1451     |   0.0 |  0.67
Output  | 0.041553   | 0.041553   | 0.041553   |   0.0 |  0.02
Modify  | 1.534      | 1.534      | 1.534      |   0.0 |  0.89
Other   |            | 0.3839     |            |       |  0.22

Nlocal:    19652 ave 19652 max 19652 min
Histogram: 1 0 0 0 0 0 0 0 0 0
Nghost:    20405 ave 20405 max 20405 min
Histogram: 1 0 0 0 0 0 0 0 0 0
Neighs:    2.0396e+06 ave 2.0396e+06 max 2.0396e+06 min
Histogram: 1 0 0 0 0 0 0 0 0 0

Total # of neighbors = 2039602
Ave neighs/atom = 103.786
Neighbor list builds = 1000
Dangerous builds not checked
Setting up Verlet run ...
  Unit style    : metal
  Current step  : 2000
  Time step     : 0.001
Per MPI rank memory allocation (min/avg/max) = 19.34 | 19.34 | 19.34 Mbytes
Step Temp Press TotEng PotEng Enthalpy 
    2000    409.63388   -1371.7687    -66091.68   -67132.187   -66297.159 
    4000    801.04308   -305.41795    -64942.23   -66976.953   -64987.988 
    6000    1343.7716    -1001.612    -61415.48   -64828.782   -61572.923 
    8000    1908.5955    127.54116   -56272.926   -61120.932   -56250.809 
   10000    2443.1748    2188.3617   -53167.481   -59373.367   -52769.018 
Loop time of 1454.9 on 1 procs for 8000 steps with 19652 atoms

Performance: 0.475 ns/day, 50.517 hours/ns, 5.499 timesteps/s
100.0% CPU use with 1 MPI tasks x no OpenMP threads

MPI task timing breakdown:
Section |  min time  |  avg time  |  max time  |%varavg| %total
---------------------------------------------------------------
Pair    | 815.21     | 815.21     | 815.21     |   0.0 | 56.03
Neigh   | 607.32     | 607.32     | 607.32     |   0.0 | 41.74
Comm    | 13.164     | 13.164     | 13.164     |   0.0 |  0.90
Output  | 0.16745    | 0.16745    | 0.16745    |   0.0 |  0.01
Modify  | 15.222     | 15.222     | 15.222     |   0.0 |  1.05
Other   |            | 3.82       |            |       |  0.26

Nlocal:    19652 ave 19652 max 19652 min
Histogram: 1 0 0 0 0 0 0 0 0 0
Nghost:    19274 ave 19274 max 19274 min
Histogram: 1 0 0 0 0 0 0 0 0 0
Neighs:    1.68898e+06 ave 1.68898e+06 max 1.68898e+06 min
Histogram: 1 0 0 0 0 0 0 0 0 0

Total # of neighbors = 1688980
Ave neighs/atom = 85.9444
Neighbor list builds = 8000
Dangerous builds not checked
Setting up Verlet run ...
  Unit style    : metal
  Current step  : 10000
  Time step     : 0.001
Per MPI rank memory allocation (min/avg/max) = 19.72 | 19.72 | 19.72 Mbytes
Step Temp Press TotEng PotEng Enthalpy 
   10000    2443.1748    2188.3617   -53167.481   -59373.367   -52769.018 
   12000    2465.1639   -907.21826   -53148.933   -59410.674   -53314.604 
   14000    2416.1352    -251.5645   -53203.211   -59340.415   -53249.178 
   16000    2433.9193   -173.66728   -53132.963    -59315.34   -53164.727 
   18000    2468.2418   -623.20508   -53088.155   -59357.714   -53202.121 
   20000    2460.4058   -1169.2346   -53004.148   -59253.803   -53218.669 
   22000    2431.7632    1004.1347   -53134.191   -59311.091   -52950.737 
   24000    2471.5088   -6.3676224   -52996.009   -59273.867   -52997.176 
   26000    2462.7339   -1521.2974   -53050.033   -59305.601   -53328.757 
   28000    2461.4513    640.42945   -53158.961   -59411.272     -53042.2 
   30000    2441.9149    1586.0521   -53131.359   -59334.045   -52842.048 
   32000    2475.1124    1059.9854   -53013.092   -59300.103   -52819.414 
   34000    2458.5216   -842.43004   -53005.592   -59250.461   -53160.071 
   36000    2447.4483   -1465.5715    -53003.39   -59220.132   -53272.589 
   38000    2462.6487   -496.22288   -53044.155   -59299.507   -53135.016 
   40000    2432.6921   -1430.3058   -53077.178   -59256.437   -53339.557 
Loop time of 5138.67 on 1 procs for 30000 steps with 19652 atoms

Performance: 0.504 ns/day, 47.580 hours/ns, 5.838 timesteps/s
99.9% CPU use with 1 MPI tasks x no OpenMP threads

MPI task timing breakdown:
Section |  min time  |  avg time  |  max time  |%varavg| %total
---------------------------------------------------------------
Pair    | 2847.7     | 2847.7     | 2847.7     |   0.0 | 55.42
Neigh   | 2183.4     | 2183.4     | 2183.4     |   0.0 | 42.49
Comm    | 41.89      | 41.89      | 41.89      |   0.0 |  0.82
Output  | 0.66342    | 0.66342    | 0.66342    |   0.0 |  0.01
Modify  | 52.028     | 52.028     | 52.028     |   0.0 |  1.01
Other   |            | 13.01      |            |       |  0.25

Nlocal:    19652 ave 19652 max 19652 min
Histogram: 1 0 0 0 0 0 0 0 0 0
Nghost:    19273 ave 19273 max 19273 min
Histogram: 1 0 0 0 0 0 0 0 0 0
Neighs:    1.6763e+06 ave 1.6763e+06 max 1.6763e+06 min
Histogram: 1 0 0 0 0 0 0 0 0 0

Total # of neighbors = 1676303
Ave neighs/atom = 85.2994
Neighbor list builds = 30000
Dangerous builds not checked
Setting up Verlet run ...
  Unit style    : metal
  Current step  : 40000
  Time step     : 0.001
Per MPI rank memory allocation (min/avg/max) = 19.72 | 19.72 | 19.72 Mbytes
Step Temp Press TotEng PotEng Enthalpy 
   40000    2432.6921   -1430.3058   -53077.178   -59256.437   -53339.557 
   40495    2389.5395    41.656934   -53312.304   -59381.952   -53304.703 
Loop time of 84.0555 on 1 procs for 495 steps with 19652 atoms

Performance: 0.509 ns/day, 47.169 hours/ns, 5.889 timesteps/s
99.7% CPU use with 1 MPI tasks x no OpenMP threads

MPI task timing breakdown:
Section |  min time  |  avg time  |  max time  |%varavg| %total
---------------------------------------------------------------
Pair    | 46.503     | 46.503     | 46.503     |   0.0 | 55.32
Neigh   | 35.851     | 35.851     | 35.851     |   0.0 | 42.65
Comm    | 0.65848    | 0.65848    | 0.65848    |   0.0 |  0.78
Output  | 0.00015616 | 0.00015616 | 0.00015616 |   0.0 |  0.00
Modify  | 0.83402    | 0.83402    | 0.83402    |   0.0 |  0.99
Other   |            | 0.2092     |            |       |  0.25

Nlocal:    19652 ave 19652 max 19652 min
Histogram: 1 0 0 0 0 0 0 0 0 0
Nghost:    19395 ave 19395 max 19395 min
Histogram: 1 0 0 0 0 0 0 0 0 0
Neighs:    1.68436e+06 ave 1.68436e+06 max 1.68436e+06 min
Histogram: 1 0 0 0 0 0 0 0 0 0

Total # of neighbors = 1684358
Ave neighs/atom = 85.7092
Neighbor list builds = 495
Dangerous builds not checked
Setting up Verlet run ...
  Unit style    : metal
  Current step  : 40495
  Time step     : 0.001
Per MPI rank memory allocation (min/avg/max) = 19.72 | 19.72 | 19.72 Mbytes
Step Temp Press TotEng PotEng Enthalpy 
   40495    2389.5395    41.656934   -53312.304   -59381.952   -53304.703 
   42000    2403.5192    526.42891   -53335.472    -59440.63   -53239.617 
Loop time of 258.044 on 1 procs for 1505 steps with 19652 atoms

Performance: 0.504 ns/day, 47.627 hours/ns, 5.832 timesteps/s
100.0% CPU use with 1 MPI tasks x no OpenMP threads

MPI task timing breakdown:
Section |  min time  |  avg time  |  max time  |%varavg| %total
---------------------------------------------------------------
Pair    | 144.25     | 144.25     | 144.25     |   0.0 | 55.90
Neigh   | 107.99     | 107.99     | 107.99     |   0.0 | 41.85
Comm    | 2.311      | 2.311      | 2.311      |   0.0 |  0.90
Output  | 0.062414   | 0.062414   | 0.062414   |   0.0 |  0.02
Modify  | 2.7292     | 2.7292     | 2.7292     |   0.0 |  1.06
Other   |            | 0.6987     |            |       |  0.27

Nlocal:    19652 ave 19652 max 19652 min
Histogram: 1 0 0 0 0 0 0 0 0 0
Nghost:    19283 ave 19283 max 19283 min
Histogram: 1 0 0 0 0 0 0 0 0 0
Neighs:    1.68832e+06 ave 1.68832e+06 max 1.68832e+06 min
Histogram: 1 0 0 0 0 0 0 0 0 0

Total # of neighbors = 1688318
Ave neighs/atom = 85.9107
Neighbor list builds = 1505
Dangerous builds not checked
Setting up Verlet run ...
  Unit style    : metal
  Current step  : 42000
  Time step     : 0.001
Per MPI rank memory allocation (min/avg/max) = 19.72 | 19.72 | 19.72 Mbytes
Step Temp Press TotEng PotEng Enthalpy 
   42000    2403.5192    526.42891   -53335.472    -59440.63   -53239.617 
   42495    2362.3846    848.21028   -53559.536   -59560.208   -53405.623 
Loop time of 86.9647 on 1 procs for 495 steps with 19652 atoms

Performance: 0.492 ns/day, 48.802 hours/ns, 5.692 timesteps/s
100.1% CPU use with 1 MPI tasks x no OpenMP threads

MPI task timing breakdown:
Section |  min time  |  avg time  |  max time  |%varavg| %total
---------------------------------------------------------------
Pair    | 48.471     | 48.471     | 48.471     |   0.0 | 55.74
Neigh   | 36.389     | 36.389     | 36.389     |   0.0 | 41.84
Comm    | 0.85458    | 0.85458    | 0.85458    |   0.0 |  0.98
Output  | 0.00013399 | 0.00013399 | 0.00013399 |   0.0 |  0.00
Modify  | 1.0006     | 1.0006     | 1.0006     |   0.0 |  1.15
Other   |            | 0.2487     |            |       |  0.29

Nlocal:    19652 ave 19652 max 19652 min
Histogram: 1 0 0 0 0 0 0 0 0 0
Nghost:    19348 ave 19348 max 19348 min
Histogram: 1 0 0 0 0 0 0 0 0 0
Neighs:    1.69426e+06 ave 1.69426e+06 max 1.69426e+06 min
Histogram: 1 0 0 0 0 0 0 0 0 0

Total # of neighbors = 1694260
Ave neighs/atom = 86.2131
Neighbor list builds = 495
Dangerous builds not checked
Setting up Verlet run ...
  Unit style    : metal
  Current step  : 42495
  Time step     : 0.001
Per MPI rank memory allocation (min/avg/max) = 19.72 | 19.72 | 19.72 Mbytes
Step Temp Press TotEng PotEng Enthalpy 
   42495    2362.3846    848.21028   -53559.536   -59560.208   -53405.623 
   44000    2344.4193   -157.77442   -53660.459   -59615.498   -53689.054 
Loop time of 260.326 on 1 procs for 1505 steps with 19652 atoms

Performance: 0.499 ns/day, 48.048 hours/ns, 5.781 timesteps/s
100.0% CPU use with 1 MPI tasks x no OpenMP threads

MPI task timing breakdown:
Section |  min time  |  avg time  |  max time  |%varavg| %total
---------------------------------------------------------------
Pair    | 145.1      | 145.1      | 145.1      |   0.0 | 55.74
Neigh   | 109.17     | 109.17     | 109.17     |   0.0 | 41.93
Comm    | 2.4234     | 2.4234     | 2.4234     |   0.0 |  0.93
Output  | 0.082417   | 0.082417   | 0.082417   |   0.0 |  0.03
Modify  | 2.8331     | 2.8331     | 2.8331     |   0.0 |  1.09
Other   |            | 0.7239     |            |       |  0.28

Nlocal:    19652 ave 19652 max 19652 min
Histogram: 1 0 0 0 0 0 0 0 0 0
Nghost:    19343 ave 19343 max 19343 min
Histogram: 1 0 0 0 0 0 0 0 0 0
Neighs:    1.69642e+06 ave 1.69642e+06 max 1.69642e+06 min
Histogram: 1 0 0 0 0 0 0 0 0 0

Total # of neighbors = 1696421
Ave neighs/atom = 86.3231
Neighbor list builds = 1505
Dangerous builds not checked
Setting up Verlet run ...
  Unit style    : metal
  Current step  : 44000
  Time step     : 0.001
Per MPI rank memory allocation (min/avg/max) = 19.72 | 19.72 | 19.72 Mbytes
Step Temp Press TotEng PotEng Enthalpy 
   44000    2344.4193   -157.77442   -53660.459   -59615.498   -53689.054 
   44495    2317.7568    1084.1967   -53890.469   -59777.782   -53695.068 
Loop time of 90.6293 on 1 procs for 495 steps with 19652 atoms

Performance: 0.472 ns/day, 50.858 hours/ns, 5.462 timesteps/s
100.1% CPU use with 1 MPI tasks x no OpenMP threads

MPI task timing breakdown:
Section |  min time  |  avg time  |  max time  |%varavg| %total
---------------------------------------------------------------
Pair    | 50.52      | 50.52      | 50.52      |   0.0 | 55.74
Neigh   | 37.995     | 37.995     | 37.995     |   0.0 | 41.92
Comm    | 0.86373    | 0.86373    | 0.86373    |   0.0 |  0.95
Output  | 0.00016904 | 0.00016904 | 0.00016904 |   0.0 |  0.00
Modify  | 1.0021     | 1.0021     | 1.0021     |   0.0 |  1.11
Other   |            | 0.2488     |            |       |  0.27

Nlocal:    19652 ave 19652 max 19652 min
Histogram: 1 0 0 0 0 0 0 0 0 0
Nghost:    19430 ave 19430 max 19430 min
Histogram: 1 0 0 0 0 0 0 0 0 0
Neighs:    1.70643e+06 ave 1.70643e+06 max 1.70643e+06 min
Histogram: 1 0 0 0 0 0 0 0 0 0

Total # of neighbors = 1706426
Ave neighs/atom = 86.8322
Neighbor list builds = 495
Dangerous builds not checked
Setting up Verlet run ...
  Unit style    : metal
  Current step  : 44495
  Time step     : 0.001
Per MPI rank memory allocation (min/avg/max) = 19.72 | 19.72 | 19.72 Mbytes
Step Temp Press TotEng PotEng Enthalpy 
   44495    2317.7568    1084.1967   -53890.469   -59777.782   -53695.068 
   46000    2278.5757    2010.0573   -54069.936   -59857.726   -53709.055 
Loop time of 258.443 on 1 procs for 1505 steps with 19652 atoms

Performance: 0.503 ns/day, 47.701 hours/ns, 5.823 timesteps/s
99.9% CPU use with 1 MPI tasks x no OpenMP threads

MPI task timing breakdown:
Section |  min time  |  avg time  |  max time  |%varavg| %total
---------------------------------------------------------------
Pair    | 143.71     | 143.71     | 143.71     |   0.0 | 55.61
Neigh   | 109.17     | 109.17     | 109.17     |   0.0 | 42.24
Comm    | 2.1829     | 2.1829     | 2.1829     |   0.0 |  0.84
Output  | 0.042218   | 0.042218   | 0.042218   |   0.0 |  0.02
Modify  | 2.661      | 2.661      | 2.661      |   0.0 |  1.03
Other   |            | 0.6772     |            |       |  0.26

Nlocal:    19652 ave 19652 max 19652 min
Histogram: 1 0 0 0 0 0 0 0 0 0
Nghost:    19410 ave 19410 max 19410 min
Histogram: 1 0 0 0 0 0 0 0 0 0
Neighs:    1.71213e+06 ave 1.71213e+06 max 1.71213e+06 min
Histogram: 1 0 0 0 0 0 0 0 0 0

Total # of neighbors = 1712133
Ave neighs/atom = 87.1226
Neighbor list builds = 1505
Dangerous builds not checked
Setting up Verlet run ...
  Unit style    : metal
  Current step  : 46000
  Time step     : 0.001
Per MPI rank memory allocation (min/avg/max) = 19.72 | 19.72 | 19.72 Mbytes
Step Temp Press TotEng PotEng Enthalpy 
   46000    2278.5757    2010.0573   -54069.936   -59857.726   -53709.055 
   46495    2261.4541   -1346.8953   -54105.755   -59850.055   -54348.425 
Loop time of 87.1552 on 1 procs for 495 steps with 19652 atoms

Performance: 0.491 ns/day, 48.909 hours/ns, 5.680 timesteps/s
100.0% CPU use with 1 MPI tasks x no OpenMP threads

MPI task timing breakdown:
Section |  min time  |  avg time  |  max time  |%varavg| %total
---------------------------------------------------------------
Pair    | 48.338     | 48.338     | 48.338     |   0.0 | 55.46
Neigh   | 37.033     | 37.033     | 37.033     |   0.0 | 42.49
Comm    | 0.68022    | 0.68022    | 0.68022    |   0.0 |  0.78
Output  | 0.00017309 | 0.00017309 | 0.00017309 |   0.0 |  0.00
Modify  | 0.8892     | 0.8892     | 0.8892     |   0.0 |  1.02
Other   |            | 0.215      |            |       |  0.25

Nlocal:    19652 ave 19652 max 19652 min
Histogram: 1 0 0 0 0 0 0 0 0 0
Nghost:    19364 ave 19364 max 19364 min
Histogram: 1 0 0 0 0 0 0 0 0 0
Neighs:    1.70634e+06 ave 1.70634e+06 max 1.70634e+06 min
Histogram: 1 0 0 0 0 0 0 0 0 0

Total # of neighbors = 1706337
Ave neighs/atom = 86.8277
Neighbor list builds = 495
Dangerous builds not checked
Setting up Verlet run ...
  Unit style    : metal
  Current step  : 46495
  Time step     : 0.001
Per MPI rank memory allocation (min/avg/max) = 19.72 | 19.72 | 19.72 Mbytes
Step Temp Press TotEng PotEng Enthalpy 
   46495    2261.4541   -1346.8953   -54105.755   -59850.055   -54348.425 
   48000    2249.5653   -1883.3046    -54237.38   -59951.481   -54576.061 
Loop time of 261.279 on 1 procs for 1505 steps with 19652 atoms

Performance: 0.498 ns/day, 48.224 hours/ns, 5.760 timesteps/s
99.9% CPU use with 1 MPI tasks x no OpenMP threads

MPI task timing breakdown:
Section |  min time  |  avg time  |  max time  |%varavg| %total
---------------------------------------------------------------
Pair    | 144.71     | 144.71     | 144.71     |   0.0 | 55.39
Neigh   | 111.15     | 111.15     | 111.15     |   0.0 | 42.54
Comm    | 2.0814     | 2.0814     | 2.0814     |   0.0 |  0.80
Output  | 0.041642   | 0.041642   | 0.041642   |   0.0 |  0.02
Modify  | 2.648      | 2.648      | 2.648      |   0.0 |  1.01
Other   |            | 0.652      |            |       |  0.25

Nlocal:    19652 ave 19652 max 19652 min
Histogram: 1 0 0 0 0 0 0 0 0 0
Nghost:    19416 ave 19416 max 19416 min
Histogram: 1 0 0 0 0 0 0 0 0 0
Neighs:    1.70909e+06 ave 1.70909e+06 max 1.70909e+06 min
Histogram: 1 0 0 0 0 0 0 0 0 0

Total # of neighbors = 1709087
Ave neighs/atom = 86.9676
Neighbor list builds = 1505
Dangerous builds not checked
Setting up Verlet run ...
  Unit style    : metal
  Current step  : 48000
  Time step     : 0.001
Per MPI rank memory allocation (min/avg/max) = 19.72 | 19.72 | 19.72 Mbytes
Step Temp Press TotEng PotEng Enthalpy 
   48000    2249.5653   -1883.3046    -54237.38   -59951.481   -54576.061 
   48495    2202.9219   -284.46935    -54456.45   -60052.073   -54507.337 
Loop time of 77.5817 on 1 procs for 495 steps with 19652 atoms

Performance: 0.551 ns/day, 43.536 hours/ns, 6.380 timesteps/s
100.0% CPU use with 1 MPI tasks x no OpenMP threads

MPI task timing breakdown:
Section |  min time  |  avg time  |  max time  |%varavg| %total
---------------------------------------------------------------
Pair    | 43.183     | 43.183     | 43.183     |   0.0 | 55.66
Neigh   | 32.874     | 32.874     | 32.874     |   0.0 | 42.37
Comm    | 0.57331    | 0.57331    | 0.57331    |   0.0 |  0.74
Output  | 0.00016284 | 0.00016284 | 0.00016284 |   0.0 |  0.00
Modify  | 0.76322    | 0.76322    | 0.76322    |   0.0 |  0.98
Other   |            | 0.1879     |            |       |  0.24

Nlocal:    19652 ave 19652 max 19652 min
Histogram: 1 0 0 0 0 0 0 0 0 0
Nghost:    19493 ave 19493 max 19493 min
Histogram: 1 0 0 0 0 0 0 0 0 0
Neighs:    1.71856e+06 ave 1.71856e+06 max 1.71856e+06 min
Histogram: 1 0 0 0 0 0 0 0 0 0

Total # of neighbors = 1718564
Ave neighs/atom = 87.4498
Neighbor list builds = 495
Dangerous builds not checked
Setting up Verlet run ...
  Unit style    : metal
  Current step  : 48495
  Time step     : 0.001
Per MPI rank memory allocation (min/avg/max) = 19.72 | 19.72 | 19.72 Mbytes
Step Temp Press TotEng PotEng Enthalpy 
   48495    2202.9219   -284.46935    -54456.45   -60052.073   -54507.337 
   50000    2205.8287    1424.3855   -54504.842   -60107.848   -54250.791 
Loop time of 276.539 on 1 procs for 1505 steps with 19652 atoms

Performance: 0.470 ns/day, 51.041 hours/ns, 5.442 timesteps/s
100.0% CPU use with 1 MPI tasks x no OpenMP threads

MPI task timing breakdown:
Section |  min time  |  avg time  |  max time  |%varavg| %total
---------------------------------------------------------------
Pair    | 153.02     | 153.02     | 153.02     |   0.0 | 55.33
Neigh   | 117.91     | 117.91     | 117.91     |   0.0 | 42.64
Comm    | 2.1405     | 2.1405     | 2.1405     |   0.0 |  0.77
Output  | 0.066022   | 0.066022   | 0.066022   |   0.0 |  0.02
Modify  | 2.7436     | 2.7436     | 2.7436     |   0.0 |  0.99
Other   |            | 0.6615     |            |       |  0.24

Nlocal:    19652 ave 19652 max 19652 min
Histogram: 1 0 0 0 0 0 0 0 0 0
Nghost:    19396 ave 19396 max 19396 min
Histogram: 1 0 0 0 0 0 0 0 0 0
Neighs:    1.7233e+06 ave 1.7233e+06 max 1.7233e+06 min
Histogram: 1 0 0 0 0 0 0 0 0 0

Total # of neighbors = 1723298
Ave neighs/atom = 87.6907
Neighbor list builds = 1505
Dangerous builds not checked
Setting up Verlet run ...
  Unit style    : metal
  Current step  : 50000
  Time step     : 0.001
Per MPI rank memory allocation (min/avg/max) = 19.72 | 19.72 | 19.72 Mbytes
Step Temp Press TotEng PotEng Enthalpy 
   50000    2205.8287    1424.3855   -54504.842   -60107.848   -54250.791 
   50495    2162.6621    2273.2431   -54703.555   -60196.914   -54299.611 
Loop time of 93.2942 on 1 procs for 495 steps with 19652 atoms

Performance: 0.458 ns/day, 52.354 hours/ns, 5.306 timesteps/s
99.6% CPU use with 1 MPI tasks x no OpenMP threads

MPI task timing breakdown:
Section |  min time  |  avg time  |  max time  |%varavg| %total
---------------------------------------------------------------
Pair    | 51.735     | 51.735     | 51.735     |   0.0 | 55.45
Neigh   | 39.701     | 39.701     | 39.701     |   0.0 | 42.55
Comm    | 0.70965    | 0.70965    | 0.70965    |   0.0 |  0.76
Output  | 0.00019598 | 0.00019598 | 0.00019598 |   0.0 |  0.00
Modify  | 0.92402    | 0.92402    | 0.92402    |   0.0 |  0.99
Other   |            | 0.2244     |            |       |  0.24

Nlocal:    19652 ave 19652 max 19652 min
Histogram: 1 0 0 0 0 0 0 0 0 0
Nghost:    19557 ave 19557 max 19557 min
Histogram: 1 0 0 0 0 0 0 0 0 0
Neighs:    1.72941e+06 ave 1.72941e+06 max 1.72941e+06 min
Histogram: 1 0 0 0 0 0 0 0 0 0

Total # of neighbors = 1729412
Ave neighs/atom = 88.0018
Neighbor list builds = 495
Dangerous builds not checked
Setting up Verlet run ...
  Unit style    : metal
  Current step  : 50495
  Time step     : 0.001
Per MPI rank memory allocation (min/avg/max) = 19.72 | 19.72 | 19.72 Mbytes
Step Temp Press TotEng PotEng Enthalpy 
   50495    2162.6621    2273.2431   -54703.555   -60196.914   -54299.611 
   52000    2137.1535   -344.58111   -54850.944   -60279.509   -54912.164 
Loop time of 250.314 on 1 procs for 1505 steps with 19652 atoms

Performance: 0.519 ns/day, 46.200 hours/ns, 6.012 timesteps/s
100.0% CPU use with 1 MPI tasks x no OpenMP threads

MPI task timing breakdown:
Section |  min time  |  avg time  |  max time  |%varavg| %total
---------------------------------------------------------------
Pair    | 139.47     | 139.47     | 139.47     |   0.0 | 55.72
Neigh   | 105.64     | 105.64     | 105.64     |   0.0 | 42.20
Comm    | 1.9803     | 1.9803     | 1.9803     |   0.0 |  0.79
Output  | 0.067224   | 0.067224   | 0.067224   |   0.0 |  0.03
Modify  | 2.5252     | 2.5252     | 2.5252     |   0.0 |  1.01
Other   |            | 0.6247     |            |       |  0.25

Nlocal:    19652 ave 19652 max 19652 min
Histogram: 1 0 0 0 0 0 0 0 0 0
Nghost:    19464 ave 19464 max 19464 min
Histogram: 1 0 0 0 0 0 0 0 0 0
Neighs:    1.72923e+06 ave 1.72923e+06 max 1.72923e+06 min
Histogram: 1 0 0 0 0 0 0 0 0 0

Total # of neighbors = 1729226
Ave neighs/atom = 87.9924
Neighbor list builds = 1505
Dangerous builds not checked
Setting up Verlet run ...
  Unit style    : metal
  Current step  : 52000
  Time step     : 0.001
Per MPI rank memory allocation (min/avg/max) = 19.72 | 19.72 | 19.72 Mbytes
Step Temp Press TotEng PotEng Enthalpy 
   52000    2137.1535   -344.58111   -54850.944   -60279.509   -54912.164 
   52495    2107.9132    549.52865   -55000.077   -60354.368   -54902.735 
Loop time of 82.0558 on 1 procs for 495 steps with 19652 atoms

Performance: 0.521 ns/day, 46.047 hours/ns, 6.032 timesteps/s
99.9% CPU use with 1 MPI tasks x no OpenMP threads

MPI task timing breakdown:
Section |  min time  |  avg time  |  max time  |%varavg| %total
---------------------------------------------------------------
Pair    | 45.919     | 45.919     | 45.919     |   0.0 | 55.96
Neigh   | 34.246     | 34.246     | 34.246     |   0.0 | 41.74
Comm    | 0.7532     | 0.7532     | 0.7532     |   0.0 |  0.92
Output  | 0.00021505 | 0.00021505 | 0.00021505 |   0.0 |  0.00
Modify  | 0.91689    | 0.91689    | 0.91689    |   0.0 |  1.12
Other   |            | 0.22       |            |       |  0.27

Nlocal:    19652 ave 19652 max 19652 min
Histogram: 1 0 0 0 0 0 0 0 0 0
Nghost:    19611 ave 19611 max 19611 min
Histogram: 1 0 0 0 0 0 0 0 0 0
Neighs:    1.73484e+06 ave 1.73484e+06 max 1.73484e+06 min
Histogram: 1 0 0 0 0 0 0 0 0 0

Total # of neighbors = 1734840
Ave neighs/atom = 88.278
Neighbor list builds = 495
Dangerous builds not checked
Setting up Verlet run ...
  Unit style    : metal
  Current step  : 52495
  Time step     : 0.001
Per MPI rank memory allocation (min/avg/max) = 19.72 | 19.72 | 19.72 Mbytes
Step Temp Press TotEng PotEng Enthalpy 
   52495    2107.9132    549.52865   -55000.077   -60354.368   -54902.735 
   54000    2115.8149     116.4097   -55024.903   -60399.265   -55004.293 
Loop time of 256.733 on 1 procs for 1505 steps with 19652 atoms

Performance: 0.506 ns/day, 47.385 hours/ns, 5.862 timesteps/s
100.0% CPU use with 1 MPI tasks x no OpenMP threads

MPI task timing breakdown:
Section |  min time  |  avg time  |  max time  |%varavg| %total
---------------------------------------------------------------
Pair    | 143.57     | 143.57     | 143.57     |   0.0 | 55.92
Neigh   | 107.73     | 107.73     | 107.73     |   0.0 | 41.96
Comm    | 2.1151     | 2.1151     | 2.1151     |   0.0 |  0.82
Output  | 0.061667   | 0.061667   | 0.061667   |   0.0 |  0.02
Modify  | 2.6106     | 2.6106     | 2.6106     |   0.0 |  1.02
Other   |            | 0.6537     |            |       |  0.25

Nlocal:    19652 ave 19652 max 19652 min
Histogram: 1 0 0 0 0 0 0 0 0 0
Nghost:    19499 ave 19499 max 19499 min
Histogram: 1 0 0 0 0 0 0 0 0 0
Neighs:    1.73564e+06 ave 1.73564e+06 max 1.73564e+06 min
Histogram: 1 0 0 0 0 0 0 0 0 0

Total # of neighbors = 1735635
Ave neighs/atom = 88.3185
Neighbor list builds = 1505
Dangerous builds not checked
Setting up Verlet run ...
  Unit style    : metal
  Current step  : 54000
  Time step     : 0.001
Per MPI rank memory allocation (min/avg/max) = 19.72 | 19.72 | 19.72 Mbytes
Step Temp Press TotEng PotEng Enthalpy 
   54000    2115.8149     116.4097   -55024.903   -60399.265   -55004.293 
   54495    2057.5416    115.82981   -55309.425   -60535.768   -55289.006 
Loop time of 89.0706 on 1 procs for 495 steps with 19652 atoms

Performance: 0.480 ns/day, 49.984 hours/ns, 5.557 timesteps/s
99.9% CPU use with 1 MPI tasks x no OpenMP threads

MPI task timing breakdown:
Section |  min time  |  avg time  |  max time  |%varavg| %total
---------------------------------------------------------------
Pair    | 49.769     | 49.769     | 49.769     |   0.0 | 55.88
Neigh   | 37.519     | 37.519     | 37.519     |   0.0 | 42.12
Comm    | 0.67833    | 0.67833    | 0.67833    |   0.0 |  0.76
Output  | 0.000139   | 0.000139   | 0.000139   |   0.0 |  0.00
Modify  | 0.88244    | 0.88244    | 0.88244    |   0.0 |  0.99
Other   |            | 0.2213     |            |       |  0.25

Nlocal:    19652 ave 19652 max 19652 min
Histogram: 1 0 0 0 0 0 0 0 0 0
Nghost:    19610 ave 19610 max 19610 min
Histogram: 1 0 0 0 0 0 0 0 0 0
Neighs:    1.74302e+06 ave 1.74302e+06 max 1.74302e+06 min
Histogram: 1 0 0 0 0 0 0 0 0 0

Total # of neighbors = 1743022
Ave neighs/atom = 88.6944
Neighbor list builds = 495
Dangerous builds not checked
Setting up Verlet run ...
  Unit style    : metal
  Current step  : 54495
  Time step     : 0.001
Per MPI rank memory allocation (min/avg/max) = 19.72 | 19.72 | 19.72 Mbytes
Step Temp Press TotEng PotEng Enthalpy 
   54495    2057.5416    115.82981   -55309.425   -60535.768   -55289.006 
   56000    2051.5976    557.27376   -55392.347   -60603.591   -55294.344 
Loop time of 246.928 on 1 procs for 1505 steps with 19652 atoms

Performance: 0.527 ns/day, 45.576 hours/ns, 6.095 timesteps/s
100.1% CPU use with 1 MPI tasks x no OpenMP threads

MPI task timing breakdown:
Section |  min time  |  avg time  |  max time  |%varavg| %total
---------------------------------------------------------------
Pair    | 137.64     | 137.64     | 137.64     |   0.0 | 55.74
Neigh   | 104.53     | 104.53     | 104.53     |   0.0 | 42.33
Comm    | 1.7847     | 1.7847     | 1.7847     |   0.0 |  0.72
Output  | 0.041282   | 0.041282   | 0.041282   |   0.0 |  0.02
Modify  | 2.3468     | 2.3468     | 2.3468     |   0.0 |  0.95
Other   |            | 0.5775     |            |       |  0.23

Nlocal:    19652 ave 19652 max 19652 min
Histogram: 1 0 0 0 0 0 0 0 0 0
Nghost:    19552 ave 19552 max 19552 min
Histogram: 1 0 0 0 0 0 0 0 0 0
Neighs:    1.74686e+06 ave 1.74686e+06 max 1.74686e+06 min
Histogram: 1 0 0 0 0 0 0 0 0 0

Total # of neighbors = 1746865
Ave neighs/atom = 88.8899
Neighbor list builds = 1505
Dangerous builds not checked
Setting up Verlet run ...
  Unit style    : metal
  Current step  : 56000
  Time step     : 0.001
Per MPI rank memory allocation (min/avg/max) = 19.72 | 19.72 | 19.72 Mbytes
Step Temp Press TotEng PotEng Enthalpy 
   56000    2051.5976    557.27376   -55392.347   -60603.591   -55294.344 
   56495    2013.9051    1687.1098   -55591.586   -60707.088   -55296.116 
Loop time of 83.853 on 1 procs for 495 steps with 19652 atoms

Performance: 0.510 ns/day, 47.056 hours/ns, 5.903 timesteps/s
99.9% CPU use with 1 MPI tasks x no OpenMP threads

MPI task timing breakdown:
Section |  min time  |  avg time  |  max time  |%varavg| %total
---------------------------------------------------------------
Pair    | 46.684     | 46.684     | 46.684     |   0.0 | 55.67
Neigh   | 35.501     | 35.501     | 35.501     |   0.0 | 42.34
Comm    | 0.6326     | 0.6326     | 0.6326     |   0.0 |  0.75
Output  | 0.00015283 | 0.00015283 | 0.00015283 |   0.0 |  0.00
Modify  | 0.8307     | 0.8307     | 0.8307     |   0.0 |  0.99
Other   |            | 0.2044     |            |       |  0.24

Nlocal:    19652 ave 19652 max 19652 min
Histogram: 1 0 0 0 0 0 0 0 0 0
Nghost:    19578 ave 19578 max 19578 min
Histogram: 1 0 0 0 0 0 0 0 0 0
Neighs:    1.75403e+06 ave 1.75403e+06 max 1.75403e+06 min
Histogram: 1 0 0 0 0 0 0 0 0 0

Total # of neighbors = 1754026
Ave neighs/atom = 89.2543
Neighbor list builds = 495
Dangerous builds not checked
Setting up Verlet run ...
  Unit style    : metal
  Current step  : 56495
  Time step     : 0.001
Per MPI rank memory allocation (min/avg/max) = 19.72 | 19.72 | 19.72 Mbytes
Step Temp Press TotEng PotEng Enthalpy 
   56495    2013.9051    1687.1098   -55591.586   -60707.088   -55296.116 
   58000    1986.5854   -1567.9261   -55641.602    -60687.71   -55917.256 
Loop time of 275.843 on 1 procs for 1505 steps with 19652 atoms

Performance: 0.471 ns/day, 50.912 hours/ns, 5.456 timesteps/s
99.9% CPU use with 1 MPI tasks x no OpenMP threads

MPI task timing breakdown:
Section |  min time  |  avg time  |  max time  |%varavg| %total
---------------------------------------------------------------
Pair    | 155.39     | 155.39     | 155.39     |   0.0 | 56.33
Neigh   | 114.53     | 114.53     | 114.53     |   0.0 | 41.52
Comm    | 2.3355     | 2.3355     | 2.3355     |   0.0 |  0.85
Output  | 0.062512   | 0.062512   | 0.062512   |   0.0 |  0.02
Modify  | 2.812      | 2.812      | 2.812      |   0.0 |  1.02
Other   |            | 0.72       |            |       |  0.26

Nlocal:    19652 ave 19652 max 19652 min
Histogram: 1 0 0 0 0 0 0 0 0 0
Nghost:    19575 ave 19575 max 19575 min
Histogram: 1 0 0 0 0 0 0 0 0 0
Neighs:    1.74784e+06 ave 1.74784e+06 max 1.74784e+06 min
Histogram: 1 0 0 0 0 0 0 0 0 0

Total # of neighbors = 1747839
Ave neighs/atom = 88.9395
Neighbor list builds = 1505
Dangerous builds not checked
Setting up Verlet run ...
  Unit style    : metal
  Current step  : 58000
  Time step     : 0.001
Per MPI rank memory allocation (min/avg/max) = 19.72 | 19.72 | 19.72 Mbytes
Step Temp Press TotEng PotEng Enthalpy 
   58000    1986.5854   -1567.9261   -55641.602    -60687.71   -55917.256 
   58495    1950.6191   -4.3609693   -55867.981   -60822.731   -55868.743 
Loop time of 81.2275 on 1 procs for 495 steps with 19652 atoms

Performance: 0.527 ns/day, 45.582 hours/ns, 6.094 timesteps/s
100.0% CPU use with 1 MPI tasks x no OpenMP threads

MPI task timing breakdown:
Section |  min time  |  avg time  |  max time  |%varavg| %total
---------------------------------------------------------------
Pair    | 45.822     | 45.822     | 45.822     |   0.0 | 56.41
Neigh   | 33.618     | 33.618     | 33.618     |   0.0 | 41.39
Comm    | 0.70822    | 0.70822    | 0.70822    |   0.0 |  0.87
Output  | 0.00012994 | 0.00012994 | 0.00012994 |   0.0 |  0.00
Modify  | 0.85751    | 0.85751    | 0.85751    |   0.0 |  1.06
Other   |            | 0.2215     |            |       |  0.27

Nlocal:    19652 ave 19652 max 19652 min
Histogram: 1 0 0 0 0 0 0 0 0 0
Nghost:    19661 ave 19661 max 19661 min
Histogram: 1 0 0 0 0 0 0 0 0 0
Neighs:    1.7568e+06 ave 1.7568e+06 max 1.7568e+06 min
Histogram: 1 0 0 0 0 0 0 0 0 0

Total # of neighbors = 1756797
Ave neighs/atom = 89.3953
Neighbor list builds = 495
Dangerous builds not checked
Setting up Verlet run ...
  Unit style    : metal
  Current step  : 58495
  Time step     : 0.001
Per MPI rank memory allocation (min/avg/max) = 19.72 | 19.72 | 19.72 Mbytes
Step Temp Press TotEng PotEng Enthalpy 
   58495    1950.6191   -4.3609693   -55867.981   -60822.731   -55868.743 
   60000    1950.6108   -1839.6406   -55913.365   -60868.094   -56235.139 
Loop time of 247.847 on 1 procs for 1505 steps with 19652 atoms

Performance: 0.525 ns/day, 45.745 hours/ns, 6.072 timesteps/s
100.0% CPU use with 1 MPI tasks x no OpenMP threads

MPI task timing breakdown:
Section |  min time  |  avg time  |  max time  |%varavg| %total
---------------------------------------------------------------
Pair    | 140.28     | 140.28     | 140.28     |   0.0 | 56.60
Neigh   | 101.86     | 101.86     | 101.86     |   0.0 | 41.10
Comm    | 2.2993     | 2.2993     | 2.2993     |   0.0 |  0.93
Output  | 0.042067   | 0.042067   | 0.042067   |   0.0 |  0.02
Modify  | 2.6729     | 2.6729     | 2.6729     |   0.0 |  1.08
Other   |            | 0.6894     |            |       |  0.28

Nlocal:    19652 ave 19652 max 19652 min
Histogram: 1 0 0 0 0 0 0 0 0 0
Nghost:    19610 ave 19610 max 19610 min
Histogram: 1 0 0 0 0 0 0 0 0 0
Neighs:    1.75611e+06 ave 1.75611e+06 max 1.75611e+06 min
Histogram: 1 0 0 0 0 0 0 0 0 0

Total # of neighbors = 1756112
Ave neighs/atom = 89.3605
Neighbor list builds = 1505
Dangerous builds not checked
Setting up Verlet run ...
  Unit style    : metal
  Current step  : 60000
  Time step     : 0.001
Per MPI rank memory allocation (min/avg/max) = 19.72 | 19.72 | 19.72 Mbytes
Step Temp Press TotEng PotEng Enthalpy 
   60000    1950.6108   -1839.6406   -55913.365   -60868.094   -56235.139 
   60495    1910.1924    246.31975   -56160.006   -61012.068   -56117.189 
Loop time of 82.732 on 1 procs for 495 steps with 19652 atoms

Performance: 0.517 ns/day, 46.426 hours/ns, 5.983 timesteps/s
100.0% CPU use with 1 MPI tasks x no OpenMP threads

MPI task timing breakdown:
Section |  min time  |  avg time  |  max time  |%varavg| %total
---------------------------------------------------------------
Pair    | 46.452     | 46.452     | 46.452     |   0.0 | 56.15
Neigh   | 34.488     | 34.488     | 34.488     |   0.0 | 41.69
Comm    | 0.70437    | 0.70437    | 0.70437    |   0.0 |  0.85
Output  | 0.00013113 | 0.00013113 | 0.00013113 |   0.0 |  0.00
Modify  | 0.86772    | 0.86772    | 0.86772    |   0.0 |  1.05
Other   |            | 0.2191     |            |       |  0.26

Nlocal:    19652 ave 19652 max 19652 min
Histogram: 1 0 0 0 0 0 0 0 0 0
Nghost:    19720 ave 19720 max 19720 min
Histogram: 1 0 0 0 0 0 0 0 0 0
Neighs:    1.76656e+06 ave 1.76656e+06 max 1.76656e+06 min
Histogram: 1 0 0 0 0 0 0 0 0 0

Total # of neighbors = 1766559
Ave neighs/atom = 89.8921
Neighbor list builds = 495
Dangerous builds not checked
Setting up Verlet run ...
  Unit style    : metal
  Current step  : 60495
  Time step     : 0.001
Per MPI rank memory allocation (min/avg/max) = 19.72 | 19.72 | 19.72 Mbytes
Step Temp Press TotEng PotEng Enthalpy 
   60495    1910.1924    246.31975   -56160.006   -61012.068   -56117.189 
   62000    1898.9693    665.32045   -56229.231   -61052.785   -56113.754 
Loop time of 250.279 on 1 procs for 1505 steps with 19652 atoms

Performance: 0.520 ns/day, 46.194 hours/ns, 6.013 timesteps/s
100.0% CPU use with 1 MPI tasks x no OpenMP threads

MPI task timing breakdown:
Section |  min time  |  avg time  |  max time  |%varavg| %total
---------------------------------------------------------------
Pair    | 140.2      | 140.2      | 140.2      |   0.0 | 56.02
Neigh   | 105.09     | 105.09     | 105.09     |   0.0 | 41.99
Comm    | 1.8764     | 1.8764     | 1.8764     |   0.0 |  0.75
Output  | 0.040576   | 0.040576   | 0.040576   |   0.0 |  0.02
Modify  | 2.4629     | 2.4629     | 2.4629     |   0.0 |  0.98
Other   |            | 0.6063     |            |       |  0.24

Nlocal:    19652 ave 19652 max 19652 min
Histogram: 1 0 0 0 0 0 0 0 0 0
Nghost:    19685 ave 19685 max 19685 min
Histogram: 1 0 0 0 0 0 0 0 0 0
Neighs:    1.76924e+06 ave 1.76924e+06 max 1.76924e+06 min
Histogram: 1 0 0 0 0 0 0 0 0 0

Total # of neighbors = 1769245
Ave neighs/atom = 90.0288
Neighbor list builds = 1505
Dangerous builds not checked
Setting up Verlet run ...
  Unit style    : metal
  Current step  : 62000
  Time step     : 0.001
Per MPI rank memory allocation (min/avg/max) = 19.72 | 19.72 | 19.72 Mbytes
Step Temp Press TotEng PotEng Enthalpy 
   62000    1898.9693    665.32045   -56229.231   -61052.785   -56113.754 
   62495    1866.9176     1305.431   -56459.358   -61201.499   -56233.816 
Loop time of 79.3309 on 1 procs for 495 steps with 19652 atoms

Performance: 0.539 ns/day, 44.518 hours/ns, 6.240 timesteps/s
100.1% CPU use with 1 MPI tasks x no OpenMP threads

MPI task timing breakdown:
Section |  min time  |  avg time  |  max time  |%varavg| %total
---------------------------------------------------------------
Pair    | 44.504     | 44.504     | 44.504     |   0.0 | 56.10
Neigh   | 33.246     | 33.246     | 33.246     |   0.0 | 41.91
Comm    | 0.59781    | 0.59781    | 0.59781    |   0.0 |  0.75
Output  | 0.00013494 | 0.00013494 | 0.00013494 |   0.0 |  0.00
Modify  | 0.78798    | 0.78798    | 0.78798    |   0.0 |  0.99
Other   |            | 0.195      |            |       |  0.25

Nlocal:    19652 ave 19652 max 19652 min
Histogram: 1 0 0 0 0 0 0 0 0 0
Nghost:    19753 ave 19753 max 19753 min
Histogram: 1 0 0 0 0 0 0 0 0 0
Neighs:    1.77735e+06 ave 1.77735e+06 max 1.77735e+06 min
Histogram: 1 0 0 0 0 0 0 0 0 0

Total # of neighbors = 1777347
Ave neighs/atom = 90.441
Neighbor list builds = 495
Dangerous builds not checked
Setting up Verlet run ...
  Unit style    : metal
  Current step  : 62495
  Time step     : 0.001
Per MPI rank memory allocation (min/avg/max) = 19.72 | 19.72 | 19.72 Mbytes
Step Temp Press TotEng PotEng Enthalpy 
   62495    1866.9176     1305.431   -56459.358   -61201.499   -56233.816 
   64000    1852.6211   -1275.3631   -56537.872   -61243.698   -56758.444 
Loop time of 254.607 on 1 procs for 1505 steps with 19652 atoms

Performance: 0.511 ns/day, 46.993 hours/ns, 5.911 timesteps/s
100.0% CPU use with 1 MPI tasks x no OpenMP threads

MPI task timing breakdown:
Section |  min time  |  avg time  |  max time  |%varavg| %total
---------------------------------------------------------------
Pair    | 142.01     | 142.01     | 142.01     |   0.0 | 55.77
Neigh   | 107.92     | 107.92     | 107.92     |   0.0 | 42.39
Comm    | 1.7026     | 1.7026     | 1.7026     |   0.0 |  0.67
Output  | 0.040518   | 0.040518   | 0.040518   |   0.0 |  0.02
Modify  | 2.354      | 2.354      | 2.354      |   0.0 |  0.92
Other   |            | 0.5826     |            |       |  0.23

Nlocal:    19652 ave 19652 max 19652 min
Histogram: 1 0 0 0 0 0 0 0 0 0
Nghost:    19684 ave 19684 max 19684 min
Histogram: 1 0 0 0 0 0 0 0 0 0
Neighs:    1.77548e+06 ave 1.77548e+06 max 1.77548e+06 min
Histogram: 1 0 0 0 0 0 0 0 0 0

Total # of neighbors = 1775479
Ave neighs/atom = 90.346
Neighbor list builds = 1505
Dangerous builds not checked
Setting up Verlet run ...
  Unit style    : metal
  Current step  : 64000
  Time step     : 0.001
Per MPI rank memory allocation (min/avg/max) = 19.72 | 19.72 | 19.72 Mbytes
Step Temp Press TotEng PotEng Enthalpy 
   64000    1852.6211   -1275.3631   -56537.872   -61243.698   -56758.444 
   64495    1798.1751   -618.46813   -56747.884   -61315.412   -56854.544 
Loop time of 80.9639 on 1 procs for 495 steps with 19652 atoms

Performance: 0.528 ns/day, 45.434 hours/ns, 6.114 timesteps/s
99.7% CPU use with 1 MPI tasks x no OpenMP threads

MPI task timing breakdown:
Section |  min time  |  avg time  |  max time  |%varavg| %total
---------------------------------------------------------------
Pair    | 45.317     | 45.317     | 45.317     |   0.0 | 55.97
Neigh   | 34.155     | 34.155     | 34.155     |   0.0 | 42.19
Comm    | 0.52255    | 0.52255    | 0.52255    |   0.0 |  0.65
Output  | 0.00018501 | 0.00018501 | 0.00018501 |   0.0 |  0.00
Modify  | 0.74188    | 0.74188    | 0.74188    |   0.0 |  0.92
Other   |            | 0.2273     |            |       |  0.28

Nlocal:    19652 ave 19652 max 19652 min
Histogram: 1 0 0 0 0 0 0 0 0 0
Nghost:    19805 ave 19805 max 19805 min
Histogram: 1 0 0 0 0 0 0 0 0 0
Neighs:    1.78036e+06 ave 1.78036e+06 max 1.78036e+06 min
Histogram: 1 0 0 0 0 0 0 0 0 0

Total # of neighbors = 1780360
Ave neighs/atom = 90.5943
Neighbor list builds = 495
Dangerous builds not checked
Setting up Verlet run ...
  Unit style    : metal
  Current step  : 64495
  Time step     : 0.001
Per MPI rank memory allocation (min/avg/max) = 19.72 | 19.72 | 19.72 Mbytes
Step Temp Press TotEng PotEng Enthalpy 
   64495    1798.1751   -618.46813   -56747.884   -61315.412   -56854.544 
   66000    1805.1986    889.10667   -56826.381    -61411.75   -56673.637 
Loop time of 257.777 on 1 procs for 1505 steps with 19652 atoms

Performance: 0.504 ns/day, 47.578 hours/ns, 5.838 timesteps/s
100.0% CPU use with 1 MPI tasks x no OpenMP threads

MPI task timing breakdown:
Section |  min time  |  avg time  |  max time  |%varavg| %total
---------------------------------------------------------------
Pair    | 144.18     | 144.18     | 144.18     |   0.0 | 55.93
Neigh   | 108.82     | 108.82     | 108.82     |   0.0 | 42.22
Comm    | 1.7467     | 1.7467     | 1.7467     |   0.0 |  0.68
Output  | 0.040596   | 0.040596   | 0.040596   |   0.0 |  0.02
Modify  | 2.3909     | 2.3909     | 2.3909     |   0.0 |  0.93
Other   |            | 0.5943     |            |       |  0.23

Nlocal:    19652 ave 19652 max 19652 min
Histogram: 1 0 0 0 0 0 0 0 0 0
Nghost:    19728 ave 19728 max 19728 min
Histogram: 1 0 0 0 0 0 0 0 0 0
Neighs:    1.78712e+06 ave 1.78712e+06 max 1.78712e+06 min
Histogram: 1 0 0 0 0 0 0 0 0 0

Total # of neighbors = 1787123
Ave neighs/atom = 90.9385
Neighbor list builds = 1505
Dangerous builds not checked
Setting up Verlet run ...
  Unit style    : metal
  Current step  : 66000
  Time step     : 0.001
Per MPI rank memory allocation (min/avg/max) = 19.72 | 19.72 | 19.72 Mbytes
Step Temp Press TotEng PotEng Enthalpy 
   66000    1805.1986    889.10667   -56826.381    -61411.75   -56673.637 
   66495    1762.5455    1835.8491   -57042.527   -61519.553   -56728.454 
Loop time of 78.9765 on 1 procs for 495 steps with 19652 atoms

Performance: 0.542 ns/day, 44.319 hours/ns, 6.268 timesteps/s
100.0% CPU use with 1 MPI tasks x no OpenMP threads

MPI task timing breakdown:
Section |  min time  |  avg time  |  max time  |%varavg| %total
---------------------------------------------------------------
Pair    | 44.444     | 44.444     | 44.444     |   0.0 | 56.28
Neigh   | 33.043     | 33.043     | 33.043     |   0.0 | 41.84
Comm    | 0.55625    | 0.55625    | 0.55625    |   0.0 |  0.70
Output  | 0.00013089 | 0.00013089 | 0.00013089 |   0.0 |  0.00
Modify  | 0.74708    | 0.74708    | 0.74708    |   0.0 |  0.95
Other   |            | 0.1857     |            |       |  0.24

Nlocal:    19652 ave 19652 max 19652 min
Histogram: 1 0 0 0 0 0 0 0 0 0
Nghost:    19890 ave 19890 max 19890 min
Histogram: 1 0 0 0 0 0 0 0 0 0
Neighs:    1.79367e+06 ave 1.79367e+06 max 1.79367e+06 min
Histogram: 1 0 0 0 0 0 0 0 0 0

Total # of neighbors = 1793671
Ave neighs/atom = 91.2717
Neighbor list builds = 495
Dangerous builds not checked
Setting up Verlet run ...
  Unit style    : metal
  Current step  : 66495
  Time step     : 0.001
Per MPI rank memory allocation (min/avg/max) = 19.72 | 19.72 | 19.72 Mbytes
Step Temp Press TotEng PotEng Enthalpy 
   66495    1762.5455    1835.8491   -57042.527   -61519.553   -56728.454 
   68000    1751.6825   -182.41507   -57150.989   -61600.423   -57182.189 
Loop time of 259.255 on 1 procs for 1505 steps with 19652 atoms

Performance: 0.502 ns/day, 47.851 hours/ns, 5.805 timesteps/s
100.0% CPU use with 1 MPI tasks x no OpenMP threads

MPI task timing breakdown:
Section |  min time  |  avg time  |  max time  |%varavg| %total
---------------------------------------------------------------
Pair    | 146.69     | 146.69     | 146.69     |   0.0 | 56.58
Neigh   | 107.21     | 107.21     | 107.21     |   0.0 | 41.35
Comm    | 2.0916     | 2.0916     | 2.0916     |   0.0 |  0.81
Output  | 0.042155   | 0.042155   | 0.042155   |   0.0 |  0.02
Modify  | 2.5685     | 2.5685     | 2.5685     |   0.0 |  0.99
Other   |            | 0.6537     |            |       |  0.25

Nlocal:    19652 ave 19652 max 19652 min
Histogram: 1 0 0 0 0 0 0 0 0 0
Nghost:    19810 ave 19810 max 19810 min
Histogram: 1 0 0 0 0 0 0 0 0 0
Neighs:    1.79432e+06 ave 1.79432e+06 max 1.79432e+06 min
Histogram: 1 0 0 0 0 0 0 0 0 0

Total # of neighbors = 1794322
Ave neighs/atom = 91.3048
Neighbor list builds = 1505
Dangerous builds not checked
Setting up Verlet run ...
  Unit style    : metal
  Current step  : 68000
  Time step     : 0.001
Per MPI rank memory allocation (min/avg/max) = 19.72 | 19.72 | 19.72 Mbytes
Step Temp Press TotEng PotEng Enthalpy 
   68000    1751.6825   -182.41507   -57150.989   -61600.423   -57182.189 
   68495    1709.6014   -431.45187    -57332.77   -61675.313    -57406.38 
Loop time of 83.4956 on 1 procs for 495 steps with 19652 atoms

Performance: 0.512 ns/day, 46.855 hours/ns, 5.928 timesteps/s
100.0% CPU use with 1 MPI tasks x no OpenMP threads

MPI task timing breakdown:
Section |  min time  |  avg time  |  max time  |%varavg| %total
---------------------------------------------------------------
Pair    | 47.403     | 47.403     | 47.403     |   0.0 | 56.77
Neigh   | 34.347     | 34.347     | 34.347     |   0.0 | 41.14
Comm    | 0.68836    | 0.68836    | 0.68836    |   0.0 |  0.82
Output  | 0.00017405 | 0.00017405 | 0.00017405 |   0.0 |  0.00
Modify  | 0.83877    | 0.83877    | 0.83877    |   0.0 |  1.00
Other   |            | 0.2181     |            |       |  0.26

Nlocal:    19652 ave 19652 max 19652 min
Histogram: 1 0 0 0 0 0 0 0 0 0
Nghost:    19857 ave 19857 max 19857 min
Histogram: 1 0 0 0 0 0 0 0 0 0
Neighs:    1.79905e+06 ave 1.79905e+06 max 1.79905e+06 min
Histogram: 1 0 0 0 0 0 0 0 0 0

Total # of neighbors = 1799048
Ave neighs/atom = 91.5453
Neighbor list builds = 495
Dangerous builds not checked
Setting up Verlet run ...
  Unit style    : metal
  Current step  : 68495
  Time step     : 0.001
Per MPI rank memory allocation (min/avg/max) = 19.72 | 19.72 | 19.72 Mbytes
Step Temp Press TotEng PotEng Enthalpy 
   68495    1709.6014   -431.45187    -57332.77   -61675.313    -57406.38 
   70000    1707.4199     1955.437   -57417.605   -61754.607   -57085.393 
Loop time of 251.885 on 1 procs for 1505 steps with 19652 atoms

Performance: 0.516 ns/day, 46.490 hours/ns, 5.975 timesteps/s
100.0% CPU use with 1 MPI tasks x no OpenMP threads

MPI task timing breakdown:
Section |  min time  |  avg time  |  max time  |%varavg| %total
---------------------------------------------------------------
Pair    | 143.17     | 143.17     | 143.17     |   0.0 | 56.84
Neigh   | 103.36     | 103.36     | 103.36     |   0.0 | 41.04
Comm    | 2.0908     | 2.0908     | 2.0908     |   0.0 |  0.83
Output  | 0.040873   | 0.040873   | 0.040873   |   0.0 |  0.02
Modify  | 2.5408     | 2.5408     | 2.5408     |   0.0 |  1.01
Other   |            | 0.6772     |            |       |  0.27

Nlocal:    19652 ave 19652 max 19652 min
Histogram: 1 0 0 0 0 0 0 0 0 0
Nghost:    19881 ave 19881 max 19881 min
Histogram: 1 0 0 0 0 0 0 0 0 0
Neighs:    1.80658e+06 ave 1.80658e+06 max 1.80658e+06 min
Histogram: 1 0 0 0 0 0 0 0 0 0

Total # of neighbors = 1806584
Ave neighs/atom = 91.9288
Neighbor list builds = 1505
Dangerous builds not checked
Setting up Verlet run ...
  Unit style    : metal
  Current step  : 70000
  Time step     : 0.001
Per MPI rank memory allocation (min/avg/max) = 19.72 | 19.72 | 19.72 Mbytes
Step Temp Press TotEng PotEng Enthalpy 
   70000    1707.4199     1955.437   -57417.605   -61754.607   -57085.393 
   70495    1659.7276    1883.7314   -57647.673   -61863.532   -57328.481 
Loop time of 80.2768 on 1 procs for 495 steps with 19652 atoms

Performance: 0.533 ns/day, 45.049 hours/ns, 6.166 timesteps/s
100.1% CPU use with 1 MPI tasks x no OpenMP threads

MPI task timing breakdown:
Section |  min time  |  avg time  |  max time  |%varavg| %total
---------------------------------------------------------------
Pair    | 45.697     | 45.697     | 45.697     |   0.0 | 56.92
Neigh   | 32.865     | 32.865     | 32.865     |   0.0 | 40.94
Comm    | 0.67168    | 0.67168    | 0.67168    |   0.0 |  0.84
Output  | 0.00014997 | 0.00014997 | 0.00014997 |   0.0 |  0.00
Modify  | 0.82431    | 0.82431    | 0.82431    |   0.0 |  1.03
Other   |            | 0.2191     |            |       |  0.27

Nlocal:    19652 ave 19652 max 19652 min
Histogram: 1 0 0 0 0 0 0 0 0 0
Nghost:    19794 ave 19794 max 19794 min
Histogram: 1 0 0 0 0 0 0 0 0 0
Neighs:    1.81078e+06 ave 1.81078e+06 max 1.81078e+06 min
Histogram: 1 0 0 0 0 0 0 0 0 0

Total # of neighbors = 1810777
Ave neighs/atom = 92.1421
Neighbor list builds = 495
Dangerous builds not checked
Setting up Verlet run ...
  Unit style    : metal
  Current step  : 70495
  Time step     : 0.001
Per MPI rank memory allocation (min/avg/max) = 19.72 | 19.72 | 19.72 Mbytes
Step Temp Press TotEng PotEng Enthalpy 
   70495    1659.7276    1883.7314   -57647.673   -61863.532   -57328.481 
   72000    1644.9497   -1651.1751   -57770.306   -61948.628   -58050.406 
Loop time of 255.293 on 1 procs for 1505 steps with 19652 atoms

Performance: 0.509 ns/day, 47.119 hours/ns, 5.895 timesteps/s
100.0% CPU use with 1 MPI tasks x no OpenMP threads

MPI task timing breakdown:
Section |  min time  |  avg time  |  max time  |%varavg| %total
---------------------------------------------------------------
Pair    | 145.48     | 145.48     | 145.48     |   0.0 | 56.98
Neigh   | 104.01     | 104.01     | 104.01     |   0.0 | 40.74
Comm    | 2.335      | 2.335      | 2.335      |   0.0 |  0.91
Output  | 0.040472   | 0.040472   | 0.040472   |   0.0 |  0.02
Modify  | 2.7319     | 2.7319     | 2.7319     |   0.0 |  1.07
Other   |            | 0.6985     |            |       |  0.27

Nlocal:    19652 ave 19652 max 19652 min
Histogram: 1 0 0 0 0 0 0 0 0 0
Nghost:    19888 ave 19888 max 19888 min
Histogram: 1 0 0 0 0 0 0 0 0 0
Neighs:    1.80819e+06 ave 1.80819e+06 max 1.80819e+06 min
Histogram: 1 0 0 0 0 0 0 0 0 0

Total # of neighbors = 1808190
Ave neighs/atom = 92.0105
Neighbor list builds = 1505
Dangerous builds not checked
Setting up Verlet run ...
  Unit style    : metal
  Current step  : 72000
  Time step     : 0.001
Per MPI rank memory allocation (min/avg/max) = 19.72 | 19.72 | 19.72 Mbytes
Step Temp Press TotEng PotEng Enthalpy 
   72000    1644.9497   -1651.1751   -57770.306   -61948.628   -58050.406 
   72495    1617.1847   -170.63859   -57962.444    -62070.24   -57991.257 
Loop time of 79.8172 on 1 procs for 495 steps with 19652 atoms

Performance: 0.536 ns/day, 44.791 hours/ns, 6.202 timesteps/s
100.0% CPU use with 1 MPI tasks x no OpenMP threads

MPI task timing breakdown:
Section |  min time  |  avg time  |  max time  |%varavg| %total
---------------------------------------------------------------
Pair    | 45.291     | 45.291     | 45.291     |   0.0 | 56.74
Neigh   | 33.051     | 33.051     | 33.051     |   0.0 | 41.41
Comm    | 0.54446    | 0.54446    | 0.54446    |   0.0 |  0.68
Output  | 0.0001471  | 0.0001471  | 0.0001471  |   0.0 |  0.00
Modify  | 0.7454     | 0.7454     | 0.7454     |   0.0 |  0.93
Other   |            | 0.1847     |            |       |  0.23

Nlocal:    19652 ave 19652 max 19652 min
Histogram: 1 0 0 0 0 0 0 0 0 0
Nghost:    19911 ave 19911 max 19911 min
Histogram: 1 0 0 0 0 0 0 0 0 0
Neighs:    1.81631e+06 ave 1.81631e+06 max 1.81631e+06 min
Histogram: 1 0 0 0 0 0 0 0 0 0

Total # of neighbors = 1816307
Ave neighs/atom = 92.4235
Neighbor list builds = 495
Dangerous builds not checked
Setting up Verlet run ...
  Unit style    : metal
  Current step  : 72495
  Time step     : 0.001
Per MPI rank memory allocation (min/avg/max) = 19.72 | 19.72 | 19.72 Mbytes
Step Temp Press TotEng PotEng Enthalpy 
   72495    1617.1847   -170.63859   -57962.444    -62070.24   -57991.257 
   74000    1600.3251   -22.136197   -57995.691   -62060.663   -57999.428 
Loop time of 236.801 on 1 procs for 1505 steps with 19652 atoms

Performance: 0.549 ns/day, 43.706 hours/ns, 6.356 timesteps/s
100.0% CPU use with 1 MPI tasks x no OpenMP threads

MPI task timing breakdown:
Section |  min time  |  avg time  |  max time  |%varavg| %total
---------------------------------------------------------------
Pair    | 133.98     | 133.98     | 133.98     |   0.0 | 56.58
Neigh   | 98.425     | 98.425     | 98.425     |   0.0 | 41.56
Comm    | 1.5996     | 1.5996     | 1.5996     |   0.0 |  0.68
Output  | 0.039372   | 0.039372   | 0.039372   |   0.0 |  0.02
Modify  | 2.2092     | 2.2092     | 2.2092     |   0.0 |  0.93
Other   |            | 0.549      |            |       |  0.23

Nlocal:    19652 ave 19652 max 19652 min
Histogram: 1 0 0 0 0 0 0 0 0 0
Nghost:    20046 ave 20046 max 20046 min
Histogram: 1 0 0 0 0 0 0 0 0 0
Neighs:    1.81675e+06 ave 1.81675e+06 max 1.81675e+06 min
Histogram: 1 0 0 0 0 0 0 0 0 0

Total # of neighbors = 1816746
Ave neighs/atom = 92.4459
Neighbor list builds = 1505
Dangerous builds not checked
Setting up Verlet run ...
  Unit style    : metal
  Current step  : 74000
  Time step     : 0.001
Per MPI rank memory allocation (min/avg/max) = 19.72 | 19.72 | 19.72 Mbytes
Step Temp Press TotEng PotEng Enthalpy 
   74000    1600.3251   -22.136197   -57995.691   -62060.663   -57999.428 
   74495    1577.9928    360.98979   -58241.798   -62250.043   -58181.175 
Loop time of 78.9488 on 1 procs for 495 steps with 19652 atoms

Performance: 0.542 ns/day, 44.303 hours/ns, 6.270 timesteps/s
99.9% CPU use with 1 MPI tasks x no OpenMP threads

MPI task timing breakdown:
Section |  min time  |  avg time  |  max time  |%varavg| %total
---------------------------------------------------------------
Pair    | 44.709     | 44.709     | 44.709     |   0.0 | 56.63
Neigh   | 32.787     | 32.787     | 32.787     |   0.0 | 41.53
Comm    | 0.52972    | 0.52972    | 0.52972    |   0.0 |  0.67
Output  | 0.00012898 | 0.00012898 | 0.00012898 |   0.0 |  0.00
Modify  | 0.73707    | 0.73707    | 0.73707    |   0.0 |  0.93
Other   |            | 0.1856     |            |       |  0.24

Nlocal:    19652 ave 19652 max 19652 min
Histogram: 1 0 0 0 0 0 0 0 0 0
Nghost:    19919 ave 19919 max 19919 min
Histogram: 1 0 0 0 0 0 0 0 0 0
Neighs:    1.82605e+06 ave 1.82605e+06 max 1.82605e+06 min
Histogram: 1 0 0 0 0 0 0 0 0 0

Total # of neighbors = 1826053
Ave neighs/atom = 92.9194
Neighbor list builds = 495
Dangerous builds not checked
Setting up Verlet run ...
  Unit style    : metal
  Current step  : 74495
  Time step     : 0.001
Per MPI rank memory allocation (min/avg/max) = 19.72 | 19.72 | 19.72 Mbytes
Step Temp Press TotEng PotEng Enthalpy 
   74495    1577.9928    360.98979   -58241.798   -62250.043   -58181.175 
   76000    1557.6665    822.96437   -58267.236   -62223.851    -58129.04 
Loop time of 239.253 on 1 procs for 1505 steps with 19652 atoms

Performance: 0.543 ns/day, 44.159 hours/ns, 6.290 timesteps/s
100.0% CPU use with 1 MPI tasks x no OpenMP threads

MPI task timing breakdown:
Section |  min time  |  avg time  |  max time  |%varavg| %total
---------------------------------------------------------------
Pair    | 135.55     | 135.55     | 135.55     |   0.0 | 56.65
Neigh   | 99.281     | 99.281     | 99.281     |   0.0 | 41.50
Comm    | 1.6018     | 1.6018     | 1.6018     |   0.0 |  0.67
Output  | 0.061916   | 0.061916   | 0.061916   |   0.0 |  0.03
Modify  | 2.2104     | 2.2104     | 2.2104     |   0.0 |  0.92
Other   |            | 0.5508     |            |       |  0.23

Nlocal:    19652 ave 19652 max 19652 min
Histogram: 1 0 0 0 0 0 0 0 0 0
Nghost:    20029 ave 20029 max 20029 min
Histogram: 1 0 0 0 0 0 0 0 0 0
Neighs:    1.8268e+06 ave 1.8268e+06 max 1.8268e+06 min
Histogram: 1 0 0 0 0 0 0 0 0 0

Total # of neighbors = 1826804
Ave neighs/atom = 92.9577
Neighbor list builds = 1505
Dangerous builds not checked
Setting up Verlet run ...
  Unit style    : metal
  Current step  : 76000
  Time step     : 0.001
Per MPI rank memory allocation (min/avg/max) = 19.72 | 19.72 | 19.72 Mbytes
Step Temp Press TotEng PotEng Enthalpy 
   76000    1557.6665    822.96437   -58267.236   -62223.851    -58129.04 
   76495    1522.6986    481.23667   -58541.349   -62409.142    -58460.87 
Loop time of 84.95 on 1 procs for 495 steps with 19652 atoms

Performance: 0.503 ns/day, 47.671 hours/ns, 5.827 timesteps/s
99.9% CPU use with 1 MPI tasks x no OpenMP threads

MPI task timing breakdown:
Section |  min time  |  avg time  |  max time  |%varavg| %total
---------------------------------------------------------------
Pair    | 48.303     | 48.303     | 48.303     |   0.0 | 56.86
Neigh   | 35.03      | 35.03      | 35.03      |   0.0 | 41.24
Comm    | 0.60547    | 0.60547    | 0.60547    |   0.0 |  0.71
Output  | 0.00013709 | 0.00013709 | 0.00013709 |   0.0 |  0.00
Modify  | 0.80991    | 0.80991    | 0.80991    |   0.0 |  0.95
Other   |            | 0.201      |            |       |  0.24

Nlocal:    19652 ave 19652 max 19652 min
Histogram: 1 0 0 0 0 0 0 0 0 0
Nghost:    19988 ave 19988 max 19988 min
Histogram: 1 0 0 0 0 0 0 0 0 0
Neighs:    1.83366e+06 ave 1.83366e+06 max 1.83366e+06 min
Histogram: 1 0 0 0 0 0 0 0 0 0

Total # of neighbors = 1833656
Ave neighs/atom = 93.3063
Neighbor list builds = 495
Dangerous builds not checked
Setting up Verlet run ...
  Unit style    : metal
  Current step  : 76495
  Time step     : 0.001
Per MPI rank memory allocation (min/avg/max) = 19.72 | 19.72 | 19.72 Mbytes
Step Temp Press TotEng PotEng Enthalpy 
   76495    1522.6986    481.23667   -58541.349   -62409.142    -58460.87 
   78000    1506.1868    1066.9627   -58612.495   -62438.346   -58434.429 
Loop time of 275.547 on 1 procs for 1505 steps with 19652 atoms

Performance: 0.472 ns/day, 50.858 hours/ns, 5.462 timesteps/s
99.9% CPU use with 1 MPI tasks x no OpenMP threads

MPI task timing breakdown:
Section |  min time  |  avg time  |  max time  |%varavg| %total
---------------------------------------------------------------
Pair    | 156.17     | 156.17     | 156.17     |   0.0 | 56.68
Neigh   | 113.94     | 113.94     | 113.94     |   0.0 | 41.35
Comm    | 2.0613     | 2.0613     | 2.0613     |   0.0 |  0.75
Output  | 0.063209   | 0.063209   | 0.063209   |   0.0 |  0.02
Modify  | 2.6617     | 2.6617     | 2.6617     |   0.0 |  0.97
Other   |            | 0.6535     |            |       |  0.24

Nlocal:    19652 ave 19652 max 19652 min
Histogram: 1 0 0 0 0 0 0 0 0 0
Nghost:    20045 ave 20045 max 20045 min
Histogram: 1 0 0 0 0 0 0 0 0 0
Neighs:    1.83712e+06 ave 1.83712e+06 max 1.83712e+06 min
Histogram: 1 0 0 0 0 0 0 0 0 0

Total # of neighbors = 1837122
Ave neighs/atom = 93.4827
Neighbor list builds = 1505
Dangerous builds not checked
Setting up Verlet run ...
  Unit style    : metal
  Current step  : 78000
  Time step     : 0.001
Per MPI rank memory allocation (min/avg/max) = 19.72 | 19.72 | 19.72 Mbytes
Step Temp Press TotEng PotEng Enthalpy 
   78000    1506.1868    1066.9627   -58612.495   -62438.346   -58434.429 
   78495    1470.7518    1953.6299   -58820.716    -62556.56   -58495.893 
Loop time of 81.3476 on 1 procs for 495 steps with 19652 atoms

Performance: 0.526 ns/day, 45.650 hours/ns, 6.085 timesteps/s
100.0% CPU use with 1 MPI tasks x no OpenMP threads

MPI task timing breakdown:
Section |  min time  |  avg time  |  max time  |%varavg| %total
---------------------------------------------------------------
Pair    | 46.306     | 46.306     | 46.306     |   0.0 | 56.92
Neigh   | 33.429     | 33.429     | 33.429     |   0.0 | 41.09
Comm    | 0.61697    | 0.61697    | 0.61697    |   0.0 |  0.76
Output  | 0.00012803 | 0.00012803 | 0.00012803 |   0.0 |  0.00
Modify  | 0.79528    | 0.79528    | 0.79528    |   0.0 |  0.98
Other   |            | 0.2001     |            |       |  0.25

Nlocal:    19652 ave 19652 max 19652 min
Histogram: 1 0 0 0 0 0 0 0 0 0
Nghost:    20045 ave 20045 max 20045 min
Histogram: 1 0 0 0 0 0 0 0 0 0
Neighs:    1.84403e+06 ave 1.84403e+06 max 1.84403e+06 min
Histogram: 1 0 0 0 0 0 0 0 0 0

Total # of neighbors = 1844026
Ave neighs/atom = 93.834
Neighbor list builds = 495
Dangerous builds not checked
Setting up Verlet run ...
  Unit style    : metal
  Current step  : 78495
  Time step     : 0.001
Per MPI rank memory allocation (min/avg/max) = 19.72 | 19.72 | 19.72 Mbytes
Step Temp Press TotEng PotEng Enthalpy 
   78495    1470.7518    1953.6299   -58820.716    -62556.56   -58495.893 
   80000    1441.2586   -1760.4795   -58968.656   -62629.584   -59261.874 
Loop time of 242.102 on 1 procs for 1505 steps with 19652 atoms

Performance: 0.537 ns/day, 44.685 hours/ns, 6.216 timesteps/s
99.4% CPU use with 1 MPI tasks x no OpenMP threads

MPI task timing breakdown:
Section |  min time  |  avg time  |  max time  |%varavg| %total
---------------------------------------------------------------
Pair    | 138.12     | 138.12     | 138.12     |   0.0 | 57.05
Neigh   | 98.544     | 98.544     | 98.544     |   0.0 | 40.70
Comm    | 1.7637     | 1.7637     | 1.7637     |   0.0 |  0.73
Output  | 0.76809    | 0.76809    | 0.76809    |   0.0 |  0.32
Modify  | 2.2919     | 2.2919     | 2.2919     |   0.0 |  0.95
Other   |            | 0.6096     |            |       |  0.25

Nlocal:    19652 ave 19652 max 19652 min
Histogram: 1 0 0 0 0 0 0 0 0 0
Nghost:    20063 ave 20063 max 20063 min
Histogram: 1 0 0 0 0 0 0 0 0 0
Neighs:    1.84067e+06 ave 1.84067e+06 max 1.84067e+06 min
Histogram: 1 0 0 0 0 0 0 0 0 0

Total # of neighbors = 1840668
Ave neighs/atom = 93.6631
Neighbor list builds = 1505
Dangerous builds not checked
Setting up Verlet run ...
  Unit style    : metal
  Current step  : 80000
  Time step     : 0.001
Per MPI rank memory allocation (min/avg/max) = 19.72 | 19.72 | 19.72 Mbytes
Step Temp Press TotEng PotEng Enthalpy 
   80000    1441.2586   -1760.4795   -58968.656   -62629.584   -59261.874 
   80495    1413.7841   -1993.8279   -59181.797   -62772.938   -59512.589 
Loop time of 100.805 on 1 procs for 495 steps with 19652 atoms

Performance: 0.424 ns/day, 56.569 hours/ns, 4.910 timesteps/s
99.5% CPU use with 1 MPI tasks x no OpenMP threads

MPI task timing breakdown:
Section |  min time  |  avg time  |  max time  |%varavg| %total
---------------------------------------------------------------
Pair    | 57.499     | 57.499     | 57.499     |   0.0 | 57.04
Neigh   | 41.242     | 41.242     | 41.242     |   0.0 | 40.91
Comm    | 0.80805    | 0.80805    | 0.80805    |   0.0 |  0.80
Output  | 0.00014091 | 0.00014091 | 0.00014091 |   0.0 |  0.00
Modify  | 1.0068     | 1.0068     | 1.0068     |   0.0 |  1.00
Other   |            | 0.2488     |            |       |  0.25

Nlocal:    19652 ave 19652 max 19652 min
Histogram: 1 0 0 0 0 0 0 0 0 0
Nghost:    20082 ave 20082 max 20082 min
Histogram: 1 0 0 0 0 0 0 0 0 0
Neighs:    1.84715e+06 ave 1.84715e+06 max 1.84715e+06 min
Histogram: 1 0 0 0 0 0 0 0 0 0

Total # of neighbors = 1847151
Ave neighs/atom = 93.993
Neighbor list builds = 495
Dangerous builds not checked
Setting up Verlet run ...
  Unit style    : metal
  Current step  : 80495
  Time step     : 0.001
Per MPI rank memory allocation (min/avg/max) = 19.72 | 19.72 | 19.72 Mbytes
Step Temp Press TotEng PotEng Enthalpy 
   80495    1413.7841   -1993.8279   -59181.797   -62772.938   -59512.589 
   82000    1397.7034    1937.0257    -59281.05   -62831.344   -58961.391 
Loop time of 336.95 on 1 procs for 1505 steps with 19652 atoms

Performance: 0.386 ns/day, 62.191 hours/ns, 4.467 timesteps/s
95.9% CPU use with 1 MPI tasks x no OpenMP threads

MPI task timing breakdown:
Section |  min time  |  avg time  |  max time  |%varavg| %total
---------------------------------------------------------------
Pair    | 193.77     | 193.77     | 193.77     |   0.0 | 57.51
Neigh   | 134.94     | 134.94     | 134.94     |   0.0 | 40.05
Comm    | 3.4542     | 3.4542     | 3.4542     |   0.0 |  1.03
Output  | 0.068124   | 0.068124   | 0.068124   |   0.0 |  0.02
Modify  | 3.8118     | 3.8118     | 3.8118     |   0.0 |  1.13
Other   |            | 0.9086     |            |       |  0.27

Nlocal:    19652 ave 19652 max 19652 min
Histogram: 1 0 0 0 0 0 0 0 0 0
Nghost:    20041 ave 20041 max 20041 min
Histogram: 1 0 0 0 0 0 0 0 0 0
Neighs:    1.85699e+06 ave 1.85699e+06 max 1.85699e+06 min
Histogram: 1 0 0 0 0 0 0 0 0 0

Total # of neighbors = 1856988
Ave neighs/atom = 94.4936
Neighbor list builds = 1505
Dangerous builds not checked
Setting up Verlet run ...
  Unit style    : metal
  Current step  : 82000
  Time step     : 0.001
Per MPI rank memory allocation (min/avg/max) = 19.72 | 19.72 | 19.72 Mbytes
Step Temp Press TotEng PotEng Enthalpy 
   82000    1397.7034    1937.0257    -59281.05   -62831.344   -58961.391 
   82495    1369.0473    1529.3923   -59450.646   -62928.151   -59198.802 
Loop time of 99.53 on 1 procs for 495 steps with 19652 atoms

Performance: 0.430 ns/day, 55.853 hours/ns, 4.973 timesteps/s
99.6% CPU use with 1 MPI tasks x no OpenMP threads

MPI task timing breakdown:
Section |  min time  |  avg time  |  max time  |%varavg| %total
---------------------------------------------------------------
Pair    | 56.9       | 56.9       | 56.9       |   0.0 | 57.17
Neigh   | 40.329     | 40.329     | 40.329     |   0.0 | 40.52
Comm    | 0.93746    | 0.93746    | 0.93746    |   0.0 |  0.94
Output  | 0.00019097 | 0.00019097 | 0.00019097 |   0.0 |  0.00
Modify  | 1.0952     | 1.0952     | 1.0952     |   0.0 |  1.10
Other   |            | 0.2683     |            |       |  0.27

Nlocal:    19652 ave 19652 max 19652 min
Histogram: 1 0 0 0 0 0 0 0 0 0
Nghost:    20171 ave 20171 max 20171 min
Histogram: 1 0 0 0 0 0 0 0 0 0
Neighs:    1.86065e+06 ave 1.86065e+06 max 1.86065e+06 min
Histogram: 1 0 0 0 0 0 0 0 0 0

Total # of neighbors = 1860648
Ave neighs/atom = 94.6798
Neighbor list builds = 495
Dangerous builds not checked
Setting up Verlet run ...
  Unit style    : metal
  Current step  : 82495
  Time step     : 0.001
Per MPI rank memory allocation (min/avg/max) = 19.72 | 19.72 | 19.72 Mbytes
Step Temp Press TotEng PotEng Enthalpy 
   82495    1369.0473    1529.3923   -59450.646   -62928.151   -59198.802 
   84000    1345.2492    183.12989   -59608.632   -63025.688    -59578.51 
Loop time of 315.623 on 1 procs for 1505 steps with 19652 atoms

Performance: 0.412 ns/day, 58.255 hours/ns, 4.768 timesteps/s
99.1% CPU use with 1 MPI tasks x no OpenMP threads

MPI task timing breakdown:
Section |  min time  |  avg time  |  max time  |%varavg| %total
---------------------------------------------------------------
Pair    | 180.17     | 180.17     | 180.17     |   0.0 | 57.08
Neigh   | 128.08     | 128.08     | 128.08     |   0.0 | 40.58
Comm    | 3.006      | 3.006      | 3.006      |   0.0 |  0.95
Output  | 0.0422     | 0.0422     | 0.0422     |   0.0 |  0.01
Modify  | 3.4877     | 3.4877     | 3.4877     |   0.0 |  1.11
Other   |            | 0.8452     |            |       |  0.27

Nlocal:    19652 ave 19652 max 19652 min
Histogram: 1 0 0 0 0 0 0 0 0 0
Nghost:    20111 ave 20111 max 20111 min
Histogram: 1 0 0 0 0 0 0 0 0 0
Neighs:    1.86224e+06 ave 1.86224e+06 max 1.86224e+06 min
Histogram: 1 0 0 0 0 0 0 0 0 0

Total # of neighbors = 1862242
Ave neighs/atom = 94.7609
Neighbor list builds = 1505
Dangerous builds not checked
Setting up Verlet run ...
  Unit style    : metal
  Current step  : 84000
  Time step     : 0.001
Per MPI rank memory allocation (min/avg/max) = 19.72 | 19.72 | 19.72 Mbytes
Step Temp Press TotEng PotEng Enthalpy 
   84000    1345.2492    183.12989   -59608.632   -63025.688    -59578.51 
   84495    1305.8763    620.50926   -59825.194   -63142.239   -59723.529 
Loop time of 90.8707 on 1 procs for 495 steps with 19652 atoms

Performance: 0.471 ns/day, 50.994 hours/ns, 5.447 timesteps/s
100.0% CPU use with 1 MPI tasks x no OpenMP threads

MPI task timing breakdown:
Section |  min time  |  avg time  |  max time  |%varavg| %total
---------------------------------------------------------------
Pair    | 51.897     | 51.897     | 51.897     |   0.0 | 57.11
Neigh   | 37.023     | 37.023     | 37.023     |   0.0 | 40.74
Comm    | 0.78258    | 0.78258    | 0.78258    |   0.0 |  0.86
Output  | 0.00016785 | 0.00016785 | 0.00016785 |   0.0 |  0.00
Modify  | 0.93879    | 0.93879    | 0.93879    |   0.0 |  1.03
Other   |            | 0.2292     |            |       |  0.25

Nlocal:    19652 ave 19652 max 19652 min
Histogram: 1 0 0 0 0 0 0 0 0 0
Nghost:    20225 ave 20225 max 20225 min
Histogram: 1 0 0 0 0 0 0 0 0 0
Neighs:    1.87029e+06 ave 1.87029e+06 max 1.87029e+06 min
Histogram: 1 0 0 0 0 0 0 0 0 0

Total # of neighbors = 1870294
Ave neighs/atom = 95.1707
Neighbor list builds = 495
Dangerous builds not checked
Setting up Verlet run ...
  Unit style    : metal
  Current step  : 84495
  Time step     : 0.001
Per MPI rank memory allocation (min/avg/max) = 19.72 | 19.72 | 19.72 Mbytes
Step Temp Press TotEng PotEng Enthalpy 
   84495    1305.8763    620.50926   -59825.194   -63142.239   -59723.529 
   86000    1311.6213    -891.8676   -59893.973   -63225.611   -60040.087 
Loop time of 286.944 on 1 procs for 1505 steps with 19652 atoms

Performance: 0.453 ns/day, 52.961 hours/ns, 5.245 timesteps/s
99.7% CPU use with 1 MPI tasks x no OpenMP threads

MPI task timing breakdown:
Section |  min time  |  avg time  |  max time  |%varavg| %total
---------------------------------------------------------------
Pair    | 164.34     | 164.34     | 164.34     |   0.0 | 57.27
Neigh   | 116.12     | 116.12     | 116.12     |   0.0 | 40.47
Comm    | 2.6158     | 2.6158     | 2.6158     |   0.0 |  0.91
Output  | 0.066054   | 0.066054   | 0.066054   |   0.0 |  0.02
Modify  | 3.0497     | 3.0497     | 3.0497     |   0.0 |  1.06
Other   |            | 0.7579     |            |       |  0.26

Nlocal:    19652 ave 19652 max 19652 min
Histogram: 1 0 0 0 0 0 0 0 0 0
Nghost:    20229 ave 20229 max 20229 min
Histogram: 1 0 0 0 0 0 0 0 0 0
Neighs:    1.86862e+06 ave 1.86862e+06 max 1.86862e+06 min
Histogram: 1 0 0 0 0 0 0 0 0 0

Total # of neighbors = 1868625
Ave neighs/atom = 95.0857
Neighbor list builds = 1505
Dangerous builds not checked
Setting up Verlet run ...
  Unit style    : metal
  Current step  : 86000
  Time step     : 0.001
Per MPI rank memory allocation (min/avg/max) = 19.72 | 19.72 | 19.72 Mbytes
Step Temp Press TotEng PotEng Enthalpy 
   86000    1311.6213    -891.8676   -59893.973   -63225.611   -60040.087 
   86495    1266.2873   -106.35672    -60105.09   -63321.575   -60122.451 
Loop time of 104.158 on 1 procs for 495 steps with 19652 atoms

Performance: 0.411 ns/day, 58.450 hours/ns, 4.752 timesteps/s
100.0% CPU use with 1 MPI tasks x no OpenMP threads

MPI task timing breakdown:
Section |  min time  |  avg time  |  max time  |%varavg| %total
---------------------------------------------------------------
Pair    | 60.245     | 60.245     | 60.245     |   0.0 | 57.84
Neigh   | 41.122     | 41.122     | 41.122     |   0.0 | 39.48
Comm    | 1.1773     | 1.1773     | 1.1773     |   0.0 |  1.13
Output  | 0.00022793 | 0.00022793 | 0.00022793 |   0.0 |  0.00
Modify  | 1.3076     | 1.3076     | 1.3076     |   0.0 |  1.26
Other   |            | 0.3053     |            |       |  0.29

Nlocal:    19652 ave 19652 max 19652 min
Histogram: 1 0 0 0 0 0 0 0 0 0
Nghost:    20191 ave 20191 max 20191 min
Histogram: 1 0 0 0 0 0 0 0 0 0
Neighs:    1.87622e+06 ave 1.87622e+06 max 1.87622e+06 min
Histogram: 1 0 0 0 0 0 0 0 0 0

Total # of neighbors = 1876225
Ave neighs/atom = 95.4725
Neighbor list builds = 495
Dangerous builds not checked
Setting up Verlet run ...
  Unit style    : metal
  Current step  : 86495
  Time step     : 0.001
Per MPI rank memory allocation (min/avg/max) = 19.72 | 19.72 | 19.72 Mbytes
Step Temp Press TotEng PotEng Enthalpy 
   86495    1266.2873   -106.35672    -60105.09   -63321.575   -60122.451 
   88000    1257.7451    848.51488   -60253.469   -63448.256   -60115.479 
Loop time of 315.821 on 1 procs for 1505 steps with 19652 atoms

Performance: 0.412 ns/day, 58.291 hours/ns, 4.765 timesteps/s
99.4% CPU use with 1 MPI tasks x no OpenMP threads

MPI task timing breakdown:
Section |  min time  |  avg time  |  max time  |%varavg| %total
---------------------------------------------------------------
Pair    | 181.64     | 181.64     | 181.64     |   0.0 | 57.51
Neigh   | 125.44     | 125.44     | 125.44     |   0.0 | 39.72
Comm    | 3.7192     | 3.7192     | 3.7192     |   0.0 |  1.18
Output  | 0.064481   | 0.064481   | 0.064481   |   0.0 |  0.02
Modify  | 4.0079     | 4.0079     | 4.0079     |   0.0 |  1.27
Other   |            | 0.9446     |            |       |  0.30

Nlocal:    19652 ave 19652 max 19652 min
Histogram: 1 0 0 0 0 0 0 0 0 0
Nghost:    20245 ave 20245 max 20245 min
Histogram: 1 0 0 0 0 0 0 0 0 0
Neighs:    1.88334e+06 ave 1.88334e+06 max 1.88334e+06 min
Histogram: 1 0 0 0 0 0 0 0 0 0

Total # of neighbors = 1883340
Ave neighs/atom = 95.8345
Neighbor list builds = 1505
Dangerous builds not checked
Setting up Verlet run ...
  Unit style    : metal
  Current step  : 88000
  Time step     : 0.001
Per MPI rank memory allocation (min/avg/max) = 19.72 | 19.72 | 19.72 Mbytes
Step Temp Press TotEng PotEng Enthalpy 
   88000    1257.7451    848.51488   -60253.469   -63448.256   -60115.479 
   88495    1218.5662    209.59965   -60422.784   -63518.053   -60388.741 
Loop time of 103.435 on 1 procs for 495 steps with 19652 atoms

Performance: 0.413 ns/day, 58.044 hours/ns, 4.786 timesteps/s
99.5% CPU use with 1 MPI tasks x no OpenMP threads

MPI task timing breakdown:
Section |  min time  |  avg time  |  max time  |%varavg| %total
---------------------------------------------------------------
Pair    | 59.406     | 59.406     | 59.406     |   0.0 | 57.43
Neigh   | 41.527     | 41.527     | 41.527     |   0.0 | 40.15
Comm    | 1.0309     | 1.0309     | 1.0309     |   0.0 |  1.00
Output  | 0.00024986 | 0.00024986 | 0.00024986 |   0.0 |  0.00
Modify  | 1.1889     | 1.1889     | 1.1889     |   0.0 |  1.15
Other   |            | 0.2816     |            |       |  0.27

Nlocal:    19652 ave 19652 max 19652 min
Histogram: 1 0 0 0 0 0 0 0 0 0
Nghost:    20306 ave 20306 max 20306 min
Histogram: 1 0 0 0 0 0 0 0 0 0
Neighs:    1.88545e+06 ave 1.88545e+06 max 1.88545e+06 min
Histogram: 1 0 0 0 0 0 0 0 0 0

Total # of neighbors = 1885448
Ave neighs/atom = 95.9418
Neighbor list builds = 495
Dangerous builds not checked
Setting up Verlet run ...
  Unit style    : metal
  Current step  : 88495
  Time step     : 0.001
Per MPI rank memory allocation (min/avg/max) = 19.72 | 19.72 | 19.72 Mbytes
Step Temp Press TotEng PotEng Enthalpy 
   88495    1218.5662    209.59965   -60422.784   -63518.053   -60388.741 
   90000    1187.1409   -1805.0053   -60590.796   -63606.242   -60883.706 
Loop time of 331.194 on 1 procs for 1505 steps with 19652 atoms

Performance: 0.393 ns/day, 61.129 hours/ns, 4.544 timesteps/s
98.6% CPU use with 1 MPI tasks x no OpenMP threads

MPI task timing breakdown:
Section |  min time  |  avg time  |  max time  |%varavg| %total
---------------------------------------------------------------
Pair    | 190.15     | 190.15     | 190.15     |   0.0 | 57.41
Neigh   | 132.06     | 132.06     | 132.06     |   0.0 | 39.87
Comm    | 3.7803     | 3.7803     | 3.7803     |   0.0 |  1.14
Output  | 0.066429   | 0.066429   | 0.066429   |   0.0 |  0.02
Modify  | 4.1763     | 4.1763     | 4.1763     |   0.0 |  1.26
Other   |            | 0.9615     |            |       |  0.29

Nlocal:    19652 ave 19652 max 19652 min
Histogram: 1 0 0 0 0 0 0 0 0 0
Nghost:    20221 ave 20221 max 20221 min
Histogram: 1 0 0 0 0 0 0 0 0 0
Neighs:    1.88631e+06 ave 1.88631e+06 max 1.88631e+06 min
Histogram: 1 0 0 0 0 0 0 0 0 0

Total # of neighbors = 1886313
Ave neighs/atom = 95.9858
Neighbor list builds = 1505
Dangerous builds not checked
Setting up Verlet run ...
  Unit style    : metal
  Current step  : 90000
  Time step     : 0.001
Per MPI rank memory allocation (min/avg/max) = 19.72 | 19.72 | 19.72 Mbytes
Step Temp Press TotEng PotEng Enthalpy 
   90000    1187.1409   -1805.0053   -60590.796   -63606.242   -60883.706 
   90495    1172.2906   -341.73524   -60778.334   -63756.059    -60833.52 
Loop time of 123.777 on 1 procs for 495 steps with 19652 atoms

Performance: 0.346 ns/day, 69.459 hours/ns, 3.999 timesteps/s
100.1% CPU use with 1 MPI tasks x no OpenMP threads

MPI task timing breakdown:
Section |  min time  |  avg time  |  max time  |%varavg| %total
---------------------------------------------------------------
Pair    | 70.462     | 70.462     | 70.462     |   0.0 | 56.93
Neigh   | 49.653     | 49.653     | 49.653     |   0.0 | 40.12
Comm    | 1.6009     | 1.6009     | 1.6009     |   0.0 |  1.29
Output  | 0.00022602 | 0.00022602 | 0.00022602 |   0.0 |  0.00
Modify  | 1.6868     | 1.6868     | 1.6868     |   0.0 |  1.36
Other   |            | 0.3733     |            |       |  0.30

[...]
Setting up Verlet run ...
  Unit style    : metal
  Current step  : 120000
  Time step     : 0.001
Per MPI rank memory allocation (min/avg/max) = 19.73 | 19.73 | 19.73 Mbytes
Step Temp Press TotEng PotEng Enthalpy 
  120000    453.84602    1434.3656    -65565.43    -66718.24    -65349.79 
  120495    424.57674    111.59289   -65727.142   -66805.606   -65710.382 
Loop time of 115.227 on 1 procs for 495 steps with 19652 atoms

Performance: 0.371 ns/day, 64.661 hours/ns, 4.296 timesteps/s
99.9% CPU use with 1 MPI tasks x no OpenMP threads

MPI task timing breakdown:
Section |  min time  |  avg time  |  max time  |%varavg| %total
---------------------------------------------------------------
Pair    | 65.45      | 65.45      | 65.45      |   0.0 | 56.80
Neigh   | 46.183     | 46.183     | 46.183     |   0.0 | 40.08
Comm    | 1.5754     | 1.5754     | 1.5754     |   0.0 |  1.37
Output  | 0.01229    | 0.01229    | 0.01229    |   0.0 |  0.01
Modify  | 1.634      | 1.634      | 1.634      |   0.0 |  1.42
Other   |            | 0.3714     |            |       |  0.32

Nlocal:    19652 ave 19652 max 19652 min
Histogram: 1 0 0 0 0 0 0 0 0 0
Nghost:    20948 ave 20948 max 20948 min
Histogram: 1 0 0 0 0 0 0 0 0 0
Neighs:    2.03421e+06 ave 2.03421e+06 max 2.03421e+06 min
Histogram: 1 0 0 0 0 0 0 0 0 0

Total # of neighbors = 2034210
Ave neighs/atom = 103.512
Neighbor list builds = 495
Dangerous builds not checked
Setting up Verlet run ...
  Unit style    : metal
  Current step  : 120495
  Time step     : 0.001
Per MPI rank memory allocation (min/avg/max) = 19.73 | 19.73 | 19.73 Mbytes
Step Temp Press TotEng PotEng Enthalpy 
  120495    424.57674    111.59289   -65727.142   -66805.606   -65710.382 
  122000    399.36844    304.76379   -65872.057   -66886.489   -65826.378 
Loop time of 379.757 on 1 procs for 1505 steps with 19652 atoms

Performance: 0.342 ns/day, 70.092 hours/ns, 3.963 timesteps/s
99.0% CPU use with 1 MPI tasks x no OpenMP threads

MPI task timing breakdown:
Section |  min time  |  avg time  |  max time  |%varavg| %total
---------------------------------------------------------------
Pair    | 215.47     | 215.47     | 215.47     |   0.0 | 56.74
Neigh   | 149.96     | 149.96     | 149.96     |   0.0 | 39.49
Comm    | 6.3607     | 6.3607     | 6.3607     |   0.0 |  1.67
Output  | 0.086932   | 0.086932   | 0.086932   |   0.0 |  0.02
Modify  | 6.4913     | 6.4913     | 6.4913     |   0.0 |  1.71
Other   |            | 1.392      |            |       |  0.37

Nlocal:    19652 ave 19652 max 19652 min
Histogram: 1 0 0 0 0 0 0 0 0 0
Nghost:    20963 ave 20963 max 20963 min
Histogram: 1 0 0 0 0 0 0 0 0 0
Neighs:    2.03857e+06 ave 2.03857e+06 max 2.03857e+06 min
Histogram: 1 0 0 0 0 0 0 0 0 0

Total # of neighbors = 2038573
Ave neighs/atom = 103.734
Neighbor list builds = 1505
Dangerous builds not checked
Setting up Verlet run ...
  Unit style    : metal
  Current step  : 122000
  Time step     : 0.001
Per MPI rank memory allocation (min/avg/max) = 19.73 | 19.73 | 19.73 Mbytes
Step Temp Press TotEng PotEng Enthalpy 
  122000    399.36844    304.76379   -65872.057   -66886.489   -65826.378 
  122495    372.57387    255.24473   -66026.914   -66973.285   -65988.718 
Loop time of 127.382 on 1 procs for 495 steps with 19652 atoms

Performance: 0.336 ns/day, 71.483 hours/ns, 3.886 timesteps/s
98.0% CPU use with 1 MPI tasks x no OpenMP threads

MPI task timing breakdown:
Section |  min time  |  avg time  |  max time  |%varavg| %total
---------------------------------------------------------------
Pair    | 71.909     | 71.909     | 71.909     |   0.0 | 56.45
Neigh   | 51.037     | 51.037     | 51.037     |   0.0 | 40.07
Comm    | 1.9986     | 1.9986     | 1.9986     |   0.0 |  1.57
Output  | 0.00025415 | 0.00025415 | 0.00025415 |   0.0 |  0.00
Modify  | 2.0173     | 2.0173     | 2.0173     |   0.0 |  1.58
Other   |            | 0.42       |            |       |  0.33

Nlocal:    19652 ave 19652 max 19652 min
Histogram: 1 0 0 0 0 0 0 0 0 0
Nghost:    20969 ave 20969 max 20969 min
Histogram: 1 0 0 0 0 0 0 0 0 0
Neighs:    2.04266e+06 ave 2.04266e+06 max 2.04266e+06 min
Histogram: 1 0 0 0 0 0 0 0 0 0

Total # of neighbors = 2042665
Ave neighs/atom = 103.942
Neighbor list builds = 495
Dangerous builds not checked
Setting up Verlet run ...
  Unit style    : metal
  Current step  : 122495
  Time step     : 0.001
Per MPI rank memory allocation (min/avg/max) = 19.73 | 19.73 | 19.73 Mbytes
Step Temp Press TotEng PotEng Enthalpy 
  122495    372.57387    255.24473   -66026.914   -66973.285   -65988.718 
  124000    349.60357    413.24739   -66156.061   -67044.086   -66094.337 
Loop time of 370.463 on 1 procs for 1505 steps with 19652 atoms

Performance: 0.351 ns/day, 68.376 hours/ns, 4.062 timesteps/s
99.1% CPU use with 1 MPI tasks x no OpenMP threads

MPI task timing breakdown:
Section |  min time  |  avg time  |  max time  |%varavg| %total
---------------------------------------------------------------
Pair    | 211.26     | 211.26     | 211.26     |   0.0 | 57.03
Neigh   | 147.46     | 147.46     | 147.46     |   0.0 | 39.80
Comm    | 5.2141     | 5.2141     | 5.2141     |   0.0 |  1.41
Output  | 0.063976   | 0.063976   | 0.063976   |   0.0 |  0.02
Modify  | 5.3017     | 5.3017     | 5.3017     |   0.0 |  1.43
Other   |            | 1.162      |            |       |  0.31

Nlocal:    19652 ave 19652 max 19652 min
Histogram: 1 0 0 0 0 0 0 0 0 0
Nghost:    20985 ave 20985 max 20985 min
Histogram: 1 0 0 0 0 0 0 0 0 0
Neighs:    2.04648e+06 ave 2.04648e+06 max 2.04648e+06 min
Histogram: 1 0 0 0 0 0 0 0 0 0

Total # of neighbors = 2046480
Ave neighs/atom = 104.136
Neighbor list builds = 1505
Dangerous builds not checked
Setting up Verlet run ...
  Unit style    : metal
  Current step  : 124000
  Time step     : 0.001
Per MPI rank memory allocation (min/avg/max) = 19.73 | 19.73 | 19.73 Mbytes
Step Temp Press TotEng PotEng Enthalpy 
  124000    349.60357    413.24739   -66156.061   -67044.086   -66094.337 
  124495    321.43677   -357.00393   -66309.235   -67125.714   -66362.502 
Loop time of 124.723 on 1 procs for 495 steps with 19652 atoms

Performance: 0.343 ns/day, 69.990 hours/ns, 3.969 timesteps/s
98.9% CPU use with 1 MPI tasks x no OpenMP threads

MPI task timing breakdown:
Section |  min time  |  avg time  |  max time  |%varavg| %total
---------------------------------------------------------------
Pair    | 71.792     | 71.792     | 71.792     |   0.0 | 57.56
Neigh   | 48.371     | 48.371     | 48.371     |   0.0 | 38.78
Comm    | 2.0592     | 2.0592     | 2.0592     |   0.0 |  1.65
Output  | 0.00043297 | 0.00043297 | 0.00043297 |   0.0 |  0.00
Modify  | 2.0527     | 2.0527     | 2.0527     |   0.0 |  1.65
Other   |            | 0.4471     |            |       |  0.36

Nlocal:    19652 ave 19652 max 19652 min
Histogram: 1 0 0 0 0 0 0 0 0 0
Nghost:    21002 ave 21002 max 21002 min
Histogram: 1 0 0 0 0 0 0 0 0 0
Neighs:    2.0486e+06 ave 2.0486e+06 max 2.0486e+06 min
Histogram: 1 0 0 0 0 0 0 0 0 0

Total # of neighbors = 2048599
Ave neighs/atom = 104.244
Neighbor list builds = 495
Dangerous builds not checked
Setting up Verlet run ...
  Unit style    : metal
  Current step  : 124495
  Time step     : 0.001
Per MPI rank memory allocation (min/avg/max) = 19.73 | 19.73 | 19.73 Mbytes
Step Temp Press TotEng PotEng Enthalpy 
  124495    321.43677   -357.00393   -66309.235   -67125.714   -66362.502 
  126000     299.5258   -4.0533202   -66447.283   -67208.106   -66447.886 
Loop time of 394.49 on 1 procs for 1505 steps with 19652 atoms

Performance: 0.330 ns/day, 72.811 hours/ns, 3.815 timesteps/s
97.5% CPU use with 1 MPI tasks x no OpenMP threads

MPI task timing breakdown:
Section |  min time  |  avg time  |  max time  |%varavg| %total
---------------------------------------------------------------
Pair    | 225.66     | 225.66     | 225.66     |   0.0 | 57.20
Neigh   | 154.49     | 154.49     | 154.49     |   0.0 | 39.16
Comm    | 6.5019     | 6.5019     | 6.5019     |   0.0 |  1.65
Output  | 0.06884    | 0.06884    | 0.06884    |   0.0 |  0.02
Modify  | 6.4125     | 6.4125     | 6.4125     |   0.0 |  1.63
Other   |            | 1.356      |            |       |  0.34

Nlocal:    19652 ave 19652 max 19652 min
Histogram: 1 0 0 0 0 0 0 0 0 0
Nghost:    21032 ave 21032 max 21032 min
Histogram: 1 0 0 0 0 0 0 0 0 0
Neighs:    2.05306e+06 ave 2.05306e+06 max 2.05306e+06 min
Histogram: 1 0 0 0 0 0 0 0 0 0

Total # of neighbors = 2053057
Ave neighs/atom = 104.471
Neighbor list builds = 1505
Dangerous builds not checked
Setting up Verlet run ...
  Unit style    : metal
  Current step  : 126000
  Time step     : 0.001
Per MPI rank memory allocation (min/avg/max) = 19.73 | 19.73 | 19.73 Mbytes
Step Temp Press TotEng PotEng Enthalpy 
  126000     299.5258   -4.0533202   -66447.283   -67208.106   -66447.886 
  126495    276.14029    -45.68609   -66583.574   -67284.996   -66590.367 
Loop time of 120.597 on 1 procs for 495 steps with 19652 atoms

Performance: 0.355 ns/day, 67.675 hours/ns, 4.105 timesteps/s
99.5% CPU use with 1 MPI tasks x no OpenMP threads

MPI task timing breakdown:
Section |  min time  |  avg time  |  max time  |%varavg| %total
---------------------------------------------------------------
Pair    | 68.826     | 68.826     | 68.826     |   0.0 | 57.07
Neigh   | 47.427     | 47.427     | 47.427     |   0.0 | 39.33
Comm    | 1.9523     | 1.9523     | 1.9523     |   0.0 |  1.62
Output  | 0.00027108 | 0.00027108 | 0.00027108 |   0.0 |  0.00
Modify  | 1.9734     | 1.9734     | 1.9734     |   0.0 |  1.64
Other   |            | 0.4181     |            |       |  0.35

Nlocal:    19652 ave 19652 max 19652 min
Histogram: 1 0 0 0 0 0 0 0 0 0
Nghost:    21048 ave 21048 max 21048 min
Histogram: 1 0 0 0 0 0 0 0 0 0
Neighs:    2.05643e+06 ave 2.05643e+06 max 2.05643e+06 min
Histogram: 1 0 0 0 0 0 0 0 0 0

Total # of neighbors = 2056432
Ave neighs/atom = 104.642
Neighbor list builds = 495
Dangerous builds not checked
Setting up Verlet run ...
  Unit style    : metal
  Current step  : 126495
  Time step     : 0.001
Per MPI rank memory allocation (min/avg/max) = 19.73 | 19.73 | 19.73 Mbytes
Step Temp Press TotEng PotEng Enthalpy 
  126495    276.14029    -45.68609   -66583.574   -67284.996   -66590.367 
  128000    249.95063   -763.93389   -66718.012    -67352.91   -66831.492 
Loop time of 369.802 on 1 procs for 1505 steps with 19652 atoms

Performance: 0.352 ns/day, 68.254 hours/ns, 4.070 timesteps/s
99.4% CPU use with 1 MPI tasks x no OpenMP threads

MPI task timing breakdown:
Section |  min time  |  avg time  |  max time  |%varavg| %total
---------------------------------------------------------------
Pair    | 211.34     | 211.34     | 211.34     |   0.0 | 57.15
Neigh   | 146.58     | 146.58     | 146.58     |   0.0 | 39.64
Comm    | 5.3112     | 5.3112     | 5.3112     |   0.0 |  1.44
Output  | 0.065728   | 0.065728   | 0.065728   |   0.0 |  0.02
Modify  | 5.3459     | 5.3459     | 5.3459     |   0.0 |  1.45
Other   |            | 1.151      |            |       |  0.31

Nlocal:    19652 ave 19652 max 19652 min
Histogram: 1 0 0 0 0 0 0 0 0 0
Nghost:    21051 ave 21051 max 21051 min
Histogram: 1 0 0 0 0 0 0 0 0 0
Neighs:    2.05896e+06 ave 2.05896e+06 max 2.05896e+06 min
Histogram: 1 0 0 0 0 0 0 0 0 0

Total # of neighbors = 2058955
Ave neighs/atom = 104.771
Neighbor list builds = 1505
Dangerous builds not checked
Setting up Verlet run ...
  Unit style    : metal
  Current step  : 128000
  Time step     : 0.001
Per MPI rank memory allocation (min/avg/max) = 19.73 | 19.73 | 19.73 Mbytes
Step Temp Press TotEng PotEng Enthalpy 
  128000    249.95063   -763.93389   -66718.012    -67352.91   -66831.492 
  128495    225.26598   -137.64499   -66852.574    -67424.77    -66872.98 
Loop time of 111.28 on 1 procs for 495 steps with 19652 atoms

Performance: 0.384 ns/day, 62.447 hours/ns, 4.448 timesteps/s
99.3% CPU use with 1 MPI tasks x no OpenMP threads

MPI task timing breakdown:
Section |  min time  |  avg time  |  max time  |%varavg| %total
---------------------------------------------------------------
Pair    | 63.289     | 63.289     | 63.289     |   0.0 | 56.87
Neigh   | 45.209     | 45.209     | 45.209     |   0.0 | 40.63
Comm    | 1.1646     | 1.1646     | 1.1646     |   0.0 |  1.05
Output  | 0.00022197 | 0.00022197 | 0.00022197 |   0.0 |  0.00
Modify  | 1.3033     | 1.3033     | 1.3033     |   0.0 |  1.17
Other   |            | 0.3133     |            |       |  0.28

Nlocal:    19652 ave 19652 max 19652 min
Histogram: 1 0 0 0 0 0 0 0 0 0
Nghost:    21064 ave 21064 max 21064 min
Histogram: 1 0 0 0 0 0 0 0 0 0
Neighs:    2.06319e+06 ave 2.06319e+06 max 2.06319e+06 min
Histogram: 1 0 0 0 0 0 0 0 0 0

Total # of neighbors = 2063194
Ave neighs/atom = 104.986
Neighbor list builds = 495
Dangerous builds not checked
Setting up Verlet run ...
  Unit style    : metal
  Current step  : 128495
  Time step     : 0.001
Per MPI rank memory allocation (min/avg/max) = 19.73 | 19.73 | 19.73 Mbytes
Step Temp Press TotEng PotEng Enthalpy 
  128495    225.26598   -137.64499   -66852.574    -67424.77    -66872.98 
  130000    199.99006    305.01594    -66988.29   -67496.283   -66943.154 
Loop time of 351.005 on 1 procs for 1505 steps with 19652 atoms

Performance: 0.370 ns/day, 64.785 hours/ns, 4.288 timesteps/s
99.3% CPU use with 1 MPI tasks x no OpenMP threads

MPI task timing breakdown:
Section |  min time  |  avg time  |  max time  |%varavg| %total
---------------------------------------------------------------
Pair    | 200.49     | 200.49     | 200.49     |   0.0 | 57.12
Neigh   | 140.08     | 140.08     | 140.08     |   0.0 | 39.91
Comm    | 4.5322     | 4.5322     | 4.5322     |   0.0 |  1.29
Output  | 0.064343   | 0.064343   | 0.064343   |   0.0 |  0.02
Modify  | 4.7695     | 4.7695     | 4.7695     |   0.0 |  1.36
Other   |            | 1.071      |            |       |  0.31

Nlocal:    19652 ave 19652 max 19652 min
Histogram: 1 0 0 0 0 0 0 0 0 0
Nghost:    21079 ave 21079 max 21079 min
Histogram: 1 0 0 0 0 0 0 0 0 0
Neighs:    2.068e+06 ave 2.068e+06 max 2.068e+06 min
Histogram: 1 0 0 0 0 0 0 0 0 0

Total # of neighbors = 2068003
Ave neighs/atom = 105.231
Neighbor list builds = 1505
Dangerous builds not checked
Setting up Verlet run ...
  Unit style    : metal
  Current step  : 130000
  Time step     : 0.001
Per MPI rank memory allocation (min/avg/max) = 19.73 | 19.73 | 19.73 Mbytes
Step Temp Press TotEng PotEng Enthalpy 
  130000    199.99006    305.01594    -66988.29   -67496.283   -66943.154 
  130495    175.72507    136.75042   -67115.993   -67562.351   -67095.782 
Loop time of 107.069 on 1 procs for 495 steps with 19652 atoms

Performance: 0.399 ns/day, 60.083 hours/ns, 4.623 timesteps/s
99.8% CPU use with 1 MPI tasks x no OpenMP threads

MPI task timing breakdown:
Section |  min time  |  avg time  |  max time  |%varavg| %total
---------------------------------------------------------------
Pair    | 61.168     | 61.168     | 61.168     |   0.0 | 57.13
Neigh   | 42.858     | 42.858     | 42.858     |   0.0 | 40.03
Comm    | 1.3129     | 1.3129     | 1.3129     |   0.0 |  1.23
Output  | 0.0002861  | 0.0002861  | 0.0002861  |   0.0 |  0.00
Modify  | 1.4062     | 1.4062     | 1.4062     |   0.0 |  1.31
Other   |            | 0.3238     |            |       |  0.30

Nlocal:    19652 ave 19652 max 19652 min
Histogram: 1 0 0 0 0 0 0 0 0 0
Nghost:    21088 ave 21088 max 21088 min
Histogram: 1 0 0 0 0 0 0 0 0 0
Neighs:    2.07129e+06 ave 2.07129e+06 max 2.07129e+06 min
Histogram: 1 0 0 0 0 0 0 0 0 0

Total # of neighbors = 2071288
Ave neighs/atom = 105.398
Neighbor list builds = 495
Dangerous builds not checked
Setting up Verlet run ...
  Unit style    : metal
  Current step  : 130495
  Time step     : 0.001
Per MPI rank memory allocation (min/avg/max) = 19.73 | 19.73 | 19.73 Mbytes
Step Temp Press TotEng PotEng Enthalpy 
  130495    175.72507    136.75042   -67115.993   -67562.351   -67095.782 
  132000     150.0622    1034.9881   -67257.867   -67639.039   -67105.245 
Loop time of 349.174 on 1 procs for 1505 steps with 19652 atoms

Performance: 0.372 ns/day, 64.447 hours/ns, 4.310 timesteps/s
99.4% CPU use with 1 MPI tasks x no OpenMP threads

MPI task timing breakdown:
Section |  min time  |  avg time  |  max time  |%varavg| %total
---------------------------------------------------------------
Pair    | 199.19     | 199.19     | 199.19     |   0.0 | 57.04
Neigh   | 139.28     | 139.28     | 139.28     |   0.0 | 39.89
Comm    | 4.5467     | 4.5467     | 4.5467     |   0.0 |  1.30
Output  | 0.23651    | 0.23651    | 0.23651    |   0.0 |  0.07
Modify  | 4.8245     | 4.8245     | 4.8245     |   0.0 |  1.38
Other   |            | 1.096      |            |       |  0.31

Nlocal:    19652 ave 19652 max 19652 min
Histogram: 1 0 0 0 0 0 0 0 0 0
Nghost:    21145 ave 21145 max 21145 min
Histogram: 1 0 0 0 0 0 0 0 0 0
Neighs:    2.07644e+06 ave 2.07644e+06 max 2.07644e+06 min
Histogram: 1 0 0 0 0 0 0 0 0 0

Total # of neighbors = 2076435
Ave neighs/atom = 105.66
Neighbor list builds = 1505
Dangerous builds not checked
Setting up Verlet run ...
  Unit style    : metal
  Current step  : 132000
  Time step     : 0.001
Per MPI rank memory allocation (min/avg/max) = 19.73 | 19.73 | 19.73 Mbytes
Step Temp Press TotEng PotEng Enthalpy 
  132000     150.0622    1034.9881   -67257.867   -67639.039   -67105.245 
  132495    126.78068   -450.46581   -67376.529   -67698.563   -67442.953 
Loop time of 120.107 on 1 procs for 495 steps with 19652 atoms

Performance: 0.356 ns/day, 67.400 hours/ns, 4.121 timesteps/s
99.4% CPU use with 1 MPI tasks x no OpenMP threads

MPI task timing breakdown:
Section |  min time  |  avg time  |  max time  |%varavg| %total
---------------------------------------------------------------
Pair    | 68.685     | 68.685     | 68.685     |   0.0 | 57.19
Neigh   | 46.915     | 46.915     | 46.915     |   0.0 | 39.06
Comm    | 2.0121     | 2.0121     | 2.0121     |   0.0 |  1.68
Output  | 0.00039005 | 0.00039005 | 0.00039005 |   0.0 |  0.00
Modify  | 2.0514     | 2.0514     | 2.0514     |   0.0 |  1.71
Other   |            | 0.4429     |            |       |  0.37

Nlocal:    19652 ave 19652 max 19652 min
Histogram: 1 0 0 0 0 0 0 0 0 0
Nghost:    21104 ave 21104 max 21104 min
Histogram: 1 0 0 0 0 0 0 0 0 0
Neighs:    2.07696e+06 ave 2.07696e+06 max 2.07696e+06 min
Histogram: 1 0 0 0 0 0 0 0 0 0

Total # of neighbors = 2076957
Ave neighs/atom = 105.687
Neighbor list builds = 495
Dangerous builds not checked
Setting up Verlet run ...
  Unit style    : metal
  Current step  : 132495
  Time step     : 0.001
Per MPI rank memory allocation (min/avg/max) = 19.73 | 19.73 | 19.73 Mbytes
Step Temp Press TotEng PotEng Enthalpy 
  132495    126.78068   -450.46581   -67376.529   -67698.563   -67442.953 
  134000    99.798549   -669.24459   -67522.239   -67775.737   -67620.797 
Loop time of 363.112 on 1 procs for 1505 steps with 19652 atoms

Performance: 0.358 ns/day, 67.020 hours/ns, 4.145 timesteps/s
99.2% CPU use with 1 MPI tasks x no OpenMP threads

MPI task timing breakdown:
Section |  min time  |  avg time  |  max time  |%varavg| %total
---------------------------------------------------------------
Pair    | 207.1      | 207.1      | 207.1      |   0.0 | 57.04
Neigh   | 144.2      | 144.2      | 144.2      |   0.0 | 39.71
Comm    | 5.2019     | 5.2019     | 5.2019     |   0.0 |  1.43
Output  | 0.064555   | 0.064555   | 0.064555   |   0.0 |  0.02
Modify  | 5.3794     | 5.3794     | 5.3794     |   0.0 |  1.48
Other   |            | 1.16       |            |       |  0.32

Nlocal:    19652 ave 19652 max 19652 min
Histogram: 1 0 0 0 0 0 0 0 0 0
Nghost:    21119 ave 21119 max 21119 min
Histogram: 1 0 0 0 0 0 0 0 0 0
Neighs:    2.08012e+06 ave 2.08012e+06 max 2.08012e+06 min
Histogram: 1 0 0 0 0 0 0 0 0 0

Total # of neighbors = 2080121
Ave neighs/atom = 105.848
Neighbor list builds = 1505
Dangerous builds not checked
Total wall time: 7:16:45
