LAMMPS (12 Dec 2018)
Lattice spacing in x,y,z = 4 4 4
Created orthogonal box = (0 0 0) to (68 68 68)
  1 by 1 by 2 MPI processor grid
Created 19652 atoms
  Time spent = 0.00152802 secs
Setting atom values ...
  0 settings made for type/fraction
Neighbor list info ...
  update every 1 steps, delay 0 steps, check no
  max neighbors/atom: 2000, page size: 100000
  master list distance cutoff = 8.5
  ghost atom cutoff = 8.5
  binsize = 4.25, bins = 16 16 16
  1 neighbor lists, perpetual/occasional/extra = 1 0 0
  (1) pair eam/alloy, perpetual
      attributes: half, newton on
      pair build: half/bin/atomonly/newton
      stencil: half/bin/3d/newton
      bin: standard
Setting up Verlet run ...
  Unit style    : metal
  Current step  : 0
  Time step     : 0.001
Per MPI rank memory allocation (min/avg/max) = 11.15 | 11.15 | 11.15 Mbytes
Step Temp Press TotEng PotEng Enthalpy 
       0          300     9641.232   -65285.163    -66047.19   -63393.042 
    1000    156.44062    18277.508   -65285.017    -65682.39       -61698 
Loop time of 84.3531 on 2 procs for 1000 steps with 19652 atoms

Performance: 1.024 ns/day, 23.431 hours/ns, 11.855 timesteps/s
99.7% CPU use with 2 MPI tasks x no OpenMP threads

MPI task timing breakdown:
Section |  min time  |  avg time  |  max time  |%varavg| %total
---------------------------------------------------------------
Pair    | 47.974     | 48.006     | 48.038     |   0.5 | 56.91
Neigh   | 32.628     | 32.973     | 33.318     |   6.0 | 39.09
Comm    | 2.5623     | 2.9449     | 3.3274     |  22.3 |  3.49
Output  | 0.00012803 | 0.00014699 | 0.00016594 |   0.0 |  0.00
Modify  | 0.2135     | 0.21641    | 0.21931    |   0.6 |  0.26
Other   |            | 0.2133     |            |       |  0.25

Nlocal:    9826 ave 9826 max 9826 min
Histogram: 2 0 0 0 0 0 0 0 0 0
Nghost:    14210 ave 14211 max 14209 min
Histogram: 1 0 0 0 0 0 0 0 0 1
Neighs:    781630 ave 781967 max 781293 min
Histogram: 1 0 0 0 0 0 0 0 0 1

Total # of neighbors = 1563260
Ave neighs/atom = 79.5471
Neighbor list builds = 1000
Dangerous builds not checked
Setting up Verlet run ...
  Unit style    : metal
  Current step  : 1000
  Time step     : 0.001
Per MPI rank memory allocation (min/avg/max) = 11.15 | 11.15 | 11.15 Mbytes
Step Temp Press TotEng PotEng Enthalpy 
    1000    156.44062    18277.508   -65285.017    -65682.39       -61698 
    2000    299.04353    -60.90173   -64534.168   -65293.765   -64546.575 
Loop time of 81.9647 on 2 procs for 1000 steps with 19652 atoms

Performance: 1.054 ns/day, 22.768 hours/ns, 12.200 timesteps/s
99.9% CPU use with 2 MPI tasks x no OpenMP threads

MPI task timing breakdown:
Section |  min time  |  avg time  |  max time  |%varavg| %total
---------------------------------------------------------------
Pair    | 45.377     | 45.724     | 46.07      |   5.1 | 55.78
Neigh   | 31.351     | 32.436     | 33.522     |  19.1 | 39.57
Comm    | 2.0389     | 2.7985     | 3.5581     |  45.4 |  3.41
Output  | 8.1062e-05 | 0.00013006 | 0.00017905 |   0.0 |  0.00
Modify  | 0.7738     | 0.78907    | 0.80434    |   1.7 |  0.96
Other   |            | 0.2172     |            |       |  0.26

Nlocal:    9826 ave 9839 max 9813 min
Histogram: 1 0 0 0 0 0 0 0 0 1
Nghost:    14156 ave 14180 max 14132 min
Histogram: 1 0 0 0 0 0 0 0 0 1
Neighs:    740668 ave 741736 max 739601 min
Histogram: 1 0 0 0 0 0 0 0 0 1

Total # of neighbors = 1481337
Ave neighs/atom = 75.3784
Neighbor list builds = 1000
Dangerous builds not checked
Setting up Verlet run ...
  Unit style    : metal
  Current step  : 2000
  Time step     : 0.001
Per MPI rank memory allocation (min/avg/max) = 11.15 | 11.15 | 11.15 Mbytes
Step Temp Press TotEng PotEng Enthalpy 
    2000    299.04353    -60.90173   -64534.168   -65293.765   -64546.575 
   10000    2441.0283    597.38131   -50521.599   -56722.033   -50354.963 
Loop time of 651.17 on 2 procs for 8000 steps with 19652 atoms

Performance: 1.061 ns/day, 22.610 hours/ns, 12.286 timesteps/s
99.2% CPU use with 2 MPI tasks x no OpenMP threads

MPI task timing breakdown:
Section |  min time  |  avg time  |  max time  |%varavg| %total
---------------------------------------------------------------
Pair    | 348.59     | 348.76     | 348.93     |   0.9 | 53.56
Neigh   | 267.34     | 270.1      | 272.85     |  16.7 | 41.48
Comm    | 21.467     | 24.108     | 26.749     |  53.8 |  3.70
Output  | 0.033854   | 0.033881   | 0.033908   |   0.0 |  0.01
Modify  | 6.3967     | 6.4446     | 6.4925     |   1.9 |  0.99
Other   |            | 1.726      |            |       |  0.27

Nlocal:    9826 ave 9844 max 9808 min
Histogram: 1 0 0 0 0 0 0 0 0 1
Nghost:    11345 ave 11375 max 11315 min
Histogram: 1 0 0 0 0 0 0 0 0 1
Neighs:    552080 ave 556664 max 547496 min
Histogram: 1 0 0 0 0 0 0 0 0 1

Total # of neighbors = 1104160
Ave neighs/atom = 56.1856
Neighbor list builds = 8000
Dangerous builds not checked
Setting up Verlet run ...
  Unit style    : metal
  Current step  : 10000
  Time step     : 0.001
Per MPI rank memory allocation (min/avg/max) = 11.2 | 11.2 | 11.2 Mbytes
Step Temp Press TotEng PotEng Enthalpy 
   10000    2441.0283    597.38131   -50521.599   -56722.033   -50354.963 
   20000    2446.1575   -176.81995   -50501.154   -56714.617   -50550.594 
   30000    2447.7066    418.66388   -50475.044   -56692.442   -50357.915 
   40000    2444.7643    -294.8631   -50474.554   -56684.478   -50557.116 
Loop time of 2581.36 on 2 procs for 30000 steps with 19652 atoms

Performance: 1.004 ns/day, 23.902 hours/ns, 11.622 timesteps/s
97.0% CPU use with 2 MPI tasks x no OpenMP threads

MPI task timing breakdown:
Section |  min time  |  avg time  |  max time  |%varavg| %total
---------------------------------------------------------------
Pair    | 1387.1     | 1387.8     | 1388.5     |   1.8 | 53.76
Neigh   | 1043.9     | 1047       | 1050       |   9.4 | 40.56
Comm    | 107.55     | 110.89     | 114.23     |  31.7 |  4.30
Output  | 0.11684    | 0.11699    | 0.11715    |   0.0 |  0.00
Modify  | 27.574     | 28.536     | 29.497     |  18.0 |  1.11
Other   |            | 7.029      |            |       |  0.27

Nlocal:    9826 ave 9848 max 9804 min
Histogram: 1 0 0 0 0 0 0 0 0 1
Nghost:    11404.5 ave 11414 max 11395 min
Histogram: 1 0 0 0 0 0 0 0 0 1
Neighs:    549851 ave 551992 max 547710 min
Histogram: 1 0 0 0 0 0 0 0 0 1

Total # of neighbors = 1099702
Ave neighs/atom = 55.9588
Neighbor list builds = 30000
Dangerous builds not checked
Setting up Verlet run ...
  Unit style    : metal
  Current step  : 40000
  Time step     : 0.001
Per MPI rank memory allocation (min/avg/max) = 11.29 | 11.29 | 11.3 Mbytes
Step Temp Press TotEng PotEng Enthalpy 
   40000    2444.7643    -294.8631   -50474.554   -56684.478   -50557.116 
   40495    2414.3584    55.368699   -50656.578   -56789.269   -50641.143 
Loop time of 45.1533 on 2 procs for 495 steps with 19652 atoms

Performance: 0.947 ns/day, 25.339 hours/ns, 10.963 timesteps/s
94.7% CPU use with 2 MPI tasks x no OpenMP threads

MPI task timing breakdown:
Section |  min time  |  avg time  |  max time  |%varavg| %total
---------------------------------------------------------------
Pair    | 24.681     | 24.79      | 24.9       |   2.2 | 54.90
Neigh   | 17.39      | 17.521     | 17.653     |   3.1 | 38.80
Comm    | 2.2264     | 2.2469     | 2.2674     |   1.4 |  4.98
Output  | 0.00010204 | 0.00022447 | 0.0003469  |   0.0 |  0.00
Modify  | 0.46496    | 0.46658    | 0.4682     |   0.2 |  1.03
Other   |            | 0.1279     |            |       |  0.28

Nlocal:    9826 ave 9856 max 9796 min
Histogram: 1 0 0 0 0 0 0 0 0 1
Nghost:    11359.5 ave 11397 max 11322 min
Histogram: 1 0 0 0 0 0 0 0 0 1
Neighs:    552420 ave 559299 max 545541 min
Histogram: 1 0 0 0 0 0 0 0 0 1

Total # of neighbors = 1104840
Ave neighs/atom = 56.2202
Neighbor list builds = 495
Dangerous builds not checked
Setting up Verlet run ...
  Unit style    : metal
  Current step  : 40495
  Time step     : 0.001
Per MPI rank memory allocation (min/avg/max) = 11.29 | 11.29 | 11.3 Mbytes
Step Temp Press TotEng PotEng Enthalpy 
   40495    2414.3584    55.368699   -50656.578   -56789.269   -50641.143 
   50000    2401.2492   -249.66111   -50733.501   -56832.893   -50803.054 
Loop time of 884.006 on 2 procs for 9505 steps with 19652 atoms

Performance: 0.929 ns/day, 25.835 hours/ns, 10.752 timesteps/s
99.3% CPU use with 2 MPI tasks x no OpenMP threads

MPI task timing breakdown:
Section |  min time  |  avg time  |  max time  |%varavg| %total
---------------------------------------------------------------
Pair    | 471.6      | 476.22     | 480.84     |  21.2 | 53.87
Neigh   | 364.62     | 364.97     | 365.32     |   1.8 | 41.29
Comm    | 26.252     | 31.208     | 36.164     |  88.7 |  3.53
Output  | 0.42089    | 0.42092    | 0.42096    |   0.0 |  0.05
Modify  | 8.7597     | 8.7607     | 8.7618     |   0.0 |  0.99
Other   |            | 2.424      |            |       |  0.27

Nlocal:    9826 ave 9827 max 9825 min
Histogram: 1 0 0 0 0 0 0 0 0 1
Nghost:    11363 ave 11375 max 11351 min
Histogram: 1 0 0 0 0 0 0 0 0 1
Neighs:    552855 ave 558533 max 547177 min
Histogram: 1 0 0 0 0 0 0 0 0 1

Total # of neighbors = 1105710
Ave neighs/atom = 56.2645
Neighbor list builds = 9505
Dangerous builds not checked
Setting up Verlet run ...
  Unit style    : metal
  Current step  : 50000
  Time step     : 0.001
Per MPI rank memory allocation (min/avg/max) = 11.31 | 11.31 | 11.31 Mbytes
Step Temp Press TotEng PotEng Enthalpy 
   50000    2401.2492   -249.66111   -50733.501   -56832.893   -50803.054 
   50495    2360.4345    330.66077   -50937.313   -56933.032   -50845.645 
Loop time of 42.1575 on 2 procs for 495 steps with 19652 atoms

Performance: 1.014 ns/day, 23.657 hours/ns, 11.742 timesteps/s
99.8% CPU use with 2 MPI tasks x no OpenMP threads

MPI task timing breakdown:
Section |  min time  |  avg time  |  max time  |%varavg| %total
---------------------------------------------------------------
Pair    | 22.26      | 22.388     | 22.515     |   2.7 | 53.10
Neigh   | 17.853     | 17.857     | 17.862     |   0.1 | 42.36
Comm    | 1.2035     | 1.3368     | 1.4702     |  11.5 |  3.17
Output  | 0.0001092  | 0.00023818 | 0.00036716 |   0.0 |  0.00
Modify  | 0.44956    | 0.45122    | 0.45289    |   0.2 |  1.07
Other   |            | 0.1245     |            |       |  0.30

Nlocal:    9826 ave 9833 max 9819 min
Histogram: 1 0 0 0 0 0 0 0 0 1
Nghost:    11416.5 ave 11426 max 11407 min
Histogram: 1 0 0 0 0 0 0 0 0 1
Neighs:    555671 ave 562138 max 549204 min
Histogram: 1 0 0 0 0 0 0 0 0 1

Total # of neighbors = 1111342
Ave neighs/atom = 56.5511
Neighbor list builds = 495
Dangerous builds not checked
Setting up Verlet run ...
  Unit style    : metal
  Current step  : 50495
  Time step     : 0.001
Per MPI rank memory allocation (min/avg/max) = 11.31 | 11.31 | 11.31 Mbytes
Step Temp Press TotEng PotEng Enthalpy 
   50495    2360.4345    330.66077   -50937.313   -56933.032   -50845.645 
   60000    2365.0773   -402.20099   -50935.565   -56943.077   -51047.247 
Loop time of 880.387 on 2 procs for 9505 steps with 19652 atoms

Performance: 0.933 ns/day, 25.729 hours/ns, 10.796 timesteps/s
98.8% CPU use with 2 MPI tasks x no OpenMP threads

MPI task timing breakdown:
Section |  min time  |  avg time  |  max time  |%varavg| %total
---------------------------------------------------------------
Pair    | 470.48     | 476.12     | 481.76     |  25.8 | 54.08
Neigh   | 350.37     | 355.77     | 361.17     |  28.6 | 40.41
Comm    | 26.371     | 37.473     | 48.575     | 181.4 |  4.26
Output  | 0.035979   | 0.036058   | 0.036137   |   0.0 |  0.00
Modify  | 8.5651     | 8.608      | 8.6508     |   1.5 |  0.98
Other   |            | 2.38       |            |       |  0.27

Nlocal:    9826 ave 9826 max 9826 min
Histogram: 2 0 0 0 0 0 0 0 0 0
Nghost:    11414 ave 11417 max 11411 min
Histogram: 1 0 0 0 0 0 0 0 0 1
Neighs:    554591 ave 559994 max 549188 min
Histogram: 1 0 0 0 0 0 0 0 0 1

Total # of neighbors = 1109182
Ave neighs/atom = 56.4412
Neighbor list builds = 9505
Dangerous builds not checked
Setting up Verlet run ...
  Unit style    : metal
  Current step  : 60000
  Time step     : 0.001
Per MPI rank memory allocation (min/avg/max) = 11.32 | 11.32 | 11.32 Mbytes
Step Temp Press TotEng PotEng Enthalpy 
   60000    2365.0773   -402.20099   -50935.565   -56943.077   -51047.247 
   60495    2312.6402    1070.1228   -51182.861   -57057.177   -50888.053 
Loop time of 41.1322 on 2 procs for 495 steps with 19652 atoms

Performance: 1.040 ns/day, 23.082 hours/ns, 12.034 timesteps/s
99.9% CPU use with 2 MPI tasks x no OpenMP threads

MPI task timing breakdown:
Section |  min time  |  avg time  |  max time  |%varavg| %total
---------------------------------------------------------------
Pair    | 21.766     | 21.905     | 22.044     |   3.0 | 53.26
Neigh   | 16.728     | 16.969     | 17.21      |   5.8 | 41.25
Comm    | 1.3236     | 1.7101     | 2.0966     |  29.6 |  4.16
Output  | 0.0001061  | 0.0001595  | 0.00021291 |   0.0 |  0.00
Modify  | 0.42618    | 0.43125    | 0.43632    |   0.8 |  1.05
Other   |            | 0.1167     |            |       |  0.28

Nlocal:    9826 ave 9876 max 9776 min
Histogram: 1 0 0 0 0 0 0 0 0 1
Nghost:    11475 ave 11478 max 11472 min
Histogram: 1 0 0 0 0 0 0 0 0 1
Neighs:    559178 ave 569014 max 549342 min
Histogram: 1 0 0 0 0 0 0 0 0 1

Total # of neighbors = 1118356
Ave neighs/atom = 56.908
Neighbor list builds = 495
Dangerous builds not checked
Setting up Verlet run ...
  Unit style    : metal
  Current step  : 60495
  Time step     : 0.001
Per MPI rank memory allocation (min/avg/max) = 11.32 | 11.32 | 11.32 Mbytes
Step Temp Press TotEng PotEng Enthalpy 
   60495    2312.6402    1070.1228   -51182.861   -57057.177   -50888.053 
   70000    2297.4817   -601.10129   -51220.121   -57055.934   -51386.224 
Loop time of 847.468 on 2 procs for 9505 steps with 19652 atoms

Performance: 0.969 ns/day, 24.767 hours/ns, 11.216 timesteps/s
99.6% CPU use with 2 MPI tasks x no OpenMP threads

MPI task timing breakdown:
Section |  min time  |  avg time  |  max time  |%varavg| %total
---------------------------------------------------------------
Pair    | 450.45     | 453.9      | 457.35     |  16.2 | 53.56
Neigh   | 346.67     | 347.48     | 348.3      |   4.4 | 41.00
Comm    | 31.1       | 35.37      | 39.641     |  71.8 |  4.17
Output  | 0.035971   | 0.035997   | 0.036024   |   0.0 |  0.00
Modify  | 8.3723     | 8.3843     | 8.3963     |   0.4 |  0.99
Other   |            | 2.297      |            |       |  0.27

Nlocal:    9826 ave 9865 max 9787 min
Histogram: 1 0 0 0 0 0 0 0 0 1
Nghost:    11405.5 ave 11408 max 11403 min
Histogram: 1 0 0 0 0 0 0 0 0 1
Neighs:    557459 ave 566855 max 548063 min
Histogram: 1 0 0 0 0 0 0 0 0 1

Total # of neighbors = 1114918
Ave neighs/atom = 56.7331
Neighbor list builds = 9505
Dangerous builds not checked
Setting up Verlet run ...
  Unit style    : metal
  Current step  : 70000
  Time step     : 0.001
Per MPI rank memory allocation (min/avg/max) = 11.33 | 11.33 | 11.33 Mbytes
Step Temp Press TotEng PotEng Enthalpy 
   70000    2297.4817   -601.10129   -51220.121   -57055.934   -51386.224 
   70495    2248.3434    878.28137   -51487.979   -57198.976   -51247.268 
Loop time of 41.8246 on 2 procs for 495 steps with 19652 atoms

Performance: 1.023 ns/day, 23.471 hours/ns, 11.835 timesteps/s
99.8% CPU use with 2 MPI tasks x no OpenMP threads

MPI task timing breakdown:
Section |  min time  |  avg time  |  max time  |%varavg| %total
---------------------------------------------------------------
Pair    | 22.327     | 22.387     | 22.447     |   1.3 | 53.53
Neigh   | 16.982     | 17.081     | 17.18      |   2.4 | 40.84
Comm    | 1.6378     | 1.7984     | 1.9591     |  12.0 |  4.30
Output  | 9.5844e-05 | 0.00012648 | 0.00015712 |   0.0 |  0.00
Modify  | 0.438      | 0.4392     | 0.4404     |   0.2 |  1.05
Other   |            | 0.1192     |            |       |  0.28

Nlocal:    9826 ave 9826 max 9826 min
Histogram: 2 0 0 0 0 0 0 0 0 0
Nghost:    11424 ave 11444 max 11404 min
Histogram: 1 0 0 0 0 0 0 0 0 1
Neighs:    562196 ave 566287 max 558106 min
Histogram: 1 0 0 0 0 0 0 0 0 1

Total # of neighbors = 1124393
Ave neighs/atom = 57.2152
Neighbor list builds = 495
Dangerous builds not checked
Setting up Verlet run ...
  Unit style    : metal
  Current step  : 70495
  Time step     : 0.001
Per MPI rank memory allocation (min/avg/max) = 11.33 | 11.33 | 11.33 Mbytes
Step Temp Press TotEng PotEng Enthalpy 
   70495    2248.3434    878.28137   -51487.979   -57198.976   -51247.268 
   80000    2234.9268    49.113773   -51566.986   -57243.904   -51553.527 
Loop time of 891.368 on 2 procs for 9505 steps with 19652 atoms

Performance: 0.921 ns/day, 26.050 hours/ns, 10.663 timesteps/s
99.3% CPU use with 2 MPI tasks x no OpenMP threads

MPI task timing breakdown:
Section |  min time  |  avg time  |  max time  |%varavg| %total
---------------------------------------------------------------
Pair    | 476.74     | 482.91     | 489.08     |  28.1 | 54.18
Neigh   | 357.59     | 357.71     | 357.82     |   0.6 | 40.13
Comm    | 32.269     | 38.32      | 44.372     |  97.8 |  4.30
Output  | 0.035903   | 0.036026   | 0.036148   |   0.1 |  0.00
Modify  | 9.9281     | 9.939      | 9.9499     |   0.3 |  1.12
Other   |            | 2.456      |            |       |  0.28

Nlocal:    9826 ave 9847 max 9805 min
Histogram: 1 0 0 0 0 0 0 0 0 1
Nghost:    11467.5 ave 11496 max 11439 min
Histogram: 1 0 0 0 0 0 0 0 0 1
Neighs:    562277 ave 569733 max 554821 min
Histogram: 1 0 0 0 0 0 0 0 0 1

Total # of neighbors = 1124554
Ave neighs/atom = 57.2234
Neighbor list builds = 9505
Dangerous builds not checked
Setting up Verlet run ...
  Unit style    : metal
  Current step  : 80000
  Time step     : 0.001
Per MPI rank memory allocation (min/avg/max) = 11.33 | 11.33 | 11.33 Mbytes
Step Temp Press TotEng PotEng Enthalpy 
   80000    2234.9268    49.113773   -51566.986   -57243.904   -51553.527 
   80495    2196.4021   -133.41905   -51654.002   -57233.063   -51690.569 
Loop time of 44.4222 on 2 procs for 495 steps with 19652 atoms

Performance: 0.963 ns/day, 24.928 hours/ns, 11.143 timesteps/s
99.4% CPU use with 2 MPI tasks x no OpenMP threads

MPI task timing breakdown:
Section |  min time  |  avg time  |  max time  |%varavg| %total
---------------------------------------------------------------
Pair    | 23.998     | 24.182     | 24.366     |   3.7 | 54.44
Neigh   | 17.922     | 18.001     | 18.08      |   1.9 | 40.52
Comm    | 1.5362     | 1.6445     | 1.7529     |   8.4 |  3.70
Output  | 8.7976e-05 | 0.00013399 | 0.00018001 |   0.0 |  0.00
Modify  | 0.45872    | 0.46155    | 0.46438    |   0.4 |  1.04
Other   |            | 0.133      |            |       |  0.30

Nlocal:    9826 ave 9835 max 9817 min
Histogram: 1 0 0 0 0 0 0 0 0 1
Nghost:    11446.5 ave 11450 max 11443 min
Histogram: 1 0 0 0 0 0 0 0 0 1
Neighs:    562308 ave 567944 max 556672 min
Histogram: 1 0 0 0 0 0 0 0 0 1

Total # of neighbors = 1124616
Ave neighs/atom = 57.2265
Neighbor list builds = 495
Dangerous builds not checked
Setting up Verlet run ...
  Unit style    : metal
  Current step  : 80495
  Time step     : 0.001
Per MPI rank memory allocation (min/avg/max) = 11.33 | 11.33 | 11.33 Mbytes
Step Temp Press TotEng PotEng Enthalpy 
   80495    2196.4021   -133.41905   -51654.002   -57233.063   -51690.569 
   90000    2197.1294    1018.2197    -51762.46   -57343.369   -51484.922 
Loop time of 892.315 on 2 procs for 9505 steps with 19652 atoms

Performance: 0.920 ns/day, 26.077 hours/ns, 10.652 timesteps/s
99.5% CPU use with 2 MPI tasks x no OpenMP threads

MPI task timing breakdown:
Section |  min time  |  avg time  |  max time  |%varavg| %total
---------------------------------------------------------------
Pair    | 481.16     | 486.4      | 491.64     |  23.7 | 54.51
Neigh   | 357.26     | 358.84     | 360.42     |   8.3 | 40.21
Comm    | 28.813     | 35.663     | 42.513     | 114.7 |  4.00
Output  | 0.039075   | 0.039105   | 0.039135   |   0.0 |  0.00
Modify  | 8.8236     | 8.8596     | 8.8957     |   1.2 |  0.99
Other   |            | 2.509      |            |       |  0.28

Nlocal:    9826 ave 9839 max 9813 min
Histogram: 1 0 0 0 0 0 0 0 0 1
Nghost:    11550.5 ave 11571 max 11530 min
Histogram: 1 0 0 0 0 0 0 0 0 1
Neighs:    565328 ave 571901 max 558755 min
Histogram: 1 0 0 0 0 0 0 0 0 1

Total # of neighbors = 1130656
Ave neighs/atom = 57.5339
Neighbor list builds = 9505
Dangerous builds not checked
Setting up Verlet run ...
  Unit style    : metal
  Current step  : 90000
  Time step     : 0.001
Per MPI rank memory allocation (min/avg/max) = 11.34 | 11.34 | 11.34 Mbytes
Step Temp Press TotEng PotEng Enthalpy 
   90000    2197.1294    1018.2197    -51762.46   -57343.369   -51484.922 
   90495    2157.3664    84.295984   -51930.474   -57410.381    -51907.52 
Loop time of 42.4699 on 2 procs for 495 steps with 19652 atoms

Performance: 1.007 ns/day, 23.833 hours/ns, 11.655 timesteps/s
99.9% CPU use with 2 MPI tasks x no OpenMP threads

MPI task timing breakdown:
Section |  min time  |  avg time  |  max time  |%varavg| %total
---------------------------------------------------------------
Pair    | 22.549     | 22.864     | 23.179     |   6.6 | 53.84
Neigh   | 17.155     | 17.348     | 17.541     |   4.6 | 40.85
Comm    | 1.5574     | 1.6763     | 1.7952     |   9.2 |  3.95
Output  | 0.00010085 | 0.00014603 | 0.00019121 |   0.0 |  0.00
Modify  | 0.45133    | 0.45256    | 0.45379    |   0.2 |  1.07
Other   |            | 0.1284     |            |       |  0.30

Nlocal:    9826 ave 9842 max 9810 min
Histogram: 1 0 0 0 0 0 0 0 0 1
Nghost:    11522 ave 11550 max 11494 min
Histogram: 1 0 0 0 0 0 0 0 0 1
Neighs:    565841 ave 572607 max 559075 min
Histogram: 1 0 0 0 0 0 0 0 0 1

Total # of neighbors = 1131682
Ave neighs/atom = 57.5861
Neighbor list builds = 495
Dangerous builds not checked
Setting up Verlet run ...
  Unit style    : metal
  Current step  : 90495
  Time step     : 0.001
Per MPI rank memory allocation (min/avg/max) = 11.34 | 11.34 | 11.34 Mbytes
Step Temp Press TotEng PotEng Enthalpy 
   90495    2157.3664    84.295984   -51930.474   -57410.381    -51907.52 
  100000     2167.409    806.88305   -52021.796   -57527.212   -51803.278 
Loop time of 888.335 on 2 procs for 9505 steps with 19652 atoms

Performance: 0.924 ns/day, 25.961 hours/ns, 10.700 timesteps/s
99.7% CPU use with 2 MPI tasks x no OpenMP threads

MPI task timing breakdown:
Section |  min time  |  avg time  |  max time  |%varavg| %total
---------------------------------------------------------------
Pair    | 477.38     | 483.45     | 489.52     |  27.6 | 54.42
Neigh   | 354.02     | 358.53     | 363.05     |  23.8 | 40.36
Comm    | 24.414     | 35.056     | 45.699     | 179.7 |  3.95
Output  | 0.038374   | 0.038422   | 0.03847    |   0.0 |  0.00
Modify  | 8.7302     | 8.7838     | 8.8374     |   1.8 |  0.99
Other   |            | 2.476      |            |       |  0.28

Nlocal:    9826 ave 9830 max 9822 min
Histogram: 1 0 0 0 0 0 0 0 0 1
Nghost:    11542 ave 11564 max 11520 min
Histogram: 1 0 0 0 0 0 0 0 0 1
Neighs:    569084 ave 573514 max 564654 min
Histogram: 1 0 0 0 0 0 0 0 0 1

Total # of neighbors = 1138168
Ave neighs/atom = 57.9161
Neighbor list builds = 9505
Dangerous builds not checked
Setting up Verlet run ...
  Unit style    : metal
  Current step  : 100000
  Time step     : 0.001
Per MPI rank memory allocation (min/avg/max) = 11.34 | 11.34 | 11.34 Mbytes
Step Temp Press TotEng PotEng Enthalpy 
  100000     2167.409    806.88305   -52021.796   -57527.212   -51803.278 
  100495    2116.0076    237.59066   -52182.426   -57557.279   -52118.101 
Loop time of 43.3829 on 2 procs for 495 steps with 19652 atoms

Performance: 0.986 ns/day, 24.345 hours/ns, 11.410 timesteps/s
99.9% CPU use with 2 MPI tasks x no OpenMP threads

MPI task timing breakdown:
Section |  min time  |  avg time  |  max time  |%varavg| %total
---------------------------------------------------------------
Pair    | 23.058     | 23.438     | 23.818     |   7.8 | 54.03
Neigh   | 17.618     | 17.651     | 17.684     |   0.8 | 40.69
Comm    | 1.3604     | 1.7073     | 2.0541     |  26.5 |  3.94
Output  | 0.0001061  | 0.0001545  | 0.00020289 |   0.0 |  0.00
Modify  | 0.45646    | 0.45688    | 0.4573     |   0.1 |  1.05
Other   |            | 0.1301     |            |       |  0.30

Nlocal:    9826 ave 9827 max 9825 min
Histogram: 1 0 0 0 0 0 0 0 0 1
Nghost:    11503.5 ave 11526 max 11481 min
Histogram: 1 0 0 0 0 0 0 0 0 1
Neighs:    569188 ave 575795 max 562580 min
Histogram: 1 0 0 0 0 0 0 0 0 1

Total # of neighbors = 1138375
Ave neighs/atom = 57.9267
Neighbor list builds = 495
Dangerous builds not checked
Setting up Verlet run ...
  Unit style    : metal
  Current step  : 100495
  Time step     : 0.001
Per MPI rank memory allocation (min/avg/max) = 11.34 | 11.34 | 11.34 Mbytes
Step Temp Press TotEng PotEng Enthalpy 
  100495    2116.0076    237.59066   -52182.426   -57557.279   -52118.101 
  110000    2083.1527    869.60285   -52344.316   -57635.713   -52109.821 
Loop time of 1008.88 on 2 procs for 9505 steps with 19652 atoms

Performance: 0.814 ns/day, 29.484 hours/ns, 9.421 timesteps/s
94.5% CPU use with 2 MPI tasks x no OpenMP threads

MPI task timing breakdown:
Section |  min time  |  avg time  |  max time  |%varavg| %total
---------------------------------------------------------------
Pair    | 548.88     | 553.48     | 558.08     |  19.5 | 54.86
Neigh   | 387.05     | 390.97     | 394.89     |  19.8 | 38.75
Comm    | 50.997     | 51.645     | 52.293     |   9.0 |  5.12
Output  | 0.04019    | 0.040251   | 0.040313   |   0.0 |  0.00
Modify  | 10.157     | 10.158     | 10.16      |   0.1 |  1.01
Other   |            | 2.587      |            |       |  0.26

Nlocal:    9826 ave 9827 max 9825 min
Histogram: 1 0 0 0 0 0 0 0 0 1
Nghost:    11554 ave 11571 max 11537 min
Histogram: 1 0 0 0 0 0 0 0 0 1
Neighs:    571506 ave 576933 max 566079 min
Histogram: 1 0 0 0 0 0 0 0 0 1

Total # of neighbors = 1143012
Ave neighs/atom = 58.1626
Neighbor list builds = 9505
Dangerous builds not checked
Setting up Verlet run ...
  Unit style    : metal
  Current step  : 110000
  Time step     : 0.001
Per MPI rank memory allocation (min/avg/max) = 11.34 | 11.34 | 11.34 Mbytes
Step Temp Press TotEng PotEng Enthalpy 
  110000    2083.1527    869.60285   -52344.316   -57635.713   -52109.821 
  110495    2065.9963   -472.19199   -52458.754   -57706.572     -52586.1 
Loop time of 53.3 on 2 procs for 495 steps with 19652 atoms

Performance: 0.802 ns/day, 29.910 hours/ns, 9.287 timesteps/s
88.7% CPU use with 2 MPI tasks x no OpenMP threads

MPI task timing breakdown:
Section |  min time  |  avg time  |  max time  |%varavg| %total
---------------------------------------------------------------
Pair    | 29.076     | 29.171     | 29.267     |   1.8 | 54.73
Neigh   | 20.175     | 20.574     | 20.973     |   8.8 | 38.60
Comm    | 2.5881     | 2.8869     | 3.1857     |  17.6 |  5.42
Output  | 0.00013614 | 0.00022256 | 0.00030899 |   0.0 |  0.00
Modify  | 0.53822    | 0.54169    | 0.54517    |   0.5 |  1.02
Other   |            | 0.1262     |            |       |  0.24

Nlocal:    9826 ave 9831 max 9821 min
Histogram: 1 0 0 0 0 0 0 0 0 1
Nghost:    11553.5 ave 11587 max 11520 min
Histogram: 1 0 0 0 0 0 0 0 0 1
Neighs:    571564 ave 576313 max 566816 min
Histogram: 1 0 0 0 0 0 0 0 0 1

Total # of neighbors = 1143129
Ave neighs/atom = 58.1686
Neighbor list builds = 495
Dangerous builds not checked
Setting up Verlet run ...
  Unit style    : metal
  Current step  : 110495
  Time step     : 0.001
Per MPI rank memory allocation (min/avg/max) = 11.34 | 11.34 | 11.34 Mbytes
Step Temp Press TotEng PotEng Enthalpy 
  110495    2065.9963   -472.19199   -52458.754   -57706.572     -52586.1 
  120000    2055.7213   -80.633748   -52508.615   -57730.335   -52530.318 
Loop time of 1055.69 on 2 procs for 9505 steps with 19652 atoms

Performance: 0.778 ns/day, 30.852 hours/ns, 9.004 timesteps/s
90.5% CPU use with 2 MPI tasks x no OpenMP threads

MPI task timing breakdown:
Section |  min time  |  avg time  |  max time  |%varavg| %total
---------------------------------------------------------------
Pair    | 576.5      | 579.99     | 583.48     |  14.5 | 54.94
Neigh   | 406.09     | 407.19     | 408.28     |   5.4 | 38.57
Comm    | 50.423     | 55.044     | 59.664     |  62.3 |  5.21
Output  | 0.059521   | 0.059564   | 0.059607   |   0.0 |  0.01
Modify  | 10.783     | 10.826     | 10.869     |   1.3 |  1.03
Other   |            | 2.587      |            |       |  0.25

Nlocal:    9826 ave 9844 max 9808 min
Histogram: 1 0 0 0 0 0 0 0 0 1
Nghost:    11546.5 ave 11580 max 11513 min
Histogram: 1 0 0 0 0 0 0 0 0 1
Neighs:    572572 ave 575900 max 569245 min
Histogram: 1 0 0 0 0 0 0 0 0 1

Total # of neighbors = 1145145
Ave neighs/atom = 58.2712
Neighbor list builds = 9505
Dangerous builds not checked
Setting up Verlet run ...
  Unit style    : metal
  Current step  : 120000
  Time step     : 0.001
Per MPI rank memory allocation (min/avg/max) = 11.35 | 11.35 | 11.35 Mbytes
Step Temp Press TotEng PotEng Enthalpy 
  120000    2055.7213   -80.633748   -52508.615   -57730.335   -52530.318 
  120495    2006.5034    401.43119   -52750.974   -57847.676   -52643.481 
Loop time of 54.5156 on 2 procs for 495 steps with 19652 atoms

Performance: 0.785 ns/day, 30.592 hours/ns, 9.080 timesteps/s
89.6% CPU use with 2 MPI tasks x no OpenMP threads

MPI task timing breakdown:
Section |  min time  |  avg time  |  max time  |%varavg| %total
---------------------------------------------------------------
Pair    | 29.242     | 29.6       | 29.959     |   6.6 | 54.30
Neigh   | 19.619     | 20.343     | 21.067     |  16.1 | 37.32
Comm    | 2.8078     | 3.8744     | 4.941      |  54.2 |  7.11
Output  | 0.0001061  | 0.00014114 | 0.00017619 |   0.0 |  0.00
Modify  | 0.54927    | 0.56333    | 0.57739    |   1.9 |  1.03
Other   |            | 0.1344     |            |       |  0.25

Nlocal:    9826 ave 9841 max 9811 min
Histogram: 1 0 0 0 0 0 0 0 0 1
Nghost:    11561.5 ave 11565 max 11558 min
Histogram: 1 0 0 0 0 0 0 0 0 1
Neighs:    575556 ave 581878 max 569233 min
Histogram: 1 0 0 0 0 0 0 0 0 1

Total # of neighbors = 1151111
Ave neighs/atom = 58.5748
Neighbor list builds = 495
Dangerous builds not checked
Setting up Verlet run ...
  Unit style    : metal
  Current step  : 120495
  Time step     : 0.001
Per MPI rank memory allocation (min/avg/max) = 11.35 | 11.35 | 11.35 Mbytes
Step Temp Press TotEng PotEng Enthalpy 
  120495    2006.5034    401.43119   -52750.974   -57847.676   -52643.481 
  130000    2009.4406   -148.59116   -52837.944   -57942.106   -52877.654 
Loop time of 1049.98 on 2 procs for 9505 steps with 19652 atoms

Performance: 0.782 ns/day, 30.685 hours/ns, 9.053 timesteps/s
90.4% CPU use with 2 MPI tasks x no OpenMP threads

MPI task timing breakdown:
Section |  min time  |  avg time  |  max time  |%varavg| %total
---------------------------------------------------------------
Pair    | 571.99     | 577.06     | 582.13     |  21.1 | 54.96
Neigh   | 401.14     | 402.43     | 403.71     |   6.4 | 38.33
Comm    | 50.877     | 57.202     | 63.527     |  83.6 |  5.45
Output  | 0.039629   | 0.039751   | 0.039873   |   0.1 |  0.00
Modify  | 10.638     | 10.64      | 10.641     |   0.0 |  1.01
Other   |            | 2.613      |            |       |  0.25

Nlocal:    9826 ave 9828 max 9824 min
Histogram: 1 0 0 0 0 0 0 0 0 1
Nghost:    11554.5 ave 11561 max 11548 min
Histogram: 1 0 0 0 0 0 0 0 0 1
Neighs:    576734 ave 582159 max 571310 min
Histogram: 1 0 0 0 0 0 0 0 0 1

Total # of neighbors = 1153469
Ave neighs/atom = 58.6947
Neighbor list builds = 9505
Dangerous builds not checked
Setting up Verlet run ...
  Unit style    : metal
  Current step  : 130000
  Time step     : 0.001
Per MPI rank memory allocation (min/avg/max) = 11.35 | 11.35 | 11.35 Mbytes
Step Temp Press TotEng PotEng Enthalpy 
  130000    2009.4406   -148.59116   -52837.944   -57942.106   -52877.654 
  130495      1970.88   -277.14914   -52988.673   -57994.888   -53062.587 
Loop time of 51.8562 on 2 procs for 495 steps with 19652 atoms

Performance: 0.825 ns/day, 29.100 hours/ns, 9.546 timesteps/s
90.5% CPU use with 2 MPI tasks x no OpenMP threads

MPI task timing breakdown:
Section |  min time  |  avg time  |  max time  |%varavg| %total
---------------------------------------------------------------
Pair    | 28.412     | 28.455     | 28.499     |   0.8 | 54.87
Neigh   | 19.782     | 20.112     | 20.443     |   7.4 | 38.79
Comm    | 2.3104     | 2.6116     | 2.9128     |  18.6 |  5.04
Output  | 0.00010514 | 0.00013614 | 0.00016713 |   0.0 |  0.00
Modify  | 0.53072    | 0.53344    | 0.53615    |   0.4 |  1.03
Other   |            | 0.1431     |            |       |  0.28

Nlocal:    9826 ave 9856 max 9796 min
Histogram: 1 0 0 0 0 0 0 0 0 1
Nghost:    11585.5 ave 11630 max 11541 min
Histogram: 1 0 0 0 0 0 0 0 0 1
Neighs:    577956 ave 585254 max 570657 min
Histogram: 1 0 0 0 0 0 0 0 0 1

Total # of neighbors = 1155911
Ave neighs/atom = 58.819
Neighbor list builds = 495
Dangerous builds not checked
Setting up Verlet run ...
  Unit style    : metal
  Current step  : 130495
  Time step     : 0.001
Per MPI rank memory allocation (min/avg/max) = 11.35 | 11.35 | 11.35 Mbytes
Step Temp Press TotEng PotEng Enthalpy 
  130495      1970.88   -277.14914   -52988.673   -57994.888   -53062.587 
  140000     1949.578   -124.66714   -53129.119   -58081.224   -53162.272 
Loop time of 969.181 on 2 procs for 9505 steps with 19652 atoms

Performance: 0.847 ns/day, 28.324 hours/ns, 9.807 timesteps/s
94.3% CPU use with 2 MPI tasks x no OpenMP threads

MPI task timing breakdown:
Section |  min time  |  avg time  |  max time  |%varavg| %total
---------------------------------------------------------------
Pair    | 528.59     | 531.82     | 535.04     |  14.0 | 54.87
Neigh   | 380.03     | 380.52     | 381.01     |   2.5 | 39.26
Comm    | 41.033     | 44.768     | 48.503     |  55.8 |  4.62
Output  | 0.038978   | 0.039022   | 0.039066   |   0.0 |  0.00
Modify  | 9.5471     | 9.5733     | 9.5996     |   0.8 |  0.99
Other   |            | 2.464      |            |       |  0.25

Nlocal:    9826 ave 9841 max 9811 min
Histogram: 1 0 0 0 0 0 0 0 0 1
Nghost:    11558 ave 11575 max 11541 min
Histogram: 1 0 0 0 0 0 0 0 0 1
Neighs:    579820 ave 587904 max 571736 min
Histogram: 1 0 0 0 0 0 0 0 0 1

Total # of neighbors = 1159640
Ave neighs/atom = 59.0088
Neighbor list builds = 9505
Dangerous builds not checked
Setting up Verlet run ...
  Unit style    : metal
  Current step  : 140000
  Time step     : 0.001
Per MPI rank memory allocation (min/avg/max) = 11.35 | 11.35 | 11.35 Mbytes
Step Temp Press TotEng PotEng Enthalpy 
  140000     1949.578   -124.66714   -53129.119   -58081.224   -53162.272 
  140495    1912.6889    38.163734   -53270.028   -58128.432   -53259.898 
Loop time of 48.2924 on 2 procs for 495 steps with 19652 atoms

Performance: 0.886 ns/day, 27.100 hours/ns, 10.250 timesteps/s
95.0% CPU use with 2 MPI tasks x no OpenMP threads

MPI task timing breakdown:
Section |  min time  |  avg time  |  max time  |%varavg| %total
---------------------------------------------------------------
Pair    | 26.344     | 26.371     | 26.399     |   0.5 | 54.61
Neigh   | 18.783     | 19.08      | 19.378     |   6.8 | 39.51
Comm    | 1.9301     | 2.2094     | 2.4888     |  18.8 |  4.58
Output  | 0.00030899 | 0.00045609 | 0.0006032  |   0.0 |  0.00
Modify  | 0.49939    | 0.5033     | 0.50721    |   0.6 |  1.04
Other   |            | 0.1278     |            |       |  0.26

Nlocal:    9826 ave 9836 max 9816 min
Histogram: 1 0 0 0 0 0 0 0 0 1
Nghost:    11628 ave 11633 max 11623 min
Histogram: 1 0 0 0 0 0 0 0 0 1
Neighs:    580895 ave 584961 max 576829 min
Histogram: 1 0 0 0 0 0 0 0 0 1

Total # of neighbors = 1161790
Ave neighs/atom = 59.1182
Neighbor list builds = 495
Dangerous builds not checked
Setting up Verlet run ...
  Unit style    : metal
  Current step  : 140495
  Time step     : 0.001
Per MPI rank memory allocation (min/avg/max) = 11.35 | 11.35 | 11.35 Mbytes
Step Temp Press TotEng PotEng Enthalpy 
  140495    1912.6889    38.163734   -53270.028   -58128.432   -53259.898 
  150000    1907.1501   -1245.6505   -53296.959   -58141.293   -53628.008 
Loop time of 914.752 on 2 procs for 9505 steps with 19652 atoms

Performance: 0.898 ns/day, 26.733 hours/ns, 10.391 timesteps/s
97.9% CPU use with 2 MPI tasks x no OpenMP threads

MPI task timing breakdown:
Section |  min time  |  avg time  |  max time  |%varavg| %total
---------------------------------------------------------------
Pair    | 496.15     | 500.95     | 505.75     |  21.4 | 54.76
Neigh   | 362.37     | 363.42     | 364.46     |   5.5 | 39.73
Comm    | 35.2       | 38.936     | 42.672     |  59.9 |  4.26
Output  | 0.038634   | 0.038708   | 0.038782   |   0.0 |  0.00
Modify  | 8.9574     | 8.9775     | 8.9975     |   0.7 |  0.98
Other   |            | 2.432      |            |       |  0.27

Nlocal:    9826 ave 9848 max 9804 min
Histogram: 1 0 0 0 0 0 0 0 0 1
Nghost:    11577.5 ave 11583 max 11572 min
Histogram: 1 0 0 0 0 0 0 0 0 1
Neighs:    580260 ave 583587 max 576934 min
Histogram: 1 0 0 0 0 0 0 0 0 1

Total # of neighbors = 1160521
Ave neighs/atom = 59.0536
Neighbor list builds = 9505
Dangerous builds not checked
Setting up Verlet run ...
  Unit style    : metal
  Current step  : 150000
  Time step     : 0.001
Per MPI rank memory allocation (min/avg/max) = 11.35 | 11.35 | 11.35 Mbytes
Step Temp Press TotEng PotEng Enthalpy 
  150000    1907.1501   -1245.6505   -53296.959   -58141.293   -53628.008 
  150495    1858.6674   -330.58479     -53539.3   -58260.485   -53626.579 
Loop time of 44.0512 on 2 procs for 495 steps with 19652 atoms

Performance: 0.971 ns/day, 24.720 hours/ns, 11.237 timesteps/s
99.1% CPU use with 2 MPI tasks x no OpenMP threads

MPI task timing breakdown:
Section |  min time  |  avg time  |  max time  |%varavg| %total
---------------------------------------------------------------
Pair    | 23.654     | 23.736     | 23.819     |   1.7 | 53.88
Neigh   | 17.641     | 17.685     | 17.73      |   1.1 | 40.15
Comm    | 1.9017     | 2.0282     | 2.1547     |   8.9 |  4.60
Output  | 0.00016689 | 0.00026536 | 0.00036383 |   0.0 |  0.00
Modify  | 0.46721    | 0.46752    | 0.46782    |   0.0 |  1.06
Other   |            | 0.1337     |            |       |  0.30

Nlocal:    9826 ave 9868 max 9784 min
Histogram: 1 0 0 0 0 0 0 0 0 1
Nghost:    11726 ave 11751 max 11701 min
Histogram: 1 0 0 0 0 0 0 0 0 1
Neighs:    584236 ave 593374 max 575099 min
Histogram: 1 0 0 0 0 0 0 0 0 1

Total # of neighbors = 1168473
Ave neighs/atom = 59.4582
Neighbor list builds = 495
Dangerous builds not checked
Setting up Verlet run ...
  Unit style    : metal
  Current step  : 150495
  Time step     : 0.001
Per MPI rank memory allocation (min/avg/max) = 11.35 | 11.35 | 11.35 Mbytes
Step Temp Press TotEng PotEng Enthalpy 
  150495    1858.6674   -330.58479     -53539.3   -58260.485   -53626.579 
  160000    1850.1069    158.56136   -53561.138   -58260.578   -53519.321 
Loop time of 881.681 on 2 procs for 9505 steps with 19652 atoms

Performance: 0.931 ns/day, 25.767 hours/ns, 10.781 timesteps/s
99.5% CPU use with 2 MPI tasks x no OpenMP threads

MPI task timing breakdown:
Section |  min time  |  avg time  |  max time  |%varavg| %total
---------------------------------------------------------------
Pair    | 481.97     | 483.7      | 485.43     |   7.9 | 54.86
Neigh   | 350.49     | 352.92     | 355.34     |  12.9 | 40.03
Comm    | 29.61      | 33.79      | 37.97      |  71.9 |  3.83
Output  | 0.037752   | 0.037869   | 0.037986   |   0.1 |  0.00
Modify  | 8.7309     | 8.7615     | 8.7921     |   1.0 |  0.99
Other   |            | 2.477      |            |       |  0.28

Nlocal:    9826 ave 9828 max 9824 min
Histogram: 1 0 0 0 0 0 0 0 0 1
Nghost:    11695 ave 11726 max 11664 min
Histogram: 1 0 0 0 0 0 0 0 0 1
Neighs:    584686 ave 591269 max 578104 min
Histogram: 1 0 0 0 0 0 0 0 0 1

Total # of neighbors = 1169373
Ave neighs/atom = 59.504
Neighbor list builds = 9505
Dangerous builds not checked
Setting up Verlet run ...
  Unit style    : metal
  Current step  : 160000
  Time step     : 0.001
Per MPI rank memory allocation (min/avg/max) = 11.35 | 11.35 | 11.35 Mbytes
Step Temp Press TotEng PotEng Enthalpy 
  160000    1850.1069    158.56136   -53561.138   -58260.578   -53519.321 
  160495    1813.5312    101.44028    -53780.56   -58387.094   -53753.911 
Loop time of 42.8242 on 2 procs for 495 steps with 19652 atoms

Performance: 0.999 ns/day, 24.032 hours/ns, 11.559 timesteps/s
99.9% CPU use with 2 MPI tasks x no OpenMP threads

MPI task timing breakdown:
Section |  min time  |  avg time  |  max time  |%varavg| %total
---------------------------------------------------------------
Pair    | 22.931     | 23.223     | 23.515     |   6.1 | 54.23
Neigh   | 17.374     | 17.441     | 17.507     |   1.6 | 40.73
Comm    | 1.3558     | 1.5798     | 1.8038     |  17.8 |  3.69
Output  | 9.2983e-05 | 0.00014949 | 0.00020599 |   0.0 |  0.00
Modify  | 0.45277    | 0.45309    | 0.45341    |   0.0 |  1.06
Other   |            | 0.1276     |            |       |  0.30

Nlocal:    9826 ave 9854 max 9798 min
Histogram: 1 0 0 0 0 0 0 0 0 1
Nghost:    11687 ave 11701 max 11673 min
Histogram: 1 0 0 0 0 0 0 0 0 1
Neighs:    587326 ave 595576 max 579075 min
Histogram: 1 0 0 0 0 0 0 0 0 1

Total # of neighbors = 1174651
Ave neighs/atom = 59.7726
Neighbor list builds = 495
Dangerous builds not checked
Setting up Verlet run ...
  Unit style    : metal
  Current step  : 160495
  Time step     : 0.001
Per MPI rank memory allocation (min/avg/max) = 11.35 | 11.35 | 11.35 Mbytes
Step Temp Press TotEng PotEng Enthalpy 
  160495    1813.5312    101.44028    -53780.56   -58387.094   -53753.911 
  170000    1806.3438   -289.42909   -53874.303   -58462.581   -53950.164 
Loop time of 895.279 on 2 procs for 9505 steps with 19652 atoms

Performance: 0.917 ns/day, 26.164 hours/ns, 10.617 timesteps/s
99.2% CPU use with 2 MPI tasks x no OpenMP threads

MPI task timing breakdown:
Section |  min time  |  avg time  |  max time  |%varavg| %total
---------------------------------------------------------------
Pair    | 490.84     | 493.54     | 496.23     |  12.1 | 55.13
Neigh   | 353.31     | 355.89     | 358.46     |  13.6 | 39.75
Comm    | 29.095     | 34.389     | 39.683     |  90.3 |  3.84
Output  | 0.038557   | 0.038659   | 0.03876    |   0.1 |  0.00
Modify  | 8.8701     | 8.8961     | 8.9222     |   0.9 |  0.99
Other   |            | 2.532      |            |       |  0.28

Nlocal:    9826 ave 9832 max 9820 min
Histogram: 1 0 0 0 0 0 0 0 0 1
Nghost:    11695.5 ave 11698 max 11693 min
Histogram: 1 0 0 0 0 0 0 0 0 1
Neighs:    588736 ave 593317 max 584154 min
Histogram: 1 0 0 0 0 0 0 0 0 1

Total # of neighbors = 1177471
Ave neighs/atom = 59.9161
Neighbor list builds = 9505
Dangerous builds not checked
Setting up Verlet run ...
  Unit style    : metal
  Current step  : 170000
  Time step     : 0.001
Per MPI rank memory allocation (min/avg/max) = 11.35 | 11.35 | 11.35 Mbytes
Step Temp Press TotEng PotEng Enthalpy 
  170000    1806.3438   -289.42909   -53874.303   -58462.581   -53950.164 
  170495    1761.3409    1105.8331   -54085.389   -58559.356   -53797.229 
Loop time of 46.0265 on 2 procs for 495 steps with 19652 atoms

Performance: 0.929 ns/day, 25.829 hours/ns, 10.755 timesteps/s
99.3% CPU use with 2 MPI tasks x no OpenMP threads

MPI task timing breakdown:
Section |  min time  |  avg time  |  max time  |%varavg| %total
---------------------------------------------------------------
Pair    | 25.081     | 25.364     | 25.647     |   5.6 | 55.11
Neigh   | 18.11      | 18.376     | 18.642     |   6.2 | 39.92
Comm    | 1.1174     | 1.6701     | 2.2229     |  42.8 |  3.63
Output  | 0.00012803 | 0.00026608 | 0.00040412 |   0.0 |  0.00
Modify  | 0.47592    | 0.47923    | 0.48254    |   0.5 |  1.04
Other   |            | 0.137      |            |       |  0.30

Nlocal:    9826 ave 9857 max 9795 min
Histogram: 1 0 0 0 0 0 0 0 0 1
Nghost:    11723 ave 11738 max 11708 min
Histogram: 1 0 0 0 0 0 0 0 0 1
Neighs:    592010 ave 601051 max 582970 min
Histogram: 1 0 0 0 0 0 0 0 0 1

Total # of neighbors = 1184021
Ave neighs/atom = 60.2494
Neighbor list builds = 495
Dangerous builds not checked
Setting up Verlet run ...
  Unit style    : metal
  Current step  : 170495
  Time step     : 0.001
Per MPI rank memory allocation (min/avg/max) = 11.35 | 11.35 | 11.35 Mbytes
Step Temp Press TotEng PotEng Enthalpy 
  170495    1761.3409    1105.8331   -54085.389   -58559.356   -53797.229 
  180000    1762.0695   -5.0584554   -54086.186   -58562.003   -54087.506 
Loop time of 911.927 on 2 procs for 9505 steps with 19652 atoms

Performance: 0.901 ns/day, 26.651 hours/ns, 10.423 timesteps/s
99.1% CPU use with 2 MPI tasks x no OpenMP threads

MPI task timing breakdown:
Section |  min time  |  avg time  |  max time  |%varavg| %total
---------------------------------------------------------------
Pair    | 500.18     | 504.09     | 507.99     |  17.4 | 55.28
Neigh   | 363.17     | 363.98     | 364.79     |   4.2 | 39.91
Comm    | 27.411     | 32.133     | 36.856     |  83.3 |  3.52
Output  | 0.042414   | 0.042524   | 0.042635   |   0.1 |  0.00
Modify  | 9.0654     | 9.0742     | 9.083      |   0.3 |  1.00
Other   |            | 2.615      |            |       |  0.29

Nlocal:    9826 ave 9842 max 9810 min
Histogram: 1 0 0 0 0 0 0 0 0 1
Nghost:    11730.5 ave 11741 max 11720 min
Histogram: 1 0 0 0 0 0 0 0 0 1
Neighs:    591218 ave 597909 max 584526 min
Histogram: 1 0 0 0 0 0 0 0 0 1

Total # of neighbors = 1182435
Ave neighs/atom = 60.1687
Neighbor list builds = 9505
Dangerous builds not checked
Setting up Verlet run ...
  Unit style    : metal
  Current step  : 180000
  Time step     : 0.001
Per MPI rank memory allocation (min/avg/max) = 11.35 | 11.35 | 11.35 Mbytes
Step Temp Press TotEng PotEng Enthalpy 
  180000    1762.0695   -5.0584554   -54086.186   -58562.003   -54087.506 
  180495    1712.0086     500.1418    -54316.08   -58664.738    -54186.12 
Loop time of 44.8967 on 2 procs for 495 steps with 19652 atoms

Performance: 0.953 ns/day, 25.195 hours/ns, 11.025 timesteps/s
98.9% CPU use with 2 MPI tasks x no OpenMP threads

MPI task timing breakdown:
Section |  min time  |  avg time  |  max time  |%varavg| %total
---------------------------------------------------------------
Pair    | 24.533     | 24.746     | 24.958     |   4.3 | 55.12
Neigh   | 17.831     | 17.85      | 17.87      |   0.5 | 39.76
Comm    | 1.4622     | 1.6939     | 1.9256     |  17.8 |  3.77
Output  | 9.2983e-05 | 0.00019705 | 0.00030112 |   0.0 |  0.00
Modify  | 0.46962    | 0.47015    | 0.47067    |   0.1 |  1.05
Other   |            | 0.1367     |            |       |  0.30

Nlocal:    9826 ave 9844 max 9808 min
Histogram: 1 0 0 0 0 0 0 0 0 1
Nghost:    11776 ave 11811 max 11741 min
Histogram: 1 0 0 0 0 0 0 0 0 1
Neighs:    593648 ave 600719 max 586576 min
Histogram: 1 0 0 0 0 0 0 0 0 1

Total # of neighbors = 1187295
Ave neighs/atom = 60.416
Neighbor list builds = 495
Dangerous builds not checked
Setting up Verlet run ...
  Unit style    : metal
  Current step  : 180495
  Time step     : 0.001
Per MPI rank memory allocation (min/avg/max) = 11.35 | 11.35 | 11.35 Mbytes
Step Temp Press TotEng PotEng Enthalpy 
  180495    1712.0086     500.1418    -54316.08   -58664.738    -54186.12 
  190000     1679.615   -330.91224   -54507.149   -58773.524   -54592.872 
Loop time of 912.066 on 2 procs for 9505 steps with 19652 atoms

Performance: 0.900 ns/day, 26.655 hours/ns, 10.421 timesteps/s
98.9% CPU use with 2 MPI tasks x no OpenMP threads

MPI task timing breakdown:
Section |  min time  |  avg time  |  max time  |%varavg| %total
---------------------------------------------------------------
Pair    | 496.32     | 499.77     | 503.22     |  15.4 | 54.80
Neigh   | 358.93     | 360.44     | 361.96     |   8.0 | 39.52
Comm    | 33.37      | 38.94      | 44.509     |  89.3 |  4.27
Output  | 0.037603   | 0.037644   | 0.037685   |   0.0 |  0.00
Modify  | 9.6726     | 10.278     | 10.884     |  18.9 |  1.13
Other   |            | 2.597      |            |       |  0.28

Nlocal:    9826 ave 9830 max 9822 min
Histogram: 1 0 0 0 0 0 0 0 0 1
Nghost:    11739.5 ave 11742 max 11737 min
Histogram: 1 0 0 0 0 0 0 0 0 1
Neighs:    595556 ave 602325 max 588787 min
Histogram: 1 0 0 0 0 0 0 0 0 1

Total # of neighbors = 1191112
Ave neighs/atom = 60.6102
Neighbor list builds = 9505
Dangerous builds not checked
Setting up Verlet run ...
  Unit style    : metal
  Current step  : 190000
  Time step     : 0.001
Per MPI rank memory allocation (min/avg/max) = 11.35 | 11.35 | 11.35 Mbytes
Step Temp Press TotEng PotEng Enthalpy 
  190000     1679.615   -330.91224   -54507.149   -58773.524   -54592.872 
  190495    1665.1392   -333.09143   -54613.746   -58843.352   -54699.869 
Loop time of 46.102 on 2 procs for 495 steps with 19652 atoms

Performance: 0.928 ns/day, 25.871 hours/ns, 10.737 timesteps/s
98.2% CPU use with 2 MPI tasks x no OpenMP threads

MPI task timing breakdown:
Section |  min time  |  avg time  |  max time  |%varavg| %total
---------------------------------------------------------------
Pair    | 24.712     | 25.021     | 25.329     |   6.2 | 54.27
Neigh   | 18.351     | 18.387     | 18.424     |   0.8 | 39.88
Comm    | 1.7965     | 2.0733     | 2.3502     |  19.2 |  4.50
Output  | 8.2016e-05 | 0.00013602 | 0.00019002 |   0.0 |  0.00
Modify  | 0.47777    | 0.4813     | 0.48483    |   0.5 |  1.04
Other   |            | 0.1392     |            |       |  0.30

Nlocal:    9826 ave 9843 max 9809 min
Histogram: 1 0 0 0 0 0 0 0 0 1
Nghost:    11799 ave 11807 max 11791 min
Histogram: 1 0 0 0 0 0 0 0 0 1
Neighs:    596870 ave 600935 max 592805 min
Histogram: 1 0 0 0 0 0 0 0 0 1

Total # of neighbors = 1193740
Ave neighs/atom = 60.7439
Neighbor list builds = 495
Dangerous builds not checked
Setting up Verlet run ...
  Unit style    : metal
  Current step  : 190495
  Time step     : 0.001
Per MPI rank memory allocation (min/avg/max) = 11.35 | 11.35 | 11.35 Mbytes
Step Temp Press TotEng PotEng Enthalpy 
  190495    1665.1392   -333.09143   -54613.746   -58843.352   -54699.869 
  200000    1646.8369   -80.565459   -54703.278   -58886.394   -54724.058 
Loop time of 941.705 on 2 procs for 9505 steps with 19652 atoms

Performance: 0.872 ns/day, 27.521 hours/ns, 10.093 timesteps/s
98.2% CPU use with 2 MPI tasks x no OpenMP threads

MPI task timing breakdown:
Section |  min time  |  avg time  |  max time  |%varavg| %total
---------------------------------------------------------------
Pair    | 518.49     | 520.42     | 522.35     |   8.5 | 55.26
Neigh   | 365.45     | 369.36     | 373.28     |  20.4 | 39.22
Comm    | 34.125     | 40.013     | 45.9       |  93.1 |  4.25
Output  | 0.039272   | 0.039331   | 0.039391   |   0.0 |  0.00
Modify  | 9.2015     | 9.2351     | 9.2686     |   1.1 |  0.98
Other   |            | 2.635      |            |       |  0.28

Nlocal:    9826 ave 9859 max 9793 min
Histogram: 1 0 0 0 0 0 0 0 0 1
Nghost:    11746 ave 11750 max 11742 min
Histogram: 1 0 0 0 0 0 0 0 0 1
Neighs:    598196 ave 607314 max 589077 min
Histogram: 1 0 0 0 0 0 0 0 0 1

Total # of neighbors = 1196391
Ave neighs/atom = 60.8788
Neighbor list builds = 9505
Dangerous builds not checked
Setting up Verlet run ...
  Unit style    : metal
  Current step  : 200000
  Time step     : 0.001
Per MPI rank memory allocation (min/avg/max) = 11.35 | 11.35 | 11.35 Mbytes
Step Temp Press TotEng PotEng Enthalpy 
  200000    1646.8369   -80.565459   -54703.278   -58886.394   -54724.058 
  200495    1623.3333   -258.15271   -54907.325    -59030.74   -54973.601 
Loop time of 44.9408 on 2 procs for 495 steps with 19652 atoms

Performance: 0.952 ns/day, 25.219 hours/ns, 11.014 timesteps/s
99.9% CPU use with 2 MPI tasks x no OpenMP threads

MPI task timing breakdown:
Section |  min time  |  avg time  |  max time  |%varavg| %total
---------------------------------------------------------------
Pair    | 24.055     | 24.547     | 25.038     |   9.9 | 54.62
Neigh   | 18.342     | 18.399     | 18.455     |   1.3 | 40.94
Comm    | 0.95018    | 1.3867     | 1.8232     |  37.1 |  3.09
Output  | 8.5115e-05 | 0.00013506 | 0.00018501 |   0.0 |  0.00
Modify  | 0.47439    | 0.47465    | 0.47492    |   0.0 |  1.06
Other   |            | 0.1339     |            |       |  0.30

Nlocal:    9826 ave 9836 max 9816 min
Histogram: 1 0 0 0 0 0 0 0 0 1
Nghost:    11796 ave 11820 max 11772 min
Histogram: 1 0 0 0 0 0 0 0 0 1
Neighs:    601327 ave 606415 max 596239 min
Histogram: 1 0 0 0 0 0 0 0 0 1

Total # of neighbors = 1202654
Ave neighs/atom = 61.1975
Neighbor list builds = 495
Dangerous builds not checked
Setting up Verlet run ...
  Unit style    : metal
  Current step  : 200495
  Time step     : 0.001
Per MPI rank memory allocation (min/avg/max) = 11.35 | 11.35 | 11.35 Mbytes
Step Temp Press TotEng PotEng Enthalpy 
  200495    1623.3333   -258.15271   -54907.325    -59030.74   -54973.601 
  210000    1600.9786   -315.27604    -54925.75   -58992.382   -55006.817 
Loop time of 915.411 on 2 procs for 9505 steps with 19652 atoms

Performance: 0.897 ns/day, 26.752 hours/ns, 10.383 timesteps/s
98.8% CPU use with 2 MPI tasks x no OpenMP threads

MPI task timing breakdown:
Section |  min time  |  avg time  |  max time  |%varavg| %total
---------------------------------------------------------------
Pair    | 503.79     | 507.81     | 511.82     |  17.8 | 55.47
Neigh   | 357.2      | 359.64     | 362.07     |  12.9 | 39.29
Comm    | 29.802     | 36.296     | 42.789     | 107.8 |  3.96
Output  | 0.057863   | 0.057959   | 0.058054   |   0.0 |  0.01
Modify  | 8.9992     | 9.0429     | 9.0866     |   1.5 |  0.99
Other   |            | 2.573      |            |       |  0.28

Nlocal:    9826 ave 9845 max 9807 min
Histogram: 1 0 0 0 0 0 0 0 0 1
Nghost:    11748.5 ave 11760 max 11737 min
Histogram: 1 0 0 0 0 0 0 0 0 1
Neighs:    600472 ave 603724 max 597219 min
Histogram: 1 0 0 0 0 0 0 0 0 1

Total # of neighbors = 1200943
Ave neighs/atom = 61.1105
Neighbor list builds = 9505
Dangerous builds not checked
Setting up Verlet run ...
  Unit style    : metal
  Current step  : 210000
  Time step     : 0.001
Per MPI rank memory allocation (min/avg/max) = 11.35 | 11.35 | 11.35 Mbytes
Step Temp Press TotEng PotEng Enthalpy 
  210000    1600.9786   -315.27604    -54925.75   -58992.382   -55006.817 
  210495    1560.0493   0.28100398   -55164.938   -59127.606   -55164.866 
Loop time of 48.14 on 2 procs for 495 steps with 19652 atoms

Performance: 0.888 ns/day, 27.015 hours/ns, 10.283 timesteps/s
96.8% CPU use with 2 MPI tasks x no OpenMP threads

MPI task timing breakdown:
Section |  min time  |  avg time  |  max time  |%varavg| %total
---------------------------------------------------------------
Pair    | 26.311     | 26.843     | 27.375     |  10.3 | 55.76
Neigh   | 17.796     | 18.063     | 18.331     |   6.3 | 37.52
Comm    | 1.8139     | 2.6163     | 3.4188     |  49.6 |  5.43
Output  | 0.00012684 | 0.00017393 | 0.00022101 |   0.0 |  0.00
Modify  | 0.4789     | 0.48174    | 0.48458    |   0.4 |  1.00
Other   |            | 0.1358     |            |       |  0.28

Nlocal:    9826 ave 9841 max 9811 min
Histogram: 1 0 0 0 0 0 0 0 0 1
Nghost:    11814.5 ave 11833 max 11796 min
Histogram: 1 0 0 0 0 0 0 0 0 1
Neighs:    604772 ave 609831 max 599713 min
Histogram: 1 0 0 0 0 0 0 0 0 1

Total # of neighbors = 1209544
Ave neighs/atom = 61.5481
Neighbor list builds = 495
Dangerous builds not checked
Setting up Verlet run ...
  Unit style    : metal
  Current step  : 210495
  Time step     : 0.001
Per MPI rank memory allocation (min/avg/max) = 11.35 | 11.35 | 11.35 Mbytes
Step Temp Press TotEng PotEng Enthalpy 
  210495    1560.0493   0.28100398   -55164.938   -59127.606   -55164.866 
  220000    1550.4957    25.678611   -55295.769    -59234.17   -55289.232 
Loop time of 907.364 on 2 procs for 9505 steps with 19652 atoms

Performance: 0.905 ns/day, 26.517 hours/ns, 10.475 timesteps/s
97.9% CPU use with 2 MPI tasks x no OpenMP threads

MPI task timing breakdown:
Section |  min time  |  avg time  |  max time  |%varavg| %total
---------------------------------------------------------------
Pair    | 495.48     | 498.36     | 501.24     |  12.9 | 54.92
Neigh   | 354.62     | 356.11     | 357.61     |   7.9 | 39.25
Comm    | 37         | 41.392     | 45.783     |  68.3 |  4.56
Output  | 0.038987   | 0.03913    | 0.039274   |   0.1 |  0.00
Modify  | 8.9766     | 8.9862     | 8.9959     |   0.3 |  0.99
Other   |            | 2.476      |            |       |  0.27

Nlocal:    9826 ave 9830 max 9822 min
Histogram: 1 0 0 0 0 0 0 0 0 1
Nghost:    11825.5 ave 11841 max 11810 min
Histogram: 1 0 0 0 0 0 0 0 0 1
Neighs:    606416 ave 611400 max 601432 min
Histogram: 1 0 0 0 0 0 0 0 0 1

Total # of neighbors = 1212832
Ave neighs/atom = 61.7154
Neighbor list builds = 9505
Dangerous builds not checked
Setting up Verlet run ...
  Unit style    : metal
  Current step  : 220000
  Time step     : 0.001
Per MPI rank memory allocation (min/avg/max) = 11.35 | 11.35 | 11.35 Mbytes
Step Temp Press TotEng PotEng Enthalpy 
  220000    1550.4957    25.678611   -55295.769    -59234.17   -55289.232 
  220495    1523.0144    498.70297   -55447.718   -59316.313   -55321.204 
Loop time of 44.8953 on 2 procs for 495 steps with 19652 atoms

Performance: 0.953 ns/day, 25.194 hours/ns, 11.026 timesteps/s
97.1% CPU use with 2 MPI tasks x no OpenMP threads

MPI task timing breakdown:
Section |  min time  |  avg time  |  max time  |%varavg| %total
---------------------------------------------------------------
Pair    | 24.419     | 24.514     | 24.609     |   1.9 | 54.60
Neigh   | 17.414     | 17.609     | 17.804     |   4.6 | 39.22
Comm    | 1.8982     | 2.1919     | 2.4856     |  19.8 |  4.88
Output  | 0.00010204 | 0.00014949 | 0.00019693 |   0.0 |  0.00
Modify  | 0.45144    | 0.45346    | 0.45548    |   0.3 |  1.01
Other   |            | 0.1264     |            |       |  0.28

Nlocal:    9826 ave 9829 max 9823 min
Histogram: 1 0 0 0 0 0 0 0 0 1
Nghost:    11826.5 ave 11838 max 11815 min
Histogram: 1 0 0 0 0 0 0 0 0 1
Neighs:    608546 ave 614689 max 602404 min
Histogram: 1 0 0 0 0 0 0 0 0 1

Total # of neighbors = 1217093
Ave neighs/atom = 61.9323
Neighbor list builds = 495
Dangerous builds not checked
Setting up Verlet run ...
  Unit style    : metal
  Current step  : 220495
  Time step     : 0.001
Per MPI rank memory allocation (min/avg/max) = 11.35 | 11.35 | 11.35 Mbytes
Step Temp Press TotEng PotEng Enthalpy 
  220495    1523.0144    498.70297   -55447.718   -59316.313   -55321.204 
  230000    1510.7998    402.30668   -55506.052   -59343.621    -55404.05 
Loop time of 871.638 on 2 procs for 9505 steps with 19652 atoms

Performance: 0.942 ns/day, 25.473 hours/ns, 10.905 timesteps/s
99.0% CPU use with 2 MPI tasks x no OpenMP threads

MPI task timing breakdown:
Section |  min time  |  avg time  |  max time  |%varavg| %total
---------------------------------------------------------------
Pair    | 477.31     | 479.52     | 481.74     |  10.1 | 55.01
Neigh   | 341.78     | 345.16     | 348.54     |  18.2 | 39.60
Comm    | 29.536     | 35.156     | 40.775     |  94.8 |  4.03
Output  | 0.03584    | 0.035861   | 0.035881   |   0.0 |  0.00
Modify  | 9.4005     | 9.4174     | 9.4343     |   0.6 |  1.08
Other   |            | 2.348      |            |       |  0.27

Nlocal:    9826 ave 9847 max 9805 min
Histogram: 1 0 0 0 0 0 0 0 0 1
Nghost:    11866.5 ave 11893 max 11840 min
Histogram: 1 0 0 0 0 0 0 0 0 1
Neighs:    609040 ave 613446 max 604634 min
Histogram: 1 0 0 0 0 0 0 0 0 1

Total # of neighbors = 1218080
Ave neighs/atom = 61.9825
Neighbor list builds = 9505
Dangerous builds not checked
Setting up Verlet run ...
  Unit style    : metal
  Current step  : 230000
  Time step     : 0.001
Per MPI rank memory allocation (min/avg/max) = 11.35 | 11.35 | 11.35 Mbytes
Step Temp Press TotEng PotEng Enthalpy 
  230000    1510.7998    402.30668   -55506.052   -59343.621    -55404.05 
  230495    1468.0585    781.79901   -55748.396   -59477.398     -55551.3 
Loop time of 44.4055 on 2 procs for 495 steps with 19652 atoms

Performance: 0.963 ns/day, 24.919 hours/ns, 11.147 timesteps/s
97.1% CPU use with 2 MPI tasks x no OpenMP threads

MPI task timing breakdown:
Section |  min time  |  avg time  |  max time  |%varavg| %total
---------------------------------------------------------------
Pair    | 24.343     | 24.437     | 24.531     |   1.9 | 55.03
Neigh   | 17.338     | 17.385     | 17.432     |   1.1 | 39.15
Comm    | 1.8725     | 2.0162     | 2.1598     |  10.1 |  4.54
Output  | 9.8944e-05 | 0.00021243 | 0.00032592 |   0.0 |  0.00
Modify  | 0.44267    | 0.44478    | 0.44689    |   0.3 |  1.00
Other   |            | 0.1222     |            |       |  0.28

Nlocal:    9826 ave 9838 max 9814 min
Histogram: 1 0 0 0 0 0 0 0 0 1
Nghost:    11857 ave 11858 max 11856 min
Histogram: 1 0 0 0 0 0 0 0 0 1
Neighs:    612747 ave 616763 max 608731 min
Histogram: 1 0 0 0 0 0 0 0 0 1

Total # of neighbors = 1225494
Ave neighs/atom = 62.3598
Neighbor list builds = 495
Dangerous builds not checked
Setting up Verlet run ...
  Unit style    : metal
  Current step  : 230495
  Time step     : 0.001
Per MPI rank memory allocation (min/avg/max) = 11.35 | 11.35 | 11.35 Mbytes
Step Temp Press TotEng PotEng Enthalpy 
  230495    1468.0585    781.79901   -55748.396   -59477.398     -55551.3 
  240000    1455.1735    267.96662   -55866.363   -59562.636   -55798.981 
Loop time of 859.74 on 2 procs for 9505 steps with 19652 atoms

Performance: 0.955 ns/day, 25.125 hours/ns, 11.056 timesteps/s
96.8% CPU use with 2 MPI tasks x no OpenMP threads

MPI task timing breakdown:
Section |  min time  |  avg time  |  max time  |%varavg| %total
---------------------------------------------------------------
Pair    | 463.82     | 465.54     | 467.27     |   8.0 | 54.15
Neigh   | 316.7      | 324.3      | 331.9      |  42.2 | 37.72
Comm    | 47.839     | 57.265     | 66.692     | 124.6 |  6.66
Output  | 0.035036   | 0.035082   | 0.035128   |   0.0 |  0.00
Modify  | 10.321     | 10.395     | 10.468     |   2.3 |  1.21
Other   |            | 2.198      |            |       |  0.26

Nlocal:    9826 ave 9845 max 9807 min
Histogram: 1 0 0 0 0 0 0 0 0 1
Nghost:    11884 ave 11900 max 11868 min
Histogram: 1 0 0 0 0 0 0 0 0 1
Neighs:    614208 ave 621670 max 606746 min
Histogram: 1 0 0 0 0 0 0 0 0 1

Total # of neighbors = 1228416
Ave neighs/atom = 62.5084
Neighbor list builds = 9505
Dangerous builds not checked
Setting up Verlet run ...
  Unit style    : metal
  Current step  : 240000
  Time step     : 0.001
Per MPI rank memory allocation (min/avg/max) = 11.35 | 11.35 | 11.35 Mbytes
Step Temp Press TotEng PotEng Enthalpy 
  240000    1455.1735    267.96662   -55866.363   -59562.636   -55798.981 
  240495    1418.1437    655.52205   -55998.771   -59600.985   -55834.318 
Loop time of 40.6852 on 2 procs for 495 steps with 19652 atoms

Performance: 1.051 ns/day, 22.831 hours/ns, 12.167 timesteps/s
96.1% CPU use with 2 MPI tasks x no OpenMP threads

MPI task timing breakdown:
Section |  min time  |  avg time  |  max time  |%varavg| %total
---------------------------------------------------------------
Pair    | 22.47      | 22.678     | 22.885     |   4.3 | 55.74
Neigh   | 14.668     | 15.329     | 15.99      |  16.9 | 37.68
Comm    | 1.7148     | 2.1824     | 2.65       |  31.7 |  5.36
Output  | 9.2983e-05 | 0.00013804 | 0.00018311 |   0.0 |  0.00
Modify  | 0.38191    | 0.39186    | 0.40182    |   1.6 |  0.96
Other   |            | 0.104      |            |       |  0.26

Nlocal:    9826 ave 9840 max 9812 min
Histogram: 1 0 0 0 0 0 0 0 0 1
Nghost:    11914.5 ave 11934 max 11895 min
Histogram: 1 0 0 0 0 0 0 0 0 1
Neighs:    615796 ave 622506 max 609086 min
Histogram: 1 0 0 0 0 0 0 0 0 1

Total # of neighbors = 1231592
Ave neighs/atom = 62.6701
Neighbor list builds = 495
Dangerous builds not checked
Setting up Verlet run ...
  Unit style    : metal
  Current step  : 240495
  Time step     : 0.001
Per MPI rank memory allocation (min/avg/max) = 11.35 | 11.35 | 11.35 Mbytes
Step Temp Press TotEng PotEng Enthalpy 
  240495    1418.1437    655.52205   -55998.771   -59600.985   -55834.318 
  250000    1391.8194   -844.38912   -56126.992    -59662.34   -56338.837 
Loop time of 775.988 on 2 procs for 9505 steps with 19652 atoms

Performance: 1.058 ns/day, 22.678 hours/ns, 12.249 timesteps/s
99.6% CPU use with 2 MPI tasks x no OpenMP threads

MPI task timing breakdown:
Section |  min time  |  avg time  |  max time  |%varavg| %total
---------------------------------------------------------------
Pair    | 421.52     | 421.87     | 422.23     |   1.7 | 54.37
Neigh   | 301.78     | 305.11     | 308.44     |  19.1 | 39.32
Comm    | 35.352     | 39.094     | 42.837     |  59.9 |  5.04
Output  | 0.038641   | 0.038681   | 0.03872    |   0.0 |  0.00
Modify  | 7.7853     | 7.833      | 7.8807     |   1.7 |  1.01
Other   |            | 2.042      |            |       |  0.26

Nlocal:    9826 ave 9832 max 9820 min
Histogram: 1 0 0 0 0 0 0 0 0 1
Nghost:    11912 ave 11939 max 11885 min
Histogram: 1 0 0 0 0 0 0 0 0 1
Neighs:    615826 ave 621744 max 609908 min
Histogram: 1 0 0 0 0 0 0 0 0 1

Total # of neighbors = 1231652
Ave neighs/atom = 62.6731
Neighbor list builds = 9505
Dangerous builds not checked
Setting up Verlet run ...
  Unit style    : metal
  Current step  : 250000
  Time step     : 0.001
Per MPI rank memory allocation (min/avg/max) = 11.35 | 11.35 | 11.35 Mbytes
Step Temp Press TotEng PotEng Enthalpy 
  250000    1391.8194   -844.38912   -56126.992    -59662.34   -56338.837 
  250495    1357.9446   0.49514759    -56318.46   -59767.763   -56318.336 
Loop time of 46.4149 on 2 procs for 495 steps with 19652 atoms

Performance: 0.921 ns/day, 26.047 hours/ns, 10.665 timesteps/s
94.5% CPU use with 2 MPI tasks x no OpenMP threads

MPI task timing breakdown:
Section |  min time  |  avg time  |  max time  |%varavg| %total
---------------------------------------------------------------
Pair    | 23.212     | 23.338     | 23.463     |   2.6 | 50.28
Neigh   | 16.525     | 16.68      | 16.835     |   3.8 | 35.94
Comm    | 5.8216     | 5.854      | 5.8864     |   1.3 | 12.61
Output  | 9.203e-05  | 0.00013757 | 0.00018311 |   0.0 |  0.00
Modify  | 0.42664    | 0.42916    | 0.43169    |   0.4 |  0.92
Other   |            | 0.1139     |            |       |  0.25

Nlocal:    9826 ave 9826 max 9826 min
Histogram: 2 0 0 0 0 0 0 0 0 0
Nghost:    11937.5 ave 11945 max 11930 min
Histogram: 1 0 0 0 0 0 0 0 0 1
Neighs:    618979 ave 624304 max 613654 min
Histogram: 1 0 0 0 0 0 0 0 0 1

Total # of neighbors = 1237958
Ave neighs/atom = 62.994
Neighbor list builds = 495
Dangerous builds not checked
Setting up Verlet run ...
  Unit style    : metal
  Current step  : 250495
  Time step     : 0.001
Per MPI rank memory allocation (min/avg/max) = 11.35 | 11.35 | 11.35 Mbytes
Step Temp Press TotEng PotEng Enthalpy 
  250495    1357.9446   0.49514759    -56318.46   -59767.763   -56318.336 
  260000     1355.417   -243.70255   -56388.623   -59831.505   -56449.362 
Loop time of 806.835 on 2 procs for 9505 steps with 19652 atoms

Performance: 1.018 ns/day, 23.579 hours/ns, 11.781 timesteps/s
98.4% CPU use with 2 MPI tasks x no OpenMP threads

MPI task timing breakdown:
Section |  min time  |  avg time  |  max time  |%varavg| %total
---------------------------------------------------------------
Pair    | 434.75     | 437.23     | 439.71     |  11.9 | 54.19
Neigh   | 312.6      | 313.94     | 315.28     |   7.6 | 38.91
Comm    | 41.164     | 45.038     | 48.912     |  57.7 |  5.58
Output  | 0.055356   | 0.055375   | 0.055394   |   0.0 |  0.01
Modify  | 8.4196     | 8.4751     | 8.5306     |   1.9 |  1.05
Other   |            | 2.089      |            |       |  0.26

Nlocal:    9826 ave 9844 max 9808 min
Histogram: 1 0 0 0 0 0 0 0 0 1
Nghost:    11964 ave 11978 max 11950 min
Histogram: 1 0 0 0 0 0 0 0 0 1
Neighs:    619998 ave 627455 max 612541 min
Histogram: 1 0 0 0 0 0 0 0 0 1

Total # of neighbors = 1239996
Ave neighs/atom = 63.0977
Neighbor list builds = 9505
Dangerous builds not checked
Setting up Verlet run ...
  Unit style    : metal
  Current step  : 260000
  Time step     : 0.001
Per MPI rank memory allocation (min/avg/max) = 11.35 | 11.35 | 11.35 Mbytes
Step Temp Press TotEng PotEng Enthalpy 
  260000     1355.417   -243.70255   -56388.623   -59831.505   -56449.362 
  260495    1310.8184   -144.63391   -56579.596   -59909.194   -56615.497 
Loop time of 37.6973 on 2 procs for 495 steps with 19652 atoms

Performance: 1.135 ns/day, 21.155 hours/ns, 13.131 timesteps/s
97.0% CPU use with 2 MPI tasks x no OpenMP threads

MPI task timing breakdown:
Section |  min time  |  avg time  |  max time  |%varavg| %total
---------------------------------------------------------------
Pair    | 19.046     | 19.112     | 19.179     |   1.5 | 50.70
Neigh   | 14.602     | 14.643     | 14.684     |   1.1 | 38.84
Comm    | 3.4569     | 3.4801     | 3.5034     |   1.2 |  9.23
Output  | 6.8903e-05 | 9.5963e-05 | 0.00012302 |   0.0 |  0.00
Modify  | 0.36507    | 0.3673     | 0.36954    |   0.4 |  0.97
Other   |            | 0.09443    |            |       |  0.25

Nlocal:    9826 ave 9828 max 9824 min
Histogram: 1 0 0 0 0 0 0 0 0 1
Nghost:    11937 ave 11938 max 11936 min
Histogram: 1 0 0 0 0 0 0 0 0 1
Neighs:    622709 ave 629292 max 616126 min
Histogram: 1 0 0 0 0 0 0 0 0 1

Total # of neighbors = 1245418
Ave neighs/atom = 63.3736
Neighbor list builds = 495
Dangerous builds not checked
Setting up Verlet run ...
  Unit style    : metal
  Current step  : 260495
  Time step     : 0.001
Per MPI rank memory allocation (min/avg/max) = 11.35 | 11.35 | 11.35 Mbytes
Step Temp Press TotEng PotEng Enthalpy 
  260495    1310.8184   -144.63391   -56579.596   -59909.194   -56615.497 
  270000    1295.1209    59.280753   -56665.711   -59955.436   -56651.022 
Loop time of 781.128 on 2 procs for 9505 steps with 19652 atoms

Performance: 1.051 ns/day, 22.828 hours/ns, 12.168 timesteps/s
98.3% CPU use with 2 MPI tasks x no OpenMP threads

MPI task timing breakdown:
Section |  min time  |  avg time  |  max time  |%varavg| %total
---------------------------------------------------------------
Pair    | 417.07     | 418.45     | 419.82     |   6.7 | 53.57
Neigh   | 307.95     | 308.36     | 308.77     |   2.3 | 39.48
Comm    | 42.32      | 44.18      | 46.041     |  28.0 |  5.66
Output  | 0.036165   | 0.036237   | 0.036309   |   0.0 |  0.00
Modify  | 7.9876     | 8.0703     | 8.1529     |   2.9 |  1.03
Other   |            | 2.036      |            |       |  0.26

Nlocal:    9826 ave 9830 max 9822 min
Histogram: 1 0 0 0 0 0 0 0 0 1
Nghost:    11981 ave 12000 max 11962 min
Histogram: 1 0 0 0 0 0 0 0 0 1
Neighs:    623906 ave 630427 max 617384 min
Histogram: 1 0 0 0 0 0 0 0 0 1

Total # of neighbors = 1247811
Ave neighs/atom = 63.4954
Neighbor list builds = 9505
Dangerous builds not checked
Setting up Verlet run ...
  Unit style    : metal
  Current step  : 270000
  Time step     : 0.001
Per MPI rank memory allocation (min/avg/max) = 11.35 | 11.35 | 11.35 Mbytes
Step Temp Press TotEng PotEng Enthalpy 
  270000    1295.1209    59.280753   -56665.711   -59955.436   -56651.022 
  270495    1261.9949   -286.84297   -56883.416   -60088.998   -56954.176 
Loop time of 42.1422 on 2 procs for 495 steps with 19652 atoms

Performance: 1.015 ns/day, 23.649 hours/ns, 11.746 timesteps/s
99.4% CPU use with 2 MPI tasks x no OpenMP threads

MPI task timing breakdown:
Section |  min time  |  avg time  |  max time  |%varavg| %total
---------------------------------------------------------------
Pair    | 22.933     | 23.017     | 23.101     |   1.8 | 54.62
Neigh   | 17.086     | 17.12      | 17.154     |   0.8 | 40.62
Comm    | 1.3934     | 1.4439     | 1.4944     |   4.2 |  3.43
Output  | 9.7036e-05 | 0.00019348 | 0.00028992 |   0.0 |  0.00
Modify  | 0.43537    | 0.43627    | 0.43717    |   0.1 |  1.04
Other   |            | 0.1248     |            |       |  0.30

Nlocal:    9826 ave 9841 max 9811 min
Histogram: 1 0 0 0 0 0 0 0 0 1
Nghost:    11998.5 ave 12008 max 11989 min
Histogram: 1 0 0 0 0 0 0 0 0 1
Neighs:    626693 ave 632635 max 620751 min
Histogram: 1 0 0 0 0 0 0 0 0 1

Total # of neighbors = 1253386
Ave neighs/atom = 63.7791
Neighbor list builds = 495
Dangerous builds not checked
Setting up Verlet run ...
  Unit style    : metal
  Current step  : 270495
  Time step     : 0.001
Per MPI rank memory allocation (min/avg/max) = 11.35 | 11.35 | 11.35 Mbytes
Step Temp Press TotEng PotEng Enthalpy 
  270495    1261.9949   -286.84297   -56883.416   -60088.998   -56954.176 
  280000    1253.7664   -349.06552   -56973.057   -60157.738   -57059.019 
Loop time of 803.755 on 2 procs for 9505 steps with 19652 atoms

Performance: 1.022 ns/day, 23.489 hours/ns, 11.826 timesteps/s
98.4% CPU use with 2 MPI tasks x no OpenMP threads

MPI task timing breakdown:
Section |  min time  |  avg time  |  max time  |%varavg| %total
---------------------------------------------------------------
Pair    | 434.72     | 435.79     | 436.86     |   5.1 | 54.22
Neigh   | 316.26     | 318.48     | 320.69     |  12.4 | 39.62
Comm    | 35.331     | 38.657     | 41.983     |  53.5 |  4.81
Output  | 0.036546   | 0.036626   | 0.036705   |   0.0 |  0.00
Modify  | 8.5831     | 8.619      | 8.6549     |   1.2 |  1.07
Other   |            | 2.175      |            |       |  0.27

Nlocal:    9826 ave 9828 max 9824 min
Histogram: 1 0 0 0 0 0 0 0 0 1
Nghost:    12040.5 ave 12059 max 12022 min
Histogram: 1 0 0 0 0 0 0 0 0 1
Neighs:    628182 ave 633119 max 623246 min
Histogram: 1 0 0 0 0 0 0 0 0 1

Total # of neighbors = 1256365
Ave neighs/atom = 63.9306
Neighbor list builds = 9505
Dangerous builds not checked
Setting up Verlet run ...
  Unit style    : metal
  Current step  : 280000
  Time step     : 0.001
Per MPI rank memory allocation (min/avg/max) = 11.35 | 11.35 | 11.35 Mbytes
Step Temp Press TotEng PotEng Enthalpy 
  280000    1253.7664   -349.06552   -56973.057   -60157.738   -57059.019 
  280495     1210.305    414.94799   -57192.098   -60266.383   -57090.491 
Loop time of 39.3767 on 2 procs for 495 steps with 19652 atoms

Performance: 1.086 ns/day, 22.097 hours/ns, 12.571 timesteps/s
99.9% CPU use with 2 MPI tasks x no OpenMP threads

MPI task timing breakdown:
Section |  min time  |  avg time  |  max time  |%varavg| %total
---------------------------------------------------------------
Pair    | 21.208     | 21.337     | 21.467     |   2.8 | 54.19
Neigh   | 15.487     | 15.981     | 16.475     |  12.4 | 40.59
Comm    | 0.9068     | 1.543      | 2.1793     |  51.2 |  3.92
Output  | 8.297e-05  | 0.00012505 | 0.00016713 |   0.0 |  0.00
Modify  | 0.39509    | 0.40389    | 0.4127     |   1.4 |  1.03
Other   |            | 0.1112     |            |       |  0.28

Nlocal:    9826 ave 9841 max 9811 min
Histogram: 1 0 0 0 0 0 0 0 0 1
Nghost:    12017.5 ave 12021 max 12014 min
Histogram: 1 0 0 0 0 0 0 0 0 1
Neighs:    631450 ave 636104 max 626796 min
Histogram: 1 0 0 0 0 0 0 0 0 1

Total # of neighbors = 1262900
Ave neighs/atom = 64.2632
Neighbor list builds = 495
Dangerous builds not checked
Setting up Verlet run ...
  Unit style    : metal
  Current step  : 280495
  Time step     : 0.001
Per MPI rank memory allocation (min/avg/max) = 11.35 | 11.35 | 11.35 Mbytes
Step Temp Press TotEng PotEng Enthalpy 
  280495     1210.305    414.94799   -57192.098   -60266.383   -57090.491 
  290000    1201.6391   -144.60271   -57275.262   -60327.535   -57310.625 
Loop time of 823.863 on 2 procs for 9505 steps with 19652 atoms

Performance: 0.997 ns/day, 24.077 hours/ns, 11.537 timesteps/s
98.0% CPU use with 2 MPI tasks x no OpenMP threads

MPI task timing breakdown:
Section |  min time  |  avg time  |  max time  |%varavg| %total
---------------------------------------------------------------
Pair    | 444.68     | 446.44     | 448.21     |   8.4 | 54.19
Neigh   | 320.43     | 323.11     | 325.8      |  14.9 | 39.22
Comm    | 39.102     | 43.605     | 48.107     |  68.2 |  5.29
Output  | 0.0317     | 0.031733   | 0.031767   |   0.0 |  0.00
Modify  | 8.428      | 8.4742     | 8.5203     |   1.6 |  1.03
Other   |            | 2.194      |            |       |  0.27

Nlocal:    9826 ave 9836 max 9816 min
Histogram: 1 0 0 0 0 0 0 0 0 1
Nghost:    12022.5 ave 12048 max 11997 min
Histogram: 1 0 0 0 0 0 0 0 0 1
Neighs:    632501 ave 638644 max 626358 min
Histogram: 1 0 0 0 0 0 0 0 0 1

Total # of neighbors = 1265002
Ave neighs/atom = 64.3701
Neighbor list builds = 9505
Dangerous builds not checked
Setting up Verlet run ...
  Unit style    : metal
  Current step  : 290000
  Time step     : 0.001
Per MPI rank memory allocation (min/avg/max) = 11.35 | 11.35 | 11.35 Mbytes
Step Temp Press TotEng PotEng Enthalpy 
  290000    1201.6391   -144.60271   -57275.262   -60327.535   -57310.625 
  290495    1172.7577   -543.56277   -57480.787   -60459.698   -57613.173 
Loop time of 40.6399 on 2 procs for 495 steps with 19652 atoms

Performance: 1.052 ns/day, 22.806 hours/ns, 12.180 timesteps/s
99.4% CPU use with 2 MPI tasks x no OpenMP threads

MPI task timing breakdown:
Section |  min time  |  avg time  |  max time  |%varavg| %total
---------------------------------------------------------------
Pair    | 22.126     | 22.235     | 22.343     |   2.3 | 54.71
Neigh   | 16.346     | 16.441     | 16.535     |   2.3 | 40.45
Comm    | 1.2257     | 1.4344     | 1.6431     |  17.4 |  3.53
Output  | 8.9169e-05 | 0.00014007 | 0.00019097 |   0.0 |  0.00
Modify  | 0.41111    | 0.4149     | 0.41869    |   0.6 |  1.02
Other   |            | 0.1152     |            |       |  0.28

Nlocal:    9826 ave 9831 max 9821 min
Histogram: 1 0 0 0 0 0 0 0 0 1
Nghost:    12084 ave 12106 max 12062 min
Histogram: 1 0 0 0 0 0 0 0 0 1
Neighs:    635278 ave 640791 max 629764 min
Histogram: 1 0 0 0 0 0 0 0 0 1

Total # of neighbors = 1270555
Ave neighs/atom = 64.6527
Neighbor list builds = 495
Dangerous builds not checked
Setting up Verlet run ...
  Unit style    : metal
  Current step  : 290495
  Time step     : 0.001
Per MPI rank memory allocation (min/avg/max) = 11.35 | 11.35 | 11.35 Mbytes
Step Temp Press TotEng PotEng Enthalpy 
  290495    1172.7577   -543.56277   -57480.787   -60459.698   -57613.173 
  300000    1157.0617   -161.94557   -57567.511   -60506.553   -57606.847 
Loop time of 861.805 on 2 procs for 9505 steps with 19652 atoms

Performance: 0.953 ns/day, 25.186 hours/ns, 11.029 timesteps/s
99.2% CPU use with 2 MPI tasks x no OpenMP threads

MPI task timing breakdown:
Section |  min time  |  avg time  |  max time  |%varavg| %total
---------------------------------------------------------------
Pair    | 473.95     | 477.68     | 481.41     |  17.1 | 55.43
Neigh   | 335.88     | 336.22     | 336.56     |   1.9 | 39.01
Comm    | 33.595     | 36.96      | 40.325     |  55.4 |  4.29
Output  | 0.038934   | 0.038965   | 0.038996   |   0.0 |  0.00
Modify  | 8.489      | 8.5008     | 8.5125     |   0.4 |  0.99
Other   |            | 2.407      |            |       |  0.28

Nlocal:    9826 ave 9836 max 9816 min
Histogram: 1 0 0 0 0 0 0 0 0 1
Nghost:    12081 ave 12115 max 12047 min
Histogram: 1 0 0 0 0 0 0 0 0 1
Neighs:    637064 ave 644072 max 630056 min
Histogram: 1 0 0 0 0 0 0 0 0 1

Total # of neighbors = 1274128
Ave neighs/atom = 64.8345
Neighbor list builds = 9505
Dangerous builds not checked
Setting up Verlet run ...
  Unit style    : metal
  Current step  : 300000
  Time step     : 0.001
Per MPI rank memory allocation (min/avg/max) = 11.35 | 11.35 | 11.35 Mbytes
Step Temp Press TotEng PotEng Enthalpy 
[...]
Histogram: 1 0 0 0 0 0 0 0 0 1
Neighs:    717147 ave 718592 max 715702 min
Histogram: 1 0 0 0 0 0 0 0 0 1

Total # of neighbors = 1434294
Ave neighs/atom = 72.9846
Neighbor list builds = 9505
Dangerous builds not checked
Setting up Verlet run ...
  Unit style    : metal
  Current step  : 440000
  Time step     : 0.001
Per MPI rank memory allocation (min/avg/max) = 11.35 | 11.35 | 11.35 Mbytes
Step Temp Press TotEng PotEng Enthalpy 
  440000    445.68831    39.666001   -62420.031    -63552.12   -62411.442 
  440495    422.74426    147.18636   -62554.077   -63627.886   -62522.299 
Loop time of 46.8385 on 2 procs for 495 steps with 19652 atoms

Performance: 0.913 ns/day, 26.284 hours/ns, 10.568 timesteps/s
98.9% CPU use with 2 MPI tasks x no OpenMP threads

MPI task timing breakdown:
Section |  min time  |  avg time  |  max time  |%varavg| %total
---------------------------------------------------------------
Pair    | 24.98      | 25.275     | 25.57      |   5.9 | 53.96
Neigh   | 19.169     | 19.193     | 19.216     |   0.5 | 40.98
Comm    | 1.3576     | 1.689      | 2.0204     |  25.5 |  3.61
Output  | 0.00012612 | 0.00017858 | 0.00023103 |   0.0 |  0.00
Modify  | 0.51174    | 0.52475    | 0.53775    |   1.8 |  1.12
Other   |            | 0.157      |            |       |  0.34

Nlocal:    9826 ave 9832 max 9820 min
Histogram: 1 0 0 0 0 0 0 0 0 1
Nghost:    12666.5 ave 12668 max 12665 min
Histogram: 1 0 0 0 0 0 0 0 0 1
Neighs:    718937 ave 719270 max 718604 min
Histogram: 1 0 0 0 0 0 0 0 0 1

Total # of neighbors = 1437874
Ave neighs/atom = 73.1668
Neighbor list builds = 495
Dangerous builds not checked
Setting up Verlet run ...
  Unit style    : metal
  Current step  : 440495
  Time step     : 0.001
Per MPI rank memory allocation (min/avg/max) = 11.35 | 11.35 | 11.35 Mbytes
Step Temp Press TotEng PotEng Enthalpy 
  440495    422.74426    147.18636   -62554.077   -63627.886   -62522.299 
  450000     404.9794   -300.28113   -62749.655   -63778.339   -62814.183 
Loop time of 995.239 on 2 procs for 9505 steps with 19652 atoms

Performance: 0.825 ns/day, 29.085 hours/ns, 9.550 timesteps/s
94.5% CPU use with 2 MPI tasks x no OpenMP threads

MPI task timing breakdown:
Section |  min time  |  avg time  |  max time  |%varavg| %total
---------------------------------------------------------------
Pair    | 539.45     | 539.94     | 540.43     |   2.1 | 54.25
Neigh   | 387.12     | 388.48     | 389.84     |   6.9 | 39.03
Comm    | 51.044     | 52.89      | 54.736     |  25.4 |  5.31
Output  | 0.038147   | 0.038237   | 0.038328   |   0.0 |  0.00
Modify  | 10.867     | 10.867     | 10.867     |   0.0 |  1.09
Other   |            | 3.021      |            |       |  0.30

Nlocal:    9826 ave 9827 max 9825 min
Histogram: 1 0 0 0 0 0 0 0 0 1
Nghost:    12709.5 ave 12736 max 12683 min
Histogram: 1 0 0 0 0 0 0 0 0 1
Neighs:    722272 ave 722862 max 721683 min
Histogram: 1 0 0 0 0 0 0 0 0 1

Total # of neighbors = 1444545
Ave neighs/atom = 73.5063
Neighbor list builds = 9505
Dangerous builds not checked
Setting up Verlet run ...
  Unit style    : metal
  Current step  : 450000
  Time step     : 0.001
Per MPI rank memory allocation (min/avg/max) = 11.35 | 11.35 | 11.35 Mbytes
Step Temp Press TotEng PotEng Enthalpy 
  450000     404.9794   -300.28113   -62749.655   -63778.339   -62814.183 
  450495    374.14479    -556.2227   -62918.367   -63868.729   -63037.571 
Loop time of 54.2501 on 2 procs for 495 steps with 19652 atoms

Performance: 0.788 ns/day, 30.443 hours/ns, 9.124 timesteps/s
90.8% CPU use with 2 MPI tasks x no OpenMP threads

MPI task timing breakdown:
Section |  min time  |  avg time  |  max time  |%varavg| %total
---------------------------------------------------------------
Pair    | 29.888     | 29.946     | 30.005     |   1.1 | 55.20
Neigh   | 20.487     | 20.632     | 20.777     |   3.2 | 38.03
Comm    | 2.8175     | 2.9164     | 3.0154     |   5.8 |  5.38
Output  | 0.00016689 | 0.00025189 | 0.00033689 |   0.0 |  0.00
Modify  | 0.57677    | 0.58605    | 0.59532    |   1.2 |  1.08
Other   |            | 0.169      |            |       |  0.31

Nlocal:    9826 ave 9834 max 9818 min
Histogram: 1 0 0 0 0 0 0 0 0 1
Nghost:    12736 ave 12755 max 12717 min
Histogram: 1 0 0 0 0 0 0 0 0 1
Neighs:    723840 ave 724645 max 723034 min
Histogram: 1 0 0 0 0 0 0 0 0 1

Total # of neighbors = 1447679
Ave neighs/atom = 73.6657
Neighbor list builds = 495
Dangerous builds not checked
Setting up Verlet run ...
  Unit style    : metal
  Current step  : 450495
  Time step     : 0.001
Per MPI rank memory allocation (min/avg/max) = 11.35 | 11.35 | 11.35 Mbytes
Step Temp Press TotEng PotEng Enthalpy 
  450495    374.14479    -556.2227   -62918.367   -63868.729   -63037.571 
  460000     351.1933   -782.71806   -63106.351   -63998.414   -63273.434 
Loop time of 1032.16 on 2 procs for 9505 steps with 19652 atoms

Performance: 0.796 ns/day, 30.164 hours/ns, 9.209 timesteps/s
92.3% CPU use with 2 MPI tasks x no OpenMP threads

MPI task timing breakdown:
Section |  min time  |  avg time  |  max time  |%varavg| %total
---------------------------------------------------------------
Pair    | 564.8      | 564.87     | 564.94     |   0.3 | 54.73
Neigh   | 394.84     | 396.16     | 397.48     |   6.6 | 38.38
Comm    | 54.911     | 56.163     | 57.414     |  16.7 |  5.44
Output  | 0.039195   | 0.039307   | 0.039419   |   0.1 |  0.00
Modify  | 11.799     | 11.804     | 11.809     |   0.2 |  1.14
Other   |            | 3.12       |            |       |  0.30

Nlocal:    9826 ave 9839 max 9813 min
Histogram: 1 0 0 0 0 0 0 0 0 1
Nghost:    12743.5 ave 12752 max 12735 min
Histogram: 1 0 0 0 0 0 0 0 0 1
Neighs:    726418 ave 727617 max 725220 min
Histogram: 1 0 0 0 0 0 0 0 0 1

Total # of neighbors = 1452837
Ave neighs/atom = 73.9282
Neighbor list builds = 9505
Dangerous builds not checked
Setting up Verlet run ...
  Unit style    : metal
  Current step  : 460000
  Time step     : 0.001
Per MPI rank memory allocation (min/avg/max) = 11.35 | 11.35 | 11.35 Mbytes
Step Temp Press TotEng PotEng Enthalpy 
  460000     351.1933   -782.71806   -63106.351   -63998.414   -63273.434 
  460495    323.68484   -352.67916   -63254.185   -64076.374   -63329.201 
Loop time of 53.0138 on 2 procs for 495 steps with 19652 atoms

Performance: 0.807 ns/day, 29.750 hours/ns, 9.337 timesteps/s
92.8% CPU use with 2 MPI tasks x no OpenMP threads

MPI task timing breakdown:
Section |  min time  |  avg time  |  max time  |%varavg| %total
---------------------------------------------------------------
Pair    | 28.767     | 28.984     | 29.202     |   4.0 | 54.67
Neigh   | 19.842     | 20.27      | 20.697     |   9.5 | 38.23
Comm    | 2.3729     | 3.0277     | 3.6825     |  37.6 |  5.71
Output  | 0.00011683 | 0.00026989 | 0.00042295 |   0.0 |  0.00
Modify  | 0.57051    | 0.57904    | 0.58757    |   1.1 |  1.09
Other   |            | 0.1529     |            |       |  0.29

Nlocal:    9826 ave 9839 max 9813 min
Histogram: 1 0 0 0 0 0 0 0 0 1
Nghost:    12783.5 ave 12800 max 12767 min
Histogram: 1 0 0 0 0 0 0 0 0 1
Neighs:    728892 ave 730058 max 727725 min
Histogram: 1 0 0 0 0 0 0 0 0 1

Total # of neighbors = 1457783
Ave neighs/atom = 74.1799
Neighbor list builds = 495
Dangerous builds not checked
Setting up Verlet run ...
  Unit style    : metal
  Current step  : 460495
  Time step     : 0.001
Per MPI rank memory allocation (min/avg/max) = 11.35 | 11.35 | 11.35 Mbytes
Step Temp Press TotEng PotEng Enthalpy 
  460495    323.68484   -352.67916   -63254.185   -64076.374   -63329.201 
  470000    298.74129    408.14748   -63424.444   -64183.274    -63338.01 
Loop time of 989.789 on 2 procs for 9505 steps with 19652 atoms

Performance: 0.830 ns/day, 28.926 hours/ns, 9.603 timesteps/s
93.5% CPU use with 2 MPI tasks x no OpenMP threads

MPI task timing breakdown:
Section |  min time  |  avg time  |  max time  |%varavg| %total
---------------------------------------------------------------
Pair    | 539.02     | 540.5      | 541.97     |   6.3 | 54.61
Neigh   | 385.13     | 386.41     | 387.69     |   6.5 | 39.04
Comm    | 45.529     | 48.325     | 51.121     |  40.2 |  4.88
Output  | 0.040042   | 0.040136   | 0.04023    |   0.0 |  0.00
Modify  | 11.403     | 11.454     | 11.504     |   1.5 |  1.16
Other   |            | 3.059      |            |       |  0.31

Nlocal:    9826 ave 9833 max 9819 min
Histogram: 1 0 0 0 0 0 0 0 0 1
Nghost:    12791 ave 12796 max 12786 min
Histogram: 1 0 0 0 0 0 0 0 0 1
Neighs:    731511 ave 732110 max 730912 min
Histogram: 1 0 0 0 0 0 0 0 0 1

Total # of neighbors = 1463022
Ave neighs/atom = 74.4465
Neighbor list builds = 9505
Dangerous builds not checked
Setting up Verlet run ...
  Unit style    : metal
  Current step  : 470000
  Time step     : 0.001
Per MPI rank memory allocation (min/avg/max) = 11.35 | 11.35 | 11.35 Mbytes
Step Temp Press TotEng PotEng Enthalpy 
  470000    298.74129    408.14748   -63424.444   -64183.274    -63338.01 
  470495    274.06739   -153.52669   -63563.239   -64259.395   -63595.694 
Loop time of 50.2601 on 2 procs for 495 steps with 19652 atoms

Performance: 0.851 ns/day, 28.204 hours/ns, 9.849 timesteps/s
95.6% CPU use with 2 MPI tasks x no OpenMP threads

MPI task timing breakdown:
Section |  min time  |  avg time  |  max time  |%varavg| %total
---------------------------------------------------------------
Pair    | 27.071     | 27.589     | 28.107     |   9.9 | 54.89
Neigh   | 19.483     | 19.559     | 19.635     |   1.7 | 38.92
Comm    | 1.8009     | 2.3995     | 2.9981     |  38.6 |  4.77
Output  | 0.00010085 | 0.00023234 | 0.00036383 |   0.0 |  0.00
Modify  | 0.55016    | 0.55443    | 0.5587     |   0.6 |  1.10
Other   |            | 0.1582     |            |       |  0.31

Nlocal:    9826 ave 9837 max 9815 min
Histogram: 1 0 0 0 0 0 0 0 0 1
Nghost:    12822.5 ave 12839 max 12806 min
Histogram: 1 0 0 0 0 0 0 0 0 1
Neighs:    732656 ave 733576 max 731735 min
Histogram: 1 0 0 0 0 0 0 0 0 1

Total # of neighbors = 1465311
Ave neighs/atom = 74.5629
Neighbor list builds = 495
Dangerous builds not checked
Setting up Verlet run ...
  Unit style    : metal
  Current step  : 470495
  Time step     : 0.001
Per MPI rank memory allocation (min/avg/max) = 11.35 | 11.35 | 11.35 Mbytes
Step Temp Press TotEng PotEng Enthalpy 
  470495    274.06739   -153.52669   -63563.239   -64259.395   -63595.694 
  480000    251.06251     797.0926   -63712.295   -64350.017   -63544.558 
Loop time of 1010.16 on 2 procs for 9505 steps with 19652 atoms

Performance: 0.813 ns/day, 29.521 hours/ns, 9.409 timesteps/s
92.4% CPU use with 2 MPI tasks x no OpenMP threads

MPI task timing breakdown:
Section |  min time  |  avg time  |  max time  |%varavg| %total
---------------------------------------------------------------
Pair    | 552.66     | 554.03     | 555.39     |   5.8 | 54.85
Neigh   | 389.78     | 389.82     | 389.86     |   0.2 | 38.59
Comm    | 50.658     | 52.01      | 53.361     |  18.7 |  5.15
Output  | 0.052891   | 0.052966   | 0.053042   |   0.0 |  0.01
Modify  | 11.16      | 11.209     | 11.259     |   1.5 |  1.11
Other   |            | 3.047      |            |       |  0.30

Nlocal:    9826 ave 9828 max 9824 min
Histogram: 1 0 0 0 0 0 0 0 0 1
Nghost:    12853 ave 12857 max 12849 min
Histogram: 1 0 0 0 0 0 0 0 0 1
Neighs:    735666 ave 735723 max 735608 min
Histogram: 1 0 0 0 0 0 0 0 0 1

Total # of neighbors = 1471331
Ave neighs/atom = 74.8693
Neighbor list builds = 9505
Dangerous builds not checked
Setting up Verlet run ...
  Unit style    : metal
  Current step  : 480000
  Time step     : 0.001
Per MPI rank memory allocation (min/avg/max) = 11.35 | 11.35 | 11.35 Mbytes
Step Temp Press TotEng PotEng Enthalpy 
  480000    251.06251     797.0926   -63712.295   -64350.017   -63544.558 
  480495    224.36921    24.678906   -63853.464   -64423.383   -63848.278 
Loop time of 50.7068 on 2 procs for 495 steps with 19652 atoms

Performance: 0.843 ns/day, 28.455 hours/ns, 9.762 timesteps/s
94.3% CPU use with 2 MPI tasks x no OpenMP threads

MPI task timing breakdown:
Section |  min time  |  avg time  |  max time  |%varavg| %total
---------------------------------------------------------------
Pair    | 27.808     | 27.882     | 27.957     |   1.4 | 54.99
Neigh   | 19.537     | 19.651     | 19.765     |   2.6 | 38.75
Comm    | 2.2545     | 2.4524     | 2.6503     |  12.6 |  4.84
Output  | 0.000103   | 0.00022149 | 0.00033998 |   0.0 |  0.00
Modify  | 0.55132    | 0.55553    | 0.55975    |   0.6 |  1.10
Other   |            | 0.1652     |            |       |  0.33

Nlocal:    9826 ave 9830 max 9822 min
Histogram: 1 0 0 0 0 0 0 0 0 1
Nghost:    12825.5 ave 12837 max 12814 min
Histogram: 1 0 0 0 0 0 0 0 0 1
Neighs:    736535 ave 736822 max 736248 min
Histogram: 1 0 0 0 0 0 0 0 0 1

Total # of neighbors = 1473070
Ave neighs/atom = 74.9578
Neighbor list builds = 495
Dangerous builds not checked
Setting up Verlet run ...
  Unit style    : metal
  Current step  : 480495
  Time step     : 0.001
Per MPI rank memory allocation (min/avg/max) = 11.35 | 11.35 | 11.35 Mbytes
Step Temp Press TotEng PotEng Enthalpy 
  480495    224.36921    24.678906   -63853.464   -64423.383   -63848.278 
  490000    199.32904    19.696184   -64004.951   -64511.265   -64000.823 
Loop time of 999.94 on 2 procs for 9505 steps with 19652 atoms

Performance: 0.821 ns/day, 29.223 hours/ns, 9.506 timesteps/s
92.6% CPU use with 2 MPI tasks x no OpenMP threads

MPI task timing breakdown:
Section |  min time  |  avg time  |  max time  |%varavg| %total
---------------------------------------------------------------
Pair    | 543.14     | 546.15     | 549.15     |  12.9 | 54.62
Neigh   | 383.51     | 384        | 384.48     |   2.5 | 38.40
Comm    | 52.575     | 54.841     | 57.107     |  30.6 |  5.48
Output  | 0.039191   | 0.039283   | 0.039375   |   0.0 |  0.00
Modify  | 11.587     | 11.803     | 12.019     |   6.3 |  1.18
Other   |            | 3.111      |            |       |  0.31

Nlocal:    9826 ave 9835 max 9817 min
Histogram: 1 0 0 0 0 0 0 0 0 1
Nghost:    12846.5 ave 12853 max 12840 min
Histogram: 1 0 0 0 0 0 0 0 0 1
Neighs:    737858 ave 738164 max 737551 min
Histogram: 1 0 0 0 0 0 0 0 0 1

Total # of neighbors = 1475715
Ave neighs/atom = 75.0924
Neighbor list builds = 9505
Dangerous builds not checked
Setting up Verlet run ...
  Unit style    : metal
  Current step  : 490000
  Time step     : 0.001
Per MPI rank memory allocation (min/avg/max) = 11.35 | 11.35 | 11.35 Mbytes
Step Temp Press TotEng PotEng Enthalpy 
  490000    199.32904    19.696184   -64004.951   -64511.265   -64000.823 
  490495    176.30012   -133.51268   -64132.918   -64580.736   -64160.841 
Loop time of 51.6597 on 2 procs for 495 steps with 19652 atoms

Performance: 0.828 ns/day, 28.990 hours/ns, 9.582 timesteps/s
93.5% CPU use with 2 MPI tasks x no OpenMP threads

MPI task timing breakdown:
Section |  min time  |  avg time  |  max time  |%varavg| %total
---------------------------------------------------------------
Pair    | 28.279     | 28.545     | 28.811     |   5.0 | 55.26
Neigh   | 19.659     | 19.777     | 19.896     |   2.7 | 38.28
Comm    | 2.1243     | 2.5163     | 2.9083     |  24.7 |  4.87
Output  | 0.00011206 | 0.020455   | 0.040799   |  14.2 |  0.04
Modify  | 0.60525    | 0.60993    | 0.61461    |   0.6 |  1.18
Other   |            | 0.1906     |            |       |  0.37

Nlocal:    9826 ave 9834 max 9818 min
Histogram: 1 0 0 0 0 0 0 0 0 1
Nghost:    12868 ave 12871 max 12865 min
Histogram: 1 0 0 0 0 0 0 0 0 1
Neighs:    739318 ave 739898 max 738739 min
Histogram: 1 0 0 0 0 0 0 0 0 1

Total # of neighbors = 1478637
Ave neighs/atom = 75.241
Neighbor list builds = 495
Dangerous builds not checked
Setting up Verlet run ...
  Unit style    : metal
  Current step  : 490495
  Time step     : 0.001
Per MPI rank memory allocation (min/avg/max) = 11.35 | 11.35 | 11.35 Mbytes
Step Temp Press TotEng PotEng Enthalpy 
  490495    176.30012   -133.51268   -64132.918   -64580.736   -64160.841 
  500000     149.6628    104.43371   -64278.544   -64658.701   -64256.761 
Loop time of 949.936 on 2 procs for 9505 steps with 19652 atoms

Performance: 0.865 ns/day, 27.761 hours/ns, 10.006 timesteps/s
95.5% CPU use with 2 MPI tasks x no OpenMP threads

MPI task timing breakdown:
Section |  min time  |  avg time  |  max time  |%varavg| %total
---------------------------------------------------------------
Pair    | 516.5      | 519.64     | 522.78     |  13.8 | 54.70
Neigh   | 371.9      | 372.19     | 372.49     |   1.5 | 39.18
Comm    | 41.518     | 44.386     | 47.254     |  43.1 |  4.67
Output  | 0.042102   | 0.042158   | 0.042215   |   0.0 |  0.00
Modify  | 10.604     | 10.64      | 10.676     |   1.1 |  1.12
Other   |            | 3.034      |            |       |  0.32

Nlocal:    9826 ave 9832 max 9820 min
Histogram: 1 0 0 0 0 0 0 0 0 1
Nghost:    12892 ave 12895 max 12889 min
Histogram: 1 0 0 0 0 0 0 0 0 1
Neighs:    741174 ave 741440 max 740907 min
Histogram: 1 0 0 0 0 0 0 0 0 1

Total # of neighbors = 1482347
Ave neighs/atom = 75.4298
Neighbor list builds = 9505
Dangerous builds not checked
Setting up Verlet run ...
  Unit style    : metal
  Current step  : 500000
  Time step     : 0.001
Per MPI rank memory allocation (min/avg/max) = 11.35 | 11.35 | 11.35 Mbytes
Step Temp Press TotEng PotEng Enthalpy 
  500000     149.6628    104.43371   -64278.544   -64658.701   -64256.761 
  500495    126.99027   -199.03379   -64398.372   -64720.939   -64439.809 
Loop time of 45.853 on 2 procs for 495 steps with 19652 atoms

Performance: 0.933 ns/day, 25.731 hours/ns, 10.795 timesteps/s
99.4% CPU use with 2 MPI tasks x no OpenMP threads

MPI task timing breakdown:
Section |  min time  |  avg time  |  max time  |%varavg| %total
---------------------------------------------------------------
Pair    | 24.941     | 24.946     | 24.952     |   0.1 | 54.41
Neigh   | 18.311     | 18.687     | 19.063     |   8.7 | 40.75
Comm    | 1.1903     | 1.5698     | 1.9494     |  30.3 |  3.42
Output  | 0.00011706 | 0.00018609 | 0.00025511 |   0.0 |  0.00
Modify  | 0.49212    | 0.49714    | 0.50216    |   0.7 |  1.08
Other   |            | 0.1527     |            |       |  0.33

Nlocal:    9826 ave 9832 max 9820 min
Histogram: 1 0 0 0 0 0 0 0 0 1
Nghost:    12912.5 ave 12919 max 12906 min
Histogram: 1 0 0 0 0 0 0 0 0 1
Neighs:    742583 ave 743004 max 742162 min
Histogram: 1 0 0 0 0 0 0 0 0 1

Total # of neighbors = 1485166
Ave neighs/atom = 75.5733
Neighbor list builds = 495
Dangerous builds not checked
Setting up Verlet run ...
  Unit style    : metal
  Current step  : 500495
  Time step     : 0.001
Per MPI rank memory allocation (min/avg/max) = 11.35 | 11.35 | 11.35 Mbytes
Step Temp Press TotEng PotEng Enthalpy 
  500495    126.99027   -199.03379   -64398.372   -64720.939   -64439.809 
  510000     100.1125    37.737296   -64548.493   -64802.788   -64540.656 
Loop time of 895.429 on 2 procs for 9505 steps with 19652 atoms

Performance: 0.917 ns/day, 26.168 hours/ns, 10.615 timesteps/s
97.7% CPU use with 2 MPI tasks x no OpenMP threads

MPI task timing breakdown:
Section |  min time  |  avg time  |  max time  |%varavg| %total
---------------------------------------------------------------
Pair    | 480.88     | 483.47     | 486.07     |  11.8 | 53.99
Neigh   | 351.38     | 351.98     | 352.57     |   3.2 | 39.31
Comm    | 44.9       | 46.886     | 48.872     |  29.0 |  5.24
Output  | 0.041167   | 0.041267   | 0.041367   |   0.0 |  0.00
Modify  | 10.145     | 10.153     | 10.162     |   0.3 |  1.13
Other   |            | 2.898      |            |       |  0.32

Nlocal:    9826 ave 9826 max 9826 min
Histogram: 2 0 0 0 0 0 0 0 0 0
Nghost:    12912 ave 12915 max 12909 min
Histogram: 1 0 0 0 0 0 0 0 0 1
Neighs:    743938 ave 743977 max 743898 min
Histogram: 1 0 0 0 0 0 0 0 0 1

Total # of neighbors = 1487875
Ave neighs/atom = 75.7111
Neighbor list builds = 9505
Dangerous builds not checked
Total wall time: 13:32:44
