LAMMPS (12 Dec 2018)
Lattice spacing in x,y,z = 4 4 4
Created orthogonal box = (0 0 0) to (68 68 68)
  1 by 1 by 1 MPI processor grid
Created 19652 atoms
  Time spent = 0.00422788 secs
Setting atom values ...
  206 settings made for type/fraction
Neighbor list info ...
  update every 1 steps, delay 0 steps, check no
  max neighbors/atom: 2000, page size: 100000
  master list distance cutoff = 8.5
  ghost atom cutoff = 8.5
  binsize = 4.25, bins = 16 16 16
  1 neighbor lists, perpetual/occasional/extra = 1 0 0
  (1) pair eam/alloy, perpetual
      attributes: half, newton on
      pair build: half/bin/atomonly/newton
      stencil: half/bin/3d/newton
      bin: standard
Setting up Verlet run ...
  Unit style    : metal
  Current step  : 0
  Time step     : 0.001
Per MPI rank memory allocation (min/avg/max) = 18.19 | 18.19 | 18.19 Mbytes
Step Temp Press TotEng PotEng Enthalpy 
       0          300    639595.78   -102542.49   -103304.52    22980.119 
    1000     195.4745    579922.08   -102542.43   -103038.95    11269.039 
Loop time of 179.614 on 1 procs for 1000 steps with 19652 atoms

Performance: 0.481 ns/day, 49.893 hours/ns, 5.568 timesteps/s
95.6% CPU use with 1 MPI tasks x no OpenMP threads

MPI task timing breakdown:
Section |  min time  |  avg time  |  max time  |%varavg| %total
---------------------------------------------------------------
Pair    | 103.1      | 103.1      | 103.1      |   0.0 | 57.40
Neigh   | 73.962     | 73.962     | 73.962     |   0.0 | 41.18
Comm    | 1.5174     | 1.5174     | 1.5174     |   0.0 |  0.84
Output  | 0.00033092 | 0.00033092 | 0.00033092 |   0.0 |  0.00
Modify  | 0.54156    | 0.54156    | 0.54156    |   0.0 |  0.30
Other   |            | 0.4957     |            |       |  0.28

Nlocal:    19652 ave 19652 max 19652 min
Histogram: 1 0 0 0 0 0 0 0 0 0
Nghost:    19958 ave 19958 max 19958 min
Histogram: 1 0 0 0 0 0 0 0 0 0
Neighs:    1.56435e+06 ave 1.56435e+06 max 1.56435e+06 min
Histogram: 1 0 0 0 0 0 0 0 0 0

Total # of neighbors = 1564347
Ave neighs/atom = 79.6024
Neighbor list builds = 1000
Dangerous builds not checked
Setting up Verlet run ...
  Unit style    : metal
  Current step  : 1000
  Time step     : 0.001
Per MPI rank memory allocation (min/avg/max) = 18.19 | 18.19 | 18.19 Mbytes
Step Temp Press TotEng PotEng Enthalpy 
    1000     195.4745    579922.08   -102542.43   -103038.95    11269.039 
    2000     300.0205    8.3604192   -121875.11   -122637.19   -121872.73 
Loop time of 147.533 on 1 procs for 1000 steps with 19652 atoms

Performance: 0.586 ns/day, 40.981 hours/ns, 6.778 timesteps/s
95.4% CPU use with 1 MPI tasks x no OpenMP threads

MPI task timing breakdown:
Section |  min time  |  avg time  |  max time  |%varavg| %total
---------------------------------------------------------------
Pair    | 79.776     | 79.776     | 79.776     |   0.0 | 54.07
Neigh   | 64.309     | 64.309     | 64.309     |   0.0 | 43.59
Comm    | 1.2488     | 1.2488     | 1.2488     |   0.0 |  0.85
Output  | 0.00029802 | 0.00029802 | 0.00029802 |   0.0 |  0.00
Modify  | 1.7049     | 1.7049     | 1.7049     |   0.0 |  1.16
Other   |            | 0.4937     |            |       |  0.33

Nlocal:    19652 ave 19652 max 19652 min
Histogram: 1 0 0 0 0 0 0 0 0 0
Nghost:    14826 ave 14826 max 14826 min
Histogram: 1 0 0 0 0 0 0 0 0 0
Neighs:    1.09624e+06 ave 1.09624e+06 max 1.09624e+06 min
Histogram: 1 0 0 0 0 0 0 0 0 0

Total # of neighbors = 1096240
Ave neighs/atom = 55.7826
Neighbor list builds = 1000
Dangerous builds not checked
Setting up Verlet run ...
  Unit style    : metal
  Current step  : 2000
  Time step     : 0.001
Per MPI rank memory allocation (min/avg/max) = 18.19 | 18.19 | 18.19 Mbytes
Step Temp Press TotEng PotEng Enthalpy 
    2000     300.0205    8.3604192   -121875.11   -122637.19   -121872.73 
    6667    1542.4145   -1336.1555    -114511.1   -118428.98   -114902.54 
   10000    2437.9478   -334.03655   -106562.39      -112755   -106664.06 
Loop time of 1122.77 on 1 procs for 8000 steps with 19652 atoms

Performance: 0.616 ns/day, 38.985 hours/ns, 7.125 timesteps/s
94.6% CPU use with 1 MPI tasks x no OpenMP threads

MPI task timing breakdown:
Section |  min time  |  avg time  |  max time  |%varavg| %total
---------------------------------------------------------------
Pair    | 608.16     | 608.16     | 608.16     |   0.0 | 54.17
Neigh   | 486.52     | 486.52     | 486.52     |   0.0 | 43.33
Comm    | 10.084     | 10.084     | 10.084     |   0.0 |  0.90
Output  | 0.065385   | 0.065385   | 0.065385   |   0.0 |  0.01
Modify  | 14.111     | 14.111     | 14.111     |   0.0 |  1.26
Other   |            | 3.829      |            |       |  0.34

Nlocal:    19652 ave 19652 max 19652 min
Histogram: 1 0 0 0 0 0 0 0 0 0
Nghost:    15624 ave 15624 max 15624 min
Histogram: 1 0 0 0 0 0 0 0 0 0
Neighs:    1.00771e+06 ave 1.00771e+06 max 1.00771e+06 min
Histogram: 1 0 0 0 0 0 0 0 0 0

Total # of neighbors = 1007713
Ave neighs/atom = 51.2779
Neighbor list builds = 8000
Dangerous builds not checked
Setting up Verlet run ...
  Unit style    : metal
  Current step  : 10000
  Time step     : 0.001
Per MPI rank memory allocation (min/avg/max) = 18.19 | 18.19 | 18.19 Mbytes
Step Temp Press TotEng PotEng Enthalpy 
   10000    2437.9478   -334.03655   -106562.39      -112755   -106664.06 
   13334    2439.7121    626.93694   -106387.91      -112585   -106197.16 
   20001    2444.6622    352.06166    -106362.5   -112572.17    -106255.3 
   26668    2435.3394   -1096.9421   -106387.47   -112573.45    -106722.2 
   33335    2447.0458   -517.63699   -106428.28      -112644   -106586.02 
   40000    2459.7636    102.24316   -106322.66   -112570.68   -106291.51 
Loop time of 4777.72 on 1 procs for 30000 steps with 19652 atoms

Performance: 0.543 ns/day, 44.238 hours/ns, 6.279 timesteps/s
85.9% CPU use with 1 MPI tasks x no OpenMP threads

MPI task timing breakdown:
Section |  min time  |  avg time  |  max time  |%varavg| %total
---------------------------------------------------------------
Pair    | 2539.2     | 2539.2     | 2539.2     |   0.0 | 53.15
Neigh   | 2125.7     | 2125.7     | 2125.7     |   0.0 | 44.49
Comm    | 40.737     | 40.737     | 40.737     |   0.0 |  0.85
Output  | 0.26385    | 0.26385    | 0.26385    |   0.0 |  0.01
Modify  | 56.735     | 56.735     | 56.735     |   0.0 |  1.19
Other   |            | 15.09      |            |       |  0.32

Nlocal:    19652 ave 19652 max 19652 min
Histogram: 1 0 0 0 0 0 0 0 0 0
Nghost:    15613 ave 15613 max 15613 min
Histogram: 1 0 0 0 0 0 0 0 0 0
Neighs:    1.00631e+06 ave 1.00631e+06 max 1.00631e+06 min
Histogram: 1 0 0 0 0 0 0 0 0 0

Total # of neighbors = 1006314
Ave neighs/atom = 51.2067
Neighbor list builds = 30000
Dangerous builds not checked
Setting up Verlet run ...
  Unit style    : metal
  Current step  : 40000
  Time step     : 0.001
Per MPI rank memory allocation (min/avg/max) = 18.19 | 18.19 | 18.19 Mbytes
Step Temp Press TotEng PotEng Enthalpy 
   40000    2459.7636    102.24316   -106322.66   -112570.68   -106291.51 
   40002    2460.6596    97.282167   -106322.67   -112572.97   -106293.03 
   40495    2413.1479    32.886615   -106636.04   -112765.65   -106626.04 
Loop time of 69.5833 on 1 procs for 495 steps with 19652 atoms

Performance: 0.615 ns/day, 39.048 hours/ns, 7.114 timesteps/s
97.7% CPU use with 1 MPI tasks x no OpenMP threads

MPI task timing breakdown:
Section |  min time  |  avg time  |  max time  |%varavg| %total
---------------------------------------------------------------
Pair    | 37.426     | 37.426     | 37.426     |   0.0 | 53.79
Neigh   | 30.372     | 30.372     | 30.372     |   0.0 | 43.65
Comm    | 0.62716    | 0.62716    | 0.62716    |   0.0 |  0.90
Output  | 0.065723   | 0.065723   | 0.065723   |   0.0 |  0.09
Modify  | 0.86386    | 0.86386    | 0.86386    |   0.0 |  1.24
Other   |            | 0.2288     |            |       |  0.33

Nlocal:    19652 ave 19652 max 19652 min
Histogram: 1 0 0 0 0 0 0 0 0 0
Nghost:    15715 ave 15715 max 15715 min
Histogram: 1 0 0 0 0 0 0 0 0 0
Neighs:    1.00873e+06 ave 1.00873e+06 max 1.00873e+06 min
Histogram: 1 0 0 0 0 0 0 0 0 0

Total # of neighbors = 1008729
Ave neighs/atom = 51.3296
Neighbor list builds = 495
Dangerous builds not checked
Setting up Verlet run ...
  Unit style    : metal
  Current step  : 40495
  Time step     : 0.001
Per MPI rank memory allocation (min/avg/max) = 18.19 | 18.19 | 18.19 Mbytes
Step Temp Press TotEng PotEng Enthalpy 
   40495    2413.1479    32.886615   -106636.04   -112765.65   -106626.04 
   46667    2426.9514    1667.4168   -106666.26   -112830.94   -106160.57 
Loop time of 907.845 on 1 procs for 6172 steps with 19652 atoms

Performance: 0.587 ns/day, 40.859 hours/ns, 6.799 timesteps/s
99.2% CPU use with 1 MPI tasks x no OpenMP threads

MPI task timing breakdown:
Section |  min time  |  avg time  |  max time  |%varavg| %total
---------------------------------------------------------------
Pair    | 490.04     | 490.04     | 490.04     |   0.0 | 53.98
Neigh   | 395.68     | 395.68     | 395.68     |   0.0 | 43.58
Comm    | 8.1921     | 8.1921     | 8.1921     |   0.0 |  0.90
Output  | 0.001339   | 0.001339   | 0.001339   |   0.0 |  0.00
Modify  | 10.969     | 10.969     | 10.969     |   0.0 |  1.21
Other   |            | 2.962      |            |       |  0.33

Nlocal:    19652 ave 19652 max 19652 min
Histogram: 1 0 0 0 0 0 0 0 0 0
Nghost:    15703 ave 15703 max 15703 min
Histogram: 1 0 0 0 0 0 0 0 0 0
Neighs:    1.01149e+06 ave 1.01149e+06 max 1.01149e+06 min
Histogram: 1 0 0 0 0 0 0 0 0 0

Total # of neighbors = 1011494
Ave neighs/atom = 51.4703
Neighbor list builds = 6172
Dangerous builds not checked
Setting up Verlet run ...
  Unit style    : metal
  Current step  : 46667
  Time step     : 0.001
Per MPI rank memory allocation (min/avg/max) = 18.19 | 18.19 | 18.19 Mbytes
Step Temp Press TotEng PotEng Enthalpy 
   46667    2426.9514    1667.4168   -106666.26   -112830.94   -106160.57 
   46669    2426.6517    1666.1836   -106666.29   -112830.21   -106160.97 
   47162    2372.0312    1436.6504   -106916.59   -112941.77   -106481.27 
Loop time of 76.7893 on 1 procs for 495 steps with 19652 atoms

Performance: 0.557 ns/day, 43.092 hours/ns, 6.446 timesteps/s
83.8% CPU use with 1 MPI tasks x no OpenMP threads

MPI task timing breakdown:
Section |  min time  |  avg time  |  max time  |%varavg| %total
---------------------------------------------------------------
Pair    | 40.796     | 40.796     | 40.796     |   0.0 | 53.13
Neigh   | 34.084     | 34.084     | 34.084     |   0.0 | 44.39
Comm    | 0.68424    | 0.68424    | 0.68424    |   0.0 |  0.89
Output  | 0.070059   | 0.070059   | 0.070059   |   0.0 |  0.09
Modify  | 0.89351    | 0.89351    | 0.89351    |   0.0 |  1.16
Other   |            | 0.2618     |            |       |  0.34

Nlocal:    19652 ave 19652 max 19652 min
Histogram: 1 0 0 0 0 0 0 0 0 0
Nghost:    15694 ave 15694 max 15694 min
Histogram: 1 0 0 0 0 0 0 0 0 0
Neighs:    1.01218e+06 ave 1.01218e+06 max 1.01218e+06 min
Histogram: 1 0 0 0 0 0 0 0 0 0

Total # of neighbors = 1012177
Ave neighs/atom = 51.505
Neighbor list builds = 495
Dangerous builds not checked
Setting up Verlet run ...
  Unit style    : metal
  Current step  : 47162
  Time step     : 0.001
Per MPI rank memory allocation (min/avg/max) = 18.19 | 18.19 | 18.19 Mbytes
Step Temp Press TotEng PotEng Enthalpy 
   47162    2372.0312    1436.6504   -106916.59   -112941.77   -106481.27 
   53334    2328.9466     166.9142   -107044.57   -112960.31   -106993.91 
Loop time of 1036.55 on 1 procs for 6172 steps with 19652 atoms

Performance: 0.514 ns/day, 46.651 hours/ns, 5.954 timesteps/s
78.7% CPU use with 1 MPI tasks x no OpenMP threads

MPI task timing breakdown:
Section |  min time  |  avg time  |  max time  |%varavg| %total
---------------------------------------------------------------
Pair    | 547.77     | 547.77     | 547.77     |   0.0 | 52.85
Neigh   | 464.33     | 464.33     | 464.33     |   0.0 | 44.80
Comm    | 8.821      | 8.821      | 8.821      |   0.0 |  0.85
Output  | 0.00022793 | 0.00022793 | 0.00022793 |   0.0 |  0.00
Modify  | 12.297     | 12.297     | 12.297     |   0.0 |  1.19
Other   |            | 3.327      |            |       |  0.32

Nlocal:    19652 ave 19652 max 19652 min
Histogram: 1 0 0 0 0 0 0 0 0 0
Nghost:    15696 ave 15696 max 15696 min
Histogram: 1 0 0 0 0 0 0 0 0 0
Neighs:    1.01083e+06 ave 1.01083e+06 max 1.01083e+06 min
Histogram: 1 0 0 0 0 0 0 0 0 0

Total # of neighbors = 1010826
Ave neighs/atom = 51.4363
Neighbor list builds = 6172
Dangerous builds not checked
Setting up Verlet run ...
  Unit style    : metal
  Current step  : 53334
  Time step     : 0.001
Per MPI rank memory allocation (min/avg/max) = 18.19 | 18.19 | 18.19 Mbytes
Step Temp Press TotEng PotEng Enthalpy 
   53334    2328.9466     166.9142   -107044.57   -112960.31   -106993.91 
   53336    2329.1281    170.10859   -107044.55   -112960.75   -106992.92 
   53829     2322.392   -10.341617   -107204.72   -113103.81   -107207.86 
Loop time of 76.5831 on 1 procs for 495 steps with 19652 atoms

Performance: 0.558 ns/day, 42.976 hours/ns, 6.464 timesteps/s
84.3% CPU use with 1 MPI tasks x no OpenMP threads

MPI task timing breakdown:
Section |  min time  |  avg time  |  max time  |%varavg| %total
---------------------------------------------------------------
Pair    | 40.605     | 40.605     | 40.605     |   0.0 | 53.02
Neigh   | 34.036     | 34.036     | 34.036     |   0.0 | 44.44
Comm    | 0.63873    | 0.63873    | 0.63873    |   0.0 |  0.83
Output  | 0.13515    | 0.13515    | 0.13515    |   0.0 |  0.18
Modify  | 0.93369    | 0.93369    | 0.93369    |   0.0 |  1.22
Other   |            | 0.2347     |            |       |  0.31

Nlocal:    19652 ave 19652 max 19652 min
Histogram: 1 0 0 0 0 0 0 0 0 0
Nghost:    15716 ave 15716 max 15716 min
Histogram: 1 0 0 0 0 0 0 0 0 0
Neighs:    1.01266e+06 ave 1.01266e+06 max 1.01266e+06 min
Histogram: 1 0 0 0 0 0 0 0 0 0

Total # of neighbors = 1012661
Ave neighs/atom = 51.5297
Neighbor list builds = 495
Dangerous builds not checked
Setting up Verlet run ...
  Unit style    : metal
  Current step  : 53829
  Time step     : 0.001
Per MPI rank memory allocation (min/avg/max) = 18.19 | 18.19 | 18.19 Mbytes
Step Temp Press TotEng PotEng Enthalpy 
   53829     2322.392   -10.341617   -107204.72   -113103.81   -107207.86 
   60001    2300.2563    1468.8089   -107254.05   -113096.91   -106810.11 
Loop time of 1070.59 on 1 procs for 6172 steps with 19652 atoms

Performance: 0.498 ns/day, 48.183 hours/ns, 5.765 timesteps/s
77.7% CPU use with 1 MPI tasks x no OpenMP threads

MPI task timing breakdown:
Section |  min time  |  avg time  |  max time  |%varavg| %total
---------------------------------------------------------------
Pair    | 569.25     | 569.25     | 569.25     |   0.0 | 53.17
Neigh   | 476.26     | 476.26     | 476.26     |   0.0 | 44.49
Comm    | 9.1112     | 9.1112     | 9.1112     |   0.0 |  0.85
Output  | 0.00019717 | 0.00019717 | 0.00019717 |   0.0 |  0.00
Modify  | 12.707     | 12.707     | 12.707     |   0.0 |  1.19
Other   |            | 3.255      |            |       |  0.30

Nlocal:    19652 ave 19652 max 19652 min
Histogram: 1 0 0 0 0 0 0 0 0 0
Nghost:    15681 ave 15681 max 15681 min
Histogram: 1 0 0 0 0 0 0 0 0 0
Neighs:    1.01524e+06 ave 1.01524e+06 max 1.01524e+06 min
Histogram: 1 0 0 0 0 0 0 0 0 0

Total # of neighbors = 1015237
Ave neighs/atom = 51.6607
Neighbor list builds = 6172
Dangerous builds not checked
Setting up Verlet run ...
  Unit style    : metal
  Current step  : 60001
  Time step     : 0.001
Per MPI rank memory allocation (min/avg/max) = 18.19 | 18.19 | 18.19 Mbytes
Step Temp Press TotEng PotEng Enthalpy 
   60001    2300.2563    1468.8089   -107254.05   -113096.91   -106810.11 
   60003    2300.0306    1477.9304   -107254.05   -113096.34   -106807.35 
   60496    2273.2843    1750.6328   -107532.18   -113306.53   -107004.42 
Loop time of 86.2091 on 1 procs for 495 steps with 19652 atoms

Performance: 0.496 ns/day, 48.378 hours/ns, 5.742 timesteps/s
75.8% CPU use with 1 MPI tasks x no OpenMP threads

MPI task timing breakdown:
Section |  min time  |  avg time  |  max time  |%varavg| %total
---------------------------------------------------------------
Pair    | 45.673     | 45.673     | 45.673     |   0.0 | 52.98
Neigh   | 38.418     | 38.418     | 38.418     |   0.0 | 44.56
Comm    | 0.71982    | 0.71982    | 0.71982    |   0.0 |  0.83
Output  | 0.061946   | 0.061946   | 0.061946   |   0.0 |  0.07
Modify  | 1.0763     | 1.0763     | 1.0763     |   0.0 |  1.25
Other   |            | 0.2599     |            |       |  0.30

Nlocal:    19652 ave 19652 max 19652 min
Histogram: 1 0 0 0 0 0 0 0 0 0
Nghost:    15772 ave 15772 max 15772 min
Histogram: 1 0 0 0 0 0 0 0 0 0
Neighs:    1.01751e+06 ave 1.01751e+06 max 1.01751e+06 min
Histogram: 1 0 0 0 0 0 0 0 0 0

Total # of neighbors = 1017514
Ave neighs/atom = 51.7766
Neighbor list builds = 495
Dangerous builds not checked
Setting up Verlet run ...
  Unit style    : metal
  Current step  : 60496
  Time step     : 0.001
Per MPI rank memory allocation (min/avg/max) = 18.19 | 18.19 | 18.19 Mbytes
Step Temp Press TotEng PotEng Enthalpy 
   60496    2273.2843    1750.6328   -107532.18   -113306.53   -107004.42 
   66668    2255.5835   -248.79368   -107595.07   -113324.45   -107670.31 
Loop time of 1049.39 on 1 procs for 6172 steps with 19652 atoms

Performance: 0.508 ns/day, 47.229 hours/ns, 5.882 timesteps/s
79.7% CPU use with 1 MPI tasks x no OpenMP threads

MPI task timing breakdown:
Section |  min time  |  avg time  |  max time  |%varavg| %total
---------------------------------------------------------------
Pair    | 560.36     | 560.36     | 560.36     |   0.0 | 53.40
Neigh   | 464.66     | 464.66     | 464.66     |   0.0 | 44.28
Comm    | 8.7115     | 8.7115     | 8.7115     |   0.0 |  0.83
Output  | 0.00020909 | 0.00020909 | 0.00020909 |   0.0 |  0.00
Modify  | 12.48      | 12.48      | 12.48      |   0.0 |  1.19
Other   |            | 3.178      |            |       |  0.30

Nlocal:    19652 ave 19652 max 19652 min
Histogram: 1 0 0 0 0 0 0 0 0 0
Nghost:    15692 ave 15692 max 15692 min
Histogram: 1 0 0 0 0 0 0 0 0 0
Neighs:    1.01431e+06 ave 1.01431e+06 max 1.01431e+06 min
Histogram: 1 0 0 0 0 0 0 0 0 0

Total # of neighbors = 1014313
Ave neighs/atom = 51.6137
Neighbor list builds = 6172
Dangerous builds not checked
Setting up Verlet run ...
  Unit style    : metal
  Current step  : 66668
  Time step     : 0.001
Per MPI rank memory allocation (min/avg/max) = 18.19 | 18.19 | 18.19 Mbytes
Step Temp Press TotEng PotEng Enthalpy 
   66668    2255.5835   -248.79368   -107595.07   -113324.45   -107670.31 
   66670    2255.0326   -238.62155   -107595.07   -113323.06   -107667.24 
   67163    2203.0853   -94.271569   -107855.61   -113451.65   -107884.07 
Loop time of 78.2546 on 1 procs for 495 steps with 19652 atoms

Performance: 0.547 ns/day, 43.914 hours/ns, 6.326 timesteps/s
82.8% CPU use with 1 MPI tasks x no OpenMP threads

MPI task timing breakdown:
Section |  min time  |  avg time  |  max time  |%varavg| %total
---------------------------------------------------------------
Pair    | 41.431     | 41.431     | 41.431     |   0.0 | 52.94
Neigh   | 34.847     | 34.847     | 34.847     |   0.0 | 44.53
Comm    | 0.68868    | 0.68868    | 0.68868    |   0.0 |  0.88
Output  | 0.076439   | 0.076439   | 0.076439   |   0.0 |  0.10
Modify  | 0.95882    | 0.95882    | 0.95882    |   0.0 |  1.23
Other   |            | 0.2533     |            |       |  0.32

Nlocal:    19652 ave 19652 max 19652 min
Histogram: 1 0 0 0 0 0 0 0 0 0
Nghost:    15706 ave 15706 max 15706 min
Histogram: 1 0 0 0 0 0 0 0 0 0
Neighs:    1.01642e+06 ave 1.01642e+06 max 1.01642e+06 min
Histogram: 1 0 0 0 0 0 0 0 0 0

Total # of neighbors = 1016423
Ave neighs/atom = 51.7211
Neighbor list builds = 495
Dangerous builds not checked
Setting up Verlet run ...
  Unit style    : metal
  Current step  : 67163
  Time step     : 0.001
Per MPI rank memory allocation (min/avg/max) = 18.19 | 18.19 | 18.19 Mbytes
Step Temp Press TotEng PotEng Enthalpy 
   67163    2203.0853   -94.271569   -107855.61   -113451.65   -107884.07 
   73335    2216.9257    854.68928   -107873.97   -113505.16   -107616.34 
Loop time of 1026.75 on 1 procs for 6172 steps with 19652 atoms

Performance: 0.519 ns/day, 46.210 hours/ns, 6.011 timesteps/s
81.9% CPU use with 1 MPI tasks x no OpenMP threads

MPI task timing breakdown:
Section |  min time  |  avg time  |  max time  |%varavg| %total
---------------------------------------------------------------
Pair    | 548.98     | 548.98     | 548.98     |   0.0 | 53.47
Neigh   | 454.03     | 454.03     | 454.03     |   0.0 | 44.22
Comm    | 8.5409     | 8.5409     | 8.5409     |   0.0 |  0.83
Output  | 0.00023103 | 0.00023103 | 0.00023103 |   0.0 |  0.00
Modify  | 12.053     | 12.053     | 12.053     |   0.0 |  1.17
Other   |            | 3.149      |            |       |  0.31

Nlocal:    19652 ave 19652 max 19652 min
Histogram: 1 0 0 0 0 0 0 0 0 0
Nghost:    15740 ave 15740 max 15740 min
Histogram: 1 0 0 0 0 0 0 0 0 0
Neighs:    1.01815e+06 ave 1.01815e+06 max 1.01815e+06 min
Histogram: 1 0 0 0 0 0 0 0 0 0

Total # of neighbors = 1018147
Ave neighs/atom = 51.8088
Neighbor list builds = 6172
Dangerous builds not checked
Setting up Verlet run ...
  Unit style    : metal
  Current step  : 73335
  Time step     : 0.001
Per MPI rank memory allocation (min/avg/max) = 18.19 | 18.19 | 18.19 Mbytes
Step Temp Press TotEng PotEng Enthalpy 
   73335    2216.9257    854.68928   -107873.97   -113505.16   -107616.34 
   73337    2216.9474    841.72065   -107873.98   -113505.23   -107620.27 
   73830    2173.7297    414.62242   -108137.67   -113659.14   -108012.82 
Loop time of 84.3166 on 1 procs for 495 steps with 19652 atoms

Performance: 0.507 ns/day, 47.316 hours/ns, 5.871 timesteps/s
80.1% CPU use with 1 MPI tasks x no OpenMP threads

MPI task timing breakdown:
Section |  min time  |  avg time  |  max time  |%varavg| %total
---------------------------------------------------------------
Pair    | 45.207     | 45.207     | 45.207     |   0.0 | 53.62
Neigh   | 37.04      | 37.04      | 37.04      |   0.0 | 43.93
Comm    | 0.74129    | 0.74129    | 0.74129    |   0.0 |  0.88
Output  | 0.066908   | 0.066908   | 0.066908   |   0.0 |  0.08
Modify  | 0.98382    | 0.98382    | 0.98382    |   0.0 |  1.17
Other   |            | 0.2775     |            |       |  0.33

Nlocal:    19652 ave 19652 max 19652 min
Histogram: 1 0 0 0 0 0 0 0 0 0
Nghost:    15800 ave 15800 max 15800 min
Histogram: 1 0 0 0 0 0 0 0 0 0
Neighs:    1.01962e+06 ave 1.01962e+06 max 1.01962e+06 min
Histogram: 1 0 0 0 0 0 0 0 0 0

Total # of neighbors = 1019623
Ave neighs/atom = 51.8839
Neighbor list builds = 495
Dangerous builds not checked
Setting up Verlet run ...
  Unit style    : metal
  Current step  : 73830
  Time step     : 0.001
Per MPI rank memory allocation (min/avg/max) = 18.19 | 18.19 | 18.19 Mbytes
Step Temp Press TotEng PotEng Enthalpy 
   73830    2173.7297    414.62242   -108137.67   -113659.14   -108012.82 
   80002    2145.1826   -1212.5303   -108207.53   -113656.49   -108573.43 
Loop time of 1023.62 on 1 procs for 6172 steps with 19652 atoms

Performance: 0.521 ns/day, 46.069 hours/ns, 6.030 timesteps/s
82.1% CPU use with 1 MPI tasks x no OpenMP threads

MPI task timing breakdown:
Section |  min time  |  avg time  |  max time  |%varavg| %total
---------------------------------------------------------------
Pair    | 547.23     | 547.23     | 547.23     |   0.0 | 53.46
Neigh   | 452.41     | 452.41     | 452.41     |   0.0 | 44.20
Comm    | 8.7579     | 8.7579     | 8.7579     |   0.0 |  0.86
Output  | 0.00033712 | 0.00033712 | 0.00033712 |   0.0 |  0.00
Modify  | 12.17      | 12.17      | 12.17      |   0.0 |  1.19
Other   |            | 3.055      |            |       |  0.30

Nlocal:    19652 ave 19652 max 19652 min
Histogram: 1 0 0 0 0 0 0 0 0 0
Nghost:    15768 ave 15768 max 15768 min
Histogram: 1 0 0 0 0 0 0 0 0 0
Neighs:    1.01668e+06 ave 1.01668e+06 max 1.01668e+06 min
Histogram: 1 0 0 0 0 0 0 0 0 0

Total # of neighbors = 1016685
Ave neighs/atom = 51.7344
Neighbor list builds = 6172
Dangerous builds not checked
Setting up Verlet run ...
  Unit style    : metal
  Current step  : 80002
  Time step     : 0.001
Per MPI rank memory allocation (min/avg/max) = 18.19 | 18.19 | 18.19 Mbytes
Step Temp Press TotEng PotEng Enthalpy 
   80002    2145.1826   -1212.5303   -108207.53   -113656.49   -108573.43 
   80004    2145.0794   -1209.3503   -108207.52   -113656.22   -108572.47 
   80497    2099.7342   -678.26241   -108438.57   -113772.09   -108642.95 
Loop time of 79.0329 on 1 procs for 495 steps with 19652 atoms

Performance: 0.541 ns/day, 44.351 hours/ns, 6.263 timesteps/s
83.4% CPU use with 1 MPI tasks x no OpenMP threads

MPI task timing breakdown:
Section |  min time  |  avg time  |  max time  |%varavg| %total
---------------------------------------------------------------
Pair    | 42.333     | 42.333     | 42.333     |   0.0 | 53.56
Neigh   | 34.789     | 34.789     | 34.789     |   0.0 | 44.02
Comm    | 0.66035    | 0.66035    | 0.66035    |   0.0 |  0.84
Output  | 0.066674   | 0.066674   | 0.066674   |   0.0 |  0.08
Modify  | 0.95223    | 0.95223    | 0.95223    |   0.0 |  1.20
Other   |            | 0.2315     |            |       |  0.29

Nlocal:    19652 ave 19652 max 19652 min
Histogram: 1 0 0 0 0 0 0 0 0 0
Nghost:    15812 ave 15812 max 15812 min
Histogram: 1 0 0 0 0 0 0 0 0 0
Neighs:    1.0186e+06 ave 1.0186e+06 max 1.0186e+06 min
Histogram: 1 0 0 0 0 0 0 0 0 0

Total # of neighbors = 1018602
Ave neighs/atom = 51.832
Neighbor list builds = 495
Dangerous builds not checked
Setting up Verlet run ...
  Unit style    : metal
  Current step  : 80497
  Time step     : 0.001
Per MPI rank memory allocation (min/avg/max) = 18.19 | 18.19 | 18.19 Mbytes
Step Temp Press TotEng PotEng Enthalpy 
   80497    2099.7342   -678.26241   -108438.57   -113772.09   -108642.95 
   86669    2092.3938   -177.86995    -108531.5   -113846.37      -108585 
Loop time of 931.325 on 1 procs for 6172 steps with 19652 atoms

Performance: 0.573 ns/day, 41.915 hours/ns, 6.627 timesteps/s
88.9% CPU use with 1 MPI tasks x no OpenMP threads

MPI task timing breakdown:
Section |  min time  |  avg time  |  max time  |%varavg| %total
---------------------------------------------------------------
Pair    | 496.38     | 496.38     | 496.38     |   0.0 | 53.30
Neigh   | 412.75     | 412.75     | 412.75     |   0.0 | 44.32
Comm    | 8.0342     | 8.0342     | 8.0342     |   0.0 |  0.86
Output  | 0.00017309 | 0.00017309 | 0.00017309 |   0.0 |  0.00
Modify  | 11.161     | 11.161     | 11.161     |   0.0 |  1.20
Other   |            | 3.008      |            |       |  0.32

Nlocal:    19652 ave 19652 max 19652 min
Histogram: 1 0 0 0 0 0 0 0 0 0
Nghost:    15736 ave 15736 max 15736 min
Histogram: 1 0 0 0 0 0 0 0 0 0
Neighs:    1.02045e+06 ave 1.02045e+06 max 1.02045e+06 min
Histogram: 1 0 0 0 0 0 0 0 0 0

Total # of neighbors = 1020447
Ave neighs/atom = 51.9259
Neighbor list builds = 6172
Dangerous builds not checked
Setting up Verlet run ...
  Unit style    : metal
  Current step  : 86669
  Time step     : 0.001
Per MPI rank memory allocation (min/avg/max) = 18.19 | 18.19 | 18.19 Mbytes
Step Temp Press TotEng PotEng Enthalpy 
   86669    2092.3938   -177.86995    -108531.5   -113846.37      -108585 
   86671    2092.6704   -173.11766   -108531.49   -113847.06   -108583.57 
   87164    2069.3881    439.48122   -108747.17    -114003.6   -108615.23 
Loop time of 62.8804 on 1 procs for 495 steps with 19652 atoms

Performance: 0.680 ns/day, 35.286 hours/ns, 7.872 timesteps/s
99.5% CPU use with 1 MPI tasks x no OpenMP threads

MPI task timing breakdown:
Section |  min time  |  avg time  |  max time  |%varavg| %total
---------------------------------------------------------------
Pair    | 32.905     | 32.905     | 32.905     |   0.0 | 52.33
Neigh   | 28.336     | 28.336     | 28.336     |   0.0 | 45.06
Comm    | 0.56574    | 0.56574    | 0.56574    |   0.0 |  0.90
Output  | 0.059042   | 0.059042   | 0.059042   |   0.0 |  0.09
Modify  | 0.79899    | 0.79899    | 0.79899    |   0.0 |  1.27
Other   |            | 0.2157     |            |       |  0.34

Nlocal:    19652 ave 19652 max 19652 min
Histogram: 1 0 0 0 0 0 0 0 0 0
Nghost:    15771 ave 15771 max 15771 min
Histogram: 1 0 0 0 0 0 0 0 0 0
Neighs:    1.02244e+06 ave 1.02244e+06 max 1.02244e+06 min
Histogram: 1 0 0 0 0 0 0 0 0 0

Total # of neighbors = 1022440
Ave neighs/atom = 52.0273
Neighbor list builds = 495
Dangerous builds not checked
Setting up Verlet run ...
  Unit style    : metal
  Current step  : 87164
  Time step     : 0.001
Per MPI rank memory allocation (min/avg/max) = 18.19 | 18.19 | 18.19 Mbytes
Step Temp Press TotEng PotEng Enthalpy 
   87164    2069.3881    439.48122   -108747.17    -114003.6   -108615.23 
   93336    2086.4375    1569.0761   -108789.88   -114089.62   -108319.72 
Loop time of 790.296 on 1 procs for 6172 steps with 19652 atoms

Performance: 0.675 ns/day, 35.568 hours/ns, 7.810 timesteps/s
99.9% CPU use with 1 MPI tasks x no OpenMP threads

MPI task timing breakdown:
Section |  min time  |  avg time  |  max time  |%varavg| %total
---------------------------------------------------------------
Pair    | 415.32     | 415.32     | 415.32     |   0.0 | 52.55
Neigh   | 355.78     | 355.78     | 355.78     |   0.0 | 45.02
Comm    | 6.9691     | 6.9691     | 6.9691     |   0.0 |  0.88
Output  | 0.00024486 | 0.00024486 | 0.00024486 |   0.0 |  0.00
Modify  | 9.6193     | 9.6193     | 9.6193     |   0.0 |  1.22
Other   |            | 2.614      |            |       |  0.33

Nlocal:    19652 ave 19652 max 19652 min
Histogram: 1 0 0 0 0 0 0 0 0 0
Nghost:    15741 ave 15741 max 15741 min
Histogram: 1 0 0 0 0 0 0 0 0 0
Neighs:    1.0249e+06 ave 1.0249e+06 max 1.0249e+06 min
Histogram: 1 0 0 0 0 0 0 0 0 0

Total # of neighbors = 1024901
Ave neighs/atom = 52.1525
Neighbor list builds = 6172
Dangerous builds not checked
Setting up Verlet run ...
  Unit style    : metal
  Current step  : 93336
  Time step     : 0.001
Per MPI rank memory allocation (min/avg/max) = 18.19 | 18.19 | 18.19 Mbytes
Step Temp Press TotEng PotEng Enthalpy 
   93336    2086.4375    1569.0761   -108789.88   -114089.62   -108319.72 
   93338    2085.7545    1575.7553   -108789.92   -114087.93   -108317.76 
   93831    2011.0586     1071.163   -109075.84   -114184.11   -108755.03 
Loop time of 61.8422 on 1 procs for 495 steps with 19652 atoms

Performance: 0.692 ns/day, 34.704 hours/ns, 8.004 timesteps/s
99.9% CPU use with 1 MPI tasks x no OpenMP threads

MPI task timing breakdown:
Section |  min time  |  avg time  |  max time  |%varavg| %total
---------------------------------------------------------------
Pair    | 32.35      | 32.35      | 32.35      |   0.0 | 52.31
Neigh   | 27.894     | 27.894     | 27.894     |   0.0 | 45.11
Comm    | 0.54445    | 0.54445    | 0.54445    |   0.0 |  0.88
Output  | 0.070782   | 0.070782   | 0.070782   |   0.0 |  0.11
Modify  | 0.77468    | 0.77468    | 0.77468    |   0.0 |  1.25
Other   |            | 0.2084     |            |       |  0.34

Nlocal:    19652 ave 19652 max 19652 min
Histogram: 1 0 0 0 0 0 0 0 0 0
Nghost:    15737 ave 15737 max 15737 min
Histogram: 1 0 0 0 0 0 0 0 0 0
Neighs:    1.0258e+06 ave 1.0258e+06 max 1.0258e+06 min
Histogram: 1 0 0 0 0 0 0 0 0 0

Total # of neighbors = 1025795
Ave neighs/atom = 52.198
Neighbor list builds = 495
Dangerous builds not checked
Setting up Verlet run ...
  Unit style    : metal
  Current step  : 93831
  Time step     : 0.001
Per MPI rank memory allocation (min/avg/max) = 18.19 | 18.19 | 18.19 Mbytes
Step Temp Press TotEng PotEng Enthalpy 
   93831    2011.0586     1071.163   -109075.84   -114184.11   -108755.03 
  100003    2000.4724    950.62922   -109149.74   -114231.12   -108865.14 
Loop time of 803.917 on 1 procs for 6172 steps with 19652 atoms

Performance: 0.663 ns/day, 36.181 hours/ns, 7.677 timesteps/s
99.6% CPU use with 1 MPI tasks x no OpenMP threads

MPI task timing breakdown:
Section |  min time  |  avg time  |  max time  |%varavg| %total
---------------------------------------------------------------
Pair    | 425.56     | 425.56     | 425.56     |   0.0 | 52.94
Neigh   | 358.97     | 358.97     | 358.97     |   0.0 | 44.65
Comm    | 7.0547     | 7.0547     | 7.0547     |   0.0 |  0.88
Output  | 0.00017095 | 0.00017095 | 0.00017095 |   0.0 |  0.00
Modify  | 9.7182     | 9.7182     | 9.7182     |   0.0 |  1.21
Other   |            | 2.621      |            |       |  0.33

Nlocal:    19652 ave 19652 max 19652 min
Histogram: 1 0 0 0 0 0 0 0 0 0
Nghost:    15830 ave 15830 max 15830 min
Histogram: 1 0 0 0 0 0 0 0 0 0
Neighs:    1.02642e+06 ave 1.02642e+06 max 1.02642e+06 min
Histogram: 1 0 0 0 0 0 0 0 0 0

Total # of neighbors = 1026415
Ave neighs/atom = 52.2295
Neighbor list builds = 6172
Dangerous builds not checked
Setting up Verlet run ...
  Unit style    : metal
  Current step  : 100003
  Time step     : 0.001
Per MPI rank memory allocation (min/avg/max) = 18.19 | 18.19 | 18.19 Mbytes
Step Temp Press TotEng PotEng Enthalpy 
  100003    2000.4724    950.62922   -109149.74   -114231.12   -108865.14 
  100005    2001.8665    946.02783   -109149.74   -114234.66   -108866.52 
  100498    1963.4719    35.909748   -109405.81   -114393.21   -109395.06 
Loop time of 58.3547 on 1 procs for 495 steps with 19652 atoms

Performance: 0.733 ns/day, 32.747 hours/ns, 8.483 timesteps/s
99.9% CPU use with 1 MPI tasks x no OpenMP threads

MPI task timing breakdown:
Section |  min time  |  avg time  |  max time  |%varavg| %total
---------------------------------------------------------------
Pair    | 30.5       | 30.5       | 30.5       |   0.0 | 52.27
Neigh   | 26.373     | 26.373     | 26.373     |   0.0 | 45.19
Comm    | 0.52396    | 0.52396    | 0.52396    |   0.0 |  0.90
Output  | 0.048795   | 0.048795   | 0.048795   |   0.0 |  0.08
Modify  | 0.71364    | 0.71364    | 0.71364    |   0.0 |  1.22
Other   |            | 0.1947     |            |       |  0.33

Nlocal:    19652 ave 19652 max 19652 min
Histogram: 1 0 0 0 0 0 0 0 0 0
Nghost:    15817 ave 15817 max 15817 min
Histogram: 1 0 0 0 0 0 0 0 0 0
Neighs:    1.02677e+06 ave 1.02677e+06 max 1.02677e+06 min
Histogram: 1 0 0 0 0 0 0 0 0 0

Total # of neighbors = 1026768
Ave neighs/atom = 52.2475
Neighbor list builds = 495
Dangerous builds not checked
Setting up Verlet run ...
  Unit style    : metal
  Current step  : 100498
  Time step     : 0.001
Per MPI rank memory allocation (min/avg/max) = 18.19 | 18.19 | 18.19 Mbytes
Step Temp Press TotEng PotEng Enthalpy 
  100498    1963.4719    35.909748   -109405.81   -114393.21   -109395.06 
  106670    1968.8459   -335.24215   -109409.51   -114410.56   -109509.89 
Loop time of 763.524 on 1 procs for 6172 steps with 19652 atoms

Performance: 0.698 ns/day, 34.363 hours/ns, 8.084 timesteps/s
99.7% CPU use with 1 MPI tasks x no OpenMP threads

MPI task timing breakdown:
Section |  min time  |  avg time  |  max time  |%varavg| %total
---------------------------------------------------------------
Pair    | 401.35     | 401.35     | 401.35     |   0.0 | 52.57
Neigh   | 343.87     | 343.87     | 343.87     |   0.0 | 45.04
Comm    | 6.6662     | 6.6662     | 6.6662     |   0.0 |  0.87
Output  | 0.00020218 | 0.00020218 | 0.00020218 |   0.0 |  0.00
Modify  | 9.1479     | 9.1479     | 9.1479     |   0.0 |  1.20
Other   |            | 2.481      |            |       |  0.32

Nlocal:    19652 ave 19652 max 19652 min
Histogram: 1 0 0 0 0 0 0 0 0 0
Nghost:    15742 ave 15742 max 15742 min
Histogram: 1 0 0 0 0 0 0 0 0 0
Neighs:    1.02622e+06 ave 1.02622e+06 max 1.02622e+06 min
Histogram: 1 0 0 0 0 0 0 0 0 0

Total # of neighbors = 1026219
Ave neighs/atom = 52.2196
Neighbor list builds = 6172
Dangerous builds not checked
Setting up Verlet run ...
  Unit style    : metal
  Current step  : 106670
  Time step     : 0.001
Per MPI rank memory allocation (min/avg/max) = 18.19 | 18.19 | 18.19 Mbytes
Step Temp Press TotEng PotEng Enthalpy 
  106670    1968.8459   -335.24215   -109409.51   -114410.56   -109509.89 
  106672    1970.4026    -353.9175   -109409.53   -114414.54    -109515.5 
  107165    1901.7905   -606.85598   -109709.69   -114540.41   -109891.14 
Loop time of 61.2294 on 1 procs for 495 steps with 19652 atoms

Performance: 0.698 ns/day, 34.360 hours/ns, 8.084 timesteps/s
99.8% CPU use with 1 MPI tasks x no OpenMP threads

MPI task timing breakdown:
Section |  min time  |  avg time  |  max time  |%varavg| %total
---------------------------------------------------------------
Pair    | 32.104     | 32.104     | 32.104     |   0.0 | 52.43
Neigh   | 27.575     | 27.575     | 27.575     |   0.0 | 45.04
Comm    | 0.54053    | 0.54053    | 0.54053    |   0.0 |  0.88
Output  | 0.051605   | 0.051605   | 0.051605   |   0.0 |  0.08
Modify  | 0.75419    | 0.75419    | 0.75419    |   0.0 |  1.23
Other   |            | 0.2037     |            |       |  0.33

Nlocal:    19652 ave 19652 max 19652 min
Histogram: 1 0 0 0 0 0 0 0 0 0
Nghost:    15785 ave 15785 max 15785 min
Histogram: 1 0 0 0 0 0 0 0 0 0
Neighs:    1.02742e+06 ave 1.02742e+06 max 1.02742e+06 min
Histogram: 1 0 0 0 0 0 0 0 0 0

Total # of neighbors = 1027423
Ave neighs/atom = 52.2808
Neighbor list builds = 495
Dangerous builds not checked
Setting up Verlet run ...
  Unit style    : metal
  Current step  : 107165
  Time step     : 0.001
Per MPI rank memory allocation (min/avg/max) = 18.19 | 18.19 | 18.19 Mbytes
Step Temp Press TotEng PotEng Enthalpy 
  107165    1901.7905   -606.85598   -109709.69   -114540.41   -109891.14 
  113337     1889.992   -1141.5449   -109888.89   -114689.65   -110230.27 
Loop time of 760.992 on 1 procs for 6172 steps with 19652 atoms

Performance: 0.701 ns/day, 34.249 hours/ns, 8.110 timesteps/s
99.8% CPU use with 1 MPI tasks x no OpenMP threads

MPI task timing breakdown:
Section |  min time  |  avg time  |  max time  |%varavg| %total
---------------------------------------------------------------
Pair    | 399.51     | 399.51     | 399.51     |   0.0 | 52.50
Neigh   | 343.21     | 343.21     | 343.21     |   0.0 | 45.10
Comm    | 6.6408     | 6.6408     | 6.6408     |   0.0 |  0.87
Output  | 0.00023198 | 0.00023198 | 0.00023198 |   0.0 |  0.00
Modify  | 9.1476     | 9.1476     | 9.1476     |   0.0 |  1.20
Other   |            | 2.483      |            |       |  0.33

Nlocal:    19652 ave 19652 max 19652 min
Histogram: 1 0 0 0 0 0 0 0 0 0
Nghost:    15786 ave 15786 max 15786 min
Histogram: 1 0 0 0 0 0 0 0 0 0
Neighs:    1.02776e+06 ave 1.02776e+06 max 1.02776e+06 min
Histogram: 1 0 0 0 0 0 0 0 0 0

Total # of neighbors = 1027762
Ave neighs/atom = 52.2981
Neighbor list builds = 6172
Dangerous builds not checked
Setting up Verlet run ...
  Unit style    : metal
  Current step  : 113337
  Time step     : 0.001
Per MPI rank memory allocation (min/avg/max) = 18.19 | 18.19 | 18.19 Mbytes
Step Temp Press TotEng PotEng Enthalpy 
  113337     1889.992   -1141.5449   -109888.89   -114689.65   -110230.27 
  113339     1889.914   -1148.4724   -109888.88   -114689.44   -110232.33 
  113832    1852.7287   -494.31544   -110087.41   -114793.51   -110234.96 
Loop time of 58.9378 on 1 procs for 495 steps with 19652 atoms

Performance: 0.726 ns/day, 33.074 hours/ns, 8.399 timesteps/s
99.9% CPU use with 1 MPI tasks x no OpenMP threads

MPI task timing breakdown:
Section |  min time  |  avg time  |  max time  |%varavg| %total
---------------------------------------------------------------
Pair    | 30.74      | 30.74      | 30.74      |   0.0 | 52.16
Neigh   | 26.733     | 26.733     | 26.733     |   0.0 | 45.36
Comm    | 0.51205    | 0.51205    | 0.51205    |   0.0 |  0.87
Output  | 0.041653   | 0.041653   | 0.041653   |   0.0 |  0.07
Modify  | 0.7146     | 0.7146     | 0.7146     |   0.0 |  1.21
Other   |            | 0.1975     |            |       |  0.34

Nlocal:    19652 ave 19652 max 19652 min
Histogram: 1 0 0 0 0 0 0 0 0 0
Nghost:    15822 ave 15822 max 15822 min
Histogram: 1 0 0 0 0 0 0 0 0 0
Neighs:    1.02959e+06 ave 1.02959e+06 max 1.02959e+06 min
Histogram: 1 0 0 0 0 0 0 0 0 0

Total # of neighbors = 1029587
Ave neighs/atom = 52.391
Neighbor list builds = 495
Dangerous builds not checked
Setting up Verlet run ...
  Unit style    : metal
  Current step  : 113832
  Time step     : 0.001
Per MPI rank memory allocation (min/avg/max) = 18.19 | 18.19 | 18.19 Mbytes
Step Temp Press TotEng PotEng Enthalpy 
  113832    1852.7287   -494.31544   -110087.41   -114793.51   -110234.96 
  120004    1851.9841    855.79558   -110118.25   -114822.46   -109863.51 
Loop time of 766.707 on 1 procs for 6172 steps with 19652 atoms

Performance: 0.696 ns/day, 34.506 hours/ns, 8.050 timesteps/s
99.4% CPU use with 1 MPI tasks x no OpenMP threads

MPI task timing breakdown:
Section |  min time  |  avg time  |  max time  |%varavg| %total
---------------------------------------------------------------
Pair    | 402.54     | 402.54     | 402.54     |   0.0 | 52.50
Neigh   | 345.71     | 345.71     | 345.71     |   0.0 | 45.09
Comm    | 6.7031     | 6.7031     | 6.7031     |   0.0 |  0.87
Output  | 0.00022411 | 0.00022411 | 0.00022411 |   0.0 |  0.00
Modify  | 9.2367     | 9.2367     | 9.2367     |   0.0 |  1.20
Other   |            | 2.522      |            |       |  0.33

Nlocal:    19652 ave 19652 max 19652 min
Histogram: 1 0 0 0 0 0 0 0 0 0
Nghost:    15818 ave 15818 max 15818 min
Histogram: 1 0 0 0 0 0 0 0 0 0
Neighs:    1.03268e+06 ave 1.03268e+06 max 1.03268e+06 min
Histogram: 1 0 0 0 0 0 0 0 0 0

Total # of neighbors = 1032682
Ave neighs/atom = 52.5484
Neighbor list builds = 6172
Dangerous builds not checked
Setting up Verlet run ...
  Unit style    : metal
  Current step  : 120004
  Time step     : 0.001
Per MPI rank memory allocation (min/avg/max) = 18.19 | 18.19 | 18.19 Mbytes
Step Temp Press TotEng PotEng Enthalpy 
  120004    1851.9841    855.79558   -110118.25   -114822.46   -109863.51 
  120006    1851.1383    846.09634   -110118.25   -114820.31    -109866.4 
  120499     1804.237    1633.6733   -110395.43   -114978.36   -109910.31 
Loop time of 66.4764 on 1 procs for 495 steps with 19652 atoms

Performance: 0.643 ns/day, 37.304 hours/ns, 7.446 timesteps/s
99.3% CPU use with 1 MPI tasks x no OpenMP threads

MPI task timing breakdown:
Section |  min time  |  avg time  |  max time  |%varavg| %total
---------------------------------------------------------------
Pair    | 35.277     | 35.277     | 35.277     |   0.0 | 53.07
Neigh   | 29.485     | 29.485     | 29.485     |   0.0 | 44.35
Comm    | 0.58318    | 0.58318    | 0.58318    |   0.0 |  0.88
Output  | 0.067303   | 0.067303   | 0.067303   |   0.0 |  0.10
Modify  | 0.83881    | 0.83881    | 0.83881    |   0.0 |  1.26
Other   |            | 0.2247     |            |       |  0.34

Nlocal:    19652 ave 19652 max 19652 min
Histogram: 1 0 0 0 0 0 0 0 0 0
Nghost:    15887 ave 15887 max 15887 min
Histogram: 1 0 0 0 0 0 0 0 0 0
Neighs:    1.03589e+06 ave 1.03589e+06 max 1.03589e+06 min
Histogram: 1 0 0 0 0 0 0 0 0 0

Total # of neighbors = 1035886
Ave neighs/atom = 52.7115
Neighbor list builds = 495
Dangerous builds not checked
Setting up Verlet run ...
  Unit style    : metal
  Current step  : 120499
  Time step     : 0.001
Per MPI rank memory allocation (min/avg/max) = 18.19 | 18.19 | 18.19 Mbytes
Step Temp Press TotEng PotEng Enthalpy 
  120499     1804.237    1633.6733   -110395.43   -114978.36   -109910.31 
  126671    1800.4983   -249.06724   -110445.62   -115019.05   -110519.76 
Loop time of 845.199 on 1 procs for 6172 steps with 19652 atoms

Performance: 0.631 ns/day, 38.039 hours/ns, 7.302 timesteps/s
99.8% CPU use with 1 MPI tasks x no OpenMP threads

MPI task timing breakdown:
Section |  min time  |  avg time  |  max time  |%varavg| %total
---------------------------------------------------------------
Pair    | 451.31     | 451.31     | 451.31     |   0.0 | 53.40
Neigh   | 373.32     | 373.32     | 373.32     |   0.0 | 44.17
Comm    | 7.498      | 7.498      | 7.498      |   0.0 |  0.89
Output  | 0.00024414 | 0.00024414 | 0.00024414 |   0.0 |  0.00
Modify  | 10.309     | 10.309     | 10.309     |   0.0 |  1.22
Other   |            | 2.766      |            |       |  0.33

Nlocal:    19652 ave 19652 max 19652 min
Histogram: 1 0 0 0 0 0 0 0 0 0
Nghost:    15872 ave 15872 max 15872 min
Histogram: 1 0 0 0 0 0 0 0 0 0
Neighs:    1.0328e+06 ave 1.0328e+06 max 1.0328e+06 min
Histogram: 1 0 0 0 0 0 0 0 0 0

Total # of neighbors = 1032800
Ave neighs/atom = 52.5544
Neighbor list builds = 6172
Dangerous builds not checked
Setting up Verlet run ...
  Unit style    : metal
  Current step  : 126671
  Time step     : 0.001
Per MPI rank memory allocation (min/avg/max) = 18.19 | 18.19 | 18.19 Mbytes
Step Temp Press TotEng PotEng Enthalpy 
  126671    1800.4983   -249.06724   -110445.62   -115019.05   -110519.76 
  126673     1799.929    -242.5494   -110445.62    -115017.6   -110517.82 
  127166    1764.3743    445.07943   -110703.97   -115185.64   -110571.74 
Loop time of 64.4515 on 1 procs for 495 steps with 19652 atoms

Performance: 0.664 ns/day, 36.168 hours/ns, 7.680 timesteps/s
99.6% CPU use with 1 MPI tasks x no OpenMP threads

MPI task timing breakdown:
Section |  min time  |  avg time  |  max time  |%varavg| %total
---------------------------------------------------------------
Pair    | 34.491     | 34.491     | 34.491     |   0.0 | 53.51
Neigh   | 28.242     | 28.242     | 28.242     |   0.0 | 43.82
Comm    | 0.60564    | 0.60564    | 0.60564    |   0.0 |  0.94
Output  | 0.070514   | 0.070514   | 0.070514   |   0.0 |  0.11
Modify  | 0.82363    | 0.82363    | 0.82363    |   0.0 |  1.28
Other   |            | 0.2185     |            |       |  0.34

Nlocal:    19652 ave 19652 max 19652 min
Histogram: 1 0 0 0 0 0 0 0 0 0
Nghost:    15808 ave 15808 max 15808 min
Histogram: 1 0 0 0 0 0 0 0 0 0
Neighs:    1.03572e+06 ave 1.03572e+06 max 1.03572e+06 min
Histogram: 1 0 0 0 0 0 0 0 0 0

Total # of neighbors = 1035715
Ave neighs/atom = 52.7028
Neighbor list builds = 495
Dangerous builds not checked
Setting up Verlet run ...
  Unit style    : metal
  Current step  : 127166
  Time step     : 0.001
Per MPI rank memory allocation (min/avg/max) = 18.19 | 18.19 | 18.19 Mbytes
Step Temp Press TotEng PotEng Enthalpy 
  127166    1764.3743    445.07943   -110703.97   -115185.64   -110571.74 
  133338     1733.762   -1675.0025   -110877.19   -115281.11   -111375.91 
Loop time of 871.191 on 1 procs for 6172 steps with 19652 atoms

Performance: 0.612 ns/day, 39.209 hours/ns, 7.085 timesteps/s
99.8% CPU use with 1 MPI tasks x no OpenMP threads

MPI task timing breakdown:
Section |  min time  |  avg time  |  max time  |%varavg| %total
---------------------------------------------------------------
Pair    | 473.58     | 473.58     | 473.58     |   0.0 | 54.36
Neigh   | 376.13     | 376.13     | 376.13     |   0.0 | 43.17
Comm    | 7.9633     | 7.9633     | 7.9633     |   0.0 |  0.91
Output  | 0.00029993 | 0.00029993 | 0.00029993 |   0.0 |  0.00
Modify  | 10.646     | 10.646     | 10.646     |   0.0 |  1.22
Other   |            | 2.869      |            |       |  0.33

Nlocal:    19652 ave 19652 max 19652 min
Histogram: 1 0 0 0 0 0 0 0 0 0
Nghost:    15815 ave 15815 max 15815 min
Histogram: 1 0 0 0 0 0 0 0 0 0
Neighs:    1.03309e+06 ave 1.03309e+06 max 1.03309e+06 min
Histogram: 1 0 0 0 0 0 0 0 0 0

Total # of neighbors = 1033093
Ave neighs/atom = 52.5694
Neighbor list builds = 6172
Dangerous builds not checked
Setting up Verlet run ...
  Unit style    : metal
  Current step  : 133338
  Time step     : 0.001
Per MPI rank memory allocation (min/avg/max) = 18.19 | 18.19 | 18.19 Mbytes
Step Temp Press TotEng PotEng Enthalpy 
  133338     1733.762   -1675.0025   -110877.19   -115281.11   -111375.91 
  133340    1733.5551    -1669.364   -110877.18   -115280.57   -111374.22 
  133833    1707.7349   -1198.8689   -111035.38   -115373.18   -111391.61 
Loop time of 67.8386 on 1 procs for 495 steps with 19652 atoms

Performance: 0.630 ns/day, 38.069 hours/ns, 7.297 timesteps/s
99.7% CPU use with 1 MPI tasks x no OpenMP threads

MPI task timing breakdown:
Section |  min time  |  avg time  |  max time  |%varavg| %total
---------------------------------------------------------------
Pair    | 36.671     | 36.671     | 36.671     |   0.0 | 54.06
Neigh   | 29.391     | 29.391     | 29.391     |   0.0 | 43.33
Comm    | 0.63409    | 0.63409    | 0.63409    |   0.0 |  0.93
Output  | 0.070703   | 0.070703   | 0.070703   |   0.0 |  0.10
Modify  | 0.84016    | 0.84016    | 0.84016    |   0.0 |  1.24
Other   |            | 0.2315     |            |       |  0.34

Nlocal:    19652 ave 19652 max 19652 min
Histogram: 1 0 0 0 0 0 0 0 0 0
Nghost:    15859 ave 15859 max 15859 min
Histogram: 1 0 0 0 0 0 0 0 0 0
Neighs:    1.03521e+06 ave 1.03521e+06 max 1.03521e+06 min
Histogram: 1 0 0 0 0 0 0 0 0 0

Total # of neighbors = 1035210
Ave neighs/atom = 52.6771
Neighbor list builds = 495
Dangerous builds not checked
Setting up Verlet run ...
  Unit style    : metal
  Current step  : 133833
  Time step     : 0.001
Per MPI rank memory allocation (min/avg/max) = 18.19 | 18.19 | 18.19 Mbytes
Step Temp Press TotEng PotEng Enthalpy 
  133833    1707.7349   -1198.8689   -111035.38   -115373.18   -111391.61 
  140005    1704.6797   -88.897945   -111096.58   -115426.62   -111122.95 
Loop time of 889.437 on 1 procs for 6172 steps with 19652 atoms

Performance: 0.600 ns/day, 40.030 hours/ns, 6.939 timesteps/s
99.8% CPU use with 1 MPI tasks x no OpenMP threads

MPI task timing breakdown:
Section |  min time  |  avg time  |  max time  |%varavg| %total
---------------------------------------------------------------
Pair    | 485.7      | 485.7      | 485.7      |   0.0 | 54.61
Neigh   | 381.6      | 381.6      | 381.6      |   0.0 | 42.90
Comm    | 8.3218     | 8.3218     | 8.3218     |   0.0 |  0.94
Output  | 0.00024104 | 0.00024104 | 0.00024104 |   0.0 |  0.00
Modify  | 10.845     | 10.845     | 10.845     |   0.0 |  1.22
Other   |            | 2.97       |            |       |  0.33

Nlocal:    19652 ave 19652 max 19652 min
Histogram: 1 0 0 0 0 0 0 0 0 0
Nghost:    15832 ave 15832 max 15832 min
Histogram: 1 0 0 0 0 0 0 0 0 0
Neighs:    1.0379e+06 ave 1.0379e+06 max 1.0379e+06 min
Histogram: 1 0 0 0 0 0 0 0 0 0

Total # of neighbors = 1037902
Ave neighs/atom = 52.8141
Neighbor list builds = 6172
Dangerous builds not checked
Setting up Verlet run ...
  Unit style    : metal
  Current step  : 140005
  Time step     : 0.001
Per MPI rank memory allocation (min/avg/max) = 18.19 | 18.19 | 18.19 Mbytes
Step Temp Press TotEng PotEng Enthalpy 
  140005    1704.6797   -88.897945   -111096.58   -115426.62   -111122.95 
  140007    1704.0859   -88.728334   -111096.58   -115425.11    -111122.9 
  140500    1662.9563   -374.53128   -111392.37   -115616.43   -111503.33 
Loop time of 71.9776 on 1 procs for 495 steps with 19652 atoms

Performance: 0.594 ns/day, 40.391 hours/ns, 6.877 timesteps/s
99.9% CPU use with 1 MPI tasks x no OpenMP threads

MPI task timing breakdown:
Section |  min time  |  avg time  |  max time  |%varavg| %total
---------------------------------------------------------------
Pair    | 39.403     | 39.403     | 39.403     |   0.0 | 54.74
Neigh   | 30.682     | 30.682     | 30.682     |   0.0 | 42.63
Comm    | 0.67937    | 0.67937    | 0.67937    |   0.0 |  0.94
Output  | 0.072009   | 0.072009   | 0.072009   |   0.0 |  0.10
Modify  | 0.90204    | 0.90204    | 0.90204    |   0.0 |  1.25
Other   |            | 0.239      |            |       |  0.33

Nlocal:    19652 ave 19652 max 19652 min
Histogram: 1 0 0 0 0 0 0 0 0 0
Nghost:    15879 ave 15879 max 15879 min
Histogram: 1 0 0 0 0 0 0 0 0 0
Neighs:    1.03908e+06 ave 1.03908e+06 max 1.03908e+06 min
Histogram: 1 0 0 0 0 0 0 0 0 0

Total # of neighbors = 1039078
Ave neighs/atom = 52.8739
Neighbor list builds = 495
Dangerous builds not checked
Setting up Verlet run ...
  Unit style    : metal
  Current step  : 140500
  Time step     : 0.001
Per MPI rank memory allocation (min/avg/max) = 18.19 | 18.19 | 18.19 Mbytes
Step Temp Press TotEng PotEng Enthalpy 
  140500    1662.9563   -374.53128   -111392.37   -115616.43   -111503.33 
  146672    1646.0333    1678.5041   -111459.99   -115641.07    -110964.3 
Loop time of 892.85 on 1 procs for 6172 steps with 19652 atoms

Performance: 0.597 ns/day, 40.184 hours/ns, 6.913 timesteps/s
99.9% CPU use with 1 MPI tasks x no OpenMP threads

MPI task timing breakdown:
Section |  min time  |  avg time  |  max time  |%varavg| %total
---------------------------------------------------------------
Pair    | 487.32     | 487.32     | 487.32     |   0.0 | 54.58
Neigh   | 383.33     | 383.33     | 383.33     |   0.0 | 42.93
Comm    | 8.3388     | 8.3388     | 8.3388     |   0.0 |  0.93
Output  | 0.00035787 | 0.00035787 | 0.00035787 |   0.0 |  0.00
Modify  | 10.936     | 10.936     | 10.936     |   0.0 |  1.22
Other   |            | 2.928      |            |       |  0.33

Nlocal:    19652 ave 19652 max 19652 min
Histogram: 1 0 0 0 0 0 0 0 0 0
Nghost:    15871 ave 15871 max 15871 min
Histogram: 1 0 0 0 0 0 0 0 0 0
Neighs:    1.04291e+06 ave 1.04291e+06 max 1.04291e+06 min
Histogram: 1 0 0 0 0 0 0 0 0 0

Total # of neighbors = 1042908
Ave neighs/atom = 53.0688
Neighbor list builds = 6172
Dangerous builds not checked
Setting up Verlet run ...
  Unit style    : metal
  Current step  : 146672
  Time step     : 0.001
Per MPI rank memory allocation (min/avg/max) = 18.19 | 18.19 | 18.19 Mbytes
Step Temp Press TotEng PotEng Enthalpy 
  146672    1646.0333    1678.5041   -111459.99   -115641.07    -110964.3 
  146674    1646.1412    1668.8366   -111459.99   -115641.34   -110967.15 
  147167    1620.6708    504.94615   -111687.16   -115803.81   -111537.97 
Loop time of 69.4043 on 1 procs for 495 steps with 19652 atoms

Performance: 0.616 ns/day, 38.947 hours/ns, 7.132 timesteps/s
99.8% CPU use with 1 MPI tasks x no OpenMP threads

MPI task timing breakdown:
Section |  min time  |  avg time  |  max time  |%varavg| %total
---------------------------------------------------------------
Pair    | 37.66      | 37.66      | 37.66      |   0.0 | 54.26
Neigh   | 29.874     | 29.874     | 29.874     |   0.0 | 43.04
Comm    | 0.67575    | 0.67575    | 0.67575    |   0.0 |  0.97
Output  | 0.069739   | 0.069739   | 0.069739   |   0.0 |  0.10
Modify  | 0.88978    | 0.88978    | 0.88978    |   0.0 |  1.28
Other   |            | 0.2347     |            |       |  0.34

Nlocal:    19652 ave 19652 max 19652 min
Histogram: 1 0 0 0 0 0 0 0 0 0
Nghost:    15801 ave 15801 max 15801 min
Histogram: 1 0 0 0 0 0 0 0 0 0
Neighs:    1.04269e+06 ave 1.04269e+06 max 1.04269e+06 min
Histogram: 1 0 0 0 0 0 0 0 0 0

Total # of neighbors = 1042687
Ave neighs/atom = 53.0576
Neighbor list builds = 495
Dangerous builds not checked
Setting up Verlet run ...
  Unit style    : metal
  Current step  : 147167
  Time step     : 0.001
Per MPI rank memory allocation (min/avg/max) = 18.19 | 18.19 | 18.19 Mbytes
Step Temp Press TotEng PotEng Enthalpy 
  147167    1620.6708    504.94615   -111687.16   -115803.81   -111537.97 
  153339    1603.0628    1643.5503    -111777.3   -115849.22   -111292.59 
Loop time of 881.588 on 1 procs for 6172 steps with 19652 atoms

Performance: 0.605 ns/day, 39.677 hours/ns, 7.001 timesteps/s
99.7% CPU use with 1 MPI tasks x no OpenMP threads

MPI task timing breakdown:
Section |  min time  |  avg time  |  max time  |%varavg| %total
---------------------------------------------------------------
Pair    | 480.73     | 480.73     | 480.73     |   0.0 | 54.53
Neigh   | 378.89     | 378.89     | 378.89     |   0.0 | 42.98
Comm    | 8.2928     | 8.2928     | 8.2928     |   0.0 |  0.94
Output  | 0.00024009 | 0.00024009 | 0.00024009 |   0.0 |  0.00
Modify  | 10.778     | 10.778     | 10.778     |   0.0 |  1.22
Other   |            | 2.902      |            |       |  0.33

Nlocal:    19652 ave 19652 max 19652 min
Histogram: 1 0 0 0 0 0 0 0 0 0
Nghost:    15843 ave 15843 max 15843 min
Histogram: 1 0 0 0 0 0 0 0 0 0
Neighs:    1.04489e+06 ave 1.04489e+06 max 1.04489e+06 min
Histogram: 1 0 0 0 0 0 0 0 0 0

Total # of neighbors = 1044889
Ave neighs/atom = 53.1696
Neighbor list builds = 6172
Dangerous builds not checked
Setting up Verlet run ...
  Unit style    : metal
  Current step  : 153339
  Time step     : 0.001
Per MPI rank memory allocation (min/avg/max) = 18.19 | 18.19 | 18.19 Mbytes
Step Temp Press TotEng PotEng Enthalpy 
  153339    1603.0628    1643.5503    -111777.3   -115849.22   -111292.59 
  153341    1603.3845    1638.6225    -111777.3   -115850.04   -111294.05 
  153834    1557.3796    697.82452   -112026.27   -115982.16   -111820.46 
Loop time of 66.8298 on 1 procs for 495 steps with 19652 atoms

Performance: 0.640 ns/day, 37.503 hours/ns, 7.407 timesteps/s
99.2% CPU use with 1 MPI tasks x no OpenMP threads

MPI task timing breakdown:
Section |  min time  |  avg time  |  max time  |%varavg| %total
---------------------------------------------------------------
Pair    | 36.057     | 36.057     | 36.057     |   0.0 | 53.95
Neigh   | 28.807     | 28.807     | 28.807     |   0.0 | 43.11
Comm    | 0.62755    | 0.62755    | 0.62755    |   0.0 |  0.94
Output  | 0.29112    | 0.29112    | 0.29112    |   0.0 |  0.44
Modify  | 0.82134    | 0.82134    | 0.82134    |   0.0 |  1.23
Other   |            | 0.2257     |            |       |  0.34

Nlocal:    19652 ave 19652 max 19652 min
Histogram: 1 0 0 0 0 0 0 0 0 0
Nghost:    15880 ave 15880 max 15880 min
Histogram: 1 0 0 0 0 0 0 0 0 0
Neighs:    1.04514e+06 ave 1.04514e+06 max 1.04514e+06 min
Histogram: 1 0 0 0 0 0 0 0 0 0

Total # of neighbors = 1045136
Ave neighs/atom = 53.1822
Neighbor list builds = 495
Dangerous builds not checked
Setting up Verlet run ...
  Unit style    : metal
  Current step  : 153834
  Time step     : 0.001
Per MPI rank memory allocation (min/avg/max) = 18.19 | 18.19 | 18.19 Mbytes
Step Temp Press TotEng PotEng Enthalpy 
  153834    1557.3796    697.82452   -112026.27   -115982.16   -111820.46 
  160006    1553.3649    932.08955   -112156.43   -116102.12   -111881.86 
Loop time of 876.6 on 1 procs for 6172 steps with 19652 atoms

Performance: 0.608 ns/day, 39.452 hours/ns, 7.041 timesteps/s
99.7% CPU use with 1 MPI tasks x no OpenMP threads

MPI task timing breakdown:
Section |  min time  |  avg time  |  max time  |%varavg| %total
---------------------------------------------------------------
Pair    | 478.56     | 478.56     | 478.56     |   0.0 | 54.59
Neigh   | 376.42     | 376.42     | 376.42     |   0.0 | 42.94
Comm    | 8.0776     | 8.0776     | 8.0776     |   0.0 |  0.92
Output  | 0.00022101 | 0.00022101 | 0.00022101 |   0.0 |  0.00
Modify  | 10.68      | 10.68      | 10.68      |   0.0 |  1.22
Other   |            | 2.868      |            |       |  0.33

Nlocal:    19652 ave 19652 max 19652 min
Histogram: 1 0 0 0 0 0 0 0 0 0
Nghost:    15889 ave 15889 max 15889 min
Histogram: 1 0 0 0 0 0 0 0 0 0
Neighs:    1.04628e+06 ave 1.04628e+06 max 1.04628e+06 min
Histogram: 1 0 0 0 0 0 0 0 0 0

Total # of neighbors = 1046282
Ave neighs/atom = 53.2405
Neighbor list builds = 6172
Dangerous builds not checked
Setting up Verlet run ...
  Unit style    : metal
  Current step  : 160006
  Time step     : 0.001
Per MPI rank memory allocation (min/avg/max) = 18.19 | 18.19 | 18.19 Mbytes
Step Temp Press TotEng PotEng Enthalpy 
  160006    1553.3649    932.08955   -112156.43   -116102.12   -111881.86 
  160008    1553.6131    926.12532   -112156.43   -116102.75   -111883.62 
  160501    1512.3893    425.03942   -112363.61   -116205.21   -112238.45 
Loop time of 66.3864 on 1 procs for 495 steps with 19652 atoms

Performance: 0.644 ns/day, 37.254 hours/ns, 7.456 timesteps/s
99.8% CPU use with 1 MPI tasks x no OpenMP threads

MPI task timing breakdown:
Section |  min time  |  avg time  |  max time  |%varavg| %total
---------------------------------------------------------------
Pair    | 35.777     | 35.777     | 35.777     |   0.0 | 53.89
Neigh   | 28.888     | 28.888     | 28.888     |   0.0 | 43.52
Comm    | 0.61525    | 0.61525    | 0.61525    |   0.0 |  0.93
Output  | 0.058711   | 0.058711   | 0.058711   |   0.0 |  0.09
Modify  | 0.82028    | 0.82028    | 0.82028    |   0.0 |  1.24
Other   |            | 0.2264     |            |       |  0.34

Nlocal:    19652 ave 19652 max 19652 min
Histogram: 1 0 0 0 0 0 0 0 0 0
Nghost:    15865 ave 15865 max 15865 min
Histogram: 1 0 0 0 0 0 0 0 0 0
Neighs:    1.04697e+06 ave 1.04697e+06 max 1.04697e+06 min
Histogram: 1 0 0 0 0 0 0 0 0 0

Total # of neighbors = 1046971
Ave neighs/atom = 53.2755
Neighbor list builds = 495
Dangerous builds not checked
Setting up Verlet run ...
  Unit style    : metal
  Current step  : 160501
  Time step     : 0.001
Per MPI rank memory allocation (min/avg/max) = 18.19 | 18.19 | 18.19 Mbytes
Step Temp Press TotEng PotEng Enthalpy 
  160501    1512.3893    425.03942   -112363.61   -116205.21   -112238.45 
  166673    1498.5275    766.37485   -112488.42   -116294.81   -112262.96 
Loop time of 824.198 on 1 procs for 6172 steps with 19652 atoms

Performance: 0.647 ns/day, 37.094 hours/ns, 7.488 timesteps/s
99.9% CPU use with 1 MPI tasks x no OpenMP threads

MPI task timing breakdown:
Section |  min time  |  avg time  |  max time  |%varavg| %total
---------------------------------------------------------------
Pair    | 445.9      | 445.9      | 445.9      |   0.0 | 54.10
Neigh   | 357.98     | 357.98     | 357.98     |   0.0 | 43.43
Comm    | 7.576      | 7.576      | 7.576      |   0.0 |  0.92
Output  | 0.000283   | 0.000283   | 0.000283   |   0.0 |  0.00
Modify  | 10.014     | 10.014     | 10.014     |   0.0 |  1.21
Other   |            | 2.729      |            |       |  0.33

Nlocal:    19652 ave 19652 max 19652 min
Histogram: 1 0 0 0 0 0 0 0 0 0
Nghost:    15930 ave 15930 max 15930 min
Histogram: 1 0 0 0 0 0 0 0 0 0
Neighs:    1.04854e+06 ave 1.04854e+06 max 1.04854e+06 min
Histogram: 1 0 0 0 0 0 0 0 0 0

Total # of neighbors = 1048544
Ave neighs/atom = 53.3556
Neighbor list builds = 6172
Dangerous builds not checked
Setting up Verlet run ...
  Unit style    : metal
  Current step  : 166673
  Time step     : 0.001
Per MPI rank memory allocation (min/avg/max) = 18.19 | 18.19 | 18.19 Mbytes
Step Temp Press TotEng PotEng Enthalpy 
  166673    1498.5275    766.37485   -112488.42   -116294.81   -112262.96 
  166675    1498.8761    761.49069   -112488.41    -116295.7   -112264.39 
  167168    1473.6255   -75.962205   -112711.41   -116454.55   -112733.76 
Loop time of 65.9472 on 1 procs for 495 steps with 19652 atoms

Performance: 0.649 ns/day, 37.007 hours/ns, 7.506 timesteps/s
99.8% CPU use with 1 MPI tasks x no OpenMP threads

MPI task timing breakdown:
Section |  min time  |  avg time  |  max time  |%varavg| %total
---------------------------------------------------------------
Pair    | 35.542     | 35.542     | 35.542     |   0.0 | 53.89
Neigh   | 28.654     | 28.654     | 28.654     |   0.0 | 43.45
Comm    | 0.61972    | 0.61972    | 0.61972    |   0.0 |  0.94
Output  | 0.071992   | 0.071992   | 0.071992   |   0.0 |  0.11
Modify  | 0.83336    | 0.83336    | 0.83336    |   0.0 |  1.26
Other   |            | 0.2263     |            |       |  0.34

Nlocal:    19652 ave 19652 max 19652 min
Histogram: 1 0 0 0 0 0 0 0 0 0
Nghost:    15817 ave 15817 max 15817 min
Histogram: 1 0 0 0 0 0 0 0 0 0
Neighs:    1.04837e+06 ave 1.04837e+06 max 1.04837e+06 min
Histogram: 1 0 0 0 0 0 0 0 0 0

Total # of neighbors = 1048369
Ave neighs/atom = 53.3467
Neighbor list builds = 495
Dangerous builds not checked
Setting up Verlet run ...
  Unit style    : metal
  Current step  : 167168
  Time step     : 0.001
Per MPI rank memory allocation (min/avg/max) = 18.19 | 18.19 | 18.19 Mbytes
Step Temp Press TotEng PotEng Enthalpy 
  167168    1473.6255   -75.962205   -112711.41   -116454.55   -112733.76 
  173340    1450.7968    1081.9338   -112811.36   -116496.51   -112493.68 
Loop time of 847.943 on 1 procs for 6172 steps with 19652 atoms

Performance: 0.629 ns/day, 38.163 hours/ns, 7.279 timesteps/s
99.9% CPU use with 1 MPI tasks x no OpenMP threads

MPI task timing breakdown:
Section |  min time  |  avg time  |  max time  |%varavg| %total
---------------------------------------------------------------
Pair    | 460.66     | 460.66     | 460.66     |   0.0 | 54.33
Neigh   | 366.23     | 366.23     | 366.23     |   0.0 | 43.19
Comm    | 7.8801     | 7.8801     | 7.8801     |   0.0 |  0.93
Output  | 0.00025702 | 0.00025702 | 0.00025702 |   0.0 |  0.00
Modify  | 10.357     | 10.357     | 10.357     |   0.0 |  1.22
Other   |            | 2.818      |            |       |  0.33

Nlocal:    19652 ave 19652 max 19652 min
Histogram: 1 0 0 0 0 0 0 0 0 0
Nghost:    15894 ave 15894 max 15894 min
Histogram: 1 0 0 0 0 0 0 0 0 0
Neighs:    1.05084e+06 ave 1.05084e+06 max 1.05084e+06 min
Histogram: 1 0 0 0 0 0 0 0 0 0

Total # of neighbors = 1050841
Ave neighs/atom = 53.4725
Neighbor list builds = 6172
Dangerous builds not checked
Setting up Verlet run ...
  Unit style    : metal
  Current step  : 173340
  Time step     : 0.001
Per MPI rank memory allocation (min/avg/max) = 18.19 | 18.19 | 18.19 Mbytes
Step Temp Press TotEng PotEng Enthalpy 
  173340    1450.7968    1081.9338   -112811.36   -116496.51   -112493.68 
  173342    1450.9787    1078.6635   -112811.36   -116496.97   -112494.64 
  173835     1419.293    -770.1089   -113012.73   -116617.87   -113239.21 
Loop time of 68.7466 on 1 procs for 495 steps with 19652 atoms

Performance: 0.622 ns/day, 38.578 hours/ns, 7.200 timesteps/s
99.6% CPU use with 1 MPI tasks x no OpenMP threads

MPI task timing breakdown:
Section |  min time  |  avg time  |  max time  |%varavg| %total
---------------------------------------------------------------
Pair    | 37.35      | 37.35      | 37.35      |   0.0 | 54.33
Neigh   | 29.588     | 29.588     | 29.588     |   0.0 | 43.04
Comm    | 0.65171    | 0.65171    | 0.65171    |   0.0 |  0.95
Output  | 0.064581   | 0.064581   | 0.064581   |   0.0 |  0.09
Modify  | 0.84904    | 0.84904    | 0.84904    |   0.0 |  1.24
Other   |            | 0.2436     |            |       |  0.35

Nlocal:    19652 ave 19652 max 19652 min
Histogram: 1 0 0 0 0 0 0 0 0 0
Nghost:    15879 ave 15879 max 15879 min
Histogram: 1 0 0 0 0 0 0 0 0 0
Neighs:    1.04918e+06 ave 1.04918e+06 max 1.04918e+06 min
Histogram: 1 0 0 0 0 0 0 0 0 0

Total # of neighbors = 1049180
Ave neighs/atom = 53.388
Neighbor list builds = 495
Dangerous builds not checked
Setting up Verlet run ...
  Unit style    : metal
  Current step  : 173835
  Time step     : 0.001
Per MPI rank memory allocation (min/avg/max) = 18.19 | 18.19 | 18.19 Mbytes
Step Temp Press TotEng PotEng Enthalpy 
  173835     1419.293    -770.1089   -113012.73   -116617.87   -113239.21 
  180007    1399.1936   -827.46831   -113174.81   -116728.88   -113417.93 
Loop time of 912.208 on 1 procs for 6172 steps with 19652 atoms

Performance: 0.585 ns/day, 41.055 hours/ns, 6.766 timesteps/s
99.7% CPU use with 1 MPI tasks x no OpenMP threads

MPI task timing breakdown:
Section |  min time  |  avg time  |  max time  |%varavg| %total
---------------------------------------------------------------
Pair    | 502.68     | 502.68     | 502.68     |   0.0 | 55.11
Neigh   | 386.02     | 386.02     | 386.02     |   0.0 | 42.32
Comm    | 8.7667     | 8.7667     | 8.7667     |   0.0 |  0.96
Output  | 0.00021005 | 0.00021005 | 0.00021005 |   0.0 |  0.00
Modify  | 11.546     | 11.546     | 11.546     |   0.0 |  1.27
Other   |            | 3.188      |            |       |  0.35

Nlocal:    19652 ave 19652 max 19652 min
Histogram: 1 0 0 0 0 0 0 0 0 0
Nghost:    15901 ave 15901 max 15901 min
Histogram: 1 0 0 0 0 0 0 0 0 0
Neighs:    1.05051e+06 ave 1.05051e+06 max 1.05051e+06 min
Histogram: 1 0 0 0 0 0 0 0 0 0

Total # of neighbors = 1050513
Ave neighs/atom = 53.4558
Neighbor list builds = 6172
Dangerous builds not checked
Setting up Verlet run ...
  Unit style    : metal
  Current step  : 180007
  Time step     : 0.001
Per MPI rank memory allocation (min/avg/max) = 18.19 | 18.19 | 18.19 Mbytes
Step Temp Press TotEng PotEng Enthalpy 
  180007    1399.1936   -827.46831   -113174.81   -116728.88   -113417.93 
  180009    1399.1299   -824.08631    -113174.8   -116728.72   -113416.93 
  180502    1358.9116    126.76566   -113366.41   -116818.17   -113329.26 
Loop time of 72.5508 on 1 procs for 495 steps with 19652 atoms

Performance: 0.589 ns/day, 40.713 hours/ns, 6.823 timesteps/s
99.9% CPU use with 1 MPI tasks x no OpenMP threads

MPI task timing breakdown:
Section |  min time  |  avg time  |  max time  |%varavg| %total
---------------------------------------------------------------
Pair    | 39.992     | 39.992     | 39.992     |   0.0 | 55.12
Neigh   | 30.576     | 30.576     | 30.576     |   0.0 | 42.14
Comm    | 0.71951    | 0.71951    | 0.71951    |   0.0 |  0.99
Output  | 0.046164   | 0.046164   | 0.046164   |   0.0 |  0.06
Modify  | 0.95878    | 0.95878    | 0.95878    |   0.0 |  1.32
Other   |            | 0.2584     |            |       |  0.36

Nlocal:    19652 ave 19652 max 19652 min
Histogram: 1 0 0 0 0 0 0 0 0 0
Nghost:    15879 ave 15879 max 15879 min
Histogram: 1 0 0 0 0 0 0 0 0 0
Neighs:    1.0531e+06 ave 1.0531e+06 max 1.0531e+06 min
Histogram: 1 0 0 0 0 0 0 0 0 0

Total # of neighbors = 1053100
Ave neighs/atom = 53.5874
Neighbor list builds = 495
Dangerous builds not checked
Setting up Verlet run ...
  Unit style    : metal
  Current step  : 180502
  Time step     : 0.001
Per MPI rank memory allocation (min/avg/max) = 18.19 | 18.19 | 18.19 Mbytes
Step Temp Press TotEng PotEng Enthalpy 
  180502    1358.9116    126.76566   -113366.41   -116818.17   -113329.26 
  186674    1352.9214  -0.43304978   -113486.84   -116923.39   -113486.97 
Loop time of 900.935 on 1 procs for 6172 steps with 19652 atoms

Performance: 0.592 ns/day, 40.548 hours/ns, 6.851 timesteps/s
99.8% CPU use with 1 MPI tasks x no OpenMP threads

MPI task timing breakdown:
Section |  min time  |  avg time  |  max time  |%varavg| %total
---------------------------------------------------------------
Pair    | 495.08     | 495.08     | 495.08     |   0.0 | 54.95
Neigh   | 382.81     | 382.81     | 382.81     |   0.0 | 42.49
Comm    | 8.5413     | 8.5413     | 8.5413     |   0.0 |  0.95
Output  | 0.00030613 | 0.00030613 | 0.00030613 |   0.0 |  0.00
Modify  | 11.401     | 11.401     | 11.401     |   0.0 |  1.27
Other   |            | 3.102      |            |       |  0.34

Nlocal:    19652 ave 19652 max 19652 min
Histogram: 1 0 0 0 0 0 0 0 0 0
Nghost:    15929 ave 15929 max 15929 min
Histogram: 1 0 0 0 0 0 0 0 0 0
Neighs:    1.05346e+06 ave 1.05346e+06 max 1.05346e+06 min
Histogram: 1 0 0 0 0 0 0 0 0 0

Total # of neighbors = 1053459
Ave neighs/atom = 53.6057
Neighbor list builds = 6172
Dangerous builds not checked
Setting up Verlet run ...
  Unit style    : metal
  Current step  : 186674
  Time step     : 0.001
Per MPI rank memory allocation (min/avg/max) = 18.19 | 18.19 | 18.19 Mbytes
Step Temp Press TotEng PotEng Enthalpy 
  186674    1352.9214  -0.43304978   -113486.84   -116923.39   -113486.97 
  186676    1352.7245    2.8557136   -113486.85   -116922.89   -113486.01 
  187169    1321.1391   -239.06241   -113713.86   -117069.68   -113783.87 
Loop time of 65.759 on 1 procs for 495 steps with 19652 atoms

Performance: 0.650 ns/day, 36.902 hours/ns, 7.527 timesteps/s
99.9% CPU use with 1 MPI tasks x no OpenMP threads

MPI task timing breakdown:
Section |  min time  |  avg time  |  max time  |%varavg| %total
---------------------------------------------------------------
Pair    | 35.532     | 35.532     | 35.532     |   0.0 | 54.03
Neigh   | 28.446     | 28.446     | 28.446     |   0.0 | 43.26
Comm    | 0.6263     | 0.6263     | 0.6263     |   0.0 |  0.95
Output  | 0.058584   | 0.058584   | 0.058584   |   0.0 |  0.09
Modify  | 0.85267    | 0.85267    | 0.85267    |   0.0 |  1.30
Other   |            | 0.2444     |            |       |  0.37

Nlocal:    19652 ave 19652 max 19652 min
Histogram: 1 0 0 0 0 0 0 0 0 0
Nghost:    15930 ave 15930 max 15930 min
Histogram: 1 0 0 0 0 0 0 0 0 0
Neighs:    1.0552e+06 ave 1.0552e+06 max 1.0552e+06 min
Histogram: 1 0 0 0 0 0 0 0 0 0

Total # of neighbors = 1055200
Ave neighs/atom = 53.6943
Neighbor list builds = 495
Dangerous builds not checked
Setting up Verlet run ...
  Unit style    : metal
  Current step  : 187169
  Time step     : 0.001
Per MPI rank memory allocation (min/avg/max) = 18.19 | 18.19 | 18.19 Mbytes
Step Temp Press TotEng PotEng Enthalpy 
  187169    1321.1391   -239.06241   -113713.86   -117069.68   -113783.87 
  193341    1291.8398   -706.04956   -113858.53   -117139.92   -114065.32 
Loop time of 919.025 on 1 procs for 6172 steps with 19652 atoms

Performance: 0.580 ns/day, 41.362 hours/ns, 6.716 timesteps/s
99.6% CPU use with 1 MPI tasks x no OpenMP threads

MPI task timing breakdown:
Section |  min time  |  avg time  |  max time  |%varavg| %total
---------------------------------------------------------------
Pair    | 505.65     | 505.65     | 505.65     |   0.0 | 55.02
Neigh   | 389.91     | 389.91     | 389.91     |   0.0 | 42.43
Comm    | 8.7095     | 8.7095     | 8.7095     |   0.0 |  0.95
Output  | 0.00021696 | 0.00021696 | 0.00021696 |   0.0 |  0.00
Modify  | 11.596     | 11.596     | 11.596     |   0.0 |  1.26
Other   |            | 3.153      |            |       |  0.34

Nlocal:    19652 ave 19652 max 19652 min
Histogram: 1 0 0 0 0 0 0 0 0 0
Nghost:    15919 ave 15919 max 15919 min
Histogram: 1 0 0 0 0 0 0 0 0 0
Neighs:    1.05569e+06 ave 1.05569e+06 max 1.05569e+06 min
Histogram: 1 0 0 0 0 0 0 0 0 0

Total # of neighbors = 1055692
Ave neighs/atom = 53.7193
Neighbor list builds = 6172
Dangerous builds not checked
Setting up Verlet run ...
  Unit style    : metal
  Current step  : 193341
  Time step     : 0.001
Per MPI rank memory allocation (min/avg/max) = 18.19 | 18.19 | 18.19 Mbytes
Step Temp Press TotEng PotEng Enthalpy 
  193341    1291.8398   -706.04956   -113858.53   -117139.92   -114065.32 
  193343    1292.1424    -708.4034   -113858.53   -117140.69      -114066 
  193836    1258.6495    126.80388   -114056.55   -117253.63   -114019.48 
Loop time of 73.7489 on 1 procs for 495 steps with 19652 atoms

Performance: 0.580 ns/day, 41.385 hours/ns, 6.712 timesteps/s
98.5% CPU use with 1 MPI tasks x no OpenMP threads

MPI task timing breakdown:
Section |  min time  |  avg time  |  max time  |%varavg| %total
---------------------------------------------------------------
Pair    | 40.07      | 40.07      | 40.07      |   0.0 | 54.33
Neigh   | 31.694     | 31.694     | 31.694     |   0.0 | 42.98
Comm    | 0.71959    | 0.71959    | 0.71959    |   0.0 |  0.98
Output  | 0.069579   | 0.069579   | 0.069579   |   0.0 |  0.09
Modify  | 0.94302    | 0.94302    | 0.94302    |   0.0 |  1.28
Other   |            | 0.252      |            |       |  0.34

Nlocal:    19652 ave 19652 max 19652 min
Histogram: 1 0 0 0 0 0 0 0 0 0
Nghost:    15897 ave 15897 max 15897 min
Histogram: 1 0 0 0 0 0 0 0 0 0
Neighs:    1.05811e+06 ave 1.05811e+06 max 1.05811e+06 min
Histogram: 1 0 0 0 0 0 0 0 0 0

Total # of neighbors = 1058106
Ave neighs/atom = 53.8422
Neighbor list builds = 495
Dangerous builds not checked
Setting up Verlet run ...
  Unit style    : metal
  Current step  : 193836
  Time step     : 0.001
Per MPI rank memory allocation (min/avg/max) = 18.19 | 18.19 | 18.19 Mbytes
Step Temp Press TotEng PotEng Enthalpy 
  193836    1258.6495    126.80388   -114056.55   -117253.63   -114019.48 
  200008     1251.424    459.05845   -114181.79   -117360.52   -114047.76 
Loop time of 967.58 on 1 procs for 6172 steps with 19652 atoms

Performance: 0.551 ns/day, 43.547 hours/ns, 6.379 timesteps/s
98.5% CPU use with 1 MPI tasks x no OpenMP threads

MPI task timing breakdown:
Section |  min time  |  avg time  |  max time  |%varavg| %total
---------------------------------------------------------------
Pair    | 538.89     | 538.89     | 538.89     |   0.0 | 55.69
Neigh   | 403.31     | 403.31     | 403.31     |   0.0 | 41.68
Comm    | 9.4723     | 9.4723     | 9.4723     |   0.0 |  0.98
Output  | 0.00023603 | 0.00023603 | 0.00023603 |   0.0 |  0.00
Modify  | 12.624     | 12.624     | 12.624     |   0.0 |  1.30
Other   |            | 3.284      |            |       |  0.34

Nlocal:    19652 ave 19652 max 19652 min
Histogram: 1 0 0 0 0 0 0 0 0 0
Nghost:    15914 ave 15914 max 15914 min
Histogram: 1 0 0 0 0 0 0 0 0 0
Neighs:    1.05941e+06 ave 1.05941e+06 max 1.05941e+06 min
Histogram: 1 0 0 0 0 0 0 0 0 0

Total # of neighbors = 1059411
Ave neighs/atom = 53.9086
Neighbor list builds = 6172
Dangerous builds not checked
Setting up Verlet run ...
  Unit style    : metal
  Current step  : 200008
  Time step     : 0.001
Per MPI rank memory allocation (min/avg/max) = 18.19 | 18.19 | 18.19 Mbytes
Step Temp Press TotEng PotEng Enthalpy 
  200008     1251.424    459.05845   -114181.79   -117360.52   -114047.76 
  200010    1251.6902    461.99487   -114181.79    -117361.2    -114046.9 
  200503    1217.1906   -660.63179   -114386.81   -117478.59   -114579.75 
Loop time of 81.5643 on 1 procs for 495 steps with 19652 atoms

Performance: 0.524 ns/day, 45.771 hours/ns, 6.069 timesteps/s
98.6% CPU use with 1 MPI tasks x no OpenMP threads

MPI task timing breakdown:
Section |  min time  |  avg time  |  max time  |%varavg| %total
---------------------------------------------------------------
Pair    | 47.063     | 47.063     | 47.063     |   0.0 | 57.70
Neigh   | 31.989     | 31.989     | 31.989     |   0.0 | 39.22
Comm    | 0.93422    | 0.93422    | 0.93422    |   0.0 |  1.15
Output  | 0.087715   | 0.087715   | 0.087715   |   0.0 |  0.11
Modify  | 1.2153     | 1.2153     | 1.2153     |   0.0 |  1.49
Other   |            | 0.2749     |            |       |  0.34

Nlocal:    19652 ave 19652 max 19652 min
Histogram: 1 0 0 0 0 0 0 0 0 0
Nghost:    15904 ave 15904 max 15904 min
Histogram: 1 0 0 0 0 0 0 0 0 0
Neighs:    1.05891e+06 ave 1.05891e+06 max 1.05891e+06 min
Histogram: 1 0 0 0 0 0 0 0 0 0

Total # of neighbors = 1058906
Ave neighs/atom = 53.8829
Neighbor list builds = 495
Dangerous builds not checked
Setting up Verlet run ...
  Unit style    : metal
  Current step  : 200503
  Time step     : 0.001
Per MPI rank memory allocation (min/avg/max) = 18.19 | 18.19 | 18.19 Mbytes
Step Temp Press TotEng PotEng Enthalpy 
  200503    1217.1906   -660.63179   -114386.81   -117478.59   -114579.75 
  206675    1205.9919    328.39014   -114521.89   -117585.22   -114426.15 
Loop time of 974.767 on 1 procs for 6172 steps with 19652 atoms

Performance: 0.547 ns/day, 43.870 hours/ns, 6.332 timesteps/s
98.0% CPU use with 1 MPI tasks x no OpenMP threads

MPI task timing breakdown:
Section |  min time  |  avg time  |  max time  |%varavg| %total
---------------------------------------------------------------
Pair    | 544.38     | 544.38     | 544.38     |   0.0 | 55.85
Neigh   | 404.7      | 404.7      | 404.7      |   0.0 | 41.52
Comm    | 9.6315     | 9.6315     | 9.6315     |   0.0 |  0.99
Output  | 0.00023699 | 0.00023699 | 0.00023699 |   0.0 |  0.00
Modify  | 12.72      | 12.72      | 12.72      |   0.0 |  1.30
Other   |            | 3.336      |            |       |  0.34

Nlocal:    19652 ave 19652 max 19652 min
Histogram: 1 0 0 0 0 0 0 0 0 0
Nghost:    15969 ave 15969 max 15969 min
Histogram: 1 0 0 0 0 0 0 0 0 0
Neighs:    1.06199e+06 ave 1.06199e+06 max 1.06199e+06 min
Histogram: 1 0 0 0 0 0 0 0 0 0

Total # of neighbors = 1061993
Ave neighs/atom = 54.0399
Neighbor list builds = 6172
Dangerous builds not checked
Setting up Verlet run ...
  Unit style    : metal
  Current step  : 206675
  Time step     : 0.001
[...]
99.6% CPU use with 1 MPI tasks x no OpenMP threads

MPI task timing breakdown:
Section |  min time  |  avg time  |  max time  |%varavg| %total
---------------------------------------------------------------
Pair    | 42.796     | 42.796     | 42.796     |   0.0 | 56.69
Neigh   | 30.479     | 30.479     | 30.479     |   0.0 | 40.37
Comm    | 0.80061    | 0.80061    | 0.80061    |   0.0 |  1.06
Output  | 0.076365   | 0.076365   | 0.076365   |   0.0 |  0.10
Modify  | 1.0677     | 1.0677     | 1.0677     |   0.0 |  1.41
Other   |            | 0.2758     |            |       |  0.37

Nlocal:    19652 ave 19652 max 19652 min
Histogram: 1 0 0 0 0 0 0 0 0 0
Nghost:    16121 ave 16121 max 16121 min
Histogram: 1 0 0 0 0 0 0 0 0 0
Neighs:    1.10023e+06 ave 1.10023e+06 max 1.10023e+06 min
Histogram: 1 0 0 0 0 0 0 0 0 0

Total # of neighbors = 1100231
Ave neighs/atom = 55.9857
Neighbor list builds = 495
Dangerous builds not checked
Setting up Verlet run ...
  Unit style    : metal
  Current step  : 307175
  Time step     : 0.001
Per MPI rank memory allocation (min/avg/max) = 18.19 | 18.19 | 18.19 Mbytes
Step Temp Press TotEng PotEng Enthalpy 
  307175    420.64542   -321.53923   -120096.53   -121165.01    -120188.2 
  313347    400.74277   -435.31487   -120209.06   -121226.98   -120333.12 
Loop time of 951.66 on 1 procs for 6172 steps with 19652 atoms

Performance: 0.560 ns/day, 42.831 hours/ns, 6.486 timesteps/s
99.7% CPU use with 1 MPI tasks x no OpenMP threads

MPI task timing breakdown:
Section |  min time  |  avg time  |  max time  |%varavg| %total
---------------------------------------------------------------
Pair    | 537.06     | 537.06     | 537.06     |   0.0 | 56.43
Neigh   | 387.59     | 387.59     | 387.59     |   0.0 | 40.73
Comm    | 10.115     | 10.115     | 10.115     |   0.0 |  1.06
Output  | 0.00041914 | 0.00041914 | 0.00041914 |   0.0 |  0.00
Modify  | 13.316     | 13.316     | 13.316     |   0.0 |  1.40
Other   |            | 3.586      |            |       |  0.38

Nlocal:    19652 ave 19652 max 19652 min
Histogram: 1 0 0 0 0 0 0 0 0 0
Nghost:    16097 ave 16097 max 16097 min
Histogram: 1 0 0 0 0 0 0 0 0 0
Neighs:    1.10101e+06 ave 1.10101e+06 max 1.10101e+06 min
Histogram: 1 0 0 0 0 0 0 0 0 0

Total # of neighbors = 1101010
Ave neighs/atom = 56.0253
Neighbor list builds = 6172
Dangerous builds not checked
Setting up Verlet run ...
  Unit style    : metal
  Current step  : 313347
  Time step     : 0.001
Per MPI rank memory allocation (min/avg/max) = 18.19 | 18.19 | 18.19 Mbytes
Step Temp Press TotEng PotEng Enthalpy 
  313347    400.74277   -435.31487   -120209.06   -121226.98   -120333.12 
  313349    400.79115   -431.73979   -120209.06   -121227.11   -120332.11 
  313842    374.19662     158.9771   -120365.58   -121316.07   -120320.33 
Loop time of 75.0565 on 1 procs for 495 steps with 19652 atoms

Performance: 0.570 ns/day, 42.119 hours/ns, 6.595 timesteps/s
99.6% CPU use with 1 MPI tasks x no OpenMP threads

MPI task timing breakdown:
Section |  min time  |  avg time  |  max time  |%varavg| %total
---------------------------------------------------------------
Pair    | 42.38      | 42.38      | 42.38      |   0.0 | 56.46
Neigh   | 30.513     | 30.513     | 30.513     |   0.0 | 40.65
Comm    | 0.78563    | 0.78563    | 0.78563    |   0.0 |  1.05
Output  | 0.059643   | 0.059643   | 0.059643   |   0.0 |  0.08
Modify  | 1.0382     | 1.0382     | 1.0382     |   0.0 |  1.38
Other   |            | 0.2801     |            |       |  0.37

Nlocal:    19652 ave 19652 max 19652 min
Histogram: 1 0 0 0 0 0 0 0 0 0
Nghost:    16107 ave 16107 max 16107 min
Histogram: 1 0 0 0 0 0 0 0 0 0
Neighs:    1.10232e+06 ave 1.10232e+06 max 1.10232e+06 min
Histogram: 1 0 0 0 0 0 0 0 0 0

Total # of neighbors = 1102322
Ave neighs/atom = 56.0921
Neighbor list builds = 495
Dangerous builds not checked
Setting up Verlet run ...
  Unit style    : metal
  Current step  : 313842
  Time step     : 0.001
Per MPI rank memory allocation (min/avg/max) = 18.19 | 18.19 | 18.19 Mbytes
Step Temp Press TotEng PotEng Enthalpy 
  313842    374.19662     158.9771   -120365.58   -121316.07   -120320.33 
  320014    349.70819   -549.99672   -120474.03   -121362.32   -120630.65 
Loop time of 950.363 on 1 procs for 6172 steps with 19652 atoms

Performance: 0.561 ns/day, 42.772 hours/ns, 6.494 timesteps/s
99.7% CPU use with 1 MPI tasks x no OpenMP threads

MPI task timing breakdown:
Section |  min time  |  avg time  |  max time  |%varavg| %total
---------------------------------------------------------------
Pair    | 537.59     | 537.59     | 537.59     |   0.0 | 56.57
Neigh   | 385.69     | 385.69     | 385.69     |   0.0 | 40.58
Comm    | 10.185     | 10.185     | 10.185     |   0.0 |  1.07
Output  | 0.00053287 | 0.00053287 | 0.00053287 |   0.0 |  0.00
Modify  | 13.335     | 13.335     | 13.335     |   0.0 |  1.40
Other   |            | 3.566      |            |       |  0.38

Nlocal:    19652 ave 19652 max 19652 min
Histogram: 1 0 0 0 0 0 0 0 0 0
Nghost:    16088 ave 16088 max 16088 min
Histogram: 1 0 0 0 0 0 0 0 0 0
Neighs:    1.10165e+06 ave 1.10165e+06 max 1.10165e+06 min
Histogram: 1 0 0 0 0 0 0 0 0 0

Total # of neighbors = 1101654
Ave neighs/atom = 56.0581
Neighbor list builds = 6172
Dangerous builds not checked
Setting up Verlet run ...
  Unit style    : metal
  Current step  : 320014
  Time step     : 0.001
Per MPI rank memory allocation (min/avg/max) = 18.19 | 18.19 | 18.19 Mbytes
Step Temp Press TotEng PotEng Enthalpy 
  320014    349.70819   -549.99672   -120474.03   -121362.32   -120630.65 
  320016    349.83033   -551.29548   -120474.03   -121362.63   -120631.02 
  320509    325.40819   -103.72739   -120632.56   -121459.13   -120662.07 
Loop time of 74.7532 on 1 procs for 495 steps with 19652 atoms

Performance: 0.572 ns/day, 41.949 hours/ns, 6.622 timesteps/s
99.9% CPU use with 1 MPI tasks x no OpenMP threads

MPI task timing breakdown:
Section |  min time  |  avg time  |  max time  |%varavg| %total
---------------------------------------------------------------
Pair    | 42.166     | 42.166     | 42.166     |   0.0 | 56.41
Neigh   | 30.424     | 30.424     | 30.424     |   0.0 | 40.70
Comm    | 0.78514    | 0.78514    | 0.78514    |   0.0 |  1.05
Output  | 0.074233   | 0.074233   | 0.074233   |   0.0 |  0.10
Modify  | 1.0245     | 1.0245     | 1.0245     |   0.0 |  1.37
Other   |            | 0.2797     |            |       |  0.37

Nlocal:    19652 ave 19652 max 19652 min
Histogram: 1 0 0 0 0 0 0 0 0 0
Nghost:    16109 ave 16109 max 16109 min
Histogram: 1 0 0 0 0 0 0 0 0 0
Neighs:    1.10319e+06 ave 1.10319e+06 max 1.10319e+06 min
Histogram: 1 0 0 0 0 0 0 0 0 0

Total # of neighbors = 1103194
Ave neighs/atom = 56.1365
Neighbor list builds = 495
Dangerous builds not checked
Setting up Verlet run ...
  Unit style    : metal
  Current step  : 320509
  Time step     : 0.001
Per MPI rank memory allocation (min/avg/max) = 18.19 | 18.19 | 18.19 Mbytes
Step Temp Press TotEng PotEng Enthalpy 
  320509    325.40819   -103.72739   -120632.56   -121459.13   -120662.07 
  326681    299.58212    242.23054   -120762.11   -121523.08   -120693.26 
Loop time of 938.594 on 1 procs for 6172 steps with 19652 atoms

Performance: 0.568 ns/day, 42.242 hours/ns, 6.576 timesteps/s
99.8% CPU use with 1 MPI tasks x no OpenMP threads

MPI task timing breakdown:
Section |  min time  |  avg time  |  max time  |%varavg| %total
---------------------------------------------------------------
Pair    | 529.77     | 529.77     | 529.77     |   0.0 | 56.44
Neigh   | 381.92     | 381.92     | 381.92     |   0.0 | 40.69
Comm    | 10.114     | 10.114     | 10.114     |   0.0 |  1.08
Output  | 0.00026608 | 0.00026608 | 0.00026608 |   0.0 |  0.00
Modify  | 13.254     | 13.254     | 13.254     |   0.0 |  1.41
Other   |            | 3.528      |            |       |  0.38

Nlocal:    19652 ave 19652 max 19652 min
Histogram: 1 0 0 0 0 0 0 0 0 0
Nghost:    16123 ave 16123 max 16123 min
Histogram: 1 0 0 0 0 0 0 0 0 0
Neighs:    1.10424e+06 ave 1.10424e+06 max 1.10424e+06 min
Histogram: 1 0 0 0 0 0 0 0 0 0

Total # of neighbors = 1104241
Ave neighs/atom = 56.1898
Neighbor list builds = 6172
Dangerous builds not checked
Setting up Verlet run ...
  Unit style    : metal
  Current step  : 326681
  Time step     : 0.001
Per MPI rank memory allocation (min/avg/max) = 18.19 | 18.19 | 18.19 Mbytes
Step Temp Press TotEng PotEng Enthalpy 
  326681    299.58212    242.23054   -120762.11   -121523.08   -120693.26 
  326683    299.69439    241.25068   -120762.11   -121523.36   -120693.54 
  327176    273.73203    303.27877   -120900.35   -121595.65   -120814.19 
Loop time of 74.8016 on 1 procs for 495 steps with 19652 atoms

Performance: 0.572 ns/day, 41.976 hours/ns, 6.618 timesteps/s
99.7% CPU use with 1 MPI tasks x no OpenMP threads

MPI task timing breakdown:
Section |  min time  |  avg time  |  max time  |%varavg| %total
---------------------------------------------------------------
Pair    | 42.066     | 42.066     | 42.066     |   0.0 | 56.24
Neigh   | 30.536     | 30.536     | 30.536     |   0.0 | 40.82
Comm    | 0.80934    | 0.80934    | 0.80934    |   0.0 |  1.08
Output  | 0.069631   | 0.069631   | 0.069631   |   0.0 |  0.09
Modify  | 1.0373     | 1.0373     | 1.0373     |   0.0 |  1.39
Other   |            | 0.284      |            |       |  0.38

Nlocal:    19652 ave 19652 max 19652 min
Histogram: 1 0 0 0 0 0 0 0 0 0
Nghost:    16100 ave 16100 max 16100 min
Histogram: 1 0 0 0 0 0 0 0 0 0
Neighs:    1.10475e+06 ave 1.10475e+06 max 1.10475e+06 min
Histogram: 1 0 0 0 0 0 0 0 0 0

Total # of neighbors = 1104750
Ave neighs/atom = 56.2157
Neighbor list builds = 495
Dangerous builds not checked
Setting up Verlet run ...
  Unit style    : metal
  Current step  : 327176
  Time step     : 0.001
Per MPI rank memory allocation (min/avg/max) = 18.19 | 18.19 | 18.19 Mbytes
Step Temp Press TotEng PotEng Enthalpy 
  327176    273.73203    303.27877   -120900.35   -121595.65   -120814.19 
  333348     249.3918    288.32712   -121034.65   -121668.12   -120952.78 
Loop time of 912.912 on 1 procs for 6172 steps with 19652 atoms

Performance: 0.584 ns/day, 41.087 hours/ns, 6.761 timesteps/s
99.8% CPU use with 1 MPI tasks x no OpenMP threads

MPI task timing breakdown:
Section |  min time  |  avg time  |  max time  |%varavg| %total
---------------------------------------------------------------
Pair    | 512.63     | 512.63     | 512.63     |   0.0 | 56.15
Neigh   | 375.7      | 375.7      | 375.7      |   0.0 | 41.15
Comm    | 9.1338     | 9.1338     | 9.1338     |   0.0 |  1.00
Output  | 0.00036883 | 0.00036883 | 0.00036883 |   0.0 |  0.00
Modify  | 12.182     | 12.182     | 12.182     |   0.0 |  1.33
Other   |            | 3.268      |            |       |  0.36

Nlocal:    19652 ave 19652 max 19652 min
Histogram: 1 0 0 0 0 0 0 0 0 0
Nghost:    16121 ave 16121 max 16121 min
Histogram: 1 0 0 0 0 0 0 0 0 0
Neighs:    1.10569e+06 ave 1.10569e+06 max 1.10569e+06 min
Histogram: 1 0 0 0 0 0 0 0 0 0

Total # of neighbors = 1105694
Ave neighs/atom = 56.2637
Neighbor list builds = 6172
Dangerous builds not checked
Setting up Verlet run ...
  Unit style    : metal
  Current step  : 333348
  Time step     : 0.001
Per MPI rank memory allocation (min/avg/max) = 18.19 | 18.19 | 18.19 Mbytes
Step Temp Press TotEng PotEng Enthalpy 
  333348     249.3918    288.32712   -121034.65   -121668.12   -120952.78 
  333350       249.25    287.27161   -121034.65   -121667.76   -120953.08 
  333843     224.6855   -205.82757   -121160.12   -121730.84   -121218.56 
Loop time of 71.6814 on 1 procs for 495 steps with 19652 atoms

Performance: 0.597 ns/day, 40.225 hours/ns, 6.906 timesteps/s
99.9% CPU use with 1 MPI tasks x no OpenMP threads

MPI task timing breakdown:
Section |  min time  |  avg time  |  max time  |%varavg| %total
---------------------------------------------------------------
Pair    | 40.061     | 40.061     | 40.061     |   0.0 | 55.89
Neigh   | 29.584     | 29.584     | 29.584     |   0.0 | 41.27
Comm    | 0.71964    | 0.71964    | 0.71964    |   0.0 |  1.00
Output  | 0.071984   | 0.071984   | 0.071984   |   0.0 |  0.10
Modify  | 0.99133    | 0.99133    | 0.99133    |   0.0 |  1.38
Other   |            | 0.2544     |            |       |  0.35

Nlocal:    19652 ave 19652 max 19652 min
Histogram: 1 0 0 0 0 0 0 0 0 0
Nghost:    16161 ave 16161 max 16161 min
Histogram: 1 0 0 0 0 0 0 0 0 0
Neighs:    1.10544e+06 ave 1.10544e+06 max 1.10544e+06 min
Histogram: 1 0 0 0 0 0 0 0 0 0

Total # of neighbors = 1105439
Ave neighs/atom = 56.2507
Neighbor list builds = 495
Dangerous builds not checked
Setting up Verlet run ...
  Unit style    : metal
  Current step  : 333843
  Time step     : 0.001
Per MPI rank memory allocation (min/avg/max) = 18.19 | 18.19 | 18.19 Mbytes
Step Temp Press TotEng PotEng Enthalpy 
  333843     224.6855   -205.82757   -121160.12   -121730.84   -121218.56 
  340015    199.80329   -175.50176   -121289.76   -121797.28   -121339.57 
Loop time of 918.999 on 1 procs for 6172 steps with 19652 atoms

Performance: 0.580 ns/day, 41.361 hours/ns, 6.716 timesteps/s
97.3% CPU use with 1 MPI tasks x no OpenMP threads

MPI task timing breakdown:
Section |  min time  |  avg time  |  max time  |%varavg| %total
---------------------------------------------------------------
Pair    | 513.74     | 513.74     | 513.74     |   0.0 | 55.90
Neigh   | 381.05     | 381.05     | 381.05     |   0.0 | 41.46
Comm    | 8.9106     | 8.9106     | 8.9106     |   0.0 |  0.97
Output  | 0.0002048  | 0.0002048  | 0.0002048  |   0.0 |  0.00
Modify  | 12.132     | 12.132     | 12.132     |   0.0 |  1.32
Other   |            | 3.169      |            |       |  0.34

Nlocal:    19652 ave 19652 max 19652 min
Histogram: 1 0 0 0 0 0 0 0 0 0
Nghost:    16148 ave 16148 max 16148 min
Histogram: 1 0 0 0 0 0 0 0 0 0
Neighs:    1.10591e+06 ave 1.10591e+06 max 1.10591e+06 min
Histogram: 1 0 0 0 0 0 0 0 0 0

Total # of neighbors = 1105912
Ave neighs/atom = 56.2748
Neighbor list builds = 6172
Dangerous builds not checked
Setting up Verlet run ...
  Unit style    : metal
  Current step  : 340015
  Time step     : 0.001
Per MPI rank memory allocation (min/avg/max) = 18.19 | 18.19 | 18.19 Mbytes
Step Temp Press TotEng PotEng Enthalpy 
  340015    199.80329   -175.50176   -121289.76   -121797.28   -121339.57 
  340017    199.75535   -175.72242   -121289.76   -121797.15   -121339.63 
  340510    175.06424    197.95264    -121417.9   -121862.58   -121361.77 
Loop time of 70.0319 on 1 procs for 495 steps with 19652 atoms

Performance: 0.611 ns/day, 39.300 hours/ns, 7.068 timesteps/s
98.3% CPU use with 1 MPI tasks x no OpenMP threads

MPI task timing breakdown:
Section |  min time  |  avg time  |  max time  |%varavg| %total
---------------------------------------------------------------
Pair    | 38.678     | 38.678     | 38.678     |   0.0 | 55.23
Neigh   | 29.529     | 29.529     | 29.529     |   0.0 | 42.17
Comm    | 0.63142    | 0.63142    | 0.63142    |   0.0 |  0.90
Output  | 0.070849   | 0.070849   | 0.070849   |   0.0 |  0.10
Modify  | 0.89067    | 0.89067    | 0.89067    |   0.0 |  1.27
Other   |            | 0.2317     |            |       |  0.33

Nlocal:    19652 ave 19652 max 19652 min
Histogram: 1 0 0 0 0 0 0 0 0 0
Nghost:    16138 ave 16138 max 16138 min
Histogram: 1 0 0 0 0 0 0 0 0 0
Neighs:    1.10733e+06 ave 1.10733e+06 max 1.10733e+06 min
Histogram: 1 0 0 0 0 0 0 0 0 0

Total # of neighbors = 1107327
Ave neighs/atom = 56.3468
Neighbor list builds = 495
Dangerous builds not checked
Setting up Verlet run ...
  Unit style    : metal
  Current step  : 340510
  Time step     : 0.001
Per MPI rank memory allocation (min/avg/max) = 18.19 | 18.19 | 18.19 Mbytes
Step Temp Press TotEng PotEng Enthalpy 
  340510    175.06424    197.95264    -121417.9   -121862.58   -121361.77 
  346682    149.64813   -548.00937    -121557.4   -121937.52   -121712.85 
Loop time of 935.329 on 1 procs for 6172 steps with 19652 atoms

Performance: 0.570 ns/day, 42.096 hours/ns, 6.599 timesteps/s
93.5% CPU use with 1 MPI tasks x no OpenMP threads

MPI task timing breakdown:
Section |  min time  |  avg time  |  max time  |%varavg| %total
---------------------------------------------------------------
Pair    | 520.96     | 520.96     | 520.96     |   0.0 | 55.70
Neigh   | 390.6      | 390.6      | 390.6      |   0.0 | 41.76
Comm    | 8.6294     | 8.6294     | 8.6294     |   0.0 |  0.92
Output  | 0.000211   | 0.000211   | 0.000211   |   0.0 |  0.00
Modify  | 12.018     | 12.018     | 12.018     |   0.0 |  1.28
Other   |            | 3.128      |            |       |  0.33

Nlocal:    19652 ave 19652 max 19652 min
Histogram: 1 0 0 0 0 0 0 0 0 0
Nghost:    16135 ave 16135 max 16135 min
Histogram: 1 0 0 0 0 0 0 0 0 0
Neighs:    1.10666e+06 ave 1.10666e+06 max 1.10666e+06 min
Histogram: 1 0 0 0 0 0 0 0 0 0

Total # of neighbors = 1106663
Ave neighs/atom = 56.313
Neighbor list builds = 6172
Dangerous builds not checked
Setting up Verlet run ...
  Unit style    : metal
  Current step  : 346682
  Time step     : 0.001
Per MPI rank memory allocation (min/avg/max) = 18.19 | 18.19 | 18.19 Mbytes
Step Temp Press TotEng PotEng Enthalpy 
  346682    149.64813   -548.00937    -121557.4   -121937.52   -121712.85 
  346684    149.64421   -543.78695    -121557.4   -121937.51   -121711.65 
  347177    127.23642    76.682302   -121671.65   -121994.84   -121649.92 
Loop time of 73.1366 on 1 procs for 495 steps with 19652 atoms

Performance: 0.585 ns/day, 41.042 hours/ns, 6.768 timesteps/s
94.0% CPU use with 1 MPI tasks x no OpenMP threads

MPI task timing breakdown:
Section |  min time  |  avg time  |  max time  |%varavg| %total
---------------------------------------------------------------
Pair    | 40.84      | 40.84      | 40.84      |   0.0 | 55.84
Neigh   | 30.319     | 30.319     | 30.319     |   0.0 | 41.46
Comm    | 0.70348    | 0.70348    | 0.70348    |   0.0 |  0.96
Output  | 0.10883    | 0.10883    | 0.10883    |   0.0 |  0.15
Modify  | 0.90838    | 0.90838    | 0.90838    |   0.0 |  1.24
Other   |            | 0.2571     |            |       |  0.35

Nlocal:    19652 ave 19652 max 19652 min
Histogram: 1 0 0 0 0 0 0 0 0 0
Nghost:    16150 ave 16150 max 16150 min
Histogram: 1 0 0 0 0 0 0 0 0 0
Neighs:    1.10795e+06 ave 1.10795e+06 max 1.10795e+06 min
Histogram: 1 0 0 0 0 0 0 0 0 0

Total # of neighbors = 1107953
Ave neighs/atom = 56.3786
Neighbor list builds = 495
Dangerous builds not checked
Setting up Verlet run ...
  Unit style    : metal
  Current step  : 347177
  Time step     : 0.001
Per MPI rank memory allocation (min/avg/max) = 18.19 | 18.19 | 18.19 Mbytes
Step Temp Press TotEng PotEng Enthalpy 
  347177    127.23642    76.682302   -121671.65   -121994.84   -121649.92 
  353349    101.67468   -42.452993   -121808.76   -122067.03   -121820.79 
Loop time of 917.729 on 1 procs for 6172 steps with 19652 atoms

Performance: 0.581 ns/day, 41.303 hours/ns, 6.725 timesteps/s
95.6% CPU use with 1 MPI tasks x no OpenMP threads

MPI task timing breakdown:
Section |  min time  |  avg time  |  max time  |%varavg| %total
---------------------------------------------------------------
Pair    | 516.34     | 516.34     | 516.34     |   0.0 | 56.26
Neigh   | 377.39     | 377.39     | 377.39     |   0.0 | 41.12
Comm    | 8.8682     | 8.8682     | 8.8682     |   0.0 |  0.97
Output  | 0.00033402 | 0.00033402 | 0.00033402 |   0.0 |  0.00
Modify  | 12.014     | 12.014     | 12.014     |   0.0 |  1.31
Other   |            | 3.113      |            |       |  0.34

Nlocal:    19652 ave 19652 max 19652 min
Histogram: 1 0 0 0 0 0 0 0 0 0
Nghost:    16155 ave 16155 max 16155 min
Histogram: 1 0 0 0 0 0 0 0 0 0
Neighs:    1.1083e+06 ave 1.1083e+06 max 1.1083e+06 min
Histogram: 1 0 0 0 0 0 0 0 0 0

Total # of neighbors = 1108298
Ave neighs/atom = 56.3962
Neighbor list builds = 6172
Dangerous builds not checked
Total wall time: 14:45:52
