LAMMPS (12 Dec 2018)
Lattice spacing in x,y,z = 4 4 4
Created orthogonal box = (0 0 0) to (68 68 68)
  1 by 1 by 2 MPI processor grid
Created 19652 atoms
  Time spent = 0.00174904 secs
Setting atom values ...
  206 settings made for type/fraction
Neighbor list info ...
  update every 1 steps, delay 0 steps, check no
  max neighbors/atom: 2000, page size: 100000
  master list distance cutoff = 8.5
  ghost atom cutoff = 8.5
  binsize = 4.25, bins = 16 16 16
  1 neighbor lists, perpetual/occasional/extra = 1 0 0
  (1) pair eam/alloy, perpetual
      attributes: half, newton on
      pair build: half/bin/atomonly/newton
      stencil: half/bin/3d/newton
      bin: standard
Setting up Verlet run ...
  Unit style    : metal
  Current step  : 0
  Time step     : 0.001
Per MPI rank memory allocation (min/avg/max) = 11.15 | 11.15 | 11.15 Mbytes
Step Temp Press TotEng PotEng Enthalpy 
       0          300    639595.78   -102542.49   -103304.52    22980.119 
    1000     192.7813    582296.27   -102542.43   -103032.11    11734.983 
Loop time of 96.3159 on 2 procs for 1000 steps with 19652 atoms

Performance: 0.897 ns/day, 26.754 hours/ns, 10.383 timesteps/s
99.8% CPU use with 2 MPI tasks x no OpenMP threads

MPI task timing breakdown:
Section |  min time  |  avg time  |  max time  |%varavg| %total
---------------------------------------------------------------
Pair    | 55.504     | 55.818     | 56.132     |   4.2 | 57.95
Neigh   | 36.012     | 36.348     | 36.683     |   5.6 | 37.74
Comm    | 3.6441     | 3.6648     | 3.6856     |   1.1 |  3.81
Output  | 0.00012708 | 0.00020146 | 0.00027585 |   0.0 |  0.00
Modify  | 0.24728    | 0.24881    | 0.25035    |   0.3 |  0.26
Other   |            | 0.2366     |            |       |  0.25

Nlocal:    9826 ave 9869 max 9783 min
Histogram: 1 0 0 0 0 0 0 0 0 1
Nghost:    14085 ave 14125 max 14045 min
Histogram: 1 0 0 0 0 0 0 0 0 1
Neighs:    781422 ave 785362 max 777482 min
Histogram: 1 0 0 0 0 0 0 0 0 1

Total # of neighbors = 1562844
Ave neighs/atom = 79.526
Neighbor list builds = 1000
Dangerous builds not checked
Setting up Verlet run ...
  Unit style    : metal
  Current step  : 1000
  Time step     : 0.001
Per MPI rank memory allocation (min/avg/max) = 11.15 | 11.15 | 11.15 Mbytes
Step Temp Press TotEng PotEng Enthalpy 
    1000     192.7813    582296.27   -102542.43   -103032.11    11734.983 
    2000    301.01576    35.489633   -121852.21   -122616.81   -121842.08 
Loop time of 85.1594 on 2 procs for 1000 steps with 19652 atoms

Performance: 1.015 ns/day, 23.655 hours/ns, 11.743 timesteps/s
95.1% CPU use with 2 MPI tasks x no OpenMP threads

MPI task timing breakdown:
Section |  min time  |  avg time  |  max time  |%varavg| %total
---------------------------------------------------------------
Pair    | 46.207     | 46.218     | 46.229     |   0.2 | 54.27
Neigh   | 30.994     | 31.07      | 31.146     |   1.4 | 36.48
Comm    | 6.0948     | 6.1622     | 6.2296     |   2.7 |  7.24
Output  | 0.00010109 | 0.00012851 | 0.00015593 |   0.0 |  0.00
Modify  | 1.4835     | 1.485      | 1.4865     |   0.1 |  1.74
Other   |            | 0.2239     |            |       |  0.26

Nlocal:    9826 ave 9854 max 9798 min
Histogram: 1 0 0 0 0 0 0 0 0 1
Nghost:    10350.5 ave 10379 max 10322 min
Histogram: 1 0 0 0 0 0 0 0 0 1
Neighs:    548340 ave 550528 max 546153 min
Histogram: 1 0 0 0 0 0 0 0 0 1

Total # of neighbors = 1096681
Ave neighs/atom = 55.8051
Neighbor list builds = 1000
Dangerous builds not checked
Setting up Verlet run ...
  Unit style    : metal
  Current step  : 2000
  Time step     : 0.001
Per MPI rank memory allocation (min/avg/max) = 11.15 | 11.15 | 11.15 Mbytes
Step Temp Press TotEng PotEng Enthalpy 
    2000    301.01576    35.489633   -121852.21   -122616.81   -121842.08 
   10000    2439.8811   -886.05388   -106450.46   -112647.98   -106720.56 
Loop time of 589.699 on 2 procs for 8000 steps with 19652 atoms

Performance: 1.172 ns/day, 20.476 hours/ns, 13.566 timesteps/s
98.9% CPU use with 2 MPI tasks x no OpenMP threads

MPI task timing breakdown:
Section |  min time  |  avg time  |  max time  |%varavg| %total
---------------------------------------------------------------
Pair    | 318.96     | 320.04     | 321.13     |   6.1 | 54.27
Neigh   | 228.76     | 229.32     | 229.87     |   3.7 | 38.89
Comm    | 30.719     | 31.248     | 31.776     |   9.4 |  5.30
Output  | 0.032345   | 0.03236    | 0.032375   |   0.0 |  0.01
Modify  | 7.2519     | 7.256      | 7.2602     |   0.2 |  1.23
Other   |            | 1.801      |            |       |  0.31

Nlocal:    9826 ave 9860 max 9792 min
Histogram: 1 0 0 0 0 0 0 0 0 1
Nghost:    10952.5 ave 10970 max 10935 min
Histogram: 1 0 0 0 0 0 0 0 0 1
Neighs:    503140 ave 505930 max 500349 min
Histogram: 1 0 0 0 0 0 0 0 0 1

Total # of neighbors = 1006279
Ave neighs/atom = 51.2049
Neighbor list builds = 8000
Dangerous builds not checked
Setting up Verlet run ...
  Unit style    : metal
  Current step  : 10000
  Time step     : 0.001
Per MPI rank memory allocation (min/avg/max) = 11.17 | 11.17 | 11.17 Mbytes
Step Temp Press TotEng PotEng Enthalpy 
   10000    2439.8811   -886.05388   -106450.46   -112647.98   -106720.56 
   20000    2470.1392    1139.6766   -106304.15   -112578.53   -105957.45 
   30000     2465.188   -410.95023   -106389.93   -112651.74   -106515.11 
   40000    2464.2917     1855.003   -106362.36   -112621.89   -105799.19 
Loop time of 2307.78 on 2 procs for 30000 steps with 19652 atoms

Performance: 1.123 ns/day, 21.368 hours/ns, 13.000 timesteps/s
98.6% CPU use with 2 MPI tasks x no OpenMP threads

MPI task timing breakdown:
Section |  min time  |  avg time  |  max time  |%varavg| %total
---------------------------------------------------------------
Pair    | 1245       | 1247.8     | 1250.6     |   7.9 | 54.07
Neigh   | 909.21     | 911.37     | 913.54     |   7.2 | 39.49
Comm    | 110.41     | 115.52     | 120.62     |  47.5 |  5.01
Output  | 0.10575    | 0.10588    | 0.10601    |   0.0 |  0.00
Modify  | 26.205     | 26.319     | 26.433     |   2.2 |  1.14
Other   |            | 6.623      |            |       |  0.29

Nlocal:    9826 ave 9835 max 9817 min
Histogram: 1 0 0 0 0 0 0 0 0 1
Nghost:    11016.5 ave 11052 max 10981 min
Histogram: 1 0 0 0 0 0 0 0 0 1
Neighs:    505072 ave 505642 max 504501 min
Histogram: 1 0 0 0 0 0 0 0 0 1

Total # of neighbors = 1010143
Ave neighs/atom = 51.4015
Neighbor list builds = 30000
Dangerous builds not checked
Setting up Verlet run ...
  Unit style    : metal
  Current step  : 40000
  Time step     : 0.001
Per MPI rank memory allocation (min/avg/max) = 11.22 | 11.22 | 11.22 Mbytes
Step Temp Press TotEng PotEng Enthalpy 
   40000    2464.2917     1855.003   -106362.36   -112621.89   -105799.19 
   40495    2425.5162    1435.6575   -106623.98   -112785.01   -106188.51 
Loop time of 39.3574 on 2 procs for 495 steps with 19652 atoms

Performance: 1.087 ns/day, 22.086 hours/ns, 12.577 timesteps/s
99.5% CPU use with 2 MPI tasks x no OpenMP threads

MPI task timing breakdown:
Section |  min time  |  avg time  |  max time  |%varavg| %total
---------------------------------------------------------------
Pair    | 20.73      | 21.316     | 21.903     |  12.7 | 54.16
Neigh   | 16.017     | 16.04      | 16.062     |   0.6 | 40.75
Comm    | 0.81428    | 1.4049     | 1.9956     |  49.8 |  3.57
Output  | 7.9155e-05 | 0.00014913 | 0.00021911 |   0.0 |  0.00
Modify  | 0.45773    | 0.45971    | 0.46169    |   0.3 |  1.17
Other   |            | 0.1366     |            |       |  0.35

Nlocal:    9826 ave 9839 max 9813 min
Histogram: 1 0 0 0 0 0 0 0 0 1
Nghost:    10966.5 ave 10969 max 10964 min
Histogram: 1 0 0 0 0 0 0 0 0 1
Neighs:    505828 ave 506779 max 504877 min
Histogram: 1 0 0 0 0 0 0 0 0 1

Total # of neighbors = 1011656
Ave neighs/atom = 51.4785
Neighbor list builds = 495
Dangerous builds not checked
Setting up Verlet run ...
  Unit style    : metal
  Current step  : 40495
  Time step     : 0.001
Per MPI rank memory allocation (min/avg/max) = 11.22 | 11.22 | 11.22 Mbytes
Step Temp Press TotEng PotEng Enthalpy 
   40495    2425.5162    1435.6575   -106623.98   -112785.01   -106188.51 
   50000    2387.6998   -217.37356   -106711.47   -112776.44    -106777.6 
Loop time of 776.143 on 2 procs for 9505 steps with 19652 atoms

Performance: 1.058 ns/day, 22.682 hours/ns, 12.246 timesteps/s
98.0% CPU use with 2 MPI tasks x no OpenMP threads

MPI task timing breakdown:
Section |  min time  |  avg time  |  max time  |%varavg| %total
---------------------------------------------------------------
Pair    | 423.11     | 423.45     | 423.79     |   1.7 | 54.56
Neigh   | 313.17     | 313.81     | 314.45     |   3.6 | 40.43
Comm    | 27.534     | 27.882     | 28.23      |   6.6 |  3.59
Output  | 0.036322   | 0.036359   | 0.036397   |   0.0 |  0.00
Modify  | 8.6685     | 8.7279     | 8.7872     |   2.0 |  1.12
Other   |            | 2.237      |            |       |  0.29

Nlocal:    9826 ave 9845 max 9807 min
Histogram: 1 0 0 0 0 0 0 0 0 1
Nghost:    10968 ave 10980 max 10956 min
Histogram: 1 0 0 0 0 0 0 0 0 1
Neighs:    504238 ave 506362 max 502115 min
Histogram: 1 0 0 0 0 0 0 0 0 1

Total # of neighbors = 1008477
Ave neighs/atom = 51.3168
Neighbor list builds = 9505
Dangerous builds not checked
Setting up Verlet run ...
  Unit style    : metal
  Current step  : 50000
  Time step     : 0.001
Per MPI rank memory allocation (min/avg/max) = 11.23 | 11.23 | 11.23 Mbytes
Step Temp Press TotEng PotEng Enthalpy 
   50000    2387.6998   -217.37356   -106711.47   -112776.44    -106777.6 
   50495    2355.1726    615.85097   -106936.27   -112918.62   -106749.39 
Loop time of 41.2349 on 2 procs for 495 steps with 19652 atoms

Performance: 1.037 ns/day, 23.140 hours/ns, 12.004 timesteps/s
94.4% CPU use with 2 MPI tasks x no OpenMP threads

MPI task timing breakdown:
Section |  min time  |  avg time  |  max time  |%varavg| %total
---------------------------------------------------------------
Pair    | 21.796     | 21.984     | 22.173     |   4.0 | 53.31
Neigh   | 15.638     | 15.721     | 15.804     |   2.1 | 38.13
Comm    | 2.7022     | 2.9712     | 3.2401     |  15.6 |  7.21
Output  | 0.000108   | 0.00013351 | 0.00015903 |   0.0 |  0.00
Modify  | 0.43975    | 0.44316    | 0.44656    |   0.5 |  1.07
Other   |            | 0.115      |            |       |  0.28

Nlocal:    9826 ave 9842 max 9810 min
Histogram: 1 0 0 0 0 0 0 0 0 1
Nghost:    10983.5 ave 10994 max 10973 min
Histogram: 1 0 0 0 0 0 0 0 0 1
Neighs:    505392 ave 506857 max 503928 min
Histogram: 1 0 0 0 0 0 0 0 0 1

Total # of neighbors = 1010785
Ave neighs/atom = 51.4342
Neighbor list builds = 495
Dangerous builds not checked
Setting up Verlet run ...
  Unit style    : metal
  Current step  : 50495
  Time step     : 0.001
Per MPI rank memory allocation (min/avg/max) = 11.23 | 11.23 | 11.23 Mbytes
Step Temp Press TotEng PotEng Enthalpy 
   50495    2355.1726    615.85097   -106936.27   -112918.62   -106749.39 
   60000    2362.3835   -1.4437489   -106951.42   -112952.09   -106951.86 
Loop time of 773.885 on 2 procs for 9505 steps with 19652 atoms

Performance: 1.061 ns/day, 22.616 hours/ns, 12.282 timesteps/s
96.6% CPU use with 2 MPI tasks x no OpenMP threads

MPI task timing breakdown:
Section |  min time  |  avg time  |  max time  |%varavg| %total
---------------------------------------------------------------
Pair    | 417.13     | 417.45     | 417.78     |   1.6 | 53.94
Neigh   | 310.38     | 310.47     | 310.56     |   0.5 | 40.12
Comm    | 34.696     | 35.13      | 35.564     |   7.3 |  4.54
Output  | 0.035121   | 0.035158   | 0.035195   |   0.0 |  0.00
Modify  | 8.5679     | 8.6067     | 8.6455     |   1.3 |  1.11
Other   |            | 2.185      |            |       |  0.28

Nlocal:    9826 ave 9833 max 9819 min
Histogram: 1 0 0 0 0 0 0 0 0 1
Nghost:    10994.5 ave 11023 max 10966 min
Histogram: 1 0 0 0 0 0 0 0 0 1
Neighs:    505185 ave 505235 max 505135 min
Histogram: 1 0 0 0 0 0 0 0 0 1

Total # of neighbors = 1010370
Ave neighs/atom = 51.4131
Neighbor list builds = 9505
Dangerous builds not checked
Setting up Verlet run ...
  Unit style    : metal
  Current step  : 60000
  Time step     : 0.001
Per MPI rank memory allocation (min/avg/max) = 11.24 | 11.24 | 11.24 Mbytes
Step Temp Press TotEng PotEng Enthalpy 
   60000    2362.3835   -1.4437489   -106951.42   -112952.09   -106951.86 
   60495    2303.9186    173.92125   -107224.46   -113076.63   -107171.79 
Loop time of 38.5979 on 2 procs for 495 steps with 19652 atoms

Performance: 1.108 ns/day, 21.660 hours/ns, 12.825 timesteps/s
95.9% CPU use with 2 MPI tasks x no OpenMP threads

MPI task timing breakdown:
Section |  min time  |  avg time  |  max time  |%varavg| %total
---------------------------------------------------------------
Pair    | 20.904     | 20.934     | 20.964     |   0.7 | 54.24
Neigh   | 15.34      | 15.599     | 15.858     |   6.6 | 40.41
Comm    | 1.2644     | 1.504      | 1.7436     |  19.5 |  3.90
Output  | 8.2016e-05 | 0.00012505 | 0.00016809 |   0.0 |  0.00
Modify  | 0.43618    | 0.44656    | 0.45695    |   1.6 |  1.16
Other   |            | 0.1142     |            |       |  0.30

Nlocal:    9826 ave 9839 max 9813 min
Histogram: 1 0 0 0 0 0 0 0 0 1
Nghost:    10997 ave 11008 max 10986 min
Histogram: 1 0 0 0 0 0 0 0 0 1
Neighs:    506395 ave 506990 max 505800 min
Histogram: 1 0 0 0 0 0 0 0 0 1

Total # of neighbors = 1012790
Ave neighs/atom = 51.5362
Neighbor list builds = 495
Dangerous builds not checked
Setting up Verlet run ...
  Unit style    : metal
  Current step  : 60495
  Time step     : 0.001
Per MPI rank memory allocation (min/avg/max) = 11.24 | 11.24 | 11.24 Mbytes
Step Temp Press TotEng PotEng Enthalpy 
   60495    2303.9186    173.92125   -107224.46   -113076.63   -107171.79 
   70000     2287.634   -438.60926   -107294.36   -113105.16   -107427.28 
Loop time of 789.663 on 2 procs for 9505 steps with 19652 atoms

Performance: 1.040 ns/day, 23.077 hours/ns, 12.037 timesteps/s
96.1% CPU use with 2 MPI tasks x no OpenMP threads

MPI task timing breakdown:
Section |  min time  |  avg time  |  max time  |%varavg| %total
---------------------------------------------------------------
Pair    | 423.79     | 426.32     | 428.86     |  12.3 | 53.99
Neigh   | 313.16     | 314.04     | 314.93     |   5.0 | 39.77
Comm    | 36.1       | 37.831     | 39.562     |  28.1 |  4.79
Output  | 0.039051   | 0.039074   | 0.039096   |   0.0 |  0.00
Modify  | 9.091      | 9.1658     | 9.2406     |   2.5 |  1.16
Other   |            | 2.26       |            |       |  0.29

Nlocal:    9826 ave 9848 max 9804 min
Histogram: 1 0 0 0 0 0 0 0 0 1
Nghost:    10995.5 ave 11023 max 10968 min
Histogram: 1 0 0 0 0 0 0 0 0 1
Neighs:    506100 ave 507582 max 504619 min
Histogram: 1 0 0 0 0 0 0 0 0 1

Total # of neighbors = 1012201
Ave neighs/atom = 51.5063
Neighbor list builds = 9505
Dangerous builds not checked
Setting up Verlet run ...
  Unit style    : metal
  Current step  : 70000
  Time step     : 0.001
Per MPI rank memory allocation (min/avg/max) = 11.24 | 11.24 | 11.24 Mbytes
Step Temp Press TotEng PotEng Enthalpy 
   70000     2287.634   -438.60926   -107294.36   -113105.16   -107427.28 
   70495     2261.082    241.00725   -107475.87   -113219.23   -107402.95 
Loop time of 41.5852 on 2 procs for 495 steps with 19652 atoms

Performance: 1.028 ns/day, 23.336 hours/ns, 11.903 timesteps/s
94.9% CPU use with 2 MPI tasks x no OpenMP threads

MPI task timing breakdown:
Section |  min time  |  avg time  |  max time  |%varavg| %total
---------------------------------------------------------------
Pair    | 22.618     | 22.624     | 22.631     |   0.1 | 54.40
Neigh   | 16.407     | 16.426     | 16.446     |   0.5 | 39.50
Comm    | 1.8188     | 1.8627     | 1.9065     |   3.2 |  4.48
Output  | 0.00011086 | 0.00022745 | 0.00034404 |   0.0 |  0.00
Modify  | 0.53699    | 0.5503     | 0.56361    |   1.8 |  1.32
Other   |            | 0.1216     |            |       |  0.29

Nlocal:    9826 ave 9840 max 9812 min
Histogram: 1 0 0 0 0 0 0 0 0 1
Nghost:    10974 ave 10977 max 10971 min
Histogram: 1 0 0 0 0 0 0 0 0 1
Neighs:    506776 ave 507559 max 505992 min
Histogram: 1 0 0 0 0 0 0 0 0 1

Total # of neighbors = 1013551
Ave neighs/atom = 51.575
Neighbor list builds = 495
Dangerous builds not checked
Setting up Verlet run ...
  Unit style    : metal
  Current step  : 70495
  Time step     : 0.001
Per MPI rank memory allocation (min/avg/max) = 11.24 | 11.24 | 11.24 Mbytes
Step Temp Press TotEng PotEng Enthalpy 
   70495     2261.082    241.00725   -107475.87   -113219.23   -107402.95 
   80000    2256.2497     23.28759   -107590.83   -113321.91    -107583.8 
Loop time of 864.205 on 2 procs for 9505 steps with 19652 atoms

Performance: 0.950 ns/day, 25.256 hours/ns, 10.999 timesteps/s
91.8% CPU use with 2 MPI tasks x no OpenMP threads

MPI task timing breakdown:
Section |  min time  |  avg time  |  max time  |%varavg| %total
---------------------------------------------------------------
Pair    | 470.95     | 471.26     | 471.56     |   1.4 | 54.53
Neigh   | 333.42     | 333.57     | 333.73     |   0.9 | 38.60
Comm    | 46.64      | 46.763     | 46.885     |   1.8 |  5.41
Output  | 0.036088   | 0.036181   | 0.036274   |   0.0 |  0.00
Modify  | 10.098     | 10.113     | 10.127     |   0.4 |  1.17
Other   |            | 2.466      |            |       |  0.29

Nlocal:    9826 ave 9830 max 9822 min
Histogram: 1 0 0 0 0 0 0 0 0 1
Nghost:    11025 ave 11042 max 11008 min
Histogram: 1 0 0 0 0 0 0 0 0 1
Neighs:    507746 ave 508085 max 507407 min
Histogram: 1 0 0 0 0 0 0 0 0 1

Total # of neighbors = 1015492
Ave neighs/atom = 51.6737
Neighbor list builds = 9505
Dangerous builds not checked
Setting up Verlet run ...
  Unit style    : metal
  Current step  : 80000
  Time step     : 0.001
Per MPI rank memory allocation (min/avg/max) = 11.25 | 11.25 | 11.25 Mbytes
Step Temp Press TotEng PotEng Enthalpy 
   80000    2256.2497     23.28759   -107590.83   -113321.91    -107583.8 
   80495    2214.9036    821.96413   -107869.48   -113495.54   -107621.72 
Loop time of 47.7121 on 2 procs for 495 steps with 19652 atoms

Performance: 0.896 ns/day, 26.774 hours/ns, 10.375 timesteps/s
89.1% CPU use with 2 MPI tasks x no OpenMP threads

MPI task timing breakdown:
Section |  min time  |  avg time  |  max time  |%varavg| %total
---------------------------------------------------------------
Pair    | 26.284     | 26.386     | 26.489     |   2.0 | 55.30
Neigh   | 17.42      | 17.683     | 17.947     |   6.3 | 37.06
Comm    | 2.7035     | 2.8729     | 3.0423     |  10.0 |  6.02
Output  | 0.00010395 | 0.00014949 | 0.00019503 |   0.0 |  0.00
Modify  | 0.61977    | 0.62786    | 0.63594    |   1.0 |  1.32
Other   |            | 0.1415     |            |       |  0.30

Nlocal:    9826 ave 9831 max 9821 min
Histogram: 1 0 0 0 0 0 0 0 0 1
Nghost:    11036.5 ave 11044 max 11029 min
Histogram: 1 0 0 0 0 0 0 0 0 1
Neighs:    508976 ave 509120 max 508833 min
Histogram: 1 0 0 0 0 0 0 0 0 1

Total # of neighbors = 1017953
Ave neighs/atom = 51.799
Neighbor list builds = 495
Dangerous builds not checked
Setting up Verlet run ...
  Unit style    : metal
  Current step  : 80495
  Time step     : 0.001
Per MPI rank memory allocation (min/avg/max) = 11.25 | 11.25 | 11.25 Mbytes
Step Temp Press TotEng PotEng Enthalpy 
   80495    2214.9036    821.96413   -107869.48   -113495.54   -107621.72 
   90000    2198.5655   -965.57085   -107967.46   -113552.01   -108259.12 
Loop time of 958.299 on 2 procs for 9505 steps with 19652 atoms

Performance: 0.857 ns/day, 28.006 hours/ns, 9.919 timesteps/s
88.5% CPU use with 2 MPI tasks x no OpenMP threads

MPI task timing breakdown:
Section |  min time  |  avg time  |  max time  |%varavg| %total
---------------------------------------------------------------
Pair    | 528.14     | 528.17     | 528.2      |   0.1 | 55.11
Neigh   | 348.78     | 351.32     | 353.86     |  13.6 | 36.66
Comm    | 58.91      | 61.426     | 63.942     |  32.1 |  6.41
Output  | 0.063774   | 0.063794   | 0.063814   |   0.0 |  0.01
Modify  | 14.643     | 14.663     | 14.684     |   0.5 |  1.53
Other   |            | 2.658      |            |       |  0.28

Nlocal:    9826 ave 9834 max 9818 min
Histogram: 1 0 0 0 0 0 0 0 0 1
Nghost:    11030 ave 11044 max 11016 min
Histogram: 1 0 0 0 0 0 0 0 0 1
Neighs:    507989 ave 509115 max 506863 min
Histogram: 1 0 0 0 0 0 0 0 0 1

Total # of neighbors = 1015978
Ave neighs/atom = 51.6985
Neighbor list builds = 9505
Dangerous builds not checked
Setting up Verlet run ...
  Unit style    : metal
  Current step  : 90000
  Time step     : 0.001
Per MPI rank memory allocation (min/avg/max) = 11.26 | 11.26 | 11.26 Mbytes
Step Temp Press TotEng PotEng Enthalpy 
   90000    2198.5655   -965.57085   -107967.46   -113552.01   -108259.12 
   90495    2162.3877   -1725.1402   -108058.89   -113551.55   -108580.28 
Loop time of 47.0848 on 2 procs for 495 steps with 19652 atoms

Performance: 0.908 ns/day, 26.422 hours/ns, 10.513 timesteps/s
90.6% CPU use with 2 MPI tasks x no OpenMP threads

MPI task timing breakdown:
Section |  min time  |  avg time  |  max time  |%varavg| %total
---------------------------------------------------------------
Pair    | 25.134     | 25.336     | 25.539     |   4.0 | 53.81
Neigh   | 16.572     | 16.814     | 17.056     |   5.9 | 35.71
Comm    | 3.6413     | 4.113      | 4.5847     |  23.3 |  8.74
Output  | 0.0001049  | 0.00015247 | 0.00020003 |   0.0 |  0.00
Modify  | 0.66949    | 0.6921     | 0.71472    |   2.7 |  1.47
Other   |            | 0.1296     |            |       |  0.28

Nlocal:    9826 ave 9828 max 9824 min
Histogram: 1 0 0 0 0 0 0 0 0 1
Nghost:    10993.5 ave 11008 max 10979 min
Histogram: 1 0 0 0 0 0 0 0 0 1
Neighs:    507324 ave 508364 max 506283 min
Histogram: 1 0 0 0 0 0 0 0 0 1

Total # of neighbors = 1014647
Ave neighs/atom = 51.6307
Neighbor list builds = 495
Dangerous builds not checked
Setting up Verlet run ...
  Unit style    : metal
  Current step  : 90495
  Time step     : 0.001
Per MPI rank memory allocation (min/avg/max) = 11.26 | 11.26 | 11.26 Mbytes
Step Temp Press TotEng PotEng Enthalpy 
   90495    2162.3877   -1725.1402   -108058.89   -113551.55   -108580.28 
  100000     2169.895    431.17696    -108206.1   -113717.83   -108076.32 
Loop time of 928.625 on 2 procs for 9505 steps with 19652 atoms

Performance: 0.884 ns/day, 27.138 hours/ns, 10.236 timesteps/s
90.4% CPU use with 2 MPI tasks x no OpenMP threads

MPI task timing breakdown:
Section |  min time  |  avg time  |  max time  |%varavg| %total
---------------------------------------------------------------
Pair    | 514.1      | 514.7      | 515.31     |   2.7 | 55.43
Neigh   | 343.98     | 344.66     | 345.33     |   3.6 | 37.11
Comm    | 54.816     | 54.941     | 55.065     |   1.7 |  5.92
Output  | 0.037492   | 0.037538   | 0.037584   |   0.0 |  0.00
Modify  | 11.623     | 11.693     | 11.763     |   2.1 |  1.26
Other   |            | 2.594      |            |       |  0.28

Nlocal:    9826 ave 9842 max 9810 min
Histogram: 1 0 0 0 0 0 0 0 0 1
Nghost:    11057 ave 11065 max 11049 min
Histogram: 1 0 0 0 0 0 0 0 0 1
Neighs:    509995 ave 510887 max 509103 min
Histogram: 1 0 0 0 0 0 0 0 0 1

Total # of neighbors = 1019990
Ave neighs/atom = 51.9026
Neighbor list builds = 9505
Dangerous builds not checked
Setting up Verlet run ...
  Unit style    : metal
  Current step  : 100000
  Time step     : 0.001
Per MPI rank memory allocation (min/avg/max) = 11.26 | 11.26 | 11.26 Mbytes
Step Temp Press TotEng PotEng Enthalpy 
  100000     2169.895    431.17696    -108206.1   -113717.83   -108076.32 
  100495    2112.1452    56.416439   -108442.84   -113807.88   -108425.86 
Loop time of 44.6382 on 2 procs for 495 steps with 19652 atoms

Performance: 0.958 ns/day, 25.050 hours/ns, 11.089 timesteps/s
93.5% CPU use with 2 MPI tasks x no OpenMP threads

MPI task timing breakdown:
Section |  min time  |  avg time  |  max time  |%varavg| %total
---------------------------------------------------------------
Pair    | 24.265     | 24.855     | 25.445     |  11.8 | 55.68
Neigh   | 16.687     | 17.053     | 17.42      |   8.9 | 38.20
Comm    | 1.8638     | 2.077      | 2.2901     |  14.8 |  4.65
Output  | 0.00011301 | 0.00018954 | 0.00026608 |   0.0 |  0.00
Modify  | 0.51456    | 0.51624    | 0.51791    |   0.2 |  1.16
Other   |            | 0.1366     |            |       |  0.31

Nlocal:    9826 ave 9838 max 9814 min
Histogram: 1 0 0 0 0 0 0 0 0 1
Nghost:    11049.5 ave 11054 max 11045 min
Histogram: 1 0 0 0 0 0 0 0 0 1
Neighs:    510064 ave 511190 max 508939 min
Histogram: 1 0 0 0 0 0 0 0 0 1

Total # of neighbors = 1020129
Ave neighs/atom = 51.9097
Neighbor list builds = 495
Dangerous builds not checked
Setting up Verlet run ...
  Unit style    : metal
  Current step  : 100495
  Time step     : 0.001
Per MPI rank memory allocation (min/avg/max) = 11.26 | 11.26 | 11.26 Mbytes
Step Temp Press TotEng PotEng Enthalpy 
  100495    2112.1452    56.416439   -108442.84   -113807.88   -108425.86 
  110000    2097.2262     376.8063   -108526.98   -113854.12    -108413.7 
Loop time of 1003.48 on 2 procs for 9505 steps with 19652 atoms

Performance: 0.818 ns/day, 29.326 hours/ns, 9.472 timesteps/s
85.5% CPU use with 2 MPI tasks x no OpenMP threads

MPI task timing breakdown:
Section |  min time  |  avg time  |  max time  |%varavg| %total
---------------------------------------------------------------
Pair    | 555.37     | 555.52     | 555.67     |   0.6 | 55.36
Neigh   | 362.54     | 365.02     | 367.49     |  12.9 | 36.38
Comm    | 64.273     | 66.966     | 69.659     |  32.9 |  6.67
Output  | 0.037216   | 0.037243   | 0.03727    |   0.0 |  0.00
Modify  | 12.892     | 13.227     | 13.562     |   9.2 |  1.32
Other   |            | 2.711      |            |       |  0.27

Nlocal:    9826 ave 9840 max 9812 min
Histogram: 1 0 0 0 0 0 0 0 0 1
Nghost:    11026 ave 11027 max 11025 min
Histogram: 1 0 0 0 0 0 0 0 0 1
Neighs:    510670 ave 510801 max 510540 min
Histogram: 1 0 0 0 0 0 0 0 0 1

Total # of neighbors = 1021341
Ave neighs/atom = 51.9714
Neighbor list builds = 9505
Dangerous builds not checked
Setting up Verlet run ...
  Unit style    : metal
  Current step  : 110000
  Time step     : 0.001
Per MPI rank memory allocation (min/avg/max) = 11.26 | 11.27 | 11.27 Mbytes
Step Temp Press TotEng PotEng Enthalpy 
  110000    2097.2262     376.8063   -108526.98   -113854.12    -108413.7 
  110495    2055.3401    411.77877   -108777.93   -113998.68   -108654.39 
Loop time of 52.6551 on 2 procs for 495 steps with 19652 atoms

Performance: 0.812 ns/day, 29.548 hours/ns, 9.401 timesteps/s
83.4% CPU use with 2 MPI tasks x no OpenMP threads

MPI task timing breakdown:
Section |  min time  |  avg time  |  max time  |%varavg| %total
---------------------------------------------------------------
Pair    | 28.874     | 28.94      | 29.005     |   1.2 | 54.96
Neigh   | 18.908     | 19.16      | 19.413     |   5.8 | 36.39
Comm    | 3.3453     | 3.6768     | 4.0082     |  17.3 |  6.98
Output  | 9.2983e-05 | 0.00019097 | 0.00028896 |   0.0 |  0.00
Modify  | 0.73119    | 0.73212    | 0.73304    |   0.1 |  1.39
Other   |            | 0.1461     |            |       |  0.28

Nlocal:    9826 ave 9847 max 9805 min
Histogram: 1 0 0 0 0 0 0 0 0 1
Nghost:    11056.5 ave 11071 max 11042 min
Histogram: 1 0 0 0 0 0 0 0 0 1
Neighs:    511588 ave 513301 max 509874 min
Histogram: 1 0 0 0 0 0 0 0 0 1

Total # of neighbors = 1023175
Ave neighs/atom = 52.0647
Neighbor list builds = 495
Dangerous builds not checked
Setting up Verlet run ...
  Unit style    : metal
  Current step  : 110495
  Time step     : 0.001
Per MPI rank memory allocation (min/avg/max) = 11.26 | 11.27 | 11.27 Mbytes
Step Temp Press TotEng PotEng Enthalpy 
  110495    2055.3401    411.77877   -108777.93   -113998.68   -108654.39 
  120000    2065.8426    708.19072   -108846.52   -114093.95   -108634.26 
Loop time of 973.402 on 2 procs for 9505 steps with 19652 atoms

Performance: 0.844 ns/day, 28.447 hours/ns, 9.765 timesteps/s
87.3% CPU use with 2 MPI tasks x no OpenMP threads

MPI task timing breakdown:
Section |  min time  |  avg time  |  max time  |%varavg| %total
---------------------------------------------------------------
Pair    | 536.92     | 537.25     | 537.58     |   1.4 | 55.19
Neigh   | 352.12     | 353.84     | 355.55     |   9.1 | 36.35
Comm    | 64.826     | 66.899     | 68.972     |  25.3 |  6.87
Output  | 0.036406   | 0.036423   | 0.036441   |   0.0 |  0.00
Modify  | 12.67      | 12.677     | 12.684     |   0.2 |  1.30
Other   |            | 2.705      |            |       |  0.28

Nlocal:    9826 ave 9843 max 9809 min
Histogram: 1 0 0 0 0 0 0 0 0 1
Nghost:    11030.5 ave 11043 max 11018 min
Histogram: 1 0 0 0 0 0 0 0 0 1
Neighs:    512268 ave 512931 max 511604 min
Histogram: 1 0 0 0 0 0 0 0 0 1

Total # of neighbors = 1024535
Ave neighs/atom = 52.1339
Neighbor list builds = 9505
Dangerous builds not checked
Setting up Verlet run ...
  Unit style    : metal
  Current step  : 120000
  Time step     : 0.001
Per MPI rank memory allocation (min/avg/max) = 11.27 | 11.27 | 11.27 Mbytes
Step Temp Press TotEng PotEng Enthalpy 
  120000    2065.8426    708.19072   -108846.52   -114093.95   -108634.26 
  120495    2013.1114    515.93132   -109123.84   -114237.33   -108969.35 
Loop time of 51.1426 on 2 procs for 495 steps with 19652 atoms

Performance: 0.836 ns/day, 28.700 hours/ns, 9.679 timesteps/s
86.2% CPU use with 2 MPI tasks x no OpenMP threads

MPI task timing breakdown:
Section |  min time  |  avg time  |  max time  |%varavg| %total
---------------------------------------------------------------
Pair    | 28.073     | 28.272     | 28.471     |   3.7 | 55.28
Neigh   | 17.448     | 17.969     | 18.489     |  12.3 | 35.13
Comm    | 3.614      | 3.9453     | 4.2767     |  16.7 |  7.71
Output  | 9.1076e-05 | 0.00018799 | 0.00028491 |   0.0 |  0.00
Modify  | 0.79332    | 0.80122    | 0.80913    |   0.9 |  1.57
Other   |            | 0.1553     |            |       |  0.30

Nlocal:    9826 ave 9843 max 9809 min
Histogram: 1 0 0 0 0 0 0 0 0 1
Nghost:    11012 ave 11024 max 11000 min
Histogram: 1 0 0 0 0 0 0 0 0 1
Neighs:    512744 ave 514009 max 511478 min
Histogram: 1 0 0 0 0 0 0 0 0 1

Total # of neighbors = 1025487
Ave neighs/atom = 52.1823
Neighbor list builds = 495
Dangerous builds not checked
Setting up Verlet run ...
  Unit style    : metal
  Current step  : 120495
  Time step     : 0.001
Per MPI rank memory allocation (min/avg/max) = 11.27 | 11.27 | 11.27 Mbytes
Step Temp Press TotEng PotEng Enthalpy 
  120495    2013.1114    515.93132   -109123.84   -114237.33   -108969.35 
  130000    2008.3149    428.73236   -109194.84   -114296.14   -109066.44 
Loop time of 961.402 on 2 procs for 9505 steps with 19652 atoms

Performance: 0.854 ns/day, 28.096 hours/ns, 9.887 timesteps/s
88.1% CPU use with 2 MPI tasks x no OpenMP threads

MPI task timing breakdown:
Section |  min time  |  avg time  |  max time  |%varavg| %total
---------------------------------------------------------------
Pair    | 524.34     | 525.52     | 526.71     |   5.2 | 54.66
Neigh   | 345.66     | 348.63     | 351.59     |  15.9 | 36.26
Comm    | 68.203     | 72.717     | 77.231     |  52.9 |  7.56
Output  | 0.049257   | 0.049339   | 0.04942    |   0.0 |  0.01
Modify  | 11.437     | 11.816     | 12.194     |  11.0 |  1.23
Other   |            | 2.671      |            |       |  0.28

Nlocal:    9826 ave 9829 max 9823 min
Histogram: 1 0 0 0 0 0 0 0 0 1
Nghost:    11028.5 ave 11037 max 11020 min
Histogram: 1 0 0 0 0 0 0 0 0 1
Neighs:    512906 ave 514219 max 511592 min
Histogram: 1 0 0 0 0 0 0 0 0 1

Total # of neighbors = 1025811
Ave neighs/atom = 52.1988
Neighbor list builds = 9505
Dangerous builds not checked
Setting up Verlet run ...
  Unit style    : metal
  Current step  : 130000
  Time step     : 0.001
Per MPI rank memory allocation (min/avg/max) = 11.27 | 11.27 | 11.27 Mbytes
Step Temp Press TotEng PotEng Enthalpy 
  130000    2008.3149    428.73236   -109194.84   -114296.14   -109066.44 
  130495    1942.1934    674.03582   -109449.56   -114382.91   -109248.07 
Loop time of 44.7837 on 2 procs for 495 steps with 19652 atoms

Performance: 0.955 ns/day, 25.131 hours/ns, 11.053 timesteps/s
90.8% CPU use with 2 MPI tasks x no OpenMP threads

MPI task timing breakdown:
Section |  min time  |  avg time  |  max time  |%varavg| %total
---------------------------------------------------------------
Pair    | 24.409     | 24.545     | 24.681     |   2.7 | 54.81
Neigh   | 16.543     | 16.961     | 17.378     |  10.1 | 37.87
Comm    | 2.3276     | 2.6341     | 2.9406     |  18.9 |  5.88
Output  | 0.00012803 | 0.00022101 | 0.000314   |   0.0 |  0.00
Modify  | 0.48547    | 0.50402    | 0.52258    |   2.6 |  1.13
Other   |            | 0.1394     |            |       |  0.31

Nlocal:    9826 ave 9849 max 9803 min
Histogram: 1 0 0 0 0 0 0 0 0 1
Nghost:    11064 ave 11083 max 11045 min
Histogram: 1 0 0 0 0 0 0 0 0 1
Neighs:    514060 ave 515780 max 512339 min
Histogram: 1 0 0 0 0 0 0 0 0 1

Total # of neighbors = 1028119
Ave neighs/atom = 52.3163
Neighbor list builds = 495
Dangerous builds not checked
Setting up Verlet run ...
  Unit style    : metal
  Current step  : 130495
  Time step     : 0.001
Per MPI rank memory allocation (min/avg/max) = 11.27 | 11.27 | 11.27 Mbytes
Step Temp Press TotEng PotEng Enthalpy 
  130495    1942.1934    674.03582   -109449.56   -114382.91   -109248.07 
  140000    1959.2004    1490.8471   -109515.45      -114492   -109070.75 
Loop time of 953.252 on 2 procs for 9505 steps with 19652 atoms

Performance: 0.862 ns/day, 27.858 hours/ns, 9.971 timesteps/s
88.3% CPU use with 2 MPI tasks x no OpenMP threads

MPI task timing breakdown:
Section |  min time  |  avg time  |  max time  |%varavg| %total
---------------------------------------------------------------
Pair    | 528.8      | 528.85     | 528.89     |   0.2 | 55.48
Neigh   | 350.8      | 351.19     | 351.58     |   2.1 | 36.84
Comm    | 57.927     | 58.393     | 58.86      |   6.1 |  6.13
Output  | 0.039007   | 0.039066   | 0.039125   |   0.0 |  0.00
Modify  | 11.92      | 12.025     | 12.13      |   3.0 |  1.26
Other   |            | 2.755      |            |       |  0.29

Nlocal:    9826 ave 9829 max 9823 min
Histogram: 1 0 0 0 0 0 0 0 0 1
Nghost:    11052.5 ave 11076 max 11029 min
Histogram: 1 0 0 0 0 0 0 0 0 1
Neighs:    515206 ave 515297 max 515114 min
Histogram: 1 0 0 0 0 0 0 0 0 1

Total # of neighbors = 1030411
Ave neighs/atom = 52.4329
Neighbor list builds = 9505
Dangerous builds not checked
Setting up Verlet run ...
  Unit style    : metal
  Current step  : 140000
  Time step     : 0.001
Per MPI rank memory allocation (min/avg/max) = 11.27 | 11.27 | 11.27 Mbytes
Step Temp Press TotEng PotEng Enthalpy 
  140000    1959.2004    1490.8471   -109515.45      -114492   -109070.75 
  140495    1921.4325    1045.7545   -109698.46   -114579.07   -109386.44 
Loop time of 39.8061 on 2 procs for 495 steps with 19652 atoms

Performance: 1.074 ns/day, 22.338 hours/ns, 12.435 timesteps/s
98.9% CPU use with 2 MPI tasks x no OpenMP threads

MPI task timing breakdown:
Section |  min time  |  avg time  |  max time  |%varavg| %total
---------------------------------------------------------------
Pair    | 21.611     | 21.733     | 21.855     |   2.6 | 54.60
Neigh   | 15.658     | 15.703     | 15.748     |   1.1 | 39.45
Comm    | 1.5521     | 1.7219     | 1.8916     |  12.9 |  4.33
Output  | 0.00011277 | 0.00014997 | 0.00018716 |   0.0 |  0.00
Modify  | 0.51543    | 0.51886    | 0.52229    |   0.5 |  1.30
Other   |            | 0.1294     |            |       |  0.33

Nlocal:    9826 ave 9841 max 9811 min
Histogram: 1 0 0 0 0 0 0 0 0 1
Nghost:    11113 ave 11142 max 11084 min
Histogram: 1 0 0 0 0 0 0 0 0 1
Neighs:    515030 ave 515634 max 514425 min
Histogram: 1 0 0 0 0 0 0 0 0 1

Total # of neighbors = 1030059
Ave neighs/atom = 52.415
Neighbor list builds = 495
Dangerous builds not checked
Setting up Verlet run ...
  Unit style    : metal
  Current step  : 140495
  Time step     : 0.001
Per MPI rank memory allocation (min/avg/max) = 11.27 | 11.27 | 11.27 Mbytes
Step Temp Press TotEng PotEng Enthalpy 
  140495    1921.4325    1045.7545   -109698.46   -114579.07   -109386.44 
  150000    1890.6993    1082.7832   -109922.81   -114725.36   -109600.24 
Loop time of 777.989 on 2 procs for 9505 steps with 19652 atoms

Performance: 1.056 ns/day, 22.736 hours/ns, 12.217 timesteps/s
99.1% CPU use with 2 MPI tasks x no OpenMP threads

MPI task timing breakdown:
Section |  min time  |  avg time  |  max time  |%varavg| %total
---------------------------------------------------------------
Pair    | 426.55     | 427.47     | 428.38     |   4.4 | 54.95
Neigh   | 305.98     | 306.84     | 307.71     |   5.0 | 39.44
Comm    | 30.629     | 32.246     | 33.862     |  28.5 |  4.14
Output  | 0.038111   | 0.038164   | 0.038217   |   0.0 |  0.00
Modify  | 8.8877     | 9.0554     | 9.2231     |   5.6 |  1.16
Other   |            | 2.339      |            |       |  0.30

Nlocal:    9826 ave 9843 max 9809 min
Histogram: 1 0 0 0 0 0 0 0 0 1
Nghost:    11059 ave 11061 max 11057 min
Histogram: 1 0 0 0 0 0 0 0 0 1
Neighs:    515700 ave 516309 max 515091 min
Histogram: 1 0 0 0 0 0 0 0 0 1

Total # of neighbors = 1031400
Ave neighs/atom = 52.4832
Neighbor list builds = 9505
Dangerous builds not checked
Setting up Verlet run ...
  Unit style    : metal
  Current step  : 150000
  Time step     : 0.001
Per MPI rank memory allocation (min/avg/max) = 11.28 | 11.28 | 11.28 Mbytes
Step Temp Press TotEng PotEng Enthalpy 
  150000    1890.6993    1082.7832   -109922.81   -114725.36   -109600.24 
  150495    1861.2485    886.16981   -110047.55   -114775.29   -109783.58 
Loop time of 40.6209 on 2 procs for 495 steps with 19652 atoms

Performance: 1.053 ns/day, 22.795 hours/ns, 12.186 timesteps/s
97.7% CPU use with 2 MPI tasks x no OpenMP threads

MPI task timing breakdown:
Section |  min time  |  avg time  |  max time  |%varavg| %total
---------------------------------------------------------------
Pair    | 21.655     | 21.889     | 22.123     |   5.0 | 53.89
Neigh   | 15.324     | 15.572     | 15.819     |   6.3 | 38.33
Comm    | 2.2562     | 2.2777     | 2.2992     |   1.4 |  5.61
Output  | 9.1076e-05 | 0.00013304 | 0.000175   |   0.0 |  0.00
Modify  | 0.7521     | 0.75798    | 0.76387    |   0.7 |  1.87
Other   |            | 0.1246     |            |       |  0.31

Nlocal:    9826 ave 9830 max 9822 min
Histogram: 1 0 0 0 0 0 0 0 0 1
Nghost:    11050 ave 11051 max 11049 min
Histogram: 1 0 0 0 0 0 0 0 0 1
Neighs:    516192 ave 516666 max 515718 min
Histogram: 1 0 0 0 0 0 0 0 0 1

Total # of neighbors = 1032384
Ave neighs/atom = 52.5333
Neighbor list builds = 495
Dangerous builds not checked
Setting up Verlet run ...
  Unit style    : metal
  Current step  : 150495
  Time step     : 0.001
Per MPI rank memory allocation (min/avg/max) = 11.28 | 11.28 | 11.28 Mbytes
Step Temp Press TotEng PotEng Enthalpy 
  150495    1861.2485    886.16981   -110047.55   -114775.29   -109783.58 
  160000    1850.2186   -273.29245   -110204.81   -114904.54   -110286.24 
Loop time of 767.147 on 2 procs for 9505 steps with 19652 atoms

Performance: 1.071 ns/day, 22.419 hours/ns, 12.390 timesteps/s
99.5% CPU use with 2 MPI tasks x no OpenMP threads

MPI task timing breakdown:
Section |  min time  |  avg time  |  max time  |%varavg| %total
---------------------------------------------------------------
Pair    | 422.51     | 422.98     | 423.46     |   2.3 | 55.14
Neigh   | 303.32     | 303.44     | 303.57     |   0.7 | 39.55
Comm    | 29.339     | 29.7       | 30.062     |   6.6 |  3.87
Output  | 0.037565   | 0.037606   | 0.037646   |   0.0 |  0.00
Modify  | 8.6405     | 8.6448     | 8.6491     |   0.1 |  1.13
Other   |            | 2.342      |            |       |  0.31

Nlocal:    9826 ave 9835 max 9817 min
Histogram: 1 0 0 0 0 0 0 0 0 1
Nghost:    11056.5 ave 11076 max 11037 min
Histogram: 1 0 0 0 0 0 0 0 0 1
Neighs:    515792 ave 516048 max 515537 min
Histogram: 1 0 0 0 0 0 0 0 0 1

Total # of neighbors = 1031585
Ave neighs/atom = 52.4926
Neighbor list builds = 9505
Dangerous builds not checked
Setting up Verlet run ...
  Unit style    : metal
  Current step  : 160000
  Time step     : 0.001
Per MPI rank memory allocation (min/avg/max) = 11.28 | 11.28 | 11.28 Mbytes
Step Temp Press TotEng PotEng Enthalpy 
  160000    1850.2186   -273.29245   -110204.81   -114904.54   -110286.24 
  160495    1809.7205    245.71661   -110410.31   -115007.16   -110337.24 
Loop time of 39.149 on 2 procs for 495 steps with 19652 atoms

Performance: 1.092 ns/day, 21.969 hours/ns, 12.644 timesteps/s
98.6% CPU use with 2 MPI tasks x no OpenMP threads

MPI task timing breakdown:
Section |  min time  |  avg time  |  max time  |%varavg| %total
---------------------------------------------------------------
Pair    | 21.075     | 21.185     | 21.294     |   2.4 | 54.11
Neigh   | 15.271     | 15.418     | 15.565     |   3.8 | 39.38
Comm    | 1.9394     | 1.9785     | 2.0177     |   2.8 |  5.05
Output  | 9.7036e-05 | 0.00018752 | 0.000278   |   0.0 |  0.00
Modify  | 0.4464     | 0.4469     | 0.44741    |   0.1 |  1.14
Other   |            | 0.1207     |            |       |  0.31

Nlocal:    9826 ave 9843 max 9809 min
Histogram: 1 0 0 0 0 0 0 0 0 1
Nghost:    11073.5 ave 11098 max 11049 min
Histogram: 1 0 0 0 0 0 0 0 0 1
Neighs:    516962 ave 518447 max 515476 min
Histogram: 1 0 0 0 0 0 0 0 0 1

Total # of neighbors = 1033923
Ave neighs/atom = 52.6116
Neighbor list builds = 495
Dangerous builds not checked
Setting up Verlet run ...
  Unit style    : metal
  Current step  : 160495
  Time step     : 0.001
Per MPI rank memory allocation (min/avg/max) = 11.28 | 11.28 | 11.28 Mbytes
Step Temp Press TotEng PotEng Enthalpy 
  160495    1809.7205    245.71661   -110410.31   -115007.16   -110337.24 
  170000    1806.5723   -1051.7984   -110480.32   -115069.18   -110793.55 
Loop time of 771.135 on 2 procs for 9505 steps with 19652 atoms

Performance: 1.065 ns/day, 22.536 hours/ns, 12.326 timesteps/s
99.1% CPU use with 2 MPI tasks x no OpenMP threads

MPI task timing breakdown:
Section |  min time  |  avg time  |  max time  |%varavg| %total
---------------------------------------------------------------
Pair    | 422.57     | 423.81     | 425.05     |   6.0 | 54.96
Neigh   | 303.65     | 304.43     | 305.22     |   4.5 | 39.48
Comm    | 29.8       | 31.472     | 33.145     |  29.8 |  4.08
Output  | 0.037588   | 0.037628   | 0.037669   |   0.0 |  0.00
Modify  | 8.6896     | 9.0433     | 9.3969     |  11.8 |  1.17
Other   |            | 2.34       |            |       |  0.30

Nlocal:    9826 ave 9831 max 9821 min
Histogram: 1 0 0 0 0 0 0 0 0 1
Nghost:    11062 ave 11078 max 11046 min
Histogram: 1 0 0 0 0 0 0 0 0 1
Neighs:    516328 ave 516439 max 516216 min
Histogram: 1 0 0 0 0 0 0 0 0 1

Total # of neighbors = 1032655
Ave neighs/atom = 52.5471
Neighbor list builds = 9505
Dangerous builds not checked
Setting up Verlet run ...
  Unit style    : metal
  Current step  : 170000
  Time step     : 0.001
Per MPI rank memory allocation (min/avg/max) = 11.28 | 11.28 | 11.28 Mbytes
Step Temp Press TotEng PotEng Enthalpy 
  170000    1806.5723   -1051.7984   -110480.32   -115069.18   -110793.55 
  170495    1766.1446   -841.79438    -110705.6   -115191.77   -110956.09 
Loop time of 38.776 on 2 procs for 495 steps with 19652 atoms

Performance: 1.103 ns/day, 21.760 hours/ns, 12.766 timesteps/s
99.6% CPU use with 2 MPI tasks x no OpenMP threads

MPI task timing breakdown:
Section |  min time  |  avg time  |  max time  |%varavg| %total
---------------------------------------------------------------
Pair    | 21.202     | 21.314     | 21.425     |   2.4 | 54.97
Neigh   | 15.387     | 15.532     | 15.676     |   3.7 | 40.05
Comm    | 1.314      | 1.3516     | 1.3891     |   3.2 |  3.49
Output  | 9.799e-05  | 0.00022304 | 0.00034809 |   0.0 |  0.00
Modify  | 0.45252    | 0.4555     | 0.45847    |   0.4 |  1.17
Other   |            | 0.1235     |            |       |  0.32

Nlocal:    9826 ave 9828 max 9824 min
Histogram: 1 0 0 0 0 0 0 0 0 1
Nghost:    11075.5 ave 11077 max 11074 min
Histogram: 1 0 0 0 0 0 0 0 0 1
Neighs:    516980 ave 517231 max 516730 min
Histogram: 1 0 0 0 0 0 0 0 0 1

Total # of neighbors = 1033961
Ave neighs/atom = 52.6135
Neighbor list builds = 495
Dangerous builds not checked
Setting up Verlet run ...
  Unit style    : metal
  Current step  : 170495
  Time step     : 0.001
Per MPI rank memory allocation (min/avg/max) = 11.28 | 11.28 | 11.28 Mbytes
Step Temp Press TotEng PotEng Enthalpy 
  170495    1766.1446   -841.79438    -110705.6   -115191.77   -110956.09 
  180000    1754.0441    1254.4733    -110787.5   -115242.93   -110415.59 
Loop time of 769.185 on 2 procs for 9505 steps with 19652 atoms

Performance: 1.068 ns/day, 22.479 hours/ns, 12.357 timesteps/s
99.3% CPU use with 2 MPI tasks x no OpenMP threads

MPI task timing breakdown:
Section |  min time  |  avg time  |  max time  |%varavg| %total
---------------------------------------------------------------
Pair    | 422.06     | 422.17     | 422.29     |   0.6 | 54.89
Neigh   | 303.22     | 303.25     | 303.27     |   0.1 | 39.42
Comm    | 32.357     | 32.458     | 32.558     |   1.8 |  4.22
Output  | 0.038414   | 0.038447   | 0.038481   |   0.0 |  0.00
Modify  | 8.9224     | 8.9262     | 8.9299     |   0.1 |  1.16
Other   |            | 2.34       |            |       |  0.30

Nlocal:    9826 ave 9844 max 9808 min
Histogram: 1 0 0 0 0 0 0 0 0 1
Nghost:    11094 ave 11114 max 11074 min
Histogram: 1 0 0 0 0 0 0 0 0 1
Neighs:    518770 ave 520298 max 517243 min
Histogram: 1 0 0 0 0 0 0 0 0 1

Total # of neighbors = 1037541
Ave neighs/atom = 52.7957
Neighbor list builds = 9505
Dangerous builds not checked
Setting up Verlet run ...
  Unit style    : metal
  Current step  : 180000
  Time step     : 0.001
Per MPI rank memory allocation (min/avg/max) = 11.28 | 11.28 | 11.28 Mbytes
Step Temp Press TotEng PotEng Enthalpy 
  180000    1754.0441    1254.4733    -110787.5   -115242.93   -110415.59 
  180495     1723.583    307.33393   -110998.76   -115376.82   -110907.64 
Loop time of 38.667 on 2 procs for 495 steps with 19652 atoms

Performance: 1.106 ns/day, 21.699 hours/ns, 12.802 timesteps/s
99.3% CPU use with 2 MPI tasks x no OpenMP threads

MPI task timing breakdown:
Section |  min time  |  avg time  |  max time  |%varavg| %total
---------------------------------------------------------------
Pair    | 21.143     | 21.152     | 21.161     |   0.2 | 54.70
Neigh   | 15.303     | 15.349     | 15.395     |   1.2 | 39.70
Comm    | 1.5545     | 1.5912     | 1.628      |   2.9 |  4.12
Output  | 0.00010085 | 0.00016534 | 0.00022984 |   0.0 |  0.00
Modify  | 0.45252    | 0.4526     | 0.45269    |   0.0 |  1.17
Other   |            | 0.1222     |            |       |  0.32

Nlocal:    9826 ave 9842 max 9810 min
Histogram: 1 0 0 0 0 0 0 0 0 1
Nghost:    11084 ave 11101 max 11067 min
Histogram: 1 0 0 0 0 0 0 0 0 1
Neighs:    518972 ave 519558 max 518387 min
Histogram: 1 0 0 0 0 0 0 0 0 1

Total # of neighbors = 1037945
Ave neighs/atom = 52.8163
Neighbor list builds = 495
Dangerous builds not checked
Setting up Verlet run ...
  Unit style    : metal
  Current step  : 180495
  Time step     : 0.001
Per MPI rank memory allocation (min/avg/max) = 11.28 | 11.28 | 11.28 Mbytes
Step Temp Press TotEng PotEng Enthalpy 
  180495     1723.583    307.33393   -110998.76   -115376.82   -110907.64 
  190000    1694.9613    694.21176   -111125.94    -115431.3   -110920.27 
Loop time of 771.451 on 2 procs for 9505 steps with 19652 atoms

Performance: 1.065 ns/day, 22.545 hours/ns, 12.321 timesteps/s
98.9% CPU use with 2 MPI tasks x no OpenMP threads

MPI task timing breakdown:
Section |  min time  |  avg time  |  max time  |%varavg| %total
---------------------------------------------------------------
Pair    | 424.77     | 425.35     | 425.94     |   2.8 | 55.14
Neigh   | 303.26     | 303.84     | 304.42     |   3.3 | 39.39
Comm    | 31.083     | 31.104     | 31.125     |   0.4 |  4.03
Output  | 0.037313   | 0.037354   | 0.037395   |   0.0 |  0.00
Modify  | 8.7709     | 8.783      | 8.7951     |   0.4 |  1.14
Other   |            | 2.336      |            |       |  0.30

Nlocal:    9826 ave 9847 max 9805 min
Histogram: 1 0 0 0 0 0 0 0 0 1
Nghost:    11080.5 ave 11105 max 11056 min
Histogram: 1 0 0 0 0 0 0 0 0 1
Neighs:    519465 ave 521106 max 517824 min
Histogram: 1 0 0 0 0 0 0 0 0 1

Total # of neighbors = 1038930
Ave neighs/atom = 52.8664
Neighbor list builds = 9505
Dangerous builds not checked
Setting up Verlet run ...
  Unit style    : metal
  Current step  : 190000
  Time step     : 0.001
Per MPI rank memory allocation (min/avg/max) = 11.28 | 11.28 | 11.28 Mbytes
Step Temp Press TotEng PotEng Enthalpy 
  190000    1694.9613    694.21176   -111125.94    -115431.3   -110920.27 
  190495    1653.8466    371.79416   -111381.43   -115582.35   -111271.38 
Loop time of 38.351 on 2 procs for 495 steps with 19652 atoms

Performance: 1.115 ns/day, 21.521 hours/ns, 12.907 timesteps/s
99.8% CPU use with 2 MPI tasks x no OpenMP threads

MPI task timing breakdown:
Section |  min time  |  avg time  |  max time  |%varavg| %total
---------------------------------------------------------------
Pair    | 20.874     | 20.977     | 21.081     |   2.3 | 54.70
Neigh   | 15.264     | 15.326     | 15.389     |   1.6 | 39.96
Comm    | 1.4426     | 1.4821     | 1.5216     |   3.2 |  3.86
Output  | 9.2983e-05 | 0.0002141  | 0.00033522 |   0.0 |  0.00
Modify  | 0.44243    | 0.44416    | 0.44589    |   0.3 |  1.16
Other   |            | 0.121      |            |       |  0.32

Nlocal:    9826 ave 9837 max 9815 min
Histogram: 1 0 0 0 0 0 0 0 0 1
Nghost:    11129.5 ave 11163 max 11096 min
Histogram: 1 0 0 0 0 0 0 0 0 1
Neighs:    520138 ave 520934 max 519342 min
Histogram: 1 0 0 0 0 0 0 0 0 1

Total # of neighbors = 1040276
Ave neighs/atom = 52.9349
Neighbor list builds = 495
Dangerous builds not checked
Setting up Verlet run ...
  Unit style    : metal
  Current step  : 190495
  Time step     : 0.001
Per MPI rank memory allocation (min/avg/max) = 11.28 | 11.28 | 11.28 Mbytes
Step Temp Press TotEng PotEng Enthalpy 
  190495    1653.8466    371.79416   -111381.43   -115582.35   -111271.38 
  200000    1630.4342   -1549.6311   -111464.48   -115605.93    -111924.2 
Loop time of 763.865 on 2 procs for 9505 steps with 19652 atoms

Performance: 1.075 ns/day, 22.323 hours/ns, 12.443 timesteps/s
99.1% CPU use with 2 MPI tasks x no OpenMP threads

MPI task timing breakdown:
Section |  min time  |  avg time  |  max time  |%varavg| %total
---------------------------------------------------------------
Pair    | 420.11     | 420.36     | 420.61     |   1.2 | 55.03
Neigh   | 300.38     | 300.81     | 301.25     |   2.5 | 39.38
Comm    | 30.781     | 31.473     | 32.164     |  12.3 |  4.12
Output  | 0.040992   | 0.041026   | 0.041059   |   0.0 |  0.01
Modify  | 8.8379     | 8.8433     | 8.8487     |   0.2 |  1.16
Other   |            | 2.333      |            |       |  0.31

Nlocal:    9826 ave 9833 max 9819 min
Histogram: 1 0 0 0 0 0 0 0 0 1
Nghost:    11073 ave 11080 max 11066 min
Histogram: 1 0 0 0 0 0 0 0 0 1
Neighs:    518856 ave 519513 max 518199 min
Histogram: 1 0 0 0 0 0 0 0 0 1

Total # of neighbors = 1037712
Ave neighs/atom = 52.8044
Neighbor list builds = 9505
Dangerous builds not checked
Setting up Verlet run ...
  Unit style    : metal
  Current step  : 200000
  Time step     : 0.001
Per MPI rank memory allocation (min/avg/max) = 11.29 | 11.29 | 11.29 Mbytes
Step Temp Press TotEng PotEng Enthalpy 
  200000    1630.4342   -1549.6311   -111464.48   -115605.93    -111924.2 
  200495    1616.9912   -733.55031    -111701.7   -115809.01   -111918.79 
Loop time of 38.4737 on 2 procs for 495 steps with 19652 atoms

Performance: 1.112 ns/day, 21.590 hours/ns, 12.866 timesteps/s
99.5% CPU use with 2 MPI tasks x no OpenMP threads

MPI task timing breakdown:
Section |  min time  |  avg time  |  max time  |%varavg| %total
---------------------------------------------------------------
Pair    | 20.768     | 20.921     | 21.073     |   3.3 | 54.38
Neigh   | 15.13      | 15.251     | 15.373     |   3.1 | 39.64
Comm    | 1.4502     | 1.7302     | 2.0103     |  21.3 |  4.50
Output  | 0.00011897 | 0.00015247 | 0.00018597 |   0.0 |  0.00
Modify  | 0.4403     | 0.44653    | 0.45275    |   0.9 |  1.16
Other   |            | 0.1248     |            |       |  0.32

Nlocal:    9826 ave 9828 max 9824 min
Histogram: 1 0 0 0 0 0 0 0 0 1
Nghost:    11099.5 ave 11113 max 11086 min
Histogram: 1 0 0 0 0 0 0 0 0 1
Neighs:    520420 ave 521031 max 519808 min
Histogram: 1 0 0 0 0 0 0 0 0 1

Total # of neighbors = 1040839
Ave neighs/atom = 52.9635
Neighbor list builds = 495
Dangerous builds not checked
Setting up Verlet run ...
  Unit style    : metal
  Current step  : 200495
  Time step     : 0.001
Per MPI rank memory allocation (min/avg/max) = 11.29 | 11.29 | 11.29 Mbytes
Step Temp Press TotEng PotEng Enthalpy 
  200495    1616.9912   -733.55031    -111701.7   -115809.01   -111918.79 
  210000    1607.0853   -439.71788   -111776.51   -115858.66   -111906.55 
Loop time of 772.707 on 2 procs for 9505 steps with 19652 atoms

Performance: 1.063 ns/day, 22.582 hours/ns, 12.301 timesteps/s
99.0% CPU use with 2 MPI tasks x no OpenMP threads

MPI task timing breakdown:
Section |  min time  |  avg time  |  max time  |%varavg| %total
---------------------------------------------------------------
Pair    | 424.91     | 425.38     | 425.85     |   2.3 | 55.05
Neigh   | 303.8      | 303.83     | 303.86     |   0.2 | 39.32
Comm    | 31.452     | 31.96      | 32.469     |   9.0 |  4.14
Output  | 0.03844    | 0.03848    | 0.038519   |   0.0 |  0.00
Modify  | 9.1405     | 9.143      | 9.1455     |   0.1 |  1.18
Other   |            | 2.355      |            |       |  0.30

Nlocal:    9826 ave 9827 max 9825 min
Histogram: 1 0 0 0 0 0 0 0 0 1
Nghost:    11075 ave 11127 max 11023 min
Histogram: 1 0 0 0 0 0 0 0 0 1
Neighs:    520934 ave 521646 max 520222 min
Histogram: 1 0 0 0 0 0 0 0 0 1

Total # of neighbors = 1041868
Ave neighs/atom = 53.0159
Neighbor list builds = 9505
Dangerous builds not checked
Setting up Verlet run ...
  Unit style    : metal
  Current step  : 210000
  Time step     : 0.001
Per MPI rank memory allocation (min/avg/max) = 11.29 | 11.29 | 11.29 Mbytes
Step Temp Press TotEng PotEng Enthalpy 
  210000    1607.0853   -439.71788   -111776.51   -115858.66   -111906.55 
  210495    1569.1791   -490.26328   -112027.29   -116013.15   -112172.09 
Loop time of 38.3898 on 2 procs for 495 steps with 19652 atoms

Performance: 1.114 ns/day, 21.543 hours/ns, 12.894 timesteps/s
99.9% CPU use with 2 MPI tasks x no OpenMP threads

MPI task timing breakdown:
Section |  min time  |  avg time  |  max time  |%varavg| %total
---------------------------------------------------------------
Pair    | 20.964     | 21.075     | 21.186     |   2.4 | 54.90
Neigh   | 15.072     | 15.157     | 15.242     |   2.2 | 39.48
Comm    | 1.5663     | 1.5903     | 1.6143     |   1.9 |  4.14
Output  | 0.00015593 | 0.00018048 | 0.00020504 |   0.0 |  0.00
Modify  | 0.44571    | 0.44706    | 0.4484     |   0.2 |  1.16
Other   |            | 0.1198     |            |       |  0.31

Nlocal:    9826 ave 9840 max 9812 min
Histogram: 1 0 0 0 0 0 0 0 0 1
Nghost:    11103 ave 11109 max 11097 min
Histogram: 1 0 0 0 0 0 0 0 0 1
Neighs:    521654 ave 522976 max 520332 min
Histogram: 1 0 0 0 0 0 0 0 0 1

Total # of neighbors = 1043308
Ave neighs/atom = 53.0892
Neighbor list builds = 495
Dangerous builds not checked
Setting up Verlet run ...
  Unit style    : metal
  Current step  : 210495
  Time step     : 0.001
Per MPI rank memory allocation (min/avg/max) = 11.29 | 11.29 | 11.29 Mbytes
Step Temp Press TotEng PotEng Enthalpy 
  210495    1569.1791   -490.26328   -112027.29   -116013.15   -112172.09 
  220000    1537.8836   -574.94281    -112173.8   -116080.17   -112343.53 
Loop time of 762.989 on 2 procs for 9505 steps with 19652 atoms

Performance: 1.076 ns/day, 22.298 hours/ns, 12.458 timesteps/s
99.5% CPU use with 2 MPI tasks x no OpenMP threads

MPI task timing breakdown:
Section |  min time  |  avg time  |  max time  |%varavg| %total
---------------------------------------------------------------
Pair    | 420.26     | 420.45     | 420.64     |   0.9 | 55.11
Neigh   | 301.05     | 301.41     | 301.76     |   2.0 | 39.50
Comm    | 29.547     | 30.077     | 30.606     |   9.7 |  3.94
Output  | 0.0378     | 0.037845   | 0.03789    |   0.0 |  0.00
Modify  | 8.6564     | 8.6701     | 8.6839     |   0.5 |  1.14
Other   |            | 2.349      |            |       |  0.31

Nlocal:    9826 ave 9862 max 9790 min
Histogram: 1 0 0 0 0 0 0 0 0 1
Nghost:    11142 ave 11158 max 11126 min
Histogram: 1 0 0 0 0 0 0 0 0 1
Neighs:    521892 ave 524451 max 519334 min
Histogram: 1 0 0 0 0 0 0 0 0 1

Total # of neighbors = 1043785
Ave neighs/atom = 53.1134
Neighbor list builds = 9505
Dangerous builds not checked
Setting up Verlet run ...
  Unit style    : metal
  Current step  : 220000
  Time step     : 0.001
Per MPI rank memory allocation (min/avg/max) = 11.29 | 11.29 | 11.29 Mbytes
Step Temp Press TotEng PotEng Enthalpy 
  220000    1537.8836   -574.94281    -112173.8   -116080.17   -112343.53 
  220495    1510.2018    204.30879   -112342.16   -116178.21   -112281.97 
Loop time of 38.4696 on 2 procs for 495 steps with 19652 atoms

Performance: 1.112 ns/day, 21.588 hours/ns, 12.867 timesteps/s
99.8% CPU use with 2 MPI tasks x no OpenMP threads

MPI task timing breakdown:
Section |  min time  |  avg time  |  max time  |%varavg| %total
---------------------------------------------------------------
Pair    | 20.933     | 21.085     | 21.237     |   3.3 | 54.81
Neigh   | 15.286     | 15.35      | 15.414     |   1.6 | 39.90
Comm    | 1.3751     | 1.4614     | 1.5476     |   7.1 |  3.80
Output  | 0.00010705 | 0.00023556 | 0.00036407 |   0.0 |  0.00
Modify  | 0.44881    | 0.45074    | 0.45267    |   0.3 |  1.17
Other   |            | 0.1223     |            |       |  0.32

Nlocal:    9826 ave 9845 max 9807 min
Histogram: 1 0 0 0 0 0 0 0 0 1
Nghost:    11146.5 ave 11151 max 11142 min
Histogram: 1 0 0 0 0 0 0 0 0 1
Neighs:    523102 ave 524071 max 522132 min
Histogram: 1 0 0 0 0 0 0 0 0 1

Total # of neighbors = 1046203
Ave neighs/atom = 53.2365
Neighbor list builds = 495
Dangerous builds not checked
Setting up Verlet run ...
  Unit style    : metal
  Current step  : 220495
  Time step     : 0.001
Per MPI rank memory allocation (min/avg/max) = 11.29 | 11.29 | 11.29 Mbytes
Step Temp Press TotEng PotEng Enthalpy 
  220495    1510.2018    204.30879   -112342.16   -116178.21   -112281.97 
  230000     1506.826   -681.68553   -112483.42    -116310.9   -112684.34 
Loop time of 763.772 on 2 procs for 9505 steps with 19652 atoms

Performance: 1.075 ns/day, 22.321 hours/ns, 12.445 timesteps/s
99.1% CPU use with 2 MPI tasks x no OpenMP threads

MPI task timing breakdown:
Section |  min time  |  avg time  |  max time  |%varavg| %total
---------------------------------------------------------------
Pair    | 418.81     | 419.3      | 419.79     |   2.4 | 54.90
Neigh   | 300.14     | 300.41     | 300.67     |   1.5 | 39.33
Comm    | 32.236     | 33.006     | 33.777     |  13.4 |  4.32
Output  | 0.037161   | 0.03724    | 0.03732    |   0.0 |  0.00
Modify  | 8.6631     | 8.6812     | 8.6993     |   0.6 |  1.14
Other   |            | 2.337      |            |       |  0.31

Nlocal:    9826 ave 9828 max 9824 min
Histogram: 1 0 0 0 0 0 0 0 0 1
Nghost:    11164.5 ave 11171 max 11158 min
Histogram: 1 0 0 0 0 0 0 0 0 1
Neighs:    522966 ave 523351 max 522580 min
Histogram: 1 0 0 0 0 0 0 0 0 1

Total # of neighbors = 1045931
Ave neighs/atom = 53.2226
Neighbor list builds = 9505
Dangerous builds not checked
Setting up Verlet run ...
  Unit style    : metal
  Current step  : 230000
  Time step     : 0.001
Per MPI rank memory allocation (min/avg/max) = 11.29 | 11.29 | 11.29 Mbytes
Step Temp Press TotEng PotEng Enthalpy 
  230000     1506.826   -681.68553   -112483.42    -116310.9   -112684.34 
  230495     1476.843   -488.80057   -112700.96   -116452.27   -112844.82 
Loop time of 37.8544 on 2 procs for 495 steps with 19652 atoms

Performance: 1.130 ns/day, 21.243 hours/ns, 13.076 timesteps/s
97.3% CPU use with 2 MPI tasks x no OpenMP threads

MPI task timing breakdown:
Section |  min time  |  avg time  |  max time  |%varavg| %total
---------------------------------------------------------------
Pair    | 20.288     | 20.349     | 20.41      |   1.4 | 53.76
Neigh   | 15.016     | 15.08      | 15.143     |   1.6 | 39.84
Comm    | 1.8699     | 1.8751     | 1.8804     |   0.4 |  4.95
Output  | 0.000103   | 0.00015402 | 0.00020504 |   0.0 |  0.00
Modify  | 0.43303    | 0.43501    | 0.43699    |   0.3 |  1.15
Other   |            | 0.1154     |            |       |  0.30

Nlocal:    9826 ave 9845 max 9807 min
Histogram: 1 0 0 0 0 0 0 0 0 1
Nghost:    11142.5 ave 11167 max 11118 min
Histogram: 1 0 0 0 0 0 0 0 0 1
Neighs:    523730 ave 524838 max 522623 min
Histogram: 1 0 0 0 0 0 0 0 0 1

Total # of neighbors = 1047461
Ave neighs/atom = 53.3005
Neighbor list builds = 495
Dangerous builds not checked
Setting up Verlet run ...
  Unit style    : metal
  Current step  : 230495
  Time step     : 0.001
Per MPI rank memory allocation (min/avg/max) = 11.29 | 11.29 | 11.29 Mbytes
Step Temp Press TotEng PotEng Enthalpy 
  230495     1476.843   -488.80057   -112700.96   -116452.27   -112844.82 
  240000    1451.0407   -1128.0511   -112783.89   -116469.66   -113116.15 
Loop time of 735.671 on 2 procs for 9505 steps with 19652 atoms

Performance: 1.116 ns/day, 21.500 hours/ns, 12.920 timesteps/s
99.1% CPU use with 2 MPI tasks x no OpenMP threads

MPI task timing breakdown:
Section |  min time  |  avg time  |  max time  |%varavg| %total
---------------------------------------------------------------
Pair    | 396.64     | 398.89     | 401.15     |  11.3 | 54.22
Neigh   | 291.05     | 293.17     | 295.28     |  12.4 | 39.85
Comm    | 28.383     | 32.807     | 37.232     |  77.2 |  4.46
Output  | 0.036782   | 0.036813   | 0.036843   |   0.0 |  0.01
Modify  | 8.5047     | 8.5489     | 8.5931     |   1.5 |  1.16
Other   |            | 2.22       |            |       |  0.30

Nlocal:    9826 ave 9834 max 9818 min
Histogram: 1 0 0 0 0 0 0 0 0 1
Nghost:    11102.5 ave 11113 max 11092 min
Histogram: 1 0 0 0 0 0 0 0 0 1
Neighs:    523488 ave 523786 max 523191 min
Histogram: 1 0 0 0 0 0 0 0 0 1

Total # of neighbors = 1046977
Ave neighs/atom = 53.2758
Neighbor list builds = 9505
Dangerous builds not checked
Setting up Verlet run ...
  Unit style    : metal
  Current step  : 240000
  Time step     : 0.001
Per MPI rank memory allocation (min/avg/max) = 11.29 | 11.29 | 11.29 Mbytes
Step Temp Press TotEng PotEng Enthalpy 
  240000    1451.0407   -1128.0511   -112783.89   -116469.66   -113116.15 
  240495      1407.98   -149.95884   -113034.32   -116610.71   -113078.37 
Loop time of 37.8154 on 2 procs for 495 steps with 19652 atoms

Performance: 1.131 ns/day, 21.221 hours/ns, 13.090 timesteps/s
98.5% CPU use with 2 MPI tasks x no OpenMP threads

MPI task timing breakdown:
Section |  min time  |  avg time  |  max time  |%varavg| %total
---------------------------------------------------------------
Pair    | 20.34      | 20.542     | 20.745     |   4.5 | 54.32
Neigh   | 15.167     | 15.192     | 15.217     |   0.6 | 40.17
Comm    | 1.357      | 1.5303     | 1.7037     |  14.0 |  4.05
Output  | 9.0122e-05 | 0.00013065 | 0.00017118 |   0.0 |  0.00
Modify  | 0.43122    | 0.43488    | 0.43853    |   0.6 |  1.15
Other   |            | 0.1157     |            |       |  0.31

Nlocal:    9826 ave 9830 max 9822 min
Histogram: 1 0 0 0 0 0 0 0 0 1
Nghost:    11145 ave 11165 max 11125 min
Histogram: 1 0 0 0 0 0 0 0 0 1
Neighs:    525229 ave 525966 max 524492 min
Histogram: 1 0 0 0 0 0 0 0 0 1

Total # of neighbors = 1050458
Ave neighs/atom = 53.453
Neighbor list builds = 495
Dangerous builds not checked
Setting up Verlet run ...
  Unit style    : metal
  Current step  : 240495
  Time step     : 0.001
Per MPI rank memory allocation (min/avg/max) = 11.29 | 11.29 | 11.29 Mbytes
Step Temp Press TotEng PotEng Enthalpy 
  240495      1407.98   -149.95884   -113034.32   -116610.71   -113078.37 
  250000    1403.6364    335.80972    -113131.5   -116696.87   -113032.95 
Loop time of 762.478 on 2 procs for 9505 steps with 19652 atoms

Performance: 1.077 ns/day, 22.283 hours/ns, 12.466 timesteps/s
97.9% CPU use with 2 MPI tasks x no OpenMP threads

MPI task timing breakdown:
Section |  min time  |  avg time  |  max time  |%varavg| %total
---------------------------------------------------------------
Pair    | 412.8      | 414.07     | 415.35     |   6.3 | 54.31
Neigh   | 300.9      | 302.78     | 304.66     |  10.8 | 39.71
Comm    | 31.215     | 34.391     | 37.567     |  54.2 |  4.51
Output  | 0.039033   | 0.039108   | 0.039183   |   0.0 |  0.01
Modify  | 8.8663     | 8.9022     | 8.9381     |   1.2 |  1.17
Other   |            | 2.298      |            |       |  0.30

Nlocal:    9826 ave 9841 max 9811 min
Histogram: 1 0 0 0 0 0 0 0 0 1
Nghost:    11169 ave 11192 max 11146 min
Histogram: 1 0 0 0 0 0 0 0 0 1
Neighs:    525936 ave 526450 max 525422 min
Histogram: 1 0 0 0 0 0 0 0 0 1

Total # of neighbors = 1051872
Ave neighs/atom = 53.5249
Neighbor list builds = 9505
Dangerous builds not checked
Setting up Verlet run ...
  Unit style    : metal
  Current step  : 250000
  Time step     : 0.001
Per MPI rank memory allocation (min/avg/max) = 11.29 | 11.29 | 11.29 Mbytes
Step Temp Press TotEng PotEng Enthalpy 
  250000    1403.6364    335.80972    -113131.5   -116696.87   -113032.95 
  250495    1374.6271   -661.84331   -113333.87   -116825.55   -113528.14 
Loop time of 37.1963 on 2 procs for 495 steps with 19652 atoms

Performance: 1.150 ns/day, 20.873 hours/ns, 13.308 timesteps/s
97.8% CPU use with 2 MPI tasks x no OpenMP threads

MPI task timing breakdown:
Section |  min time  |  avg time  |  max time  |%varavg| %total
---------------------------------------------------------------
Pair    | 20.355     | 20.433     | 20.51      |   1.7 | 54.93
Neigh   | 14.835     | 14.875     | 14.914     |   1.0 | 39.99
Comm    | 1.2367     | 1.3547     | 1.4726     |  10.1 |  3.64
Output  | 9.6083e-05 | 0.00011659 | 0.00013709 |   0.0 |  0.00
Modify  | 0.42313    | 0.42402    | 0.4249     |   0.1 |  1.14
Other   |            | 0.1104     |            |       |  0.30

Nlocal:    9826 ave 9831 max 9821 min
Histogram: 1 0 0 0 0 0 0 0 0 1
Nghost:    11159.5 ave 11182 max 11137 min
Histogram: 1 0 0 0 0 0 0 0 0 1
Neighs:    526030 ave 527033 max 525026 min
Histogram: 1 0 0 0 0 0 0 0 0 1

Total # of neighbors = 1052059
Ave neighs/atom = 53.5344
Neighbor list builds = 495
Dangerous builds not checked
Setting up Verlet run ...
  Unit style    : metal
  Current step  : 250495
  Time step     : 0.001
Per MPI rank memory allocation (min/avg/max) = 11.29 | 11.29 | 11.29 Mbytes
Step Temp Press TotEng PotEng Enthalpy 
  250495    1374.6271   -661.84331   -113333.87   -116825.55   -113528.14 
  260000    1349.1749    606.04681   -113506.64   -116933.67   -113329.16 
Loop time of 741.361 on 2 procs for 9505 steps with 19652 atoms

Performance: 1.108 ns/day, 21.666 hours/ns, 12.821 timesteps/s
97.7% CPU use with 2 MPI tasks x no OpenMP threads

MPI task timing breakdown:
Section |  min time  |  avg time  |  max time  |%varavg| %total
---------------------------------------------------------------
Pair    | 396.26     | 398.93     | 401.6      |  13.4 | 53.81
Neigh   | 292.03     | 293.69     | 295.34     |   9.7 | 39.61
Comm    | 31.406     | 35.778     | 40.15      |  73.1 |  4.83
Output  | 0.03738    | 0.037408   | 0.037436   |   0.0 |  0.01
Modify  | 10.732     | 10.775     | 10.817     |   1.3 |  1.45
Other   |            | 2.157      |            |       |  0.29

Nlocal:    9826 ave 9842 max 9810 min
Histogram: 1 0 0 0 0 0 0 0 0 1
Nghost:    11149.5 ave 11176 max 11123 min
Histogram: 1 0 0 0 0 0 0 0 0 1
Neighs:    527504 ave 528208 max 526801 min
Histogram: 1 0 0 0 0 0 0 0 0 1

Total # of neighbors = 1055009
Ave neighs/atom = 53.6846
Neighbor list builds = 9505
Dangerous builds not checked
Setting up Verlet run ...
  Unit style    : metal
  Current step  : 260000
  Time step     : 0.001
Per MPI rank memory allocation (min/avg/max) = 11.29 | 11.29 | 11.29 Mbytes
Step Temp Press TotEng PotEng Enthalpy 
  260000    1349.1749    606.04681   -113506.64   -116933.67   -113329.16 
  260495    1313.8589   -166.63486   -113728.57   -117065.89   -113777.37 
Loop time of 40.37 on 2 procs for 495 steps with 19652 atoms

Performance: 1.059 ns/day, 22.654 hours/ns, 12.262 timesteps/s
94.7% CPU use with 2 MPI tasks x no OpenMP threads

MPI task timing breakdown:
Section |  min time  |  avg time  |  max time  |%varavg| %total
---------------------------------------------------------------
Pair    | 20.986     | 20.996     | 21.006     |   0.2 | 52.01
Neigh   | 14.743     | 15.036     | 15.329     |   7.6 | 37.24
Comm    | 3.5075     | 3.7979     | 4.0883     |  14.9 |  9.41
Output  | 9.5129e-05 | 0.00011909 | 0.00014305 |   0.0 |  0.00
Modify  | 0.42088    | 0.42817    | 0.43547    |   1.1 |  1.06
Other   |            | 0.112      |            |       |  0.28

Nlocal:    9826 ave 9834 max 9818 min
Histogram: 1 0 0 0 0 0 0 0 0 1
Nghost:    11122 ave 11128 max 11116 min
Histogram: 1 0 0 0 0 0 0 0 0 1
Neighs:    527428 ave 528333 max 526522 min
Histogram: 1 0 0 0 0 0 0 0 0 1

Total # of neighbors = 1054855
Ave neighs/atom = 53.6767
Neighbor list builds = 495
Dangerous builds not checked
Setting up Verlet run ...
  Unit style    : metal
  Current step  : 260495
  Time step     : 0.001
Per MPI rank memory allocation (min/avg/max) = 11.29 | 11.29 | 11.29 Mbytes
Step Temp Press TotEng PotEng Enthalpy 
  260495    1313.8589   -166.63486   -113728.57   -117065.89   -113777.37 
  270000    1295.9563   -493.45723   -113827.71   -117119.56   -113972.22 
Loop time of 740.182 on 2 procs for 9505 steps with 19652 atoms

Performance: 1.109 ns/day, 21.631 hours/ns, 12.841 timesteps/s
98.6% CPU use with 2 MPI tasks x no OpenMP threads

MPI task timing breakdown:
Section |  min time  |  avg time  |  max time  |%varavg| %total
---------------------------------------------------------------
Pair    | 399.02     | 402.14     | 405.25     |  15.5 | 54.33
Neigh   | 297.99     | 299.4      | 300.82     |   8.2 | 40.45
Comm    | 22.945     | 27.688     | 32.432     |  90.1 |  3.74
Output  | 0.038598   | 0.038678   | 0.038759   |   0.0 |  0.01
Modify  | 8.4876     | 8.6882     | 8.8887     |   6.8 |  1.17
Other   |            | 2.225      |            |       |  0.30

Nlocal:    9826 ave 9832 max 9820 min
Histogram: 1 0 0 0 0 0 0 0 0 1
Nghost:    11176.5 ave 11220 max 11133 min
Histogram: 1 0 0 0 0 0 0 0 0 1
Neighs:    527664 ave 527941 max 527387 min
Histogram: 1 0 0 0 0 0 0 0 0 1

Total # of neighbors = 1055328
Ave neighs/atom = 53.7008
Neighbor list builds = 9505
Dangerous builds not checked
Setting up Verlet run ...
  Unit style    : metal
  Current step  : 270000
  Time step     : 0.001
Per MPI rank memory allocation (min/avg/max) = 11.29 | 11.29 | 11.29 Mbytes
Step Temp Press TotEng PotEng Enthalpy 
  270000    1295.9563   -493.45723   -113827.71   -117119.56   -113972.22 
  270495    1262.5664    52.616502    -114024.9   -117231.93   -114009.52 
Loop time of 37.3973 on 2 procs for 495 steps with 19652 atoms

Performance: 1.144 ns/day, 20.986 hours/ns, 13.236 timesteps/s
99.1% CPU use with 2 MPI tasks x no OpenMP threads

MPI task timing breakdown:
Section |  min time  |  avg time  |  max time  |%varavg| %total
---------------------------------------------------------------
Pair    | 20.344     | 20.365     | 20.386     |   0.5 | 54.46
Neigh   | 15.322     | 15.351     | 15.379     |   0.7 | 41.05
Comm    | 1.1154     | 1.1218     | 1.1283     |   0.6 |  3.00
Output  | 9.799e-05  | 0.00013494 | 0.0001719  |   0.0 |  0.00
Modify  | 0.44422    | 0.44476    | 0.4453     |   0.1 |  1.19
Other   |            | 0.1145     |            |       |  0.31

Nlocal:    9826 ave 9857 max 9795 min
Histogram: 1 0 0 0 0 0 0 0 0 1
Nghost:    11130 ave 11183 max 11077 min
Histogram: 1 0 0 0 0 0 0 0 0 1
Neighs:    528588 ave 530706 max 526469 min
Histogram: 1 0 0 0 0 0 0 0 0 1

Total # of neighbors = 1057175
Ave neighs/atom = 53.7948
Neighbor list builds = 495
Dangerous builds not checked
Setting up Verlet run ...
  Unit style    : metal
  Current step  : 270495
  Time step     : 0.001
Per MPI rank memory allocation (min/avg/max) = 11.29 | 11.29 | 11.29 Mbytes
Step Temp Press TotEng PotEng Enthalpy 
  270495    1262.5664    52.616502    -114024.9   -117231.93   -114009.52 
  280000     1251.254    475.94492   -114160.12   -117338.41   -114021.16 
Loop time of 736.315 on 2 procs for 9505 steps with 19652 atoms

Performance: 1.115 ns/day, 21.518 hours/ns, 12.909 timesteps/s
99.3% CPU use with 2 MPI tasks x no OpenMP threads

MPI task timing breakdown:
Section |  min time  |  avg time  |  max time  |%varavg| %total
---------------------------------------------------------------
Pair    | 400        | 401.97     | 403.95     |   9.9 | 54.59
Neigh   | 298.18     | 299.59     | 301.01     |   8.2 | 40.69
Comm    | 20.551     | 23.977     | 27.403     |  70.0 |  3.26
Output  | 0.037062   | 0.037084   | 0.037105   |   0.0 |  0.01
Modify  | 8.4446     | 8.4839     | 8.5232     |   1.3 |  1.15
Other   |            | 2.247      |            |       |  0.31

Nlocal:    9826 ave 9826 max 9826 min
Histogram: 2 0 0 0 0 0 0 0 0 0
Nghost:    11148.5 ave 11168 max 11129 min
Histogram: 1 0 0 0 0 0 0 0 0 1
Neighs:    529620 ave 530064 max 529176 min
Histogram: 1 0 0 0 0 0 0 0 0 1

Total # of neighbors = 1059240
Ave neighs/atom = 53.8999
Neighbor list builds = 9505
Dangerous builds not checked
Setting up Verlet run ...
  Unit style    : metal
  Current step  : 280000
  Time step     : 0.001
Per MPI rank memory allocation (min/avg/max) = 11.29 | 11.29 | 11.29 Mbytes
Step Temp Press TotEng PotEng Enthalpy 
  280000     1251.254    475.94492   -114160.12   -117338.41   -114021.16 
  280495    1219.2339   -817.93101   -114383.95   -117480.91   -114622.88 
Loop time of 37.7049 on 2 procs for 495 steps with 19652 atoms

Performance: 1.134 ns/day, 21.159 hours/ns, 13.128 timesteps/s
99.9% CPU use with 2 MPI tasks x no OpenMP threads

MPI task timing breakdown:
Section |  min time  |  avg time  |  max time  |%varavg| %total
---------------------------------------------------------------
Pair    | 20.154     | 20.437     | 20.719     |   6.2 | 54.20
Neigh   | 15.233     | 15.319     | 15.405     |   2.2 | 40.63
Comm    | 1.015      | 1.3865     | 1.7579     |  31.5 |  3.68
Output  | 8.297e-05  | 0.0001744  | 0.00026584 |   0.0 |  0.00
Modify  | 0.44255    | 0.44489    | 0.44722    |   0.4 |  1.18
Other   |            | 0.1174     |            |       |  0.31

Nlocal:    9826 ave 9845 max 9807 min
Histogram: 1 0 0 0 0 0 0 0 0 1
Nghost:    11125 ave 11127 max 11123 min
Histogram: 1 0 0 0 0 0 0 0 0 1
Neighs:    529308 ave 530930 max 527686 min
Histogram: 1 0 0 0 0 0 0 0 0 1

Total # of neighbors = 1058616
Ave neighs/atom = 53.8681
Neighbor list builds = 495
Dangerous builds not checked
Setting up Verlet run ...
  Unit style    : metal
  Current step  : 280495
  Time step     : 0.001
Per MPI rank memory allocation (min/avg/max) = 11.29 | 11.29 | 11.29 Mbytes
Step Temp Press TotEng PotEng Enthalpy 
  280495    1219.2339   -817.93101   -114383.95   -117480.91   -114622.88 
  290000    1185.7047   -485.91877   -114605.88   -117617.68   -114747.63 
Loop time of 744.902 on 2 procs for 9505 steps with 19652 atoms

Performance: 1.102 ns/day, 21.769 hours/ns, 12.760 timesteps/s
99.3% CPU use with 2 MPI tasks x no OpenMP threads

MPI task timing breakdown:
Section |  min time  |  avg time  |  max time  |%varavg| %total
---------------------------------------------------------------
Pair    | 404.77     | 408.04     | 411.3      |  16.2 | 54.78
Neigh   | 298.61     | 299.9      | 301.2      |   7.5 | 40.26
Comm    | 21.412     | 26.017     | 30.622     |  90.3 |  3.49
Output  | 0.036538   | 0.036566   | 0.036593   |   0.0 |  0.00
Modify  | 8.5786     | 8.6206     | 8.6625     |   1.4 |  1.16
Other   |            | 2.288      |            |       |  0.31

Nlocal:    9826 ave 9830 max 9822 min
Histogram: 1 0 0 0 0 0 0 0 0 1
Nghost:    11183.5 ave 11188 max 11179 min
Histogram: 1 0 0 0 0 0 0 0 0 1
Neighs:    530550 ave 530653 max 530447 min
Histogram: 1 0 0 0 0 0 0 0 0 1

Total # of neighbors = 1061100
Ave neighs/atom = 53.9945
Neighbor list builds = 9505
Dangerous builds not checked
Setting up Verlet run ...
  Unit style    : metal
  Current step  : 290000
  Time step     : 0.001
Per MPI rank memory allocation (min/avg/max) = 11.29 | 11.29 | 11.29 Mbytes
Step Temp Press TotEng PotEng Enthalpy 
  290000    1185.7047   -485.91877   -114605.88   -117617.68   -114747.63 
  290495    1171.9728    665.05129   -114738.82   -117715.74   -114545.25 
Loop time of 39.3715 on 2 procs for 495 steps with 19652 atoms

Performance: 1.086 ns/day, 22.094 hours/ns, 12.573 timesteps/s
97.3% CPU use with 2 MPI tasks x no OpenMP threads

MPI task timing breakdown:
Section |  min time  |  avg time  |  max time  |%varavg| %total
---------------------------------------------------------------
Pair    | 21.411     | 21.651     | 21.891     |   5.2 | 54.99
Neigh   | 15.382     | 15.401     | 15.42      |   0.5 | 39.12
Comm    | 1.5231     | 1.7449     | 1.9667     |  16.8 |  4.43
Output  | 0.00011182 | 0.00016189 | 0.00021195 |   0.0 |  0.00
Modify  | 0.45362    | 0.45452    | 0.45541    |   0.1 |  1.15
Other   |            | 0.1201     |            |       |  0.30

Nlocal:    9826 ave 9826 max 9826 min
Histogram: 2 0 0 0 0 0 0 0 0 0
Nghost:    11182.5 ave 11202 max 11163 min
Histogram: 1 0 0 0 0 0 0 0 0 1
Neighs:    532082 ave 532447 max 531717 min
Histogram: 1 0 0 0 0 0 0 0 0 1

Total # of neighbors = 1064164
Ave neighs/atom = 54.1504
Neighbor list builds = 495
Dangerous builds not checked
Setting up Verlet run ...
  Unit style    : metal
  Current step  : 290495
  Time step     : 0.001
Per MPI rank memory allocation (min/avg/max) = 11.29 | 11.29 | 11.29 Mbytes
Step Temp Press TotEng PotEng Enthalpy 
  290495    1171.9728    665.05129   -114738.82   -117715.74   -114545.25 
  300000    1152.5576     357.3645   -114893.98   -117821.59   -114789.99 
Loop time of 765.334 on 2 procs for 9505 steps with 19652 atoms

Performance: 1.073 ns/day, 22.366 hours/ns, 12.419 timesteps/s
97.7% CPU use with 2 MPI tasks x no OpenMP threads

MPI task timing breakdown:
Section |  min time  |  avg time  |  max time  |%varavg| %total
---------------------------------------------------------------
Pair    | 419.14     | 420.07     | 420.99     |   4.5 | 54.89
Neigh   | 302.03     | 303.07     | 304.1      |   5.9 | 39.60
Comm    | 29.014     | 30.999     | 32.984     |  35.6 |  4.05
Output  | 0.052585   | 0.052679   | 0.052774   |   0.0 |  0.01
Modify  | 8.7913     | 8.8234     | 8.8555     |   1.1 |  1.15
Other   |            | 2.327      |            |       |  0.30

Nlocal:    9826 ave 9837 max 9815 min
Histogram: 1 0 0 0 0 0 0 0 0 1
Nghost:    11187.5 ave 11216 max 11159 min
Histogram: 1 0 0 0 0 0 0 0 0 1
Neighs:    532608 ave 533597 max 531620 min
Histogram: 1 0 0 0 0 0 0 0 0 1

Total # of neighbors = 1065217
Ave neighs/atom = 54.204
Neighbor list builds = 9505
Dangerous builds not checked
Setting up Verlet run ...
  Unit style    : metal
  Current step  : 300000
  Time step     : 0.001
Per MPI rank memory allocation (min/avg/max) = 11.29 | 11.29 | 11.3 Mbytes
Step Temp Press TotEng PotEng Enthalpy 
[...]
Histogram: 1 0 0 0 0 0 0 0 0 1
Neighs:    551535 ave 552916 max 550154 min
Histogram: 1 0 0 0 0 0 0 0 0 1

Total # of neighbors = 1103070
Ave neighs/atom = 56.1302
Neighbor list builds = 9505
Dangerous builds not checked
Setting up Verlet run ...
  Unit style    : metal
  Current step  : 440000
  Time step     : 0.001
Per MPI rank memory allocation (min/avg/max) = 11.29 | 11.29 | 11.3 Mbytes
Step Temp Press TotEng PotEng Enthalpy 
  440000    448.48479    621.72238   -120172.11    -121311.3   -119995.14 
  440495    422.08035   -532.62624   -120311.87   -121383.99   -120463.58 
Loop time of 34.6896 on 2 procs for 495 steps with 19652 atoms

Performance: 1.233 ns/day, 19.467 hours/ns, 14.269 timesteps/s
99.3% CPU use with 2 MPI tasks x no OpenMP threads

MPI task timing breakdown:
Section |  min time  |  avg time  |  max time  |%varavg| %total
---------------------------------------------------------------
Pair    | 18.676     | 18.77      | 18.865     |   2.2 | 54.11
Neigh   | 14.059     | 14.079     | 14.099     |   0.5 | 40.58
Comm    | 1.2305     | 1.3083     | 1.3861     |   6.8 |  3.77
Output  | 9.5129e-05 | 0.00013208 | 0.00016904 |   0.0 |  0.00
Modify  | 0.42026    | 0.4214     | 0.42254    |   0.2 |  1.21
Other   |            | 0.1108     |            |       |  0.32

Nlocal:    9826 ave 9857 max 9795 min
Histogram: 1 0 0 0 0 0 0 0 0 1
Nghost:    11265.5 ave 11311 max 11220 min
Histogram: 1 0 0 0 0 0 0 0 0 1
Neighs:    551357 ave 552772 max 549942 min
Histogram: 1 0 0 0 0 0 0 0 0 1

Total # of neighbors = 1102714
Ave neighs/atom = 56.112
Neighbor list builds = 495
Dangerous builds not checked
Setting up Verlet run ...
  Unit style    : metal
  Current step  : 440495
  Time step     : 0.001
Per MPI rank memory allocation (min/avg/max) = 11.29 | 11.29 | 11.3 Mbytes
Step Temp Press TotEng PotEng Enthalpy 
  440495    422.08035   -532.62624   -120311.87   -121383.99   -120463.58 
  450000    400.46655   -361.33986   -120428.82   -121446.04   -120531.69 
Loop time of 689.972 on 2 procs for 9505 steps with 19652 atoms

Performance: 1.190 ns/day, 20.164 hours/ns, 13.776 timesteps/s
98.4% CPU use with 2 MPI tasks x no OpenMP threads

MPI task timing breakdown:
Section |  min time  |  avg time  |  max time  |%varavg| %total
---------------------------------------------------------------
Pair    | 375.71     | 376.84     | 377.96     |   5.8 | 54.62
Neigh   | 275.68     | 277.1      | 278.52     |   8.5 | 40.16
Comm    | 22.943     | 25.547     | 28.15      |  51.5 |  3.70
Output  | 0.03461    | 0.034623   | 0.034635   |   0.0 |  0.01
Modify  | 8.2008     | 8.2531     | 8.3055     |   1.8 |  1.20
Other   |            | 2.201      |            |       |  0.32

Nlocal:    9826 ave 9841 max 9811 min
Histogram: 1 0 0 0 0 0 0 0 0 1
Nghost:    11296 ave 11330 max 11262 min
Histogram: 1 0 0 0 0 0 0 0 0 1
Neighs:    551664 ave 552112 max 551215 min
Histogram: 1 0 0 0 0 0 0 0 0 1

Total # of neighbors = 1103327
Ave neighs/atom = 56.1432
Neighbor list builds = 9505
Dangerous builds not checked
Setting up Verlet run ...
  Unit style    : metal
  Current step  : 450000
  Time step     : 0.001
Per MPI rank memory allocation (min/avg/max) = 11.29 | 11.29 | 11.3 Mbytes
Step Temp Press TotEng PotEng Enthalpy 
  450000    400.46655   -361.33986   -120428.82   -121446.04   -120531.69 
  450495    372.79586    445.97321   -120580.24   -121527.17   -120453.47 
Loop time of 35.1058 on 2 procs for 495 steps with 19652 atoms

Performance: 1.218 ns/day, 19.700 hours/ns, 14.100 timesteps/s
99.9% CPU use with 2 MPI tasks x no OpenMP threads

MPI task timing breakdown:
Section |  min time  |  avg time  |  max time  |%varavg| %total
---------------------------------------------------------------
Pair    | 19.054     | 19.164     | 19.274     |   2.5 | 54.59
Neigh   | 14.133     | 14.226     | 14.32      |   2.5 | 40.52
Comm    | 0.96926    | 1.1765     | 1.3837     |  19.1 |  3.35
Output  | 0.00010395 | 0.0002265  | 0.00034904 |   0.0 |  0.00
Modify  | 0.42186    | 0.42578    | 0.42969    |   0.6 |  1.21
Other   |            | 0.1126     |            |       |  0.32

Nlocal:    9826 ave 9848 max 9804 min
Histogram: 1 0 0 0 0 0 0 0 0 1
Nghost:    11276 ave 11298 max 11254 min
Histogram: 1 0 0 0 0 0 0 0 0 1
Neighs:    552750 ave 553526 max 551975 min
Histogram: 1 0 0 0 0 0 0 0 0 1

Total # of neighbors = 1105501
Ave neighs/atom = 56.2539
Neighbor list builds = 495
Dangerous builds not checked
Setting up Verlet run ...
  Unit style    : metal
  Current step  : 450495
  Time step     : 0.001
Per MPI rank memory allocation (min/avg/max) = 11.29 | 11.29 | 11.3 Mbytes
Step Temp Press TotEng PotEng Enthalpy 
  450495    372.79586    445.97321   -120580.24   -121527.17   -120453.47 
  460000     349.2146   -640.61102   -120712.75   -121599.78   -120894.99 
Loop time of 673.609 on 2 procs for 9505 steps with 19652 atoms

Performance: 1.219 ns/day, 19.686 hours/ns, 14.111 timesteps/s
99.2% CPU use with 2 MPI tasks x no OpenMP threads

MPI task timing breakdown:
Section |  min time  |  avg time  |  max time  |%varavg| %total
---------------------------------------------------------------
Pair    | 364.78     | 366.22     | 367.67     |   7.5 | 54.37
Neigh   | 268.98     | 270.86     | 272.74     |  11.4 | 40.21
Comm    | 22.89      | 26.278     | 29.667     |  66.1 |  3.90
Output  | 0.03648    | 0.036505   | 0.036529   |   0.0 |  0.01
Modify  | 8.0098     | 8.0627     | 8.1157     |   1.9 |  1.20
Other   |            | 2.144      |            |       |  0.32

Nlocal:    9826 ave 9835 max 9817 min
Histogram: 1 0 0 0 0 0 0 0 0 1
Nghost:    11269.5 ave 11296 max 11243 min
Histogram: 1 0 0 0 0 0 0 0 0 1
Neighs:    551964 ave 552003 max 551926 min
Histogram: 1 0 0 0 0 0 0 0 0 1

Total # of neighbors = 1103929
Ave neighs/atom = 56.1739
Neighbor list builds = 9505
Dangerous builds not checked
Setting up Verlet run ...
  Unit style    : metal
  Current step  : 460000
  Time step     : 0.001
Per MPI rank memory allocation (min/avg/max) = 11.29 | 11.29 | 11.3 Mbytes
Step Temp Press TotEng PotEng Enthalpy 
  460000     349.2146   -640.61102   -120712.75   -121599.78   -120894.99 
  460495    321.94379   -91.359875    -120846.3   -121664.07   -120872.26 
Loop time of 33.4714 on 2 procs for 495 steps with 19652 atoms

Performance: 1.278 ns/day, 18.783 hours/ns, 14.789 timesteps/s
99.9% CPU use with 2 MPI tasks x no OpenMP threads

MPI task timing breakdown:
Section |  min time  |  avg time  |  max time  |%varavg| %total
---------------------------------------------------------------
Pair    | 18.098     | 18.126     | 18.153     |   0.6 | 54.15
Neigh   | 13.219     | 13.298     | 13.376     |   2.2 | 39.73
Comm    | 1.442      | 1.5506     | 1.6591     |   8.7 |  4.63
Output  | 0.0001018  | 0.00016081 | 0.00021982 |   0.0 |  0.00
Modify  | 0.39247    | 0.39377    | 0.39507    |   0.2 |  1.18
Other   |            | 0.1035     |            |       |  0.31

Nlocal:    9826 ave 9833 max 9819 min
Histogram: 1 0 0 0 0 0 0 0 0 1
Nghost:    11290 ave 11318 max 11262 min
Histogram: 1 0 0 0 0 0 0 0 0 1
Neighs:    552571 ave 553229 max 551913 min
Histogram: 1 0 0 0 0 0 0 0 0 1

Total # of neighbors = 1105142
Ave neighs/atom = 56.2356
Neighbor list builds = 495
Dangerous builds not checked
Setting up Verlet run ...
  Unit style    : metal
  Current step  : 460495
  Time step     : 0.001
Per MPI rank memory allocation (min/avg/max) = 11.29 | 11.29 | 11.3 Mbytes
Step Temp Press TotEng PotEng Enthalpy 
  460495    321.94379   -91.359875    -120846.3   -121664.07   -120872.26 
  470000    299.40956    -582.8639   -120965.62   -121726.15   -121131.29 
Loop time of 683.992 on 2 procs for 9505 steps with 19652 atoms

Performance: 1.201 ns/day, 19.989 hours/ns, 13.896 timesteps/s
97.7% CPU use with 2 MPI tasks x no OpenMP threads

MPI task timing breakdown:
Section |  min time  |  avg time  |  max time  |%varavg| %total
---------------------------------------------------------------
Pair    | 367.03     | 369.17     | 371.31     |  11.1 | 53.97
Neigh   | 263.92     | 264.71     | 265.51     |   4.9 | 38.70
Comm    | 35.768     | 38.737     | 41.706     |  47.7 |  5.66
Output  | 0.03622    | 0.036245   | 0.036271   |   0.0 |  0.01
Modify  | 9.1928     | 9.2238     | 9.2548     |   1.0 |  1.35
Other   |            | 2.113      |            |       |  0.31

Nlocal:    9826 ave 9835 max 9817 min
Histogram: 1 0 0 0 0 0 0 0 0 1
Nghost:    11277.5 ave 11291 max 11264 min
Histogram: 1 0 0 0 0 0 0 0 0 1
Neighs:    552356 ave 552468 max 552245 min
Histogram: 1 0 0 0 0 0 0 0 0 1

Total # of neighbors = 1104713
Ave neighs/atom = 56.2138
Neighbor list builds = 9505
Dangerous builds not checked
Setting up Verlet run ...
  Unit style    : metal
  Current step  : 470000
  Time step     : 0.001
Per MPI rank memory allocation (min/avg/max) = 11.29 | 11.29 | 11.3 Mbytes
Step Temp Press TotEng PotEng Enthalpy 
  470000    299.40956    -582.8639   -120965.62   -121726.15   -121131.29 
  470495    273.56355   -565.83471   -121106.91   -121801.79   -121267.64 
Loop time of 34.4035 on 2 procs for 495 steps with 19652 atoms

Performance: 1.243 ns/day, 19.306 hours/ns, 14.388 timesteps/s
99.9% CPU use with 2 MPI tasks x no OpenMP threads

MPI task timing breakdown:
Section |  min time  |  avg time  |  max time  |%varavg| %total
---------------------------------------------------------------
Pair    | 18.525     | 18.683     | 18.84      |   3.6 | 54.30
Neigh   | 13.491     | 13.773     | 14.054     |   7.6 | 40.03
Comm    | 1.2922     | 1.4265     | 1.5607     |  11.2 |  4.15
Output  | 9.2983e-05 | 0.00012255 | 0.00015211 |   0.0 |  0.00
Modify  | 0.40333    | 0.41054    | 0.41776    |   1.1 |  1.19
Other   |            | 0.1113     |            |       |  0.32

Nlocal:    9826 ave 9838 max 9814 min
Histogram: 1 0 0 0 0 0 0 0 0 1
Nghost:    11322.5 ave 11351 max 11294 min
Histogram: 1 0 0 0 0 0 0 0 0 1
Neighs:    552820 ave 552860 max 552781 min
Histogram: 1 0 0 0 0 0 0 0 0 1

Total # of neighbors = 1105641
Ave neighs/atom = 56.261
Neighbor list builds = 495
Dangerous builds not checked
Setting up Verlet run ...
  Unit style    : metal
  Current step  : 470495
  Time step     : 0.001
Per MPI rank memory allocation (min/avg/max) = 11.29 | 11.29 | 11.3 Mbytes
Step Temp Press TotEng PotEng Enthalpy 
  470495    273.56355   -565.83471   -121106.91   -121801.79   -121267.64 
  480000    251.27449   -438.64274   -121221.15   -121859.41   -121345.68 
Loop time of 667.626 on 2 procs for 9505 steps with 19652 atoms

Performance: 1.230 ns/day, 19.511 hours/ns, 14.237 timesteps/s
98.7% CPU use with 2 MPI tasks x no OpenMP threads

MPI task timing breakdown:
Section |  min time  |  avg time  |  max time  |%varavg| %total
---------------------------------------------------------------
Pair    | 358.78     | 360.25     | 361.72     |   7.8 | 53.96
Neigh   | 264.02     | 264.05     | 264.08     |   0.2 | 39.55
Comm    | 31.117     | 32.622     | 34.127     |  26.4 |  4.89
Output  | 0.037102   | 0.037129   | 0.037156   |   0.0 |  0.01
Modify  | 8.5516     | 8.5591     | 8.5666     |   0.3 |  1.28
Other   |            | 2.108      |            |       |  0.32

Nlocal:    9826 ave 9836 max 9816 min
Histogram: 1 0 0 0 0 0 0 0 0 1
Nghost:    11302 ave 11338 max 11266 min
Histogram: 1 0 0 0 0 0 0 0 0 1
Neighs:    553242 ave 553564 max 552920 min
Histogram: 1 0 0 0 0 0 0 0 0 1

Total # of neighbors = 1106484
Ave neighs/atom = 56.3039
Neighbor list builds = 9505
Dangerous builds not checked
Setting up Verlet run ...
  Unit style    : metal
  Current step  : 480000
  Time step     : 0.001
Per MPI rank memory allocation (min/avg/max) = 11.29 | 11.29 | 11.3 Mbytes
Step Temp Press TotEng PotEng Enthalpy 
  480000    251.27449   -438.64274   -121221.15   -121859.41   -121345.68 
  480495    224.03214    137.36748    -121363.4   -121932.46   -121324.44 
Loop time of 33.7508 on 2 procs for 495 steps with 19652 atoms

Performance: 1.267 ns/day, 18.940 hours/ns, 14.666 timesteps/s
99.9% CPU use with 2 MPI tasks x no OpenMP threads

MPI task timing breakdown:
Section |  min time  |  avg time  |  max time  |%varavg| %total
---------------------------------------------------------------
Pair    | 18.182     | 18.233     | 18.284     |   1.2 | 54.02
Neigh   | 13.482     | 13.645     | 13.808     |   4.4 | 40.43
Comm    | 1.1312     | 1.3522     | 1.5733     |  19.0 |  4.01
Output  | 8.4162e-05 | 0.00011957 | 0.00015497 |   0.0 |  0.00
Modify  | 0.40519    | 0.41075    | 0.4163     |   0.9 |  1.22
Other   |            | 0.1093     |            |       |  0.32

Nlocal:    9826 ave 9838 max 9814 min
Histogram: 1 0 0 0 0 0 0 0 0 1
Nghost:    11317.5 ave 11345 max 11290 min
Histogram: 1 0 0 0 0 0 0 0 0 1
Neighs:    553870 ave 554193 max 553547 min
Histogram: 1 0 0 0 0 0 0 0 0 1

Total # of neighbors = 1107740
Ave neighs/atom = 56.3678
Neighbor list builds = 495
Dangerous builds not checked
Setting up Verlet run ...
  Unit style    : metal
  Current step  : 480495
  Time step     : 0.001
Per MPI rank memory allocation (min/avg/max) = 11.29 | 11.29 | 11.3 Mbytes
Step Temp Press TotEng PotEng Enthalpy 
  480495    224.03214    137.36748    -121363.4   -121932.46   -121324.44 
  490000     200.0498    50.811398   -121494.55    -122002.7   -121480.15 
Loop time of 660.771 on 2 procs for 9505 steps with 19652 atoms

Performance: 1.243 ns/day, 19.311 hours/ns, 14.385 timesteps/s
98.4% CPU use with 2 MPI tasks x no OpenMP threads

MPI task timing breakdown:
Section |  min time  |  avg time  |  max time  |%varavg| %total
---------------------------------------------------------------
Pair    | 353.75     | 355        | 356.24     |   6.6 | 53.72
Neigh   | 258.52     | 258.57     | 258.61     |   0.3 | 39.13
Comm    | 30.246     | 34.14      | 38.033     |  66.6 |  5.17
Output  | 0.031766   | 0.031794   | 0.031823   |   0.0 |  0.00
Modify  | 8.2529     | 10.944     | 13.636     |  81.4 |  1.66
Other   |            | 2.093      |            |       |  0.32

Nlocal:    9826 ave 9832 max 9820 min
Histogram: 1 0 0 0 0 0 0 0 0 1
Nghost:    11307.5 ave 11321 max 11294 min
Histogram: 1 0 0 0 0 0 0 0 0 1
Neighs:    553996 ave 555387 max 552604 min
Histogram: 1 0 0 0 0 0 0 0 0 1

Total # of neighbors = 1107991
Ave neighs/atom = 56.3806
Neighbor list builds = 9505
Dangerous builds not checked
Setting up Verlet run ...
  Unit style    : metal
  Current step  : 490000
  Time step     : 0.001
Per MPI rank memory allocation (min/avg/max) = 11.29 | 11.29 | 11.3 Mbytes
Step Temp Press TotEng PotEng Enthalpy 
  490000     200.0498    50.811398   -121494.55    -122002.7   -121480.15 
  490495     176.1779   -89.681267   -121619.64   -122067.15   -121645.05 
Loop time of 32.4737 on 2 procs for 495 steps with 19652 atoms

Performance: 1.317 ns/day, 18.223 hours/ns, 15.243 timesteps/s
99.9% CPU use with 2 MPI tasks x no OpenMP threads

MPI task timing breakdown:
Section |  min time  |  avg time  |  max time  |%varavg| %total
---------------------------------------------------------------
Pair    | 17.312     | 17.477     | 17.641     |   3.9 | 53.82
Neigh   | 12.662     | 13.109     | 13.555     |  12.3 | 40.37
Comm    | 1.0891     | 1.3843     | 1.6796     |  25.1 |  4.26
Output  | 8.5831e-05 | 0.00012541 | 0.00016499 |   0.0 |  0.00
Modify  | 0.38804    | 0.39819    | 0.40835    |   1.6 |  1.23
Other   |            | 0.1055     |            |       |  0.32

Nlocal:    9826 ave 9838 max 9814 min
Histogram: 1 0 0 0 0 0 0 0 0 1
Nghost:    11317.5 ave 11336 max 11299 min
Histogram: 1 0 0 0 0 0 0 0 0 1
Neighs:    554135 ave 554302 max 553968 min
Histogram: 1 0 0 0 0 0 0 0 0 1

Total # of neighbors = 1108270
Ave neighs/atom = 56.3948
Neighbor list builds = 495
Dangerous builds not checked
Setting up Verlet run ...
  Unit style    : metal
  Current step  : 490495
  Time step     : 0.001
Per MPI rank memory allocation (min/avg/max) = 11.29 | 11.29 | 11.3 Mbytes
Step Temp Press TotEng PotEng Enthalpy 
  490495     176.1779   -89.681267   -121619.64   -122067.15   -121645.05 
  500000    150.42629   -247.88568   -121753.42   -122135.52   -121823.66 
Loop time of 650.203 on 2 procs for 9505 steps with 19652 atoms

Performance: 1.263 ns/day, 19.002 hours/ns, 14.619 timesteps/s
97.8% CPU use with 2 MPI tasks x no OpenMP threads

MPI task timing breakdown:
Section |  min time  |  avg time  |  max time  |%varavg| %total
---------------------------------------------------------------
Pair    | 346.33     | 346.92     | 347.52     |   3.2 | 53.36
Neigh   | 253.14     | 255.06     | 256.98     |  12.0 | 39.23
Comm    | 34.931     | 37.514     | 40.098     |  42.2 |  5.77
Output  | 0.79304    | 0.79306    | 0.79308    |   0.0 |  0.12
Modify  | 7.7986     | 7.8444     | 7.8902     |   1.6 |  1.21
Other   |            | 2.064      |            |       |  0.32

Nlocal:    9826 ave 9833 max 9819 min
Histogram: 1 0 0 0 0 0 0 0 0 1
Nghost:    11319.5 ave 11338 max 11301 min
Histogram: 1 0 0 0 0 0 0 0 0 1
Neighs:    554340 ave 554650 max 554030 min
Histogram: 1 0 0 0 0 0 0 0 0 1

Total # of neighbors = 1108680
Ave neighs/atom = 56.4156
Neighbor list builds = 9505
Dangerous builds not checked
Setting up Verlet run ...
  Unit style    : metal
  Current step  : 500000
  Time step     : 0.001
Per MPI rank memory allocation (min/avg/max) = 11.29 | 11.29 | 11.3 Mbytes
Step Temp Press TotEng PotEng Enthalpy 
  500000    150.42629   -247.88568   -121753.42   -122135.52   -121823.66 
  500495    127.47182    187.10541   -121871.29   -122195.08   -121818.33 
Loop time of 36.2556 on 2 procs for 495 steps with 19652 atoms

Performance: 1.180 ns/day, 20.345 hours/ns, 13.653 timesteps/s
95.7% CPU use with 2 MPI tasks x no OpenMP threads

MPI task timing breakdown:
Section |  min time  |  avg time  |  max time  |%varavg| %total
---------------------------------------------------------------
Pair    | 20.102     | 20.164     | 20.226     |   1.4 | 55.62
Neigh   | 13.569     | 13.683     | 13.797     |   3.1 | 37.74
Comm    | 1.8302     | 1.8839     | 1.9377     |   3.9 |  5.20
Output  | 8.6069e-05 | 0.00011945 | 0.00015283 |   0.0 |  0.00
Modify  | 0.41231    | 0.41317    | 0.41403    |   0.1 |  1.14
Other   |            | 0.1109     |            |       |  0.31

Nlocal:    9826 ave 9833 max 9819 min
Histogram: 1 0 0 0 0 0 0 0 0 1
Nghost:    11311.5 ave 11335 max 11288 min
Histogram: 1 0 0 0 0 0 0 0 0 1
Neighs:    554872 ave 555523 max 554220 min
Histogram: 1 0 0 0 0 0 0 0 0 1

Total # of neighbors = 1109743
Ave neighs/atom = 56.4697
Neighbor list builds = 495
Dangerous builds not checked
Setting up Verlet run ...
  Unit style    : metal
  Current step  : 500495
  Time step     : 0.001
Per MPI rank memory allocation (min/avg/max) = 11.29 | 11.29 | 11.3 Mbytes
Step Temp Press TotEng PotEng Enthalpy 
  500495    127.47182    187.10541   -121871.29   -122195.08   -121818.33 
  510000    100.70705   -414.63679   -122009.38   -122265.19   -122126.78 
Loop time of 676.496 on 2 procs for 9505 steps with 19652 atoms

Performance: 1.214 ns/day, 19.770 hours/ns, 14.050 timesteps/s
98.0% CPU use with 2 MPI tasks x no OpenMP threads

MPI task timing breakdown:
Section |  min time  |  avg time  |  max time  |%varavg| %total
---------------------------------------------------------------
Pair    | 363.03     | 364.94     | 366.85     |  10.0 | 53.95
Neigh   | 264.99     | 266.15     | 267.3      |   7.1 | 39.34
Comm    | 30.822     | 33.563     | 36.303     |  47.3 |  4.96
Output  | 0.036413   | 0.036439   | 0.036464   |   0.0 |  0.01
Modify  | 9.2562     | 9.5956     | 9.935      |  11.0 |  1.42
Other   |            | 2.212      |            |       |  0.33

Nlocal:    9826 ave 9841 max 9811 min
Histogram: 1 0 0 0 0 0 0 0 0 1
Nghost:    11311 ave 11336 max 11286 min
Histogram: 1 0 0 0 0 0 0 0 0 1
Neighs:    554661 ave 554858 max 554464 min
Histogram: 1 0 0 0 0 0 0 0 0 1

Total # of neighbors = 1109322
Ave neighs/atom = 56.4483
Neighbor list builds = 9505
Dangerous builds not checked
Total wall time: 11:10:37
