LAMMPS (12 Dec 2018)
Lattice spacing in x,y,z = 4 4 4
Created orthogonal box = (0 0 0) to (68 68 68)
  1 by 1 by 2 MPI processor grid
Created 19652 atoms
  Time spent = 0.00226307 secs
Setting atom values ...
  206 settings made for type/fraction
Neighbor list info ...
  update every 1 steps, delay 0 steps, check no
  max neighbors/atom: 2000, page size: 100000
  master list distance cutoff = 8.5
  ghost atom cutoff = 8.5
  binsize = 4.25, bins = 16 16 16
  1 neighbor lists, perpetual/occasional/extra = 1 0 0
  (1) pair eam/alloy, perpetual
      attributes: half, newton on
      pair build: half/bin/atomonly/newton
      stencil: half/bin/3d/newton
      bin: standard
Setting up Verlet run ...
  Unit style    : metal
  Current step  : 0
  Time step     : 0.001
Per MPI rank memory allocation (min/avg/max) = 11.15 | 11.15 | 11.15 Mbytes
Step Temp Press TotEng PotEng Enthalpy 
       0          300    1211511.3   -18369.104   -19131.132    219393.67 
    1000    156.34343    1214771.9   -18368.971   -18766.098     220033.7 
Loop time of 126.774 on 2 procs for 1000 steps with 19652 atoms

Performance: 0.682 ns/day, 35.215 hours/ns, 7.888 timesteps/s
96.1% CPU use with 2 MPI tasks x no OpenMP threads

MPI task timing breakdown:
Section |  min time  |  avg time  |  max time  |%varavg| %total
---------------------------------------------------------------
Pair    | 72.654     | 73.18      | 73.707     |   6.2 | 57.73
Neigh   | 44.055     | 44.569     | 45.083     |   7.7 | 35.16
Comm    | 6.9976     | 8.0966     | 9.1957     |  38.6 |  6.39
Output  | 0.00026703 | 0.00029945 | 0.00033188 |   0.0 |  0.00
Modify  | 0.44782    | 0.48142    | 0.51502    |   4.8 |  0.38
Other   |            | 0.4456     |            |       |  0.35

Nlocal:    9826 ave 9848 max 9804 min
Histogram: 1 0 0 0 0 0 0 0 0 1
Nghost:    14211 ave 14233 max 14189 min
Histogram: 1 0 0 0 0 0 0 0 0 1
Neighs:    796572 ave 798676 max 794468 min
Histogram: 1 0 0 0 0 0 0 0 0 1

Total # of neighbors = 1593144
Ave neighs/atom = 81.0678
Neighbor list builds = 1000
Dangerous builds not checked
Setting up Verlet run ...
  Unit style    : metal
  Current step  : 1000
  Time step     : 0.001
Per MPI rank memory allocation (min/avg/max) = 11.15 | 11.15 | 11.15 Mbytes
Step Temp Press TotEng PotEng Enthalpy 
    1000    156.34343    1214771.9   -18368.971   -18766.098     220033.7 
    2000    174.82866    1498.4837   -86372.827   -86816.908   -85686.157 
Loop time of 99.9028 on 2 procs for 1000 steps with 19652 atoms

Performance: 0.865 ns/day, 27.751 hours/ns, 10.010 timesteps/s
91.8% CPU use with 2 MPI tasks x no OpenMP threads

MPI task timing breakdown:
Section |  min time  |  avg time  |  max time  |%varavg| %total
---------------------------------------------------------------
Pair    | 54.307     | 54.43      | 54.552     |   1.7 | 54.48
Neigh   | 35.005     | 35.102     | 35.199     |   1.6 | 35.14
Comm    | 8.085      | 8.1233     | 8.1616     |   1.3 |  8.13
Output  | 9.2983e-05 | 0.00014198 | 0.00019097 |   0.0 |  0.00
Modify  | 1.7982     | 1.8076     | 1.8169     |   0.7 |  1.81
Other   |            | 0.4399     |            |       |  0.44

Nlocal:    9826 ave 9866 max 9786 min
Histogram: 1 0 0 0 0 0 0 0 0 1
Nghost:    10345.5 ave 10386 max 10305 min
Histogram: 1 0 0 0 0 0 0 0 0 1
Neighs:    352698 ave 353038 max 352359 min
Histogram: 1 0 0 0 0 0 0 0 0 1

Total # of neighbors = 705397
Ave neighs/atom = 35.8944
Neighbor list builds = 1000
Dangerous builds not checked
Setting up Verlet run ...
  Unit style    : metal
  Current step  : 2000
  Time step     : 0.001
Per MPI rank memory allocation (min/avg/max) = 11.17 | 11.17 | 11.17 Mbytes
Step Temp Press TotEng PotEng Enthalpy 
    2000    174.82866    1498.4837   -86372.827   -86816.908   -85686.157 
   10000    2469.0157     18.46078   -73863.003   -80134.528   -73853.388 
Loop time of 621.43 on 2 procs for 8000 steps with 19652 atoms

Performance: 1.112 ns/day, 21.577 hours/ns, 12.874 timesteps/s
93.5% CPU use with 2 MPI tasks x no OpenMP threads

MPI task timing breakdown:
Section |  min time  |  avg time  |  max time  |%varavg| %total
---------------------------------------------------------------
Pair    | 324.77     | 327.49     | 330.21     |  15.0 | 52.70
Neigh   | 231.27     | 232.6      | 233.93     |   8.7 | 37.43
Comm    | 43.704     | 45.147     | 46.591     |  21.5 |  7.27
Output  | 0.04491    | 0.044977   | 0.045043   |   0.0 |  0.01
Modify  | 12.753     | 12.813     | 12.873     |   1.7 |  2.06
Other   |            | 3.335      |            |       |  0.54

Nlocal:    9826 ave 9848 max 9804 min
Histogram: 1 0 0 0 0 0 0 0 0 1
Nghost:    8837 ave 8839 max 8835 min
Histogram: 1 0 0 0 0 0 0 0 0 1
Neighs:    293833 ave 294832 max 292834 min
Histogram: 1 0 0 0 0 0 0 0 0 1

Total # of neighbors = 587666
Ave neighs/atom = 29.9036
Neighbor list builds = 8000
Dangerous builds not checked
Setting up Verlet run ...
  Unit style    : metal
  Current step  : 10000
  Time step     : 0.001
Per MPI rank memory allocation (min/avg/max) = 11.21 | 11.21 | 11.21 Mbytes
Step Temp Press TotEng PotEng Enthalpy 
   10000    2469.0157     18.46078   -73863.003   -80134.528   -73853.388 
   20000    2441.8706   -302.52828   -73890.034   -80092.607   -74047.882 
   30000    2423.4113   -760.27795   -73868.759   -80024.445   -74266.431 
   40000    2462.4111     86.84871   -73805.616   -80060.364   -73760.299 
Loop time of 2275.26 on 2 procs for 30000 steps with 19652 atoms

Performance: 1.139 ns/day, 21.067 hours/ns, 13.185 timesteps/s
93.4% CPU use with 2 MPI tasks x no OpenMP threads

MPI task timing breakdown:
Section |  min time  |  avg time  |  max time  |%varavg| %total
---------------------------------------------------------------
Pair    | 1200.7     | 1203.9     | 1207       |   9.0 | 52.91
Neigh   | 847.57     | 849.48     | 851.4      |   6.6 | 37.34
Comm    | 157.7      | 162.99     | 168.28     |  41.4 |  7.16
Output  | 0.23175    | 0.23187    | 0.232      |   0.0 |  0.01
Modify  | 46.354     | 46.615     | 46.876     |   3.8 |  2.05
Other   |            | 12.08      |            |       |  0.53

Nlocal:    9826 ave 9841 max 9811 min
Histogram: 1 0 0 0 0 0 0 0 0 1
Nghost:    8799 ave 8847 max 8751 min
Histogram: 1 0 0 0 0 0 0 0 0 1
Neighs:    293142 ave 293212 max 293071 min
Histogram: 1 0 0 0 0 0 0 0 0 1

Total # of neighbors = 586283
Ave neighs/atom = 29.8332
Neighbor list builds = 30000
Dangerous builds not checked
Setting up Verlet run ...
  Unit style    : metal
  Current step  : 40000
  Time step     : 0.001
Per MPI rank memory allocation (min/avg/max) = 11.26 | 11.26 | 11.26 Mbytes
Step Temp Press TotEng PotEng Enthalpy 
   40000    2462.4111     86.84871   -73805.616   -80060.364   -73760.299 
   40495     2405.382     463.1857   -74029.452   -80139.341   -73788.572 
Loop time of 33.3455 on 2 procs for 495 steps with 19652 atoms

Performance: 1.283 ns/day, 18.712 hours/ns, 14.845 timesteps/s
96.4% CPU use with 2 MPI tasks x no OpenMP threads

MPI task timing breakdown:
Section |  min time  |  avg time  |  max time  |%varavg| %total
---------------------------------------------------------------
Pair    | 16.481     | 16.749     | 17.018     |   6.6 | 50.23
Neigh   | 12.775     | 12.855     | 12.934     |   2.2 | 38.55
Comm    | 2.6643     | 2.8518     | 3.0393     |  11.1 |  8.55
Output  | 0.00010395 | 0.00014293 | 0.00018191 |   0.0 |  0.00
Modify  | 0.69858    | 0.70065    | 0.70271    |   0.2 |  2.10
Other   |            | 0.1889     |            |       |  0.57

Nlocal:    9826 ave 9833 max 9819 min
Histogram: 1 0 0 0 0 0 0 0 0 1
Nghost:    8821 ave 8832 max 8810 min
Histogram: 1 0 0 0 0 0 0 0 0 1
Neighs:    294124 ave 294514 max 293733 min
Histogram: 1 0 0 0 0 0 0 0 0 1

Total # of neighbors = 588247
Ave neighs/atom = 29.9332
Neighbor list builds = 495
Dangerous builds not checked
Setting up Verlet run ...
  Unit style    : metal
  Current step  : 40495
  Time step     : 0.001
Per MPI rank memory allocation (min/avg/max) = 11.26 | 11.26 | 11.26 Mbytes
Step Temp Press TotEng PotEng Enthalpy 
   40495     2405.382     463.1857   -74029.452   -80139.341   -73788.572 
   50000    2398.2118     506.6382   -74026.846   -80118.522   -73763.518 
Loop time of 676.474 on 2 procs for 9505 steps with 19652 atoms

Performance: 1.214 ns/day, 19.770 hours/ns, 14.051 timesteps/s
94.4% CPU use with 2 MPI tasks x no OpenMP threads

MPI task timing breakdown:
Section |  min time  |  avg time  |  max time  |%varavg| %total
---------------------------------------------------------------
Pair    | 351.56     | 352.38     | 353.2      |   4.4 | 52.09
Neigh   | 257.95     | 259.15     | 260.34     |   7.4 | 38.31
Comm    | 47.18      | 47.564     | 47.948     |   5.6 |  7.03
Output  | 0.043849   | 0.0439     | 0.04395    |   0.0 |  0.01
Modify  | 13.663     | 13.677     | 13.691     |   0.4 |  2.02
Other   |            | 3.66       |            |       |  0.54

Nlocal:    9826 ave 9844 max 9808 min
Histogram: 1 0 0 0 0 0 0 0 0 1
Nghost:    8860.5 ave 8868 max 8853 min
Histogram: 1 0 0 0 0 0 0 0 0 1
Neighs:    294204 ave 294994 max 293415 min
Histogram: 1 0 0 0 0 0 0 0 0 1

Total # of neighbors = 588409
Ave neighs/atom = 29.9414
Neighbor list builds = 9505
Dangerous builds not checked
Setting up Verlet run ...
  Unit style    : metal
  Current step  : 50000
  Time step     : 0.001
Per MPI rank memory allocation (min/avg/max) = 11.27 | 11.27 | 11.27 Mbytes
Step Temp Press TotEng PotEng Enthalpy 
   50000    2398.2118     506.6382   -74026.846   -80118.522   -73763.518 
   50495    2366.3619      377.379   -74280.794   -80291.569   -74085.172 
Loop time of 33.0251 on 2 procs for 495 steps with 19652 atoms

Performance: 1.295 ns/day, 18.533 hours/ns, 14.989 timesteps/s
97.1% CPU use with 2 MPI tasks x no OpenMP threads

MPI task timing breakdown:
Section |  min time  |  avg time  |  max time  |%varavg| %total
---------------------------------------------------------------
Pair    | 17.145     | 17.314     | 17.483     |   4.1 | 52.43
Neigh   | 12.601     | 12.615     | 12.63      |   0.4 | 38.20
Comm    | 2.014      | 2.1951     | 2.3763     |  12.2 |  6.65
Output  | 9.4891e-05 | 0.00020635 | 0.00031781 |   0.0 |  0.00
Modify  | 0.69772    | 0.70224    | 0.70675    |   0.5 |  2.13
Other   |            | 0.1982     |            |       |  0.60

Nlocal:    9826 ave 9851 max 9801 min
Histogram: 1 0 0 0 0 0 0 0 0 1
Nghost:    8837 ave 8840 max 8834 min
Histogram: 1 0 0 0 0 0 0 0 0 1
Neighs:    295228 ave 296489 max 293966 min
Histogram: 1 0 0 0 0 0 0 0 0 1

Total # of neighbors = 590455
Ave neighs/atom = 30.0455
Neighbor list builds = 495
Dangerous builds not checked
Setting up Verlet run ...
  Unit style    : metal
  Current step  : 50495
  Time step     : 0.001
Per MPI rank memory allocation (min/avg/max) = 11.27 | 11.27 | 11.27 Mbytes
Step Temp Press TotEng PotEng Enthalpy 
   50495    2366.3619      377.379   -74280.794   -80291.569   -74085.172 
   60000    2354.9426   -239.33381   -74301.124   -80282.893   -74425.441 
Loop time of 696.783 on 2 procs for 9505 steps with 19652 atoms

Performance: 1.179 ns/day, 20.363 hours/ns, 13.641 timesteps/s
93.4% CPU use with 2 MPI tasks x no OpenMP threads

MPI task timing breakdown:
Section |  min time  |  avg time  |  max time  |%varavg| %total
---------------------------------------------------------------
Pair    | 362.92     | 363.83     | 364.74     |   4.8 | 52.22
Neigh   | 262.38     | 263.49     | 264.61     |   6.9 | 37.82
Comm    | 51.145     | 51.362     | 51.58      |   3.0 |  7.37
Output  | 0.043453   | 0.04353    | 0.043608   |   0.0 |  0.01
Modify  | 14.372     | 14.375     | 14.377     |   0.1 |  2.06
Other   |            | 3.678      |            |       |  0.53

Nlocal:    9826 ave 9846 max 9806 min
Histogram: 1 0 0 0 0 0 0 0 0 1
Nghost:    8782.5 ave 8796 max 8769 min
Histogram: 1 0 0 0 0 0 0 0 0 1
Neighs:    294578 ave 295556 max 293599 min
Histogram: 1 0 0 0 0 0 0 0 0 1

Total # of neighbors = 589155
Ave neighs/atom = 29.9794
Neighbor list builds = 9505
Dangerous builds not checked
Setting up Verlet run ...
  Unit style    : metal
  Current step  : 60000
  Time step     : 0.001
Per MPI rank memory allocation (min/avg/max) = 11.27 | 11.27 | 11.28 Mbytes
Step Temp Press TotEng PotEng Enthalpy 
   60000    2354.9426   -239.33381   -74301.124   -80282.893   -74425.441 
   60495    2308.1569   -197.63199   -74477.896   -80340.824    -74580.48 
Loop time of 32.5152 on 2 procs for 495 steps with 19652 atoms

Performance: 1.315 ns/day, 18.246 hours/ns, 15.224 timesteps/s
95.6% CPU use with 2 MPI tasks x no OpenMP threads

MPI task timing breakdown:
Section |  min time  |  avg time  |  max time  |%varavg| %total
---------------------------------------------------------------
Pair    | 17.042     | 17.151     | 17.259     |   2.6 | 52.75
Neigh   | 12.622     | 12.852     | 13.083     |   6.4 | 39.53
Comm    | 1.4788     | 1.6123     | 1.7458     |  10.5 |  4.96
Output  | 9.1076e-05 | 0.00019956 | 0.00030804 |   0.0 |  0.00
Modify  | 0.69873    | 0.70908    | 0.71943    |   1.2 |  2.18
Other   |            | 0.1906     |            |       |  0.59

Nlocal:    9826 ave 9833 max 9819 min
Histogram: 1 0 0 0 0 0 0 0 0 1
Nghost:    8801 ave 8808 max 8794 min
Histogram: 1 0 0 0 0 0 0 0 0 1
Neighs:    294658 ave 295546 max 293771 min
Histogram: 1 0 0 0 0 0 0 0 0 1

Total # of neighbors = 589317
Ave neighs/atom = 29.9876
Neighbor list builds = 495
Dangerous builds not checked
Setting up Verlet run ...
  Unit style    : metal
  Current step  : 60495
  Time step     : 0.001
Per MPI rank memory allocation (min/avg/max) = 11.27 | 11.27 | 11.28 Mbytes
Step Temp Press TotEng PotEng Enthalpy 
   60495    2308.1569   -197.63199   -74477.896   -80340.824    -74580.48 
   70000    2302.5397   -394.36714   -74501.293   -80349.954   -74705.991 
Loop time of 693.066 on 2 procs for 9505 steps with 19652 atoms

Performance: 1.185 ns/day, 20.254 hours/ns, 13.714 timesteps/s
93.4% CPU use with 2 MPI tasks x no OpenMP threads

MPI task timing breakdown:
Section |  min time  |  avg time  |  max time  |%varavg| %total
---------------------------------------------------------------
Pair    | 359.83     | 362.03     | 364.23     |  11.6 | 52.24
Neigh   | 260.89     | 261.69     | 262.49     |   5.0 | 37.76
Comm    | 50.117     | 51.531     | 52.945     |  19.7 |  7.44
Output  | 0.044501   | 0.044656   | 0.044811   |   0.1 |  0.01
Modify  | 14.047     | 14.076     | 14.106     |   0.8 |  2.03
Other   |            | 3.69       |            |       |  0.53

Nlocal:    9826 ave 9834 max 9818 min
Histogram: 1 0 0 0 0 0 0 0 0 1
Nghost:    8801 ave 8818 max 8784 min
Histogram: 1 0 0 0 0 0 0 0 0 1
Neighs:    294725 ave 294998 max 294452 min
Histogram: 1 0 0 0 0 0 0 0 0 1

Total # of neighbors = 589450
Ave neighs/atom = 29.9944
Neighbor list builds = 9505
Dangerous builds not checked
Setting up Verlet run ...
  Unit style    : metal
  Current step  : 70000
  Time step     : 0.001
Per MPI rank memory allocation (min/avg/max) = 11.28 | 11.28 | 11.28 Mbytes
Step Temp Press TotEng PotEng Enthalpy 
   70000    2302.5397   -394.36714   -74501.293   -80349.954   -74705.991 
   70495    2227.6754   -100.19282   -74741.907   -80400.406   -74793.774 
Loop time of 34.6817 on 2 procs for 495 steps with 19652 atoms

Performance: 1.233 ns/day, 19.462 hours/ns, 14.273 timesteps/s
95.2% CPU use with 2 MPI tasks x no OpenMP threads

MPI task timing breakdown:
Section |  min time  |  avg time  |  max time  |%varavg| %total
---------------------------------------------------------------
Pair    | 18.079     | 18.381     | 18.682     |   7.0 | 53.00
Neigh   | 12.989     | 13.116     | 13.244     |   3.5 | 37.82
Comm    | 1.7928     | 2.2568     | 2.7209     |  30.9 |  6.51
Output  | 0.00093198 | 0.00096202 | 0.00099206 |   0.0 |  0.00
Modify  | 0.6902     | 0.72198    | 0.75376    |   3.7 |  2.08
Other   |            | 0.2051     |            |       |  0.59

Nlocal:    9826 ave 9833 max 9819 min
Histogram: 1 0 0 0 0 0 0 0 0 1
Nghost:    8846 ave 8849 max 8843 min
Histogram: 1 0 0 0 0 0 0 0 0 1
Neighs:    295552 ave 295877 max 295226 min
Histogram: 1 0 0 0 0 0 0 0 0 1

Total # of neighbors = 591103
Ave neighs/atom = 30.0785
Neighbor list builds = 495
Dangerous builds not checked
Setting up Verlet run ...
  Unit style    : metal
  Current step  : 70495
  Time step     : 0.001
Per MPI rank memory allocation (min/avg/max) = 11.28 | 11.28 | 11.28 Mbytes
Step Temp Press TotEng PotEng Enthalpy 
   70495    2227.6754   -100.19282   -74741.907   -80400.406   -74793.774 
   80000    2240.2934   -480.74377   -74777.729   -80468.278   -75026.747 
Loop time of 672.772 on 2 procs for 9505 steps with 19652 atoms

Performance: 1.221 ns/day, 19.661 hours/ns, 14.128 timesteps/s
94.9% CPU use with 2 MPI tasks x no OpenMP threads

MPI task timing breakdown:
Section |  min time  |  avg time  |  max time  |%varavg| %total
---------------------------------------------------------------
Pair    | 348.98     | 350.41     | 351.83     |   7.6 | 52.08
Neigh   | 257.87     | 259.33     | 260.79     |   9.1 | 38.55
Comm    | 42.521     | 45.484     | 48.447     |  43.9 |  6.76
Output  | 0.090896   | 0.090934   | 0.090972   |   0.0 |  0.01
Modify  | 13.767     | 13.854     | 13.94      |   2.3 |  2.06
Other   |            | 3.608      |            |       |  0.54

Nlocal:    9826 ave 9849 max 9803 min
Histogram: 1 0 0 0 0 0 0 0 0 1
Nghost:    8829 ave 8846 max 8812 min
Histogram: 1 0 0 0 0 0 0 0 0 1
Neighs:    295262 ave 296613 max 293911 min
Histogram: 1 0 0 0 0 0 0 0 0 1

Total # of neighbors = 590524
Ave neighs/atom = 30.0491
Neighbor list builds = 9505
Dangerous builds not checked
Setting up Verlet run ...
  Unit style    : metal
  Current step  : 80000
  Time step     : 0.001
Per MPI rank memory allocation (min/avg/max) = 11.29 | 11.29 | 11.29 Mbytes
Step Temp Press TotEng PotEng Enthalpy 
   80000    2240.2934   -480.74377   -74777.729   -80468.278   -75026.747 
   80495    2216.6566   -124.67919   -74964.172   -80594.682   -75028.518 
Loop time of 33.4617 on 2 procs for 495 steps with 19652 atoms

Performance: 1.278 ns/day, 18.778 hours/ns, 14.793 timesteps/s
96.5% CPU use with 2 MPI tasks x no OpenMP threads

MPI task timing breakdown:
Section |  min time  |  avg time  |  max time  |%varavg| %total
---------------------------------------------------------------
Pair    | 17.247     | 17.26      | 17.272     |   0.3 | 51.58
Neigh   | 12.841     | 12.999     | 13.157     |   4.4 | 38.85
Comm    | 2.1399     | 2.2859     | 2.4319     |   9.7 |  6.83
Output  | 0.00033188 | 0.00051045 | 0.00068903 |   0.0 |  0.00
Modify  | 0.72054    | 0.72121    | 0.72188    |   0.1 |  2.16
Other   |            | 0.1955     |            |       |  0.58

Nlocal:    9826 ave 9851 max 9801 min
Histogram: 1 0 0 0 0 0 0 0 0 1
Nghost:    8843 ave 8853 max 8833 min
Histogram: 1 0 0 0 0 0 0 0 0 1
Neighs:    296472 ave 297968 max 294975 min
Histogram: 1 0 0 0 0 0 0 0 0 1

Total # of neighbors = 592943
Ave neighs/atom = 30.1721
Neighbor list builds = 495
Dangerous builds not checked
Setting up Verlet run ...
  Unit style    : metal
  Current step  : 80495
  Time step     : 0.001
Per MPI rank memory allocation (min/avg/max) = 11.29 | 11.29 | 11.29 Mbytes
Step Temp Press TotEng PotEng Enthalpy 
   80495    2216.6566   -124.67919   -74964.172   -80594.682   -75028.518 
   90000    2174.8121   -104.11639   -75135.778   -80659.999   -75189.429 
Loop time of 683.925 on 2 procs for 9505 steps with 19652 atoms

Performance: 1.201 ns/day, 19.987 hours/ns, 13.898 timesteps/s
94.3% CPU use with 2 MPI tasks x no OpenMP threads

MPI task timing breakdown:
Section |  min time  |  avg time  |  max time  |%varavg| %total
---------------------------------------------------------------
Pair    | 355.51     | 357.2      | 358.89     |   9.0 | 52.23
Neigh   | 258.81     | 259.45     | 260.09     |   4.0 | 37.94
Comm    | 46.274     | 48.696     | 51.119     |  34.7 |  7.12
Output  | 0.14327    | 0.14986    | 0.15645    |   1.7 |  0.02
Modify  | 14.651     | 14.682     | 14.712     |   0.8 |  2.15
Other   |            | 3.746      |            |       |  0.55

Nlocal:    9826 ave 9843 max 9809 min
Histogram: 1 0 0 0 0 0 0 0 0 1
Nghost:    8843.5 ave 8875 max 8812 min
Histogram: 1 0 0 0 0 0 0 0 0 1
Neighs:    296863 ave 297876 max 295850 min
Histogram: 1 0 0 0 0 0 0 0 0 1

Total # of neighbors = 593726
Ave neighs/atom = 30.212
Neighbor list builds = 9505
Dangerous builds not checked
Setting up Verlet run ...
  Unit style    : metal
  Current step  : 90000
  Time step     : 0.001
Per MPI rank memory allocation (min/avg/max) = 11.29 | 11.29 | 11.29 Mbytes
Step Temp Press TotEng PotEng Enthalpy 
   90000    2174.8121   -104.11639   -75135.778   -80659.999   -75189.429 
   90495    2159.6273   -69.289252   -75189.913   -80675.563   -75225.601 
Loop time of 33.49 on 2 procs for 495 steps with 19652 atoms

Performance: 1.277 ns/day, 18.793 hours/ns, 14.781 timesteps/s
96.5% CPU use with 2 MPI tasks x no OpenMP threads

MPI task timing breakdown:
Section |  min time  |  avg time  |  max time  |%varavg| %total
---------------------------------------------------------------
Pair    | 16.387     | 17.339     | 18.291     |  22.9 | 51.77
Neigh   | 12.484     | 12.524     | 12.563     |   1.1 | 37.40
Comm    | 1.718      | 2.7394     | 3.7608     |  61.7 |  8.18
Output  | 0.00011301 | 0.00017309 | 0.00023317 |   0.0 |  0.00
Modify  | 0.67228    | 0.69579    | 0.7193     |   2.8 |  2.08
Other   |            | 0.1917     |            |       |  0.57

Nlocal:    9826 ave 9848 max 9804 min
Histogram: 1 0 0 0 0 0 0 0 0 1
Nghost:    8835.5 ave 8854 max 8817 min
Histogram: 1 0 0 0 0 0 0 0 0 1
Neighs:    296996 ave 298316 max 295675 min
Histogram: 1 0 0 0 0 0 0 0 0 1

Total # of neighbors = 593991
Ave neighs/atom = 30.2255
Neighbor list builds = 495
Dangerous builds not checked
Setting up Verlet run ...
  Unit style    : metal
  Current step  : 90495
  Time step     : 0.001
Per MPI rank memory allocation (min/avg/max) = 11.29 | 11.29 | 11.29 Mbytes
Step Temp Press TotEng PotEng Enthalpy 
   90495    2159.6273   -69.289252   -75189.913   -80675.563   -75225.601 
  100000    2132.9056   -266.49948   -75306.262   -80724.037   -75443.475 
Loop time of 675.303 on 2 procs for 9505 steps with 19652 atoms

Performance: 1.216 ns/day, 19.735 hours/ns, 14.075 timesteps/s
94.2% CPU use with 2 MPI tasks x no OpenMP threads

MPI task timing breakdown:
Section |  min time  |  avg time  |  max time  |%varavg| %total
---------------------------------------------------------------
Pair    | 351.78     | 353.93     | 356.08     |  11.4 | 52.41
Neigh   | 256.25     | 256.26     | 256.27     |   0.1 | 37.95
Comm    | 45.264     | 47.383     | 49.502     |  30.8 |  7.02
Output  | 0.060882   | 0.060908   | 0.060935   |   0.0 |  0.01
Modify  | 13.973     | 13.978     | 13.982     |   0.1 |  2.07
Other   |            | 3.694      |            |       |  0.55

Nlocal:    9826 ave 9828 max 9824 min
Histogram: 1 0 0 0 0 0 0 0 0 1
Nghost:    8874.5 ave 8895 max 8854 min
Histogram: 1 0 0 0 0 0 0 0 0 1
Neighs:    297156 ave 297270 max 297041 min
Histogram: 1 0 0 0 0 0 0 0 0 1

Total # of neighbors = 594311
Ave neighs/atom = 30.2418
Neighbor list builds = 9505
Dangerous builds not checked
Setting up Verlet run ...
  Unit style    : metal
  Current step  : 100000
  Time step     : 0.001
Per MPI rank memory allocation (min/avg/max) = 11.3 | 11.3 | 11.3 Mbytes
Step Temp Press TotEng PotEng Enthalpy 
  100000    2132.9056   -266.49948   -75306.262   -80724.037   -75443.475 
  100495    2096.2546   -228.18308   -75457.417   -80782.095   -75574.693 
Loop time of 31.5701 on 2 procs for 495 steps with 19652 atoms

Performance: 1.355 ns/day, 17.716 hours/ns, 15.679 timesteps/s
98.4% CPU use with 2 MPI tasks x no OpenMP threads

MPI task timing breakdown:
Section |  min time  |  avg time  |  max time  |%varavg| %total
---------------------------------------------------------------
Pair    | 16.354     | 16.475     | 16.596     |   3.0 | 52.19
Neigh   | 12.889     | 12.989     | 13.089     |   2.8 | 41.14
Comm    | 1.016      | 1.2485     | 1.4811     |  20.8 |  3.95
Output  | 0.0010002  | 0.0011195  | 0.0012388  |   0.4 |  0.00
Modify  | 0.65153    | 0.66118    | 0.67082    |   1.2 |  2.09
Other   |            | 0.1945     |            |       |  0.62

Nlocal:    9826 ave 9840 max 9812 min
Histogram: 1 0 0 0 0 0 0 0 0 1
Nghost:    8894 ave 8909 max 8879 min
Histogram: 1 0 0 0 0 0 0 0 0 1
Neighs:    297588 ave 298251 max 296926 min
Histogram: 1 0 0 0 0 0 0 0 0 1

Total # of neighbors = 595177
Ave neighs/atom = 30.2858
Neighbor list builds = 495
Dangerous builds not checked
Setting up Verlet run ...
  Unit style    : metal
  Current step  : 100495
  Time step     : 0.001
Per MPI rank memory allocation (min/avg/max) = 11.3 | 11.3 | 11.3 Mbytes
Step Temp Press TotEng PotEng Enthalpy 
  100495    2096.2546   -228.18308   -75457.417   -80782.095   -75574.693 
  110000    2105.0075    462.48868   -75477.621   -80824.532   -75240.563 
Loop time of 684.571 on 2 procs for 9505 steps with 19652 atoms

Performance: 1.200 ns/day, 20.006 hours/ns, 13.885 timesteps/s
94.3% CPU use with 2 MPI tasks x no OpenMP threads

MPI task timing breakdown:
Section |  min time  |  avg time  |  max time  |%varavg| %total
---------------------------------------------------------------
Pair    | 357.67     | 359.71     | 361.75     |  10.8 | 52.54
Neigh   | 257.69     | 258.51     | 259.33     |   5.1 | 37.76
Comm    | 45.523     | 48.47      | 51.417     |  42.3 |  7.08
Output  | 0.069616   | 0.069639   | 0.069662   |   0.0 |  0.01
Modify  | 14.065     | 14.142     | 14.218     |   2.0 |  2.07
Other   |            | 3.669      |            |       |  0.54

Nlocal:    9826 ave 9840 max 9812 min
Histogram: 1 0 0 0 0 0 0 0 0 1
Nghost:    8868 ave 8884 max 8852 min
Histogram: 1 0 0 0 0 0 0 0 0 1
Neighs:    298300 ave 299077 max 297524 min
Histogram: 1 0 0 0 0 0 0 0 0 1

Total # of neighbors = 596601
Ave neighs/atom = 30.3583
Neighbor list builds = 9505
Dangerous builds not checked
Setting up Verlet run ...
  Unit style    : metal
  Current step  : 110000
  Time step     : 0.001
Per MPI rank memory allocation (min/avg/max) = 11.31 | 11.31 | 11.31 Mbytes
Step Temp Press TotEng PotEng Enthalpy 
  110000    2105.0075    462.48868   -75477.621   -80824.532   -75240.563 
  110495    2058.2182    394.62309   -75673.135   -80901.197   -75471.152 
Loop time of 33.3647 on 2 procs for 495 steps with 19652 atoms

Performance: 1.282 ns/day, 18.723 hours/ns, 14.836 timesteps/s
94.7% CPU use with 2 MPI tasks x no OpenMP threads

MPI task timing breakdown:
Section |  min time  |  avg time  |  max time  |%varavg| %total
---------------------------------------------------------------
Pair    | 17.172     | 17.177     | 17.183     |   0.1 | 51.48
Neigh   | 12.735     | 12.907     | 13.079     |   4.8 | 38.68
Comm    | 2.184      | 2.3435     | 2.503      |  10.4 |  7.02
Output  | 8.7023e-05 | 0.000126   | 0.00016499 |   0.0 |  0.00
Modify  | 0.74653    | 0.75304    | 0.75955    |   0.7 |  2.26
Other   |            | 0.1841     |            |       |  0.55

Nlocal:    9826 ave 9828 max 9824 min
Histogram: 1 0 0 0 0 0 0 0 0 1
Nghost:    8881.5 ave 8883 max 8880 min
Histogram: 1 0 0 0 0 0 0 0 0 1
Neighs:    298905 ave 299047 max 298763 min
Histogram: 1 0 0 0 0 0 0 0 0 1

Total # of neighbors = 597810
Ave neighs/atom = 30.4198
Neighbor list builds = 495
Dangerous builds not checked
Setting up Verlet run ...
  Unit style    : metal
  Current step  : 110495
  Time step     : 0.001
Per MPI rank memory allocation (min/avg/max) = 11.31 | 11.31 | 11.31 Mbytes
Step Temp Press TotEng PotEng Enthalpy 
  110495    2058.2182    394.62309   -75673.135   -80901.197   -75471.152 
  120000      2061.94   -146.78264   -75759.657   -80997.173   -75834.824 
Loop time of 674.87 on 2 procs for 9505 steps with 19652 atoms

Performance: 1.217 ns/day, 19.723 hours/ns, 14.084 timesteps/s
94.8% CPU use with 2 MPI tasks x no OpenMP threads

MPI task timing breakdown:
Section |  min time  |  avg time  |  max time  |%varavg| %total
---------------------------------------------------------------
Pair    | 354.33     | 355.65     | 356.96     |   7.0 | 52.70
Neigh   | 258.15     | 258.81     | 259.47     |   4.1 | 38.35
Comm    | 40.758     | 42.841     | 44.924     |  31.8 |  6.35
Output  | 0.046505   | 0.046544   | 0.046583   |   0.0 |  0.01
Modify  | 13.71      | 13.832     | 13.953     |   3.3 |  2.05
Other   |            | 3.695      |            |       |  0.55

Nlocal:    9826 ave 9827 max 9825 min
Histogram: 1 0 0 0 0 0 0 0 0 1
Nghost:    8862.5 ave 8870 max 8855 min
Histogram: 1 0 0 0 0 0 0 0 0 1
Neighs:    298822 ave 298943 max 298702 min
Histogram: 1 0 0 0 0 0 0 0 0 1

Total # of neighbors = 597645
Ave neighs/atom = 30.4114
Neighbor list builds = 9505
Dangerous builds not checked
Setting up Verlet run ...
  Unit style    : metal
  Current step  : 120000
  Time step     : 0.001
Per MPI rank memory allocation (min/avg/max) = 11.31 | 11.31 | 11.31 Mbytes
Step Temp Press TotEng PotEng Enthalpy 
  120000      2061.94   -146.78264   -75759.657   -80997.173   -75834.824 
  120495    2004.8538    26.951959    -75958.61   -81051.121   -75944.839 
Loop time of 34.102 on 2 procs for 495 steps with 19652 atoms

Performance: 1.254 ns/day, 19.137 hours/ns, 14.515 timesteps/s
95.1% CPU use with 2 MPI tasks x no OpenMP threads

MPI task timing breakdown:
Section |  min time  |  avg time  |  max time  |%varavg| %total
---------------------------------------------------------------
Pair    | 17.641     | 17.731     | 17.821     |   2.1 | 51.99
Neigh   | 12.926     | 12.969     | 13.011     |   1.2 | 38.03
Comm    | 2.4133     | 2.4906     | 2.5679     |   4.9 |  7.30
Output  | 0.00095105 | 0.0010611  | 0.0011711  |   0.3 |  0.00
Modify  | 0.70157    | 0.72312    | 0.74468    |   2.5 |  2.12
Other   |            | 0.1875     |            |       |  0.55

Nlocal:    9826 ave 9836 max 9816 min
Histogram: 1 0 0 0 0 0 0 0 0 1
Nghost:    8870.5 ave 8874 max 8867 min
Histogram: 1 0 0 0 0 0 0 0 0 1
Neighs:    299655 ave 299800 max 299510 min
Histogram: 1 0 0 0 0 0 0 0 0 1

Total # of neighbors = 599310
Ave neighs/atom = 30.4961
Neighbor list builds = 495
Dangerous builds not checked
Setting up Verlet run ...
  Unit style    : metal
  Current step  : 120495
  Time step     : 0.001
Per MPI rank memory allocation (min/avg/max) = 11.31 | 11.31 | 11.31 Mbytes
Step Temp Press TotEng PotEng Enthalpy 
  120495    2004.8538    26.951959    -75958.61   -81051.121   -75944.839 
  130000    2026.7859    386.27548   -75937.482   -81085.703   -75740.463 
Loop time of 677.492 on 2 procs for 9505 steps with 19652 atoms

Performance: 1.212 ns/day, 19.799 hours/ns, 14.030 timesteps/s
93.9% CPU use with 2 MPI tasks x no OpenMP threads

MPI task timing breakdown:
Section |  min time  |  avg time  |  max time  |%varavg| %total
---------------------------------------------------------------
Pair    | 355.05     | 356.43     | 357.81     |   7.3 | 52.61
Neigh   | 257.8      | 258.38     | 258.96     |   3.6 | 38.14
Comm    | 43.926     | 44.631     | 45.335     |  10.5 |  6.59
Output  | 0.04506    | 0.04531    | 0.045561   |   0.1 |  0.01
Modify  | 14.3       | 14.319     | 14.338     |   0.5 |  2.11
Other   |            | 3.688      |            |       |  0.54

Nlocal:    9826 ave 9844 max 9808 min
Histogram: 1 0 0 0 0 0 0 0 0 1
Nghost:    8876 ave 8899 max 8853 min
Histogram: 1 0 0 0 0 0 0 0 0 1
Neighs:    299886 ave 303148 max 296623 min
Histogram: 1 0 0 0 0 0 0 0 0 1

Total # of neighbors = 599771
Ave neighs/atom = 30.5196
Neighbor list builds = 9505
Dangerous builds not checked
Setting up Verlet run ...
  Unit style    : metal
  Current step  : 130000
  Time step     : 0.001
Per MPI rank memory allocation (min/avg/max) = 11.32 | 11.32 | 11.32 Mbytes
Step Temp Press TotEng PotEng Enthalpy 
  130000    2026.7859    386.27548   -75937.482   -81085.703   -75740.463 
  130495    1953.4863     233.5601    -76149.49   -81111.523   -76030.345 
Loop time of 35.5849 on 2 procs for 495 steps with 19652 atoms

Performance: 1.202 ns/day, 19.969 hours/ns, 13.910 timesteps/s
94.7% CPU use with 2 MPI tasks x no OpenMP threads

MPI task timing breakdown:
Section |  min time  |  avg time  |  max time  |%varavg| %total
---------------------------------------------------------------
Pair    | 18.296     | 18.378     | 18.459     |   1.9 | 51.65
Neigh   | 12.946     | 13.221     | 13.496     |   7.6 | 37.15
Comm    | 2.7484     | 2.9719     | 3.1953     |  13.0 |  8.35
Output  | 0.00026417 | 0.00076103 | 0.0012579  |   0.0 |  0.00
Modify  | 0.80172    | 0.82633    | 0.85094    |   2.7 |  2.32
Other   |            | 0.1872     |            |       |  0.53

Nlocal:    9826 ave 9851 max 9801 min
Histogram: 1 0 0 0 0 0 0 0 0 1
Nghost:    8901.5 ave 8925 max 8878 min
Histogram: 1 0 0 0 0 0 0 0 0 1
Neighs:    299854 ave 303003 max 296705 min
Histogram: 1 0 0 0 0 0 0 0 0 1

Total # of neighbors = 599708
Ave neighs/atom = 30.5164
Neighbor list builds = 495
Dangerous builds not checked
Setting up Verlet run ...
  Unit style    : metal
  Current step  : 130495
  Time step     : 0.001
Per MPI rank memory allocation (min/avg/max) = 11.32 | 11.32 | 11.32 Mbytes
Step Temp Press TotEng PotEng Enthalpy 
  130495    1953.4863     233.5601    -76149.49   -81111.523   -76030.345 
  140000    1951.9725    213.87907   -76197.881   -81156.068   -76088.911 
Loop time of 703.91 on 2 procs for 9505 steps with 19652 atoms

Performance: 1.167 ns/day, 20.571 hours/ns, 13.503 timesteps/s
94.0% CPU use with 2 MPI tasks x no OpenMP threads

MPI task timing breakdown:
Section |  min time  |  avg time  |  max time  |%varavg| %total
---------------------------------------------------------------
Pair    | 364.48     | 368.15     | 371.81     |  19.1 | 52.30
Neigh   | 265.86     | 267.6      | 269.35     |  10.7 | 38.02
Comm    | 47.617     | 49.58      | 51.543     |  27.9 |  7.04
Output  | 0.046447   | 0.046474   | 0.0465     |   0.0 |  0.01
Modify  | 14.721     | 14.791     | 14.861     |   1.8 |  2.10
Other   |            | 3.739      |            |       |  0.53

Nlocal:    9826 ave 9838 max 9814 min
Histogram: 1 0 0 0 0 0 0 0 0 1
Nghost:    8896 ave 8921 max 8871 min
Histogram: 1 0 0 0 0 0 0 0 0 1
Neighs:    300447 ave 302947 max 297947 min
Histogram: 1 0 0 0 0 0 0 0 0 1

Total # of neighbors = 600894
Ave neighs/atom = 30.5767
Neighbor list builds = 9505
Dangerous builds not checked
Setting up Verlet run ...
  Unit style    : metal
  Current step  : 140000
  Time step     : 0.001
Per MPI rank memory allocation (min/avg/max) = 11.32 | 11.32 | 11.32 Mbytes
Step Temp Press TotEng PotEng Enthalpy 
  140000    1951.9725    213.87907   -76197.881   -81156.068   -76088.911 
  140495    1912.2745    154.31275   -76350.937   -81208.288   -76272.387 
Loop time of 35.0911 on 2 procs for 495 steps with 19652 atoms

Performance: 1.219 ns/day, 19.692 hours/ns, 14.106 timesteps/s
93.8% CPU use with 2 MPI tasks x no OpenMP threads

MPI task timing breakdown:
Section |  min time  |  avg time  |  max time  |%varavg| %total
---------------------------------------------------------------
Pair    | 17.771     | 18.421     | 19.071     |  15.1 | 52.50
Neigh   | 13.419     | 13.477     | 13.534     |   1.6 | 38.40
Comm    | 1.5692     | 2.3041     | 3.039      |  48.4 |  6.57
Output  | 0.00011897 | 0.00026345 | 0.00040793 |   0.0 |  0.00
Modify  | 0.6806     | 0.70368    | 0.72676    |   2.8 |  2.01
Other   |            | 0.1854     |            |       |  0.53

Nlocal:    9826 ave 9828 max 9824 min
Histogram: 1 0 0 0 0 0 0 0 0 1
Nghost:    8891 ave 8896 max 8886 min
Histogram: 1 0 0 0 0 0 0 0 0 1
Neighs:    300539 ave 302533 max 298545 min
Histogram: 1 0 0 0 0 0 0 0 0 1

Total # of neighbors = 601078
Ave neighs/atom = 30.5861
Neighbor list builds = 495
Dangerous builds not checked
Setting up Verlet run ...
  Unit style    : metal
  Current step  : 140495
  Time step     : 0.001
Per MPI rank memory allocation (min/avg/max) = 11.32 | 11.32 | 11.32 Mbytes
Step Temp Press TotEng PotEng Enthalpy 
  140495    1912.2745    154.31275   -76350.937   -81208.288   -76272.387 
  150000      1894.49   -345.40274   -76465.303    -81277.48   -76641.335 
Loop time of 717.458 on 2 procs for 9505 steps with 19652 atoms

Performance: 1.145 ns/day, 20.967 hours/ns, 13.248 timesteps/s
94.7% CPU use with 2 MPI tasks x no OpenMP threads

MPI task timing breakdown:
Section |  min time  |  avg time  |  max time  |%varavg| %total
---------------------------------------------------------------
Pair    | 371.94     | 375.41     | 378.87     |  17.9 | 52.32
Neigh   | 272.1      | 273.42     | 274.74     |   8.0 | 38.11
Comm    | 45.357     | 50.159     | 54.96      |  67.8 |  6.99
Output  | 0.092524   | 0.092597   | 0.09267    |   0.0 |  0.01
Modify  | 14.519     | 14.563     | 14.606     |   1.1 |  2.03
Other   |            | 3.813      |            |       |  0.53

Nlocal:    9826 ave 9831 max 9821 min
Histogram: 1 0 0 0 0 0 0 0 0 1
Nghost:    8845 ave 8850 max 8840 min
Histogram: 1 0 0 0 0 0 0 0 0 1
Neighs:    300315 ave 302335 max 298295 min
Histogram: 1 0 0 0 0 0 0 0 0 1

Total # of neighbors = 600630
Ave neighs/atom = 30.5633
Neighbor list builds = 9505
Dangerous builds not checked
Setting up Verlet run ...
  Unit style    : metal
  Current step  : 150000
  Time step     : 0.001
Per MPI rank memory allocation (min/avg/max) = 11.32 | 11.32 | 11.32 Mbytes
Step Temp Press TotEng PotEng Enthalpy 
  150000      1894.49   -345.40274   -76465.303    -81277.48   -76641.335 
  150495    1863.2488   -347.39966   -76657.005   -81389.827   -76833.694 
Loop time of 35.4937 on 2 procs for 495 steps with 19652 atoms

Performance: 1.205 ns/day, 19.918 hours/ns, 13.946 timesteps/s
97.2% CPU use with 2 MPI tasks x no OpenMP threads

MPI task timing breakdown:
Section |  min time  |  avg time  |  max time  |%varavg| %total
---------------------------------------------------------------
Pair    | 18.489     | 18.511     | 18.534     |   0.5 | 52.15
Neigh   | 13.581     | 13.868     | 14.155     |   7.7 | 39.07
Comm    | 1.8859     | 2.212      | 2.5382     |  21.9 |  6.23
Output  | 0.00028896 | 0.00037301 | 0.00045705 |   0.0 |  0.00
Modify  | 0.69049    | 0.70619    | 0.72189    |   1.9 |  1.99
Other   |            | 0.1959     |            |       |  0.55

Nlocal:    9826 ave 9856 max 9796 min
Histogram: 1 0 0 0 0 0 0 0 0 1
Nghost:    8905.5 ave 8946 max 8865 min
Histogram: 1 0 0 0 0 0 0 0 0 1
Neighs:    300689 ave 301642 max 299736 min
Histogram: 1 0 0 0 0 0 0 0 0 1

Total # of neighbors = 601378
Ave neighs/atom = 30.6014
Neighbor list builds = 495
Dangerous builds not checked
Setting up Verlet run ...
  Unit style    : metal
  Current step  : 150495
  Time step     : 0.001
Per MPI rank memory allocation (min/avg/max) = 11.32 | 11.32 | 11.32 Mbytes
Step Temp Press TotEng PotEng Enthalpy 
  150495    1863.2488   -347.39966   -76657.005   -81389.827   -76833.694 
  160000    1829.0056   -506.61706   -76722.306   -81368.147   -76980.004 
Loop time of 708.121 on 2 procs for 9505 steps with 19652 atoms

Performance: 1.160 ns/day, 20.694 hours/ns, 13.423 timesteps/s
95.1% CPU use with 2 MPI tasks x no OpenMP threads

MPI task timing breakdown:
Section |  min time  |  avg time  |  max time  |%varavg| %total
---------------------------------------------------------------
Pair    | 366.55     | 369.14     | 371.73     |  13.5 | 52.13
Neigh   | 272.25     | 274.6      | 276.95     |  14.2 | 38.78
Comm    | 41.511     | 46.48      | 51.45      |  72.9 |  6.56
Output  | 0.061833   | 0.061916   | 0.062      |   0.0 |  0.01
Modify  | 13.971     | 14.031     | 14.091     |   1.6 |  1.98
Other   |            | 3.807      |            |       |  0.54

Nlocal:    9826 ave 9834 max 9818 min
Histogram: 1 0 0 0 0 0 0 0 0 1
Nghost:    8890.5 ave 8908 max 8873 min
Histogram: 1 0 0 0 0 0 0 0 0 1
Neighs:    300634 ave 302662 max 298607 min
Histogram: 1 0 0 0 0 0 0 0 0 1

Total # of neighbors = 601269
Ave neighs/atom = 30.5958
Neighbor list builds = 9505
Dangerous builds not checked
Setting up Verlet run ...
  Unit style    : metal
  Current step  : 160000
  Time step     : 0.001
Per MPI rank memory allocation (min/avg/max) = 11.33 | 11.33 | 11.33 Mbytes
Step Temp Press TotEng PotEng Enthalpy 
  160000    1829.0056   -506.61706   -76722.306   -81368.147   -76980.004 
  160495    1798.5133   -507.02474   -76910.868   -81479.256   -77168.183 
Loop time of 34.5168 on 2 procs for 495 steps with 19652 atoms

Performance: 1.239 ns/day, 19.370 hours/ns, 14.341 timesteps/s
91.1% CPU use with 2 MPI tasks x no OpenMP threads

MPI task timing breakdown:
Section |  min time  |  avg time  |  max time  |%varavg| %total
---------------------------------------------------------------
Pair    | 18.337     | 18.49      | 18.644     |   3.6 | 53.57
Neigh   | 13.249     | 13.256     | 13.263     |   0.2 | 38.40
Comm    | 1.7826     | 1.9284     | 2.0743     |  10.5 |  5.59
Output  | 9.2983e-05 | 0.00013101 | 0.00016904 |   0.0 |  0.00
Modify  | 0.6601     | 0.66059    | 0.66109    |   0.1 |  1.91
Other   |            | 0.1813     |            |       |  0.53

Nlocal:    9826 ave 9848 max 9804 min
Histogram: 1 0 0 0 0 0 0 0 0 1
Nghost:    8926.5 ave 8931 max 8922 min
Histogram: 1 0 0 0 0 0 0 0 0 1
Neighs:    301312 ave 304699 max 297924 min
Histogram: 1 0 0 0 0 0 0 0 0 1

Total # of neighbors = 602623
Ave neighs/atom = 30.6647
Neighbor list builds = 495
Dangerous builds not checked
Setting up Verlet run ...
  Unit style    : metal
  Current step  : 160495
  Time step     : 0.001
Per MPI rank memory allocation (min/avg/max) = 11.33 | 11.33 | 11.33 Mbytes
Step Temp Press TotEng PotEng Enthalpy 
  160495    1798.5133   -507.02474   -76910.868   -81479.256   -77168.183 
  170000    1796.1965   -162.10571   -76954.355   -81516.858   -77036.512 
Loop time of 695.733 on 2 procs for 9505 steps with 19652 atoms

Performance: 1.180 ns/day, 20.332 hours/ns, 13.662 timesteps/s
95.1% CPU use with 2 MPI tasks x no OpenMP threads

MPI task timing breakdown:
Section |  min time  |  avg time  |  max time  |%varavg| %total
---------------------------------------------------------------
Pair    | 359.14     | 362.39     | 365.63     |  17.1 | 52.09
Neigh   | 268.55     | 270.17     | 271.78     |   9.8 | 38.83
Comm    | 40.457     | 45.406     | 50.355     |  73.4 |  6.53
Output  | 0.041258   | 0.041279   | 0.0413     |   0.0 |  0.01
Modify  | 13.873     | 13.982     | 14.09      |   2.9 |  2.01
Other   |            | 3.752      |            |       |  0.54

Nlocal:    9826 ave 9826 max 9826 min
Histogram: 2 0 0 0 0 0 0 0 0 0
Nghost:    8881 ave 8901 max 8861 min
Histogram: 1 0 0 0 0 0 0 0 0 1
Neighs:    301786 ave 304488 max 299083 min
Histogram: 1 0 0 0 0 0 0 0 0 1

Total # of neighbors = 603571
Ave neighs/atom = 30.713
Neighbor list builds = 9505
Dangerous builds not checked
Setting up Verlet run ...
  Unit style    : metal
  Current step  : 170000
  Time step     : 0.001
Per MPI rank memory allocation (min/avg/max) = 11.33 | 11.33 | 11.33 Mbytes
Step Temp Press TotEng PotEng Enthalpy 
  170000    1796.1965   -162.10571   -76954.355   -81516.858   -77036.512 
  170495    1765.5725   -304.49743   -77179.064   -81663.779   -77333.041 
Loop time of 34.7988 on 2 procs for 495 steps with 19652 atoms

Performance: 1.229 ns/day, 19.528 hours/ns, 14.225 timesteps/s
94.4% CPU use with 2 MPI tasks x no OpenMP threads

MPI task timing breakdown:
Section |  min time  |  avg time  |  max time  |%varavg| %total
---------------------------------------------------------------
Pair    | 18.23      | 18.303     | 18.377     |   1.7 | 52.60
Neigh   | 13.343     | 13.55      | 13.756     |   5.6 | 38.94
Comm    | 1.6974     | 1.9751     | 2.2527     |  19.8 |  5.68
Output  | 0.00037384 | 0.00045943 | 0.00054502 |   0.0 |  0.00
Modify  | 0.76033    | 0.76478    | 0.76922    |   0.5 |  2.20
Other   |            | 0.2057     |            |       |  0.59

Nlocal:    9826 ave 9836 max 9816 min
Histogram: 1 0 0 0 0 0 0 0 0 1
Nghost:    8947 ave 8997 max 8897 min
Histogram: 1 0 0 0 0 0 0 0 0 1
Neighs:    302547 ave 305055 max 300039 min
Histogram: 1 0 0 0 0 0 0 0 0 1

Total # of neighbors = 605094
Ave neighs/atom = 30.7905
Neighbor list builds = 495
Dangerous builds not checked
Setting up Verlet run ...
  Unit style    : metal
  Current step  : 170495
  Time step     : 0.001
Per MPI rank memory allocation (min/avg/max) = 11.33 | 11.33 | 11.33 Mbytes
Step Temp Press TotEng PotEng Enthalpy 
  170495    1765.5725   -304.49743   -77179.064   -81663.779   -77333.041 
  180000     1737.248    -272.1494   -77194.588   -81607.356   -77332.207 
Loop time of 728.407 on 2 procs for 9505 steps with 19652 atoms

Performance: 1.127 ns/day, 21.287 hours/ns, 13.049 timesteps/s
93.5% CPU use with 2 MPI tasks x no OpenMP threads

MPI task timing breakdown:
Section |  min time  |  avg time  |  max time  |%varavg| %total
---------------------------------------------------------------
Pair    | 376.53     | 379.63     | 382.73     |  15.9 | 52.12
Neigh   | 274.68     | 276.63     | 278.58     |  11.7 | 37.98
Comm    | 52.114     | 53.24      | 54.366     |  15.4 |  7.31
Output  | 0.042313   | 0.042356   | 0.042398   |   0.0 |  0.01
Modify  | 14.951     | 14.998     | 15.044     |   1.2 |  2.06
Other   |            | 3.87       |            |       |  0.53

Nlocal:    9826 ave 9848 max 9804 min
Histogram: 1 0 0 0 0 0 0 0 0 1
Nghost:    8925 ave 8956 max 8894 min
Histogram: 1 0 0 0 0 0 0 0 0 1
Neighs:    302658 ave 306123 max 299192 min
Histogram: 1 0 0 0 0 0 0 0 0 1

Total # of neighbors = 605315
Ave neighs/atom = 30.8017
Neighbor list builds = 9505
Dangerous builds not checked
Setting up Verlet run ...
  Unit style    : metal
  Current step  : 180000
  Time step     : 0.001
Per MPI rank memory allocation (min/avg/max) = 11.33 | 11.33 | 11.33 Mbytes
Step Temp Press TotEng PotEng Enthalpy 
  180000     1737.248    -272.1494   -77194.588   -81607.356   -77332.207 
  180495    1710.6475   -141.70578   -77364.799       -81710   -77436.315 
Loop time of 37.1936 on 2 procs for 495 steps with 19652 atoms

Performance: 1.150 ns/day, 20.872 hours/ns, 13.309 timesteps/s
92.8% CPU use with 2 MPI tasks x no OpenMP threads

MPI task timing breakdown:
Section |  min time  |  avg time  |  max time  |%varavg| %total
---------------------------------------------------------------
Pair    | 19.325     | 19.598     | 19.872     |   6.2 | 52.69
Neigh   | 14.169     | 14.331     | 14.494     |   4.3 | 38.53
Comm    | 2.2017     | 2.3241     | 2.4465     |   8.0 |  6.25
Output  | 0.00058889 | 0.00063145 | 0.00067401 |   0.0 |  0.00
Modify  | 0.72725    | 0.74523    | 0.76321    |   2.1 |  2.00
Other   |            | 0.1937     |            |       |  0.52

Nlocal:    9826 ave 9833 max 9819 min
Histogram: 1 0 0 0 0 0 0 0 0 1
Nghost:    8952 ave 8973 max 8931 min
Histogram: 1 0 0 0 0 0 0 0 0 1
Neighs:    303032 ave 305735 max 300328 min
Histogram: 1 0 0 0 0 0 0 0 0 1

Total # of neighbors = 606063
Ave neighs/atom = 30.8398
Neighbor list builds = 495
Dangerous builds not checked
Setting up Verlet run ...
  Unit style    : metal
  Current step  : 180495
  Time step     : 0.001
Per MPI rank memory allocation (min/avg/max) = 11.33 | 11.33 | 11.33 Mbytes
Step Temp Press TotEng PotEng Enthalpy 
  180495    1710.6475   -141.70578   -77364.799       -81710   -77436.315 
  190000    1691.9884   -85.525673   -77399.392   -81697.197   -77442.558 
Loop time of 724.353 on 2 procs for 9505 steps with 19652 atoms

Performance: 1.134 ns/day, 21.169 hours/ns, 13.122 timesteps/s
94.5% CPU use with 2 MPI tasks x no OpenMP threads

MPI task timing breakdown:
Section |  min time  |  avg time  |  max time  |%varavg| %total
---------------------------------------------------------------
Pair    | 375.44     | 379.37     | 383.29     |  20.1 | 52.37
Neigh   | 274.28     | 275.38     | 276.48     |   6.6 | 38.02
Comm    | 48.171     | 51.075     | 53.98      |  40.6 |  7.05
Output  | 0.062964   | 0.063029   | 0.063094   |   0.0 |  0.01
Modify  | 14.574     | 14.676     | 14.779     |   2.7 |  2.03
Other   |            | 3.791      |            |       |  0.52

Nlocal:    9826 ave 9841 max 9811 min
Histogram: 1 0 0 0 0 0 0 0 0 1
Nghost:    8896 ave 8919 max 8873 min
Histogram: 1 0 0 0 0 0 0 0 0 1
Neighs:    303226 ave 304938 max 301515 min
Histogram: 1 0 0 0 0 0 0 0 0 1

Total # of neighbors = 606453
Ave neighs/atom = 30.8596
Neighbor list builds = 9505
Dangerous builds not checked
Setting up Verlet run ...
  Unit style    : metal
  Current step  : 190000
  Time step     : 0.001
Per MPI rank memory allocation (min/avg/max) = 11.33 | 11.33 | 11.33 Mbytes
Step Temp Press TotEng PotEng Enthalpy 
  190000    1691.9884   -85.525673   -77399.392   -81697.197   -77442.558 
  190495      1663.26    179.77296   -77630.739   -81855.571   -77540.344 
Loop time of 35.9669 on 2 procs for 495 steps with 19652 atoms

Performance: 1.189 ns/day, 20.183 hours/ns, 13.763 timesteps/s
94.5% CPU use with 2 MPI tasks x no OpenMP threads

MPI task timing breakdown:
Section |  min time  |  avg time  |  max time  |%varavg| %total
---------------------------------------------------------------
Pair    | 18.658     | 18.751     | 18.843     |   2.1 | 52.13
Neigh   | 13.594     | 13.989     | 14.384     |  10.6 | 38.89
Comm    | 1.9874     | 2.3097     | 2.632      |  21.2 |  6.42
Output  | 0.000139   | 0.00030148 | 0.00046396 |   0.0 |  0.00
Modify  | 0.69226    | 0.70884    | 0.72542    |   2.0 |  1.97
Other   |            | 0.2081     |            |       |  0.58

Nlocal:    9826 ave 9828 max 9824 min
Histogram: 1 0 0 0 0 0 0 0 0 1
Nghost:    8941.5 ave 8946 max 8937 min
Histogram: 1 0 0 0 0 0 0 0 0 1
Neighs:    304044 ave 306333 max 301754 min
Histogram: 1 0 0 0 0 0 0 0 0 1

Total # of neighbors = 608087
Ave neighs/atom = 30.9428
Neighbor list builds = 495
Dangerous builds not checked
Setting up Verlet run ...
  Unit style    : metal
  Current step  : 190495
  Time step     : 0.001
Per MPI rank memory allocation (min/avg/max) = 11.33 | 11.33 | 11.33 Mbytes
Step Temp Press TotEng PotEng Enthalpy 
  190495      1663.26    179.77296   -77630.739   -81855.571   -77540.344 
  200000    1655.0778    161.68651   -77693.428   -81897.477   -77612.147 
Loop time of 723.379 on 2 procs for 9505 steps with 19652 atoms

Performance: 1.135 ns/day, 21.140 hours/ns, 13.140 timesteps/s
93.9% CPU use with 2 MPI tasks x no OpenMP threads

MPI task timing breakdown:
Section |  min time  |  avg time  |  max time  |%varavg| %total
---------------------------------------------------------------
Pair    | 380.24     | 380.7      | 381.16     |   2.3 | 52.63
Neigh   | 272.93     | 273.58     | 274.23     |   3.9 | 37.82
Comm    | 49.514     | 50.629     | 51.745     |  15.7 |  7.00
Output  | 0.049569   | 0.049585   | 0.049601   |   0.0 |  0.01
Modify  | 14.559     | 14.61      | 14.661     |   1.3 |  2.02
Other   |            | 3.812      |            |       |  0.53

Nlocal:    9826 ave 9847 max 9805 min
Histogram: 1 0 0 0 0 0 0 0 0 1
Nghost:    8919 ave 8947 max 8891 min
Histogram: 1 0 0 0 0 0 0 0 0 1
Neighs:    304042 ave 306962 max 301122 min
Histogram: 1 0 0 0 0 0 0 0 0 1

Total # of neighbors = 608084
Ave neighs/atom = 30.9426
Neighbor list builds = 9505
Dangerous builds not checked
Setting up Verlet run ...
  Unit style    : metal
  Current step  : 200000
  Time step     : 0.001
Per MPI rank memory allocation (min/avg/max) = 11.33 | 11.33 | 11.33 Mbytes
Step Temp Press TotEng PotEng Enthalpy 
  200000    1655.0778    161.68651   -77693.428   -81897.477   -77612.147 
  200495    1607.8502    386.29208   -77889.598   -81973.684   -77695.912 
Loop time of 37.4117 on 2 procs for 495 steps with 19652 atoms

Performance: 1.143 ns/day, 20.994 hours/ns, 13.231 timesteps/s
91.8% CPU use with 2 MPI tasks x no OpenMP threads

MPI task timing breakdown:
Section |  min time  |  avg time  |  max time  |%varavg| %total
---------------------------------------------------------------
Pair    | 19.686     | 19.893     | 20.1       |   4.6 | 53.17
Neigh   | 13.903     | 14.056     | 14.209     |   4.1 | 37.57
Comm    | 2.1173     | 2.4865     | 2.8557     |  23.4 |  6.65
Output  | 0.00010586 | 0.00014699 | 0.00018811 |   0.0 |  0.00
Modify  | 0.74562    | 0.75851    | 0.77139    |   1.5 |  2.03
Other   |            | 0.2174     |            |       |  0.58

Nlocal:    9826 ave 9834 max 9818 min
Histogram: 1 0 0 0 0 0 0 0 0 1
Nghost:    8966.5 ave 9001 max 8932 min
Histogram: 1 0 0 0 0 0 0 0 0 1
Neighs:    304881 ave 307744 max 302018 min
Histogram: 1 0 0 0 0 0 0 0 0 1

Total # of neighbors = 609762
Ave neighs/atom = 31.028
Neighbor list builds = 495
Dangerous builds not checked
Setting up Verlet run ...
  Unit style    : metal
  Current step  : 200495
  Time step     : 0.001
Per MPI rank memory allocation (min/avg/max) = 11.33 | 11.33 | 11.33 Mbytes
Step Temp Press TotEng PotEng Enthalpy 
  200495    1607.8502    386.29208   -77889.598   -81973.684   -77695.912 
  210000    1612.3302    300.17466    -77901.49   -81996.956   -77750.986 
Loop time of 719.319 on 2 procs for 9505 steps with 19652 atoms

Performance: 1.142 ns/day, 21.022 hours/ns, 13.214 timesteps/s
93.9% CPU use with 2 MPI tasks x no OpenMP threads

MPI task timing breakdown:
Section |  min time  |  avg time  |  max time  |%varavg| %total
---------------------------------------------------------------
Pair    | 374.03     | 377.69     | 381.36     |  18.9 | 52.51
Neigh   | 274.25     | 274.91     | 275.57     |   4.0 | 38.22
Comm    | 43.916     | 48.433     | 52.95      |  64.9 |  6.73
Output  | 0.048516   | 0.048536   | 0.048556   |   0.0 |  0.01
Modify  | 14.231     | 14.41      | 14.589     |   4.7 |  2.00
Other   |            | 3.83       |            |       |  0.53

Nlocal:    9826 ave 9843 max 9809 min
Histogram: 1 0 0 0 0 0 0 0 0 1
Nghost:    8949.5 ave 8956 max 8943 min
Histogram: 1 0 0 0 0 0 0 0 0 1
Neighs:    304886 ave 308066 max 301705 min
Histogram: 1 0 0 0 0 0 0 0 0 1

Total # of neighbors = 609771
Ave neighs/atom = 31.0284
Neighbor list builds = 9505
Dangerous builds not checked
Setting up Verlet run ...
  Unit style    : metal
  Current step  : 210000
  Time step     : 0.001
Per MPI rank memory allocation (min/avg/max) = 11.34 | 11.34 | 11.34 Mbytes
Step Temp Press TotEng PotEng Enthalpy 
  210000    1612.3302    300.17466    -77901.49   -81996.956   -77750.986 
  210495    1562.2201    330.72782   -78095.229    -82063.41   -77929.628 
Loop time of 36.164 on 2 procs for 495 steps with 19652 atoms

Performance: 1.183 ns/day, 20.294 hours/ns, 13.688 timesteps/s
93.2% CPU use with 2 MPI tasks x no OpenMP threads

MPI task timing breakdown:
Section |  min time  |  avg time  |  max time  |%varavg| %total
---------------------------------------------------------------
Pair    | 18.885     | 19.254     | 19.623     |   8.4 | 53.24
Neigh   | 13.757     | 13.899     | 14.041     |   3.8 | 38.43
Comm    | 1.8651     | 2.0936     | 2.3221     |  15.8 |  5.79
Output  | 0.00049996 | 0.00082302 | 0.0011461  |   0.0 |  0.00
Modify  | 0.71987    | 0.72049    | 0.72111    |   0.1 |  1.99
Other   |            | 0.1957     |            |       |  0.54

Nlocal:    9826 ave 9835 max 9817 min
Histogram: 1 0 0 0 0 0 0 0 0 1
Nghost:    8988 ave 9005 max 8971 min
Histogram: 1 0 0 0 0 0 0 0 0 1
Neighs:    305176 ave 308298 max 302055 min
Histogram: 1 0 0 0 0 0 0 0 0 1

Total # of neighbors = 610353
Ave neighs/atom = 31.0581
Neighbor list builds = 495
Dangerous builds not checked
Setting up Verlet run ...
  Unit style    : metal
  Current step  : 210495
  Time step     : 0.001
Per MPI rank memory allocation (min/avg/max) = 11.34 | 11.34 | 11.34 Mbytes
Step Temp Press TotEng PotEng Enthalpy 
  210495    1562.2201    330.72782   -78095.229    -82063.41   -77929.628 
  220000    1549.3545   -361.13034   -78182.926   -82118.428   -78363.966 
Loop time of 725.491 on 2 procs for 9505 steps with 19652 atoms

Performance: 1.132 ns/day, 21.202 hours/ns, 13.101 timesteps/s
93.0% CPU use with 2 MPI tasks x no OpenMP threads

MPI task timing breakdown:
Section |  min time  |  avg time  |  max time  |%varavg| %total
---------------------------------------------------------------
Pair    | 377.82     | 380.88     | 383.94     |  15.7 | 52.50
Neigh   | 273.55     | 274.52     | 275.49     |   5.9 | 37.84
Comm    | 49.239     | 51.389     | 53.538     |  30.0 |  7.08
Output  | 0.043284   | 0.043307   | 0.043331   |   0.0 |  0.01
Modify  | 14.716     | 14.83      | 14.943     |   2.9 |  2.04
Other   |            | 3.832      |            |       |  0.53

Nlocal:    9826 ave 9843 max 9809 min
Histogram: 1 0 0 0 0 0 0 0 0 1
Nghost:    8934.5 ave 8944 max 8925 min
Histogram: 1 0 0 0 0 0 0 0 0 1
Neighs:    305253 ave 308290 max 302216 min
Histogram: 1 0 0 0 0 0 0 0 0 1

Total # of neighbors = 610506
Ave neighs/atom = 31.0658
Neighbor list builds = 9505
Dangerous builds not checked
Setting up Verlet run ...
  Unit style    : metal
  Current step  : 220000
  Time step     : 0.001
Per MPI rank memory allocation (min/avg/max) = 11.34 | 11.34 | 11.34 Mbytes
Step Temp Press TotEng PotEng Enthalpy 
  220000    1549.3545   -361.13034   -78182.926   -82118.428   -78363.966 
  220495    1507.6505   -155.70981   -78371.541    -82201.11   -78449.439 
Loop time of 35.1402 on 2 procs for 495 steps with 19652 atoms

Performance: 1.217 ns/day, 19.720 hours/ns, 14.086 timesteps/s
94.1% CPU use with 2 MPI tasks x no OpenMP threads

MPI task timing breakdown:
Section |  min time  |  avg time  |  max time  |%varavg| %total
---------------------------------------------------------------
Pair    | 17.685     | 18.029     | 18.373     |   8.1 | 51.31
Neigh   | 13.34      | 13.457     | 13.573     |   3.2 | 38.29
Comm    | 2.4586     | 2.6947     | 2.9307     |  14.4 |  7.67
Output  | 9.4891e-05 | 0.0093144  | 0.018534   |   9.6 |  0.03
Modify  | 0.7451     | 0.75344    | 0.76178    |   1.0 |  2.14
Other   |            | 0.1969     |            |       |  0.56

Nlocal:    9826 ave 9828 max 9824 min
Histogram: 1 0 0 0 0 0 0 0 0 1
Nghost:    8961 ave 8961 max 8961 min
Histogram: 2 0 0 0 0 0 0 0 0 0
Neighs:    305482 ave 308058 max 302906 min
Histogram: 1 0 0 0 0 0 0 0 0 1

Total # of neighbors = 610964
Ave neighs/atom = 31.0892
Neighbor list builds = 495
Dangerous builds not checked
Setting up Verlet run ...
  Unit style    : metal
  Current step  : 220495
  Time step     : 0.001
Per MPI rank memory allocation (min/avg/max) = 11.34 | 11.34 | 11.34 Mbytes
Step Temp Press TotEng PotEng Enthalpy 
  220495    1507.6505   -155.70981   -78371.541    -82201.11   -78449.439 
  230000    1501.0029   -626.30706   -78391.081   -82203.765   -78704.855 
Loop time of 708.788 on 2 procs for 9505 steps with 19652 atoms

Performance: 1.159 ns/day, 20.714 hours/ns, 13.410 timesteps/s
94.6% CPU use with 2 MPI tasks x no OpenMP threads

MPI task timing breakdown:
Section |  min time  |  avg time  |  max time  |%varavg| %total
---------------------------------------------------------------
Pair    | 366.38     | 371.08     | 375.78     |  24.4 | 52.35
Neigh   | 267.41     | 271.06     | 274.71     |  22.2 | 38.24
Comm    | 40.325     | 48.952     | 57.579     | 123.3 |  6.91
Output  | 0.039357   | 0.039423   | 0.039489   |   0.0 |  0.01
Modify  | 13.642     | 13.863     | 14.084     |   5.9 |  1.96
Other   |            | 3.793      |            |       |  0.54

Nlocal:    9826 ave 9841 max 9811 min
Histogram: 1 0 0 0 0 0 0 0 0 1
Nghost:    8969 ave 8981 max 8957 min
Histogram: 1 0 0 0 0 0 0 0 0 1
Neighs:    305023 ave 306175 max 303871 min
Histogram: 1 0 0 0 0 0 0 0 0 1

Total # of neighbors = 610046
Ave neighs/atom = 31.0424
Neighbor list builds = 9505
Dangerous builds not checked
Setting up Verlet run ...
  Unit style    : metal
  Current step  : 230000
  Time step     : 0.001
Per MPI rank memory allocation (min/avg/max) = 11.34 | 11.34 | 11.34 Mbytes
Step Temp Press TotEng PotEng Enthalpy 
  230000    1501.0029   -626.30706   -78391.081   -82203.765   -78704.855 
  230495    1457.3087   -624.08698   -78606.222   -82307.919   -78918.146 
Loop time of 33.9043 on 2 procs for 495 steps with 19652 atoms

Performance: 1.261 ns/day, 19.026 hours/ns, 14.600 timesteps/s
97.3% CPU use with 2 MPI tasks x no OpenMP threads

MPI task timing breakdown:
Section |  min time  |  avg time  |  max time  |%varavg| %total
---------------------------------------------------------------
Pair    | 17.487     | 17.503     | 17.518     |   0.4 | 51.62
Neigh   | 12.618     | 13.351     | 14.084     |  20.1 | 39.38
Comm    | 1.418      | 2.1846     | 2.9512     |  51.9 |  6.44
Output  | 0.00011992 | 0.00027287 | 0.00042582 |   0.0 |  0.00
Modify  | 0.65116    | 0.67944    | 0.70771    |   3.4 |  2.00
Other   |            | 0.186      |            |       |  0.55

Nlocal:    9826 ave 9826 max 9826 min
Histogram: 2 0 0 0 0 0 0 0 0 0
Nghost:    8947 ave 8956 max 8938 min
Histogram: 1 0 0 0 0 0 0 0 0 1
Neighs:    305823 ave 307926 max 303720 min
Histogram: 1 0 0 0 0 0 0 0 0 1

Total # of neighbors = 611646
Ave neighs/atom = 31.1239
Neighbor list builds = 495
Dangerous builds not checked
Setting up Verlet run ...
  Unit style    : metal
  Current step  : 230495
  Time step     : 0.001
Per MPI rank memory allocation (min/avg/max) = 11.34 | 11.34 | 11.34 Mbytes
Step Temp Press TotEng PotEng Enthalpy 
  230495    1457.3087   -624.08698   -78606.222   -82307.919   -78918.146 
  240000    1447.5941   -346.43448   -78715.627   -82392.648   -78888.414 
Loop time of 721.916 on 2 procs for 9505 steps with 19652 atoms

Performance: 1.138 ns/day, 21.098 hours/ns, 13.166 timesteps/s
93.9% CPU use with 2 MPI tasks x no OpenMP threads

MPI task timing breakdown:
Section |  min time  |  avg time  |  max time  |%varavg| %total
---------------------------------------------------------------
Pair    | 375.03     | 379.88     | 384.73     |  24.9 | 52.62
Neigh   | 274.66     | 275.93     | 277.2      |   7.6 | 38.22
Comm    | 41.52      | 47.886     | 54.252     |  92.0 |  6.63
Output  | 0.046626   | 0.046642   | 0.046658   |   0.0 |  0.01
Modify  | 14.128     | 14.342     | 14.555     |   5.6 |  1.99
Other   |            | 3.831      |            |       |  0.53

Nlocal:    9826 ave 9835 max 9817 min
Histogram: 1 0 0 0 0 0 0 0 0 1
Nghost:    8972.5 ave 9002 max 8943 min
Histogram: 1 0 0 0 0 0 0 0 0 1
Neighs:    306350 ave 309201 max 303499 min
Histogram: 1 0 0 0 0 0 0 0 0 1

Total # of neighbors = 612700
Ave neighs/atom = 31.1775
Neighbor list builds = 9505
Dangerous builds not checked
Setting up Verlet run ...
  Unit style    : metal
  Current step  : 240000
  Time step     : 0.001
Per MPI rank memory allocation (min/avg/max) = 11.34 | 11.34 | 11.34 Mbytes
Step Temp Press TotEng PotEng Enthalpy 
  240000    1447.5941   -346.43448   -78715.627   -82392.648   -78888.414 
  240495    1408.3484   -75.857637   -78867.622   -82444.956   -78905.388 
Loop time of 34.3511 on 2 procs for 495 steps with 19652 atoms

Performance: 1.245 ns/day, 19.277 hours/ns, 14.410 timesteps/s
97.0% CPU use with 2 MPI tasks x no OpenMP threads

MPI task timing breakdown:
Section |  min time  |  avg time  |  max time  |%varavg| %total
---------------------------------------------------------------
Pair    | 17.898     | 17.902     | 17.906     |   0.1 | 52.12
Neigh   | 12.828     | 13.214     | 13.601     |  10.6 | 38.47
Comm    | 1.9092     | 2.329      | 2.7489     |  27.5 |  6.78
Output  | 0.00011802 | 0.00025904 | 0.00040007 |   0.0 |  0.00
Modify  | 0.69161    | 0.71198    | 0.73236    |   2.4 |  2.07
Other   |            | 0.1932     |            |       |  0.56

Nlocal:    9826 ave 9842 max 9810 min
Histogram: 1 0 0 0 0 0 0 0 0 1
Nghost:    9008.5 ave 9019 max 8998 min
Histogram: 1 0 0 0 0 0 0 0 0 1
Neighs:    306905 ave 309880 max 303930 min
Histogram: 1 0 0 0 0 0 0 0 0 1

Total # of neighbors = 613810
Ave neighs/atom = 31.234
Neighbor list builds = 495
Dangerous builds not checked
Setting up Verlet run ...
  Unit style    : metal
  Current step  : 240495
  Time step     : 0.001
Per MPI rank memory allocation (min/avg/max) = 11.34 | 11.34 | 11.34 Mbytes
Step Temp Press TotEng PotEng Enthalpy 
  240495    1408.3484   -75.857637   -78867.622   -82444.956   -78905.388 
  250000    1401.8133   -183.61968   -78905.175   -82465.909   -78996.571 
Loop time of 646.833 on 2 procs for 9505 steps with 19652 atoms

Performance: 1.270 ns/day, 18.903 hours/ns, 14.695 timesteps/s
85.3% CPU use with 2 MPI tasks x no OpenMP threads

MPI task timing breakdown:
Section |  min time  |  avg time  |  max time  |%varavg| %total
---------------------------------------------------------------
Pair    | 325.04     | 327.14     | 329.23     |  11.6 | 50.58
Neigh   | 258        | 258.86     | 259.73     |   5.4 | 40.02
Comm    | 43.521     | 44.982     | 46.443     |  21.8 |  6.95
Output  | 0.037946   | 0.037973   | 0.037999   |   0.0 |  0.01
Modify  | 12.423     | 12.716     | 13.009     |   8.2 |  1.97
Other   |            | 3.095      |            |       |  0.48

Nlocal:    9826 ave 9846 max 9806 min
Histogram: 1 0 0 0 0 0 0 0 0 1
Nghost:    8961.5 ave 8964 max 8959 min
Histogram: 1 0 0 0 0 0 0 0 0 1
Neighs:    307240 ave 310685 max 303794 min
Histogram: 1 0 0 0 0 0 0 0 0 1

Total # of neighbors = 614479
Ave neighs/atom = 31.268
Neighbor list builds = 9505
Dangerous builds not checked
Setting up Verlet run ...
  Unit style    : metal
  Current step  : 250000
  Time step     : 0.001
Per MPI rank memory allocation (min/avg/max) = 11.34 | 11.34 | 11.34 Mbytes
Step Temp Press TotEng PotEng Enthalpy 
  250000    1401.8133   -183.61968   -78905.175   -82465.909   -78996.571 
  250495    1356.1964   -75.096367   -79085.295   -82530.157   -79122.601 
Loop time of 35.3575 on 2 procs for 495 steps with 19652 atoms

Performance: 1.210 ns/day, 19.841 hours/ns, 14.000 timesteps/s
79.3% CPU use with 2 MPI tasks x no OpenMP threads

MPI task timing breakdown:
Section |  min time  |  avg time  |  max time  |%varavg| %total
---------------------------------------------------------------
Pair    | 17.319     | 17.538     | 17.757     |   5.2 | 49.60
Neigh   | 13.765     | 14.106     | 14.448     |   9.1 | 39.90
Comm    | 2.2135     | 2.7728     | 3.3321     |  33.6 |  7.84
Output  | 0.00011492 | 0.00023699 | 0.00035906 |   0.0 |  0.00
Modify  | 0.76444    | 0.76497    | 0.76551    |   0.1 |  2.16
Other   |            | 0.1753     |            |       |  0.50

Nlocal:    9826 ave 9839 max 9813 min
Histogram: 1 0 0 0 0 0 0 0 0 1
Nghost:    8985.5 ave 9001 max 8970 min
Histogram: 1 0 0 0 0 0 0 0 0 1
Neighs:    307770 ave 310971 max 304570 min
Histogram: 1 0 0 0 0 0 0 0 0 1

Total # of neighbors = 615541
Ave neighs/atom = 31.3221
Neighbor list builds = 495
Dangerous builds not checked
Setting up Verlet run ...
  Unit style    : metal
  Current step  : 250495
  Time step     : 0.001
Per MPI rank memory allocation (min/avg/max) = 11.34 | 11.34 | 11.34 Mbytes
Step Temp Press TotEng PotEng Enthalpy 
  250495    1356.1964   -75.096367   -79085.295   -82530.157   -79122.601 
  260000    1359.5854    610.92804   -79164.381   -82617.851   -78861.802 
Loop time of 667.011 on 2 procs for 9505 steps with 19652 atoms

Performance: 1.231 ns/day, 19.493 hours/ns, 14.250 timesteps/s
80.1% CPU use with 2 MPI tasks x no OpenMP threads

MPI task timing breakdown:
Section |  min time  |  avg time  |  max time  |%varavg| %total
---------------------------------------------------------------
Pair    | 333.15     | 334.57     | 335.99     |   7.8 | 50.16
Neigh   | 262.79     | 265.13     | 267.48     |  14.4 | 39.75
Comm    | 49.961     | 50.951     | 51.94      |  13.9 |  7.64
Output  | 0.06893    | 0.068994   | 0.069058   |   0.0 |  0.01
Modify  | 13.267     | 13.267     | 13.268     |   0.0 |  1.99
Other   |            | 3.023      |            |       |  0.45

Nlocal:    9826 ave 9826 max 9826 min
Histogram: 2 0 0 0 0 0 0 0 0 0
Nghost:    9004 ave 9054 max 8954 min
Histogram: 1 0 0 0 0 0 0 0 0 1
Neighs:    308596 ave 311412 max 305780 min
Histogram: 1 0 0 0 0 0 0 0 0 1

Total # of neighbors = 617192
Ave neighs/atom = 31.4061
Neighbor list builds = 9505
Dangerous builds not checked
Setting up Verlet run ...
  Unit style    : metal
  Current step  : 260000
  Time step     : 0.001
Per MPI rank memory allocation (min/avg/max) = 11.34 | 11.34 | 11.34 Mbytes
Step Temp Press TotEng PotEng Enthalpy 
  260000    1359.5854    610.92804   -79164.381   -82617.851   -78861.802 
  260495    1314.6705    437.14249   -79351.918   -82691.301   -79135.608 
Loop time of 36.61 on 2 procs for 495 steps with 19652 atoms

Performance: 1.168 ns/day, 20.544 hours/ns, 13.521 timesteps/s
78.3% CPU use with 2 MPI tasks x no OpenMP threads

MPI task timing breakdown:
Section |  min time  |  avg time  |  max time  |%varavg| %total
---------------------------------------------------------------
Pair    | 18.346     | 18.709     | 19.073     |   8.4 | 51.10
Neigh   | 13.853     | 14.124     | 14.395     |   7.2 | 38.58
Comm    | 2.7989     | 2.8781     | 2.9573     |   4.7 |  7.86
Output  | 8.3923e-05 | 0.00012243 | 0.00016093 |   0.0 |  0.00
Modify  | 0.69257    | 0.71077    | 0.72898    |   2.2 |  1.94
Other   |            | 0.1876     |            |       |  0.51

Nlocal:    9826 ave 9827 max 9825 min
Histogram: 1 0 0 0 0 0 0 0 0 1
Nghost:    9013.5 ave 9021 max 9006 min
Histogram: 1 0 0 0 0 0 0 0 0 1
Neighs:    308743 ave 311534 max 305952 min
Histogram: 1 0 0 0 0 0 0 0 0 1

Total # of neighbors = 617486
Ave neighs/atom = 31.421
Neighbor list builds = 495
Dangerous builds not checked
Setting up Verlet run ...
  Unit style    : metal
  Current step  : 260495
  Time step     : 0.001
Per MPI rank memory allocation (min/avg/max) = 11.34 | 11.34 | 11.34 Mbytes
Step Temp Press TotEng PotEng Enthalpy 
  260495    1314.6705    437.14249   -79351.918   -82691.301   -79135.608 
  270000    1295.0374   -28.512362   -79462.895   -82752.408   -79477.009 
Loop time of 682.732 on 2 procs for 9505 steps with 19652 atoms

Performance: 1.203 ns/day, 19.952 hours/ns, 13.922 timesteps/s
79.4% CPU use with 2 MPI tasks x no OpenMP threads

MPI task timing breakdown:
Section |  min time  |  avg time  |  max time  |%varavg| %total
---------------------------------------------------------------
Pair    | 341.54     | 343.79     | 346.03     |  12.1 | 50.35
Neigh   | 268.99     | 269.02     | 269.05     |   0.2 | 39.40
Comm    | 50.761     | 53.025     | 55.288     |  31.1 |  7.77
Output  | 0.042343   | 0.042384   | 0.042426   |   0.0 |  0.01
Modify  | 13.771     | 13.837     | 13.903     |   1.8 |  2.03
Other   |            | 3.024      |            |       |  0.44

Nlocal:    9826 ave 9841 max 9811 min
Histogram: 1 0 0 0 0 0 0 0 0 1
Nghost:    8986.5 ave 9028 max 8945 min
Histogram: 1 0 0 0 0 0 0 0 0 1
Neighs:    308779 ave 310531 max 307027 min
Histogram: 1 0 0 0 0 0 0 0 0 1

Total # of neighbors = 617558
Ave neighs/atom = 31.4247
Neighbor list builds = 9505
Dangerous builds not checked
Setting up Verlet run ...
  Unit style    : metal
  Current step  : 270000
  Time step     : 0.001
Per MPI rank memory allocation (min/avg/max) = 11.34 | 11.34 | 11.35 Mbytes
Step Temp Press TotEng PotEng Enthalpy 
  270000    1295.0374   -28.512362   -79462.895   -82752.408   -79477.009 
  270495    1256.5239      11.9659   -79596.217   -82787.903     -79590.3 
Loop time of 35.4767 on 2 procs for 495 steps with 19652 atoms

Performance: 1.206 ns/day, 19.908 hours/ns, 13.953 timesteps/s
79.2% CPU use with 2 MPI tasks x no OpenMP threads

MPI task timing breakdown:
Section |  min time  |  avg time  |  max time  |%varavg| %total
---------------------------------------------------------------
Pair    | 17.33      | 17.512     | 17.695     |   4.4 | 49.36
Neigh   | 13.663     | 13.974     | 14.284     |   8.3 | 39.39
Comm    | 2.9093     | 3.0353     | 3.1613     |   7.2 |  8.56
Output  | 8.7976e-05 | 0.00016904 | 0.0002501  |   0.0 |  0.00
Modify  | 0.77706    | 0.78059    | 0.78412    |   0.4 |  2.20
Other   |            | 0.1747     |            |       |  0.49

Nlocal:    9826 ave 9840 max 9812 min
Histogram: 1 0 0 0 0 0 0 0 0 1
Nghost:    9002.5 ave 9019 max 8986 min
Histogram: 1 0 0 0 0 0 0 0 0 1
Neighs:    309103 ave 311170 max 307036 min
Histogram: 1 0 0 0 0 0 0 0 0 1

Total # of neighbors = 618206
Ave neighs/atom = 31.4577
Neighbor list builds = 495
Dangerous builds not checked
Setting up Verlet run ...
  Unit style    : metal
  Current step  : 270495
  Time step     : 0.001
Per MPI rank memory allocation (min/avg/max) = 11.34 | 11.34 | 11.35 Mbytes
Step Temp Press TotEng PotEng Enthalpy 
  270495    1256.5239      11.9659   -79596.217   -82787.903     -79590.3 
  280000    1253.0907   -278.54229    -79676.06   -82859.025   -79813.858 
Loop time of 655.028 on 2 procs for 9505 steps with 19652 atoms

Performance: 1.254 ns/day, 19.143 hours/ns, 14.511 timesteps/s
81.6% CPU use with 2 MPI tasks x no OpenMP threads

MPI task timing breakdown:
Section |  min time  |  avg time  |  max time  |%varavg| %total
---------------------------------------------------------------
Pair    | 326.13     | 328.6      | 331.07     |  13.6 | 50.17
Neigh   | 260.57     | 260.96     | 261.36     |   2.4 | 39.84
Comm    | 47.505     | 49.409     | 51.313     |  27.1 |  7.54
Output  | 0.037      | 0.037036   | 0.037072   |   0.0 |  0.01
Modify  | 12.987     | 13.092     | 13.197     |   2.9 |  2.00
Other   |            | 2.928      |            |       |  0.45

Nlocal:    9826 ave 9838 max 9814 min
Histogram: 1 0 0 0 0 0 0 0 0 1
Nghost:    8994.5 ave 9008 max 8981 min
Histogram: 1 0 0 0 0 0 0 0 0 1
Neighs:    308928 ave 312203 max 305654 min
Histogram: 1 0 0 0 0 0 0 0 0 1

Total # of neighbors = 617857
Ave neighs/atom = 31.4399
Neighbor list builds = 9505
Dangerous builds not checked
Setting up Verlet run ...
  Unit style    : metal
  Current step  : 280000
  Time step     : 0.001
Per MPI rank memory allocation (min/avg/max) = 11.35 | 11.35 | 11.35 Mbytes
Step Temp Press TotEng PotEng Enthalpy 
  280000    1253.0907   -278.54229    -79676.06   -82859.025   -79813.858 
  280495    1215.4147   -185.67304   -79866.751   -82954.015   -79958.359 
Loop time of 32.2945 on 2 procs for 495 steps with 19652 atoms

Performance: 1.324 ns/day, 18.123 hours/ns, 15.328 timesteps/s
81.4% CPU use with 2 MPI tasks x no OpenMP threads

MPI task timing breakdown:
Section |  min time  |  avg time  |  max time  |%varavg| %total
---------------------------------------------------------------
Pair    | 16.14      | 16.174     | 16.207     |   0.8 | 50.08
Neigh   | 13.1       | 13.263     | 13.426     |   4.5 | 41.07
Comm    | 1.8686     | 2.0793     | 2.29       |  14.6 |  6.44
Output  | 8.7976e-05 | 0.00013757 | 0.00018716 |   0.0 |  0.00
Modify  | 0.61279    | 0.63158    | 0.65038    |   2.4 |  1.96
Other   |            | 0.1465     |            |       |  0.45

Nlocal:    9826 ave 9844 max 9808 min
Histogram: 1 0 0 0 0 0 0 0 0 1
Nghost:    9030 ave 9042 max 9018 min
Histogram: 1 0 0 0 0 0 0 0 0 1
Neighs:    309797 ave 312824 max 306770 min
Histogram: 1 0 0 0 0 0 0 0 0 1

Total # of neighbors = 619594
Ave neighs/atom = 31.5283
Neighbor list builds = 495
Dangerous builds not checked
Setting up Verlet run ...
  Unit style    : metal
  Current step  : 280495
  Time step     : 0.001
Per MPI rank memory allocation (min/avg/max) = 11.35 | 11.35 | 11.35 Mbytes
Step Temp Press TotEng PotEng Enthalpy 
  280495    1215.4147   -185.67304   -79866.751   -82954.015   -79958.359 
  290000    1209.6413    124.97392   -79900.816   -82973.416   -79839.221 
Loop time of 656.467 on 2 procs for 9505 steps with 19652 atoms

Performance: 1.251 ns/day, 19.185 hours/ns, 14.479 timesteps/s
80.9% CPU use with 2 MPI tasks x no OpenMP threads

MPI task timing breakdown:
Section |  min time  |  avg time  |  max time  |%varavg| %total
---------------------------------------------------------------
Pair    | 325.53     | 329.52     | 333.51     |  22.0 | 50.20
Neigh   | 260.72     | 262.22     | 263.71     |   9.2 | 39.94
Comm    | 46.462     | 49.032     | 51.602     |  36.7 |  7.47
Output  | 0.036834   | 0.036882   | 0.03693    |   0.0 |  0.01
Modify  | 12.626     | 12.66      | 12.693     |   0.9 |  1.93
Other   |            | 2.999      |            |       |  0.46

Nlocal:    9826 ave 9849 max 9803 min
Histogram: 1 0 0 0 0 0 0 0 0 1
Nghost:    9024.5 ave 9031 max 9018 min
Histogram: 1 0 0 0 0 0 0 0 0 1
Neighs:    309968 ave 311389 max 308547 min
Histogram: 1 0 0 0 0 0 0 0 0 1

Total # of neighbors = 619936
Ave neighs/atom = 31.5457
Neighbor list builds = 9505
Dangerous builds not checked
Setting up Verlet run ...
  Unit style    : metal
  Current step  : 290000
  Time step     : 0.001
Per MPI rank memory allocation (min/avg/max) = 11.35 | 11.35 | 11.35 Mbytes
Step Temp Press TotEng PotEng Enthalpy 
  290000    1209.6413    124.97392   -79900.816   -82973.416   -79839.221 
  290495    1168.9221    33.203853   -80125.143   -83094.311   -80108.813 
Loop time of 34.7627 on 2 procs for 495 steps with 19652 atoms

Performance: 1.230 ns/day, 19.508 hours/ns, 14.239 timesteps/s
79.6% CPU use with 2 MPI tasks x no OpenMP threads

MPI task timing breakdown:
Section |  min time  |  avg time  |  max time  |%varavg| %total
---------------------------------------------------------------
Pair    | 16.905     | 16.962     | 17.019     |   1.4 | 48.79
Neigh   | 13.708     | 13.724     | 13.74      |   0.4 | 39.48
Comm    | 3.0517     | 3.1122     | 3.1727     |   3.4 |  8.95
Output  | 7.0095e-05 | 0.006157   | 0.012244   |   7.8 |  0.02
Modify  | 0.78118    | 0.78474    | 0.7883     |   0.4 |  2.26
Other   |            | 0.1735     |            |       |  0.50

Nlocal:    9826 ave 9831 max 9821 min
Histogram: 1 0 0 0 0 0 0 0 0 1
Nghost:    9015 ave 9021 max 9009 min
Histogram: 1 0 0 0 0 0 0 0 0 1
Neighs:    310675 ave 312802 max 308548 min
Histogram: 1 0 0 0 0 0 0 0 0 1

Total # of neighbors = 621350
Ave neighs/atom = 31.6176
Neighbor list builds = 495
Dangerous builds not checked
Setting up Verlet run ...
  Unit style    : metal
  Current step  : 290495
  Time step     : 0.001
Per MPI rank memory allocation (min/avg/max) = 11.35 | 11.35 | 11.35 Mbytes
Step Temp Press TotEng PotEng Enthalpy 
  290495    1168.9221    33.203853   -80125.143   -83094.311   -80108.813 
  300000    1143.0551   -819.25723   -80220.017   -83123.481   -80623.894 
Loop time of 675.743 on 2 procs for 9505 steps with 19652 atoms

Performance: 1.215 ns/day, 19.748 hours/ns, 14.066 timesteps/s
88.3% CPU use with 2 MPI tasks x no OpenMP threads

MPI task timing breakdown:
Section |  min time  |  avg time  |  max time  |%varavg| %total
---------------------------------------------------------------
Pair    | 345.38     | 348.02     | 350.66     |  14.1 | 51.50
Neigh   | 256.72     | 261.9      | 267.08     |  32.0 | 38.76
Comm    | 40.995     | 49.025     | 57.054     | 114.7 |  7.25
Output  | 0.045591   | 0.045692   | 0.045793   |   0.0 |  0.01
Modify  | 13.101     | 13.266     | 13.431     |   4.5 |  1.96
Other   |            | 3.486      |            |       |  0.52

Nlocal:    9826 ave 9846 max 9806 min
Histogram: 1 0 0 0 0 0 0 0 0 1
Nghost:    9060 ave 9062 max 9058 min
Histogram: 1 0 0 0 0 0 0 0 0 1
Neighs:    309756 ave 313026 max 306487 min
Histogram: 1 0 0 0 0 0 0 0 0 1

Total # of neighbors = 619513
Ave neighs/atom = 31.5242
Neighbor list builds = 9505
Dangerous builds not checked
Setting up Verlet run ...
  Unit style    : metal
  Current step  : 300000
  Time step     : 0.001
Per MPI rank memory allocation (min/avg/max) = 11.35 | 11.35 | 11.35 Mbytes
Step Temp Press TotEng PotEng Enthalpy 
  300000    1143.0551   -819.25723   -80220.017   -83123.481   -80623.894 
  300495     1108.028   -195.26161   -80367.017   -83181.509   -80462.995 
Loop time of 34.2298 on 2 procs for 495 steps with 19652 atoms

[...]
Histogram: 1 0 0 0 0 0 0 0 0 1
Nghost:    9111.5 ave 9124 max 9099 min
Histogram: 1 0 0 0 0 0 0 0 0 1
Neighs:    319890 ave 322861 max 316918 min
Histogram: 1 0 0 0 0 0 0 0 0 1

Total # of neighbors = 639779
Ave neighs/atom = 32.5554
Neighbor list builds = 9505
Dangerous builds not checked
Setting up Verlet run ...
  Unit style    : metal
  Current step  : 440000
  Time step     : 0.001
Per MPI rank memory allocation (min/avg/max) = 11.35 | 11.35 | 11.35 Mbytes
Step Temp Press TotEng PotEng Enthalpy 
  440000    446.51382    370.56679   -84115.305    -85249.49   -83939.568 
  440495    420.62786    260.90054   -84250.859   -85319.292   -84127.203 
Loop time of 32.8326 on 2 procs for 495 steps with 19652 atoms

Performance: 1.303 ns/day, 18.425 hours/ns, 15.076 timesteps/s
94.6% CPU use with 2 MPI tasks x no OpenMP threads

MPI task timing breakdown:
Section |  min time  |  avg time  |  max time  |%varavg| %total
---------------------------------------------------------------
Pair    | 16.819     | 16.848     | 16.877     |   0.7 | 51.31
Neigh   | 13.233     | 13.46      | 13.686     |   6.2 | 41.00
Comm    | 1.3581     | 1.6219     | 1.8857     |  20.7 |  4.94
Output  | 0.00057817 | 0.00062752 | 0.00067687 |   0.0 |  0.00
Modify  | 0.70028    | 0.70811    | 0.71594    |   0.9 |  2.16
Other   |            | 0.1943     |            |       |  0.59

Nlocal:    9826 ave 9840 max 9812 min
Histogram: 1 0 0 0 0 0 0 0 0 1
Nghost:    9127 ave 9128 max 9126 min
Histogram: 1 0 0 0 0 0 0 0 0 1
Neighs:    320014 ave 323091 max 316938 min
Histogram: 1 0 0 0 0 0 0 0 0 1

Total # of neighbors = 640029
Ave neighs/atom = 32.5681
Neighbor list builds = 495
Dangerous builds not checked
Setting up Verlet run ...
  Unit style    : metal
  Current step  : 440495
  Time step     : 0.001
Per MPI rank memory allocation (min/avg/max) = 11.35 | 11.35 | 11.35 Mbytes
Step Temp Press TotEng PotEng Enthalpy 
  440495    420.62786    260.90054   -84250.859   -85319.292   -84127.203 
  450000    404.43007    313.07985   -84400.063   -85427.352   -84251.912 
Loop time of 664.284 on 2 procs for 9505 steps with 19652 atoms

Performance: 1.236 ns/day, 19.413 hours/ns, 14.309 timesteps/s
93.7% CPU use with 2 MPI tasks x no OpenMP threads

MPI task timing breakdown:
Section |  min time  |  avg time  |  max time  |%varavg| %total
---------------------------------------------------------------
Pair    | 341.02     | 344.29     | 347.56     |  17.6 | 51.83
Neigh   | 254.67     | 257.13     | 259.59     |  15.3 | 38.71
Comm    | 38.873     | 44.731     | 50.59      |  87.6 |  6.73
Output  | 0.042909   | 0.042977   | 0.043045   |   0.0 |  0.01
Modify  | 14.082     | 14.205     | 14.328     |   3.3 |  2.14
Other   |            | 3.884      |            |       |  0.58

Nlocal:    9826 ave 9833 max 9819 min
Histogram: 1 0 0 0 0 0 0 0 0 1
Nghost:    9143 ave 9155 max 9131 min
Histogram: 1 0 0 0 0 0 0 0 0 1
Neighs:    320294 ave 323045 max 317544 min
Histogram: 1 0 0 0 0 0 0 0 0 1

Total # of neighbors = 640589
Ave neighs/atom = 32.5966
Neighbor list builds = 9505
Dangerous builds not checked
Setting up Verlet run ...
  Unit style    : metal
  Current step  : 450000
  Time step     : 0.001
Per MPI rank memory allocation (min/avg/max) = 11.35 | 11.35 | 11.35 Mbytes
Step Temp Press TotEng PotEng Enthalpy 
  450000    404.43007    313.07985   -84400.063   -85427.352   -84251.912 
  450495    373.53989    303.50986   -84550.363   -85499.189   -84406.929 
Loop time of 34.8207 on 2 procs for 495 steps with 19652 atoms

Performance: 1.228 ns/day, 19.540 hours/ns, 14.216 timesteps/s
93.1% CPU use with 2 MPI tasks x no OpenMP threads

MPI task timing breakdown:
Section |  min time  |  avg time  |  max time  |%varavg| %total
---------------------------------------------------------------
Pair    | 17.485     | 17.768     | 18.051     |   6.7 | 51.03
Neigh   | 13.572     | 13.618     | 13.663     |   1.2 | 39.11
Comm    | 2.2139     | 2.4717     | 2.7296     |  16.4 |  7.10
Output  | 9.3937e-05 | 0.00014544 | 0.00019693 |   0.0 |  0.00
Modify  | 0.73442    | 0.75382    | 0.77322    |   2.2 |  2.16
Other   |            | 0.2096     |            |       |  0.60

Nlocal:    9826 ave 9844 max 9808 min
Histogram: 1 0 0 0 0 0 0 0 0 1
Nghost:    9178 ave 9191 max 9165 min
Histogram: 1 0 0 0 0 0 0 0 0 1
Neighs:    320660 ave 322802 max 318518 min
Histogram: 1 0 0 0 0 0 0 0 0 1

Total # of neighbors = 641320
Ave neighs/atom = 32.6338
Neighbor list builds = 495
Dangerous builds not checked
Setting up Verlet run ...
  Unit style    : metal
  Current step  : 450495
  Time step     : 0.001
Per MPI rank memory allocation (min/avg/max) = 11.35 | 11.35 | 11.35 Mbytes
Step Temp Press TotEng PotEng Enthalpy 
  450495    373.53989    303.50986   -84550.363   -85499.189   -84406.929 
  460000      352.573    279.25969    -84732.89   -85628.458   -84601.143 
Loop time of 664.707 on 2 procs for 9505 steps with 19652 atoms

Performance: 1.235 ns/day, 19.426 hours/ns, 14.300 timesteps/s
94.0% CPU use with 2 MPI tasks x no OpenMP threads

MPI task timing breakdown:
Section |  min time  |  avg time  |  max time  |%varavg| %total
---------------------------------------------------------------
Pair    | 337.73     | 341.33     | 344.92     |  19.5 | 51.35
Neigh   | 255.97     | 258.42     | 260.86     |  15.2 | 38.88
Comm    | 40.572     | 46.675     | 52.779     |  89.3 |  7.02
Output  | 0.084884   | 0.084935   | 0.084986   |   0.0 |  0.01
Modify  | 14.221     | 14.307     | 14.393     |   2.3 |  2.15
Other   |            | 3.898      |            |       |  0.59

Nlocal:    9826 ave 9840 max 9812 min
Histogram: 1 0 0 0 0 0 0 0 0 1
Nghost:    9171.5 ave 9204 max 9139 min
Histogram: 1 0 0 0 0 0 0 0 0 1
Neighs:    321016 ave 323208 max 318823 min
Histogram: 1 0 0 0 0 0 0 0 0 1

Total # of neighbors = 642031
Ave neighs/atom = 32.67
Neighbor list builds = 9505
Dangerous builds not checked
Setting up Verlet run ...
  Unit style    : metal
  Current step  : 460000
  Time step     : 0.001
Per MPI rank memory allocation (min/avg/max) = 11.35 | 11.35 | 11.35 Mbytes
Step Temp Press TotEng PotEng Enthalpy 
  460000      352.573    279.25969    -84732.89   -85628.458   -84601.143 
  460495     324.3813    206.48577    -84879.64   -85703.598   -84782.319 
Loop time of 34.7297 on 2 procs for 495 steps with 19652 atoms

Performance: 1.231 ns/day, 19.489 hours/ns, 14.253 timesteps/s
94.3% CPU use with 2 MPI tasks x no OpenMP threads

MPI task timing breakdown:
Section |  min time  |  avg time  |  max time  |%varavg| %total
---------------------------------------------------------------
Pair    | 17.785     | 17.965     | 18.145     |   4.3 | 51.73
Neigh   | 13.167     | 13.426     | 13.686     |   7.1 | 38.66
Comm    | 2.2249     | 2.3521     | 2.4794     |   8.3 |  6.77
Output  | 0.00011015 | 0.00018764 | 0.00026512 |   0.0 |  0.00
Modify  | 0.75479    | 0.78592    | 0.81706    |   3.5 |  2.26
Other   |            | 0.2002     |            |       |  0.58

Nlocal:    9826 ave 9828 max 9824 min
Histogram: 1 0 0 0 0 0 0 0 0 1
Nghost:    9229.5 ave 9244 max 9215 min
Histogram: 1 0 0 0 0 0 0 0 0 1
Neighs:    321354 ave 323917 max 318790 min
Histogram: 1 0 0 0 0 0 0 0 0 1

Total # of neighbors = 642707
Ave neighs/atom = 32.7044
Neighbor list builds = 495
Dangerous builds not checked
Setting up Verlet run ...
  Unit style    : metal
  Current step  : 460495
  Time step     : 0.001
Per MPI rank memory allocation (min/avg/max) = 11.35 | 11.35 | 11.35 Mbytes
Step Temp Press TotEng PotEng Enthalpy 
  460495     324.3813    206.48577    -84879.64   -85703.598   -84782.319 
  470000    297.28522    43.268397    -85077.49   -85832.622    -85057.13 
Loop time of 687.324 on 2 procs for 9505 steps with 19652 atoms

Performance: 1.195 ns/day, 20.087 hours/ns, 13.829 timesteps/s
92.2% CPU use with 2 MPI tasks x no OpenMP threads

MPI task timing breakdown:
Section |  min time  |  avg time  |  max time  |%varavg| %total
---------------------------------------------------------------
Pair    | 349.83     | 352.88     | 355.92     |  16.2 | 51.34
Neigh   | 261.09     | 262.85     | 264.61     |  10.9 | 38.24
Comm    | 46.791     | 51.654     | 56.517     |  67.7 |  7.52
Output  | 0.045489   | 0.045604   | 0.045719   |   0.1 |  0.01
Modify  | 15.822     | 15.885     | 15.949     |   1.6 |  2.31
Other   |            | 4.016      |            |       |  0.58

Nlocal:    9826 ave 9829 max 9823 min
Histogram: 1 0 0 0 0 0 0 0 0 1
Nghost:    9216 ave 9225 max 9207 min
Histogram: 1 0 0 0 0 0 0 0 0 1
Neighs:    321300 ave 324019 max 318582 min
Histogram: 1 0 0 0 0 0 0 0 0 1

Total # of neighbors = 642601
Ave neighs/atom = 32.699
Neighbor list builds = 9505
Dangerous builds not checked
Setting up Verlet run ...
  Unit style    : metal
  Current step  : 470000
  Time step     : 0.001
Per MPI rank memory allocation (min/avg/max) = 11.35 | 11.35 | 11.35 Mbytes
Step Temp Press TotEng PotEng Enthalpy 
  470000    297.28522    43.268397    -85077.49   -85832.622    -85057.13 
  470495    273.03632   -1.9312086   -85204.331   -85897.868   -85205.239 
Loop time of 33.8501 on 2 procs for 495 steps with 19652 atoms

Performance: 1.263 ns/day, 18.996 hours/ns, 14.623 timesteps/s
92.7% CPU use with 2 MPI tasks x no OpenMP threads

MPI task timing breakdown:
Section |  min time  |  avg time  |  max time  |%varavg| %total
---------------------------------------------------------------
Pair    | 17.098     | 17.533     | 17.968     |  10.4 | 51.80
Neigh   | 13.07      | 13.384     | 13.698     |   8.6 | 39.54
Comm    | 1.9278     | 2.0522     | 2.1766     |   8.7 |  6.06
Output  | 0.00017214 | 0.00043011 | 0.00068808 |   0.0 |  0.00
Modify  | 0.6629     | 0.67459    | 0.68628    |   1.4 |  1.99
Other   |            | 0.2053     |            |       |  0.61

Nlocal:    9826 ave 9838 max 9814 min
Histogram: 1 0 0 0 0 0 0 0 0 1
Nghost:    9220 ave 9254 max 9186 min
Histogram: 1 0 0 0 0 0 0 0 0 1
Neighs:    321522 ave 324423 max 318622 min
Histogram: 1 0 0 0 0 0 0 0 0 1

Total # of neighbors = 643045
Ave neighs/atom = 32.7216
Neighbor list builds = 495
Dangerous builds not checked
Setting up Verlet run ...
  Unit style    : metal
  Current step  : 470495
  Time step     : 0.001
Per MPI rank memory allocation (min/avg/max) = 11.35 | 11.35 | 11.35 Mbytes
Step Temp Press TotEng PotEng Enthalpy 
  470495    273.03632   -1.9312086   -85204.331   -85897.868   -85205.239 
  480000    251.27266    289.65929   -85375.061   -86013.316   -85239.196 
Loop time of 664.088 on 2 procs for 9505 steps with 19652 atoms

Performance: 1.237 ns/day, 19.408 hours/ns, 14.313 timesteps/s
94.0% CPU use with 2 MPI tasks x no OpenMP threads

MPI task timing breakdown:
Section |  min time  |  avg time  |  max time  |%varavg| %total
---------------------------------------------------------------
Pair    | 339.82     | 342.42     | 345.02     |  14.1 | 51.56
Neigh   | 254.67     | 257.7      | 260.73     |  18.9 | 38.81
Comm    | 39.889     | 45.638     | 51.386     |  85.1 |  6.87
Output  | 0.040787   | 0.040819   | 0.040851   |   0.0 |  0.01
Modify  | 14.303     | 14.367     | 14.43      |   1.7 |  2.16
Other   |            | 3.921      |            |       |  0.59

Nlocal:    9826 ave 9835 max 9817 min
Histogram: 1 0 0 0 0 0 0 0 0 1
Nghost:    9213 ave 9225 max 9201 min
Histogram: 1 0 0 0 0 0 0 0 0 1
Neighs:    321974 ave 324985 max 318964 min
Histogram: 1 0 0 0 0 0 0 0 0 1

Total # of neighbors = 643949
Ave neighs/atom = 32.7676
Neighbor list builds = 9505
Dangerous builds not checked
Setting up Verlet run ...
  Unit style    : metal
  Current step  : 480000
  Time step     : 0.001
Per MPI rank memory allocation (min/avg/max) = 11.35 | 11.35 | 11.35 Mbytes
Step Temp Press TotEng PotEng Enthalpy 
  480000    251.27266    289.65929   -85375.061   -86013.316   -85239.196 
  480495    224.90477   -249.69632   -85510.105   -86081.384   -85627.287 
Loop time of 38.4966 on 2 procs for 495 steps with 19652 atoms

Performance: 1.111 ns/day, 21.603 hours/ns, 12.858 timesteps/s
86.6% CPU use with 2 MPI tasks x no OpenMP threads

MPI task timing breakdown:
Section |  min time  |  avg time  |  max time  |%varavg| %total
---------------------------------------------------------------
Pair    | 19.466     | 19.699     | 19.932     |   5.3 | 51.17
Neigh   | 13.524     | 13.814     | 14.103     |   7.8 | 35.88
Comm    | 3.2541     | 3.8277     | 4.4013     |  29.3 |  9.94
Output  | 8.7976e-05 | 0.00012553 | 0.00016308 |   0.0 |  0.00
Modify  | 0.90374    | 0.95102    | 0.99831    |   4.8 |  2.47
Other   |            | 0.2048     |            |       |  0.53

Nlocal:    9826 ave 9830 max 9822 min
Histogram: 1 0 0 0 0 0 0 0 0 1
Nghost:    9203 ave 9216 max 9190 min
Histogram: 1 0 0 0 0 0 0 0 0 1
Neighs:    322022 ave 325057 max 318986 min
Histogram: 1 0 0 0 0 0 0 0 0 1

Total # of neighbors = 644043
Ave neighs/atom = 32.7724
Neighbor list builds = 495
Dangerous builds not checked
Setting up Verlet run ...
  Unit style    : metal
  Current step  : 480495
  Time step     : 0.001
Per MPI rank memory allocation (min/avg/max) = 11.35 | 11.35 | 11.35 Mbytes
Step Temp Press TotEng PotEng Enthalpy 
  480495    224.90477   -249.69632   -85510.105   -86081.384   -85627.287 
  490000    201.43848   -151.25307   -85679.494   -86191.166   -85750.319 
Loop time of 667.145 on 2 procs for 9505 steps with 19652 atoms

Performance: 1.231 ns/day, 19.497 hours/ns, 14.247 timesteps/s
92.9% CPU use with 2 MPI tasks x no OpenMP threads

MPI task timing breakdown:
Section |  min time  |  avg time  |  max time  |%varavg| %total
---------------------------------------------------------------
Pair    | 341.21     | 341.88     | 342.55     |   3.6 | 51.24
Neigh   | 255.49     | 259.37     | 263.24     |  24.1 | 38.88
Comm    | 41.904     | 46.61      | 51.316     |  68.9 |  6.99
Output  | 0.051372   | 0.051374   | 0.051375   |   0.0 |  0.01
Modify  | 15.202     | 15.258     | 15.313     |   1.4 |  2.29
Other   |            | 3.983      |            |       |  0.60

Nlocal:    9826 ave 9831 max 9821 min
Histogram: 1 0 0 0 0 0 0 0 0 1
Nghost:    9202.5 ave 9206 max 9199 min
Histogram: 1 0 0 0 0 0 0 0 0 1
Neighs:    322530 ave 325133 max 319926 min
Histogram: 1 0 0 0 0 0 0 0 0 1

Total # of neighbors = 645059
Ave neighs/atom = 32.8241
Neighbor list builds = 9505
Dangerous builds not checked
Setting up Verlet run ...
  Unit style    : metal
  Current step  : 490000
  Time step     : 0.001
Per MPI rank memory allocation (min/avg/max) = 11.35 | 11.35 | 11.35 Mbytes
Step Temp Press TotEng PotEng Enthalpy 
  490000    201.43848   -151.25307   -85679.494   -86191.166   -85750.319 
  490495    176.44995   -125.16356   -85807.343   -86255.542   -85865.895 
Loop time of 33.3601 on 2 procs for 495 steps with 19652 atoms

Performance: 1.282 ns/day, 18.721 hours/ns, 14.838 timesteps/s
95.5% CPU use with 2 MPI tasks x no OpenMP threads

MPI task timing breakdown:
Section |  min time  |  avg time  |  max time  |%varavg| %total
---------------------------------------------------------------
Pair    | 16.203     | 16.581     | 16.959     |   9.3 | 49.70
Neigh   | 13.006     | 13.429     | 13.851     |  11.5 | 40.25
Comm    | 2.4205     | 2.4448     | 2.469      |   1.6 |  7.33
Output  | 0.00011492 | 0.00026155 | 0.00040817 |   0.0 |  0.00
Modify  | 0.68246    | 0.69973    | 0.717      |   2.1 |  2.10
Other   |            | 0.2059     |            |       |  0.62

Nlocal:    9826 ave 9834 max 9818 min
Histogram: 1 0 0 0 0 0 0 0 0 1
Nghost:    9209 ave 9215 max 9203 min
Histogram: 1 0 0 0 0 0 0 0 0 1
Neighs:    322624 ave 324880 max 320368 min
Histogram: 1 0 0 0 0 0 0 0 0 1

Total # of neighbors = 645248
Ave neighs/atom = 32.8337
Neighbor list builds = 495
Dangerous builds not checked
Setting up Verlet run ...
  Unit style    : metal
  Current step  : 490495
  Time step     : 0.001
Per MPI rank memory allocation (min/avg/max) = 11.35 | 11.35 | 11.35 Mbytes
Step Temp Press TotEng PotEng Enthalpy 
  490495    176.44995   -125.16356   -85807.343   -86255.542   -85865.895 
  500000     149.0849   -51.871989   -85980.031    -86358.72   -86004.251 
Loop time of 658.045 on 2 procs for 9505 steps with 19652 atoms

Performance: 1.248 ns/day, 19.231 hours/ns, 14.444 timesteps/s
92.9% CPU use with 2 MPI tasks x no OpenMP threads

MPI task timing breakdown:
Section |  min time  |  avg time  |  max time  |%varavg| %total
---------------------------------------------------------------
Pair    | 330.78     | 334.45     | 338.13     |  20.1 | 50.83
Neigh   | 253.68     | 254.6      | 255.52     |   5.8 | 38.69
Comm    | 44.977     | 49.675     | 54.372     |  66.6 |  7.55
Output  | 0.043877   | 0.043984   | 0.044091   |   0.1 |  0.01
Modify  | 15.138     | 15.262     | 15.387     |   3.2 |  2.32
Other   |            | 4.01       |            |       |  0.61

Nlocal:    9826 ave 9829 max 9823 min
Histogram: 1 0 0 0 0 0 0 0 0 1
Nghost:    9222.5 ave 9230 max 9215 min
Histogram: 1 0 0 0 0 0 0 0 0 1
Neighs:    323239 ave 325947 max 320531 min
Histogram: 1 0 0 0 0 0 0 0 0 1

Total # of neighbors = 646478
Ave neighs/atom = 32.8963
Neighbor list builds = 9505
Dangerous builds not checked
Setting up Verlet run ...
  Unit style    : metal
  Current step  : 500000
  Time step     : 0.001
Per MPI rank memory allocation (min/avg/max) = 11.35 | 11.35 | 11.35 Mbytes
Step Temp Press TotEng PotEng Enthalpy 
  500000     149.0849   -51.871989   -85980.031    -86358.72   -86004.251 
  500495    126.72954    42.130832   -86093.211   -86415.115   -86073.563 
Loop time of 32.0418 on 2 procs for 495 steps with 19652 atoms

Performance: 1.335 ns/day, 17.981 hours/ns, 15.449 timesteps/s
93.9% CPU use with 2 MPI tasks x no OpenMP threads

MPI task timing breakdown:
Section |  min time  |  avg time  |  max time  |%varavg| %total
---------------------------------------------------------------
Pair    | 15.937     | 16.259     | 16.581     |   8.0 | 50.74
Neigh   | 12.84      | 13.018     | 13.195     |   4.9 | 40.63
Comm    | 1.7507     | 1.8989     | 2.0471     |  10.8 |  5.93
Output  | 0.0001018  | 0.00019991 | 0.00029802 |   0.0 |  0.00
Modify  | 0.67378    | 0.67597    | 0.67815    |   0.3 |  2.11
Other   |            | 0.1901     |            |       |  0.59

Nlocal:    9826 ave 9827 max 9825 min
Histogram: 1 0 0 0 0 0 0 0 0 1
Nghost:    9213 ave 9214 max 9212 min
Histogram: 1 0 0 0 0 0 0 0 0 1
Neighs:    323662 ave 326428 max 320896 min
Histogram: 1 0 0 0 0 0 0 0 0 1

Total # of neighbors = 647324
Ave neighs/atom = 32.9393
Neighbor list builds = 495
Dangerous builds not checked
Setting up Verlet run ...
  Unit style    : metal
  Current step  : 500495
  Time step     : 0.001
Per MPI rank memory allocation (min/avg/max) = 11.35 | 11.35 | 11.35 Mbytes
Step Temp Press TotEng PotEng Enthalpy 
  500495    126.72954    42.130832   -86093.211   -86415.115   -86073.563 
  510000    100.07656    181.93864   -86254.981   -86509.185   -86170.292 
Loop time of 647.7 on 2 procs for 9505 steps with 19652 atoms

Performance: 1.268 ns/day, 18.929 hours/ns, 14.675 timesteps/s
93.7% CPU use with 2 MPI tasks x no OpenMP threads

MPI task timing breakdown:
Section |  min time  |  avg time  |  max time  |%varavg| %total
---------------------------------------------------------------
Pair    | 327.18     | 331.38     | 335.59     |  23.1 | 51.16
Neigh   | 249.15     | 251.36     | 253.57     |  13.9 | 38.81
Comm    | 44.425     | 46.394     | 48.364     |  28.9 |  7.16
Output  | 0.045825   | 0.045847   | 0.045868   |   0.0 |  0.01
Modify  | 14.492     | 14.512     | 14.533     |   0.5 |  2.24
Other   |            | 4.002      |            |       |  0.62

Nlocal:    9826 ave 9832 max 9820 min
Histogram: 1 0 0 0 0 0 0 0 0 1
Nghost:    9226 ave 9240 max 9212 min
Histogram: 1 0 0 0 0 0 0 0 0 1
Neighs:    324203 ave 326558 max 321848 min
Histogram: 1 0 0 0 0 0 0 0 0 1

Total # of neighbors = 648406
Ave neighs/atom = 32.9944
Neighbor list builds = 9505
Dangerous builds not checked
Total wall time: 10:17:59
