LAMMPS (12 Dec 2018)
Lattice spacing in x,y,z = 4 4 4
Created orthogonal box = (0 0 0) to (68 68 68)
  1 by 1 by 1 MPI processor grid
Created 19652 atoms
  Time spent = 0.00460196 secs
Setting atom values ...
  0 settings made for type/fraction
Neighbor list info ...
  update every 1 steps, delay 0 steps, check no
  max neighbors/atom: 2000, page size: 100000
  master list distance cutoff = 8.5
  ghost atom cutoff = 8.5
  binsize = 4.25, bins = 16 16 16
  1 neighbor lists, perpetual/occasional/extra = 1 0 0
  (1) pair eam/alloy, perpetual
      attributes: half, newton on
      pair build: half/bin/atomonly/newton
      stencil: half/bin/3d/newton
      bin: standard
Setting up Verlet run ...
  Unit style    : metal
  Current step  : 0
  Time step     : 0.001
Per MPI rank memory allocation (min/avg/max) = 18.19 | 18.19 | 18.19 Mbytes
Step Temp Press TotEng PotEng Enthalpy 
       0          300    269835.24   -20946.227   -21708.254    32009.758 
    1000    151.74281    268466.86   -20945.989    -21331.43    31741.448 
Loop time of 168.989 on 1 procs for 1000 steps with 19652 atoms

Performance: 0.511 ns/day, 46.941 hours/ns, 5.918 timesteps/s
99.3% CPU use with 1 MPI tasks x no OpenMP threads

MPI task timing breakdown:
Section |  min time  |  avg time  |  max time  |%varavg| %total
---------------------------------------------------------------
Pair    | 98.385     | 98.385     | 98.385     |   0.0 | 58.22
Neigh   | 68.101     | 68.101     | 68.101     |   0.0 | 40.30
Comm    | 1.5113     | 1.5113     | 1.5113     |   0.0 |  0.89
Output  | 0.00018096 | 0.00018096 | 0.00018096 |   0.0 |  0.00
Modify  | 0.51947    | 0.51947    | 0.51947    |   0.0 |  0.31
Other   |            | 0.4723     |            |       |  0.28

Nlocal:    19652 ave 19652 max 19652 min
Histogram: 1 0 0 0 0 0 0 0 0 0
Nghost:    20102 ave 20102 max 20102 min
Histogram: 1 0 0 0 0 0 0 0 0 0
Neighs:    1.57561e+06 ave 1.57561e+06 max 1.57561e+06 min
Histogram: 1 0 0 0 0 0 0 0 0 0

Total # of neighbors = 1575607
Ave neighs/atom = 80.1754
Neighbor list builds = 1000
Dangerous builds not checked
Setting up Verlet run ...
  Unit style    : metal
  Current step  : 1000
  Time step     : 0.001
Per MPI rank memory allocation (min/avg/max) = 18.19 | 18.19 | 18.19 Mbytes
Step Temp Press TotEng PotEng Enthalpy 
    1000    151.74281    268466.86   -20945.989    -21331.43    31741.448 
    2000     255.0804     313.7652   -28378.936   -29026.863   -28289.792 
Loop time of 149.346 on 1 procs for 1000 steps with 19652 atoms

Performance: 0.579 ns/day, 41.485 hours/ns, 6.696 timesteps/s
98.7% CPU use with 1 MPI tasks x no OpenMP threads

MPI task timing breakdown:
Section |  min time  |  avg time  |  max time  |%varavg| %total
---------------------------------------------------------------
Pair    | 80.79      | 80.79      | 80.79      |   0.0 | 54.10
Neigh   | 64.976     | 64.976     | 64.976     |   0.0 | 43.51
Comm    | 1.3323     | 1.3323     | 1.3323     |   0.0 |  0.89
Output  | 0.00019193 | 0.00019193 | 0.00019193 |   0.0 |  0.00
Modify  | 1.7592     | 1.7592     | 1.7592     |   0.0 |  1.18
Other   |            | 0.4872     |            |       |  0.33

Nlocal:    19652 ave 19652 max 19652 min
Histogram: 1 0 0 0 0 0 0 0 0 0
Nghost:    14808 ave 14808 max 14808 min
Histogram: 1 0 0 0 0 0 0 0 0 0
Neighs:    1.11783e+06 ave 1.11783e+06 max 1.11783e+06 min
Histogram: 1 0 0 0 0 0 0 0 0 0

Total # of neighbors = 1117833
Ave neighs/atom = 56.8814
Neighbor list builds = 1000
Dangerous builds not checked
Setting up Verlet run ...
  Unit style    : metal
  Current step  : 2000
  Time step     : 0.001
Per MPI rank memory allocation (min/avg/max) = 18.19 | 18.19 | 18.19 Mbytes
Step Temp Press TotEng PotEng Enthalpy 
    2000     255.0804     313.7652   -28378.936   -29026.863   -28289.792 
    5000    1072.2732    200.65966   -23156.167   -25879.839   -23092.688 
   10000    2444.0121    24.653327   -14221.004   -20429.018   -14210.988 
Loop time of 1004.84 on 1 procs for 8000 steps with 19652 atoms

Performance: 0.688 ns/day, 34.890 hours/ns, 7.961 timesteps/s
98.0% CPU use with 1 MPI tasks x no OpenMP threads

MPI task timing breakdown:
Section |  min time  |  avg time  |  max time  |%varavg| %total
---------------------------------------------------------------
Pair    | 534.18     | 534.18     | 534.18     |   0.0 | 53.16
Neigh   | 443.25     | 443.25     | 443.25     |   0.0 | 44.11
Comm    | 9.8735     | 9.8735     | 9.8735     |   0.0 |  0.98
Output  | 0.15699    | 0.15699    | 0.15699    |   0.0 |  0.02
Modify  | 13.499     | 13.499     | 13.499     |   0.0 |  1.34
Other   |            | 3.877      |            |       |  0.39

Nlocal:    19652 ave 19652 max 19652 min
Histogram: 1 0 0 0 0 0 0 0 0 0
Nghost:    14018 ave 14018 max 14018 min
Histogram: 1 0 0 0 0 0 0 0 0 0
Neighs:    753609 ave 753609 max 753609 min
Histogram: 1 0 0 0 0 0 0 0 0 0

Total # of neighbors = 753609
Ave neighs/atom = 38.3477
Neighbor list builds = 8000
Dangerous builds not checked
Setting up Verlet run ...
  Unit style    : metal
  Current step  : 10000
  Time step     : 0.001
Per MPI rank memory allocation (min/avg/max) = 18.2 | 18.2 | 18.2 Mbytes
Step Temp Press TotEng PotEng Enthalpy 
   10000    2444.0121    24.653327   -14221.004   -20429.018   -14210.988 
   15000     2455.813    578.39125    -13996.38   -20234.368   -13759.704 
   20000    2455.8799   -227.49014   -13956.285   -20194.444   -14050.226 
   25000    2448.6509    233.51191   -14062.478   -20282.274    -13966.87 
   30000    2447.9819    450.10594   -14071.016   -20289.113   -13886.997 
   35000    2450.3748   -677.98931   -13987.946   -20212.121   -14268.095 
   40000    2473.8915   -165.88951   -13877.921   -20161.831   -13946.556 
Loop time of 3646.51 on 1 procs for 30000 steps with 19652 atoms

Performance: 0.711 ns/day, 33.764 hours/ns, 8.227 timesteps/s
98.3% CPU use with 1 MPI tasks x no OpenMP threads

MPI task timing breakdown:
Section |  min time  |  avg time  |  max time  |%varavg| %total
---------------------------------------------------------------
Pair    | 1937.5     | 1937.5     | 1937.5     |   0.0 | 53.13
Neigh   | 1604.9     | 1604.9     | 1604.9     |   0.0 | 44.01
Comm    | 37.869     | 37.869     | 37.869     |   0.0 |  1.04
Output  | 0.49153    | 0.49153    | 0.49153    |   0.0 |  0.01
Modify  | 51.16      | 51.16      | 51.16      |   0.0 |  1.40
Other   |            | 14.6       |            |       |  0.40

Nlocal:    19652 ave 19652 max 19652 min
Histogram: 1 0 0 0 0 0 0 0 0 0
Nghost:    13912 ave 13912 max 13912 min
Histogram: 1 0 0 0 0 0 0 0 0 0
Neighs:    740614 ave 740614 max 740614 min
Histogram: 1 0 0 0 0 0 0 0 0 0

Total # of neighbors = 740614
Ave neighs/atom = 37.6864
Neighbor list builds = 30000
Dangerous builds not checked
Setting up Verlet run ...
  Unit style    : metal
  Current step  : 40000
  Time step     : 0.001
Per MPI rank memory allocation (min/avg/max) = 18.2 | 18.2 | 18.2 Mbytes
Step Temp Press TotEng PotEng Enthalpy 
   40000    2473.8915   -165.88951   -13877.921   -20161.831   -13946.556 
   40495    2414.1554    52.032225    -14182.25   -20314.425   -14160.939 
Loop time of 55.3277 on 1 procs for 495 steps with 19652 atoms

Performance: 0.773 ns/day, 31.048 hours/ns, 8.947 timesteps/s
99.9% CPU use with 1 MPI tasks x no OpenMP threads

MPI task timing breakdown:
Section |  min time  |  avg time  |  max time  |%varavg| %total
---------------------------------------------------------------
Pair    | 28.603     | 28.603     | 28.603     |   0.0 | 51.70
Neigh   | 25.068     | 25.068     | 25.068     |   0.0 | 45.31
Comm    | 0.60457    | 0.60457    | 0.60457    |   0.0 |  1.09
Output  | 0.00019789 | 0.00019789 | 0.00019789 |   0.0 |  0.00
Modify  | 0.80823    | 0.80823    | 0.80823    |   0.0 |  1.46
Other   |            | 0.2437     |            |       |  0.44

Nlocal:    19652 ave 19652 max 19652 min
Histogram: 1 0 0 0 0 0 0 0 0 0
Nghost:    13985 ave 13985 max 13985 min
Histogram: 1 0 0 0 0 0 0 0 0 0
Neighs:    748115 ave 748115 max 748115 min
Histogram: 1 0 0 0 0 0 0 0 0 0

Total # of neighbors = 748115
Ave neighs/atom = 38.0681
Neighbor list builds = 495
Dangerous builds not checked
Setting up Verlet run ...
  Unit style    : metal
  Current step  : 40495
  Time step     : 0.001
Per MPI rank memory allocation (min/avg/max) = 18.2 | 18.2 | 18.2 Mbytes
Step Temp Press TotEng PotEng Enthalpy 
   40495    2414.1554    52.032225    -14182.25   -20314.425   -14160.939 
   45000    2397.7333     17.61519   -14300.007   -20390.468   -14292.823 
Loop time of 554.356 on 1 procs for 4505 steps with 19652 atoms

Performance: 0.702 ns/day, 34.182 hours/ns, 8.127 timesteps/s
98.8% CPU use with 1 MPI tasks x no OpenMP threads

MPI task timing breakdown:
Section |  min time  |  avg time  |  max time  |%varavg| %total
---------------------------------------------------------------
Pair    | 298.36     | 298.36     | 298.36     |   0.0 | 53.82
Neigh   | 240.13     | 240.13     | 240.13     |   0.0 | 43.32
Comm    | 5.7211     | 5.7211     | 5.7211     |   0.0 |  1.03
Output  | 0.085043   | 0.085043   | 0.085043   |   0.0 |  0.02
Modify  | 7.7527     | 7.7527     | 7.7527     |   0.0 |  1.40
Other   |            | 2.306      |            |       |  0.42

Nlocal:    19652 ave 19652 max 19652 min
Histogram: 1 0 0 0 0 0 0 0 0 0
Nghost:    13837 ave 13837 max 13837 min
Histogram: 1 0 0 0 0 0 0 0 0 0
Neighs:    751667 ave 751667 max 751667 min
Histogram: 1 0 0 0 0 0 0 0 0 0

Total # of neighbors = 751667
Ave neighs/atom = 38.2489
Neighbor list builds = 4505
Dangerous builds not checked
Setting up Verlet run ...
  Unit style    : metal
  Current step  : 45000
  Time step     : 0.001
Per MPI rank memory allocation (min/avg/max) = 18.2 | 18.2 | 18.2 Mbytes
Step Temp Press TotEng PotEng Enthalpy 
   45000    2397.7333     17.61519   -14300.007   -20390.468   -14292.823 
   45495    2365.9238   -41.819571     -14496.1   -20505.762   -14513.039 
Loop time of 60.14 on 1 procs for 495 steps with 19652 atoms

Performance: 0.711 ns/day, 33.749 hours/ns, 8.231 timesteps/s
99.5% CPU use with 1 MPI tasks x no OpenMP threads

MPI task timing breakdown:
Section |  min time  |  avg time  |  max time  |%varavg| %total
---------------------------------------------------------------
Pair    | 31.934     | 31.934     | 31.934     |   0.0 | 53.10
Neigh   | 26.392     | 26.392     | 26.392     |   0.0 | 43.88
Comm    | 0.63818    | 0.63818    | 0.63818    |   0.0 |  1.06
Output  | 0.00017715 | 0.00017715 | 0.00017715 |   0.0 |  0.00
Modify  | 0.91392    | 0.91392    | 0.91392    |   0.0 |  1.52
Other   |            | 0.2612     |            |       |  0.43

Nlocal:    19652 ave 19652 max 19652 min
Histogram: 1 0 0 0 0 0 0 0 0 0
Nghost:    13961 ave 13961 max 13961 min
Histogram: 1 0 0 0 0 0 0 0 0 0
Neighs:    756251 ave 756251 max 756251 min
Histogram: 1 0 0 0 0 0 0 0 0 0

Total # of neighbors = 756251
Ave neighs/atom = 38.4821
Neighbor list builds = 495
Dangerous builds not checked
Setting up Verlet run ...
  Unit style    : metal
  Current step  : 45495
  Time step     : 0.001
Per MPI rank memory allocation (min/avg/max) = 18.2 | 18.2 | 18.2 Mbytes
Step Temp Press TotEng PotEng Enthalpy 
   45495    2365.9238   -41.819571     -14496.1   -20505.762   -14513.039 
   50000    2344.2809   -587.66427   -14644.581   -20599.269   -14881.542 
Loop time of 560.194 on 1 procs for 4505 steps with 19652 atoms

Performance: 0.695 ns/day, 34.542 hours/ns, 8.042 timesteps/s
98.7% CPU use with 1 MPI tasks x no OpenMP threads

MPI task timing breakdown:
Section |  min time  |  avg time  |  max time  |%varavg| %total
---------------------------------------------------------------
Pair    | 301.39     | 301.39     | 301.39     |   0.0 | 53.80
Neigh   | 242.82     | 242.82     | 242.82     |   0.0 | 43.35
Comm    | 5.8449     | 5.8449     | 5.8449     |   0.0 |  1.04
Output  | 0.087992   | 0.087992   | 0.087992   |   0.0 |  0.02
Modify  | 7.8073     | 7.8073     | 7.8073     |   0.0 |  1.39
Other   |            | 2.244      |            |       |  0.40

Nlocal:    19652 ave 19652 max 19652 min
Histogram: 1 0 0 0 0 0 0 0 0 0
Nghost:    13955 ave 13955 max 13955 min
Histogram: 1 0 0 0 0 0 0 0 0 0
Neighs:    759522 ave 759522 max 759522 min
Histogram: 1 0 0 0 0 0 0 0 0 0

Total # of neighbors = 759522
Ave neighs/atom = 38.6486
Neighbor list builds = 4505
Dangerous builds not checked
Setting up Verlet run ...
  Unit style    : metal
  Current step  : 50000
  Time step     : 0.001
Per MPI rank memory allocation (min/avg/max) = 18.2 | 18.2 | 18.2 Mbytes
Step Temp Press TotEng PotEng Enthalpy 
   50000    2344.2809   -587.66427   -14644.581   -20599.269   -14881.542 
   50495     2321.064   -31.713888   -14889.334   -20785.048   -14901.983 
Loop time of 57.1144 on 1 procs for 495 steps with 19652 atoms

Performance: 0.749 ns/day, 32.051 hours/ns, 8.667 timesteps/s
98.5% CPU use with 1 MPI tasks x no OpenMP threads

MPI task timing breakdown:
Section |  min time  |  avg time  |  max time  |%varavg| %total
---------------------------------------------------------------
Pair    | 30.115     | 30.115     | 30.115     |   0.0 | 52.73
Neigh   | 25.247     | 25.247     | 25.247     |   0.0 | 44.20
Comm    | 0.62738    | 0.62738    | 0.62738    |   0.0 |  1.10
Output  | 0.00017595 | 0.00017595 | 0.00017595 |   0.0 |  0.00
Modify  | 0.87371    | 0.87371    | 0.87371    |   0.0 |  1.53
Other   |            | 0.251      |            |       |  0.44

Nlocal:    19652 ave 19652 max 19652 min
Histogram: 1 0 0 0 0 0 0 0 0 0
Nghost:    14132 ave 14132 max 14132 min
Histogram: 1 0 0 0 0 0 0 0 0 0
Neighs:    768214 ave 768214 max 768214 min
Histogram: 1 0 0 0 0 0 0 0 0 0

Total # of neighbors = 768214
Ave neighs/atom = 39.0909
Neighbor list builds = 495
Dangerous builds not checked
Setting up Verlet run ...
  Unit style    : metal
  Current step  : 50495
  Time step     : 0.001
Per MPI rank memory allocation (min/avg/max) = 18.2 | 18.2 | 18.2 Mbytes
Step Temp Press TotEng PotEng Enthalpy 
   50495     2321.064   -31.713888   -14889.334   -20785.048   -14901.983 
   55000     2308.898   -167.19811   -14958.117   -20822.928   -15024.585 
Loop time of 572.923 on 1 procs for 4505 steps with 19652 atoms

Performance: 0.679 ns/day, 35.326 hours/ns, 7.863 timesteps/s
99.4% CPU use with 1 MPI tasks x no OpenMP threads

MPI task timing breakdown:
Section |  min time  |  avg time  |  max time  |%varavg| %total
---------------------------------------------------------------
Pair    | 309.44     | 309.44     | 309.44     |   0.0 | 54.01
Neigh   | 247.2      | 247.2      | 247.2      |   0.0 | 43.15
Comm    | 5.8675     | 5.8675     | 5.8675     |   0.0 |  1.02
Output  | 0.085258   | 0.085258   | 0.085258   |   0.0 |  0.01
Modify  | 7.989      | 7.989      | 7.989      |   0.0 |  1.39
Other   |            | 2.339      |            |       |  0.41

Nlocal:    19652 ave 19652 max 19652 min
Histogram: 1 0 0 0 0 0 0 0 0 0
Nghost:    14003 ave 14003 max 14003 min
Histogram: 1 0 0 0 0 0 0 0 0 0
Neighs:    770223 ave 770223 max 770223 min
Histogram: 1 0 0 0 0 0 0 0 0 0

Total # of neighbors = 770223
Ave neighs/atom = 39.1931
Neighbor list builds = 4505
Dangerous builds not checked
Setting up Verlet run ...
  Unit style    : metal
  Current step  : 55000
  Time step     : 0.001
Per MPI rank memory allocation (min/avg/max) = 18.2 | 18.2 | 18.2 Mbytes
Step Temp Press TotEng PotEng Enthalpy 
   55000     2308.898   -167.19811   -14958.117   -20822.928   -15024.585 
   55495    2265.9502   -542.91528   -15185.019   -20940.739   -15400.068 
Loop time of 63.7414 on 1 procs for 495 steps with 19652 atoms

Performance: 0.671 ns/day, 35.770 hours/ns, 7.766 timesteps/s
99.8% CPU use with 1 MPI tasks x no OpenMP threads

MPI task timing breakdown:
Section |  min time  |  avg time  |  max time  |%varavg| %total
---------------------------------------------------------------
Pair    | 34.693     | 34.693     | 34.693     |   0.0 | 54.43
Neigh   | 27.17      | 27.17      | 27.17      |   0.0 | 42.63
Comm    | 0.66804    | 0.66804    | 0.66804    |   0.0 |  1.05
Output  | 0.00019193 | 0.00019193 | 0.00019193 |   0.0 |  0.00
Modify  | 0.93662    | 0.93662    | 0.93662    |   0.0 |  1.47
Other   |            | 0.274      |            |       |  0.43

Nlocal:    19652 ave 19652 max 19652 min
Histogram: 1 0 0 0 0 0 0 0 0 0
Nghost:    14044 ave 14044 max 14044 min
Histogram: 1 0 0 0 0 0 0 0 0 0
Neighs:    773199 ave 773199 max 773199 min
Histogram: 1 0 0 0 0 0 0 0 0 0

Total # of neighbors = 773199
Ave neighs/atom = 39.3445
Neighbor list builds = 495
Dangerous builds not checked
Setting up Verlet run ...
  Unit style    : metal
  Current step  : 55495
  Time step     : 0.001
Per MPI rank memory allocation (min/avg/max) = 18.2 | 18.2 | 18.2 Mbytes
Step Temp Press TotEng PotEng Enthalpy 
   55495    2265.9502   -542.91528   -15185.019   -20940.739   -15400.068 
   60000     2269.792   -325.78052   -15202.079   -20967.558   -15330.949 
Loop time of 580.221 on 1 procs for 4505 steps with 19652 atoms

Performance: 0.671 ns/day, 35.776 hours/ns, 7.764 timesteps/s
99.4% CPU use with 1 MPI tasks x no OpenMP threads

MPI task timing breakdown:
Section |  min time  |  avg time  |  max time  |%varavg| %total
---------------------------------------------------------------
Pair    | 313.32     | 313.32     | 313.32     |   0.0 | 54.00
Neigh   | 250.5      | 250.5      | 250.5      |   0.0 | 43.17
Comm    | 6.0912     | 6.0912     | 6.0912     |   0.0 |  1.05
Output  | 0.084697   | 0.084697   | 0.084697   |   0.0 |  0.01
Modify  | 7.8863     | 7.8863     | 7.8863     |   0.0 |  1.36
Other   |            | 2.335      |            |       |  0.40

Nlocal:    19652 ave 19652 max 19652 min
Histogram: 1 0 0 0 0 0 0 0 0 0
Nghost:    14097 ave 14097 max 14097 min
Histogram: 1 0 0 0 0 0 0 0 0 0
Neighs:    774218 ave 774218 max 774218 min
Histogram: 1 0 0 0 0 0 0 0 0 0

Total # of neighbors = 774218
Ave neighs/atom = 39.3964
Neighbor list builds = 4505
Dangerous builds not checked
Setting up Verlet run ...
  Unit style    : metal
  Current step  : 60000
  Time step     : 0.001
Per MPI rank memory allocation (min/avg/max) = 18.2 | 18.2 | 18.2 Mbytes
Step Temp Press TotEng PotEng Enthalpy 
   60000     2269.792   -325.78052   -15202.079   -20967.558   -15330.949 
   60495    2214.1903    33.279203   -15466.952   -21091.197   -15453.922 
Loop time of 64.564 on 1 procs for 495 steps with 19652 atoms

Performance: 0.662 ns/day, 36.231 hours/ns, 7.667 timesteps/s
92.2% CPU use with 1 MPI tasks x no OpenMP threads

MPI task timing breakdown:
Section |  min time  |  avg time  |  max time  |%varavg| %total
---------------------------------------------------------------
Pair    | 34.732     | 34.732     | 34.732     |   0.0 | 53.79
Neigh   | 27.892     | 27.892     | 27.892     |   0.0 | 43.20
Comm    | 0.66878    | 0.66878    | 0.66878    |   0.0 |  1.04
Output  | 0.00020194 | 0.00020194 | 0.00020194 |   0.0 |  0.00
Modify  | 0.99385    | 0.99385    | 0.99385    |   0.0 |  1.54
Other   |            | 0.2766     |            |       |  0.43

Nlocal:    19652 ave 19652 max 19652 min
Histogram: 1 0 0 0 0 0 0 0 0 0
Nghost:    14196 ave 14196 max 14196 min
Histogram: 1 0 0 0 0 0 0 0 0 0
Neighs:    782310 ave 782310 max 782310 min
Histogram: 1 0 0 0 0 0 0 0 0 0

Total # of neighbors = 782310
Ave neighs/atom = 39.8082
Neighbor list builds = 495
Dangerous builds not checked
Setting up Verlet run ...
  Unit style    : metal
  Current step  : 60495
  Time step     : 0.001
Per MPI rank memory allocation (min/avg/max) = 18.2 | 18.2 | 18.2 Mbytes
Step Temp Press TotEng PotEng Enthalpy 
   60495    2214.1903    33.279203   -15466.952   -21091.197   -15453.922 
   65000    2198.3065    -206.2196   -15730.947   -21314.846   -15810.785 
Loop time of 536.196 on 1 procs for 4505 steps with 19652 atoms

Performance: 0.726 ns/day, 33.062 hours/ns, 8.402 timesteps/s
98.8% CPU use with 1 MPI tasks x no OpenMP threads

MPI task timing breakdown:
Section |  min time  |  avg time  |  max time  |%varavg| %total
---------------------------------------------------------------
Pair    | 282.36     | 282.36     | 282.36     |   0.0 | 52.66
Neigh   | 238.19     | 238.19     | 238.19     |   0.0 | 44.42
Comm    | 5.768      | 5.768      | 5.768      |   0.0 |  1.08
Output  | 0.091039   | 0.091039   | 0.091039   |   0.0 |  0.02
Modify  | 7.5096     | 7.5096     | 7.5096     |   0.0 |  1.40
Other   |            | 2.284      |            |       |  0.43

Nlocal:    19652 ave 19652 max 19652 min
Histogram: 1 0 0 0 0 0 0 0 0 0
Nghost:    14139 ave 14139 max 14139 min
Histogram: 1 0 0 0 0 0 0 0 0 0
Neighs:    790920 ave 790920 max 790920 min
Histogram: 1 0 0 0 0 0 0 0 0 0

Total # of neighbors = 790920
Ave neighs/atom = 40.2463
Neighbor list builds = 4505
Dangerous builds not checked
Setting up Verlet run ...
  Unit style    : metal
  Current step  : 65000
  Time step     : 0.001
Per MPI rank memory allocation (min/avg/max) = 18.2 | 18.2 | 18.2 Mbytes
Step Temp Press TotEng PotEng Enthalpy 
   65000    2198.3065    -206.2196   -15730.947   -21314.846   -15810.785 
   65495    2144.2425   -381.64479   -15865.365   -21311.936   -16013.283 
Loop time of 54.2711 on 1 procs for 495 steps with 19652 atoms

Performance: 0.788 ns/day, 30.455 hours/ns, 9.121 timesteps/s
97.2% CPU use with 1 MPI tasks x no OpenMP threads

MPI task timing breakdown:
Section |  min time  |  avg time  |  max time  |%varavg| %total
---------------------------------------------------------------
Pair    | 28.484     | 28.484     | 28.484     |   0.0 | 52.48
Neigh   | 24.136     | 24.136     | 24.136     |   0.0 | 44.47
Comm    | 0.59438    | 0.59438    | 0.59438    |   0.0 |  1.10
Output  | 0.00016093 | 0.00016093 | 0.00016093 |   0.0 |  0.00
Modify  | 0.809      | 0.809      | 0.809      |   0.0 |  1.49
Other   |            | 0.2479     |            |       |  0.46

Nlocal:    19652 ave 19652 max 19652 min
Histogram: 1 0 0 0 0 0 0 0 0 0
Nghost:    14112 ave 14112 max 14112 min
Histogram: 1 0 0 0 0 0 0 0 0 0
Neighs:    790660 ave 790660 max 790660 min
Histogram: 1 0 0 0 0 0 0 0 0 0

Total # of neighbors = 790660
Ave neighs/atom = 40.2331
Neighbor list builds = 495
Dangerous builds not checked
Setting up Verlet run ...
  Unit style    : metal
  Current step  : 65495
  Time step     : 0.001
Per MPI rank memory allocation (min/avg/max) = 18.2 | 18.2 | 18.2 Mbytes
Step Temp Press TotEng PotEng Enthalpy 
   65495    2144.2425   -381.64479   -15865.365   -21311.936   -16013.283 
   70000    2164.5207    456.73973    -15920.73    -21418.81   -15745.303 
Loop time of 538.391 on 1 procs for 4505 steps with 19652 atoms

Performance: 0.723 ns/day, 33.197 hours/ns, 8.368 timesteps/s
98.1% CPU use with 1 MPI tasks x no OpenMP threads

MPI task timing breakdown:
Section |  min time  |  avg time  |  max time  |%varavg| %total
---------------------------------------------------------------
Pair    | 285.56     | 285.56     | 285.56     |   0.0 | 53.04
Neigh   | 237.55     | 237.55     | 237.55     |   0.0 | 44.12
Comm    | 5.5426     | 5.5426     | 5.5426     |   0.0 |  1.03
Output  | 0.1543     | 0.1543     | 0.1543     |   0.0 |  0.03
Modify  | 7.4047     | 7.4047     | 7.4047     |   0.0 |  1.38
Other   |            | 2.176      |            |       |  0.40

Nlocal:    19652 ave 19652 max 19652 min
Histogram: 1 0 0 0 0 0 0 0 0 0
Nghost:    14273 ave 14273 max 14273 min
Histogram: 1 0 0 0 0 0 0 0 0 0
Neighs:    797241 ave 797241 max 797241 min
Histogram: 1 0 0 0 0 0 0 0 0 0

Total # of neighbors = 797241
Ave neighs/atom = 40.5679
Neighbor list builds = 4505
Dangerous builds not checked
Setting up Verlet run ...
  Unit style    : metal
  Current step  : 70000
  Time step     : 0.001
Per MPI rank memory allocation (min/avg/max) = 18.22 | 18.22 | 18.22 Mbytes
Step Temp Press TotEng PotEng Enthalpy 
   70000    2164.5207    456.73973    -15920.73    -21418.81   -15745.303 
   70495    2109.8463   -141.82211   -16154.254   -21513.456   -16208.593 
Loop time of 56.5548 on 1 procs for 495 steps with 19652 atoms

Performance: 0.756 ns/day, 31.737 hours/ns, 8.753 timesteps/s
95.7% CPU use with 1 MPI tasks x no OpenMP threads

MPI task timing breakdown:
Section |  min time  |  avg time  |  max time  |%varavg| %total
---------------------------------------------------------------
Pair    | 29.122     | 29.122     | 29.122     |   0.0 | 51.49
Neigh   | 25.769     | 25.769     | 25.769     |   0.0 | 45.56
Comm    | 0.59888    | 0.59888    | 0.59888    |   0.0 |  1.06
Output  | 0.00024605 | 0.00024605 | 0.00024605 |   0.0 |  0.00
Modify  | 0.83078    | 0.83078    | 0.83078    |   0.0 |  1.47
Other   |            | 0.2347     |            |       |  0.42

Nlocal:    19652 ave 19652 max 19652 min
Histogram: 1 0 0 0 0 0 0 0 0 0
Nghost:    14323 ave 14323 max 14323 min
Histogram: 1 0 0 0 0 0 0 0 0 0
Neighs:    799138 ave 799138 max 799138 min
Histogram: 1 0 0 0 0 0 0 0 0 0

Total # of neighbors = 799138
Ave neighs/atom = 40.6645
Neighbor list builds = 495
Dangerous builds not checked
Setting up Verlet run ...
  Unit style    : metal
  Current step  : 70495
  Time step     : 0.001
Per MPI rank memory allocation (min/avg/max) = 18.22 | 18.22 | 18.22 Mbytes
Step Temp Press TotEng PotEng Enthalpy 
   70495    2109.8463   -141.82211   -16154.254   -21513.456   -16208.593 
   75000    2076.0414   -980.64956   -16307.411   -21580.746   -16683.719 
Loop time of 552.588 on 1 procs for 4505 steps with 19652 atoms

Performance: 0.704 ns/day, 34.073 hours/ns, 8.153 timesteps/s
99.5% CPU use with 1 MPI tasks x no OpenMP threads

MPI task timing breakdown:
Section |  min time  |  avg time  |  max time  |%varavg| %total
---------------------------------------------------------------
Pair    | 287.56     | 287.56     | 287.56     |   0.0 | 52.04
Neigh   | 249.71     | 249.71     | 249.71     |   0.0 | 45.19
Comm    | 5.4862     | 5.4862     | 5.4862     |   0.0 |  0.99
Output  | 0.081201   | 0.081201   | 0.081201   |   0.0 |  0.01
Modify  | 7.6108     | 7.6108     | 7.6108     |   0.0 |  1.38
Other   |            | 2.135      |            |       |  0.39

Nlocal:    19652 ave 19652 max 19652 min
Histogram: 1 0 0 0 0 0 0 0 0 0
Nghost:    14320 ave 14320 max 14320 min
Histogram: 1 0 0 0 0 0 0 0 0 0
Neighs:    797901 ave 797901 max 797901 min
Histogram: 1 0 0 0 0 0 0 0 0 0

Total # of neighbors = 797901
Ave neighs/atom = 40.6015
Neighbor list builds = 4505
Dangerous builds not checked
Setting up Verlet run ...
  Unit style    : metal
  Current step  : 75000
  Time step     : 0.001
Per MPI rank memory allocation (min/avg/max) = 18.22 | 18.22 | 18.22 Mbytes
Step Temp Press TotEng PotEng Enthalpy 
   75000    2076.0414   -980.64956   -16307.411   -21580.746   -16683.719 
   75495    2071.3293    145.11574     -16426.2   -21687.566   -16371.151 
Loop time of 55.5301 on 1 procs for 495 steps with 19652 atoms

Performance: 0.770 ns/day, 31.162 hours/ns, 8.914 timesteps/s
100.0% CPU use with 1 MPI tasks x no OpenMP threads

MPI task timing breakdown:
Section |  min time  |  avg time  |  max time  |%varavg| %total
---------------------------------------------------------------
Pair    | 28.34      | 28.34      | 28.34      |   0.0 | 51.04
Neigh   | 25.616     | 25.616     | 25.616     |   0.0 | 46.13
Comm    | 0.55906    | 0.55906    | 0.55906    |   0.0 |  1.01
Output  | 0.00016594 | 0.00016594 | 0.00016594 |   0.0 |  0.00
Modify  | 0.79264    | 0.79264    | 0.79264    |   0.0 |  1.43
Other   |            | 0.2223     |            |       |  0.40

Nlocal:    19652 ave 19652 max 19652 min
Histogram: 1 0 0 0 0 0 0 0 0 0
Nghost:    14417 ave 14417 max 14417 min
Histogram: 1 0 0 0 0 0 0 0 0 0
Neighs:    807291 ave 807291 max 807291 min
Histogram: 1 0 0 0 0 0 0 0 0 0

Total # of neighbors = 807291
Ave neighs/atom = 41.0793
Neighbor list builds = 495
Dangerous builds not checked
Setting up Verlet run ...
  Unit style    : metal
  Current step  : 75495
  Time step     : 0.001
Per MPI rank memory allocation (min/avg/max) = 18.22 | 18.22 | 18.22 Mbytes
Step Temp Press TotEng PotEng Enthalpy 
   75495    2071.3293    145.11574     -16426.2   -21687.566   -16371.151 
   80000    2045.9426    515.83388   -16617.546   -21814.427   -16423.593 
Loop time of 538.924 on 1 procs for 4505 steps with 19652 atoms

Performance: 0.722 ns/day, 33.230 hours/ns, 8.359 timesteps/s
100.0% CPU use with 1 MPI tasks x no OpenMP threads

MPI task timing breakdown:
Section |  min time  |  avg time  |  max time  |%varavg| %total
---------------------------------------------------------------
Pair    | 279.01     | 279.01     | 279.01     |   0.0 | 51.77
Neigh   | 244.8      | 244.8      | 244.8      |   0.0 | 45.42
Comm    | 5.3869     | 5.3869     | 5.3869     |   0.0 |  1.00
Output  | 0.095068   | 0.095068   | 0.095068   |   0.0 |  0.02
Modify  | 7.5271     | 7.5271     | 7.5271     |   0.0 |  1.40
Other   |            | 2.106      |            |       |  0.39

Nlocal:    19652 ave 19652 max 19652 min
Histogram: 1 0 0 0 0 0 0 0 0 0
Nghost:    14439 ave 14439 max 14439 min
Histogram: 1 0 0 0 0 0 0 0 0 0
Neighs:    814038 ave 814038 max 814038 min
Histogram: 1 0 0 0 0 0 0 0 0 0

Total # of neighbors = 814038
Ave neighs/atom = 41.4227
Neighbor list builds = 4505
Dangerous builds not checked
Setting up Verlet run ...
  Unit style    : metal
  Current step  : 80000
  Time step     : 0.001
Per MPI rank memory allocation (min/avg/max) = 18.22 | 18.22 | 18.22 Mbytes
Step Temp Press TotEng PotEng Enthalpy 
   80000    2045.9426    515.83388   -16617.546   -21814.427   -16423.593 
   80495    2017.1062   -377.58556   -16712.892   -21836.526   -16855.337 
Loop time of 65.1878 on 1 procs for 495 steps with 19652 atoms

Performance: 0.656 ns/day, 36.581 hours/ns, 7.593 timesteps/s
99.9% CPU use with 1 MPI tasks x no OpenMP threads

MPI task timing breakdown:
Section |  min time  |  avg time  |  max time  |%varavg| %total
---------------------------------------------------------------
Pair    | 35.042     | 35.042     | 35.042     |   0.0 | 53.76
Neigh   | 28.288     | 28.288     | 28.288     |   0.0 | 43.40
Comm    | 0.68909    | 0.68909    | 0.68909    |   0.0 |  1.06
Output  | 0.00022292 | 0.00022292 | 0.00022292 |   0.0 |  0.00
Modify  | 0.93719    | 0.93719    | 0.93719    |   0.0 |  1.44
Other   |            | 0.2311     |            |       |  0.35

Nlocal:    19652 ave 19652 max 19652 min
Histogram: 1 0 0 0 0 0 0 0 0 0
Nghost:    14358 ave 14358 max 14358 min
Histogram: 1 0 0 0 0 0 0 0 0 0
Neighs:    812140 ave 812140 max 812140 min
Histogram: 1 0 0 0 0 0 0 0 0 0

Total # of neighbors = 812140
Ave neighs/atom = 41.3261
Neighbor list builds = 495
Dangerous builds not checked
Setting up Verlet run ...
  Unit style    : metal
  Current step  : 80495
  Time step     : 0.001
Per MPI rank memory allocation (min/avg/max) = 18.22 | 18.22 | 18.22 Mbytes
Step Temp Press TotEng PotEng Enthalpy 
   80495    2017.1062   -377.58556   -16712.892   -21836.526   -16855.337 
   85000    1976.5712    245.53198   -16910.221   -21930.892   -16818.331 
Loop time of 588.597 on 1 procs for 4505 steps with 19652 atoms

Performance: 0.661 ns/day, 36.293 hours/ns, 7.654 timesteps/s
97.4% CPU use with 1 MPI tasks x no OpenMP threads

MPI task timing breakdown:
Section |  min time  |  avg time  |  max time  |%varavg| %total
---------------------------------------------------------------
Pair    | 313        | 313        | 313        |   0.0 | 53.18
Neigh   | 259.56     | 259.56     | 259.56     |   0.0 | 44.10
Comm    | 5.8202     | 5.8202     | 5.8202     |   0.0 |  0.99
Output  | 0.084583   | 0.084583   | 0.084583   |   0.0 |  0.01
Modify  | 7.9075     | 7.9075     | 7.9075     |   0.0 |  1.34
Other   |            | 2.221      |            |       |  0.38

Nlocal:    19652 ave 19652 max 19652 min
Histogram: 1 0 0 0 0 0 0 0 0 0
Nghost:    14459 ave 14459 max 14459 min
Histogram: 1 0 0 0 0 0 0 0 0 0
Neighs:    818394 ave 818394 max 818394 min
Histogram: 1 0 0 0 0 0 0 0 0 0

Total # of neighbors = 818394
Ave neighs/atom = 41.6443
Neighbor list builds = 4505
Dangerous builds not checked
Setting up Verlet run ...
  Unit style    : metal
  Current step  : 85000
  Time step     : 0.001
Per MPI rank memory allocation (min/avg/max) = 18.22 | 18.22 | 18.22 Mbytes
Step Temp Press TotEng PotEng Enthalpy 
   85000    1976.5712    245.53198   -16910.221   -21930.892   -16818.331 
   85495    1961.0571   -493.88839    -16995.16   -21976.423   -17180.323 
Loop time of 60.2572 on 1 procs for 495 steps with 19652 atoms

Performance: 0.710 ns/day, 33.814 hours/ns, 8.215 timesteps/s
98.9% CPU use with 1 MPI tasks x no OpenMP threads

MPI task timing breakdown:
Section |  min time  |  avg time  |  max time  |%varavg| %total
---------------------------------------------------------------
Pair    | 31.301     | 31.301     | 31.301     |   0.0 | 51.94
Neigh   | 27.391     | 27.391     | 27.391     |   0.0 | 45.46
Comm    | 0.58224    | 0.58224    | 0.58224    |   0.0 |  0.97
Output  | 0.00020289 | 0.00020289 | 0.00020289 |   0.0 |  0.00
Modify  | 0.76963    | 0.76963    | 0.76963    |   0.0 |  1.28
Other   |            | 0.2135     |            |       |  0.35

Nlocal:    19652 ave 19652 max 19652 min
Histogram: 1 0 0 0 0 0 0 0 0 0
Nghost:    14311 ave 14311 max 14311 min
Histogram: 1 0 0 0 0 0 0 0 0 0
Neighs:    816833 ave 816833 max 816833 min
Histogram: 1 0 0 0 0 0 0 0 0 0

Total # of neighbors = 816833
Ave neighs/atom = 41.5649
Neighbor list builds = 495
Dangerous builds not checked
Setting up Verlet run ...
  Unit style    : metal
  Current step  : 85495
  Time step     : 0.001
Per MPI rank memory allocation (min/avg/max) = 18.22 | 18.22 | 18.22 Mbytes
Step Temp Press TotEng PotEng Enthalpy 
   85495    1961.0571   -493.88839    -16995.16   -21976.423   -17180.323 
   90000    1968.5516   -337.53307   -17060.615   -22060.915    -17186.65 
Loop time of 538.695 on 1 procs for 4505 steps with 19652 atoms

Performance: 0.723 ns/day, 33.216 hours/ns, 8.363 timesteps/s
100.0% CPU use with 1 MPI tasks x no OpenMP threads

MPI task timing breakdown:
Section |  min time  |  avg time  |  max time  |%varavg| %total
---------------------------------------------------------------
Pair    | 279.78     | 279.78     | 279.78     |   0.0 | 51.94
Neigh   | 244.4      | 244.4      | 244.4      |   0.0 | 45.37
Comm    | 5.2096     | 5.2096     | 5.2096     |   0.0 |  0.97
Output  | 0.077833   | 0.077833   | 0.077833   |   0.0 |  0.01
Modify  | 7.2124     | 7.2124     | 7.2124     |   0.0 |  1.34
Other   |            | 2.019      |            |       |  0.37

Nlocal:    19652 ave 19652 max 19652 min
Histogram: 1 0 0 0 0 0 0 0 0 0
Nghost:    14398 ave 14398 max 14398 min
Histogram: 1 0 0 0 0 0 0 0 0 0
Neighs:    820099 ave 820099 max 820099 min
Histogram: 1 0 0 0 0 0 0 0 0 0

Total # of neighbors = 820099
Ave neighs/atom = 41.7311
Neighbor list builds = 4505
Dangerous builds not checked
Setting up Verlet run ...
  Unit style    : metal
  Current step  : 90000
  Time step     : 0.001
Per MPI rank memory allocation (min/avg/max) = 18.22 | 18.22 | 18.22 Mbytes
Step Temp Press TotEng PotEng Enthalpy 
   90000    1968.5516   -337.53307   -17060.615   -22060.915    -17186.65 
   90495    1917.2029    298.09473   -17333.222   -22203.092   -17223.039 
Loop time of 59.6281 on 1 procs for 495 steps with 19652 atoms

Performance: 0.717 ns/day, 33.461 hours/ns, 8.301 timesteps/s
100.0% CPU use with 1 MPI tasks x no OpenMP threads

MPI task timing breakdown:
Section |  min time  |  avg time  |  max time  |%varavg| %total
---------------------------------------------------------------
Pair    | 31.417     | 31.417     | 31.417     |   0.0 | 52.69
Neigh   | 26.523     | 26.523     | 26.523     |   0.0 | 44.48
Comm    | 0.61587    | 0.61587    | 0.61587    |   0.0 |  1.03
Output  | 0.00018311 | 0.00018311 | 0.00018311 |   0.0 |  0.00
Modify  | 0.85687    | 0.85687    | 0.85687    |   0.0 |  1.44
Other   |            | 0.2148     |            |       |  0.36

Nlocal:    19652 ave 19652 max 19652 min
Histogram: 1 0 0 0 0 0 0 0 0 0
Nghost:    14548 ave 14548 max 14548 min
Histogram: 1 0 0 0 0 0 0 0 0 0
Neighs:    828359 ave 828359 max 828359 min
Histogram: 1 0 0 0 0 0 0 0 0 0

Total # of neighbors = 828359
Ave neighs/atom = 42.1514
Neighbor list builds = 495
Dangerous builds not checked
Setting up Verlet run ...
  Unit style    : metal
  Current step  : 90495
  Time step     : 0.001
Per MPI rank memory allocation (min/avg/max) = 18.22 | 18.22 | 18.22 Mbytes
Step Temp Press TotEng PotEng Enthalpy 
   90495    1917.2029    298.09473   -17333.222   -22203.092   -17223.039 
   95000    1889.5139    51.893878   -17513.203   -22312.741   -17494.119 
Loop time of 551.754 on 1 procs for 4505 steps with 19652 atoms

Performance: 0.705 ns/day, 34.021 hours/ns, 8.165 timesteps/s
99.1% CPU use with 1 MPI tasks x no OpenMP threads

MPI task timing breakdown:
Section |  min time  |  avg time  |  max time  |%varavg| %total
---------------------------------------------------------------
Pair    | 289.91     | 289.91     | 289.91     |   0.0 | 52.54
Neigh   | 247.41     | 247.41     | 247.41     |   0.0 | 44.84
Comm    | 5.31       | 5.31       | 5.31       |   0.0 |  0.96
Output  | 0.085242   | 0.085242   | 0.085242   |   0.0 |  0.02
Modify  | 7.1173     | 7.1173     | 7.1173     |   0.0 |  1.29
Other   |            | 1.926      |            |       |  0.35

Nlocal:    19652 ave 19652 max 19652 min
Histogram: 1 0 0 0 0 0 0 0 0 0
Nghost:    14531 ave 14531 max 14531 min
Histogram: 1 0 0 0 0 0 0 0 0 0
Neighs:    832744 ave 832744 max 832744 min
Histogram: 1 0 0 0 0 0 0 0 0 0

Total # of neighbors = 832744
Ave neighs/atom = 42.3745
Neighbor list builds = 4505
Dangerous builds not checked
Setting up Verlet run ...
  Unit style    : metal
  Current step  : 95000
  Time step     : 0.001
Per MPI rank memory allocation (min/avg/max) = 18.22 | 18.22 | 18.22 Mbytes
Step Temp Press TotEng PotEng Enthalpy 
   95000    1889.5139    51.893878   -17513.203   -22312.741   -17494.119 
   95495    1857.3273    -863.0799   -17600.993   -22318.774   -17919.589 
Loop time of 60.1224 on 1 procs for 495 steps with 19652 atoms

Performance: 0.711 ns/day, 33.739 hours/ns, 8.233 timesteps/s
98.6% CPU use with 1 MPI tasks x no OpenMP threads

MPI task timing breakdown:
Section |  min time  |  avg time  |  max time  |%varavg| %total
---------------------------------------------------------------
Pair    | 31.11      | 31.11      | 31.11      |   0.0 | 51.74
Neigh   | 27.338     | 27.338     | 27.338     |   0.0 | 45.47
Comm    | 0.6022     | 0.6022     | 0.6022     |   0.0 |  1.00
Output  | 0.00016999 | 0.00016999 | 0.00016999 |   0.0 |  0.00
Modify  | 0.83915    | 0.83915    | 0.83915    |   0.0 |  1.40
Other   |            | 0.233      |            |       |  0.39

Nlocal:    19652 ave 19652 max 19652 min
Histogram: 1 0 0 0 0 0 0 0 0 0
Nghost:    14468 ave 14468 max 14468 min
Histogram: 1 0 0 0 0 0 0 0 0 0
Neighs:    829689 ave 829689 max 829689 min
Histogram: 1 0 0 0 0 0 0 0 0 0

Total # of neighbors = 829689
Ave neighs/atom = 42.2191
Neighbor list builds = 495
Dangerous builds not checked
Setting up Verlet run ...
  Unit style    : metal
  Current step  : 95495
  Time step     : 0.001
Per MPI rank memory allocation (min/avg/max) = 18.22 | 18.22 | 18.22 Mbytes
Step Temp Press TotEng PotEng Enthalpy 
   95495    1857.3273    -863.0799   -17600.993   -22318.774   -17919.589 
  100000     1854.948   -36.819229   -17707.858   -22419.595   -17721.334 
Loop time of 560.779 on 1 procs for 4505 steps with 19652 atoms

Performance: 0.694 ns/day, 34.578 hours/ns, 8.033 timesteps/s
98.0% CPU use with 1 MPI tasks x no OpenMP threads

MPI task timing breakdown:
Section |  min time  |  avg time  |  max time  |%varavg| %total
---------------------------------------------------------------
Pair    | 294.69     | 294.69     | 294.69     |   0.0 | 52.55
Neigh   | 250.89     | 250.89     | 250.89     |   0.0 | 44.74
Comm    | 5.6316     | 5.6316     | 5.6316     |   0.0 |  1.00
Output  | 0.089068   | 0.089068   | 0.089068   |   0.0 |  0.02
Modify  | 7.38       | 7.38       | 7.38       |   0.0 |  1.32
Other   |            | 2.091      |            |       |  0.37

Nlocal:    19652 ave 19652 max 19652 min
Histogram: 1 0 0 0 0 0 0 0 0 0
Nghost:    14590 ave 14590 max 14590 min
Histogram: 1 0 0 0 0 0 0 0 0 0
Neighs:    836729 ave 836729 max 836729 min
Histogram: 1 0 0 0 0 0 0 0 0 0

Total # of neighbors = 836729
Ave neighs/atom = 42.5773
Neighbor list builds = 4505
Dangerous builds not checked
Setting up Verlet run ...
  Unit style    : metal
  Current step  : 100000
  Time step     : 0.001
Per MPI rank memory allocation (min/avg/max) = 18.22 | 18.22 | 18.22 Mbytes
Step Temp Press TotEng PotEng Enthalpy 
  100000     1854.948   -36.819229   -17707.858   -22419.595   -17721.334 
  100495     1819.241   -26.730705   -17921.727   -22542.765    -17931.46 
Loop time of 53.5042 on 1 procs for 495 steps with 19652 atoms

Performance: 0.799 ns/day, 30.025 hours/ns, 9.252 timesteps/s
98.4% CPU use with 1 MPI tasks x no OpenMP threads

MPI task timing breakdown:
Section |  min time  |  avg time  |  max time  |%varavg| %total
---------------------------------------------------------------
Pair    | 27.166     | 27.166     | 27.166     |   0.0 | 50.77
Neigh   | 24.832     | 24.832     | 24.832     |   0.0 | 46.41
Comm    | 0.54661    | 0.54661    | 0.54661    |   0.0 |  1.02
Output  | 0.00016999 | 0.00016999 | 0.00016999 |   0.0 |  0.00
Modify  | 0.73797    | 0.73797    | 0.73797    |   0.0 |  1.38
Other   |            | 0.2215     |            |       |  0.41

Nlocal:    19652 ave 19652 max 19652 min
Histogram: 1 0 0 0 0 0 0 0 0 0
Nghost:    14564 ave 14564 max 14564 min
Histogram: 1 0 0 0 0 0 0 0 0 0
Neighs:    841352 ave 841352 max 841352 min
Histogram: 1 0 0 0 0 0 0 0 0 0

Total # of neighbors = 841352
Ave neighs/atom = 42.8125
Neighbor list builds = 495
Dangerous builds not checked
Setting up Verlet run ...
  Unit style    : metal
  Current step  : 100495
  Time step     : 0.001
Per MPI rank memory allocation (min/avg/max) = 18.22 | 18.22 | 18.22 Mbytes
Step Temp Press TotEng PotEng Enthalpy 
  100495     1819.241   -26.730705   -17921.727   -22542.765    -17931.46 
  105000    1792.8941    135.72457   -18065.259   -22619.373   -18016.089 
Loop time of 542.195 on 1 procs for 4505 steps with 19652 atoms

Performance: 0.718 ns/day, 33.432 hours/ns, 8.309 timesteps/s
98.8% CPU use with 1 MPI tasks x no OpenMP threads

MPI task timing breakdown:
Section |  min time  |  avg time  |  max time  |%varavg| %total
---------------------------------------------------------------
Pair    | 287.24     | 287.24     | 287.24     |   0.0 | 52.98
Neigh   | 240.27     | 240.27     | 240.27     |   0.0 | 44.31
Comm    | 5.3582     | 5.3582     | 5.3582     |   0.0 |  0.99
Output  | 0.09851    | 0.09851    | 0.09851    |   0.0 |  0.02
Modify  | 7.1239     | 7.1239     | 7.1239     |   0.0 |  1.31
Other   |            | 2.098      |            |       |  0.39

Nlocal:    19652 ave 19652 max 19652 min
Histogram: 1 0 0 0 0 0 0 0 0 0
Nghost:    14597 ave 14597 max 14597 min
Histogram: 1 0 0 0 0 0 0 0 0 0
Neighs:    845799 ave 845799 max 845799 min
Histogram: 1 0 0 0 0 0 0 0 0 0

Total # of neighbors = 845799
Ave neighs/atom = 43.0388
Neighbor list builds = 4505
Dangerous builds not checked
Setting up Verlet run ...
  Unit style    : metal
  Current step  : 105000
  Time step     : 0.001
Per MPI rank memory allocation (min/avg/max) = 18.22 | 18.22 | 18.22 Mbytes
Step Temp Press TotEng PotEng Enthalpy 
  105000    1792.8941    135.72457   -18065.259   -22619.373   -18016.089 
  105495    1761.0678   -118.73505   -18222.967    -22696.24     -18265.9 
Loop time of 56.6277 on 1 procs for 495 steps with 19652 atoms

Performance: 0.755 ns/day, 31.778 hours/ns, 8.741 timesteps/s
98.5% CPU use with 1 MPI tasks x no OpenMP threads

MPI task timing breakdown:
Section |  min time  |  avg time  |  max time  |%varavg| %total
---------------------------------------------------------------
Pair    | 29.76      | 29.76      | 29.76      |   0.0 | 52.55
Neigh   | 25.254     | 25.254     | 25.254     |   0.0 | 44.60
Comm    | 0.58429    | 0.58429    | 0.58429    |   0.0 |  1.03
Output  | 0.00019002 | 0.00019002 | 0.00019002 |   0.0 |  0.00
Modify  | 0.79417    | 0.79417    | 0.79417    |   0.0 |  1.40
Other   |            | 0.2347     |            |       |  0.41

Nlocal:    19652 ave 19652 max 19652 min
Histogram: 1 0 0 0 0 0 0 0 0 0
Nghost:    14667 ave 14667 max 14667 min
Histogram: 1 0 0 0 0 0 0 0 0 0
Neighs:    847420 ave 847420 max 847420 min
Histogram: 1 0 0 0 0 0 0 0 0 0

Total # of neighbors = 847420
Ave neighs/atom = 43.1213
Neighbor list builds = 495
Dangerous builds not checked
Setting up Verlet run ...
  Unit style    : metal
  Current step  : 105495
  Time step     : 0.001
Per MPI rank memory allocation (min/avg/max) = 18.22 | 18.22 | 18.22 Mbytes
Step Temp Press TotEng PotEng Enthalpy 
  105495    1761.0678   -118.73505   -18222.967    -22696.24     -18265.9 
  110000    1757.4871   -276.08276     -18237.3   -22701.477   -18337.178 
Loop time of 557.857 on 1 procs for 4505 steps with 19652 atoms

Performance: 0.698 ns/day, 34.397 hours/ns, 8.076 timesteps/s
99.1% CPU use with 1 MPI tasks x no OpenMP threads

MPI task timing breakdown:
Section |  min time  |  avg time  |  max time  |%varavg| %total
---------------------------------------------------------------
Pair    | 297.11     | 297.11     | 297.11     |   0.0 | 53.26
Neigh   | 245.62     | 245.62     | 245.62     |   0.0 | 44.03
Comm    | 5.5252     | 5.5252     | 5.5252     |   0.0 |  0.99
Output  | 0.089046   | 0.089046   | 0.089046   |   0.0 |  0.02
Modify  | 7.4203     | 7.4203     | 7.4203     |   0.0 |  1.33
Other   |            | 2.094      |            |       |  0.38

Nlocal:    19652 ave 19652 max 19652 min
Histogram: 1 0 0 0 0 0 0 0 0 0
Nghost:    14593 ave 14593 max 14593 min
Histogram: 1 0 0 0 0 0 0 0 0 0
Neighs:    846687 ave 846687 max 846687 min
Histogram: 1 0 0 0 0 0 0 0 0 0

Total # of neighbors = 846687
Ave neighs/atom = 43.084
Neighbor list builds = 4505
Dangerous builds not checked
Setting up Verlet run ...
  Unit style    : metal
  Current step  : 110000
  Time step     : 0.001
Per MPI rank memory allocation (min/avg/max) = 18.22 | 18.22 | 18.22 Mbytes
Step Temp Press TotEng PotEng Enthalpy 
  110000    1757.4871   -276.08276     -18237.3   -22701.477   -18337.178 
  110495     1725.856    117.93485   -18487.941   -22871.772   -18445.662 
Loop time of 62.6087 on 1 procs for 495 steps with 19652 atoms

Performance: 0.683 ns/day, 35.134 hours/ns, 7.906 timesteps/s
100.0% CPU use with 1 MPI tasks x no OpenMP threads

MPI task timing breakdown:
Section |  min time  |  avg time  |  max time  |%varavg| %total
---------------------------------------------------------------
Pair    | 32.963     | 32.963     | 32.963     |   0.0 | 52.65
Neigh   | 27.958     | 27.958     | 27.958     |   0.0 | 44.66
Comm    | 0.59338    | 0.59338    | 0.59338    |   0.0 |  0.95
Output  | 0.00023508 | 0.00023508 | 0.00023508 |   0.0 |  0.00
Modify  | 0.85951    | 0.85951    | 0.85951    |   0.0 |  1.37
Other   |            | 0.2343     |            |       |  0.37

Nlocal:    19652 ave 19652 max 19652 min
Histogram: 1 0 0 0 0 0 0 0 0 0
Nghost:    14681 ave 14681 max 14681 min
Histogram: 1 0 0 0 0 0 0 0 0 0
Neighs:    854962 ave 854962 max 854962 min
Histogram: 1 0 0 0 0 0 0 0 0 0

Total # of neighbors = 854962
Ave neighs/atom = 43.5051
Neighbor list builds = 495
Dangerous builds not checked
Setting up Verlet run ...
  Unit style    : metal
  Current step  : 110495
  Time step     : 0.001
Per MPI rank memory allocation (min/avg/max) = 18.22 | 18.22 | 18.22 Mbytes
Step Temp Press TotEng PotEng Enthalpy 
  110495     1725.856    117.93485   -18487.941   -22871.772   -18445.662 
  115000    1687.2546    -171.2178   -18631.034   -22916.815   -18692.313 
Loop time of 592.242 on 1 procs for 4505 steps with 19652 atoms

Performance: 0.657 ns/day, 36.518 hours/ns, 7.607 timesteps/s
98.5% CPU use with 1 MPI tasks x no OpenMP threads

MPI task timing breakdown:
Section |  min time  |  avg time  |  max time  |%varavg| %total
---------------------------------------------------------------
Pair    | 319.24     | 319.24     | 319.24     |   0.0 | 53.90
Neigh   | 256.97     | 256.97     | 256.97     |   0.0 | 43.39
Comm    | 5.813      | 5.813      | 5.813      |   0.0 |  0.98
Output  | 0.086024   | 0.086024   | 0.086024   |   0.0 |  0.01
Modify  | 7.9523     | 7.9523     | 7.9523     |   0.0 |  1.34
Other   |            | 2.187      |            |       |  0.37

Nlocal:    19652 ave 19652 max 19652 min
Histogram: 1 0 0 0 0 0 0 0 0 0
Nghost:    14626 ave 14626 max 14626 min
Histogram: 1 0 0 0 0 0 0 0 0 0
Neighs:    856128 ave 856128 max 856128 min
Histogram: 1 0 0 0 0 0 0 0 0 0

Total # of neighbors = 856128
Ave neighs/atom = 43.5644
Neighbor list builds = 4505
Dangerous builds not checked
Setting up Verlet run ...
  Unit style    : metal
  Current step  : 115000
  Time step     : 0.001
Per MPI rank memory allocation (min/avg/max) = 18.22 | 18.22 | 18.22 Mbytes
Step Temp Press TotEng PotEng Enthalpy 
  115000    1687.2546    -171.2178   -18631.034   -22916.815   -18692.313 
  115495    1657.7981    88.220752   -18803.278   -23014.236   -18771.877 
Loop time of 62.9653 on 1 procs for 495 steps with 19652 atoms

Performance: 0.679 ns/day, 35.334 hours/ns, 7.861 timesteps/s
99.5% CPU use with 1 MPI tasks x no OpenMP threads

MPI task timing breakdown:
Section |  min time  |  avg time  |  max time  |%varavg| %total
---------------------------------------------------------------
Pair    | 33.757     | 33.757     | 33.757     |   0.0 | 53.61
Neigh   | 27.412     | 27.412     | 27.412     |   0.0 | 43.53
Comm    | 0.65986    | 0.65986    | 0.65986    |   0.0 |  1.05
Output  | 0.00023794 | 0.00023794 | 0.00023794 |   0.0 |  0.00
Modify  | 0.89654    | 0.89654    | 0.89654    |   0.0 |  1.42
Other   |            | 0.2396     |            |       |  0.38

Nlocal:    19652 ave 19652 max 19652 min
Histogram: 1 0 0 0 0 0 0 0 0 0
Nghost:    14712 ave 14712 max 14712 min
Histogram: 1 0 0 0 0 0 0 0 0 0
Neighs:    861489 ave 861489 max 861489 min
Histogram: 1 0 0 0 0 0 0 0 0 0

Total # of neighbors = 861489
Ave neighs/atom = 43.8372
Neighbor list builds = 495
Dangerous builds not checked
Setting up Verlet run ...
  Unit style    : metal
  Current step  : 115495
  Time step     : 0.001
Per MPI rank memory allocation (min/avg/max) = 18.22 | 18.22 | 18.22 Mbytes
Step Temp Press TotEng PotEng Enthalpy 
  115495    1657.7981    88.220752   -18803.278   -23014.236   -18771.877 
  120000    1651.3282   -287.54996   -18866.196   -23060.721   -18968.471 
Loop time of 552.805 on 1 procs for 4505 steps with 19652 atoms

Performance: 0.704 ns/day, 34.086 hours/ns, 8.149 timesteps/s
98.8% CPU use with 1 MPI tasks x no OpenMP threads

MPI task timing breakdown:
Section |  min time  |  avg time  |  max time  |%varavg| %total
---------------------------------------------------------------
Pair    | 291.65     | 291.65     | 291.65     |   0.0 | 52.76
Neigh   | 246.15     | 246.15     | 246.15     |   0.0 | 44.53
Comm    | 5.3913     | 5.3913     | 5.3913     |   0.0 |  0.98
Output  | 0.086955   | 0.086955   | 0.086955   |   0.0 |  0.02
Modify  | 7.4102     | 7.4102     | 7.4102     |   0.0 |  1.34
Other   |            | 2.118      |            |       |  0.38

Nlocal:    19652 ave 19652 max 19652 min
Histogram: 1 0 0 0 0 0 0 0 0 0
Nghost:    14692 ave 14692 max 14692 min
Histogram: 1 0 0 0 0 0 0 0 0 0
Neighs:    861323 ave 861323 max 861323 min
Histogram: 1 0 0 0 0 0 0 0 0 0

Total # of neighbors = 861323
Ave neighs/atom = 43.8288
Neighbor list builds = 4505
Dangerous builds not checked
Setting up Verlet run ...
  Unit style    : metal
  Current step  : 120000
  Time step     : 0.001
Per MPI rank memory allocation (min/avg/max) = 18.22 | 18.22 | 18.22 Mbytes
Step Temp Press TotEng PotEng Enthalpy 
  120000    1651.3282   -287.54996   -18866.196   -23060.721   -18968.471 
  120495     1617.638   -34.193264   -19068.682    -23177.63   -19080.774 
Loop time of 62.7903 on 1 procs for 495 steps with 19652 atoms

Performance: 0.681 ns/day, 35.236 hours/ns, 7.883 timesteps/s
99.8% CPU use with 1 MPI tasks x no OpenMP threads

MPI task timing breakdown:
Section |  min time  |  avg time  |  max time  |%varavg| %total
---------------------------------------------------------------
Pair    | 33.706     | 33.706     | 33.706     |   0.0 | 53.68
Neigh   | 27.312     | 27.312     | 27.312     |   0.0 | 43.50
Comm    | 0.65328    | 0.65328    | 0.65328    |   0.0 |  1.04
Output  | 0.00021291 | 0.00021291 | 0.00021291 |   0.0 |  0.00
Modify  | 0.88392    | 0.88392    | 0.88392    |   0.0 |  1.41
Other   |            | 0.2347     |            |       |  0.37

Nlocal:    19652 ave 19652 max 19652 min
Histogram: 1 0 0 0 0 0 0 0 0 0
Nghost:    14747 ave 14747 max 14747 min
Histogram: 1 0 0 0 0 0 0 0 0 0
Neighs:    866822 ave 866822 max 866822 min
Histogram: 1 0 0 0 0 0 0 0 0 0

Total # of neighbors = 866822
Ave neighs/atom = 44.1086
Neighbor list builds = 495
Dangerous builds not checked
Setting up Verlet run ...
  Unit style    : metal
  Current step  : 120495
  Time step     : 0.001
Per MPI rank memory allocation (min/avg/max) = 18.22 | 18.22 | 18.22 Mbytes
Step Temp Press TotEng PotEng Enthalpy 
  120495     1617.638   -34.193264   -19068.682    -23177.63   -19080.774 
  125000    1605.1851    149.44432   -19104.327   -23181.644   -19051.546 
Loop time of 603.091 on 1 procs for 4505 steps with 19652 atoms

Performance: 0.645 ns/day, 37.187 hours/ns, 7.470 timesteps/s
98.9% CPU use with 1 MPI tasks x no OpenMP threads

MPI task timing breakdown:
Section |  min time  |  avg time  |  max time  |%varavg| %total
---------------------------------------------------------------
Pair    | 326.65     | 326.65     | 326.65     |   0.0 | 54.16
Neigh   | 260.05     | 260.05     | 260.05     |   0.0 | 43.12
Comm    | 5.9822     | 5.9822     | 5.9822     |   0.0 |  0.99
Output  | 0.099773   | 0.099773   | 0.099773   |   0.0 |  0.02
Modify  | 8.0205     | 8.0205     | 8.0205     |   0.0 |  1.33
Other   |            | 2.293      |            |       |  0.38

Nlocal:    19652 ave 19652 max 19652 min
Histogram: 1 0 0 0 0 0 0 0 0 0
Nghost:    14825 ave 14825 max 14825 min
Histogram: 1 0 0 0 0 0 0 0 0 0
Neighs:    867551 ave 867551 max 867551 min
Histogram: 1 0 0 0 0 0 0 0 0 0

Total # of neighbors = 867551
Ave neighs/atom = 44.1457
Neighbor list builds = 4505
Dangerous builds not checked
Setting up Verlet run ...
  Unit style    : metal
  Current step  : 125000
  Time step     : 0.001
Per MPI rank memory allocation (min/avg/max) = 18.22 | 18.22 | 18.22 Mbytes
Step Temp Press TotEng PotEng Enthalpy 
  125000    1605.1851    149.44432   -19104.327   -23181.644   -19051.546 
  125495    1569.1491   -126.56882   -19349.671   -23335.452   -19394.129 
Loop time of 58.73 on 1 procs for 495 steps with 19652 atoms

Performance: 0.728 ns/day, 32.957 hours/ns, 8.428 timesteps/s
93.8% CPU use with 1 MPI tasks x no OpenMP threads

MPI task timing breakdown:
Section |  min time  |  avg time  |  max time  |%varavg| %total
---------------------------------------------------------------
Pair    | 30.93      | 30.93      | 30.93      |   0.0 | 52.66
Neigh   | 26.109     | 26.109     | 26.109     |   0.0 | 44.46
Comm    | 0.60277    | 0.60277    | 0.60277    |   0.0 |  1.03
Output  | 0.00018096 | 0.00018096 | 0.00018096 |   0.0 |  0.00
Modify  | 0.81893    | 0.81893    | 0.81893    |   0.0 |  1.39
Other   |            | 0.2695     |            |       |  0.46

Nlocal:    19652 ave 19652 max 19652 min
Histogram: 1 0 0 0 0 0 0 0 0 0
Nghost:    14775 ave 14775 max 14775 min
Histogram: 1 0 0 0 0 0 0 0 0 0
Neighs:    872882 ave 872882 max 872882 min
Histogram: 1 0 0 0 0 0 0 0 0 0

Total # of neighbors = 872882
Ave neighs/atom = 44.417
Neighbor list builds = 495
Dangerous builds not checked
Setting up Verlet run ...
  Unit style    : metal
  Current step  : 125495
  Time step     : 0.001
Per MPI rank memory allocation (min/avg/max) = 18.22 | 18.22 | 18.22 Mbytes
Step Temp Press TotEng PotEng Enthalpy 
  125495    1569.1491   -126.56882   -19349.671   -23335.452   -19394.129 
  130000    1554.5262   -748.88457   -19400.178   -23348.817   -19663.713 
Loop time of 555.621 on 1 procs for 4505 steps with 19652 atoms

Performance: 0.701 ns/day, 34.260 hours/ns, 8.108 timesteps/s
97.4% CPU use with 1 MPI tasks x no OpenMP threads

MPI task timing breakdown:
Section |  min time  |  avg time  |  max time  |%varavg| %total
---------------------------------------------------------------
Pair    | 295.73     | 295.73     | 295.73     |   0.0 | 53.22
Neigh   | 245.22     | 245.22     | 245.22     |   0.0 | 44.13
Comm    | 5.3906     | 5.3906     | 5.3906     |   0.0 |  0.97
Output  | 0.10514    | 0.10514    | 0.10514    |   0.0 |  0.02
Modify  | 7.0935     | 7.0935     | 7.0935     |   0.0 |  1.28
Other   |            | 2.086      |            |       |  0.38

Nlocal:    19652 ave 19652 max 19652 min
Histogram: 1 0 0 0 0 0 0 0 0 0
Nghost:    14766 ave 14766 max 14766 min
Histogram: 1 0 0 0 0 0 0 0 0 0
Neighs:    870842 ave 870842 max 870842 min
Histogram: 1 0 0 0 0 0 0 0 0 0

Total # of neighbors = 870842
Ave neighs/atom = 44.3131
Neighbor list builds = 4505
Dangerous builds not checked
Setting up Verlet run ...
  Unit style    : metal
  Current step  : 130000
  Time step     : 0.001
Per MPI rank memory allocation (min/avg/max) = 18.22 | 18.22 | 18.22 Mbytes
Step Temp Press TotEng PotEng Enthalpy 
  130000    1554.5262   -748.88457   -19400.178   -23348.817   -19663.713 
  130495     1523.827   -157.00781   -19619.879   -23490.538   -19674.664 
Loop time of 63.4981 on 1 procs for 495 steps with 19652 atoms

Performance: 0.674 ns/day, 35.633 hours/ns, 7.796 timesteps/s
99.4% CPU use with 1 MPI tasks x no OpenMP threads

MPI task timing breakdown:
Section |  min time  |  avg time  |  max time  |%varavg| %total
---------------------------------------------------------------
Pair    | 34.016     | 34.016     | 34.016     |   0.0 | 53.57
Neigh   | 27.711     | 27.711     | 27.711     |   0.0 | 43.64
Comm    | 0.64288    | 0.64288    | 0.64288    |   0.0 |  1.01
Output  | 0.00019193 | 0.00019193 | 0.00019193 |   0.0 |  0.00
Modify  | 0.879      | 0.879      | 0.879      |   0.0 |  1.38
Other   |            | 0.2498     |            |       |  0.39

Nlocal:    19652 ave 19652 max 19652 min
Histogram: 1 0 0 0 0 0 0 0 0 0
Nghost:    14813 ave 14813 max 14813 min
Histogram: 1 0 0 0 0 0 0 0 0 0
Neighs:    878684 ave 878684 max 878684 min
Histogram: 1 0 0 0 0 0 0 0 0 0

Total # of neighbors = 878684
Ave neighs/atom = 44.7122
Neighbor list builds = 495
Dangerous builds not checked
Setting up Verlet run ...
  Unit style    : metal
  Current step  : 130495
  Time step     : 0.001
Per MPI rank memory allocation (min/avg/max) = 18.22 | 18.22 | 18.22 Mbytes
Step Temp Press TotEng PotEng Enthalpy 
  130495     1523.827   -157.00781   -19619.879   -23490.538   -19674.664 
  135000    1499.0001   -5.3140501    -19675.01   -23482.607   -19676.864 
Loop time of 566.31 on 1 procs for 4505 steps with 19652 atoms

Performance: 0.687 ns/day, 34.919 hours/ns, 7.955 timesteps/s
98.3% CPU use with 1 MPI tasks x no OpenMP threads

MPI task timing breakdown:
Section |  min time  |  avg time  |  max time  |%varavg| %total
---------------------------------------------------------------
Pair    | 304.37     | 304.37     | 304.37     |   0.0 | 53.75
Neigh   | 246.51     | 246.51     | 246.51     |   0.0 | 43.53
Comm    | 5.6461     | 5.6461     | 5.6461     |   0.0 |  1.00
Output  | 0.063866   | 0.063866   | 0.063866   |   0.0 |  0.01
Modify  | 7.49       | 7.49       | 7.49       |   0.0 |  1.32
Other   |            | 2.224      |            |       |  0.39

Nlocal:    19652 ave 19652 max 19652 min
Histogram: 1 0 0 0 0 0 0 0 0 0
Nghost:    14898 ave 14898 max 14898 min
Histogram: 1 0 0 0 0 0 0 0 0 0
Neighs:    879304 ave 879304 max 879304 min
Histogram: 1 0 0 0 0 0 0 0 0 0

Total # of neighbors = 879304
Ave neighs/atom = 44.7437
Neighbor list builds = 4505
Dangerous builds not checked
Setting up Verlet run ...
  Unit style    : metal
  Current step  : 135000
  Time step     : 0.001
Per MPI rank memory allocation (min/avg/max) = 18.22 | 18.22 | 18.22 Mbytes
Step Temp Press TotEng PotEng Enthalpy 
  135000    1499.0001   -5.3140501    -19675.01   -23482.607   -19676.864 
  135495    1462.0126     254.7061   -19915.182   -23628.827   -19827.059 
Loop time of 58.6135 on 1 procs for 495 steps with 19652 atoms

Performance: 0.730 ns/day, 32.892 hours/ns, 8.445 timesteps/s
94.5% CPU use with 1 MPI tasks x no OpenMP threads

MPI task timing breakdown:
Section |  min time  |  avg time  |  max time  |%varavg| %total
---------------------------------------------------------------
Pair    | 30.878     | 30.878     | 30.878     |   0.0 | 52.68
Neigh   | 26.135     | 26.135     | 26.135     |   0.0 | 44.59
Comm    | 0.57038    | 0.57038    | 0.57038    |   0.0 |  0.97
Output  | 0.00020385 | 0.00020385 | 0.00020385 |   0.0 |  0.00
Modify  | 0.80771    | 0.80771    | 0.80771    |   0.0 |  1.38
Other   |            | 0.2231     |            |       |  0.38

Nlocal:    19652 ave 19652 max 19652 min
Histogram: 1 0 0 0 0 0 0 0 0 0
Nghost:    14933 ave 14933 max 14933 min
Histogram: 1 0 0 0 0 0 0 0 0 0
Neighs:    886445 ave 886445 max 886445 min
Histogram: 1 0 0 0 0 0 0 0 0 0

Total # of neighbors = 886445
Ave neighs/atom = 45.1071
Neighbor list builds = 495
Dangerous builds not checked
Setting up Verlet run ...
  Unit style    : metal
  Current step  : 135495
  Time step     : 0.001
Per MPI rank memory allocation (min/avg/max) = 18.22 | 18.22 | 18.22 Mbytes
Step Temp Press TotEng PotEng Enthalpy 
  135495    1462.0126     254.7061   -19915.182   -23628.827   -19827.059 
  140000    1440.3603   -101.22759   -20029.817   -23688.463   -20064.845 
Loop time of 583.446 on 1 procs for 4505 steps with 19652 atoms

Performance: 0.667 ns/day, 35.975 hours/ns, 7.721 timesteps/s
95.7% CPU use with 1 MPI tasks x no OpenMP threads

MPI task timing breakdown:
Section |  min time  |  avg time  |  max time  |%varavg| %total
---------------------------------------------------------------
Pair    | 309.15     | 309.15     | 309.15     |   0.0 | 52.99
Neigh   | 256.44     | 256.44     | 256.44     |   0.0 | 43.95
Comm    | 5.54       | 5.54       | 5.54       |   0.0 |  0.95
Output  | 2.5659     | 2.5659     | 2.5659     |   0.0 |  0.44
Modify  | 7.6361     | 7.6361     | 7.6361     |   0.0 |  1.31
Other   |            | 2.118      |            |       |  0.36

Nlocal:    19652 ave 19652 max 19652 min
Histogram: 1 0 0 0 0 0 0 0 0 0
Nghost:    14853 ave 14853 max 14853 min
Histogram: 1 0 0 0 0 0 0 0 0 0
Neighs:    886561 ave 886561 max 886561 min
Histogram: 1 0 0 0 0 0 0 0 0 0

Total # of neighbors = 886561
Ave neighs/atom = 45.113
Neighbor list builds = 4505
Dangerous builds not checked
Setting up Verlet run ...
  Unit style    : metal
  Current step  : 140000
  Time step     : 0.001
Per MPI rank memory allocation (min/avg/max) = 18.22 | 18.22 | 18.22 Mbytes
Step Temp Press TotEng PotEng Enthalpy 
  140000    1440.3603   -101.22759   -20029.817   -23688.463   -20064.845 
  140495    1411.3184   -26.595226   -20226.636   -23811.514   -20235.785 
Loop time of 66.8104 on 1 procs for 495 steps with 19652 atoms

Performance: 0.640 ns/day, 37.492 hours/ns, 7.409 timesteps/s
99.8% CPU use with 1 MPI tasks x no OpenMP threads

MPI task timing breakdown:
Section |  min time  |  avg time  |  max time  |%varavg| %total
---------------------------------------------------------------
Pair    | 37.204     | 37.204     | 37.204     |   0.0 | 55.69
Neigh   | 27.734     | 27.734     | 27.734     |   0.0 | 41.51
Comm    | 0.70489    | 0.70489    | 0.70489    |   0.0 |  1.06
Output  | 0.00023913 | 0.00023913 | 0.00023913 |   0.0 |  0.00
Modify  | 0.94976    | 0.94976    | 0.94976    |   0.0 |  1.42
Other   |            | 0.2176     |            |       |  0.33

Nlocal:    19652 ave 19652 max 19652 min
Histogram: 1 0 0 0 0 0 0 0 0 0
Nghost:    14888 ave 14888 max 14888 min
Histogram: 1 0 0 0 0 0 0 0 0 0
Neighs:    891894 ave 891894 max 891894 min
Histogram: 1 0 0 0 0 0 0 0 0 0

Total # of neighbors = 891894
Ave neighs/atom = 45.3844
Neighbor list builds = 495
Dangerous builds not checked
Setting up Verlet run ...
  Unit style    : metal
  Current step  : 140495
  Time step     : 0.001
Per MPI rank memory allocation (min/avg/max) = 18.22 | 18.22 | 18.22 Mbytes
Step Temp Press TotEng PotEng Enthalpy 
  140495    1411.3184   -26.595226   -20226.636   -23811.514   -20235.785 
  145000    1398.7263    691.97325   -20282.718    -23835.61   -20045.484 
Loop time of 547.702 on 1 procs for 4505 steps with 19652 atoms

Performance: 0.711 ns/day, 33.771 hours/ns, 8.225 timesteps/s
99.4% CPU use with 1 MPI tasks x no OpenMP threads

MPI task timing breakdown:
Section |  min time  |  avg time  |  max time  |%varavg| %total
---------------------------------------------------------------
Pair    | 291.42     | 291.42     | 291.42     |   0.0 | 53.21
Neigh   | 241.63     | 241.63     | 241.63     |   0.0 | 44.12
Comm    | 5.3046     | 5.3046     | 5.3046     |   0.0 |  0.97
Output  | 0.090693   | 0.090693   | 0.090693   |   0.0 |  0.02
Modify  | 7.3022     | 7.3022     | 7.3022     |   0.0 |  1.33
Other   |            | 1.946      |            |       |  0.36

Nlocal:    19652 ave 19652 max 19652 min
Histogram: 1 0 0 0 0 0 0 0 0 0
Nghost:    14928 ave 14928 max 14928 min
Histogram: 1 0 0 0 0 0 0 0 0 0
Neighs:    895355 ave 895355 max 895355 min
Histogram: 1 0 0 0 0 0 0 0 0 0

Total # of neighbors = 895355
Ave neighs/atom = 45.5605
Neighbor list builds = 4505
Dangerous builds not checked
Setting up Verlet run ...
  Unit style    : metal
  Current step  : 145000
  Time step     : 0.001
Per MPI rank memory allocation (min/avg/max) = 18.22 | 18.22 | 18.22 Mbytes
Step Temp Press TotEng PotEng Enthalpy 
  145000    1398.7263    691.97325   -20282.718    -23835.61   -20045.484 
  145495    1371.5502    131.47705   -20443.325   -23927.187   -20398.338 
Loop time of 60.7461 on 1 procs for 495 steps with 19652 atoms

Performance: 0.704 ns/day, 34.089 hours/ns, 8.149 timesteps/s
98.4% CPU use with 1 MPI tasks x no OpenMP threads

MPI task timing breakdown:
Section |  min time  |  avg time  |  max time  |%varavg| %total
---------------------------------------------------------------
Pair    | 32.215     | 32.215     | 32.215     |   0.0 | 53.03
Neigh   | 26.839     | 26.839     | 26.839     |   0.0 | 44.18
Comm    | 0.60343    | 0.60343    | 0.60343    |   0.0 |  0.99
Output  | 0.00020313 | 0.00020313 | 0.00020313 |   0.0 |  0.00
Modify  | 0.85295    | 0.85295    | 0.85295    |   0.0 |  1.40
Other   |            | 0.2361     |            |       |  0.39

Nlocal:    19652 ave 19652 max 19652 min
Histogram: 1 0 0 0 0 0 0 0 0 0
Nghost:    14980 ave 14980 max 14980 min
Histogram: 1 0 0 0 0 0 0 0 0 0
Neighs:    896976 ave 896976 max 896976 min
Histogram: 1 0 0 0 0 0 0 0 0 0

Total # of neighbors = 896976
Ave neighs/atom = 45.643
Neighbor list builds = 495
Dangerous builds not checked
Setting up Verlet run ...
  Unit style    : metal
  Current step  : 145495
  Time step     : 0.001
Per MPI rank memory allocation (min/avg/max) = 18.22 | 18.22 | 18.22 Mbytes
Step Temp Press TotEng PotEng Enthalpy 
  145495    1371.5502    131.47705   -20443.325   -23927.187   -20398.338 
  150000    1352.0656    50.995291   -20579.883   -24014.253   -20562.487 
Loop time of 577.061 on 1 procs for 4505 steps with 19652 atoms

Performance: 0.675 ns/day, 35.581 hours/ns, 7.807 timesteps/s
99.3% CPU use with 1 MPI tasks x no OpenMP threads

MPI task timing breakdown:
Section |  min time  |  avg time  |  max time  |%varavg| %total
---------------------------------------------------------------
Pair    | 310.56     | 310.56     | 310.56     |   0.0 | 53.82
Neigh   | 251.03     | 251.03     | 251.03     |   0.0 | 43.50
Comm    | 5.6321     | 5.6321     | 5.6321     |   0.0 |  0.98
Output  | 0.068345   | 0.068345   | 0.068345   |   0.0 |  0.01
Modify  | 7.6834     | 7.6834     | 7.6834     |   0.0 |  1.33
Other   |            | 2.087      |            |       |  0.36

Nlocal:    19652 ave 19652 max 19652 min
Histogram: 1 0 0 0 0 0 0 0 0 0
Nghost:    15010 ave 15010 max 15010 min
Histogram: 1 0 0 0 0 0 0 0 0 0
Neighs:    900053 ave 900053 max 900053 min
Histogram: 1 0 0 0 0 0 0 0 0 0

Total # of neighbors = 900053
Ave neighs/atom = 45.7996
Neighbor list builds = 4505
Dangerous builds not checked
Setting up Verlet run ...
  Unit style    : metal
  Current step  : 150000
  Time step     : 0.001
Per MPI rank memory allocation (min/avg/max) = 18.22 | 18.22 | 18.22 Mbytes
Step Temp Press TotEng PotEng Enthalpy 
  150000    1352.0656    50.995291   -20579.883   -24014.253   -20562.487 
  150495     1307.824    133.34841   -20754.782   -24076.774   -20709.428 
Loop time of 58.0345 on 1 procs for 495 steps with 19652 atoms

Performance: 0.737 ns/day, 32.567 hours/ns, 8.529 timesteps/s
99.6% CPU use with 1 MPI tasks x no OpenMP threads

MPI task timing breakdown:
Section |  min time  |  avg time  |  max time  |%varavg| %total
---------------------------------------------------------------
Pair    | 30.52      | 30.52      | 30.52      |   0.0 | 52.59
Neigh   | 25.983     | 25.983     | 25.983     |   0.0 | 44.77
Comm    | 0.56437    | 0.56437    | 0.56437    |   0.0 |  0.97
Output  | 0.0001471  | 0.0001471  | 0.0001471  |   0.0 |  0.00
Modify  | 0.75865    | 0.75865    | 0.75865    |   0.0 |  1.31
Other   |            | 0.208      |            |       |  0.36

Nlocal:    19652 ave 19652 max 19652 min
Histogram: 1 0 0 0 0 0 0 0 0 0
Nghost:    15008 ave 15008 max 15008 min
Histogram: 1 0 0 0 0 0 0 0 0 0
Neighs:    902609 ave 902609 max 902609 min
Histogram: 1 0 0 0 0 0 0 0 0 0

Total # of neighbors = 902609
Ave neighs/atom = 45.9296
Neighbor list builds = 495
Dangerous builds not checked
Setting up Verlet run ...
  Unit style    : metal
  Current step  : 150495
  Time step     : 0.001
Per MPI rank memory allocation (min/avg/max) = 18.22 | 18.22 | 18.22 Mbytes
Step Temp Press TotEng PotEng Enthalpy 
  150495     1307.824    133.34841   -20754.782   -24076.774   -20709.428 
  155000    1296.1519    -10.82852   -20838.972   -24131.315   -20842.647 
Loop time of 546.072 on 1 procs for 4505 steps with 19652 atoms

Performance: 0.713 ns/day, 33.671 hours/ns, 8.250 timesteps/s
98.2% CPU use with 1 MPI tasks x no OpenMP threads

MPI task timing breakdown:
Section |  min time  |  avg time  |  max time  |%varavg| %total
---------------------------------------------------------------
Pair    | 290.82     | 290.82     | 290.82     |   0.0 | 53.26
Neigh   | 240.78     | 240.78     | 240.78     |   0.0 | 44.09
Comm    | 5.2508     | 5.2508     | 5.2508     |   0.0 |  0.96
Output  | 0.16931    | 0.16931    | 0.16931    |   0.0 |  0.03
Modify  | 7.097      | 7.097      | 7.097      |   0.0 |  1.30
Other   |            | 1.956      |            |       |  0.36

Nlocal:    19652 ave 19652 max 19652 min
Histogram: 1 0 0 0 0 0 0 0 0 0
Nghost:    15082 ave 15082 max 15082 min
Histogram: 1 0 0 0 0 0 0 0 0 0
Neighs:    904249 ave 904249 max 904249 min
Histogram: 1 0 0 0 0 0 0 0 0 0

Total # of neighbors = 904249
Ave neighs/atom = 46.0131
Neighbor list builds = 4505
Dangerous builds not checked
Setting up Verlet run ...
  Unit style    : metal
  Current step  : 155000
  Time step     : 0.001
Per MPI rank memory allocation (min/avg/max) = 18.22 | 18.22 | 18.22 Mbytes
Step Temp Press TotEng PotEng Enthalpy 
  155000    1296.1519    -10.82852   -20838.972   -24131.315   -20842.647 
  155495    1263.3969    90.297742     -21058.3   -24267.444   -21027.828 
Loop time of 52.9266 on 1 procs for 495 steps with 19652 atoms

Performance: 0.808 ns/day, 29.701 hours/ns, 9.353 timesteps/s
99.4% CPU use with 1 MPI tasks x no OpenMP threads

MPI task timing breakdown:
Section |  min time  |  avg time  |  max time  |%varavg| %total
---------------------------------------------------------------
Pair    | 27.398     | 27.398     | 27.398     |   0.0 | 51.77
Neigh   | 24.107     | 24.107     | 24.107     |   0.0 | 45.55
Comm    | 0.5178     | 0.5178     | 0.5178     |   0.0 |  0.98
Output  | 0.00016093 | 0.00016093 | 0.00016093 |   0.0 |  0.00
Modify  | 0.6932     | 0.6932     | 0.6932     |   0.0 |  1.31
Other   |            | 0.2103     |            |       |  0.40

Nlocal:    19652 ave 19652 max 19652 min
Histogram: 1 0 0 0 0 0 0 0 0 0
Nghost:    15147 ave 15147 max 15147 min
Histogram: 1 0 0 0 0 0 0 0 0 0
Neighs:    909822 ave 909822 max 909822 min
Histogram: 1 0 0 0 0 0 0 0 0 0

Total # of neighbors = 909822
Ave neighs/atom = 46.2967
Neighbor list builds = 495
Dangerous builds not checked
Setting up Verlet run ...
  Unit style    : metal
  Current step  : 155495
  Time step     : 0.001
Per MPI rank memory allocation (min/avg/max) = 18.22 | 18.22 | 18.22 Mbytes
Step Temp Press TotEng PotEng Enthalpy 
  155495    1263.3969    90.297742     -21058.3   -24267.444   -21027.828 
  160000    1243.0311    236.25762   -21151.203   -24308.615   -21071.669 
Loop time of 506.036 on 1 procs for 4505 steps with 19652 atoms

Performance: 0.769 ns/day, 31.202 hours/ns, 8.903 timesteps/s
98.6% CPU use with 1 MPI tasks x no OpenMP threads

MPI task timing breakdown:
Section |  min time  |  avg time  |  max time  |%varavg| %total
---------------------------------------------------------------
Pair    | 263.5      | 263.5      | 263.5      |   0.0 | 52.07
Neigh   | 228.77     | 228.77     | 228.77     |   0.0 | 45.21
Comm    | 5.0931     | 5.0931     | 5.0931     |   0.0 |  1.01
Output  | 0.060961   | 0.060961   | 0.060961   |   0.0 |  0.01
Modify  | 6.6118     | 6.6118     | 6.6118     |   0.0 |  1.31
Other   |            | 1.997      |            |       |  0.39

Nlocal:    19652 ave 19652 max 19652 min
Histogram: 1 0 0 0 0 0 0 0 0 0
Nghost:    15036 ave 15036 max 15036 min
Histogram: 1 0 0 0 0 0 0 0 0 0
Neighs:    912296 ave 912296 max 912296 min
Histogram: 1 0 0 0 0 0 0 0 0 0

Total # of neighbors = 912296
Ave neighs/atom = 46.4226
Neighbor list builds = 4505
Dangerous builds not checked
Setting up Verlet run ...
  Unit style    : metal
  Current step  : 160000
  Time step     : 0.001
Per MPI rank memory allocation (min/avg/max) = 18.22 | 18.22 | 18.22 Mbytes
Step Temp Press TotEng PotEng Enthalpy 
  160000    1243.0311    236.25762   -21151.203   -24308.615   -21071.669 
  160495     1210.676    249.86456   -21331.176   -24406.403   -21247.361 
Loop time of 54.1786 on 1 procs for 495 steps with 19652 atoms

Performance: 0.789 ns/day, 30.403 hours/ns, 9.136 timesteps/s
98.5% CPU use with 1 MPI tasks x no OpenMP threads

MPI task timing breakdown:
Section |  min time  |  avg time  |  max time  |%varavg| %total
---------------------------------------------------------------
Pair    | 28.209     | 28.209     | 28.209     |   0.0 | 52.07
Neigh   | 24.478     | 24.478     | 24.478     |   0.0 | 45.18
Comm    | 0.54519    | 0.54519    | 0.54519    |   0.0 |  1.01
Output  | 0.00019693 | 0.00019693 | 0.00019693 |   0.0 |  0.00
Modify  | 0.72669    | 0.72669    | 0.72669    |   0.0 |  1.34
Other   |            | 0.2195     |            |       |  0.41

Nlocal:    19652 ave 19652 max 19652 min
Histogram: 1 0 0 0 0 0 0 0 0 0
Nghost:    15124 ave 15124 max 15124 min
Histogram: 1 0 0 0 0 0 0 0 0 0
Neighs:    916207 ave 916207 max 916207 min
Histogram: 1 0 0 0 0 0 0 0 0 0

Total # of neighbors = 916207
Ave neighs/atom = 46.6216
Neighbor list builds = 495
Dangerous builds not checked
Setting up Verlet run ...
  Unit style    : metal
  Current step  : 160495
  Time step     : 0.001
Per MPI rank memory allocation (min/avg/max) = 18.22 | 18.22 | 18.22 Mbytes
Step Temp Press TotEng PotEng Enthalpy 
  160495     1210.676    249.86456   -21331.176   -24406.403   -21247.361 
  165000    1205.6692   -367.86784   -21396.483   -24458.992   -21519.933 
Loop time of 526.463 on 1 procs for 4505 steps with 19652 atoms

Performance: 0.739 ns/day, 32.462 hours/ns, 8.557 timesteps/s
99.1% CPU use with 1 MPI tasks x no OpenMP threads

MPI task timing breakdown:
Section |  min time  |  avg time  |  max time  |%varavg| %total
---------------------------------------------------------------
Pair    | 281.09     | 281.09     | 281.09     |   0.0 | 53.39
Neigh   | 231.14     | 231.14     | 231.14     |   0.0 | 43.91
Comm    | 5.2713     | 5.2713     | 5.2713     |   0.0 |  1.00
Output  | 0.091005   | 0.091005   | 0.091005   |   0.0 |  0.02
Modify  | 6.8114     | 6.8114     | 6.8114     |   0.0 |  1.29
Other   |            | 2.053      |            |       |  0.39

Nlocal:    19652 ave 19652 max 19652 min
Histogram: 1 0 0 0 0 0 0 0 0 0
Nghost:    15016 ave 15016 max 15016 min
Histogram: 1 0 0 0 0 0 0 0 0 0
Neighs:    915647 ave 915647 max 915647 min
Histogram: 1 0 0 0 0 0 0 0 0 0

Total # of neighbors = 915647
Ave neighs/atom = 46.5931
Neighbor list builds = 4505
Dangerous builds not checked
Setting up Verlet run ...
  Unit style    : metal
  Current step  : 165000
  Time step     : 0.001
Per MPI rank memory allocation (min/avg/max) = 18.22 | 18.22 | 18.22 Mbytes
Step Temp Press TotEng PotEng Enthalpy 
  165000    1205.6692   -367.86784   -21396.483   -24458.992   -21519.933 
  165495    1165.4669   -7.4793754   -21635.014   -24595.406   -21637.505 
Loop time of 61.2463 on 1 procs for 495 steps with 19652 atoms

Performance: 0.698 ns/day, 34.369 hours/ns, 8.082 timesteps/s
96.6% CPU use with 1 MPI tasks x no OpenMP threads

MPI task timing breakdown:
Section |  min time  |  avg time  |  max time  |%varavg| %total
---------------------------------------------------------------
Pair    | 32.642     | 32.642     | 32.642     |   0.0 | 53.30
Neigh   | 26.876     | 26.876     | 26.876     |   0.0 | 43.88
Comm    | 0.68462    | 0.68462    | 0.68462    |   0.0 |  1.12
Output  | 0.00018001 | 0.00018001 | 0.00018001 |   0.0 |  0.00
Modify  | 0.82269    | 0.82269    | 0.82269    |   0.0 |  1.34
Other   |            | 0.2207     |            |       |  0.36

Nlocal:    19652 ave 19652 max 19652 min
Histogram: 1 0 0 0 0 0 0 0 0 0
Nghost:    15153 ave 15153 max 15153 min
Histogram: 1 0 0 0 0 0 0 0 0 0
Neighs:    922395 ave 922395 max 922395 min
Histogram: 1 0 0 0 0 0 0 0 0 0

Total # of neighbors = 922395
Ave neighs/atom = 46.9364
Neighbor list builds = 495
Dangerous builds not checked
Setting up Verlet run ...
  Unit style    : metal
  Current step  : 165495
  Time step     : 0.001
Per MPI rank memory allocation (min/avg/max) = 18.22 | 18.22 | 18.22 Mbytes
Step Temp Press TotEng PotEng Enthalpy 
  165495    1165.4669   -7.4793754   -21635.014   -24595.406   -21637.505 
  170000    1148.3813   -210.38026   -21759.248   -24676.241   -21829.209 
Loop time of 518.549 on 1 procs for 4505 steps with 19652 atoms

Performance: 0.751 ns/day, 31.974 hours/ns, 8.688 timesteps/s
99.2% CPU use with 1 MPI tasks x no OpenMP threads

MPI task timing breakdown:
Section |  min time  |  avg time  |  max time  |%varavg| %total
---------------------------------------------------------------
Pair    | 275.39     | 275.39     | 275.39     |   0.0 | 53.11
Neigh   | 229.39     | 229.39     | 229.39     |   0.0 | 44.24
Comm    | 5.0823     | 5.0823     | 5.0823     |   0.0 |  0.98
Output  | 0.065923   | 0.065923   | 0.065923   |   0.0 |  0.01
Modify  | 6.6221     | 6.6221     | 6.6221     |   0.0 |  1.28
Other   |            | 1.994      |            |       |  0.38

Nlocal:    19652 ave 19652 max 19652 min
Histogram: 1 0 0 0 0 0 0 0 0 0
Nghost:    15101 ave 15101 max 15101 min
Histogram: 1 0 0 0 0 0 0 0 0 0
Neighs:    924889 ave 924889 max 924889 min
Histogram: 1 0 0 0 0 0 0 0 0 0

Total # of neighbors = 924889
Ave neighs/atom = 47.0634
[...]
Setting up Verlet run ...
  Unit style    : metal
  Current step  : 240000
  Time step     : 0.001
Per MPI rank memory allocation (min/avg/max) = 18.22 | 18.22 | 18.22 Mbytes
Step Temp Press TotEng PotEng Enthalpy 
  240000    452.77547   -168.86956   -26082.958   -27233.049   -26134.014 
  240495    422.29206    71.390601   -26251.541   -27324.201   -26230.039 
Loop time of 48.3663 on 1 procs for 495 steps with 19652 atoms

Performance: 0.884 ns/day, 27.142 hours/ns, 10.234 timesteps/s
99.9% CPU use with 1 MPI tasks x no OpenMP threads

MPI task timing breakdown:
Section |  min time  |  avg time  |  max time  |%varavg| %total
---------------------------------------------------------------
Pair    | 24.613     | 24.613     | 24.613     |   0.0 | 50.89
Neigh   | 22.581     | 22.581     | 22.581     |   0.0 | 46.69
Comm    | 0.41648    | 0.41648    | 0.41648    |   0.0 |  0.86
Output  | 0.00016904 | 0.00016904 | 0.00016904 |   0.0 |  0.00
Modify  | 0.58439    | 0.58439    | 0.58439    |   0.0 |  1.21
Other   |            | 0.171      |            |       |  0.35

Nlocal:    19652 ave 19652 max 19652 min
Histogram: 1 0 0 0 0 0 0 0 0 0
Nghost:    15709 ave 15709 max 15709 min
Histogram: 1 0 0 0 0 0 0 0 0 0
Neighs:    1.0405e+06 ave 1.0405e+06 max 1.0405e+06 min
Histogram: 1 0 0 0 0 0 0 0 0 0

Total # of neighbors = 1040496
Ave neighs/atom = 52.9461
Neighbor list builds = 495
Dangerous builds not checked
Setting up Verlet run ...
  Unit style    : metal
  Current step  : 240495
  Time step     : 0.001
Per MPI rank memory allocation (min/avg/max) = 18.22 | 18.22 | 18.22 Mbytes
Step Temp Press TotEng PotEng Enthalpy 
  240495    422.29206    71.390601   -26251.541   -27324.201   -26230.039 
  245000    398.28913    303.47981   -26421.277   -27432.968    -26330.32 
Loop time of 513.147 on 1 procs for 4505 steps with 19652 atoms

Performance: 0.759 ns/day, 31.641 hours/ns, 8.779 timesteps/s
98.5% CPU use with 1 MPI tasks x no OpenMP threads

MPI task timing breakdown:
Section |  min time  |  avg time  |  max time  |%varavg| %total
---------------------------------------------------------------
Pair    | 267.01     | 267.01     | 267.01     |   0.0 | 52.03
Neigh   | 233.39     | 233.39     | 233.39     |   0.0 | 45.48
Comm    | 4.6008     | 4.6008     | 4.6008     |   0.0 |  0.90
Output  | 0.094258   | 0.094258   | 0.094258   |   0.0 |  0.02
Modify  | 6.238      | 6.238      | 6.238      |   0.0 |  1.22
Other   |            | 1.811      |            |       |  0.35

Nlocal:    19652 ave 19652 max 19652 min
Histogram: 1 0 0 0 0 0 0 0 0 0
Nghost:    15809 ave 15809 max 15809 min
Histogram: 1 0 0 0 0 0 0 0 0 0
Neighs:    1.04632e+06 ave 1.04632e+06 max 1.04632e+06 min
Histogram: 1 0 0 0 0 0 0 0 0 0

Total # of neighbors = 1046323
Ave neighs/atom = 53.2426
Neighbor list builds = 4505
Dangerous builds not checked
Setting up Verlet run ...
  Unit style    : metal
  Current step  : 245000
  Time step     : 0.001
Per MPI rank memory allocation (min/avg/max) = 18.22 | 18.22 | 18.22 Mbytes
Step Temp Press TotEng PotEng Enthalpy 
  245000    398.28913    303.47981   -26421.277   -27432.968    -26330.32 
  245495    368.77994    11.918177   -26566.002   -27502.736   -26562.436 
Loop time of 62.331 on 1 procs for 495 steps with 19652 atoms

Performance: 0.686 ns/day, 34.978 hours/ns, 7.941 timesteps/s
97.8% CPU use with 1 MPI tasks x no OpenMP threads

MPI task timing breakdown:
Section |  min time  |  avg time  |  max time  |%varavg| %total
---------------------------------------------------------------
Pair    | 33.034     | 33.034     | 33.034     |   0.0 | 53.00
Neigh   | 27.773     | 27.773     | 27.773     |   0.0 | 44.56
Comm    | 0.56009    | 0.56009    | 0.56009    |   0.0 |  0.90
Output  | 0.00018501 | 0.00018501 | 0.00018501 |   0.0 |  0.00
Modify  | 0.76688    | 0.76688    | 0.76688    |   0.0 |  1.23
Other   |            | 0.1966     |            |       |  0.32

Nlocal:    19652 ave 19652 max 19652 min
Histogram: 1 0 0 0 0 0 0 0 0 0
Nghost:    15750 ave 15750 max 15750 min
Histogram: 1 0 0 0 0 0 0 0 0 0
Neighs:    1.0488e+06 ave 1.0488e+06 max 1.0488e+06 min
Histogram: 1 0 0 0 0 0 0 0 0 0

Total # of neighbors = 1048805
Ave neighs/atom = 53.3689
Neighbor list builds = 495
Dangerous builds not checked
Setting up Verlet run ...
  Unit style    : metal
  Current step  : 245495
  Time step     : 0.001
Per MPI rank memory allocation (min/avg/max) = 18.22 | 18.22 | 18.22 Mbytes
Step Temp Press TotEng PotEng Enthalpy 
  245495    368.77994    11.918177   -26566.002   -27502.736   -26562.436 
  250000    346.62457   -144.45054   -26736.676   -27617.134   -26779.722 
Loop time of 528.392 on 1 procs for 4505 steps with 19652 atoms

Performance: 0.737 ns/day, 32.581 hours/ns, 8.526 timesteps/s
99.0% CPU use with 1 MPI tasks x no OpenMP threads

MPI task timing breakdown:
Section |  min time  |  avg time  |  max time  |%varavg| %total
---------------------------------------------------------------
Pair    | 278.15     | 278.15     | 278.15     |   0.0 | 52.64
Neigh   | 237        | 237        | 237        |   0.0 | 44.85
Comm    | 4.6996     | 4.6996     | 4.6996     |   0.0 |  0.89
Output  | 0.23389    | 0.23389    | 0.23389    |   0.0 |  0.04
Modify  | 6.5476     | 6.5476     | 6.5476     |   0.0 |  1.24
Other   |            | 1.758      |            |       |  0.33

Nlocal:    19652 ave 19652 max 19652 min
Histogram: 1 0 0 0 0 0 0 0 0 0
Nghost:    15820 ave 15820 max 15820 min
Histogram: 1 0 0 0 0 0 0 0 0 0
Neighs:    1.05475e+06 ave 1.05475e+06 max 1.05475e+06 min
Histogram: 1 0 0 0 0 0 0 0 0 0

Total # of neighbors = 1054750
Ave neighs/atom = 53.6714
Neighbor list builds = 4505
Dangerous builds not checked
Setting up Verlet run ...
  Unit style    : metal
  Current step  : 250000
  Time step     : 0.001
Per MPI rank memory allocation (min/avg/max) = 18.22 | 18.22 | 18.22 Mbytes
Step Temp Press TotEng PotEng Enthalpy 
  250000    346.62457   -144.45054   -26736.676   -27617.134   -26779.722 
  250495    323.29216    159.40257   -26875.031   -27696.223   -26827.725 
Loop time of 57.0573 on 1 procs for 495 steps with 19652 atoms

Performance: 0.750 ns/day, 32.019 hours/ns, 8.675 timesteps/s
99.4% CPU use with 1 MPI tasks x no OpenMP threads

MPI task timing breakdown:
Section |  min time  |  avg time  |  max time  |%varavg| %total
---------------------------------------------------------------
Pair    | 30.01      | 30.01      | 30.01      |   0.0 | 52.60
Neigh   | 25.643     | 25.643     | 25.643     |   0.0 | 44.94
Comm    | 0.51634    | 0.51634    | 0.51634    |   0.0 |  0.90
Output  | 0.00019097 | 0.00019097 | 0.00019097 |   0.0 |  0.00
Modify  | 0.69031    | 0.69031    | 0.69031    |   0.0 |  1.21
Other   |            | 0.1966     |            |       |  0.34

Nlocal:    19652 ave 19652 max 19652 min
Histogram: 1 0 0 0 0 0 0 0 0 0
Nghost:    15878 ave 15878 max 15878 min
Histogram: 1 0 0 0 0 0 0 0 0 0
Neighs:    1.06014e+06 ave 1.06014e+06 max 1.06014e+06 min
Histogram: 1 0 0 0 0 0 0 0 0 0

Total # of neighbors = 1060137
Ave neighs/atom = 53.9455
Neighbor list builds = 495
Dangerous builds not checked
Setting up Verlet run ...
  Unit style    : metal
  Current step  : 250495
  Time step     : 0.001
Per MPI rank memory allocation (min/avg/max) = 18.22 | 18.22 | 18.22 Mbytes
Step Temp Press TotEng PotEng Enthalpy 
  250495    323.29216    159.40257   -26875.031   -27696.223   -26827.725 
  255000    298.17637    66.931575   -27035.726   -27793.121   -27015.925 
Loop time of 529.402 on 1 procs for 4505 steps with 19652 atoms

Performance: 0.735 ns/day, 32.643 hours/ns, 8.510 timesteps/s
98.7% CPU use with 1 MPI tasks x no OpenMP threads

MPI task timing breakdown:
Section |  min time  |  avg time  |  max time  |%varavg| %total
---------------------------------------------------------------
Pair    | 279.25     | 279.25     | 279.25     |   0.0 | 52.75
Neigh   | 236.84     | 236.84     | 236.84     |   0.0 | 44.74
Comm    | 4.8465     | 4.8465     | 4.8465     |   0.0 |  0.92
Output  | 0.082055   | 0.082055   | 0.082055   |   0.0 |  0.02
Modify  | 6.5405     | 6.5405     | 6.5405     |   0.0 |  1.24
Other   |            | 1.845      |            |       |  0.35

Nlocal:    19652 ave 19652 max 19652 min
Histogram: 1 0 0 0 0 0 0 0 0 0
Nghost:    15851 ave 15851 max 15851 min
Histogram: 1 0 0 0 0 0 0 0 0 0
Neighs:    1.06464e+06 ave 1.06464e+06 max 1.06464e+06 min
Histogram: 1 0 0 0 0 0 0 0 0 0

Total # of neighbors = 1064641
Ave neighs/atom = 54.1747
Neighbor list builds = 4505
Dangerous builds not checked
Setting up Verlet run ...
  Unit style    : metal
  Current step  : 255000
  Time step     : 0.001
Per MPI rank memory allocation (min/avg/max) = 18.22 | 18.22 | 18.22 Mbytes
Step Temp Press TotEng PotEng Enthalpy 
  255000    298.17637    66.931575   -27035.726   -27793.121   -27015.925 
  255495    272.48577    16.237674   -27167.581    -27859.72    -27162.79 
Loop time of 63.5122 on 1 procs for 495 steps with 19652 atoms

Performance: 0.673 ns/day, 35.641 hours/ns, 7.794 timesteps/s
97.2% CPU use with 1 MPI tasks x no OpenMP threads

MPI task timing breakdown:
Section |  min time  |  avg time  |  max time  |%varavg| %total
---------------------------------------------------------------
Pair    | 33.857     | 33.857     | 33.857     |   0.0 | 53.31
Neigh   | 28.091     | 28.091     | 28.091     |   0.0 | 44.23
Comm    | 0.55379    | 0.55379    | 0.55379    |   0.0 |  0.87
Output  | 0.00020695 | 0.00020695 | 0.00020695 |   0.0 |  0.00
Modify  | 0.80526    | 0.80526    | 0.80526    |   0.0 |  1.27
Other   |            | 0.2048     |            |       |  0.32

Nlocal:    19652 ave 19652 max 19652 min
Histogram: 1 0 0 0 0 0 0 0 0 0
Nghost:    15867 ave 15867 max 15867 min
Histogram: 1 0 0 0 0 0 0 0 0 0
Neighs:    1.06748e+06 ave 1.06748e+06 max 1.06748e+06 min
Histogram: 1 0 0 0 0 0 0 0 0 0

Total # of neighbors = 1067481
Ave neighs/atom = 54.3192
Neighbor list builds = 495
Dangerous builds not checked
Setting up Verlet run ...
  Unit style    : metal
  Current step  : 255495
  Time step     : 0.001
Per MPI rank memory allocation (min/avg/max) = 18.22 | 18.22 | 18.22 Mbytes
Step Temp Press TotEng PotEng Enthalpy 
  255495    272.48577    16.237674   -27167.581    -27859.72    -27162.79 
  260000    248.67914   -169.20613   -27315.102    -27946.77   -27364.934 
Loop time of 498.65 on 1 procs for 4505 steps with 19652 atoms

Performance: 0.781 ns/day, 30.747 hours/ns, 9.034 timesteps/s
99.4% CPU use with 1 MPI tasks x no OpenMP threads

MPI task timing breakdown:
Section |  min time  |  avg time  |  max time  |%varavg| %total
---------------------------------------------------------------
Pair    | 260.61     | 260.61     | 260.61     |   0.0 | 52.26
Neigh   | 225.65     | 225.65     | 225.65     |   0.0 | 45.25
Comm    | 4.3891     | 4.3891     | 4.3891     |   0.0 |  0.88
Output  | 0.26416    | 0.26416    | 0.26416    |   0.0 |  0.05
Modify  | 6.0307     | 6.0307     | 6.0307     |   0.0 |  1.21
Other   |            | 1.706      |            |       |  0.34

Nlocal:    19652 ave 19652 max 19652 min
Histogram: 1 0 0 0 0 0 0 0 0 0
Nghost:    15910 ave 15910 max 15910 min
Histogram: 1 0 0 0 0 0 0 0 0 0
Neighs:    1.07044e+06 ave 1.07044e+06 max 1.07044e+06 min
Histogram: 1 0 0 0 0 0 0 0 0 0

Total # of neighbors = 1070445
Ave neighs/atom = 54.47
Neighbor list builds = 4505
Dangerous builds not checked
Setting up Verlet run ...
  Unit style    : metal
  Current step  : 260000
  Time step     : 0.001
Per MPI rank memory allocation (min/avg/max) = 18.22 | 18.22 | 18.22 Mbytes
Step Temp Press TotEng PotEng Enthalpy 
  260000    248.67914   -169.20613   -27315.102    -27946.77   -27364.934 
  260495    223.48722   -20.681777   -27453.461   -28021.139   -27459.531 
Loop time of 61.6354 on 1 procs for 495 steps with 19652 atoms

Performance: 0.694 ns/day, 34.588 hours/ns, 8.031 timesteps/s
98.8% CPU use with 1 MPI tasks x no OpenMP threads

MPI task timing breakdown:
Section |  min time  |  avg time  |  max time  |%varavg| %total
---------------------------------------------------------------
Pair    | 32.967     | 32.967     | 32.967     |   0.0 | 53.49
Neigh   | 27.135     | 27.135     | 27.135     |   0.0 | 44.02
Comm    | 0.55896    | 0.55896    | 0.55896    |   0.0 |  0.91
Output  | 0.00020909 | 0.00020909 | 0.00020909 |   0.0 |  0.00
Modify  | 0.77541    | 0.77541    | 0.77541    |   0.0 |  1.26
Other   |            | 0.1998     |            |       |  0.32

Nlocal:    19652 ave 19652 max 19652 min
Histogram: 1 0 0 0 0 0 0 0 0 0
Nghost:    15911 ave 15911 max 15911 min
Histogram: 1 0 0 0 0 0 0 0 0 0
Neighs:    1.0748e+06 ave 1.0748e+06 max 1.0748e+06 min
Histogram: 1 0 0 0 0 0 0 0 0 0

Total # of neighbors = 1074801
Ave neighs/atom = 54.6917
Neighbor list builds = 495
Dangerous builds not checked
Setting up Verlet run ...
  Unit style    : metal
  Current step  : 260495
  Time step     : 0.001
Per MPI rank memory allocation (min/avg/max) = 18.22 | 18.22 | 18.22 Mbytes
Step Temp Press TotEng PotEng Enthalpy 
  260495    223.48722   -20.681777   -27453.461   -28021.139   -27459.531 
  265000    198.74396    82.927456   -27599.658   -28104.485   -27575.398 
Loop time of 541.101 on 1 procs for 4505 steps with 19652 atoms

Performance: 0.719 ns/day, 33.364 hours/ns, 8.326 timesteps/s
98.7% CPU use with 1 MPI tasks x no OpenMP threads

MPI task timing breakdown:
Section |  min time  |  avg time  |  max time  |%varavg| %total
---------------------------------------------------------------
Pair    | 286.81     | 286.81     | 286.81     |   0.0 | 53.00
Neigh   | 241.03     | 241.03     | 241.03     |   0.0 | 44.55
Comm    | 4.7233     | 4.7233     | 4.7233     |   0.0 |  0.87
Output  | 0.14864    | 0.14864    | 0.14864    |   0.0 |  0.03
Modify  | 6.6564     | 6.6564     | 6.6564     |   0.0 |  1.23
Other   |            | 1.733      |            |       |  0.32

Nlocal:    19652 ave 19652 max 19652 min
Histogram: 1 0 0 0 0 0 0 0 0 0
Nghost:    15906 ave 15906 max 15906 min
Histogram: 1 0 0 0 0 0 0 0 0 0
Neighs:    1.07942e+06 ave 1.07942e+06 max 1.07942e+06 min
Histogram: 1 0 0 0 0 0 0 0 0 0

Total # of neighbors = 1079421
Ave neighs/atom = 54.9268
Neighbor list builds = 4505
Dangerous builds not checked
Setting up Verlet run ...
  Unit style    : metal
  Current step  : 265000
  Time step     : 0.001
Per MPI rank memory allocation (min/avg/max) = 18.22 | 18.22 | 18.22 Mbytes
Step Temp Press TotEng PotEng Enthalpy 
  265000    198.74396    82.927456   -27599.658   -28104.485   -27575.398 
  265495    176.06133   -36.126562   -27724.999   -28172.211   -27735.546 
Loop time of 53.6097 on 1 procs for 495 steps with 19652 atoms

Performance: 0.798 ns/day, 30.084 hours/ns, 9.233 timesteps/s
99.8% CPU use with 1 MPI tasks x no OpenMP threads

MPI task timing breakdown:
Section |  min time  |  avg time  |  max time  |%varavg| %total
---------------------------------------------------------------
Pair    | 28.18      | 28.18      | 28.18      |   0.0 | 52.56
Neigh   | 24.126     | 24.126     | 24.126     |   0.0 | 45.00
Comm    | 0.472      | 0.472      | 0.472      |   0.0 |  0.88
Output  | 0.00014591 | 0.00014591 | 0.00014591 |   0.0 |  0.00
Modify  | 0.64317    | 0.64317    | 0.64317    |   0.0 |  1.20
Other   |            | 0.1889     |            |       |  0.35

Nlocal:    19652 ave 19652 max 19652 min
Histogram: 1 0 0 0 0 0 0 0 0 0
Nghost:    15991 ave 15991 max 15991 min
Histogram: 1 0 0 0 0 0 0 0 0 0
Neighs:    1.08198e+06 ave 1.08198e+06 max 1.08198e+06 min
Histogram: 1 0 0 0 0 0 0 0 0 0

Total # of neighbors = 1081978
Ave neighs/atom = 55.0569
Neighbor list builds = 495
Dangerous builds not checked
Setting up Verlet run ...
  Unit style    : metal
  Current step  : 265495
  Time step     : 0.001
Per MPI rank memory allocation (min/avg/max) = 18.22 | 18.22 | 18.22 Mbytes
Step Temp Press TotEng PotEng Enthalpy 
  265495    176.06133   -36.126562   -27724.999   -28172.211   -27735.546 
  270000    150.18009   -186.82142    -27871.36   -28252.831   -27925.791 
Loop time of 500.194 on 1 procs for 4505 steps with 19652 atoms

Performance: 0.778 ns/day, 30.842 hours/ns, 9.006 timesteps/s
98.9% CPU use with 1 MPI tasks x no OpenMP threads

MPI task timing breakdown:
Section |  min time  |  avg time  |  max time  |%varavg| %total
---------------------------------------------------------------
Pair    | 262.53     | 262.53     | 262.53     |   0.0 | 52.49
Neigh   | 225.39     | 225.39     | 225.39     |   0.0 | 45.06
Comm    | 4.2862     | 4.2862     | 4.2862     |   0.0 |  0.86
Output  | 0.28656    | 0.28656    | 0.28656    |   0.0 |  0.06
Modify  | 6.0871     | 6.0871     | 6.0871     |   0.0 |  1.22
Other   |            | 1.611      |            |       |  0.32

Nlocal:    19652 ave 19652 max 19652 min
Histogram: 1 0 0 0 0 0 0 0 0 0
Nghost:    15966 ave 15966 max 15966 min
Histogram: 1 0 0 0 0 0 0 0 0 0
Neighs:    1.08516e+06 ave 1.08516e+06 max 1.08516e+06 min
Histogram: 1 0 0 0 0 0 0 0 0 0

Total # of neighbors = 1085158
Ave neighs/atom = 55.2187
Neighbor list builds = 4505
Dangerous builds not checked
Setting up Verlet run ...
  Unit style    : metal
  Current step  : 270000
  Time step     : 0.001
Per MPI rank memory allocation (min/avg/max) = 18.22 | 18.22 | 18.22 Mbytes
Step Temp Press TotEng PotEng Enthalpy 
  270000    150.18009   -186.82142    -27871.36   -28252.831   -27925.791 
  270495    127.35975     193.2212   -27990.989   -28314.495   -27934.897 
Loop time of 57.7018 on 1 procs for 495 steps with 19652 atoms

Performance: 0.741 ns/day, 32.380 hours/ns, 8.579 timesteps/s
98.1% CPU use with 1 MPI tasks x no OpenMP threads

MPI task timing breakdown:
Section |  min time  |  avg time  |  max time  |%varavg| %total
---------------------------------------------------------------
Pair    | 30.083     | 30.083     | 30.083     |   0.0 | 52.14
Neigh   | 26.201     | 26.201     | 26.201     |   0.0 | 45.41
Comm    | 0.4977     | 0.4977     | 0.4977     |   0.0 |  0.86
Output  | 0.0001719  | 0.0001719  | 0.0001719  |   0.0 |  0.00
Modify  | 0.73045    | 0.73045    | 0.73045    |   0.0 |  1.27
Other   |            | 0.1892     |            |       |  0.33

Nlocal:    19652 ave 19652 max 19652 min
Histogram: 1 0 0 0 0 0 0 0 0 0
Nghost:    16007 ave 16007 max 16007 min
Histogram: 1 0 0 0 0 0 0 0 0 0
Neighs:    1.08939e+06 ave 1.08939e+06 max 1.08939e+06 min
Histogram: 1 0 0 0 0 0 0 0 0 0

Total # of neighbors = 1089386
Ave neighs/atom = 55.4338
Neighbor list builds = 495
Dangerous builds not checked
Setting up Verlet run ...
  Unit style    : metal
  Current step  : 270495
  Time step     : 0.001
Per MPI rank memory allocation (min/avg/max) = 18.22 | 18.22 | 18.22 Mbytes
Step Temp Press TotEng PotEng Enthalpy 
  270495    127.35975     193.2212   -27990.989   -28314.495   -27934.897 
  275000    100.12861   -175.76384   -28135.392   -28389.728   -28186.351 
Loop time of 541.118 on 1 procs for 4505 steps with 19652 atoms

Performance: 0.719 ns/day, 33.365 hours/ns, 8.325 timesteps/s
97.6% CPU use with 1 MPI tasks x no OpenMP threads

MPI task timing breakdown:
Section |  min time  |  avg time  |  max time  |%varavg| %total
---------------------------------------------------------------
Pair    | 286.09     | 286.09     | 286.09     |   0.0 | 52.87
Neigh   | 241.83     | 241.83     | 241.83     |   0.0 | 44.69
Comm    | 4.6353     | 4.6353     | 4.6353     |   0.0 |  0.86
Output  | 0.11837    | 0.11837    | 0.11837    |   0.0 |  0.02
Modify  | 6.7204     | 6.7204     | 6.7204     |   0.0 |  1.24
Other   |            | 1.724      |            |       |  0.32

Nlocal:    19652 ave 19652 max 19652 min
Histogram: 1 0 0 0 0 0 0 0 0 0
Nghost:    16016 ave 16016 max 16016 min
Histogram: 1 0 0 0 0 0 0 0 0 0
Neighs:    1.09167e+06 ave 1.09167e+06 max 1.09167e+06 min
Histogram: 1 0 0 0 0 0 0 0 0 0

Total # of neighbors = 1091669
Ave neighs/atom = 55.55
Neighbor list builds = 4505
Dangerous builds not checked
Total wall time: 9:18:42
