LAMMPS (12 Dec 2018)
Lattice spacing in x,y,z = 4 4 4
Created orthogonal box = (0 0 0) to (68 68 68)
  1 by 1 by 1 MPI processor grid
Created 19652 atoms
  Time spent = 0.00290585 secs
Setting atom values ...
  0 settings made for type/fraction
Neighbor list info ...
  update every 1 steps, delay 0 steps, check no
  max neighbors/atom: 2000, page size: 100000
  master list distance cutoff = 8.5
  ghost atom cutoff = 8.5
  binsize = 4.25, bins = 16 16 16
  1 neighbor lists, perpetual/occasional/extra = 1 0 0
  (1) pair eam/alloy, perpetual
      attributes: half, newton on
      pair build: half/bin/atomonly/newton
      stencil: half/bin/3d/newton
      bin: standard
Setting up Verlet run ...
  Unit style    : metal
  Current step  : 0
  Time step     : 0.001
Per MPI rank memory allocation (min/avg/max) = 18.19 | 18.19 | 18.19 Mbytes
Step Temp Press TotEng PotEng Enthalpy 
       0          300    1222321.5   -17390.093    -18152.12     222494.2 
    1000    149.17788    1225721.2   -17389.948   -17768.873    223161.57 
Loop time of 168.588 on 1 procs for 1000 steps with 19652 atoms

Performance: 0.512 ns/day, 46.830 hours/ns, 5.932 timesteps/s
91.3% CPU use with 1 MPI tasks x no OpenMP threads

MPI task timing breakdown:
Section |  min time  |  avg time  |  max time  |%varavg| %total
---------------------------------------------------------------
Pair    | 95.158     | 95.158     | 95.158     |   0.0 | 56.44
Neigh   | 71.204     | 71.204     | 71.204     |   0.0 | 42.24
Comm    | 1.2871     | 1.2871     | 1.2871     |   0.0 |  0.76
Output  | 0.021149   | 0.021149   | 0.021149   |   0.0 |  0.01
Modify  | 0.47972    | 0.47972    | 0.47972    |   0.0 |  0.28
Other   |            | 0.4377     |            |       |  0.26

Nlocal:    19652 ave 19652 max 19652 min
Histogram: 1 0 0 0 0 0 0 0 0 0
Nghost:    20102 ave 20102 max 20102 min
Histogram: 1 0 0 0 0 0 0 0 0 0
Neighs:    1.59545e+06 ave 1.59545e+06 max 1.59545e+06 min
Histogram: 1 0 0 0 0 0 0 0 0 0

Total # of neighbors = 1595452
Ave neighs/atom = 81.1852
Neighbor list builds = 1000
Dangerous builds not checked
Setting up Verlet run ...
  Unit style    : metal
  Current step  : 1000
  Time step     : 0.001
Per MPI rank memory allocation (min/avg/max) = 18.19 | 18.19 | 18.19 Mbytes
Step Temp Press TotEng PotEng Enthalpy 
    1000    149.17788    1225721.2   -17389.948   -17768.873    223161.57 
    2000    167.44623    1466.9928   -86453.804   -86879.133   -85776.324 
Loop time of 122.786 on 1 procs for 1000 steps with 19652 atoms

Performance: 0.704 ns/day, 34.107 hours/ns, 8.144 timesteps/s
83.8% CPU use with 1 MPI tasks x no OpenMP threads

MPI task timing breakdown:
Section |  min time  |  avg time  |  max time  |%varavg| %total
---------------------------------------------------------------
Pair    | 62.218     | 62.218     | 62.218     |   0.0 | 50.67
Neigh   | 56.96      | 56.96      | 56.96      |   0.0 | 46.39
Comm    | 1.2561     | 1.2561     | 1.2561     |   0.0 |  1.02
Output  | 0.067088   | 0.067088   | 0.067088   |   0.0 |  0.05
Modify  | 1.8141     | 1.8141     | 1.8141     |   0.0 |  1.48
Other   |            | 0.4707     |            |       |  0.38

Nlocal:    19652 ave 19652 max 19652 min
Histogram: 1 0 0 0 0 0 0 0 0 0
Nghost:    14808 ave 14808 max 14808 min
Histogram: 1 0 0 0 0 0 0 0 0 0
Neighs:    699196 ave 699196 max 699196 min
Histogram: 1 0 0 0 0 0 0 0 0 0

Total # of neighbors = 699196
Ave neighs/atom = 35.5789
Neighbor list builds = 1000
Dangerous builds not checked
Setting up Verlet run ...
  Unit style    : metal
  Current step  : 2000
  Time step     : 0.001
Per MPI rank memory allocation (min/avg/max) = 18.22 | 18.22 | 18.22 Mbytes
Step Temp Press TotEng PotEng Enthalpy 
    2000    167.44623    1466.9928   -86453.804   -86879.133   -85776.324 
    4000    784.49717    74.455118   -82609.252   -84601.946   -82573.275 
    6000     1384.704    281.07837   -79107.377   -82624.652   -78967.298 
    8000    1910.7676   -107.69769   -76491.384   -81344.908   -76546.405 
   10000    2444.2816    -865.8488   -73884.142   -80092.839    -74338.95 
Loop time of 773.47 on 1 procs for 8000 steps with 19652 atoms

Performance: 0.894 ns/day, 26.857 hours/ns, 10.343 timesteps/s
82.7% CPU use with 1 MPI tasks x no OpenMP threads

MPI task timing breakdown:
Section |  min time  |  avg time  |  max time  |%varavg| %total
---------------------------------------------------------------
Pair    | 356.77     | 356.77     | 356.77     |   0.0 | 46.13
Neigh   | 388.71     | 388.71     | 388.71     |   0.0 | 50.26
Comm    | 9.3489     | 9.3489     | 9.3489     |   0.0 |  1.21
Output  | 0.24667    | 0.24667    | 0.24667    |   0.0 |  0.03
Modify  | 14.581     | 14.581     | 14.581     |   0.0 |  1.89
Other   |            | 3.814      |            |       |  0.49

Nlocal:    19652 ave 19652 max 19652 min
Histogram: 1 0 0 0 0 0 0 0 0 0
Nghost:    12658 ave 12658 max 12658 min
Histogram: 1 0 0 0 0 0 0 0 0 0
Neighs:    582501 ave 582501 max 582501 min
Histogram: 1 0 0 0 0 0 0 0 0 0

Total # of neighbors = 582501
Ave neighs/atom = 29.6408
Neighbor list builds = 8000
Dangerous builds not checked
Setting up Verlet run ...
  Unit style    : metal
  Current step  : 10000
  Time step     : 0.001
Per MPI rank memory allocation (min/avg/max) = 18.24 | 18.24 | 18.24 Mbytes
Step Temp Press TotEng PotEng Enthalpy 
   10000    2444.2816    -865.8488   -73884.142   -80092.839    -74338.95 
   12000    2446.8584     -102.658   -73822.488   -80037.731   -73876.306 
   14000    2459.5773   -573.44061   -73775.431   -80022.982   -74076.742 
   16000    2441.8013   -443.61917   -73852.115   -80054.513   -74084.844 
   18000    2446.9582    558.58375   -73867.746   -80083.243   -73575.918 
   20000    2455.7831   -100.69348   -73787.721   -80025.634   -73840.516 
   22000    2466.1537    376.25126   -73787.217   -80051.472   -73590.228 
   24000    2451.3439    232.15538   -73908.206   -80134.843   -73786.795 
   26000    2445.4487    73.432571   -73880.516   -80092.179   -73842.059 
   28000    2424.9693    485.98253   -73826.883   -79986.526   -73572.614 
   30000    2444.1449    107.03212   -73881.352   -80089.703   -73825.308 
   32000    2455.9859    187.62553   -73853.364   -80091.792   -73755.161 
   34000    2429.2331   -228.26733   -73931.691   -80102.164   -74051.313 
   36000    2439.6782    235.56132   -73895.084   -80092.088   -73771.826 
   38000    2461.7555   -713.43909   -73786.784   -80039.867   -74161.636 
   40000    2437.8368   -358.55787   -73890.672   -80082.999   -74078.661 
Loop time of 2879.17 on 1 procs for 30000 steps with 19652 atoms

Performance: 0.900 ns/day, 26.659 hours/ns, 10.420 timesteps/s
81.7% CPU use with 1 MPI tasks x no OpenMP threads

MPI task timing breakdown:
Section |  min time  |  avg time  |  max time  |%varavg| %total
---------------------------------------------------------------
Pair    | 1341.2     | 1341.2     | 1341.2     |   0.0 | 46.58
Neigh   | 1431.8     | 1431.8     | 1431.8     |   0.0 | 49.73
Comm    | 34.924     | 34.924     | 34.924     |   0.0 |  1.21
Output  | 1.2748     | 1.2748     | 1.2748     |   0.0 |  0.04
Modify  | 55.897     | 55.897     | 55.897     |   0.0 |  1.94
Other   |            | 14.11      |            |       |  0.49

Nlocal:    19652 ave 19652 max 19652 min
Histogram: 1 0 0 0 0 0 0 0 0 0
Nghost:    12708 ave 12708 max 12708 min
Histogram: 1 0 0 0 0 0 0 0 0 0
Neighs:    583418 ave 583418 max 583418 min
Histogram: 1 0 0 0 0 0 0 0 0 0

Total # of neighbors = 583418
Ave neighs/atom = 29.6875
Neighbor list builds = 30000
Dangerous builds not checked
Setting up Verlet run ...
  Unit style    : metal
  Current step  : 40000
  Time step     : 0.001
Per MPI rank memory allocation (min/avg/max) = 18.24 | 18.24 | 18.24 Mbytes
Step Temp Press TotEng PotEng Enthalpy 
   40000    2437.8368   -358.55787   -73890.672   -80082.999   -74078.661 
   40495    2398.3634   -332.15817   -73980.345   -80072.406   -74154.497 
Loop time of 44.0217 on 1 procs for 495 steps with 19652 atoms

Performance: 0.972 ns/day, 24.704 hours/ns, 11.244 timesteps/s
85.8% CPU use with 1 MPI tasks x no OpenMP threads

MPI task timing breakdown:
Section |  min time  |  avg time  |  max time  |%varavg| %total
---------------------------------------------------------------
Pair    | 20.534     | 20.534     | 20.534     |   0.0 | 46.64
Neigh   | 21.859     | 21.859     | 21.859     |   0.0 | 49.66
Comm    | 0.54938    | 0.54938    | 0.54938    |   0.0 |  1.25
Output  | 0.00030804 | 0.00030804 | 0.00030804 |   0.0 |  0.00
Modify  | 0.88339    | 0.88339    | 0.88339    |   0.0 |  2.01
Other   |            | 0.1958     |            |       |  0.44

Nlocal:    19652 ave 19652 max 19652 min
Histogram: 1 0 0 0 0 0 0 0 0 0
Nghost:    12666 ave 12666 max 12666 min
Histogram: 1 0 0 0 0 0 0 0 0 0
Neighs:    583613 ave 583613 max 583613 min
Histogram: 1 0 0 0 0 0 0 0 0 0

Total # of neighbors = 583613
Ave neighs/atom = 29.6974
Neighbor list builds = 495
Dangerous builds not checked
Setting up Verlet run ...
  Unit style    : metal
  Current step  : 40495
  Time step     : 0.001
Per MPI rank memory allocation (min/avg/max) = 18.24 | 18.24 | 18.24 Mbytes
Step Temp Press TotEng PotEng Enthalpy 
   40495    2398.3634   -332.15817   -73980.345   -80072.406   -74154.497 
   42000    2393.0407   -421.06629   -74037.953   -80116.494   -74258.619 
Loop time of 144.443 on 1 procs for 1505 steps with 19652 atoms

Performance: 0.900 ns/day, 26.660 hours/ns, 10.419 timesteps/s
81.6% CPU use with 1 MPI tasks x no OpenMP threads

MPI task timing breakdown:
Section |  min time  |  avg time  |  max time  |%varavg| %total
---------------------------------------------------------------
Pair    | 67.522     | 67.522     | 67.522     |   0.0 | 46.75
Neigh   | 71.539     | 71.539     | 71.539     |   0.0 | 49.53
Comm    | 1.761      | 1.761      | 1.761      |   0.0 |  1.22
Output  | 0.074998   | 0.074998   | 0.074998   |   0.0 |  0.05
Modify  | 2.8088     | 2.8088     | 2.8088     |   0.0 |  1.94
Other   |            | 0.7367     |            |       |  0.51

Nlocal:    19652 ave 19652 max 19652 min
Histogram: 1 0 0 0 0 0 0 0 0 0
Nghost:    12666 ave 12666 max 12666 min
Histogram: 1 0 0 0 0 0 0 0 0 0
Neighs:    583865 ave 583865 max 583865 min
Histogram: 1 0 0 0 0 0 0 0 0 0

Total # of neighbors = 583865
Ave neighs/atom = 29.7102
Neighbor list builds = 1505
Dangerous builds not checked
Setting up Verlet run ...
  Unit style    : metal
  Current step  : 42000
  Time step     : 0.001
Per MPI rank memory allocation (min/avg/max) = 18.24 | 18.24 | 18.24 Mbytes
Step Temp Press TotEng PotEng Enthalpy 
   42000    2393.0407   -421.06629   -74037.953   -80116.494   -74258.619 
   42495    2344.7765     288.5331   -74282.235   -80238.181   -74131.747 
Loop time of 45.1555 on 1 procs for 495 steps with 19652 atoms

Performance: 0.947 ns/day, 25.340 hours/ns, 10.962 timesteps/s
84.9% CPU use with 1 MPI tasks x no OpenMP threads

MPI task timing breakdown:
Section |  min time  |  avg time  |  max time  |%varavg| %total
---------------------------------------------------------------
Pair    | 21.114     | 21.114     | 21.114     |   0.0 | 46.76
Neigh   | 22.374     | 22.374     | 22.374     |   0.0 | 49.55
Comm    | 0.54013    | 0.54013    | 0.54013    |   0.0 |  1.20
Output  | 0.00017309 | 0.00017309 | 0.00017309 |   0.0 |  0.00
Modify  | 0.89235    | 0.89235    | 0.89235    |   0.0 |  1.98
Other   |            | 0.2357     |            |       |  0.52

Nlocal:    19652 ave 19652 max 19652 min
Histogram: 1 0 0 0 0 0 0 0 0 0
Nghost:    12650 ave 12650 max 12650 min
Histogram: 1 0 0 0 0 0 0 0 0 0
Neighs:    586683 ave 586683 max 586683 min
Histogram: 1 0 0 0 0 0 0 0 0 0

Total # of neighbors = 586683
Ave neighs/atom = 29.8536
Neighbor list builds = 495
Dangerous builds not checked
Setting up Verlet run ...
  Unit style    : metal
  Current step  : 42495
  Time step     : 0.001
Per MPI rank memory allocation (min/avg/max) = 18.24 | 18.24 | 18.24 Mbytes
Step Temp Press TotEng PotEng Enthalpy 
   42495    2344.7765     288.5331   -74282.235   -80238.181   -74131.747 
   44000    2380.2304    532.25935   -74261.374   -80307.376   -73984.259 
Loop time of 146.599 on 1 procs for 1505 steps with 19652 atoms

Performance: 0.887 ns/day, 27.058 hours/ns, 10.266 timesteps/s
80.0% CPU use with 1 MPI tasks x no OpenMP threads

MPI task timing breakdown:
Section |  min time  |  avg time  |  max time  |%varavg| %total
---------------------------------------------------------------
Pair    | 68.329     | 68.329     | 68.329     |   0.0 | 46.61
Neigh   | 72.749     | 72.749     | 72.749     |   0.0 | 49.62
Comm    | 1.7248     | 1.7248     | 1.7248     |   0.0 |  1.18
Output  | 0.063262   | 0.063262   | 0.063262   |   0.0 |  0.04
Modify  | 2.9744     | 2.9744     | 2.9744     |   0.0 |  2.03
Other   |            | 0.7583     |            |       |  0.52

Nlocal:    19652 ave 19652 max 19652 min
Histogram: 1 0 0 0 0 0 0 0 0 0
Nghost:    12702 ave 12702 max 12702 min
Histogram: 1 0 0 0 0 0 0 0 0 0
Neighs:    587436 ave 587436 max 587436 min
Histogram: 1 0 0 0 0 0 0 0 0 0

Total # of neighbors = 587436
Ave neighs/atom = 29.8919
Neighbor list builds = 1505
Dangerous builds not checked
Setting up Verlet run ...
  Unit style    : metal
  Current step  : 44000
  Time step     : 0.001
Per MPI rank memory allocation (min/avg/max) = 18.24 | 18.24 | 18.24 Mbytes
Step Temp Press TotEng PotEng Enthalpy 
   44000    2380.2304    532.25935   -74261.374   -80307.376   -73984.259 
   44495    2313.4124    429.37146   -74443.997   -80320.275   -74220.676 
Loop time of 48.1275 on 1 procs for 495 steps with 19652 atoms

Performance: 0.889 ns/day, 27.008 hours/ns, 10.285 timesteps/s
78.8% CPU use with 1 MPI tasks x no OpenMP threads

MPI task timing breakdown:
Section |  min time  |  avg time  |  max time  |%varavg| %total
---------------------------------------------------------------
Pair    | 22.374     | 22.374     | 22.374     |   0.0 | 46.49
Neigh   | 23.903     | 23.903     | 23.903     |   0.0 | 49.67
Comm    | 0.60186    | 0.60186    | 0.60186    |   0.0 |  1.25
Output  | 0.00030088 | 0.00030088 | 0.00030088 |   0.0 |  0.00
Modify  | 0.97241    | 0.97241    | 0.97241    |   0.0 |  2.02
Other   |            | 0.2752     |            |       |  0.57

Nlocal:    19652 ave 19652 max 19652 min
Histogram: 1 0 0 0 0 0 0 0 0 0
Nghost:    12724 ave 12724 max 12724 min
Histogram: 1 0 0 0 0 0 0 0 0 0
Neighs:    588329 ave 588329 max 588329 min
Histogram: 1 0 0 0 0 0 0 0 0 0

Total # of neighbors = 588329
Ave neighs/atom = 29.9374
Neighbor list builds = 495
Dangerous builds not checked
Setting up Verlet run ...
  Unit style    : metal
  Current step  : 44495
  Time step     : 0.001
Per MPI rank memory allocation (min/avg/max) = 18.24 | 18.24 | 18.24 Mbytes
Step Temp Press TotEng PotEng Enthalpy 
   44495    2313.4124    429.37146   -74443.997   -80320.275   -74220.676 
   46000    2291.6428   -550.92384   -74564.936   -80385.918   -74852.144 
Loop time of 140.834 on 1 procs for 1505 steps with 19652 atoms

Performance: 0.923 ns/day, 25.994 hours/ns, 10.686 timesteps/s
83.2% CPU use with 1 MPI tasks x no OpenMP threads

MPI task timing breakdown:
Section |  min time  |  avg time  |  max time  |%varavg| %total
---------------------------------------------------------------
Pair    | 65.698     | 65.698     | 65.698     |   0.0 | 46.65
Neigh   | 69.815     | 69.815     | 69.815     |   0.0 | 49.57
Comm    | 1.7428     | 1.7428     | 1.7428     |   0.0 |  1.24
Output  | 0.063103   | 0.063103   | 0.063103   |   0.0 |  0.04
Modify  | 2.8007     | 2.8007     | 2.8007     |   0.0 |  1.99
Other   |            | 0.715      |            |       |  0.51

Nlocal:    19652 ave 19652 max 19652 min
Histogram: 1 0 0 0 0 0 0 0 0 0
Nghost:    12614 ave 12614 max 12614 min
Histogram: 1 0 0 0 0 0 0 0 0 0
Neighs:    587440 ave 587440 max 587440 min
Histogram: 1 0 0 0 0 0 0 0 0 0

Total # of neighbors = 587440
Ave neighs/atom = 29.8921
Neighbor list builds = 1505
Dangerous builds not checked
Setting up Verlet run ...
  Unit style    : metal
  Current step  : 46000
  Time step     : 0.001
Per MPI rank memory allocation (min/avg/max) = 18.24 | 18.24 | 18.24 Mbytes
Step Temp Press TotEng PotEng Enthalpy 
   46000    2291.6428   -550.92384   -74564.936   -80385.918   -74852.144 
   46495    2259.6298   -97.702356   -74737.947   -80477.613   -74788.739 
Loop time of 46.7719 on 1 procs for 495 steps with 19652 atoms

Performance: 0.914 ns/day, 26.247 hours/ns, 10.583 timesteps/s
83.4% CPU use with 1 MPI tasks x no OpenMP threads

MPI task timing breakdown:
Section |  min time  |  avg time  |  max time  |%varavg| %total
---------------------------------------------------------------
Pair    | 21.833     | 21.833     | 21.833     |   0.0 | 46.68
Neigh   | 23.171     | 23.171     | 23.171     |   0.0 | 49.54
Comm    | 0.54576    | 0.54576    | 0.54576    |   0.0 |  1.17
Output  | 0.00029707 | 0.00029707 | 0.00029707 |   0.0 |  0.00
Modify  | 0.99905    | 0.99905    | 0.99905    |   0.0 |  2.14
Other   |            | 0.2223     |            |       |  0.48

Nlocal:    19652 ave 19652 max 19652 min
Histogram: 1 0 0 0 0 0 0 0 0 0
Nghost:    12718 ave 12718 max 12718 min
Histogram: 1 0 0 0 0 0 0 0 0 0
Neighs:    588672 ave 588672 max 588672 min
Histogram: 1 0 0 0 0 0 0 0 0 0

Total # of neighbors = 588672
Ave neighs/atom = 29.9548
Neighbor list builds = 495
Dangerous builds not checked
Setting up Verlet run ...
  Unit style    : metal
  Current step  : 46495
  Time step     : 0.001
Per MPI rank memory allocation (min/avg/max) = 18.24 | 18.24 | 18.24 Mbytes
Step Temp Press TotEng PotEng Enthalpy 
   46495    2259.6298   -97.702356   -74737.947   -80477.613   -74788.739 
   48000    2256.8602    511.21415   -74734.103   -80466.734   -74469.028 
Loop time of 142.62 on 1 procs for 1505 steps with 19652 atoms

Performance: 0.912 ns/day, 26.323 hours/ns, 10.553 timesteps/s
82.3% CPU use with 1 MPI tasks x no OpenMP threads

MPI task timing breakdown:
Section |  min time  |  avg time  |  max time  |%varavg| %total
---------------------------------------------------------------
Pair    | 66.191     | 66.191     | 66.191     |   0.0 | 46.41
Neigh   | 71.211     | 71.211     | 71.211     |   0.0 | 49.93
Comm    | 1.7068     | 1.7068     | 1.7068     |   0.0 |  1.20
Output  | 0.064236   | 0.064236   | 0.064236   |   0.0 |  0.05
Modify  | 2.7457     | 2.7457     | 2.7457     |   0.0 |  1.93
Other   |            | 0.7004     |            |       |  0.49

Nlocal:    19652 ave 19652 max 19652 min
Histogram: 1 0 0 0 0 0 0 0 0 0
Nghost:    12650 ave 12650 max 12650 min
Histogram: 1 0 0 0 0 0 0 0 0 0
Neighs:    589857 ave 589857 max 589857 min
Histogram: 1 0 0 0 0 0 0 0 0 0

Total # of neighbors = 589857
Ave neighs/atom = 30.0151
Neighbor list builds = 1505
Dangerous builds not checked
Setting up Verlet run ...
  Unit style    : metal
  Current step  : 48000
  Time step     : 0.001
Per MPI rank memory allocation (min/avg/max) = 18.24 | 18.24 | 18.24 Mbytes
Step Temp Press TotEng PotEng Enthalpy 
   48000    2256.8602    511.21415   -74734.103   -80466.734   -74469.028 
   48495    2213.6394    389.42486   -74966.083   -80588.929   -74764.685 
Loop time of 46.4459 on 1 procs for 495 steps with 19652 atoms

Performance: 0.921 ns/day, 26.064 hours/ns, 10.658 timesteps/s
82.4% CPU use with 1 MPI tasks x no OpenMP threads

MPI task timing breakdown:
Section |  min time  |  avg time  |  max time  |%varavg| %total
---------------------------------------------------------------
Pair    | 21.667     | 21.667     | 21.667     |   0.0 | 46.65
Neigh   | 23.114     | 23.114     | 23.114     |   0.0 | 49.76
Comm    | 0.54761    | 0.54761    | 0.54761    |   0.0 |  1.18
Output  | 0.00028801 | 0.00028801 | 0.00028801 |   0.0 |  0.00
Modify  | 0.90761    | 0.90761    | 0.90761    |   0.0 |  1.95
Other   |            | 0.2098     |            |       |  0.45

Nlocal:    19652 ave 19652 max 19652 min
Histogram: 1 0 0 0 0 0 0 0 0 0
Nghost:    12718 ave 12718 max 12718 min
Histogram: 1 0 0 0 0 0 0 0 0 0
Neighs:    591781 ave 591781 max 591781 min
Histogram: 1 0 0 0 0 0 0 0 0 0

Total # of neighbors = 591781
Ave neighs/atom = 30.113
Neighbor list builds = 495
Dangerous builds not checked
Setting up Verlet run ...
  Unit style    : metal
  Current step  : 48495
  Time step     : 0.001
Per MPI rank memory allocation (min/avg/max) = 18.24 | 18.24 | 18.24 Mbytes
Step Temp Press TotEng PotEng Enthalpy 
   48495    2213.6394    389.42486   -74966.083   -80588.929   -74764.685 
   50000    2215.6195    487.07983   -75008.275   -80636.151   -74756.459 
Loop time of 146.387 on 1 procs for 1505 steps with 19652 atoms

Performance: 0.888 ns/day, 27.019 hours/ns, 10.281 timesteps/s
80.5% CPU use with 1 MPI tasks x no OpenMP threads

MPI task timing breakdown:
Section |  min time  |  avg time  |  max time  |%varavg| %total
---------------------------------------------------------------
Pair    | 68.453     | 68.453     | 68.453     |   0.0 | 46.76
Neigh   | 72.512     | 72.512     | 72.512     |   0.0 | 49.53
Comm    | 1.7671     | 1.7671     | 1.7671     |   0.0 |  1.21
Output  | 0.12733    | 0.12733    | 0.12733    |   0.0 |  0.09
Modify  | 2.8101     | 2.8101     | 2.8101     |   0.0 |  1.92
Other   |            | 0.7173     |            |       |  0.49

Nlocal:    19652 ave 19652 max 19652 min
Histogram: 1 0 0 0 0 0 0 0 0 0
Nghost:    12685 ave 12685 max 12685 min
Histogram: 1 0 0 0 0 0 0 0 0 0
Neighs:    591951 ave 591951 max 591951 min
Histogram: 1 0 0 0 0 0 0 0 0 0

Total # of neighbors = 591951
Ave neighs/atom = 30.1217
Neighbor list builds = 1505
Dangerous builds not checked
Setting up Verlet run ...
  Unit style    : metal
  Current step  : 50000
  Time step     : 0.001
Per MPI rank memory allocation (min/avg/max) = 18.24 | 18.24 | 18.24 Mbytes
Step Temp Press TotEng PotEng Enthalpy 
   50000    2215.6195    487.07983   -75008.275   -80636.151   -74756.459 
   50495    2161.9452    334.52296   -75200.419   -80691.957   -75027.562 
Loop time of 44.5237 on 1 procs for 495 steps with 19652 atoms

Performance: 0.961 ns/day, 24.985 hours/ns, 11.118 timesteps/s
85.7% CPU use with 1 MPI tasks x no OpenMP threads

MPI task timing breakdown:
Section |  min time  |  avg time  |  max time  |%varavg| %total
---------------------------------------------------------------
Pair    | 20.716     | 20.716     | 20.716     |   0.0 | 46.53
Neigh   | 22.176     | 22.176     | 22.176     |   0.0 | 49.81
Comm    | 0.53914    | 0.53914    | 0.53914    |   0.0 |  1.21
Output  | 0.00025797 | 0.00025797 | 0.00025797 |   0.0 |  0.00
Modify  | 0.8623     | 0.8623     | 0.8623     |   0.0 |  1.94
Other   |            | 0.2292     |            |       |  0.51

Nlocal:    19652 ave 19652 max 19652 min
Histogram: 1 0 0 0 0 0 0 0 0 0
Nghost:    12706 ave 12706 max 12706 min
Histogram: 1 0 0 0 0 0 0 0 0 0
Neighs:    592028 ave 592028 max 592028 min
Histogram: 1 0 0 0 0 0 0 0 0 0

Total # of neighbors = 592028
Ave neighs/atom = 30.1256
Neighbor list builds = 495
Dangerous builds not checked
Setting up Verlet run ...
  Unit style    : metal
  Current step  : 50495
  Time step     : 0.001
Per MPI rank memory allocation (min/avg/max) = 18.24 | 18.24 | 18.24 Mbytes
Step Temp Press TotEng PotEng Enthalpy 
   50495    2161.9452    334.52296   -75200.419   -80691.957   -75027.562 
   52000     2168.596    141.68613   -75224.493   -80732.924   -75151.312 
Loop time of 138.54 on 1 procs for 1505 steps with 19652 atoms

Performance: 0.939 ns/day, 25.570 hours/ns, 10.863 timesteps/s
84.8% CPU use with 1 MPI tasks x no OpenMP threads

MPI task timing breakdown:
Section |  min time  |  avg time  |  max time  |%varavg| %total
---------------------------------------------------------------
Pair    | 64.844     | 64.844     | 64.844     |   0.0 | 46.81
Neigh   | 68.485     | 68.485     | 68.485     |   0.0 | 49.43
Comm    | 1.6748     | 1.6748     | 1.6748     |   0.0 |  1.21
Output  | 0.065216   | 0.065216   | 0.065216   |   0.0 |  0.05
Modify  | 2.7667     | 2.7667     | 2.7667     |   0.0 |  2.00
Other   |            | 0.7043     |            |       |  0.51

Nlocal:    19652 ave 19652 max 19652 min
Histogram: 1 0 0 0 0 0 0 0 0 0
Nghost:    12700 ave 12700 max 12700 min
Histogram: 1 0 0 0 0 0 0 0 0 0
Neighs:    592386 ave 592386 max 592386 min
Histogram: 1 0 0 0 0 0 0 0 0 0

Total # of neighbors = 592386
Ave neighs/atom = 30.1438
Neighbor list builds = 1505
Dangerous builds not checked
Setting up Verlet run ...
  Unit style    : metal
  Current step  : 52000
  Time step     : 0.001
Per MPI rank memory allocation (min/avg/max) = 18.24 | 18.24 | 18.24 Mbytes
Step Temp Press TotEng PotEng Enthalpy 
   52000     2168.596    141.68613   -75224.493   -80732.924   -75151.312 
   52495    2104.8181      198.077   -75455.353   -80801.782   -75353.245 
Loop time of 41.3011 on 1 procs for 495 steps with 19652 atoms

Performance: 1.036 ns/day, 23.177 hours/ns, 11.985 timesteps/s
99.2% CPU use with 1 MPI tasks x no OpenMP threads

MPI task timing breakdown:
Section |  min time  |  avg time  |  max time  |%varavg| %total
---------------------------------------------------------------
Pair    | 19.707     | 19.707     | 19.707     |   0.0 | 47.71
Neigh   | 20.078     | 20.078     | 20.078     |   0.0 | 48.61
Comm    | 0.51534    | 0.51534    | 0.51534    |   0.0 |  1.25
Output  | 0.00026798 | 0.00026798 | 0.00026798 |   0.0 |  0.00
Modify  | 0.78517    | 0.78517    | 0.78517    |   0.0 |  1.90
Other   |            | 0.2153     |            |       |  0.52

Nlocal:    19652 ave 19652 max 19652 min
Histogram: 1 0 0 0 0 0 0 0 0 0
Nghost:    12773 ave 12773 max 12773 min
Histogram: 1 0 0 0 0 0 0 0 0 0
Neighs:    593579 ave 593579 max 593579 min
Histogram: 1 0 0 0 0 0 0 0 0 0

Total # of neighbors = 593579
Ave neighs/atom = 30.2045
Neighbor list builds = 495
Dangerous builds not checked
Setting up Verlet run ...
  Unit style    : metal
  Current step  : 52495
  Time step     : 0.001
Per MPI rank memory allocation (min/avg/max) = 18.24 | 18.24 | 18.24 Mbytes
Step Temp Press TotEng PotEng Enthalpy 
   52495    2104.8181      198.077   -75455.353   -80801.782   -75353.245 
   54000    2132.1011    213.60796   -75414.224   -80829.955   -75304.136 
Loop time of 134.953 on 1 procs for 1505 steps with 19652 atoms

Performance: 0.964 ns/day, 24.908 hours/ns, 11.152 timesteps/s
94.4% CPU use with 1 MPI tasks x no OpenMP threads

MPI task timing breakdown:
Section |  min time  |  avg time  |  max time  |%varavg| %total
---------------------------------------------------------------
Pair    | 64.304     | 64.304     | 64.304     |   0.0 | 47.65
Neigh   | 65.562     | 65.562     | 65.562     |   0.0 | 48.58
Comm    | 1.7244     | 1.7244     | 1.7244     |   0.0 |  1.28
Output  | 0.069068   | 0.069068   | 0.069068   |   0.0 |  0.05
Modify  | 2.5837     | 2.5837     | 2.5837     |   0.0 |  1.91
Other   |            | 0.7098     |            |       |  0.53

Nlocal:    19652 ave 19652 max 19652 min
Histogram: 1 0 0 0 0 0 0 0 0 0
Nghost:    12737 ave 12737 max 12737 min
Histogram: 1 0 0 0 0 0 0 0 0 0
Neighs:    593904 ave 593904 max 593904 min
Histogram: 1 0 0 0 0 0 0 0 0 0

Total # of neighbors = 593904
Ave neighs/atom = 30.221
Neighbor list builds = 1505
Dangerous builds not checked
Setting up Verlet run ...
  Unit style    : metal
  Current step  : 54000
  Time step     : 0.001
Per MPI rank memory allocation (min/avg/max) = 18.24 | 18.24 | 18.24 Mbytes
Step Temp Press TotEng PotEng Enthalpy 
   54000    2132.1011    213.60796   -75414.224   -80829.955   -75304.136 
   54495    2071.4446    497.56464   -75670.692    -80932.35   -75414.977 
Loop time of 46.5875 on 1 procs for 495 steps with 19652 atoms

Performance: 0.918 ns/day, 26.143 hours/ns, 10.625 timesteps/s
92.7% CPU use with 1 MPI tasks x no OpenMP threads

MPI task timing breakdown:
Section |  min time  |  avg time  |  max time  |%varavg| %total
---------------------------------------------------------------
Pair    | 22.372     | 22.372     | 22.372     |   0.0 | 48.02
Neigh   | 22.45      | 22.45      | 22.45      |   0.0 | 48.19
Comm    | 0.61638    | 0.61638    | 0.61638    |   0.0 |  1.32
Output  | 0.00020194 | 0.00020194 | 0.00020194 |   0.0 |  0.00
Modify  | 0.90827    | 0.90827    | 0.90827    |   0.0 |  1.95
Other   |            | 0.2406     |            |       |  0.52

Nlocal:    19652 ave 19652 max 19652 min
Histogram: 1 0 0 0 0 0 0 0 0 0
Nghost:    12744 ave 12744 max 12744 min
Histogram: 1 0 0 0 0 0 0 0 0 0
Neighs:    595106 ave 595106 max 595106 min
Histogram: 1 0 0 0 0 0 0 0 0 0

Total # of neighbors = 595106
Ave neighs/atom = 30.2822
Neighbor list builds = 495
Dangerous builds not checked
Setting up Verlet run ...
  Unit style    : metal
  Current step  : 54495
  Time step     : 0.001
Per MPI rank memory allocation (min/avg/max) = 18.24 | 18.24 | 18.24 Mbytes
Step Temp Press TotEng PotEng Enthalpy 
   54495    2071.4446    497.56464   -75670.692    -80932.35   -75414.977 
   56000    2059.6318    403.29584   -75729.491   -80961.143   -75522.382 
Loop time of 132.24 on 1 procs for 1505 steps with 19652 atoms

Performance: 0.983 ns/day, 24.407 hours/ns, 11.381 timesteps/s
96.6% CPU use with 1 MPI tasks x no OpenMP threads

MPI task timing breakdown:
Section |  min time  |  avg time  |  max time  |%varavg| %total
---------------------------------------------------------------
Pair    | 63.024     | 63.024     | 63.024     |   0.0 | 47.66
Neigh   | 64.274     | 64.274     | 64.274     |   0.0 | 48.60
Comm    | 1.7        | 1.7        | 1.7        |   0.0 |  1.29
Output  | 0.065773   | 0.065773   | 0.065773   |   0.0 |  0.05
Modify  | 2.4862     | 2.4862     | 2.4862     |   0.0 |  1.88
Other   |            | 0.6896     |            |       |  0.52

Nlocal:    19652 ave 19652 max 19652 min
Histogram: 1 0 0 0 0 0 0 0 0 0
Nghost:    12707 ave 12707 max 12707 min
Histogram: 1 0 0 0 0 0 0 0 0 0
Neighs:    595961 ave 595961 max 595961 min
Histogram: 1 0 0 0 0 0 0 0 0 0

Total # of neighbors = 595961
Ave neighs/atom = 30.3257
Neighbor list builds = 1505
Dangerous builds not checked
Setting up Verlet run ...
  Unit style    : metal
  Current step  : 56000
  Time step     : 0.001
Per MPI rank memory allocation (min/avg/max) = 18.24 | 18.24 | 18.24 Mbytes
Step Temp Press TotEng PotEng Enthalpy 
   56000    2059.6318    403.29584   -75729.491   -80961.143   -75522.382 
   56495    2033.7358    174.41734   -75914.053   -81079.927   -75824.544 
Loop time of 44.5959 on 1 procs for 495 steps with 19652 atoms

Performance: 0.959 ns/day, 25.026 hours/ns, 11.100 timesteps/s
90.9% CPU use with 1 MPI tasks x no OpenMP threads

MPI task timing breakdown:
Section |  min time  |  avg time  |  max time  |%varavg| %total
---------------------------------------------------------------
Pair    | 21.042     | 21.042     | 21.042     |   0.0 | 47.18
Neigh   | 21.92      | 21.92      | 21.92      |   0.0 | 49.15
Comm    | 0.54433    | 0.54433    | 0.54433    |   0.0 |  1.22
Output  | 0.0010519  | 0.0010519  | 0.0010519  |   0.0 |  0.00
Modify  | 0.85611    | 0.85611    | 0.85611    |   0.0 |  1.92
Other   |            | 0.2325     |            |       |  0.52

Nlocal:    19652 ave 19652 max 19652 min
Histogram: 1 0 0 0 0 0 0 0 0 0
Nghost:    12829 ave 12829 max 12829 min
Histogram: 1 0 0 0 0 0 0 0 0 0
Neighs:    596298 ave 596298 max 596298 min
Histogram: 1 0 0 0 0 0 0 0 0 0

Total # of neighbors = 596298
Ave neighs/atom = 30.3429
Neighbor list builds = 495
Dangerous builds not checked
Setting up Verlet run ...
  Unit style    : metal
  Current step  : 56495
  Time step     : 0.001
Per MPI rank memory allocation (min/avg/max) = 18.24 | 18.24 | 18.24 Mbytes
Step Temp Press TotEng PotEng Enthalpy 
   56495    2033.7358    174.41734   -75914.053   -81079.927   -75824.544 
   58000    2008.0011    426.47568    -75953.55   -81054.056    -75734.89 
Loop time of 134.211 on 1 procs for 1505 steps with 19652 atoms

Performance: 0.969 ns/day, 24.771 hours/ns, 11.214 timesteps/s
93.9% CPU use with 1 MPI tasks x no OpenMP threads

MPI task timing breakdown:
Section |  min time  |  avg time  |  max time  |%varavg| %total
---------------------------------------------------------------
Pair    | 63.753     | 63.753     | 63.753     |   0.0 | 47.50
Neigh   | 65.416     | 65.416     | 65.416     |   0.0 | 48.74
Comm    | 1.6795     | 1.6795     | 1.6795     |   0.0 |  1.25
Output  | 0.067232   | 0.067232   | 0.067232   |   0.0 |  0.05
Modify  | 2.5748     | 2.5748     | 2.5748     |   0.0 |  1.92
Other   |            | 0.7212     |            |       |  0.54

Nlocal:    19652 ave 19652 max 19652 min
Histogram: 1 0 0 0 0 0 0 0 0 0
Nghost:    12757 ave 12757 max 12757 min
Histogram: 1 0 0 0 0 0 0 0 0 0
Neighs:    596606 ave 596606 max 596606 min
Histogram: 1 0 0 0 0 0 0 0 0 0

Total # of neighbors = 596606
Ave neighs/atom = 30.3585
Neighbor list builds = 1505
Dangerous builds not checked
Setting up Verlet run ...
  Unit style    : metal
  Current step  : 58000
  Time step     : 0.001
Per MPI rank memory allocation (min/avg/max) = 18.24 | 18.24 | 18.24 Mbytes
Step Temp Press TotEng PotEng Enthalpy 
   58000    2008.0011    426.47568    -75953.55   -81054.056    -75734.89 
   58495    1953.5517    535.00517   -76199.897   -81162.096   -75926.311 
Loop time of 41.6158 on 1 procs for 495 steps with 19652 atoms

Performance: 1.028 ns/day, 23.353 hours/ns, 11.895 timesteps/s
95.7% CPU use with 1 MPI tasks x no OpenMP threads

MPI task timing breakdown:
Section |  min time  |  avg time  |  max time  |%varavg| %total
---------------------------------------------------------------
Pair    | 19.573     | 19.573     | 19.573     |   0.0 | 47.03
Neigh   | 20.485     | 20.485     | 20.485     |   0.0 | 49.22
Comm    | 0.51857    | 0.51857    | 0.51857    |   0.0 |  1.25
Output  | 0.00055599 | 0.00055599 | 0.00055599 |   0.0 |  0.00
Modify  | 0.81257    | 0.81257    | 0.81257    |   0.0 |  1.95
Other   |            | 0.2262     |            |       |  0.54

Nlocal:    19652 ave 19652 max 19652 min
Histogram: 1 0 0 0 0 0 0 0 0 0
Nghost:    12813 ave 12813 max 12813 min
Histogram: 1 0 0 0 0 0 0 0 0 0
Neighs:    598585 ave 598585 max 598585 min
Histogram: 1 0 0 0 0 0 0 0 0 0

Total # of neighbors = 598585
Ave neighs/atom = 30.4592
Neighbor list builds = 495
Dangerous builds not checked
Setting up Verlet run ...
  Unit style    : metal
  Current step  : 58495
  Time step     : 0.001
Per MPI rank memory allocation (min/avg/max) = 18.24 | 18.24 | 18.24 Mbytes
Step Temp Press TotEng PotEng Enthalpy 
   58495    1953.5517    535.00517   -76199.897   -81162.096   -75926.311 
   60000    1944.7913    206.97781    -76205.91   -81145.858    -76099.91 
Loop time of 138.021 on 1 procs for 1505 steps with 19652 atoms

Performance: 0.942 ns/day, 25.474 hours/ns, 10.904 timesteps/s
91.2% CPU use with 1 MPI tasks x no OpenMP threads

MPI task timing breakdown:
Section |  min time  |  avg time  |  max time  |%varavg| %total
---------------------------------------------------------------
Pair    | 65.788     | 65.788     | 65.788     |   0.0 | 47.67
Neigh   | 67.126     | 67.126     | 67.126     |   0.0 | 48.63
Comm    | 1.7004     | 1.7004     | 1.7004     |   0.0 |  1.23
Output  | 0.068325   | 0.068325   | 0.068325   |   0.0 |  0.05
Modify  | 2.6107     | 2.6107     | 2.6107     |   0.0 |  1.89
Other   |            | 0.7267     |            |       |  0.53

Nlocal:    19652 ave 19652 max 19652 min
Histogram: 1 0 0 0 0 0 0 0 0 0
Nghost:    12761 ave 12761 max 12761 min
Histogram: 1 0 0 0 0 0 0 0 0 0
Neighs:    597263 ave 597263 max 597263 min
Histogram: 1 0 0 0 0 0 0 0 0 0

Total # of neighbors = 597263
Ave neighs/atom = 30.392
Neighbor list builds = 1505
Dangerous builds not checked
Setting up Verlet run ...
  Unit style    : metal
  Current step  : 60000
  Time step     : 0.001
Per MPI rank memory allocation (min/avg/max) = 18.24 | 18.24 | 18.24 Mbytes
Step Temp Press TotEng PotEng Enthalpy 
   60000    1944.7913    206.97781    -76205.91   -81145.858    -76099.91 
   60495    1913.1383    100.85436   -76403.603   -81263.148   -76352.037 
Loop time of 46.6987 on 1 procs for 495 steps with 19652 atoms

Performance: 0.916 ns/day, 26.206 hours/ns, 10.600 timesteps/s
91.8% CPU use with 1 MPI tasks x no OpenMP threads

MPI task timing breakdown:
Section |  min time  |  avg time  |  max time  |%varavg| %total
---------------------------------------------------------------
Pair    | 22.335     | 22.335     | 22.335     |   0.0 | 47.83
Neigh   | 22.64      | 22.64      | 22.64      |   0.0 | 48.48
Comm    | 0.59719    | 0.59719    | 0.59719    |   0.0 |  1.28
Output  | 0.00030804 | 0.00030804 | 0.00030804 |   0.0 |  0.00
Modify  | 0.86845    | 0.86845    | 0.86845    |   0.0 |  1.86
Other   |            | 0.2575     |            |       |  0.55

Nlocal:    19652 ave 19652 max 19652 min
Histogram: 1 0 0 0 0 0 0 0 0 0
Nghost:    12713 ave 12713 max 12713 min
Histogram: 1 0 0 0 0 0 0 0 0 0
Neighs:    598538 ave 598538 max 598538 min
Histogram: 1 0 0 0 0 0 0 0 0 0

Total # of neighbors = 598538
Ave neighs/atom = 30.4568
Neighbor list builds = 495
Dangerous builds not checked
Setting up Verlet run ...
  Unit style    : metal
  Current step  : 60495
  Time step     : 0.001
Per MPI rank memory allocation (min/avg/max) = 18.24 | 18.24 | 18.24 Mbytes
Step Temp Press TotEng PotEng Enthalpy 
   60495    1913.1383    100.85436   -76403.603   -81263.148   -76352.037 
   62000     1905.331    735.17363   -76466.858   -81306.572   -76092.195 
Loop time of 140.95 on 1 procs for 1505 steps with 19652 atoms

Performance: 0.923 ns/day, 26.015 hours/ns, 10.678 timesteps/s
92.7% CPU use with 1 MPI tasks x no OpenMP threads

MPI task timing breakdown:
Section |  min time  |  avg time  |  max time  |%varavg| %total
---------------------------------------------------------------
Pair    | 66.996     | 66.996     | 66.996     |   0.0 | 47.53
Neigh   | 68.81      | 68.81      | 68.81      |   0.0 | 48.82
Comm    | 1.7671     | 1.7671     | 1.7671     |   0.0 |  1.25
Output  | 0.064281   | 0.064281   | 0.064281   |   0.0 |  0.05
Modify  | 2.607      | 2.607      | 2.607      |   0.0 |  1.85
Other   |            | 0.7042     |            |       |  0.50

Nlocal:    19652 ave 19652 max 19652 min
Histogram: 1 0 0 0 0 0 0 0 0 0
Nghost:    12843 ave 12843 max 12843 min
Histogram: 1 0 0 0 0 0 0 0 0 0
Neighs:    600500 ave 600500 max 600500 min
Histogram: 1 0 0 0 0 0 0 0 0 0

Total # of neighbors = 600500
Ave neighs/atom = 30.5567
Neighbor list builds = 1505
Dangerous builds not checked
Setting up Verlet run ...
  Unit style    : metal
  Current step  : 62000
  Time step     : 0.001
Per MPI rank memory allocation (min/avg/max) = 18.24 | 18.24 | 18.24 Mbytes
Step Temp Press TotEng PotEng Enthalpy 
   62000     1905.331    735.17363   -76466.858   -81306.572   -76092.195 
   62495    1862.8728    645.69291   -76627.172   -81359.038   -76298.438 
Loop time of 44.7305 on 1 procs for 495 steps with 19652 atoms

Performance: 0.956 ns/day, 25.101 hours/ns, 11.066 timesteps/s
93.5% CPU use with 1 MPI tasks x no OpenMP threads

MPI task timing breakdown:
Section |  min time  |  avg time  |  max time  |%varavg| %total
---------------------------------------------------------------
Pair    | 21.237     | 21.237     | 21.237     |   0.0 | 47.48
Neigh   | 21.814     | 21.814     | 21.814     |   0.0 | 48.77
Comm    | 0.5629     | 0.5629     | 0.5629     |   0.0 |  1.26
Output  | 0.0002079  | 0.0002079  | 0.0002079  |   0.0 |  0.00
Modify  | 0.86153    | 0.86153    | 0.86153    |   0.0 |  1.93
Other   |            | 0.2549     |            |       |  0.57

Nlocal:    19652 ave 19652 max 19652 min
Histogram: 1 0 0 0 0 0 0 0 0 0
Nghost:    12825 ave 12825 max 12825 min
Histogram: 1 0 0 0 0 0 0 0 0 0
Neighs:    601097 ave 601097 max 601097 min
Histogram: 1 0 0 0 0 0 0 0 0 0

Total # of neighbors = 601097
Ave neighs/atom = 30.5871
Neighbor list builds = 495
Dangerous builds not checked
Setting up Verlet run ...
  Unit style    : metal
  Current step  : 62495
  Time step     : 0.001
Per MPI rank memory allocation (min/avg/max) = 18.24 | 18.24 | 18.24 Mbytes
Step Temp Press TotEng PotEng Enthalpy 
   62495    1862.8728    645.69291   -76627.172   -81359.038   -76298.438 
   64000    1852.8817   -146.66097   -76691.398   -81397.887   -76766.235 
Loop time of 137.787 on 1 procs for 1505 steps with 19652 atoms

Performance: 0.944 ns/day, 25.431 hours/ns, 10.923 timesteps/s
94.7% CPU use with 1 MPI tasks x no OpenMP threads

MPI task timing breakdown:
Section |  min time  |  avg time  |  max time  |%varavg| %total
---------------------------------------------------------------
Pair    | 64.95      | 64.95      | 64.95      |   0.0 | 47.14
Neigh   | 67.762     | 67.762     | 67.762     |   0.0 | 49.18
Comm    | 1.6869     | 1.6869     | 1.6869     |   0.0 |  1.22
Output  | 0.066163   | 0.066163   | 0.066163   |   0.0 |  0.05
Modify  | 2.6297     | 2.6297     | 2.6297     |   0.0 |  1.91
Other   |            | 0.6923     |            |       |  0.50

Nlocal:    19652 ave 19652 max 19652 min
Histogram: 1 0 0 0 0 0 0 0 0 0
Nghost:    12825 ave 12825 max 12825 min
Histogram: 1 0 0 0 0 0 0 0 0 0
Neighs:    599475 ave 599475 max 599475 min
Histogram: 1 0 0 0 0 0 0 0 0 0

Total # of neighbors = 599475
Ave neighs/atom = 30.5045
Neighbor list builds = 1505
Dangerous builds not checked
Setting up Verlet run ...
  Unit style    : metal
  Current step  : 64000
  Time step     : 0.001
Per MPI rank memory allocation (min/avg/max) = 18.24 | 18.24 | 18.24 Mbytes
Step Temp Press TotEng PotEng Enthalpy 
   64000    1852.8817   -146.66097   -76691.398   -81397.887   -76766.235 
   64495    1808.2958    50.296713   -76892.612   -81485.848   -76867.008 
Loop time of 44.7651 on 1 procs for 495 steps with 19652 atoms

Performance: 0.955 ns/day, 25.121 hours/ns, 11.058 timesteps/s
95.2% CPU use with 1 MPI tasks x no OpenMP threads

MPI task timing breakdown:
Section |  min time  |  avg time  |  max time  |%varavg| %total
---------------------------------------------------------------
Pair    | 20.844     | 20.844     | 20.844     |   0.0 | 46.56
Neigh   | 22.333     | 22.333     | 22.333     |   0.0 | 49.89
Comm    | 0.54242    | 0.54242    | 0.54242    |   0.0 |  1.21
Output  | 0.00029588 | 0.00029588 | 0.00029588 |   0.0 |  0.00
Modify  | 0.83387    | 0.83387    | 0.83387    |   0.0 |  1.86
Other   |            | 0.2114     |            |       |  0.47

Nlocal:    19652 ave 19652 max 19652 min
Histogram: 1 0 0 0 0 0 0 0 0 0
Nghost:    12774 ave 12774 max 12774 min
Histogram: 1 0 0 0 0 0 0 0 0 0
Neighs:    600929 ave 600929 max 600929 min
Histogram: 1 0 0 0 0 0 0 0 0 0

Total # of neighbors = 600929
Ave neighs/atom = 30.5785
Neighbor list builds = 495
Dangerous builds not checked
Setting up Verlet run ...
  Unit style    : metal
  Current step  : 64495
  Time step     : 0.001
Per MPI rank memory allocation (min/avg/max) = 18.24 | 18.24 | 18.24 Mbytes
Step Temp Press TotEng PotEng Enthalpy 
   64495    1808.2958    50.296713   -76892.612   -81485.848   -76867.008 
   66000    1815.4805    624.15687   -76904.127   -81515.613   -76587.193 
Loop time of 142.939 on 1 procs for 1505 steps with 19652 atoms

Performance: 0.910 ns/day, 26.382 hours/ns, 10.529 timesteps/s
91.9% CPU use with 1 MPI tasks x no OpenMP threads

MPI task timing breakdown:
Section |  min time  |  avg time  |  max time  |%varavg| %total
---------------------------------------------------------------
Pair    | 66.615     | 66.615     | 66.615     |   0.0 | 46.60
Neigh   | 71.098     | 71.098     | 71.098     |   0.0 | 49.74
Comm    | 1.7427     | 1.7427     | 1.7427     |   0.0 |  1.22
Output  | 0.064767   | 0.064767   | 0.064767   |   0.0 |  0.05
Modify  | 2.6893     | 2.6893     | 2.6893     |   0.0 |  1.88
Other   |            | 0.7291     |            |       |  0.51

Nlocal:    19652 ave 19652 max 19652 min
Histogram: 1 0 0 0 0 0 0 0 0 0
Nghost:    12785 ave 12785 max 12785 min
Histogram: 1 0 0 0 0 0 0 0 0 0
Neighs:    602727 ave 602727 max 602727 min
Histogram: 1 0 0 0 0 0 0 0 0 0

Total # of neighbors = 602727
Ave neighs/atom = 30.67
Neighbor list builds = 1505
Dangerous builds not checked
Setting up Verlet run ...
  Unit style    : metal
  Current step  : 66000
  Time step     : 0.001
Per MPI rank memory allocation (min/avg/max) = 18.24 | 18.24 | 18.24 Mbytes
Step Temp Press TotEng PotEng Enthalpy 
   66000    1815.4805    624.15687   -76904.127   -81515.613   -76587.193 
   66495    1756.5044    299.12309   -77164.036   -81625.717    -77012.34 
Loop time of 44.4424 on 1 procs for 495 steps with 19652 atoms

Performance: 0.962 ns/day, 24.940 hours/ns, 11.138 timesteps/s
94.7% CPU use with 1 MPI tasks x no OpenMP threads

MPI task timing breakdown:
Section |  min time  |  avg time  |  max time  |%varavg| %total
---------------------------------------------------------------
Pair    | 20.553     | 20.553     | 20.553     |   0.0 | 46.25
Neigh   | 22.331     | 22.331     | 22.331     |   0.0 | 50.25
Comm    | 0.53081    | 0.53081    | 0.53081    |   0.0 |  1.19
Output  | 0.0003078  | 0.0003078  | 0.0003078  |   0.0 |  0.00
Modify  | 0.80007    | 0.80007    | 0.80007    |   0.0 |  1.80
Other   |            | 0.2277     |            |       |  0.51

Nlocal:    19652 ave 19652 max 19652 min
Histogram: 1 0 0 0 0 0 0 0 0 0
Nghost:    12861 ave 12861 max 12861 min
Histogram: 1 0 0 0 0 0 0 0 0 0
Neighs:    603439 ave 603439 max 603439 min
Histogram: 1 0 0 0 0 0 0 0 0 0

Total # of neighbors = 603439
Ave neighs/atom = 30.7062
Neighbor list builds = 495
Dangerous builds not checked
Setting up Verlet run ...
  Unit style    : metal
  Current step  : 66495
  Time step     : 0.001
Per MPI rank memory allocation (min/avg/max) = 18.24 | 18.24 | 18.24 Mbytes
Step Temp Press TotEng PotEng Enthalpy 
   66495    1756.5044    299.12309   -77164.036   -81625.717    -77012.34 
   68000    1752.3903    809.52348   -77213.561   -81664.792    -76803.87 
Loop time of 134.849 on 1 procs for 1505 steps with 19652 atoms

Performance: 0.964 ns/day, 24.889 hours/ns, 11.161 timesteps/s
96.0% CPU use with 1 MPI tasks x no OpenMP threads

MPI task timing breakdown:
Section |  min time  |  avg time  |  max time  |%varavg| %total
---------------------------------------------------------------
Pair    | 62.64      | 62.64      | 62.64      |   0.0 | 46.45
Neigh   | 67.285     | 67.285     | 67.285     |   0.0 | 49.90
Comm    | 1.6415     | 1.6415     | 1.6415     |   0.0 |  1.22
Output  | 0.15748    | 0.15748    | 0.15748    |   0.0 |  0.12
Modify  | 2.4521     | 2.4521     | 2.4521     |   0.0 |  1.82
Other   |            | 0.6729     |            |       |  0.50

Nlocal:    19652 ave 19652 max 19652 min
Histogram: 1 0 0 0 0 0 0 0 0 0
Nghost:    12740 ave 12740 max 12740 min
Histogram: 1 0 0 0 0 0 0 0 0 0
Neighs:    604756 ave 604756 max 604756 min
Histogram: 1 0 0 0 0 0 0 0 0 0

Total # of neighbors = 604756
Ave neighs/atom = 30.7733
Neighbor list builds = 1505
Dangerous builds not checked
Setting up Verlet run ...
  Unit style    : metal
  Current step  : 68000
  Time step     : 0.001
Per MPI rank memory allocation (min/avg/max) = 18.24 | 18.24 | 18.24 Mbytes
Step Temp Press TotEng PotEng Enthalpy 
   68000    1752.3903    809.52348   -77213.561   -81664.792    -76803.87 
   68495    1696.3434    879.34317   -77373.251   -81682.118   -76928.714 
Loop time of 42.8142 on 1 procs for 495 steps with 19652 atoms

Performance: 0.999 ns/day, 24.026 hours/ns, 11.562 timesteps/s
95.5% CPU use with 1 MPI tasks x no OpenMP threads

MPI task timing breakdown:
Section |  min time  |  avg time  |  max time  |%varavg| %total
---------------------------------------------------------------
Pair    | 19.529     | 19.529     | 19.529     |   0.0 | 45.61
Neigh   | 21.696     | 21.696     | 21.696     |   0.0 | 50.67
Comm    | 0.53066    | 0.53066    | 0.53066    |   0.0 |  1.24
Output  | 0.00028086 | 0.00028086 | 0.00028086 |   0.0 |  0.00
Modify  | 0.83568    | 0.83568    | 0.83568    |   0.0 |  1.95
Other   |            | 0.2226     |            |       |  0.52

Nlocal:    19652 ave 19652 max 19652 min
Histogram: 1 0 0 0 0 0 0 0 0 0
Nghost:    12815 ave 12815 max 12815 min
Histogram: 1 0 0 0 0 0 0 0 0 0
Neighs:    605021 ave 605021 max 605021 min
Histogram: 1 0 0 0 0 0 0 0 0 0

Total # of neighbors = 605021
Ave neighs/atom = 30.7867
Neighbor list builds = 495
Dangerous builds not checked
Setting up Verlet run ...
  Unit style    : metal
  Current step  : 68495
  Time step     : 0.001
Per MPI rank memory allocation (min/avg/max) = 18.24 | 18.24 | 18.24 Mbytes
Step Temp Press TotEng PotEng Enthalpy 
   68495    1696.3434    879.34317   -77373.251   -81682.118   -76928.714 
   70000    1726.2346    689.77328   -77397.356   -81782.149   -77048.861 
Loop time of 137.546 on 1 procs for 1505 steps with 19652 atoms

Performance: 0.945 ns/day, 25.387 hours/ns, 10.942 timesteps/s
97.8% CPU use with 1 MPI tasks x no OpenMP threads

MPI task timing breakdown:
Section |  min time  |  avg time  |  max time  |%varavg| %total
---------------------------------------------------------------
Pair    | 64.439     | 64.439     | 64.439     |   0.0 | 46.85
Neigh   | 68.066     | 68.066     | 68.066     |   0.0 | 49.49
Comm    | 1.7359     | 1.7359     | 1.7359     |   0.0 |  1.26
Output  | 0.065989   | 0.065989   | 0.065989   |   0.0 |  0.05
Modify  | 2.5563     | 2.5563     | 2.5563     |   0.0 |  1.86
Other   |            | 0.6827     |            |       |  0.50

Nlocal:    19652 ave 19652 max 19652 min
Histogram: 1 0 0 0 0 0 0 0 0 0
Nghost:    12838 ave 12838 max 12838 min
Histogram: 1 0 0 0 0 0 0 0 0 0
Neighs:    605235 ave 605235 max 605235 min
Histogram: 1 0 0 0 0 0 0 0 0 0

Total # of neighbors = 605235
Ave neighs/atom = 30.7976
Neighbor list builds = 1505
Dangerous builds not checked
Setting up Verlet run ...
  Unit style    : metal
  Current step  : 70000
  Time step     : 0.001
Per MPI rank memory allocation (min/avg/max) = 18.24 | 18.24 | 18.24 Mbytes
Step Temp Press TotEng PotEng Enthalpy 
   70000    1726.2346    689.77328   -77397.356   -81782.149   -77048.861 
   70495    1663.8296    522.43964   -77604.661    -81830.94   -77340.944 
Loop time of 46.8696 on 1 procs for 495 steps with 19652 atoms

Performance: 0.912 ns/day, 26.302 hours/ns, 10.561 timesteps/s
95.3% CPU use with 1 MPI tasks x no OpenMP threads

MPI task timing breakdown:
Section |  min time  |  avg time  |  max time  |%varavg| %total
---------------------------------------------------------------
Pair    | 22.025     | 22.025     | 22.025     |   0.0 | 46.99
Neigh   | 23.091     | 23.091     | 23.091     |   0.0 | 49.27
Comm    | 0.61234    | 0.61234    | 0.61234    |   0.0 |  1.31
Output  | 0.00018716 | 0.00018716 | 0.00018716 |   0.0 |  0.00
Modify  | 0.88943    | 0.88943    | 0.88943    |   0.0 |  1.90
Other   |            | 0.2516     |            |       |  0.54

Nlocal:    19652 ave 19652 max 19652 min
Histogram: 1 0 0 0 0 0 0 0 0 0
Nghost:    12843 ave 12843 max 12843 min
Histogram: 1 0 0 0 0 0 0 0 0 0
Neighs:    605863 ave 605863 max 605863 min
Histogram: 1 0 0 0 0 0 0 0 0 0

Total # of neighbors = 605863
Ave neighs/atom = 30.8296
Neighbor list builds = 495
Dangerous builds not checked
Setting up Verlet run ...
  Unit style    : metal
  Current step  : 70495
  Time step     : 0.001
Per MPI rank memory allocation (min/avg/max) = 18.24 | 18.24 | 18.24 Mbytes
Step Temp Press TotEng PotEng Enthalpy 
   70495    1663.8296    522.43964   -77604.661    -81830.94   -77340.944 
   72000    1652.9952     818.5391   -77687.745   -81886.503   -77275.218 
Loop time of 141.17 on 1 procs for 1505 steps with 19652 atoms

Performance: 0.921 ns/day, 26.056 hours/ns, 10.661 timesteps/s
96.2% CPU use with 1 MPI tasks x no OpenMP threads

MPI task timing breakdown:
Section |  min time  |  avg time  |  max time  |%varavg| %total
---------------------------------------------------------------
Pair    | 66.116     | 66.116     | 66.116     |   0.0 | 46.83
Neigh   | 69.95      | 69.95      | 69.95      |   0.0 | 49.55
Comm    | 1.7367     | 1.7367     | 1.7367     |   0.0 |  1.23
Output  | 0.06384    | 0.06384    | 0.06384    |   0.0 |  0.05
Modify  | 2.5966     | 2.5966     | 2.5966     |   0.0 |  1.84
Other   |            | 0.7067     |            |       |  0.50

Nlocal:    19652 ave 19652 max 19652 min
Histogram: 1 0 0 0 0 0 0 0 0 0
Nghost:    12775 ave 12775 max 12775 min
Histogram: 1 0 0 0 0 0 0 0 0 0
Neighs:    607052 ave 607052 max 607052 min
Histogram: 1 0 0 0 0 0 0 0 0 0

Total # of neighbors = 607052
Ave neighs/atom = 30.8901
Neighbor list builds = 1505
Dangerous builds not checked
Setting up Verlet run ...
  Unit style    : metal
  Current step  : 72000
  Time step     : 0.001
Per MPI rank memory allocation (min/avg/max) = 18.24 | 18.24 | 18.24 Mbytes
Step Temp Press TotEng PotEng Enthalpy 
   72000    1652.9952     818.5391   -77687.745   -81886.503   -77275.218 
   72495    1621.6874    389.94972   -77826.077   -81945.311   -77629.581 
Loop time of 45.2444 on 1 procs for 495 steps with 19652 atoms

Performance: 0.945 ns/day, 25.390 hours/ns, 10.941 timesteps/s
91.4% CPU use with 1 MPI tasks x no OpenMP threads

MPI task timing breakdown:
Section |  min time  |  avg time  |  max time  |%varavg| %total
---------------------------------------------------------------
Pair    | 20.822     | 20.822     | 20.822     |   0.0 | 46.02
Neigh   | 22.732     | 22.732     | 22.732     |   0.0 | 50.24
Comm    | 0.57545    | 0.57545    | 0.57545    |   0.0 |  1.27
Output  | 0.00034809 | 0.00034809 | 0.00034809 |   0.0 |  0.00
Modify  | 0.86631    | 0.86631    | 0.86631    |   0.0 |  1.91
Other   |            | 0.2483     |            |       |  0.55

Nlocal:    19652 ave 19652 max 19652 min
Histogram: 1 0 0 0 0 0 0 0 0 0
Nghost:    12793 ave 12793 max 12793 min
Histogram: 1 0 0 0 0 0 0 0 0 0
Neighs:    607215 ave 607215 max 607215 min
Histogram: 1 0 0 0 0 0 0 0 0 0

Total # of neighbors = 607215
Ave neighs/atom = 30.8984
Neighbor list builds = 495
Dangerous builds not checked
Setting up Verlet run ...
  Unit style    : metal
  Current step  : 72495
  Time step     : 0.001
Per MPI rank memory allocation (min/avg/max) = 18.24 | 18.24 | 18.24 Mbytes
Step Temp Press TotEng PotEng Enthalpy 
   72495    1621.6874    389.94972   -77826.077   -81945.311   -77629.581 
   74000     1591.871     387.7845   -77920.003   -81963.501   -77724.624 
Loop time of 133.066 on 1 procs for 1505 steps with 19652 atoms

Performance: 0.977 ns/day, 24.560 hours/ns, 11.310 timesteps/s
99.9% CPU use with 1 MPI tasks x no OpenMP threads

MPI task timing breakdown:
Section |  min time  |  avg time  |  max time  |%varavg| %total
---------------------------------------------------------------
Pair    | 61.949     | 61.949     | 61.949     |   0.0 | 46.56
Neigh   | 66.326     | 66.326     | 66.326     |   0.0 | 49.84
Comm    | 1.6518     | 1.6518     | 1.6518     |   0.0 |  1.24
Output  | 0.06777    | 0.06777    | 0.06777    |   0.0 |  0.05
Modify  | 2.4047     | 2.4047     | 2.4047     |   0.0 |  1.81
Other   |            | 0.6663     |            |       |  0.50

Nlocal:    19652 ave 19652 max 19652 min
Histogram: 1 0 0 0 0 0 0 0 0 0
Nghost:    12844 ave 12844 max 12844 min
Histogram: 1 0 0 0 0 0 0 0 0 0
Neighs:    606788 ave 606788 max 606788 min
Histogram: 1 0 0 0 0 0 0 0 0 0

Total # of neighbors = 606788
Ave neighs/atom = 30.8767
Neighbor list builds = 1505
Dangerous builds not checked
Setting up Verlet run ...
  Unit style    : metal
  Current step  : 74000
  Time step     : 0.001
Per MPI rank memory allocation (min/avg/max) = 18.24 | 18.24 | 18.24 Mbytes
Step Temp Press TotEng PotEng Enthalpy 
   74000     1591.871     387.7845   -77920.003   -81963.501   -77724.624 
   74495    1558.0306    423.42649   -78097.433   -82054.973   -77884.477 
Loop time of 45.0013 on 1 procs for 495 steps with 19652 atoms

Performance: 0.950 ns/day, 25.253 hours/ns, 11.000 timesteps/s
100.0% CPU use with 1 MPI tasks x no OpenMP threads

MPI task timing breakdown:
Section |  min time  |  avg time  |  max time  |%varavg| %total
---------------------------------------------------------------
Pair    | 21.136     | 21.136     | 21.136     |   0.0 | 46.97
Neigh   | 22.162     | 22.162     | 22.162     |   0.0 | 49.25
Comm    | 0.58961    | 0.58961    | 0.58961    |   0.0 |  1.31
Output  | 0.00032306 | 0.00032306 | 0.00032306 |   0.0 |  0.00
Modify  | 0.87545    | 0.87545    | 0.87545    |   0.0 |  1.95
Other   |            | 0.2377     |            |       |  0.53

Nlocal:    19652 ave 19652 max 19652 min
Histogram: 1 0 0 0 0 0 0 0 0 0
Nghost:    12883 ave 12883 max 12883 min
Histogram: 1 0 0 0 0 0 0 0 0 0
Neighs:    607971 ave 607971 max 607971 min
Histogram: 1 0 0 0 0 0 0 0 0 0

Total # of neighbors = 607971
Ave neighs/atom = 30.9369
Neighbor list builds = 495
Dangerous builds not checked
Setting up Verlet run ...
  Unit style    : metal
  Current step  : 74495
  Time step     : 0.001
Per MPI rank memory allocation (min/avg/max) = 18.24 | 18.24 | 18.24 Mbytes
Step Temp Press TotEng PotEng Enthalpy 
   74495    1558.0306    423.42649   -78097.433   -82054.973   -77884.477 
   76000    1555.9716    552.80851   -78155.942   -82108.252   -77878.334 
Loop time of 138.424 on 1 procs for 1505 steps with 19652 atoms

Performance: 0.939 ns/day, 25.549 hours/ns, 10.872 timesteps/s
100.0% CPU use with 1 MPI tasks x no OpenMP threads

MPI task timing breakdown:
Section |  min time  |  avg time  |  max time  |%varavg| %total
---------------------------------------------------------------
Pair    | 65.112     | 65.112     | 65.112     |   0.0 | 47.04
Neigh   | 68.089     | 68.089     | 68.089     |   0.0 | 49.19
Comm    | 1.7952     | 1.7952     | 1.7952     |   0.0 |  1.30
Output  | 0.066056   | 0.066056   | 0.066056   |   0.0 |  0.05
Modify  | 2.6382     | 2.6382     | 2.6382     |   0.0 |  1.91
Other   |            | 0.7227     |            |       |  0.52

Nlocal:    19652 ave 19652 max 19652 min
Histogram: 1 0 0 0 0 0 0 0 0 0
Nghost:    12892 ave 12892 max 12892 min
Histogram: 1 0 0 0 0 0 0 0 0 0
Neighs:    609381 ave 609381 max 609381 min
Histogram: 1 0 0 0 0 0 0 0 0 0

Total # of neighbors = 609381
Ave neighs/atom = 31.0086
Neighbor list builds = 1505
Dangerous builds not checked
Setting up Verlet run ...
  Unit style    : metal
  Current step  : 76000
  Time step     : 0.001
Per MPI rank memory allocation (min/avg/max) = 18.24 | 18.24 | 18.24 Mbytes
Step Temp Press TotEng PotEng Enthalpy 
   76000    1555.9716    552.80851   -78155.942   -82108.252   -77878.334 
   76495    1517.0227    506.17921   -78333.737   -82187.112   -78079.948 
Loop time of 44.7862 on 1 procs for 495 steps with 19652 atoms

Performance: 0.955 ns/day, 25.133 hours/ns, 11.053 timesteps/s
99.5% CPU use with 1 MPI tasks x no OpenMP threads

MPI task timing breakdown:
Section |  min time  |  avg time  |  max time  |%varavg| %total
---------------------------------------------------------------
Pair    | 21.057     | 21.057     | 21.057     |   0.0 | 47.02
Neigh   | 22.054     | 22.054     | 22.054     |   0.0 | 49.24
Comm    | 0.57925    | 0.57925    | 0.57925    |   0.0 |  1.29
Output  | 0.0002768  | 0.0002768  | 0.0002768  |   0.0 |  0.00
Modify  | 0.86402    | 0.86402    | 0.86402    |   0.0 |  1.93
Other   |            | 0.2318     |            |       |  0.52

Nlocal:    19652 ave 19652 max 19652 min
Histogram: 1 0 0 0 0 0 0 0 0 0
Nghost:    12898 ave 12898 max 12898 min
Histogram: 1 0 0 0 0 0 0 0 0 0
Neighs:    609865 ave 609865 max 609865 min
Histogram: 1 0 0 0 0 0 0 0 0 0

Total # of neighbors = 609865
Ave neighs/atom = 31.0332
Neighbor list builds = 495
Dangerous builds not checked
Setting up Verlet run ...
  Unit style    : metal
  Current step  : 76495
  Time step     : 0.001
Per MPI rank memory allocation (min/avg/max) = 18.24 | 18.24 | 18.24 Mbytes
Step Temp Press TotEng PotEng Enthalpy 
   76495    1517.0227    506.17921   -78333.737   -82187.112   -78079.948 
   78000    1497.8855    502.46426    -78455.97   -82260.736   -78204.257 
Loop time of 136.401 on 1 procs for 1505 steps with 19652 atoms

Performance: 0.953 ns/day, 25.176 hours/ns, 11.034 timesteps/s
99.7% CPU use with 1 MPI tasks x no OpenMP threads

MPI task timing breakdown:
Section |  min time  |  avg time  |  max time  |%varavg| %total
---------------------------------------------------------------
Pair    | 64.067     | 64.067     | 64.067     |   0.0 | 46.97
Neigh   | 67.401     | 67.401     | 67.401     |   0.0 | 49.41
Comm    | 1.7127     | 1.7127     | 1.7127     |   0.0 |  1.26
Output  | 0.066971   | 0.066971   | 0.066971   |   0.0 |  0.05
Modify  | 2.4702     | 2.4702     | 2.4702     |   0.0 |  1.81
Other   |            | 0.6827     |            |       |  0.50

Nlocal:    19652 ave 19652 max 19652 min
Histogram: 1 0 0 0 0 0 0 0 0 0
Nghost:    12939 ave 12939 max 12939 min
Histogram: 1 0 0 0 0 0 0 0 0 0
Neighs:    610119 ave 610119 max 610119 min
Histogram: 1 0 0 0 0 0 0 0 0 0

Total # of neighbors = 610119
Ave neighs/atom = 31.0462
Neighbor list builds = 1505
Dangerous builds not checked
Setting up Verlet run ...
  Unit style    : metal
  Current step  : 78000
  Time step     : 0.001
Per MPI rank memory allocation (min/avg/max) = 18.24 | 18.24 | 18.24 Mbytes
Step Temp Press TotEng PotEng Enthalpy 
   78000    1497.8855    502.46426    -78455.97   -82260.736   -78204.257 
   78495     1468.873    516.52969   -78593.377   -82324.449   -78334.956 
Loop time of 42.78 on 1 procs for 495 steps with 19652 atoms

Performance: 1.000 ns/day, 24.007 hours/ns, 11.571 timesteps/s
99.9% CPU use with 1 MPI tasks x no OpenMP threads

MPI task timing breakdown:
Section |  min time  |  avg time  |  max time  |%varavg| %total
---------------------------------------------------------------
Pair    | 19.973     | 19.973     | 19.973     |   0.0 | 46.69
Neigh   | 21.324     | 21.324     | 21.324     |   0.0 | 49.84
Comm    | 0.52018    | 0.52018    | 0.52018    |   0.0 |  1.22
Output  | 0.00031686 | 0.00031686 | 0.00031686 |   0.0 |  0.00
Modify  | 0.74987    | 0.74987    | 0.74987    |   0.0 |  1.75
Other   |            | 0.2129     |            |       |  0.50

Nlocal:    19652 ave 19652 max 19652 min
Histogram: 1 0 0 0 0 0 0 0 0 0
Nghost:    12865 ave 12865 max 12865 min
Histogram: 1 0 0 0 0 0 0 0 0 0
Neighs:    611091 ave 611091 max 611091 min
Histogram: 1 0 0 0 0 0 0 0 0 0

Total # of neighbors = 611091
Ave neighs/atom = 31.0956
Neighbor list builds = 495
Dangerous builds not checked
Setting up Verlet run ...
  Unit style    : metal
  Current step  : 78495
  Time step     : 0.001
Per MPI rank memory allocation (min/avg/max) = 18.24 | 18.24 | 18.24 Mbytes
Step Temp Press TotEng PotEng Enthalpy 
   78495     1468.873    516.52969   -78593.377   -82324.449   -78334.956 
   80000     1434.036    385.62035   -78709.508    -82352.09   -78516.655 
Loop time of 131.858 on 1 procs for 1505 steps with 19652 atoms

Performance: 0.986 ns/day, 24.337 hours/ns, 11.414 timesteps/s
99.9% CPU use with 1 MPI tasks x no OpenMP threads

MPI task timing breakdown:
Section |  min time  |  avg time  |  max time  |%varavg| %total
---------------------------------------------------------------
Pair    | 61.657     | 61.657     | 61.657     |   0.0 | 46.76
Neigh   | 65.667     | 65.667     | 65.667     |   0.0 | 49.80
Comm    | 1.5772     | 1.5772     | 1.5772     |   0.0 |  1.20
Output  | 0.068466   | 0.068466   | 0.068466   |   0.0 |  0.05
Modify  | 2.2472     | 2.2472     | 2.2472     |   0.0 |  1.70
Other   |            | 0.6412     |            |       |  0.49

Nlocal:    19652 ave 19652 max 19652 min
Histogram: 1 0 0 0 0 0 0 0 0 0
Nghost:    12871 ave 12871 max 12871 min
Histogram: 1 0 0 0 0 0 0 0 0 0
Neighs:    611790 ave 611790 max 611790 min
Histogram: 1 0 0 0 0 0 0 0 0 0

Total # of neighbors = 611790
Ave neighs/atom = 31.1312
Neighbor list builds = 1505
Dangerous builds not checked
Setting up Verlet run ...
  Unit style    : metal
  Current step  : 80000
  Time step     : 0.001
Per MPI rank memory allocation (min/avg/max) = 18.24 | 18.24 | 18.24 Mbytes
Step Temp Press TotEng PotEng Enthalpy 
   80000     1434.036    385.62035   -78709.508    -82352.09   -78516.655 
   80495    1412.7587    246.42215   -78814.476   -82403.012   -78691.333 
Loop time of 42.6239 on 1 procs for 495 steps with 19652 atoms

Performance: 1.003 ns/day, 23.919 hours/ns, 11.613 timesteps/s
99.9% CPU use with 1 MPI tasks x no OpenMP threads

MPI task timing breakdown:
Section |  min time  |  avg time  |  max time  |%varavg| %total
---------------------------------------------------------------
Pair    | 19.895     | 19.895     | 19.895     |   0.0 | 46.68
Neigh   | 21.254     | 21.254     | 21.254     |   0.0 | 49.86
Comm    | 0.51745    | 0.51745    | 0.51745    |   0.0 |  1.21
Output  | 0.0002439  | 0.0002439  | 0.0002439  |   0.0 |  0.00
Modify  | 0.7457     | 0.7457     | 0.7457     |   0.0 |  1.75
Other   |            | 0.2113     |            |       |  0.50

Nlocal:    19652 ave 19652 max 19652 min
Histogram: 1 0 0 0 0 0 0 0 0 0
Nghost:    12887 ave 12887 max 12887 min
Histogram: 1 0 0 0 0 0 0 0 0 0
Neighs:    612135 ave 612135 max 612135 min
Histogram: 1 0 0 0 0 0 0 0 0 0

Total # of neighbors = 612135
Ave neighs/atom = 31.1487
Neighbor list builds = 495
Dangerous builds not checked
Setting up Verlet run ...
  Unit style    : metal
  Current step  : 80495
  Time step     : 0.001
Per MPI rank memory allocation (min/avg/max) = 18.24 | 18.24 | 18.24 Mbytes
Step Temp Press TotEng PotEng Enthalpy 
   80495    1412.7587    246.42215   -78814.476   -82403.012   -78691.333 
   82000    1395.2759    229.80486   -78928.112    -82472.24   -78813.357 
Loop time of 139.589 on 1 procs for 1505 steps with 19652 atoms

Performance: 0.932 ns/day, 25.764 hours/ns, 10.782 timesteps/s
100.0% CPU use with 1 MPI tasks x no OpenMP threads

MPI task timing breakdown:
Section |  min time  |  avg time  |  max time  |%varavg| %total
---------------------------------------------------------------
Pair    | 65.95      | 65.95      | 65.95      |   0.0 | 47.25
Neigh   | 68.364     | 68.364     | 68.364     |   0.0 | 48.98
Comm    | 1.8192     | 1.8192     | 1.8192     |   0.0 |  1.30
Output  | 0.066398   | 0.066398   | 0.066398   |   0.0 |  0.05
Modify  | 2.6678     | 2.6678     | 2.6678     |   0.0 |  1.91
Other   |            | 0.7211     |            |       |  0.52

Nlocal:    19652 ave 19652 max 19652 min
Histogram: 1 0 0 0 0 0 0 0 0 0
Nghost:    12936 ave 12936 max 12936 min
Histogram: 1 0 0 0 0 0 0 0 0 0
Neighs:    612420 ave 612420 max 612420 min
Histogram: 1 0 0 0 0 0 0 0 0 0

Total # of neighbors = 612420
Ave neighs/atom = 31.1632
Neighbor list builds = 1505
Dangerous builds not checked
Setting up Verlet run ...
  Unit style    : metal
  Current step  : 82000
  Time step     : 0.001
Per MPI rank memory allocation (min/avg/max) = 18.24 | 18.24 | 18.24 Mbytes
Step Temp Press TotEng PotEng Enthalpy 
   82000    1395.2759    229.80486   -78928.112    -82472.24   -78813.357 
   82495     1363.385    228.24734    -79095.16   -82558.282   -78981.386 
Loop time of 44.5029 on 1 procs for 495 steps with 19652 atoms

Performance: 0.961 ns/day, 24.974 hours/ns, 11.123 timesteps/s
100.0% CPU use with 1 MPI tasks x no OpenMP threads

MPI task timing breakdown:
Section |  min time  |  avg time  |  max time  |%varavg| %total
---------------------------------------------------------------
Pair    | 20.807     | 20.807     | 20.807     |   0.0 | 46.75
Neigh   | 21.991     | 21.991     | 21.991     |   0.0 | 49.42
Comm    | 0.58916    | 0.58916    | 0.58916    |   0.0 |  1.32
Output  | 0.00024104 | 0.00024104 | 0.00024104 |   0.0 |  0.00
Modify  | 0.87936    | 0.87936    | 0.87936    |   0.0 |  1.98
Other   |            | 0.2362     |            |       |  0.53

Nlocal:    19652 ave 19652 max 19652 min
Histogram: 1 0 0 0 0 0 0 0 0 0
Nghost:    12855 ave 12855 max 12855 min
Histogram: 1 0 0 0 0 0 0 0 0 0
Neighs:    613686 ave 613686 max 613686 min
Histogram: 1 0 0 0 0 0 0 0 0 0

Total # of neighbors = 613686
Ave neighs/atom = 31.2277
Neighbor list builds = 495
Dangerous builds not checked
Setting up Verlet run ...
  Unit style    : metal
  Current step  : 82495
  Time step     : 0.001
Per MPI rank memory allocation (min/avg/max) = 18.24 | 18.24 | 18.24 Mbytes
Step Temp Press TotEng PotEng Enthalpy 
   82495     1363.385    228.24734    -79095.16   -82558.282   -78981.386 
   84000       1348.4   -65.361046   -79184.498   -82609.556   -79217.087 
Loop time of 131.129 on 1 procs for 1505 steps with 19652 atoms

Performance: 0.992 ns/day, 24.203 hours/ns, 11.477 timesteps/s
99.4% CPU use with 1 MPI tasks x no OpenMP threads

MPI task timing breakdown:
Section |  min time  |  avg time  |  max time  |%varavg| %total
---------------------------------------------------------------
Pair    | 60.833     | 60.833     | 60.833     |   0.0 | 46.39
Neigh   | 65.445     | 65.445     | 65.445     |   0.0 | 49.91
Comm    | 1.6368     | 1.6368     | 1.6368     |   0.0 |  1.25
Output  | 0.069009   | 0.069009   | 0.069009   |   0.0 |  0.05
Modify  | 2.4598     | 2.4598     | 2.4598     |   0.0 |  1.88
Other   |            | 0.6857     |            |       |  0.52

Nlocal:    19652 ave 19652 max 19652 min
Histogram: 1 0 0 0 0 0 0 0 0 0
Nghost:    12890 ave 12890 max 12890 min
Histogram: 1 0 0 0 0 0 0 0 0 0
Neighs:    613034 ave 613034 max 613034 min
Histogram: 1 0 0 0 0 0 0 0 0 0

Total # of neighbors = 613034
Ave neighs/atom = 31.1945
Neighbor list builds = 1505
Dangerous builds not checked
Setting up Verlet run ...
  Unit style    : metal
  Current step  : 84000
  Time step     : 0.001
Per MPI rank memory allocation (min/avg/max) = 18.24 | 18.24 | 18.24 Mbytes
Step Temp Press TotEng PotEng Enthalpy 
   84000       1348.4   -65.361046   -79184.498   -82609.556   -79217.087 
   84495    1306.9869    103.62708   -79358.213   -82678.078   -79306.649 
Loop time of 42.5097 on 1 procs for 495 steps with 19652 atoms

Performance: 1.006 ns/day, 23.855 hours/ns, 11.644 timesteps/s
100.0% CPU use with 1 MPI tasks x no OpenMP threads

MPI task timing breakdown:
Section |  min time  |  avg time  |  max time  |%varavg| %total
---------------------------------------------------------------
Pair    | 19.806     | 19.806     | 19.806     |   0.0 | 46.59
Neigh   | 21.135     | 21.135     | 21.135     |   0.0 | 49.72
Comm    | 0.53536    | 0.53536    | 0.53536    |   0.0 |  1.26
Output  | 0.00036883 | 0.00036883 | 0.00036883 |   0.0 |  0.00
Modify  | 0.80833    | 0.80833    | 0.80833    |   0.0 |  1.90
Other   |            | 0.2241     |            |       |  0.53

Nlocal:    19652 ave 19652 max 19652 min
Histogram: 1 0 0 0 0 0 0 0 0 0
Nghost:    12882 ave 12882 max 12882 min
Histogram: 1 0 0 0 0 0 0 0 0 0
Neighs:    614257 ave 614257 max 614257 min
Histogram: 1 0 0 0 0 0 0 0 0 0

Total # of neighbors = 614257
Ave neighs/atom = 31.2567
Neighbor list builds = 495
Dangerous builds not checked
Setting up Verlet run ...
  Unit style    : metal
  Current step  : 84495
  Time step     : 0.001
Per MPI rank memory allocation (min/avg/max) = 18.24 | 18.24 | 18.24 Mbytes
Step Temp Press TotEng PotEng Enthalpy 
   84495    1306.9869    103.62708   -79358.213   -82678.078   -79306.649 
   86000    1307.6016    52.069223   -79380.841   -82702.268   -79354.936 
Loop time of 136.655 on 1 procs for 1505 steps with 19652 atoms

Performance: 0.952 ns/day, 25.222 hours/ns, 11.013 timesteps/s
99.9% CPU use with 1 MPI tasks x no OpenMP threads

MPI task timing breakdown:
Section |  min time  |  avg time  |  max time  |%varavg| %total
---------------------------------------------------------------
Pair    | 64.255     | 64.255     | 64.255     |   0.0 | 47.02
Neigh   | 67.216     | 67.216     | 67.216     |   0.0 | 49.19
Comm    | 1.7713     | 1.7713     | 1.7713     |   0.0 |  1.30
Output  | 0.066431   | 0.066431   | 0.066431   |   0.0 |  0.05
Modify  | 2.6334     | 2.6334     | 2.6334     |   0.0 |  1.93
Other   |            | 0.7133     |            |       |  0.52

Nlocal:    19652 ave 19652 max 19652 min
Histogram: 1 0 0 0 0 0 0 0 0 0
Nghost:    12839 ave 12839 max 12839 min
Histogram: 1 0 0 0 0 0 0 0 0 0
Neighs:    614771 ave 614771 max 614771 min
Histogram: 1 0 0 0 0 0 0 0 0 0

Total # of neighbors = 614771
Ave neighs/atom = 31.2829
Neighbor list builds = 1505
Dangerous builds not checked
Setting up Verlet run ...
  Unit style    : metal
  Current step  : 86000
  Time step     : 0.001
Per MPI rank memory allocation (min/avg/max) = 18.24 | 18.24 | 18.24 Mbytes
Step Temp Press TotEng PotEng Enthalpy 
   86000    1307.6016    52.069223   -79380.841   -82702.268   -79354.936 
   86495    1257.6588    329.50862   -79581.601   -82776.169   -79418.047 
Loop time of 42.7311 on 1 procs for 495 steps with 19652 atoms

Performance: 1.001 ns/day, 23.979 hours/ns, 11.584 timesteps/s
100.0% CPU use with 1 MPI tasks x no OpenMP threads

MPI task timing breakdown:
Section |  min time  |  avg time  |  max time  |%varavg| %total
---------------------------------------------------------------
Pair    | 19.782     | 19.782     | 19.782     |   0.0 | 46.29
Neigh   | 21.316     | 21.316     | 21.316     |   0.0 | 49.88
Comm    | 0.55125    | 0.55125    | 0.55125    |   0.0 |  1.29
Output  | 0.00028205 | 0.00028205 | 0.00028205 |   0.0 |  0.00
Modify  | 0.84462    | 0.84462    | 0.84462    |   0.0 |  1.98
Other   |            | 0.2366     |            |       |  0.55

Nlocal:    19652 ave 19652 max 19652 min
Histogram: 1 0 0 0 0 0 0 0 0 0
Nghost:    12905 ave 12905 max 12905 min
Histogram: 1 0 0 0 0 0 0 0 0 0
Neighs:    615875 ave 615875 max 615875 min
Histogram: 1 0 0 0 0 0 0 0 0 0

Total # of neighbors = 615875
Ave neighs/atom = 31.339
Neighbor list builds = 495
Dangerous builds not checked
Setting up Verlet run ...
  Unit style    : metal
  Current step  : 86495
  Time step     : 0.001
Per MPI rank memory allocation (min/avg/max) = 18.24 | 18.24 | 18.24 Mbytes
Step Temp Press TotEng PotEng Enthalpy 
   86495    1257.6588    329.50862   -79581.601   -82776.169   -79418.047 
   88000    1237.5725   -793.71548   -79692.311   -82835.858   -80087.395 
Loop time of 124.788 on 1 procs for 1505 steps with 19652 atoms

Performance: 1.042 ns/day, 23.032 hours/ns, 12.060 timesteps/s
99.9% CPU use with 1 MPI tasks x no OpenMP threads

MPI task timing breakdown:
Section |  min time  |  avg time  |  max time  |%varavg| %total
---------------------------------------------------------------
Pair    | 57.745     | 57.745     | 57.745     |   0.0 | 46.27
Neigh   | 62.395     | 62.395     | 62.395     |   0.0 | 50.00
Comm    | 1.5774     | 1.5774     | 1.5774     |   0.0 |  1.26
Output  | 0.050097   | 0.050097   | 0.050097   |   0.0 |  0.04
Modify  | 2.3819     | 2.3819     | 2.3819     |   0.0 |  1.91
Other   |            | 0.639      |            |       |  0.51

Nlocal:    19652 ave 19652 max 19652 min
Histogram: 1 0 0 0 0 0 0 0 0 0
Nghost:    12944 ave 12944 max 12944 min
Histogram: 1 0 0 0 0 0 0 0 0 0
Neighs:    614332 ave 614332 max 614332 min
Histogram: 1 0 0 0 0 0 0 0 0 0

Total # of neighbors = 614332
Ave neighs/atom = 31.2605
Neighbor list builds = 1505
Dangerous builds not checked
Setting up Verlet run ...
  Unit style    : metal
  Current step  : 88000
  Time step     : 0.001
Per MPI rank memory allocation (min/avg/max) = 18.24 | 18.24 | 18.24 Mbytes
Step Temp Press TotEng PotEng Enthalpy 
   88000    1237.5725   -793.71548   -79692.311   -82835.858   -80087.395 
   88495    1205.5461   -474.47439    -79842.89   -82905.087    -80078.45 
Loop time of 30.6984 on 1 procs for 495 steps with 19652 atoms

Performance: 1.393 ns/day, 17.227 hours/ns, 16.125 timesteps/s
100.0% CPU use with 1 MPI tasks x no OpenMP threads

MPI task timing breakdown:
Section |  min time  |  avg time  |  max time  |%varavg| %total
---------------------------------------------------------------
Pair    | 13.486     | 13.486     | 13.486     |   0.0 | 43.93
Neigh   | 16.172     | 16.172     | 16.172     |   0.0 | 52.68
Comm    | 0.35494    | 0.35494    | 0.35494    |   0.0 |  1.16
Output  | 0.000144   | 0.000144   | 0.000144   |   0.0 |  0.00
Modify  | 0.54167    | 0.54167    | 0.54167    |   0.0 |  1.76
Other   |            | 0.1441     |            |       |  0.47

Nlocal:    19652 ave 19652 max 19652 min
Histogram: 1 0 0 0 0 0 0 0 0 0
Nghost:    12974 ave 12974 max 12974 min
Histogram: 1 0 0 0 0 0 0 0 0 0
Neighs:    615775 ave 615775 max 615775 min
Histogram: 1 0 0 0 0 0 0 0 0 0

Total # of neighbors = 615775
Ave neighs/atom = 31.334
Neighbor list builds = 495
Dangerous builds not checked
Setting up Verlet run ...
  Unit style    : metal
  Current step  : 88495
  Time step     : 0.001
Per MPI rank memory allocation (min/avg/max) = 18.24 | 18.24 | 18.24 Mbytes
Step Temp Press TotEng PotEng Enthalpy 
   88495    1205.5461   -474.47439    -79842.89   -82905.087    -80078.45 
   90000    1188.1294    583.37139   -79945.392   -82963.349   -79657.109 
Loop time of 104.215 on 1 procs for 1505 steps with 19652 atoms

Performance: 1.248 ns/day, 19.235 hours/ns, 14.441 timesteps/s
99.9% CPU use with 1 MPI tasks x no OpenMP threads

MPI task timing breakdown:
Section |  min time  |  avg time  |  max time  |%varavg| %total
---------------------------------------------------------------
Pair    | 46.656     | 46.656     | 46.656     |   0.0 | 44.77
Neigh   | 53.909     | 53.909     | 53.909     |   0.0 | 51.73
Comm    | 1.2346     | 1.2346     | 1.2346     |   0.0 |  1.18
Output  | 0.040976   | 0.040976   | 0.040976   |   0.0 |  0.04
Modify  | 1.88       | 1.88       | 1.88       |   0.0 |  1.80
Other   |            | 0.4945     |            |       |  0.47

Nlocal:    19652 ave 19652 max 19652 min
Histogram: 1 0 0 0 0 0 0 0 0 0
Nghost:    12972 ave 12972 max 12972 min
Histogram: 1 0 0 0 0 0 0 0 0 0
Neighs:    618748 ave 618748 max 618748 min
Histogram: 1 0 0 0 0 0 0 0 0 0

Total # of neighbors = 618748
Ave neighs/atom = 31.4852
Neighbor list builds = 1505
Dangerous builds not checked
Setting up Verlet run ...
  Unit style    : metal
  Current step  : 90000
  Time step     : 0.001
Per MPI rank memory allocation (min/avg/max) = 18.24 | 18.24 | 18.24 Mbytes
Step Temp Press TotEng PotEng Enthalpy 
   90000    1188.1294    583.37139   -79945.392   -82963.349   -79657.109 
   90495     1168.517    454.83138   -80106.906   -83075.046   -79882.371 
Loop time of 30.3788 on 1 procs for 495 steps with 19652 atoms

Performance: 1.408 ns/day, 17.048 hours/ns, 16.294 timesteps/s
100.0% CPU use with 1 MPI tasks x no OpenMP threads

MPI task timing breakdown:
Section |  min time  |  avg time  |  max time  |%varavg| %total
---------------------------------------------------------------
Pair    | 13.399     | 13.399     | 13.399     |   0.0 | 44.11
Neigh   | 15.948     | 15.948     | 15.948     |   0.0 | 52.50
Comm    | 0.35245    | 0.35245    | 0.35245    |   0.0 |  1.16
Output  | 0.00015211 | 0.00015211 | 0.00015211 |   0.0 |  0.00
Modify  | 0.53468    | 0.53468    | 0.53468    |   0.0 |  1.76
Other   |            | 0.1448     |            |       |  0.48

Nlocal:    19652 ave 19652 max 19652 min
Histogram: 1 0 0 0 0 0 0 0 0 0
Nghost:    12905 ave 12905 max 12905 min
Histogram: 1 0 0 0 0 0 0 0 0 0
Neighs:    619284 ave 619284 max 619284 min
Histogram: 1 0 0 0 0 0 0 0 0 0

Total # of neighbors = 619284
Ave neighs/atom = 31.5125
Neighbor list builds = 495
Dangerous builds not checked
Setting up Verlet run ...
  Unit style    : metal
  Current step  : 90495
  Time step     : 0.001
Per MPI rank memory allocation (min/avg/max) = 18.24 | 18.24 | 18.24 Mbytes
Step Temp Press TotEng PotEng Enthalpy 
   90495     1168.517    454.83138   -80106.906   -83075.046   -79882.371 
   92000    1141.2341   -437.21631   -80205.792   -83104.631   -80422.172 
Loop time of 95.2882 on 1 procs for 1505 steps with 19652 atoms

Performance: 1.365 ns/day, 17.587 hours/ns, 15.794 timesteps/s
[...]
Neighs:    635203 ave 635203 max 635203 min
Histogram: 1 0 0 0 0 0 0 0 0 0

Total # of neighbors = 635203
Ave neighs/atom = 32.3226
Neighbor list builds = 1505
Dangerous builds not checked
Setting up Verlet run ...
  Unit style    : metal
  Current step  : 120000
  Time step     : 0.001
Per MPI rank memory allocation (min/avg/max) = 18.24 | 18.24 | 18.24 Mbytes
Step Temp Press TotEng PotEng Enthalpy 
  120000    454.45865    -65.74003   -84027.652   -85182.019   -84059.072 
  120495    422.57491   -185.20742   -84187.633   -85261.012    -84276.07 
Loop time of 27.6368 on 1 procs for 495 steps with 19652 atoms

Performance: 1.548 ns/day, 15.509 hours/ns, 17.911 timesteps/s
100.0% CPU use with 1 MPI tasks x no OpenMP threads

MPI task timing breakdown:
Section |  min time  |  avg time  |  max time  |%varavg| %total
---------------------------------------------------------------
Pair    | 11.974     | 11.974     | 11.974     |   0.0 | 43.33
Neigh   | 14.776     | 14.776     | 14.776     |   0.0 | 53.47
Comm    | 0.30174    | 0.30174    | 0.30174    |   0.0 |  1.09
Output  | 0.00015306 | 0.00015306 | 0.00015306 |   0.0 |  0.00
Modify  | 0.46754    | 0.46754    | 0.46754    |   0.0 |  1.69
Other   |            | 0.1168     |            |       |  0.42

Nlocal:    19652 ave 19652 max 19652 min
Histogram: 1 0 0 0 0 0 0 0 0 0
Nghost:    13112 ave 13112 max 13112 min
Histogram: 1 0 0 0 0 0 0 0 0 0
Neighs:    635626 ave 635626 max 635626 min
Histogram: 1 0 0 0 0 0 0 0 0 0

Total # of neighbors = 635626
Ave neighs/atom = 32.3441
Neighbor list builds = 495
Dangerous builds not checked
Setting up Verlet run ...
  Unit style    : metal
  Current step  : 120495
  Time step     : 0.001
Per MPI rank memory allocation (min/avg/max) = 18.24 | 18.24 | 18.24 Mbytes
Step Temp Press TotEng PotEng Enthalpy 
  120495    422.57491   -185.20742   -84187.633   -85261.012    -84276.07 
  122000    403.34285   -513.66229   -84331.733    -85356.26    -84576.97 
Loop time of 83.7799 on 1 procs for 1505 steps with 19652 atoms

Performance: 1.552 ns/day, 15.463 hours/ns, 17.964 timesteps/s
100.0% CPU use with 1 MPI tasks x no OpenMP threads

MPI task timing breakdown:
Section |  min time  |  avg time  |  max time  |%varavg| %total
---------------------------------------------------------------
Pair    | 36.14      | 36.14      | 36.14      |   0.0 | 43.14
Neigh   | 44.923     | 44.923     | 44.923     |   0.0 | 53.62
Comm    | 0.91131    | 0.91131    | 0.91131    |   0.0 |  1.09
Output  | 0.038507   | 0.038507   | 0.038507   |   0.0 |  0.05
Modify  | 1.4161     | 1.4161     | 1.4161     |   0.0 |  1.69
Other   |            | 0.3511     |            |       |  0.42

Nlocal:    19652 ave 19652 max 19652 min
Histogram: 1 0 0 0 0 0 0 0 0 0
Nghost:    13133 ave 13133 max 13133 min
Histogram: 1 0 0 0 0 0 0 0 0 0
Neighs:    635873 ave 635873 max 635873 min
Histogram: 1 0 0 0 0 0 0 0 0 0

Total # of neighbors = 635873
Ave neighs/atom = 32.3567
Neighbor list builds = 1505
Dangerous builds not checked
Setting up Verlet run ...
  Unit style    : metal
  Current step  : 122000
  Time step     : 0.001
Per MPI rank memory allocation (min/avg/max) = 18.24 | 18.24 | 18.24 Mbytes
Step Temp Press TotEng PotEng Enthalpy 
  122000    403.34285   -513.66229   -84331.733    -85356.26    -84576.97 
  122495     368.3939    -404.2843   -84483.021   -85418.775   -84675.714 
Loop time of 27.5189 on 1 procs for 495 steps with 19652 atoms

Performance: 1.554 ns/day, 15.443 hours/ns, 17.988 timesteps/s
100.0% CPU use with 1 MPI tasks x no OpenMP threads

MPI task timing breakdown:
Section |  min time  |  avg time  |  max time  |%varavg| %total
---------------------------------------------------------------
Pair    | 11.853     | 11.853     | 11.853     |   0.0 | 43.07
Neigh   | 14.785     | 14.785     | 14.785     |   0.0 | 53.73
Comm    | 0.29759    | 0.29759    | 0.29759    |   0.0 |  1.08
Output  | 0.00013709 | 0.00013709 | 0.00013709 |   0.0 |  0.00
Modify  | 0.46695    | 0.46695    | 0.46695    |   0.0 |  1.70
Other   |            | 0.1167     |            |       |  0.42

Nlocal:    19652 ave 19652 max 19652 min
Histogram: 1 0 0 0 0 0 0 0 0 0
Nghost:    13147 ave 13147 max 13147 min
Histogram: 1 0 0 0 0 0 0 0 0 0
Neighs:    636506 ave 636506 max 636506 min
Histogram: 1 0 0 0 0 0 0 0 0 0

Total # of neighbors = 636506
Ave neighs/atom = 32.3889
Neighbor list builds = 495
Dangerous builds not checked
Setting up Verlet run ...
  Unit style    : metal
  Current step  : 122495
  Time step     : 0.001
Per MPI rank memory allocation (min/avg/max) = 18.24 | 18.24 | 18.24 Mbytes
Step Temp Press TotEng PotEng Enthalpy 
  122495     368.3939    -404.2843   -84483.021   -85418.775   -84675.714 
  124000    349.43029    232.20959   -84646.607   -85534.192   -84536.349 
Loop time of 84.3012 on 1 procs for 1505 steps with 19652 atoms

Performance: 1.542 ns/day, 15.559 hours/ns, 17.853 timesteps/s
99.6% CPU use with 1 MPI tasks x no OpenMP threads

MPI task timing breakdown:
Section |  min time  |  avg time  |  max time  |%varavg| %total
---------------------------------------------------------------
Pair    | 36.252     | 36.252     | 36.252     |   0.0 | 43.00
Neigh   | 45.028     | 45.028     | 45.028     |   0.0 | 53.41
Comm    | 0.90819    | 0.90819    | 0.90819    |   0.0 |  1.08
Output  | 0.34396    | 0.34396    | 0.34396    |   0.0 |  0.41
Modify  | 1.4178     | 1.4178     | 1.4178     |   0.0 |  1.68
Other   |            | 0.3518     |            |       |  0.42

Nlocal:    19652 ave 19652 max 19652 min
Histogram: 1 0 0 0 0 0 0 0 0 0
Nghost:    13142 ave 13142 max 13142 min
Histogram: 1 0 0 0 0 0 0 0 0 0
Neighs:    638499 ave 638499 max 638499 min
Histogram: 1 0 0 0 0 0 0 0 0 0

Total # of neighbors = 638499
Ave neighs/atom = 32.4903
Neighbor list builds = 1505
Dangerous builds not checked
Setting up Verlet run ...
  Unit style    : metal
  Current step  : 124000
  Time step     : 0.001
Per MPI rank memory allocation (min/avg/max) = 18.24 | 18.24 | 18.24 Mbytes
Step Temp Press TotEng PotEng Enthalpy 
  124000    349.43029    232.20959   -84646.607   -85534.192   -84536.349 
  124495    323.10784    77.090309   -84791.918   -85612.642   -84755.341 
Loop time of 27.6578 on 1 procs for 495 steps with 19652 atoms

Performance: 1.546 ns/day, 15.521 hours/ns, 17.897 timesteps/s
100.0% CPU use with 1 MPI tasks x no OpenMP threads

MPI task timing breakdown:
Section |  min time  |  avg time  |  max time  |%varavg| %total
---------------------------------------------------------------
Pair    | 11.934     | 11.934     | 11.934     |   0.0 | 43.15
Neigh   | 14.841     | 14.841     | 14.841     |   0.0 | 53.66
Comm    | 0.29852    | 0.29852    | 0.29852    |   0.0 |  1.08
Output  | 0.00015211 | 0.00015211 | 0.00015211 |   0.0 |  0.00
Modify  | 0.46796    | 0.46796    | 0.46796    |   0.0 |  1.69
Other   |            | 0.1156     |            |       |  0.42

Nlocal:    19652 ave 19652 max 19652 min
Histogram: 1 0 0 0 0 0 0 0 0 0
Nghost:    13164 ave 13164 max 13164 min
Histogram: 1 0 0 0 0 0 0 0 0 0
Neighs:    638776 ave 638776 max 638776 min
Histogram: 1 0 0 0 0 0 0 0 0 0

Total # of neighbors = 638776
Ave neighs/atom = 32.5044
Neighbor list builds = 495
Dangerous builds not checked
Setting up Verlet run ...
  Unit style    : metal
  Current step  : 124495
  Time step     : 0.001
Per MPI rank memory allocation (min/avg/max) = 18.24 | 18.24 | 18.24 Mbytes
Step Temp Press TotEng PotEng Enthalpy 
  124495    323.10784    77.090309   -84791.918   -85612.642   -84755.341 
  126000    301.60677    160.92832   -84958.952   -85725.061   -84882.733 
Loop time of 84.5034 on 1 procs for 1505 steps with 19652 atoms

Performance: 1.539 ns/day, 15.597 hours/ns, 17.810 timesteps/s
100.0% CPU use with 1 MPI tasks x no OpenMP threads

MPI task timing breakdown:
Section |  min time  |  avg time  |  max time  |%varavg| %total
---------------------------------------------------------------
Pair    | 36.474     | 36.474     | 36.474     |   0.0 | 43.16
Neigh   | 45.281     | 45.281     | 45.281     |   0.0 | 53.59
Comm    | 0.91969    | 0.91969    | 0.91969    |   0.0 |  1.09
Output  | 0.038892   | 0.038892   | 0.038892   |   0.0 |  0.05
Modify  | 1.425      | 1.425      | 1.425      |   0.0 |  1.69
Other   |            | 0.3646     |            |       |  0.43

Nlocal:    19652 ave 19652 max 19652 min
Histogram: 1 0 0 0 0 0 0 0 0 0
Nghost:    13144 ave 13144 max 13144 min
Histogram: 1 0 0 0 0 0 0 0 0 0
Neighs:    639892 ave 639892 max 639892 min
Histogram: 1 0 0 0 0 0 0 0 0 0

Total # of neighbors = 639892
Ave neighs/atom = 32.5612
Neighbor list builds = 1505
Dangerous builds not checked
Setting up Verlet run ...
  Unit style    : metal
  Current step  : 126000
  Time step     : 0.001
Per MPI rank memory allocation (min/avg/max) = 18.24 | 18.24 | 18.24 Mbytes
Step Temp Press TotEng PotEng Enthalpy 
  126000    301.60677    160.92832   -84958.952   -85725.061   -84882.733 
  126495    271.51617   -69.964517    -85100.58   -85790.256   -85133.701 
Loop time of 27.7733 on 1 procs for 495 steps with 19652 atoms

Performance: 1.540 ns/day, 15.585 hours/ns, 17.823 timesteps/s
100.0% CPU use with 1 MPI tasks x no OpenMP threads

MPI task timing breakdown:
Section |  min time  |  avg time  |  max time  |%varavg| %total
---------------------------------------------------------------
Pair    | 11.992     | 11.992     | 11.992     |   0.0 | 43.18
Neigh   | 14.893     | 14.893     | 14.893     |   0.0 | 53.62
Comm    | 0.30074    | 0.30074    | 0.30074    |   0.0 |  1.08
Output  | 0.00010705 | 0.00010705 | 0.00010705 |   0.0 |  0.00
Modify  | 0.46966    | 0.46966    | 0.46966    |   0.0 |  1.69
Other   |            | 0.117      |            |       |  0.42

Nlocal:    19652 ave 19652 max 19652 min
Histogram: 1 0 0 0 0 0 0 0 0 0
Nghost:    13184 ave 13184 max 13184 min
Histogram: 1 0 0 0 0 0 0 0 0 0
Neighs:    639733 ave 639733 max 639733 min
Histogram: 1 0 0 0 0 0 0 0 0 0

Total # of neighbors = 639733
Ave neighs/atom = 32.5531
Neighbor list builds = 495
Dangerous builds not checked
Setting up Verlet run ...
  Unit style    : metal
  Current step  : 126495
  Time step     : 0.001
Per MPI rank memory allocation (min/avg/max) = 18.24 | 18.24 | 18.24 Mbytes
Step Temp Press TotEng PotEng Enthalpy 
  126495    271.51617   -69.964517    -85100.58   -85790.256   -85133.701 
  128000    250.61768    284.17153   -85267.794   -85904.386   -85133.642 
Loop time of 83.7679 on 1 procs for 1505 steps with 19652 atoms

Performance: 1.552 ns/day, 15.461 hours/ns, 17.966 timesteps/s
100.0% CPU use with 1 MPI tasks x no OpenMP threads

MPI task timing breakdown:
Section |  min time  |  avg time  |  max time  |%varavg| %total
---------------------------------------------------------------
Pair    | 36.028     | 36.028     | 36.028     |   0.0 | 43.01
Neigh   | 45.027     | 45.027     | 45.027     |   0.0 | 53.75
Comm    | 0.90544    | 0.90544    | 0.90544    |   0.0 |  1.08
Output  | 0.039764   | 0.039764   | 0.039764   |   0.0 |  0.05
Modify  | 1.4172     | 1.4172     | 1.4172     |   0.0 |  1.69
Other   |            | 0.3511     |            |       |  0.42

Nlocal:    19652 ave 19652 max 19652 min
Histogram: 1 0 0 0 0 0 0 0 0 0
Nghost:    13180 ave 13180 max 13180 min
Histogram: 1 0 0 0 0 0 0 0 0 0
Neighs:    640696 ave 640696 max 640696 min
Histogram: 1 0 0 0 0 0 0 0 0 0

Total # of neighbors = 640696
Ave neighs/atom = 32.6021
Neighbor list builds = 1505
Dangerous builds not checked
Setting up Verlet run ...
  Unit style    : metal
  Current step  : 128000
  Time step     : 0.001
Per MPI rank memory allocation (min/avg/max) = 18.24 | 18.24 | 18.24 Mbytes
Step Temp Press TotEng PotEng Enthalpy 
  128000    250.61768    284.17153   -85267.794   -85904.386   -85133.642 
  128495    223.25776   -267.27506    -85398.88   -85965.975   -85525.153 
Loop time of 27.7202 on 1 procs for 495 steps with 19652 atoms

Performance: 1.543 ns/day, 15.556 hours/ns, 17.857 timesteps/s
100.0% CPU use with 1 MPI tasks x no OpenMP threads

MPI task timing breakdown:
Section |  min time  |  avg time  |  max time  |%varavg| %total
---------------------------------------------------------------
Pair    | 11.89      | 11.89      | 11.89      |   0.0 | 42.89
Neigh   | 14.946     | 14.946     | 14.946     |   0.0 | 53.92
Comm    | 0.29867    | 0.29867    | 0.29867    |   0.0 |  1.08
Output  | 0.00012302 | 0.00012302 | 0.00012302 |   0.0 |  0.00
Modify  | 0.47022    | 0.47022    | 0.47022    |   0.0 |  1.70
Other   |            | 0.1158     |            |       |  0.42

Nlocal:    19652 ave 19652 max 19652 min
Histogram: 1 0 0 0 0 0 0 0 0 0
Nghost:    13214 ave 13214 max 13214 min
Histogram: 1 0 0 0 0 0 0 0 0 0
Neighs:    640583 ave 640583 max 640583 min
Histogram: 1 0 0 0 0 0 0 0 0 0

Total # of neighbors = 640583
Ave neighs/atom = 32.5963
Neighbor list builds = 495
Dangerous builds not checked
Setting up Verlet run ...
  Unit style    : metal
  Current step  : 128495
  Time step     : 0.001
Per MPI rank memory allocation (min/avg/max) = 18.24 | 18.24 | 18.24 Mbytes
Step Temp Press TotEng PotEng Enthalpy 
  128495    223.25776   -267.27506    -85398.88   -85965.975   -85525.153 
  130000    201.26545    171.62066   -85568.141   -86079.373   -85487.311 
Loop time of 83.3953 on 1 procs for 1505 steps with 19652 atoms

Performance: 1.559 ns/day, 15.392 hours/ns, 18.047 timesteps/s
100.0% CPU use with 1 MPI tasks x no OpenMP threads

MPI task timing breakdown:
Section |  min time  |  avg time  |  max time  |%varavg| %total
---------------------------------------------------------------
Pair    | 35.764     | 35.764     | 35.764     |   0.0 | 42.88
Neigh   | 44.926     | 44.926     | 44.926     |   0.0 | 53.87
Comm    | 0.90181    | 0.90181    | 0.90181    |   0.0 |  1.08
Output  | 0.038501   | 0.038501   | 0.038501   |   0.0 |  0.05
Modify  | 1.4145     | 1.4145     | 1.4145     |   0.0 |  1.70
Other   |            | 0.3508     |            |       |  0.42

Nlocal:    19652 ave 19652 max 19652 min
Histogram: 1 0 0 0 0 0 0 0 0 0
Nghost:    13190 ave 13190 max 13190 min
Histogram: 1 0 0 0 0 0 0 0 0 0
Neighs:    642379 ave 642379 max 642379 min
Histogram: 1 0 0 0 0 0 0 0 0 0

Total # of neighbors = 642379
Ave neighs/atom = 32.6877
Neighbor list builds = 1505
Dangerous builds not checked
Setting up Verlet run ...
  Unit style    : metal
  Current step  : 130000
  Time step     : 0.001
Per MPI rank memory allocation (min/avg/max) = 18.24 | 18.24 | 18.24 Mbytes
Step Temp Press TotEng PotEng Enthalpy 
  130000    201.26545    171.62066   -85568.141   -86079.373   -85487.311 
  130495    176.02192    81.798384   -85694.203   -86141.314   -85655.706 
Loop time of 27.183 on 1 procs for 495 steps with 19652 atoms

Performance: 1.573 ns/day, 15.254 hours/ns, 18.210 timesteps/s
100.0% CPU use with 1 MPI tasks x no OpenMP threads

MPI task timing breakdown:
Section |  min time  |  avg time  |  max time  |%varavg| %total
---------------------------------------------------------------
Pair    | 11.65      | 11.65      | 11.65      |   0.0 | 42.86
Neigh   | 14.662     | 14.662     | 14.662     |   0.0 | 53.94
Comm    | 0.29368    | 0.29368    | 0.29368    |   0.0 |  1.08
Output  | 0.00013089 | 0.00013089 | 0.00013089 |   0.0 |  0.00
Modify  | 0.46257    | 0.46257    | 0.46257    |   0.0 |  1.70
Other   |            | 0.1144     |            |       |  0.42

Nlocal:    19652 ave 19652 max 19652 min
Histogram: 1 0 0 0 0 0 0 0 0 0
Nghost:    13170 ave 13170 max 13170 min
Histogram: 1 0 0 0 0 0 0 0 0 0
Neighs:    642299 ave 642299 max 642299 min
Histogram: 1 0 0 0 0 0 0 0 0 0

Total # of neighbors = 642299
Ave neighs/atom = 32.6836
Neighbor list builds = 495
Dangerous builds not checked
Setting up Verlet run ...
  Unit style    : metal
  Current step  : 130495
  Time step     : 0.001
Per MPI rank memory allocation (min/avg/max) = 18.24 | 18.24 | 18.24 Mbytes
Step Temp Press TotEng PotEng Enthalpy 
  130495    176.02192    81.798384   -85694.203   -86141.314   -85655.706 
  132000    149.66423    234.08206   -85862.575   -86242.736   -85752.631 
Loop time of 83.7928 on 1 procs for 1505 steps with 19652 atoms

Performance: 1.552 ns/day, 15.466 hours/ns, 17.961 timesteps/s
100.0% CPU use with 1 MPI tasks x no OpenMP threads

MPI task timing breakdown:
Section |  min time  |  avg time  |  max time  |%varavg| %total
---------------------------------------------------------------
Pair    | 36.02      | 36.02      | 36.02      |   0.0 | 42.99
Neigh   | 45.033     | 45.033     | 45.033     |   0.0 | 53.74
Comm    | 0.92083    | 0.92083    | 0.92083    |   0.0 |  1.10
Output  | 0.040341   | 0.040341   | 0.040341   |   0.0 |  0.05
Modify  | 1.4236     | 1.4236     | 1.4236     |   0.0 |  1.70
Other   |            | 0.3549     |            |       |  0.42

Nlocal:    19652 ave 19652 max 19652 min
Histogram: 1 0 0 0 0 0 0 0 0 0
Nghost:    13236 ave 13236 max 13236 min
Histogram: 1 0 0 0 0 0 0 0 0 0
Neighs:    643670 ave 643670 max 643670 min
Histogram: 1 0 0 0 0 0 0 0 0 0

Total # of neighbors = 643670
Ave neighs/atom = 32.7534
Neighbor list builds = 1505
Dangerous builds not checked
Setting up Verlet run ...
  Unit style    : metal
  Current step  : 132000
  Time step     : 0.001
Per MPI rank memory allocation (min/avg/max) = 18.24 | 18.24 | 18.24 Mbytes
Step Temp Press TotEng PotEng Enthalpy 
  132000    149.66423    234.08206   -85862.575   -86242.736   -85752.631 
  132495    127.69652   -72.342044    -85979.27   -86303.631    -86013.25 
Loop time of 27.6861 on 1 procs for 495 steps with 19652 atoms

Performance: 1.545 ns/day, 15.537 hours/ns, 17.879 timesteps/s
100.0% CPU use with 1 MPI tasks x no OpenMP threads

MPI task timing breakdown:
Section |  min time  |  avg time  |  max time  |%varavg| %total
---------------------------------------------------------------
Pair    | 11.912     | 11.912     | 11.912     |   0.0 | 43.02
Neigh   | 14.883     | 14.883     | 14.883     |   0.0 | 53.76
Comm    | 0.3032     | 0.3032     | 0.3032     |   0.0 |  1.10
Output  | 0.00013185 | 0.00013185 | 0.00013185 |   0.0 |  0.00
Modify  | 0.4711     | 0.4711     | 0.4711     |   0.0 |  1.70
Other   |            | 0.117      |            |       |  0.42

Nlocal:    19652 ave 19652 max 19652 min
Histogram: 1 0 0 0 0 0 0 0 0 0
Nghost:    13202 ave 13202 max 13202 min
Histogram: 1 0 0 0 0 0 0 0 0 0
Neighs:    643486 ave 643486 max 643486 min
Histogram: 1 0 0 0 0 0 0 0 0 0

Total # of neighbors = 643486
Ave neighs/atom = 32.744
Neighbor list builds = 495
Dangerous builds not checked
Setting up Verlet run ...
  Unit style    : metal
  Current step  : 132495
  Time step     : 0.001
Per MPI rank memory allocation (min/avg/max) = 18.24 | 18.24 | 18.24 Mbytes
Step Temp Press TotEng PotEng Enthalpy 
  132495    127.69652   -72.342044    -85979.27   -86303.631    -86013.25 
  134000    99.446831    107.11151   -86145.943   -86398.547   -86095.722 
Loop time of 83.4562 on 1 procs for 1505 steps with 19652 atoms

Performance: 1.558 ns/day, 15.404 hours/ns, 18.033 timesteps/s
100.0% CPU use with 1 MPI tasks x no OpenMP threads

MPI task timing breakdown:
Section |  min time  |  avg time  |  max time  |%varavg| %total
---------------------------------------------------------------
Pair    | 35.776     | 35.776     | 35.776     |   0.0 | 42.87
Neigh   | 44.952     | 44.952     | 44.952     |   0.0 | 53.86
Comm    | 0.91199    | 0.91199    | 0.91199    |   0.0 |  1.09
Output  | 0.039832   | 0.039832   | 0.039832   |   0.0 |  0.05
Modify  | 1.4216     | 1.4216     | 1.4216     |   0.0 |  1.70
Other   |            | 0.3553     |            |       |  0.43

Nlocal:    19652 ave 19652 max 19652 min
Histogram: 1 0 0 0 0 0 0 0 0 0
Nghost:    13213 ave 13213 max 13213 min
Histogram: 1 0 0 0 0 0 0 0 0 0
Neighs:    644552 ave 644552 max 644552 min
Histogram: 1 0 0 0 0 0 0 0 0 0

Total # of neighbors = 644552
Ave neighs/atom = 32.7983
Neighbor list builds = 1505
Dangerous builds not checked
Total wall time: 3:03:02
