LAMMPS (12 Dec 2018)
Lattice spacing in x,y,z = 4 4 4
Created orthogonal box = (0 0 0) to (68 68 68)
  1 by 1 by 1 MPI processor grid
Created 19652 atoms
  Time spent = 0.00376296 secs
Setting atom values ...
  19652 settings made for type/fraction
Neighbor list info ...
  update every 1 steps, delay 0 steps, check no
  max neighbors/atom: 2000, page size: 100000
  master list distance cutoff = 8.5
  ghost atom cutoff = 8.5
  binsize = 4.25, bins = 16 16 16
  1 neighbor lists, perpetual/occasional/extra = 1 0 0
  (1) pair eam/alloy, perpetual
      attributes: half, newton on
      pair build: half/bin/atomonly/newton
      stencil: half/bin/3d/newton
      bin: standard
Setting up Verlet run ...
  Unit style    : metal
  Current step  : 0
  Time step     : 0.001
Per MPI rank memory allocation (min/avg/max) = 18.19 | 18.19 | 18.19 Mbytes
Step Temp Press TotEng PotEng Enthalpy Volume 
       0          300    646743.88   -38638.853    -39400.88    88286.597       314432 
    1000    914.77005    639445.62   -38639.068   -40962.667    86854.075       314432 
Loop time of 145.36 on 1 procs for 1000 steps with 19652 atoms

Performance: 0.594 ns/day, 40.378 hours/ns, 6.879 timesteps/s
100.0% CPU use with 1 MPI tasks x no OpenMP threads

MPI task timing breakdown:
Section |  min time  |  avg time  |  max time  |%varavg| %total
---------------------------------------------------------------
Pair    | 82.322     | 82.322     | 82.322     |   0.0 | 56.63
Neigh   | 61.075     | 61.075     | 61.075     |   0.0 | 42.02
Comm    | 1.1236     | 1.1236     | 1.1236     |   0.0 |  0.77
Output  | 0.040642   | 0.040642   | 0.040642   |   0.0 |  0.03
Modify  | 0.44309    | 0.44309    | 0.44309    |   0.0 |  0.30
Other   |            | 0.3556     |            |       |  0.24

Nlocal:    19652 ave 19652 max 19652 min
Histogram: 1 0 0 0 0 0 0 0 0 0
Nghost:    18825 ave 18825 max 18825 min
Histogram: 1 0 0 0 0 0 0 0 0 0
Neighs:    1.58336e+06 ave 1.58336e+06 max 1.58336e+06 min
Histogram: 1 0 0 0 0 0 0 0 0 0

Total # of neighbors = 1583365
Ave neighs/atom = 80.5702
Neighbor list builds = 1000
Dangerous builds not checked
Setting up Verlet run ...
  Unit style    : metal
  Current step  : 1000
  Time step     : 0.001
Per MPI rank memory allocation (min/avg/max) = 18.19 | 18.19 | 18.19 Mbytes
Step Temp Press TotEng PotEng Enthalpy Volume 
    1000    914.77005    639445.62   -38639.068   -40962.667    86854.075       314432 
    2000    351.26444   -143.53893   -81672.567   -82564.811   -81730.869    650763.34 
Loop time of 100.535 on 1 procs for 1000 steps with 19652 atoms

Performance: 0.859 ns/day, 27.927 hours/ns, 9.947 timesteps/s
99.6% CPU use with 1 MPI tasks x no OpenMP threads

MPI task timing breakdown:
Section |  min time  |  avg time  |  max time  |%varavg| %total
---------------------------------------------------------------
Pair    | 52.302     | 52.302     | 52.302     |   0.0 | 52.02
Neigh   | 45.347     | 45.347     | 45.347     |   0.0 | 45.11
Comm    | 0.9479     | 0.9479     | 0.9479     |   0.0 |  0.94
Output  | 0.057125   | 0.057125   | 0.057125   |   0.0 |  0.06
Modify  | 1.5274     | 1.5274     | 1.5274     |   0.0 |  1.52
Other   |            | 0.3537     |            |       |  0.35

Nlocal:    19652 ave 19652 max 19652 min
Histogram: 1 0 0 0 0 0 0 0 0 0
Nghost:    13996 ave 13996 max 13996 min
Histogram: 1 0 0 0 0 0 0 0 0 0
Neighs:    719940 ave 719940 max 719940 min
Histogram: 1 0 0 0 0 0 0 0 0 0

Total # of neighbors = 719940
Ave neighs/atom = 36.6344
Neighbor list builds = 1000
Dangerous builds not checked
Setting up Verlet run ...
  Unit style    : metal
  Current step  : 2000
  Time step     : 0.001
Per MPI rank memory allocation (min/avg/max) = 18.2 | 18.2 | 18.2 Mbytes
Step Temp Press TotEng PotEng Enthalpy Volume 
    2000    351.26444   -143.53893   -81672.567   -82564.811   -81730.869    650763.34 
    3000    511.81804   -133.27063   -81249.618   -82549.682   -81303.947    653146.25 
    4000    797.76152    438.28718   -79821.911   -81848.298   -79641.933    657914.99 
    5000    1078.3919    712.29362   -78242.457   -80981.671   -77947.432    663606.19 
    6000    1351.2085    34.051678   -76610.178   -80042.371   -76595.901    671781.88 
    7000    1622.0908   -640.09722   -74857.405   -78977.663   -75129.494    681044.56 
    8000    1897.3165    467.19376   -73004.718   -77824.074   -72804.273    687397.57 
    9000    2175.2188   -413.15342   -71207.421   -76732.675    -71387.58    698640.43 
   10000     2439.477     -207.748   -69596.497   -75792.991   -69687.984    705558.22 
Loop time of 584.492 on 1 procs for 8000 steps with 19652 atoms

Performance: 1.183 ns/day, 20.295 hours/ns, 13.687 timesteps/s
100.1% CPU use with 1 MPI tasks x no OpenMP threads

MPI task timing breakdown:
Section |  min time  |  avg time  |  max time  |%varavg| %total
---------------------------------------------------------------
Pair    | 289.49     | 289.49     | 289.49     |   0.0 | 49.53
Neigh   | 275.61     | 275.61     | 275.61     |   0.0 | 47.15
Comm    | 6.1257     | 6.1257     | 6.1257     |   0.0 |  1.05
Output  | 0.30478    | 0.30478    | 0.30478    |   0.0 |  0.05
Modify  | 10.55      | 10.55      | 10.55      |   0.0 |  1.80
Other   |            | 2.408      |            |       |  0.41

Nlocal:    19652 ave 19652 max 19652 min
Histogram: 1 0 0 0 0 0 0 0 0 0
Nghost:    13537 ave 13537 max 13537 min
Histogram: 1 0 0 0 0 0 0 0 0 0
Neighs:    683943 ave 683943 max 683943 min
Histogram: 1 0 0 0 0 0 0 0 0 0

Total # of neighbors = 683943
Ave neighs/atom = 34.8027
Neighbor list builds = 8000
Dangerous builds not checked
Setting up Verlet run ...
  Unit style    : metal
  Current step  : 10000
  Time step     : 0.001
Per MPI rank memory allocation (min/avg/max) = 18.2 | 18.2 | 18.2 Mbytes
Step Temp Press TotEng PotEng Enthalpy Volume 
   10000     2439.477     -207.748   -69596.497   -75792.991   -69687.984    705558.22 
   11000    2429.1809    469.45645   -69503.707   -75674.048   -69297.267    704546.07 
   12000    2442.0977    -641.4023   -69379.609    -75582.76   -69663.166    708304.07 
   13000     2438.371    703.12999   -69436.004   -75629.689   -69126.738    704703.77 
   14000     2454.161   -656.20327   -69385.398   -75619.191   -69675.665    708711.65 
   15000    2467.6681   -92.599682   -69383.565   -75651.667   -69424.427    707013.63 
   16000    2465.4763    943.92498   -69369.086   -75631.621    -68954.01    704531.78 
   17000    2410.9073   -523.52554   -69524.574   -75648.498   -69755.761     707516.8 
   18000    2432.7743    443.62561   -69493.409   -75672.877   -69298.163    705141.65 
   19000     2466.437    -332.8712   -69364.963   -75629.937     -69511.9    707239.88 
   20000    2431.7226    112.68145   -69410.314   -75587.111   -69360.594    706945.62 
   21000    2451.9135   -713.27049   -69455.664   -75683.748   -69770.798    707866.15 
   22000    2423.1148   -163.19563   -69475.148    -75630.08   -69547.166    707041.54 
   23000    2473.4866   -358.36608   -69285.156   -75568.038   -69443.474    707804.86 
   24000     2441.597   -263.04066   -69406.471    -75608.35   -69522.586    707251.63 
   25000    2455.8368    519.61277   -69327.016   -75565.065   -69097.975    706223.72 
   26000    2437.1114   -495.32709   -69421.516   -75612.001   -69640.169    707251.05 
   27000    2461.5204    48.430635   -69402.223   -75654.709   -69380.883    705954.23 
   28000    2438.1727    847.67656   -69508.841   -75702.022   -69136.316    704101.56 
   29000    2438.0029    -883.9383   -69491.014   -75683.764   -69881.886    708472.45 
   30000    2452.1584    433.01677   -69362.497   -75591.203    -69171.65    706140.73 
   31000    2443.8306   -328.45071   -69440.227   -75647.779   -69585.156    706959.86 
   32000     2451.769    660.82207   -69408.342   -75636.058    -69117.64    704812.23 
   33000    2426.7647   -966.04349   -69449.843   -75614.046   -69877.506    709276.79 
   34000    2443.1658    225.00597   -69465.915   -75671.779   -69366.811    705676.94 
   35000    2458.8779    79.203889   -69483.323   -75729.097   -69448.415    706129.49 
   36000    2455.6415    335.18766   -69381.483   -75619.036   -69233.782    706000.62 
   37000    2441.4324   -779.83679   -69436.678   -75638.138    -69781.59    708622.95 
   38000    2447.9853    772.49042    -69454.58   -75672.686   -69114.798    704722.04 
   39000    2460.3286    78.119185   -69268.417   -75517.875   -69233.939    707120.39 
   40000    2439.2386   -535.77719   -69361.547   -75557.435   -69598.425    708355.38 
Loop time of 2150.93 on 1 procs for 30000 steps with 19652 atoms

Performance: 1.205 ns/day, 19.916 hours/ns, 13.947 timesteps/s
100.0% CPU use with 1 MPI tasks x no OpenMP threads

MPI task timing breakdown:
Section |  min time  |  avg time  |  max time  |%varavg| %total
---------------------------------------------------------------
Pair    | 1040.6     | 1040.6     | 1040.6     |   0.0 | 48.38
Neigh   | 1037.2     | 1037.2     | 1037.2     |   0.0 | 48.22
Comm    | 23.259     | 23.259     | 23.259     |   0.0 |  1.08
Output  | 1.4308     | 1.4308     | 1.4308     |   0.0 |  0.07
Modify  | 39.483     | 39.483     | 39.483     |   0.0 |  1.84
Other   |            | 8.966      |            |       |  0.42

Nlocal:    19652 ave 19652 max 19652 min
Histogram: 1 0 0 0 0 0 0 0 0 0
Nghost:    13432 ave 13432 max 13432 min
Histogram: 1 0 0 0 0 0 0 0 0 0
Neighs:    681987 ave 681987 max 681987 min
Histogram: 1 0 0 0 0 0 0 0 0 0

Total # of neighbors = 681987
Ave neighs/atom = 34.7032
Neighbor list builds = 30000
Dangerous builds not checked
Setting up Verlet run ...
  Unit style    : metal
  Current step  : 40000
  Time step     : 0.001
Per MPI rank memory allocation (min/avg/max) = 18.2 | 18.2 | 18.2 Mbytes
Step Temp Press TotEng PotEng Enthalpy Volume 
   40000    2439.2386   -535.77719   -69361.547   -75557.435   -69598.425    708355.38 
   40495    2396.0476    177.52806   -69645.565   -75731.745   -69567.459     704901.6 
Loop time of 36.5689 on 1 procs for 495 steps with 19652 atoms

Performance: 1.170 ns/day, 20.521 hours/ns, 13.536 timesteps/s
100.1% CPU use with 1 MPI tasks x no OpenMP threads

MPI task timing breakdown:
Section |  min time  |  avg time  |  max time  |%varavg| %total
---------------------------------------------------------------
Pair    | 17.814     | 17.814     | 17.814     |   0.0 | 48.71
Neigh   | 17.522     | 17.522     | 17.522     |   0.0 | 47.92
Comm    | 0.39782    | 0.39782    | 0.39782    |   0.0 |  1.09
Output  | 0.0001471  | 0.0001471  | 0.0001471  |   0.0 |  0.00
Modify  | 0.67765    | 0.67765    | 0.67765    |   0.0 |  1.85
Other   |            | 0.1576     |            |       |  0.43

Nlocal:    19652 ave 19652 max 19652 min
Histogram: 1 0 0 0 0 0 0 0 0 0
Nghost:    13573 ave 13573 max 13573 min
Histogram: 1 0 0 0 0 0 0 0 0 0
Neighs:    684770 ave 684770 max 684770 min
Histogram: 1 0 0 0 0 0 0 0 0 0

Total # of neighbors = 684770
Ave neighs/atom = 34.8448
Neighbor list builds = 495
Dangerous builds not checked
Setting up Verlet run ...
  Unit style    : metal
  Current step  : 40495
  Time step     : 0.001
Per MPI rank memory allocation (min/avg/max) = 18.2 | 18.2 | 18.2 Mbytes
Step Temp Press TotEng PotEng Enthalpy Volume 
   40495    2396.0476    177.52806   -69645.565   -75731.745   -69567.459     704901.6 
   41000    2415.3297    620.17747   -69653.188   -75788.345   -69380.564    704299.88 
Loop time of 35.4873 on 1 procs for 505 steps with 19652 atoms

Performance: 1.230 ns/day, 19.520 hours/ns, 14.230 timesteps/s
100.0% CPU use with 1 MPI tasks x no OpenMP threads

MPI task timing breakdown:
Section |  min time  |  avg time  |  max time  |%varavg| %total
---------------------------------------------------------------
Pair    | 17.113     | 17.113     | 17.113     |   0.0 | 48.22
Neigh   | 17.153     | 17.153     | 17.153     |   0.0 | 48.34
Comm    | 0.38072    | 0.38072    | 0.38072    |   0.0 |  1.07
Output  | 0.038533   | 0.038533   | 0.038533   |   0.0 |  0.11
Modify  | 0.65666    | 0.65666    | 0.65666    |   0.0 |  1.85
Other   |            | 0.1455     |            |       |  0.41

Nlocal:    19652 ave 19652 max 19652 min
Histogram: 1 0 0 0 0 0 0 0 0 0
Nghost:    13495 ave 13495 max 13495 min
Histogram: 1 0 0 0 0 0 0 0 0 0
Neighs:    684760 ave 684760 max 684760 min
Histogram: 1 0 0 0 0 0 0 0 0 0

Total # of neighbors = 684760
Ave neighs/atom = 34.8443
Neighbor list builds = 505
Dangerous builds not checked
Setting up Verlet run ...
  Unit style    : metal
  Current step  : 41000
  Time step     : 0.001
Per MPI rank memory allocation (min/avg/max) = 18.2 | 18.2 | 18.2 Mbytes
Step Temp Press TotEng PotEng Enthalpy Volume 
   41000    2415.3297    620.17747   -69653.188   -75788.345   -69380.564    704299.88 
   41495    2364.3216    71.920462   -69868.801   -75874.394   -69837.182    704398.62 
Loop time of 35.0059 on 1 procs for 495 steps with 19652 atoms

Performance: 1.222 ns/day, 19.644 hours/ns, 14.140 timesteps/s
100.0% CPU use with 1 MPI tasks x no OpenMP threads

MPI task timing breakdown:
Section |  min time  |  avg time  |  max time  |%varavg| %total
---------------------------------------------------------------
Pair    | 16.926     | 16.926     | 16.926     |   0.0 | 48.35
Neigh   | 16.915     | 16.915     | 16.915     |   0.0 | 48.32
Comm    | 0.37434    | 0.37434    | 0.37434    |   0.0 |  1.07
Output  | 0.00013304 | 0.00013304 | 0.00013304 |   0.0 |  0.00
Modify  | 0.64738    | 0.64738    | 0.64738    |   0.0 |  1.85
Other   |            | 0.1431     |            |       |  0.41

Nlocal:    19652 ave 19652 max 19652 min
Histogram: 1 0 0 0 0 0 0 0 0 0
Nghost:    13543 ave 13543 max 13543 min
Histogram: 1 0 0 0 0 0 0 0 0 0
Neighs:    685388 ave 685388 max 685388 min
Histogram: 1 0 0 0 0 0 0 0 0 0

Total # of neighbors = 685388
Ave neighs/atom = 34.8762
Neighbor list builds = 495
Dangerous builds not checked
Setting up Verlet run ...
  Unit style    : metal
  Current step  : 41495
  Time step     : 0.001
Per MPI rank memory allocation (min/avg/max) = 18.2 | 18.2 | 18.2 Mbytes
Step Temp Press TotEng PotEng Enthalpy Volume 
   41495    2364.3216    71.920462   -69868.801   -75874.394   -69837.182    704398.62 
   42000    2353.1009     465.7652    -70020.23    -75997.32   -69815.995    702541.37 
Loop time of 35.578 on 1 procs for 505 steps with 19652 atoms

Performance: 1.226 ns/day, 19.570 hours/ns, 14.194 timesteps/s
100.0% CPU use with 1 MPI tasks x no OpenMP threads

MPI task timing breakdown:
Section |  min time  |  avg time  |  max time  |%varavg| %total
---------------------------------------------------------------
Pair    | 17.177     | 17.177     | 17.177     |   0.0 | 48.28
Neigh   | 17.179     | 17.179     | 17.179     |   0.0 | 48.28
Comm    | 0.37995    | 0.37995    | 0.37995    |   0.0 |  1.07
Output  | 0.038663   | 0.038663   | 0.038663   |   0.0 |  0.11
Modify  | 0.65752    | 0.65752    | 0.65752    |   0.0 |  1.85
Other   |            | 0.1459     |            |       |  0.41

Nlocal:    19652 ave 19652 max 19652 min
Histogram: 1 0 0 0 0 0 0 0 0 0
Nghost:    13608 ave 13608 max 13608 min
Histogram: 1 0 0 0 0 0 0 0 0 0
Neighs:    686489 ave 686489 max 686489 min
Histogram: 1 0 0 0 0 0 0 0 0 0

Total # of neighbors = 686489
Ave neighs/atom = 34.9323
Neighbor list builds = 505
Dangerous builds not checked
Setting up Verlet run ...
  Unit style    : metal
  Current step  : 42000
  Time step     : 0.001
Per MPI rank memory allocation (min/avg/max) = 18.2 | 18.2 | 18.2 Mbytes
Step Temp Press TotEng PotEng Enthalpy Volume 
   42000    2353.1009     465.7652    -70020.23    -75997.32   -69815.995    702541.37 
   42495      2328.43    149.31543   -70213.712   -76128.136   -70148.232    702613.13 
Loop time of 34.8305 on 1 procs for 495 steps with 19652 atoms

Performance: 1.228 ns/day, 19.546 hours/ns, 14.212 timesteps/s
100.0% CPU use with 1 MPI tasks x no OpenMP threads

MPI task timing breakdown:
Section |  min time  |  avg time  |  max time  |%varavg| %total
---------------------------------------------------------------
Pair    | 16.83      | 16.83      | 16.83      |   0.0 | 48.32
Neigh   | 16.842     | 16.842     | 16.842     |   0.0 | 48.35
Comm    | 0.37143    | 0.37143    | 0.37143    |   0.0 |  1.07
Output  | 0.00013113 | 0.00013113 | 0.00013113 |   0.0 |  0.00
Modify  | 0.64419    | 0.64419    | 0.64419    |   0.0 |  1.85
Other   |            | 0.1421     |            |       |  0.41

Nlocal:    19652 ave 19652 max 19652 min
Histogram: 1 0 0 0 0 0 0 0 0 0
Nghost:    13580 ave 13580 max 13580 min
Histogram: 1 0 0 0 0 0 0 0 0 0
Neighs:    686042 ave 686042 max 686042 min
Histogram: 1 0 0 0 0 0 0 0 0 0

Total # of neighbors = 686042
Ave neighs/atom = 34.9095
Neighbor list builds = 495
Dangerous builds not checked
Setting up Verlet run ...
  Unit style    : metal
  Current step  : 42495
  Time step     : 0.001
Per MPI rank memory allocation (min/avg/max) = 18.2 | 18.2 | 18.2 Mbytes
Step Temp Press TotEng PotEng Enthalpy Volume 
   42495      2328.43    149.31543   -70213.712   -76128.136   -70148.232    702613.13 
   43000    2309.9255    319.97831    -70302.05   -76169.471   -70162.041    701045.26 
Loop time of 35.6051 on 1 procs for 505 steps with 19652 atoms

Performance: 1.225 ns/day, 19.585 hours/ns, 14.183 timesteps/s
100.0% CPU use with 1 MPI tasks x no OpenMP threads

MPI task timing breakdown:
Section |  min time  |  avg time  |  max time  |%varavg| %total
---------------------------------------------------------------
Pair    | 17.202     | 17.202     | 17.202     |   0.0 | 48.31
Neigh   | 17.182     | 17.182     | 17.182     |   0.0 | 48.26
Comm    | 0.3805     | 0.3805     | 0.3805     |   0.0 |  1.07
Output  | 0.038562   | 0.038562   | 0.038562   |   0.0 |  0.11
Modify  | 0.65686    | 0.65686    | 0.65686    |   0.0 |  1.84
Other   |            | 0.1448     |            |       |  0.41

Nlocal:    19652 ave 19652 max 19652 min
Histogram: 1 0 0 0 0 0 0 0 0 0
Nghost:    13507 ave 13507 max 13507 min
Histogram: 1 0 0 0 0 0 0 0 0 0
Neighs:    688068 ave 688068 max 688068 min
Histogram: 1 0 0 0 0 0 0 0 0 0

Total # of neighbors = 688068
Ave neighs/atom = 35.0126
Neighbor list builds = 505
Dangerous builds not checked
Setting up Verlet run ...
  Unit style    : metal
  Current step  : 43000
  Time step     : 0.001
Per MPI rank memory allocation (min/avg/max) = 18.2 | 18.2 | 18.2 Mbytes
Step Temp Press TotEng PotEng Enthalpy Volume 
   43000    2309.9255    319.97831    -70302.05   -76169.471   -70162.041    701045.26 
   43495    2250.6752    410.89001   -70537.386   -76254.307   -70357.801    700256.41 
Loop time of 34.7704 on 1 procs for 495 steps with 19652 atoms

Performance: 1.230 ns/day, 19.512 hours/ns, 14.236 timesteps/s
100.1% CPU use with 1 MPI tasks x no OpenMP threads

MPI task timing breakdown:
Section |  min time  |  avg time  |  max time  |%varavg| %total
---------------------------------------------------------------
Pair    | 16.828     | 16.828     | 16.828     |   0.0 | 48.40
Neigh   | 16.789     | 16.789     | 16.789     |   0.0 | 48.29
Comm    | 0.3697     | 0.3697     | 0.3697     |   0.0 |  1.06
Output  | 0.00015497 | 0.00015497 | 0.00015497 |   0.0 |  0.00
Modify  | 0.64199    | 0.64199    | 0.64199    |   0.0 |  1.85
Other   |            | 0.1415     |            |       |  0.41

Nlocal:    19652 ave 19652 max 19652 min
Histogram: 1 0 0 0 0 0 0 0 0 0
Nghost:    13585 ave 13585 max 13585 min
Histogram: 1 0 0 0 0 0 0 0 0 0
Neighs:    688507 ave 688507 max 688507 min
Histogram: 1 0 0 0 0 0 0 0 0 0

Total # of neighbors = 688507
Ave neighs/atom = 35.035
Neighbor list builds = 495
Dangerous builds not checked
Setting up Verlet run ...
  Unit style    : metal
  Current step  : 43495
  Time step     : 0.001
Per MPI rank memory allocation (min/avg/max) = 18.2 | 18.2 | 18.2 Mbytes
Step Temp Press TotEng PotEng Enthalpy Volume 
   43495    2250.6752    410.89001   -70537.386   -76254.307   -70357.801    700256.41 
   44000     2253.626    560.35671   -70623.036   -76347.451   -70378.504    699166.06 
Loop time of 35.536 on 1 procs for 505 steps with 19652 atoms

Performance: 1.228 ns/day, 19.547 hours/ns, 14.211 timesteps/s
100.1% CPU use with 1 MPI tasks x no OpenMP threads

MPI task timing breakdown:
Section |  min time  |  avg time  |  max time  |%varavg| %total
---------------------------------------------------------------
Pair    | 17.199     | 17.199     | 17.199     |   0.0 | 48.40
Neigh   | 17.121     | 17.121     | 17.121     |   0.0 | 48.18
Comm    | 0.37872    | 0.37872    | 0.37872    |   0.0 |  1.07
Output  | 0.03852    | 0.03852    | 0.03852    |   0.0 |  0.11
Modify  | 0.65509    | 0.65509    | 0.65509    |   0.0 |  1.84
Other   |            | 0.1441     |            |       |  0.41

Nlocal:    19652 ave 19652 max 19652 min
Histogram: 1 0 0 0 0 0 0 0 0 0
Nghost:    13593 ave 13593 max 13593 min
Histogram: 1 0 0 0 0 0 0 0 0 0
Neighs:    688921 ave 688921 max 688921 min
Histogram: 1 0 0 0 0 0 0 0 0 0

Total # of neighbors = 688921
Ave neighs/atom = 35.056
Neighbor list builds = 505
Dangerous builds not checked
Setting up Verlet run ...
  Unit style    : metal
  Current step  : 44000
  Time step     : 0.001
Per MPI rank memory allocation (min/avg/max) = 18.2 | 18.2 | 18.2 Mbytes
Step Temp Press TotEng PotEng Enthalpy Volume 
   44000     2253.626    560.35671   -70623.036   -76347.451   -70378.504    699166.06 
   44495    2218.6421     43.22293   -70781.933   -76417.486   -70763.052    699869.42 
Loop time of 36.2508 on 1 procs for 495 steps with 19652 atoms

Performance: 1.180 ns/day, 20.343 hours/ns, 13.655 timesteps/s
100.1% CPU use with 1 MPI tasks x no OpenMP threads

MPI task timing breakdown:
Section |  min time  |  avg time  |  max time  |%varavg| %total
---------------------------------------------------------------
Pair    | 17.53      | 17.53      | 17.53      |   0.0 | 48.36
Neigh   | 17.513     | 17.513     | 17.513     |   0.0 | 48.31
Comm    | 0.38827    | 0.38827    | 0.38827    |   0.0 |  1.07
Output  | 0.00013089 | 0.00013089 | 0.00013089 |   0.0 |  0.00
Modify  | 0.67028    | 0.67028    | 0.67028    |   0.0 |  1.85
Other   |            | 0.1486     |            |       |  0.41

Nlocal:    19652 ave 19652 max 19652 min
Histogram: 1 0 0 0 0 0 0 0 0 0
Nghost:    13586 ave 13586 max 13586 min
Histogram: 1 0 0 0 0 0 0 0 0 0
Neighs:    688302 ave 688302 max 688302 min
Histogram: 1 0 0 0 0 0 0 0 0 0

Total # of neighbors = 688302
Ave neighs/atom = 35.0245
Neighbor list builds = 495
Dangerous builds not checked
Setting up Verlet run ...
  Unit style    : metal
  Current step  : 44495
  Time step     : 0.001
Per MPI rank memory allocation (min/avg/max) = 18.2 | 18.2 | 18.2 Mbytes
Step Temp Press TotEng PotEng Enthalpy Volume 
   44495    2218.6421     43.22293   -70781.933   -76417.486   -70763.052    699869.42 
   45000    2205.9114    204.90734   -70947.228   -76550.444   -70857.904     698426.5 
Loop time of 35.5988 on 1 procs for 505 steps with 19652 atoms

Performance: 1.226 ns/day, 19.581 hours/ns, 14.186 timesteps/s
100.1% CPU use with 1 MPI tasks x no OpenMP threads

MPI task timing breakdown:
Section |  min time  |  avg time  |  max time  |%varavg| %total
---------------------------------------------------------------
Pair    | 17.233     | 17.233     | 17.233     |   0.0 | 48.41
Neigh   | 17.147     | 17.147     | 17.147     |   0.0 | 48.17
Comm    | 0.37945    | 0.37945    | 0.37945    |   0.0 |  1.07
Output  | 0.038503   | 0.038503   | 0.038503   |   0.0 |  0.11
Modify  | 0.65613    | 0.65613    | 0.65613    |   0.0 |  1.84
Other   |            | 0.1449     |            |       |  0.41

Nlocal:    19652 ave 19652 max 19652 min
Histogram: 1 0 0 0 0 0 0 0 0 0
Nghost:    13664 ave 13664 max 13664 min
Histogram: 1 0 0 0 0 0 0 0 0 0
Neighs:    689549 ave 689549 max 689549 min
Histogram: 1 0 0 0 0 0 0 0 0 0

Total # of neighbors = 689549
Ave neighs/atom = 35.088
Neighbor list builds = 505
Dangerous builds not checked
Setting up Verlet run ...
  Unit style    : metal
  Current step  : 45000
  Time step     : 0.001
Per MPI rank memory allocation (min/avg/max) = 18.2 | 18.2 | 18.2 Mbytes
Step Temp Press TotEng PotEng Enthalpy Volume 
   45000    2205.9114    204.90734   -70947.228   -76550.444   -70857.904     698426.5 
   45495    2181.0112   -101.24136   -71049.713    -76589.68   -71093.888    699085.89 
Loop time of 34.9258 on 1 procs for 495 steps with 19652 atoms

Performance: 1.225 ns/day, 19.599 hours/ns, 14.173 timesteps/s
100.1% CPU use with 1 MPI tasks x no OpenMP threads

MPI task timing breakdown:
Section |  min time  |  avg time  |  max time  |%varavg| %total
---------------------------------------------------------------
Pair    | 16.95      | 16.95      | 16.95      |   0.0 | 48.53
Neigh   | 16.816     | 16.816     | 16.816     |   0.0 | 48.15
Comm    | 0.37227    | 0.37227    | 0.37227    |   0.0 |  1.07
Output  | 0.00013018 | 0.00013018 | 0.00013018 |   0.0 |  0.00
Modify  | 0.64532    | 0.64532    | 0.64532    |   0.0 |  1.85
Other   |            | 0.1425     |            |       |  0.41

Nlocal:    19652 ave 19652 max 19652 min
Histogram: 1 0 0 0 0 0 0 0 0 0
Nghost:    13640 ave 13640 max 13640 min
Histogram: 1 0 0 0 0 0 0 0 0 0
Neighs:    688804 ave 688804 max 688804 min
Histogram: 1 0 0 0 0 0 0 0 0 0

Total # of neighbors = 688804
Ave neighs/atom = 35.0501
Neighbor list builds = 495
Dangerous builds not checked
Setting up Verlet run ...
  Unit style    : metal
  Current step  : 45495
  Time step     : 0.001
Per MPI rank memory allocation (min/avg/max) = 18.2 | 18.2 | 18.2 Mbytes
Step Temp Press TotEng PotEng Enthalpy Volume 
   45495    2181.0112   -101.24136   -71049.713    -76589.68   -71093.888    699085.89 
   46000    2139.5164    11.685667   -71268.855   -76703.422   -71263.767    697547.15 
Loop time of 35.5894 on 1 procs for 505 steps with 19652 atoms

Performance: 1.226 ns/day, 19.576 hours/ns, 14.190 timesteps/s
100.1% CPU use with 1 MPI tasks x no OpenMP threads

MPI task timing breakdown:
Section |  min time  |  avg time  |  max time  |%varavg| %total
---------------------------------------------------------------
Pair    | 17.238     | 17.238     | 17.238     |   0.0 | 48.43
Neigh   | 17.133     | 17.133     | 17.133     |   0.0 | 48.14
Comm    | 0.37891    | 0.37891    | 0.37891    |   0.0 |  1.06
Output  | 0.038479   | 0.038479   | 0.038479   |   0.0 |  0.11
Modify  | 0.65611    | 0.65611    | 0.65611    |   0.0 |  1.84
Other   |            | 0.145      |            |       |  0.41

Nlocal:    19652 ave 19652 max 19652 min
Histogram: 1 0 0 0 0 0 0 0 0 0
Nghost:    13688 ave 13688 max 13688 min
Histogram: 1 0 0 0 0 0 0 0 0 0
Neighs:    689546 ave 689546 max 689546 min
Histogram: 1 0 0 0 0 0 0 0 0 0

Total # of neighbors = 689546
Ave neighs/atom = 35.0878
Neighbor list builds = 505
Dangerous builds not checked
Setting up Verlet run ...
  Unit style    : metal
  Current step  : 46000
  Time step     : 0.001
Per MPI rank memory allocation (min/avg/max) = 18.2 | 18.2 | 18.2 Mbytes
Step Temp Press TotEng PotEng Enthalpy Volume 
   46000    2139.5164    11.685667   -71268.855   -76703.422   -71263.767    697547.15 
   46495    2134.7968   -618.11288    -71345.36   -76767.939   -71614.778    698343.42 
Loop time of 34.866 on 1 procs for 495 steps with 19652 atoms

Performance: 1.227 ns/day, 19.566 hours/ns, 14.197 timesteps/s
100.1% CPU use with 1 MPI tasks x no OpenMP threads

MPI task timing breakdown:
Section |  min time  |  avg time  |  max time  |%varavg| %total
---------------------------------------------------------------
Pair    | 16.911     | 16.911     | 16.911     |   0.0 | 48.50
Neigh   | 16.797     | 16.797     | 16.797     |   0.0 | 48.18
Comm    | 0.37085    | 0.37085    | 0.37085    |   0.0 |  1.06
Output  | 0.00013185 | 0.00013185 | 0.00013185 |   0.0 |  0.00
Modify  | 0.64414    | 0.64414    | 0.64414    |   0.0 |  1.85
Other   |            | 0.143      |            |       |  0.41

Nlocal:    19652 ave 19652 max 19652 min
Histogram: 1 0 0 0 0 0 0 0 0 0
Nghost:    13591 ave 13591 max 13591 min
Histogram: 1 0 0 0 0 0 0 0 0 0
Neighs:    689040 ave 689040 max 689040 min
Histogram: 1 0 0 0 0 0 0 0 0 0

Total # of neighbors = 689040
Ave neighs/atom = 35.0621
Neighbor list builds = 495
Dangerous builds not checked
Setting up Verlet run ...
  Unit style    : metal
  Current step  : 46495
  Time step     : 0.001
Per MPI rank memory allocation (min/avg/max) = 18.2 | 18.2 | 18.2 Mbytes
Step Temp Press TotEng PotEng Enthalpy Volume 
   46495    2134.7968   -618.11288    -71345.36   -76767.939   -71614.778    698343.42 
   47000    2088.5865   -221.07962    -71589.42    -76894.62   -71685.484    696181.03 
Loop time of 36.4873 on 1 procs for 505 steps with 19652 atoms

Performance: 1.196 ns/day, 20.070 hours/ns, 13.840 timesteps/s
100.1% CPU use with 1 MPI tasks x no OpenMP threads

MPI task timing breakdown:
Section |  min time  |  avg time  |  max time  |%varavg| %total
---------------------------------------------------------------
Pair    | 17.746     | 17.746     | 17.746     |   0.0 | 48.64
Neigh   | 17.491     | 17.491     | 17.491     |   0.0 | 47.94
Comm    | 0.39046    | 0.39046    | 0.39046    |   0.0 |  1.07
Output  | 0.038662   | 0.038662   | 0.038662   |   0.0 |  0.11
Modify  | 0.67278    | 0.67278    | 0.67278    |   0.0 |  1.84
Other   |            | 0.1491     |            |       |  0.41

Nlocal:    19652 ave 19652 max 19652 min
Histogram: 1 0 0 0 0 0 0 0 0 0
Nghost:    13623 ave 13623 max 13623 min
Histogram: 1 0 0 0 0 0 0 0 0 0
Neighs:    690768 ave 690768 max 690768 min
Histogram: 1 0 0 0 0 0 0 0 0 0

Total # of neighbors = 690768
Ave neighs/atom = 35.15
Neighbor list builds = 505
Dangerous builds not checked
Setting up Verlet run ...
  Unit style    : metal
  Current step  : 47000
  Time step     : 0.001
Per MPI rank memory allocation (min/avg/max) = 18.2 | 18.2 | 18.2 Mbytes
Step Temp Press TotEng PotEng Enthalpy Volume 
   47000    2088.5865   -221.07962    -71589.42    -76894.62   -71685.484    696181.03 
   47495     2065.043    -281.1479   -71741.703     -76987.1   -71863.843    696037.84 
Loop time of 35.0698 on 1 procs for 495 steps with 19652 atoms

Performance: 1.220 ns/day, 19.680 hours/ns, 14.115 timesteps/s
100.0% CPU use with 1 MPI tasks x no OpenMP threads

MPI task timing breakdown:
Section |  min time  |  avg time  |  max time  |%varavg| %total
---------------------------------------------------------------
Pair    | 17.102     | 17.102     | 17.102     |   0.0 | 48.77
Neigh   | 16.803     | 16.803     | 16.803     |   0.0 | 47.91
Comm    | 0.3728     | 0.3728     | 0.3728     |   0.0 |  1.06
Output  | 0.00013304 | 0.00013304 | 0.00013304 |   0.0 |  0.00
Modify  | 0.64529    | 0.64529    | 0.64529    |   0.0 |  1.84
Other   |            | 0.1457     |            |       |  0.42

Nlocal:    19652 ave 19652 max 19652 min
Histogram: 1 0 0 0 0 0 0 0 0 0
Nghost:    13598 ave 13598 max 13598 min
Histogram: 1 0 0 0 0 0 0 0 0 0
Neighs:    690641 ave 690641 max 690641 min
Histogram: 1 0 0 0 0 0 0 0 0 0

Total # of neighbors = 690641
Ave neighs/atom = 35.1435
Neighbor list builds = 495
Dangerous builds not checked
Setting up Verlet run ...
  Unit style    : metal
  Current step  : 47495
  Time step     : 0.001
Per MPI rank memory allocation (min/avg/max) = 18.2 | 18.2 | 18.2 Mbytes
Step Temp Press TotEng PotEng Enthalpy Volume 
   47495     2065.043    -281.1479   -71741.703     -76987.1   -71863.843    696037.84 
   48000    2039.0749    65.771815   -71861.708   -77041.144   -71833.197    694525.25 
Loop time of 36.2918 on 1 procs for 505 steps with 19652 atoms

Performance: 1.202 ns/day, 19.963 hours/ns, 13.915 timesteps/s
100.1% CPU use with 1 MPI tasks x no OpenMP threads

MPI task timing breakdown:
Section |  min time  |  avg time  |  max time  |%varavg| %total
---------------------------------------------------------------
Pair    | 17.847     | 17.847     | 17.847     |   0.0 | 49.18
Neigh   | 17.203     | 17.203     | 17.203     |   0.0 | 47.40
Comm    | 0.38287    | 0.38287    | 0.38287    |   0.0 |  1.05
Output  | 0.039166   | 0.039166   | 0.039166   |   0.0 |  0.11
Modify  | 0.66066    | 0.66066    | 0.66066    |   0.0 |  1.82
Other   |            | 0.1596     |            |       |  0.44

Nlocal:    19652 ave 19652 max 19652 min
Histogram: 1 0 0 0 0 0 0 0 0 0
Nghost:    13633 ave 13633 max 13633 min
Histogram: 1 0 0 0 0 0 0 0 0 0
Neighs:    692142 ave 692142 max 692142 min
Histogram: 1 0 0 0 0 0 0 0 0 0

Total # of neighbors = 692142
Ave neighs/atom = 35.2199
Neighbor list builds = 505
Dangerous builds not checked
Setting up Verlet run ...
  Unit style    : metal
  Current step  : 48000
  Time step     : 0.001
Per MPI rank memory allocation (min/avg/max) = 18.2 | 18.2 | 18.2 Mbytes
Step Temp Press TotEng PotEng Enthalpy Volume 
   48000    2039.0749    65.771815   -71861.708   -77041.144   -71833.197    694525.25 
   48495    2001.1738   -51.264027   -72047.518   -77130.682   -72069.716    693764.28 
Loop time of 35.4465 on 1 procs for 495 steps with 19652 atoms

Performance: 1.207 ns/day, 19.891 hours/ns, 13.965 timesteps/s
100.1% CPU use with 1 MPI tasks x no OpenMP threads

MPI task timing breakdown:
Section |  min time  |  avg time  |  max time  |%varavg| %total
---------------------------------------------------------------
Pair    | 17.427     | 17.427     | 17.427     |   0.0 | 49.16
Neigh   | 16.844     | 16.844     | 16.844     |   0.0 | 47.52
Comm    | 0.37337    | 0.37337    | 0.37337    |   0.0 |  1.05
Output  | 0.00014091 | 0.00014091 | 0.00014091 |   0.0 |  0.00
Modify  | 0.64651    | 0.64651    | 0.64651    |   0.0 |  1.82
Other   |            | 0.1557     |            |       |  0.44

Nlocal:    19652 ave 19652 max 19652 min
Histogram: 1 0 0 0 0 0 0 0 0 0
Nghost:    13635 ave 13635 max 13635 min
Histogram: 1 0 0 0 0 0 0 0 0 0
Neighs:    692330 ave 692330 max 692330 min
Histogram: 1 0 0 0 0 0 0 0 0 0

Total # of neighbors = 692330
Ave neighs/atom = 35.2295
Neighbor list builds = 495
Dangerous builds not checked
Setting up Verlet run ...
  Unit style    : metal
  Current step  : 48495
  Time step     : 0.001
Per MPI rank memory allocation (min/avg/max) = 18.2 | 18.2 | 18.2 Mbytes
Step Temp Press TotEng PotEng Enthalpy Volume 
   48495    2001.1738   -51.264027   -72047.518   -77130.682   -72069.716    693764.28 
   49000    2010.8079   -121.81405   -72154.391   -77262.026   -72207.084    693052.81 
Loop time of 36.8892 on 1 procs for 505 steps with 19652 atoms

Performance: 1.183 ns/day, 20.291 hours/ns, 13.690 timesteps/s
100.1% CPU use with 1 MPI tasks x no OpenMP threads

MPI task timing breakdown:
Section |  min time  |  avg time  |  max time  |%varavg| %total
---------------------------------------------------------------
Pair    | 18.136     | 18.136     | 18.136     |   0.0 | 49.16
Neigh   | 17.486     | 17.486     | 17.486     |   0.0 | 47.40
Comm    | 0.39245    | 0.39245    | 0.39245    |   0.0 |  1.06
Output  | 0.039217   | 0.039217   | 0.039217   |   0.0 |  0.11
Modify  | 0.67292    | 0.67292    | 0.67292    |   0.0 |  1.82
Other   |            | 0.1625     |            |       |  0.44

Nlocal:    19652 ave 19652 max 19652 min
Histogram: 1 0 0 0 0 0 0 0 0 0
Nghost:    13687 ave 13687 max 13687 min
Histogram: 1 0 0 0 0 0 0 0 0 0
Neighs:    692756 ave 692756 max 692756 min
Histogram: 1 0 0 0 0 0 0 0 0 0

Total # of neighbors = 692756
Ave neighs/atom = 35.2512
Neighbor list builds = 505
Dangerous builds not checked
Setting up Verlet run ...
  Unit style    : metal
  Current step  : 49000
  Time step     : 0.001
Per MPI rank memory allocation (min/avg/max) = 18.2 | 18.2 | 18.2 Mbytes
Step Temp Press TotEng PotEng Enthalpy Volume 
   49000    2010.8079   -121.81405   -72154.391   -77262.026   -72207.084    693052.81 
   49495    1966.8203    249.18318   -72368.883   -77364.786   -72261.249    692059.16 
Loop time of 35.5817 on 1 procs for 495 steps with 19652 atoms

Performance: 1.202 ns/day, 19.967 hours/ns, 13.912 timesteps/s
100.1% CPU use with 1 MPI tasks x no OpenMP threads

MPI task timing breakdown:
Section |  min time  |  avg time  |  max time  |%varavg| %total
---------------------------------------------------------------
Pair    | 17.545     | 17.545     | 17.545     |   0.0 | 49.31
Neigh   | 16.857     | 16.857     | 16.857     |   0.0 | 47.38
Comm    | 0.37342    | 0.37342    | 0.37342    |   0.0 |  1.05
Output  | 0.00011587 | 0.00011587 | 0.00011587 |   0.0 |  0.00
Modify  | 0.64893    | 0.64893    | 0.64893    |   0.0 |  1.82
Other   |            | 0.1571     |            |       |  0.44

Nlocal:    19652 ave 19652 max 19652 min
Histogram: 1 0 0 0 0 0 0 0 0 0
Nghost:    13552 ave 13552 max 13552 min
Histogram: 1 0 0 0 0 0 0 0 0 0
Neighs:    693735 ave 693735 max 693735 min
Histogram: 1 0 0 0 0 0 0 0 0 0

Total # of neighbors = 693735
Ave neighs/atom = 35.301
Neighbor list builds = 495
Dangerous builds not checked
Setting up Verlet run ...
  Unit style    : metal
  Current step  : 49495
  Time step     : 0.001
Per MPI rank memory allocation (min/avg/max) = 18.2 | 18.2 | 18.2 Mbytes
Step Temp Press TotEng PotEng Enthalpy Volume 
   49495    1966.8203    249.18318   -72368.883   -77364.786   -72261.249    692059.16 
   50000    1947.6628    270.13121    -72437.35   -77384.591   -72320.852    690963.03 
Loop time of 36.4134 on 1 procs for 505 steps with 19652 atoms

Performance: 1.198 ns/day, 20.029 hours/ns, 13.869 timesteps/s
100.0% CPU use with 1 MPI tasks x no OpenMP threads

MPI task timing breakdown:
Section |  min time  |  avg time  |  max time  |%varavg| %total
---------------------------------------------------------------
Pair    | 17.942     | 17.942     | 17.942     |   0.0 | 49.27
Neigh   | 17.219     | 17.219     | 17.219     |   0.0 | 47.29
Comm    | 0.3832     | 0.3832     | 0.3832     |   0.0 |  1.05
Output  | 0.04568    | 0.04568    | 0.04568    |   0.0 |  0.13
Modify  | 0.66297    | 0.66297    | 0.66297    |   0.0 |  1.82
Other   |            | 0.161      |            |       |  0.44

Nlocal:    19652 ave 19652 max 19652 min
Histogram: 1 0 0 0 0 0 0 0 0 0
Nghost:    13661 ave 13661 max 13661 min
Histogram: 1 0 0 0 0 0 0 0 0 0
Neighs:    694288 ave 694288 max 694288 min
Histogram: 1 0 0 0 0 0 0 0 0 0

Total # of neighbors = 694288
Ave neighs/atom = 35.3291
Neighbor list builds = 505
Dangerous builds not checked
Setting up Verlet run ...
  Unit style    : metal
  Current step  : 50000
  Time step     : 0.001
Per MPI rank memory allocation (min/avg/max) = 18.2 | 18.2 | 18.2 Mbytes
Step Temp Press TotEng PotEng Enthalpy Volume 
   50000    1947.6628    270.13121    -72437.35   -77384.591   -72320.852    690963.03 
   50495    1907.7483    326.02478   -72681.348   -77527.202   -72540.994    689737.85 
Loop time of 35.7546 on 1 procs for 495 steps with 19652 atoms

Performance: 1.196 ns/day, 20.064 hours/ns, 13.844 timesteps/s
99.9% CPU use with 1 MPI tasks x no OpenMP threads

MPI task timing breakdown:
Section |  min time  |  avg time  |  max time  |%varavg| %total
---------------------------------------------------------------
Pair    | 17.644     | 17.644     | 17.644     |   0.0 | 49.35
Neigh   | 16.918     | 16.918     | 16.918     |   0.0 | 47.32
Comm    | 0.37814    | 0.37814    | 0.37814    |   0.0 |  1.06
Output  | 0.00011587 | 0.00011587 | 0.00011587 |   0.0 |  0.00
Modify  | 0.65389    | 0.65389    | 0.65389    |   0.0 |  1.83
Other   |            | 0.1602     |            |       |  0.45

Nlocal:    19652 ave 19652 max 19652 min
Histogram: 1 0 0 0 0 0 0 0 0 0
Nghost:    13622 ave 13622 max 13622 min
Histogram: 1 0 0 0 0 0 0 0 0 0
Neighs:    695445 ave 695445 max 695445 min
Histogram: 1 0 0 0 0 0 0 0 0 0

Total # of neighbors = 695445
Ave neighs/atom = 35.388
Neighbor list builds = 495
Dangerous builds not checked
Setting up Verlet run ...
  Unit style    : metal
  Current step  : 50495
  Time step     : 0.001
Per MPI rank memory allocation (min/avg/max) = 18.2 | 18.2 | 18.2 Mbytes
Step Temp Press TotEng PotEng Enthalpy Volume 
   50495    1907.7483    326.02478   -72681.348   -77527.202   -72540.994    689737.85 
   51000    1894.2851    562.25844   -72789.841   -77601.498   -72548.092    688874.28 
Loop time of 36.4845 on 1 procs for 505 steps with 19652 atoms

Performance: 1.196 ns/day, 20.068 hours/ns, 13.841 timesteps/s
100.0% CPU use with 1 MPI tasks x no OpenMP threads

MPI task timing breakdown:
Section |  min time  |  avg time  |  max time  |%varavg| %total
---------------------------------------------------------------
Pair    | 17.769     | 17.769     | 17.769     |   0.0 | 48.70
Neigh   | 17.459     | 17.459     | 17.459     |   0.0 | 47.85
Comm    | 0.39356    | 0.39356    | 0.39356    |   0.0 |  1.08
Output  | 0.040203   | 0.040203   | 0.040203   |   0.0 |  0.11
Modify  | 0.6721     | 0.6721     | 0.6721     |   0.0 |  1.84
Other   |            | 0.1511     |            |       |  0.41

Nlocal:    19652 ave 19652 max 19652 min
Histogram: 1 0 0 0 0 0 0 0 0 0
Nghost:    13635 ave 13635 max 13635 min
Histogram: 1 0 0 0 0 0 0 0 0 0
Neighs:    696040 ave 696040 max 696040 min
Histogram: 1 0 0 0 0 0 0 0 0 0

Total # of neighbors = 696040
Ave neighs/atom = 35.4183
Neighbor list builds = 505
Dangerous builds not checked
Setting up Verlet run ...
  Unit style    : metal
  Current step  : 51000
  Time step     : 0.001
Per MPI rank memory allocation (min/avg/max) = 18.2 | 18.2 | 18.2 Mbytes
Step Temp Press TotEng PotEng Enthalpy Volume 
   51000    1894.2851    562.25844   -72789.841   -77601.498   -72548.092    688874.28 
   51495    1856.6109    524.01189   -72981.174   -77697.135   -72756.163    687975.34 
Loop time of 36.2621 on 1 procs for 495 steps with 19652 atoms

Performance: 1.179 ns/day, 20.349 hours/ns, 13.651 timesteps/s
100.0% CPU use with 1 MPI tasks x no OpenMP threads

MPI task timing breakdown:
Section |  min time  |  avg time  |  max time  |%varavg| %total
---------------------------------------------------------------
Pair    | 17.738     | 17.738     | 17.738     |   0.0 | 48.92
Neigh   | 17.312     | 17.312     | 17.312     |   0.0 | 47.74
Comm    | 0.38944    | 0.38944    | 0.38944    |   0.0 |  1.07
Output  | 0.00013781 | 0.00013781 | 0.00013781 |   0.0 |  0.00
Modify  | 0.66868    | 0.66868    | 0.66868    |   0.0 |  1.84
Other   |            | 0.1536     |            |       |  0.42

Nlocal:    19652 ave 19652 max 19652 min
Histogram: 1 0 0 0 0 0 0 0 0 0
Nghost:    13678 ave 13678 max 13678 min
Histogram: 1 0 0 0 0 0 0 0 0 0
Neighs:    696687 ave 696687 max 696687 min
Histogram: 1 0 0 0 0 0 0 0 0 0

Total # of neighbors = 696687
Ave neighs/atom = 35.4512
Neighbor list builds = 495
Dangerous builds not checked
Setting up Verlet run ...
  Unit style    : metal
  Current step  : 51495
  Time step     : 0.001
Per MPI rank memory allocation (min/avg/max) = 18.2 | 18.2 | 18.2 Mbytes
Step Temp Press TotEng PotEng Enthalpy Volume 
   51495    1856.6109    524.01189   -72981.174   -77697.135   -72756.163    687975.34 
   52000    1844.2192    715.27853   -73072.146   -77756.631   -72765.353    687196.62 
Loop time of 36.4099 on 1 procs for 505 steps with 19652 atoms

Performance: 1.198 ns/day, 20.027 hours/ns, 13.870 timesteps/s
100.1% CPU use with 1 MPI tasks x no OpenMP threads

MPI task timing breakdown:
Section |  min time  |  avg time  |  max time  |%varavg| %total
---------------------------------------------------------------
Pair    | 17.947     | 17.947     | 17.947     |   0.0 | 49.29
Neigh   | 17.206     | 17.206     | 17.206     |   0.0 | 47.26
Comm    | 0.38862    | 0.38862    | 0.38862    |   0.0 |  1.07
Output  | 0.039182   | 0.039182   | 0.039182   |   0.0 |  0.11
Modify  | 0.66707    | 0.66707    | 0.66707    |   0.0 |  1.83
Other   |            | 0.1627     |            |       |  0.45

Nlocal:    19652 ave 19652 max 19652 min
Histogram: 1 0 0 0 0 0 0 0 0 0
Nghost:    13679 ave 13679 max 13679 min
Histogram: 1 0 0 0 0 0 0 0 0 0
Neighs:    697414 ave 697414 max 697414 min
Histogram: 1 0 0 0 0 0 0 0 0 0

Total # of neighbors = 697414
Ave neighs/atom = 35.4882
Neighbor list builds = 505
Dangerous builds not checked
Setting up Verlet run ...
  Unit style    : metal
  Current step  : 52000
  Time step     : 0.001
Per MPI rank memory allocation (min/avg/max) = 18.2 | 18.2 | 18.2 Mbytes
Step Temp Press TotEng PotEng Enthalpy Volume 
   52000    1844.2192    715.27853   -73072.146   -77756.631   -72765.353    687196.62 
   52495    1808.3655    514.96563   -73283.284   -77876.697   -73062.629    686509.15 
Loop time of 35.4847 on 1 procs for 495 steps with 19652 atoms

Performance: 1.205 ns/day, 19.913 hours/ns, 13.950 timesteps/s
100.1% CPU use with 1 MPI tasks x no OpenMP threads

MPI task timing breakdown:
Section |  min time  |  avg time  |  max time  |%varavg| %total
---------------------------------------------------------------
Pair    | 17.459     | 17.459     | 17.459     |   0.0 | 49.20
Neigh   | 16.842     | 16.842     | 16.842     |   0.0 | 47.46
Comm    | 0.37668    | 0.37668    | 0.37668    |   0.0 |  1.06
Output  | 0.00012803 | 0.00012803 | 0.00012803 |   0.0 |  0.00
Modify  | 0.65091    | 0.65091    | 0.65091    |   0.0 |  1.83
Other   |            | 0.1561     |            |       |  0.44

Nlocal:    19652 ave 19652 max 19652 min
Histogram: 1 0 0 0 0 0 0 0 0 0
Nghost:    13719 ave 13719 max 13719 min
Histogram: 1 0 0 0 0 0 0 0 0 0
Neighs:    697474 ave 697474 max 697474 min
Histogram: 1 0 0 0 0 0 0 0 0 0

Total # of neighbors = 697474
Ave neighs/atom = 35.4912
Neighbor list builds = 495
Dangerous builds not checked
Setting up Verlet run ...
  Unit style    : metal
  Current step  : 52495
  Time step     : 0.001
Per MPI rank memory allocation (min/avg/max) = 18.2 | 18.2 | 18.2 Mbytes
Step Temp Press TotEng PotEng Enthalpy Volume 
   52495    1808.3655    514.96563   -73283.284   -77876.697   -73062.629    686509.15 
   53000     1786.499    581.83445   -73435.082   -77972.952   -73185.894    686179.14 
Loop time of 36.6511 on 1 procs for 505 steps with 19652 atoms

Performance: 1.190 ns/day, 20.160 hours/ns, 13.779 timesteps/s
99.5% CPU use with 1 MPI tasks x no OpenMP threads

MPI task timing breakdown:
Section |  min time  |  avg time  |  max time  |%varavg| %total
---------------------------------------------------------------
Pair    | 17.796     | 17.796     | 17.796     |   0.0 | 48.56
Neigh   | 17.444     | 17.444     | 17.444     |   0.0 | 47.59
Comm    | 0.38944    | 0.38944    | 0.38944    |   0.0 |  1.06
Output  | 0.20215    | 0.20215    | 0.20215    |   0.0 |  0.55
Modify  | 0.66966    | 0.66966    | 0.66966    |   0.0 |  1.83
Other   |            | 0.1495     |            |       |  0.41

Nlocal:    19652 ave 19652 max 19652 min
Histogram: 1 0 0 0 0 0 0 0 0 0
Nghost:    13698 ave 13698 max 13698 min
Histogram: 1 0 0 0 0 0 0 0 0 0
Neighs:    697430 ave 697430 max 697430 min
Histogram: 1 0 0 0 0 0 0 0 0 0

Total # of neighbors = 697430
Ave neighs/atom = 35.489
Neighbor list builds = 505
Dangerous builds not checked
Setting up Verlet run ...
  Unit style    : metal
  Current step  : 53000
  Time step     : 0.001
Per MPI rank memory allocation (min/avg/max) = 18.2 | 18.2 | 18.2 Mbytes
Step Temp Press TotEng PotEng Enthalpy Volume 
   53000     1786.499    581.83445   -73435.082   -77972.952   -73185.894    686179.14 
   53495    1755.2646    615.93276   -73634.057   -78092.589   -73370.862    684627.86 
Loop time of 36.9628 on 1 procs for 495 steps with 19652 atoms

Performance: 1.157 ns/day, 20.742 hours/ns, 13.392 timesteps/s
99.8% CPU use with 1 MPI tasks x no OpenMP threads

MPI task timing breakdown:
Section |  min time  |  avg time  |  max time  |%varavg| %total
---------------------------------------------------------------
Pair    | 18.047     | 18.047     | 18.047     |   0.0 | 48.82
Neigh   | 17.669     | 17.669     | 17.669     |   0.0 | 47.80
Comm    | 0.40458    | 0.40458    | 0.40458    |   0.0 |  1.09
Output  | 0.00013995 | 0.00013995 | 0.00013995 |   0.0 |  0.00
Modify  | 0.68702    | 0.68702    | 0.68702    |   0.0 |  1.86
Other   |            | 0.1548     |            |       |  0.42

Nlocal:    19652 ave 19652 max 19652 min
Histogram: 1 0 0 0 0 0 0 0 0 0
Nghost:    13657 ave 13657 max 13657 min
Histogram: 1 0 0 0 0 0 0 0 0 0
Neighs:    698706 ave 698706 max 698706 min
Histogram: 1 0 0 0 0 0 0 0 0 0

Total # of neighbors = 698706
Ave neighs/atom = 35.5539
Neighbor list builds = 495
Dangerous builds not checked
Setting up Verlet run ...
  Unit style    : metal
  Current step  : 53495
  Time step     : 0.001
Per MPI rank memory allocation (min/avg/max) = 18.2 | 18.2 | 18.2 Mbytes
Step Temp Press TotEng PotEng Enthalpy Volume 
   53495    1755.2646    615.93276   -73634.057   -78092.589   -73370.862    684627.86 
   54000    1751.6434    723.86647   -73716.195   -78165.529   -73407.251    683804.69 
Loop time of 36.9462 on 1 procs for 505 steps with 19652 atoms

Performance: 1.181 ns/day, 20.322 hours/ns, 13.669 timesteps/s
100.1% CPU use with 1 MPI tasks x no OpenMP threads

MPI task timing breakdown:
Section |  min time  |  avg time  |  max time  |%varavg| %total
---------------------------------------------------------------
Pair    | 18.076     | 18.076     | 18.076     |   0.0 | 48.93
Neigh   | 17.592     | 17.592     | 17.592     |   0.0 | 47.61
Comm    | 0.40319    | 0.40319    | 0.40319    |   0.0 |  1.09
Output  | 0.038786   | 0.038786   | 0.038786   |   0.0 |  0.10
Modify  | 0.68099    | 0.68099    | 0.68099    |   0.0 |  1.84
Other   |            | 0.1553     |            |       |  0.42

Nlocal:    19652 ave 19652 max 19652 min
Histogram: 1 0 0 0 0 0 0 0 0 0
Nghost:    13754 ave 13754 max 13754 min
Histogram: 1 0 0 0 0 0 0 0 0 0
Neighs:    699148 ave 699148 max 699148 min
Histogram: 1 0 0 0 0 0 0 0 0 0

Total # of neighbors = 699148
Ave neighs/atom = 35.5764
Neighbor list builds = 505
Dangerous builds not checked
Setting up Verlet run ...
  Unit style    : metal
  Current step  : 54000
  Time step     : 0.001
Per MPI rank memory allocation (min/avg/max) = 18.2 | 18.2 | 18.2 Mbytes
Step Temp Press TotEng PotEng Enthalpy Volume 
   54000    1751.6434    723.86647   -73716.195   -78165.529   -73407.251    683804.69 
   54495    1704.9103    896.94719   -73945.519   -78276.146   -73563.268    682797.49 
Loop time of 35.6849 on 1 procs for 495 steps with 19652 atoms

Performance: 1.198 ns/day, 20.025 hours/ns, 13.871 timesteps/s
100.0% CPU use with 1 MPI tasks x no OpenMP threads

MPI task timing breakdown:
Section |  min time  |  avg time  |  max time  |%varavg| %total
---------------------------------------------------------------
Pair    | 17.647     | 17.647     | 17.647     |   0.0 | 49.45
Neigh   | 16.851     | 16.851     | 16.851     |   0.0 | 47.22
Comm    | 0.37835    | 0.37835    | 0.37835    |   0.0 |  1.06
Output  | 0.00013494 | 0.00013494 | 0.00013494 |   0.0 |  0.00
Modify  | 0.65144    | 0.65144    | 0.65144    |   0.0 |  1.83
Other   |            | 0.1568     |            |       |  0.44

Nlocal:    19652 ave 19652 max 19652 min
Histogram: 1 0 0 0 0 0 0 0 0 0
Nghost:    13706 ave 13706 max 13706 min
Histogram: 1 0 0 0 0 0 0 0 0 0
Neighs:    699633 ave 699633 max 699633 min
Histogram: 1 0 0 0 0 0 0 0 0 0

Total # of neighbors = 699633
Ave neighs/atom = 35.6011
Neighbor list builds = 495
Dangerous builds not checked
Setting up Verlet run ...
  Unit style    : metal
  Current step  : 54495
  Time step     : 0.001
Per MPI rank memory allocation (min/avg/max) = 18.2 | 18.2 | 18.2 Mbytes
Step Temp Press TotEng PotEng Enthalpy Volume 
   54495    1704.9103    896.94719   -73945.519   -78276.146   -73563.268    682797.49 
   55000    1701.4394    917.96572   -74093.455   -78415.266   -73702.588    682201.04 
Loop time of 36.1284 on 1 procs for 505 steps with 19652 atoms

Performance: 1.208 ns/day, 19.873 hours/ns, 13.978 timesteps/s
100.1% CPU use with 1 MPI tasks x no OpenMP threads

MPI task timing breakdown:
Section |  min time  |  avg time  |  max time  |%varavg| %total
---------------------------------------------------------------
Pair    | 17.746     | 17.746     | 17.746     |   0.0 | 49.12
Neigh   | 17.152     | 17.152     | 17.152     |   0.0 | 47.47
Comm    | 0.38124    | 0.38124    | 0.38124    |   0.0 |  1.06
Output  | 0.038322   | 0.038322   | 0.038322   |   0.0 |  0.11
Modify  | 0.66041    | 0.66041    | 0.66041    |   0.0 |  1.83
Other   |            | 0.1507     |            |       |  0.42

Nlocal:    19652 ave 19652 max 19652 min
Histogram: 1 0 0 0 0 0 0 0 0 0
Nghost:    13715 ave 13715 max 13715 min
Histogram: 1 0 0 0 0 0 0 0 0 0
Neighs:    700009 ave 700009 max 700009 min
Histogram: 1 0 0 0 0 0 0 0 0 0

Total # of neighbors = 700009
Ave neighs/atom = 35.6202
Neighbor list builds = 505
Dangerous builds not checked
Setting up Verlet run ...
  Unit style    : metal
  Current step  : 55000
  Time step     : 0.001
Per MPI rank memory allocation (min/avg/max) = 18.2 | 18.2 | 18.2 Mbytes
Step Temp Press TotEng PotEng Enthalpy Volume 
   55000    1701.4394    917.96572   -74093.455   -78415.266   -73702.588    682201.04 
   55495    1664.9829    1250.0478   -74299.162    -78528.37   -73768.323     680371.8 
Loop time of 35.7386 on 1 procs for 495 steps with 19652 atoms

Performance: 1.197 ns/day, 20.055 hours/ns, 13.851 timesteps/s
100.1% CPU use with 1 MPI tasks x no OpenMP threads

MPI task timing breakdown:
Section |  min time  |  avg time  |  max time  |%varavg| %total
---------------------------------------------------------------
Pair    | 17.689     | 17.689     | 17.689     |   0.0 | 49.50
Neigh   | 16.868     | 16.868     | 16.868     |   0.0 | 47.20
Comm    | 0.37671    | 0.37671    | 0.37671    |   0.0 |  1.05
Output  | 0.0001359  | 0.0001359  | 0.0001359  |   0.0 |  0.00
Modify  | 0.64959    | 0.64959    | 0.64959    |   0.0 |  1.82
Other   |            | 0.155      |            |       |  0.43

Nlocal:    19652 ave 19652 max 19652 min
Histogram: 1 0 0 0 0 0 0 0 0 0
Nghost:    13779 ave 13779 max 13779 min
Histogram: 1 0 0 0 0 0 0 0 0 0
Neighs:    701874 ave 701874 max 701874 min
Histogram: 1 0 0 0 0 0 0 0 0 0

Total # of neighbors = 701874
Ave neighs/atom = 35.7151
Neighbor list builds = 495
Dangerous builds not checked
Setting up Verlet run ...
  Unit style    : metal
  Current step  : 55495
  Time step     : 0.001
Per MPI rank memory allocation (min/avg/max) = 18.2 | 18.2 | 18.2 Mbytes
Step Temp Press TotEng PotEng Enthalpy Volume 
   55495    1664.9829    1250.0478   -74299.162    -78528.37   -73768.323     680371.8 
   56000    1650.4519     879.7538   -74380.888   -78573.186   -74007.126    680680.92 
Loop time of 36.7181 on 1 procs for 505 steps with 19652 atoms

Performance: 1.188 ns/day, 20.197 hours/ns, 13.753 timesteps/s
100.1% CPU use with 1 MPI tasks x no OpenMP threads

MPI task timing breakdown:
Section |  min time  |  avg time  |  max time  |%varavg| %total
---------------------------------------------------------------
Pair    | 18.217     | 18.217     | 18.217     |   0.0 | 49.61
Neigh   | 17.244     | 17.244     | 17.244     |   0.0 | 46.96
Comm    | 0.38827    | 0.38827    | 0.38827    |   0.0 |  1.06
Output  | 0.039063   | 0.039063   | 0.039063   |   0.0 |  0.11
Modify  | 0.66721    | 0.66721    | 0.66721    |   0.0 |  1.82
Other   |            | 0.1628     |            |       |  0.44

Nlocal:    19652 ave 19652 max 19652 min
Histogram: 1 0 0 0 0 0 0 0 0 0
Nghost:    13725 ave 13725 max 13725 min
Histogram: 1 0 0 0 0 0 0 0 0 0
Neighs:    700671 ave 700671 max 700671 min
Histogram: 1 0 0 0 0 0 0 0 0 0

Total # of neighbors = 700671
Ave neighs/atom = 35.6539
Neighbor list builds = 505
Dangerous builds not checked
Setting up Verlet run ...
  Unit style    : metal
  Current step  : 56000
  Time step     : 0.001
Per MPI rank memory allocation (min/avg/max) = 18.2 | 18.2 | 18.2 Mbytes
Step Temp Press TotEng PotEng Enthalpy Volume 
   56000    1650.4519     879.7538   -74380.888   -78573.186   -74007.126    680680.92 
   56495    1612.9037    807.81248     -74600.6   -78697.522   -74257.958    679579.72 
Loop time of 35.98 on 1 procs for 495 steps with 19652 atoms

Performance: 1.189 ns/day, 20.191 hours/ns, 13.758 timesteps/s
100.1% CPU use with 1 MPI tasks x no OpenMP threads

MPI task timing breakdown:
Section |  min time  |  avg time  |  max time  |%varavg| %total
---------------------------------------------------------------
Pair    | 17.889     | 17.889     | 17.889     |   0.0 | 49.72
Neigh   | 16.9       | 16.9       | 16.9       |   0.0 | 46.97
Comm    | 0.37903    | 0.37903    | 0.37903    |   0.0 |  1.05
Output  | 0.0001359  | 0.0001359  | 0.0001359  |   0.0 |  0.00
Modify  | 0.65309    | 0.65309    | 0.65309    |   0.0 |  1.82
Other   |            | 0.1593     |            |       |  0.44

Nlocal:    19652 ave 19652 max 19652 min
Histogram: 1 0 0 0 0 0 0 0 0 0
Nghost:    13703 ave 13703 max 13703 min
Histogram: 1 0 0 0 0 0 0 0 0 0
Neighs:    701848 ave 701848 max 701848 min
Histogram: 1 0 0 0 0 0 0 0 0 0

Total # of neighbors = 701848
Ave neighs/atom = 35.7138
Neighbor list builds = 495
Dangerous builds not checked
Setting up Verlet run ...
  Unit style    : metal
  Current step  : 56495
  Time step     : 0.001
Per MPI rank memory allocation (min/avg/max) = 18.2 | 18.2 | 18.2 Mbytes
Step Temp Press TotEng PotEng Enthalpy Volume 
   56495    1612.9037    807.81248     -74600.6   -78697.522   -74257.958    679579.72 
   57000    1595.5913    620.14121    -74674.59   -78727.537   -74411.675    679259.08 
Loop time of 37.281 on 1 procs for 505 steps with 19652 atoms

Performance: 1.170 ns/day, 20.507 hours/ns, 13.546 timesteps/s
100.0% CPU use with 1 MPI tasks x no OpenMP threads

MPI task timing breakdown:
Section |  min time  |  avg time  |  max time  |%varavg| %total
---------------------------------------------------------------
Pair    | 18.478     | 18.478     | 18.478     |   0.0 | 49.57
Neigh   | 17.525     | 17.525     | 17.525     |   0.0 | 47.01
Comm    | 0.39531    | 0.39531    | 0.39531    |   0.0 |  1.06
Output  | 0.038303   | 0.038303   | 0.038303   |   0.0 |  0.10
Modify  | 0.67871    | 0.67871    | 0.67871    |   0.0 |  1.82
Other   |            | 0.1651     |            |       |  0.44

Nlocal:    19652 ave 19652 max 19652 min
Histogram: 1 0 0 0 0 0 0 0 0 0
Nghost:    13771 ave 13771 max 13771 min
Histogram: 1 0 0 0 0 0 0 0 0 0
Neighs:    701791 ave 701791 max 701791 min
Histogram: 1 0 0 0 0 0 0 0 0 0

Total # of neighbors = 701791
Ave neighs/atom = 35.7109
Neighbor list builds = 505
Dangerous builds not checked
Setting up Verlet run ...
  Unit style    : metal
  Current step  : 57000
  Time step     : 0.001
Per MPI rank memory allocation (min/avg/max) = 18.2 | 18.2 | 18.2 Mbytes
Step Temp Press TotEng PotEng Enthalpy Volume 
   57000    1595.5913    620.14121    -74674.59   -78727.537   -74411.675    679259.08 
   57495    1551.9646    584.56944   -74910.523   -78852.654    -74662.97    678487.82 
Loop time of 35.6261 on 1 procs for 495 steps with 19652 atoms

Performance: 1.200 ns/day, 19.992 hours/ns, 13.894 timesteps/s
100.1% CPU use with 1 MPI tasks x no OpenMP threads

MPI task timing breakdown:
Section |  min time  |  avg time  |  max time  |%varavg| %total
---------------------------------------------------------------
Pair    | 17.48      | 17.48      | 17.48      |   0.0 | 49.06
Neigh   | 16.976     | 16.976     | 16.976     |   0.0 | 47.65
Comm    | 0.37413    | 0.37413    | 0.37413    |   0.0 |  1.05
Output  | 0.00012708 | 0.00012708 | 0.00012708 |   0.0 |  0.00
Modify  | 0.65164    | 0.65164    | 0.65164    |   0.0 |  1.83
Other   |            | 0.1442     |            |       |  0.40

Nlocal:    19652 ave 19652 max 19652 min
Histogram: 1 0 0 0 0 0 0 0 0 0
Nghost:    13723 ave 13723 max 13723 min
Histogram: 1 0 0 0 0 0 0 0 0 0
Neighs:    701949 ave 701949 max 701949 min
Histogram: 1 0 0 0 0 0 0 0 0 0

Total # of neighbors = 701949
Ave neighs/atom = 35.719
Neighbor list builds = 495
Dangerous builds not checked
Setting up Verlet run ...
  Unit style    : metal
  Current step  : 57495
  Time step     : 0.001
Per MPI rank memory allocation (min/avg/max) = 18.2 | 18.2 | 18.2 Mbytes
Step Temp Press TotEng PotEng Enthalpy Volume 
   57495    1551.9646    584.56944   -74910.523   -78852.654    -74662.97    678487.82 
   58000    1565.2137    639.06883   -74994.084   -78969.869   -74723.572    678185.05 
Loop time of 35.9479 on 1 procs for 505 steps with 19652 atoms

Performance: 1.214 ns/day, 19.773 hours/ns, 14.048 timesteps/s
100.1% CPU use with 1 MPI tasks x no OpenMP threads

MPI task timing breakdown:
Section |  min time  |  avg time  |  max time  |%varavg| %total
---------------------------------------------------------------
Pair    | 17.629     | 17.629     | 17.629     |   0.0 | 49.04
Neigh   | 17.102     | 17.102     | 17.102     |   0.0 | 47.57
Comm    | 0.37787    | 0.37787    | 0.37787    |   0.0 |  1.05
Output  | 0.038383   | 0.038383   | 0.038383   |   0.0 |  0.11
Modify  | 0.65604    | 0.65604    | 0.65604    |   0.0 |  1.82
Other   |            | 0.1448     |            |       |  0.40

Nlocal:    19652 ave 19652 max 19652 min
Histogram: 1 0 0 0 0 0 0 0 0 0
Nghost:    13757 ave 13757 max 13757 min
Histogram: 1 0 0 0 0 0 0 0 0 0
Neighs:    702196 ave 702196 max 702196 min
Histogram: 1 0 0 0 0 0 0 0 0 0

Total # of neighbors = 702196
Ave neighs/atom = 35.7315
Neighbor list builds = 505
Dangerous builds not checked
Setting up Verlet run ...
  Unit style    : metal
  Current step  : 58000
  Time step     : 0.001
Per MPI rank memory allocation (min/avg/max) = 18.2 | 18.2 | 18.2 Mbytes
Step Temp Press TotEng PotEng Enthalpy Volume 
   58000    1565.2137    639.06883   -74994.084   -78969.869   -74723.572    678185.05 
   58495    1528.3938    262.46216   -75195.923   -79078.183   -75084.898    677746.64 
Loop time of 35.138 on 1 procs for 495 steps with 19652 atoms

Performance: 1.217 ns/day, 19.718 hours/ns, 14.087 timesteps/s
100.1% CPU use with 1 MPI tasks x no OpenMP threads

MPI task timing breakdown:
Section |  min time  |  avg time  |  max time  |%varavg| %total
---------------------------------------------------------------
Pair    | 17.257     | 17.257     | 17.257     |   0.0 | 49.11
Neigh   | 16.728     | 16.728     | 16.728     |   0.0 | 47.61
Comm    | 0.36845    | 0.36845    | 0.36845    |   0.0 |  1.05
Output  | 0.00012803 | 0.00012803 | 0.00012803 |   0.0 |  0.00
Modify  | 0.64275    | 0.64275    | 0.64275    |   0.0 |  1.83
Other   |            | 0.142      |            |       |  0.40

Nlocal:    19652 ave 19652 max 19652 min
Histogram: 1 0 0 0 0 0 0 0 0 0
Nghost:    13702 ave 13702 max 13702 min
Histogram: 1 0 0 0 0 0 0 0 0 0
Neighs:    702033 ave 702033 max 702033 min
Histogram: 1 0 0 0 0 0 0 0 0 0

Total # of neighbors = 702033
Ave neighs/atom = 35.7232
Neighbor list builds = 495
Dangerous builds not checked
Setting up Verlet run ...
  Unit style    : metal
  Current step  : 58495
  Time step     : 0.001
Per MPI rank memory allocation (min/avg/max) = 18.2 | 18.2 | 18.2 Mbytes
Step Temp Press TotEng PotEng Enthalpy Volume 
   58495    1528.3938    262.46216   -75195.923   -79078.183   -75084.898    677746.64 
   59000    1496.3258    175.25554   -75385.828   -79186.631    -75311.74    677302.63 
Loop time of 36.0038 on 1 procs for 505 steps with 19652 atoms

Performance: 1.212 ns/day, 19.804 hours/ns, 14.026 timesteps/s
100.1% CPU use with 1 MPI tasks x no OpenMP threads

MPI task timing breakdown:
Section |  min time  |  avg time  |  max time  |%varavg| %total
---------------------------------------------------------------
Pair    | 17.699     | 17.699     | 17.699     |   0.0 | 49.16
Neigh   | 17.087     | 17.087     | 17.087     |   0.0 | 47.46
Comm    | 0.37803    | 0.37803    | 0.37803    |   0.0 |  1.05
Output  | 0.038376   | 0.038376   | 0.038376   |   0.0 |  0.11
Modify  | 0.65606    | 0.65606    | 0.65606    |   0.0 |  1.82
Other   |            | 0.1452     |            |       |  0.40

Nlocal:    19652 ave 19652 max 19652 min
Histogram: 1 0 0 0 0 0 0 0 0 0
Nghost:    13803 ave 13803 max 13803 min
Histogram: 1 0 0 0 0 0 0 0 0 0
Neighs:    702342 ave 702342 max 702342 min
Histogram: 1 0 0 0 0 0 0 0 0 0

Total # of neighbors = 702342
Ave neighs/atom = 35.739
Neighbor list builds = 505
Dangerous builds not checked
Setting up Verlet run ...
  Unit style    : metal
  Current step  : 59000
  Time step     : 0.001
Per MPI rank memory allocation (min/avg/max) = 18.2 | 18.2 | 18.2 Mbytes
Step Temp Press TotEng PotEng Enthalpy Volume 
   59000    1496.3258    175.25554   -75385.828   -79186.631    -75311.74    677302.63 
   59495     1467.869    223.65713   -75521.087   -79249.608   -75426.674    676328.31 
Loop time of 35.3274 on 1 procs for 495 steps with 19652 atoms

Performance: 1.211 ns/day, 19.825 hours/ns, 14.012 timesteps/s
100.1% CPU use with 1 MPI tasks x no OpenMP threads

MPI task timing breakdown:
Section |  min time  |  avg time  |  max time  |%varavg| %total
---------------------------------------------------------------
Pair    | 17.367     | 17.367     | 17.367     |   0.0 | 49.16
Neigh   | 16.803     | 16.803     | 16.803     |   0.0 | 47.56
Comm    | 0.37055    | 0.37055    | 0.37055    |   0.0 |  1.05
Output  | 0.00012779 | 0.00012779 | 0.00012779 |   0.0 |  0.00
Modify  | 0.64437    | 0.64437    | 0.64437    |   0.0 |  1.82
Other   |            | 0.1425     |            |       |  0.40

Nlocal:    19652 ave 19652 max 19652 min
Histogram: 1 0 0 0 0 0 0 0 0 0
Nghost:    13752 ave 13752 max 13752 min
Histogram: 1 0 0 0 0 0 0 0 0 0
Neighs:    703048 ave 703048 max 703048 min
Histogram: 1 0 0 0 0 0 0 0 0 0

Total # of neighbors = 703048
Ave neighs/atom = 35.7749
Neighbor list builds = 495
Dangerous builds not checked
Setting up Verlet run ...
  Unit style    : metal
  Current step  : 59495
  Time step     : 0.001
Per MPI rank memory allocation (min/avg/max) = 18.2 | 18.2 | 18.2 Mbytes
Step Temp Press TotEng PotEng Enthalpy Volume 
   59495     1467.869    223.65713   -75521.087   -79249.608   -75426.674    676328.31 
   60000    1449.0113    293.39913    -75744.94   -79425.561   -75621.245    675471.13 
Loop time of 36.1756 on 1 procs for 505 steps with 19652 atoms

Performance: 1.206 ns/day, 19.899 hours/ns, 13.960 timesteps/s
100.1% CPU use with 1 MPI tasks x no OpenMP threads

MPI task timing breakdown:
Section |  min time  |  avg time  |  max time  |%varavg| %total
---------------------------------------------------------------
Pair    | 17.842     | 17.842     | 17.842     |   0.0 | 49.32
Neigh   | 17.111     | 17.111     | 17.111     |   0.0 | 47.30
Comm    | 0.37831    | 0.37831    | 0.37831    |   0.0 |  1.05
Output  | 0.039051   | 0.039051   | 0.039051   |   0.0 |  0.11
Modify  | 0.65686    | 0.65686    | 0.65686    |   0.0 |  1.82
Other   |            | 0.148      |            |       |  0.41

Nlocal:    19652 ave 19652 max 19652 min
Histogram: 1 0 0 0 0 0 0 0 0 0
Nghost:    13812 ave 13812 max 13812 min
Histogram: 1 0 0 0 0 0 0 0 0 0
Neighs:    702723 ave 702723 max 702723 min
Histogram: 1 0 0 0 0 0 0 0 0 0

Total # of neighbors = 702723
Ave neighs/atom = 35.7583
Neighbor list builds = 505
Dangerous builds not checked
Setting up Verlet run ...
  Unit style    : metal
  Current step  : 60000
  Time step     : 0.001
Per MPI rank memory allocation (min/avg/max) = 18.2 | 18.2 | 18.2 Mbytes
Step Temp Press TotEng PotEng Enthalpy Volume 
   60000    1449.0113    293.39913    -75744.94   -79425.561   -75621.245    675471.13 
   60495    1422.5467     627.5625   -75914.637   -79528.035   -75650.526    674279.22 
Loop time of 35.8566 on 1 procs for 495 steps with 19652 atoms

Performance: 1.193 ns/day, 20.122 hours/ns, 13.805 timesteps/s
100.1% CPU use with 1 MPI tasks x no OpenMP threads

MPI task timing breakdown:
Section |  min time  |  avg time  |  max time  |%varavg| %total
---------------------------------------------------------------
Pair    | 17.848     | 17.848     | 17.848     |   0.0 | 49.78
Neigh   | 16.821     | 16.821     | 16.821     |   0.0 | 46.91
Comm    | 0.37698    | 0.37698    | 0.37698    |   0.0 |  1.05
Output  | 0.00013804 | 0.00013804 | 0.00013804 |   0.0 |  0.00
Modify  | 0.65165    | 0.65165    | 0.65165    |   0.0 |  1.82
Other   |            | 0.1585     |            |       |  0.44

Nlocal:    19652 ave 19652 max 19652 min
Histogram: 1 0 0 0 0 0 0 0 0 0
Nghost:    13791 ave 13791 max 13791 min
Histogram: 1 0 0 0 0 0 0 0 0 0
Neighs:    703615 ave 703615 max 703615 min
Histogram: 1 0 0 0 0 0 0 0 0 0

Total # of neighbors = 703615
Ave neighs/atom = 35.8037
Neighbor list builds = 495
Dangerous builds not checked
Setting up Verlet run ...
  Unit style    : metal
  Current step  : 60495
  Time step     : 0.001
Per MPI rank memory allocation (min/avg/max) = 18.2 | 18.2 | 18.2 Mbytes
Step Temp Press TotEng PotEng Enthalpy Volume 
   60495    1422.5467     627.5625   -75914.637   -79528.035   -75650.526    674279.22 
   61000    1379.4229    431.90067   -76093.248   -79597.108   -75911.634     673713.1 
Loop time of 36.4978 on 1 procs for 505 steps with 19652 atoms

Performance: 1.195 ns/day, 20.076 hours/ns, 13.836 timesteps/s
100.1% CPU use with 1 MPI tasks x no OpenMP threads

MPI task timing breakdown:
Section |  min time  |  avg time  |  max time  |%varavg| %total
---------------------------------------------------------------
Pair    | 18.129     | 18.129     | 18.129     |   0.0 | 49.67
Neigh   | 17.129     | 17.129     | 17.129     |   0.0 | 46.93
Comm    | 0.38311    | 0.38311    | 0.38311    |   0.0 |  1.05
Output  | 0.038793   | 0.038793   | 0.038793   |   0.0 |  0.11
Modify  | 0.66184    | 0.66184    | 0.66184    |   0.0 |  1.81
Other   |            | 0.1561     |            |       |  0.43

Nlocal:    19652 ave 19652 max 19652 min
Histogram: 1 0 0 0 0 0 0 0 0 0
Nghost:    13819 ave 13819 max 13819 min
Histogram: 1 0 0 0 0 0 0 0 0 0
Neighs:    703728 ave 703728 max 703728 min
Histogram: 1 0 0 0 0 0 0 0 0 0

Total # of neighbors = 703728
Ave neighs/atom = 35.8095
Neighbor list builds = 505
Dangerous builds not checked
Setting up Verlet run ...
  Unit style    : metal
  Current step  : 61000
  Time step     : 0.001
Per MPI rank memory allocation (min/avg/max) = 18.2 | 18.2 | 18.2 Mbytes
Step Temp Press TotEng PotEng Enthalpy Volume 
   61000    1379.4229    431.90067   -76093.248   -79597.108   -75911.634     673713.1 
   61495    1364.8913    372.75514   -76229.716   -79696.664   -76073.067    673309.44 
Loop time of 35.9652 on 1 procs for 495 steps with 19652 atoms

Performance: 1.189 ns/day, 20.182 hours/ns, 13.763 timesteps/s
100.1% CPU use with 1 MPI tasks x no OpenMP threads

MPI task timing breakdown:
Section |  min time  |  avg time  |  max time  |%varavg| %total
---------------------------------------------------------------
Pair    | 17.967     | 17.967     | 17.967     |   0.0 | 49.96
Neigh   | 16.82      | 16.82      | 16.82      |   0.0 | 46.77
Comm    | 0.3737     | 0.3737     | 0.3737     |   0.0 |  1.04
Output  | 0.00013804 | 0.00013804 | 0.00013804 |   0.0 |  0.00
Modify  | 0.64745    | 0.64745    | 0.64745    |   0.0 |  1.80
Other   |            | 0.1568     |            |       |  0.44

Nlocal:    19652 ave 19652 max 19652 min
Histogram: 1 0 0 0 0 0 0 0 0 0
Nghost:    13803 ave 13803 max 13803 min
Histogram: 1 0 0 0 0 0 0 0 0 0
Neighs:    703759 ave 703759 max 703759 min
Histogram: 1 0 0 0 0 0 0 0 0 0

Total # of neighbors = 703759
Ave neighs/atom = 35.8111
Neighbor list builds = 495
Dangerous builds not checked
Setting up Verlet run ...
  Unit style    : metal
  Current step  : 61495
  Time step     : 0.001
Per MPI rank memory allocation (min/avg/max) = 18.2 | 18.2 | 18.2 Mbytes
Step Temp Press TotEng PotEng Enthalpy Volume 
   61495    1364.8913    372.75514   -76229.716   -79696.664   -76073.067    673309.44 
   62000    1355.3981    -100.8791   -76343.096    -79785.93   -76385.485    673233.34 
Loop time of 36.7384 on 1 procs for 505 steps with 19652 atoms

Performance: 1.188 ns/day, 20.208 hours/ns, 13.746 timesteps/s
100.1% CPU use with 1 MPI tasks x no OpenMP threads

MPI task timing breakdown:
Section |  min time  |  avg time  |  max time  |%varavg| %total
---------------------------------------------------------------
Pair    | 18.33      | 18.33      | 18.33      |   0.0 | 49.89
Neigh   | 17.161     | 17.161     | 17.161     |   0.0 | 46.71
Comm    | 0.38526    | 0.38526    | 0.38526    |   0.0 |  1.05
Output  | 0.038764   | 0.038764   | 0.038764   |   0.0 |  0.11
Modify  | 0.66257    | 0.66257    | 0.66257    |   0.0 |  1.80
Other   |            | 0.1604     |            |       |  0.44

Nlocal:    19652 ave 19652 max 19652 min
Histogram: 1 0 0 0 0 0 0 0 0 0
Nghost:    13793 ave 13793 max 13793 min
Histogram: 1 0 0 0 0 0 0 0 0 0
Neighs:    703836 ave 703836 max 703836 min
Histogram: 1 0 0 0 0 0 0 0 0 0

Total # of neighbors = 703836
Ave neighs/atom = 35.815
Neighbor list builds = 505
Dangerous builds not checked
Setting up Verlet run ...
  Unit style    : metal
  Current step  : 62000
  Time step     : 0.001
Per MPI rank memory allocation (min/avg/max) = 18.2 | 18.2 | 18.2 Mbytes
Step Temp Press TotEng PotEng Enthalpy Volume 
   62000    1355.3981    -100.8791   -76343.096    -79785.93   -76385.485    673233.34 
   62495    1319.7375    121.80651   -76543.567    -79895.82   -76492.462    672201.32 
Loop time of 35.9102 on 1 procs for 495 steps with 19652 atoms

Performance: 1.191 ns/day, 20.152 hours/ns, 13.784 timesteps/s
100.1% CPU use with 1 MPI tasks x no OpenMP threads

MPI task timing breakdown:
Section |  min time  |  avg time  |  max time  |%varavg| %total
---------------------------------------------------------------
Pair    | 17.92      | 17.92      | 17.92      |   0.0 | 49.90
Neigh   | 16.812     | 16.812     | 16.812     |   0.0 | 46.82
Comm    | 0.37228    | 0.37228    | 0.37228    |   0.0 |  1.04
Output  | 0.000139   | 0.000139   | 0.000139   |   0.0 |  0.00
Modify  | 0.64851    | 0.64851    | 0.64851    |   0.0 |  1.81
Other   |            | 0.157      |            |       |  0.44

Nlocal:    19652 ave 19652 max 19652 min
Histogram: 1 0 0 0 0 0 0 0 0 0
Nghost:    13835 ave 13835 max 13835 min
Histogram: 1 0 0 0 0 0 0 0 0 0
Neighs:    704584 ave 704584 max 704584 min
Histogram: 1 0 0 0 0 0 0 0 0 0

Total # of neighbors = 704584
Ave neighs/atom = 35.853
Neighbor list builds = 495
Dangerous builds not checked
Setting up Verlet run ...
  Unit style    : metal
  Current step  : 62495
  Time step     : 0.001
Per MPI rank memory allocation (min/avg/max) = 18.2 | 18.2 | 18.2 Mbytes
Step Temp Press TotEng PotEng Enthalpy Volume 
   62495    1319.7375    121.80651   -76543.567    -79895.82   -76492.462    672201.32 
   63000    1298.5252    283.02311   -76695.239   -79993.611   -76576.668    671220.76 
Loop time of 37.0008 on 1 procs for 505 steps with 19652 atoms

Performance: 1.179 ns/day, 20.352 hours/ns, 13.648 timesteps/s
100.1% CPU use with 1 MPI tasks x no OpenMP threads

MPI task timing breakdown:
Section |  min time  |  avg time  |  max time  |%varavg| %total
---------------------------------------------------------------
Pair    | 18.489     | 18.489     | 18.489     |   0.0 | 49.97
Neigh   | 17.263     | 17.263     | 17.263     |   0.0 | 46.65
Comm    | 0.38354    | 0.38354    | 0.38354    |   0.0 |  1.04
Output  | 0.039294   | 0.039294   | 0.039294   |   0.0 |  0.11
Modify  | 0.66585    | 0.66585    | 0.66585    |   0.0 |  1.80
Other   |            | 0.1609     |            |       |  0.43

Nlocal:    19652 ave 19652 max 19652 min
Histogram: 1 0 0 0 0 0 0 0 0 0
Nghost:    13797 ave 13797 max 13797 min
Histogram: 1 0 0 0 0 0 0 0 0 0
Neighs:    704821 ave 704821 max 704821 min
Histogram: 1 0 0 0 0 0 0 0 0 0

Total # of neighbors = 704821
Ave neighs/atom = 35.8651
Neighbor list builds = 505
Dangerous builds not checked
Setting up Verlet run ...
  Unit style    : metal
  Current step  : 63000
  Time step     : 0.001
Per MPI rank memory allocation (min/avg/max) = 18.2 | 18.2 | 18.2 Mbytes
Step Temp Press TotEng PotEng Enthalpy Volume 
   63000    1298.5252    283.02311   -76695.239   -79993.611   -76576.668    671220.76 
   63495    1268.8032    273.62769   -76896.855   -80119.731   -76782.359    670414.28 
Loop time of 35.9745 on 1 procs for 495 steps with 19652 atoms

Performance: 1.189 ns/day, 20.188 hours/ns, 13.760 timesteps/s
100.1% CPU use with 1 MPI tasks x no OpenMP threads

MPI task timing breakdown:
Section |  min time  |  avg time  |  max time  |%varavg| %total
---------------------------------------------------------------
Pair    | 17.984     | 17.984     | 17.984     |   0.0 | 49.99
Neigh   | 16.814     | 16.814     | 16.814     |   0.0 | 46.74
Comm    | 0.37145    | 0.37145    | 0.37145    |   0.0 |  1.03
Output  | 0.000139   | 0.000139   | 0.000139   |   0.0 |  0.00
Modify  | 0.64842    | 0.64842    | 0.64842    |   0.0 |  1.80
Other   |            | 0.1568     |            |       |  0.44

Nlocal:    19652 ave 19652 max 19652 min
Histogram: 1 0 0 0 0 0 0 0 0 0
Nghost:    13782 ave 13782 max 13782 min
Histogram: 1 0 0 0 0 0 0 0 0 0
Neighs:    704623 ave 704623 max 704623 min
Histogram: 1 0 0 0 0 0 0 0 0 0

Total # of neighbors = 704623
Ave neighs/atom = 35.855
Neighbor list builds = 495
Dangerous builds not checked
Setting up Verlet run ...
  Unit style    : metal
  Current step  : 63495
  Time step     : 0.001
Per MPI rank memory allocation (min/avg/max) = 18.2 | 18.2 | 18.2 Mbytes
Step Temp Press TotEng PotEng Enthalpy Volume 
   63495    1268.8032    273.62769   -76896.855   -80119.731   -76782.359    670414.28 
   64000    1234.4024    214.68688   -77049.586    -80185.08   -76959.804    670025.26 
Loop time of 37.0065 on 1 procs for 505 steps with 19652 atoms

Performance: 1.179 ns/day, 20.356 hours/ns, 13.646 timesteps/s
100.1% CPU use with 1 MPI tasks x no OpenMP threads

MPI task timing breakdown:
Section |  min time  |  avg time  |  max time  |%varavg| %total
---------------------------------------------------------------
Pair    | 18.491     | 18.491     | 18.491     |   0.0 | 49.97
Neigh   | 17.266     | 17.266     | 17.266     |   0.0 | 46.66
Comm    | 0.38192    | 0.38192    | 0.38192    |   0.0 |  1.03
Output  | 0.038699   | 0.038699   | 0.038699   |   0.0 |  0.10
Modify  | 0.6657     | 0.6657     | 0.6657     |   0.0 |  1.80
Other   |            | 0.1632     |            |       |  0.44

Nlocal:    19652 ave 19652 max 19652 min
Histogram: 1 0 0 0 0 0 0 0 0 0
Nghost:    13831 ave 13831 max 13831 min
Histogram: 1 0 0 0 0 0 0 0 0 0
Neighs:    705219 ave 705219 max 705219 min
Histogram: 1 0 0 0 0 0 0 0 0 0

Total # of neighbors = 705219
Ave neighs/atom = 35.8854
Neighbor list builds = 505
Dangerous builds not checked
Setting up Verlet run ...
  Unit style    : metal
  Current step  : 64000
  Time step     : 0.001
Per MPI rank memory allocation (min/avg/max) = 18.2 | 18.2 | 18.2 Mbytes
Step Temp Press TotEng PotEng Enthalpy Volume 
   64000    1234.4024    214.68688   -77049.586    -80185.08   -76959.804    670025.26 
   64495    1209.3579    265.67525   -77227.597   -80299.477    -77116.64    669136.35 
Loop time of 35.9722 on 1 procs for 495 steps with 19652 atoms

Performance: 1.189 ns/day, 20.186 hours/ns, 13.761 timesteps/s
100.1% CPU use with 1 MPI tasks x no OpenMP threads

MPI task timing breakdown:
Section |  min time  |  avg time  |  max time  |%varavg| %total
---------------------------------------------------------------
Pair    | 17.978     | 17.978     | 17.978     |   0.0 | 49.98
Neigh   | 16.814     | 16.814     | 16.814     |   0.0 | 46.74
Comm    | 0.37173    | 0.37173    | 0.37173    |   0.0 |  1.03
Output  | 0.00013804 | 0.00013804 | 0.00013804 |   0.0 |  0.00
Modify  | 0.64914    | 0.64914    | 0.64914    |   0.0 |  1.80
Other   |            | 0.1587     |            |       |  0.44

Nlocal:    19652 ave 19652 max 19652 min
Histogram: 1 0 0 0 0 0 0 0 0 0
Nghost:    13794 ave 13794 max 13794 min
Histogram: 1 0 0 0 0 0 0 0 0 0
[...]
   80000    446.16662   -106.71242   -82004.996     -83138.3   -82048.312    650335.25 
   80495    422.01077    11.493438   -82147.593   -83219.538   -82142.934    649436.72 
Loop time of 36.8155 on 1 procs for 495 steps with 19652 atoms

Performance: 1.162 ns/day, 20.660 hours/ns, 13.445 timesteps/s
100.1% CPU use with 1 MPI tasks x no OpenMP threads

MPI task timing breakdown:
Section |  min time  |  avg time  |  max time  |%varavg| %total
---------------------------------------------------------------
Pair    | 18.572     | 18.572     | 18.572     |   0.0 | 50.45
Neigh   | 16.885     | 16.885     | 16.885     |   0.0 | 45.87
Comm    | 0.46033    | 0.46033    | 0.46033    |   0.0 |  1.25
Output  | 0.000139   | 0.000139   | 0.000139   |   0.0 |  0.00
Modify  | 0.72143    | 0.72143    | 0.72143    |   0.0 |  1.96
Other   |            | 0.1759     |            |       |  0.48

Nlocal:    19652 ave 19652 max 19652 min
Histogram: 1 0 0 0 0 0 0 0 0 0
Nghost:    13986 ave 13986 max 13986 min
Histogram: 1 0 0 0 0 0 0 0 0 0
Neighs:    710031 ave 710031 max 710031 min
Histogram: 1 0 0 0 0 0 0 0 0 0

Total # of neighbors = 710031
Ave neighs/atom = 36.1302
Neighbor list builds = 495
Dangerous builds not checked
Setting up Verlet run ...
  Unit style    : metal
  Current step  : 80495
  Time step     : 0.001
Per MPI rank memory allocation (min/avg/max) = 18.2 | 18.2 | 18.2 Mbytes
Step Temp Press TotEng PotEng Enthalpy Volume 
   80495    422.01077    11.493438   -82147.593   -83219.538   -82142.934    649436.72 
   81000    399.82785    55.083691   -82276.615   -83292.214   -82254.304    648955.78 
Loop time of 37.6988 on 1 procs for 505 steps with 19652 atoms

Performance: 1.157 ns/day, 20.736 hours/ns, 13.396 timesteps/s
100.1% CPU use with 1 MPI tasks x no OpenMP threads

MPI task timing breakdown:
Section |  min time  |  avg time  |  max time  |%varavg| %total
---------------------------------------------------------------
Pair    | 19.003     | 19.003     | 19.003     |   0.0 | 50.41
Neigh   | 17.253     | 17.253     | 17.253     |   0.0 | 45.76
Comm    | 0.47713    | 0.47713    | 0.47713    |   0.0 |  1.27
Output  | 0.04064    | 0.04064    | 0.04064    |   0.0 |  0.11
Modify  | 0.74537    | 0.74537    | 0.74537    |   0.0 |  1.98
Other   |            | 0.18       |            |       |  0.48

Nlocal:    19652 ave 19652 max 19652 min
Histogram: 1 0 0 0 0 0 0 0 0 0
Nghost:    13998 ave 13998 max 13998 min
Histogram: 1 0 0 0 0 0 0 0 0 0
Neighs:    709960 ave 709960 max 709960 min
Histogram: 1 0 0 0 0 0 0 0 0 0

Total # of neighbors = 709960
Ave neighs/atom = 36.1266
Neighbor list builds = 505
Dangerous builds not checked
Setting up Verlet run ...
  Unit style    : metal
  Current step  : 81000
  Time step     : 0.001
Per MPI rank memory allocation (min/avg/max) = 18.2 | 18.2 | 18.2 Mbytes
Step Temp Press TotEng PotEng Enthalpy Volume 
   81000    399.82785    55.083691   -82276.615   -83292.214   -82254.304    648955.78 
   81495    371.62458     24.35056   -82418.619   -83362.579   -82408.764    648409.86 
Loop time of 36.9578 on 1 procs for 495 steps with 19652 atoms

Performance: 1.157 ns/day, 20.740 hours/ns, 13.394 timesteps/s
100.0% CPU use with 1 MPI tasks x no OpenMP threads

MPI task timing breakdown:
Section |  min time  |  avg time  |  max time  |%varavg| %total
---------------------------------------------------------------
Pair    | 18.643     | 18.643     | 18.643     |   0.0 | 50.45
Neigh   | 16.93      | 16.93      | 16.93      |   0.0 | 45.81
Comm    | 0.47076    | 0.47076    | 0.47076    |   0.0 |  1.27
Output  | 0.00015783 | 0.00015783 | 0.00015783 |   0.0 |  0.00
Modify  | 0.73532    | 0.73532    | 0.73532    |   0.0 |  1.99
Other   |            | 0.1779     |            |       |  0.48

Nlocal:    19652 ave 19652 max 19652 min
Histogram: 1 0 0 0 0 0 0 0 0 0
Nghost:    13980 ave 13980 max 13980 min
Histogram: 1 0 0 0 0 0 0 0 0 0
Neighs:    710235 ave 710235 max 710235 min
Histogram: 1 0 0 0 0 0 0 0 0 0

Total # of neighbors = 710235
Ave neighs/atom = 36.1406
Neighbor list builds = 495
Dangerous builds not checked
Setting up Verlet run ...
  Unit style    : metal
  Current step  : 81495
  Time step     : 0.001
Per MPI rank memory allocation (min/avg/max) = 18.2 | 18.2 | 18.2 Mbytes
Step Temp Press TotEng PotEng Enthalpy Volume 
   81495    371.62458     24.35056   -82418.619   -83362.579   -82408.764    648409.86 
   82000    346.28387    28.676563   -82552.417   -83432.009   -82540.819    647958.39 
Loop time of 38.1031 on 1 procs for 505 steps with 19652 atoms

Performance: 1.145 ns/day, 20.959 hours/ns, 13.254 timesteps/s
100.0% CPU use with 1 MPI tasks x no OpenMP threads

MPI task timing breakdown:
Section |  min time  |  avg time  |  max time  |%varavg| %total
---------------------------------------------------------------
Pair    | 19.201     | 19.201     | 19.201     |   0.0 | 50.39
Neigh   | 17.455     | 17.455     | 17.455     |   0.0 | 45.81
Comm    | 0.47648    | 0.47648    | 0.47648    |   0.0 |  1.25
Output  | 0.04022    | 0.04022    | 0.04022    |   0.0 |  0.11
Modify  | 0.749      | 0.749      | 0.749      |   0.0 |  1.97
Other   |            | 0.1813     |            |       |  0.48

Nlocal:    19652 ave 19652 max 19652 min
Histogram: 1 0 0 0 0 0 0 0 0 0
Nghost:    13975 ave 13975 max 13975 min
Histogram: 1 0 0 0 0 0 0 0 0 0
Neighs:    710470 ave 710470 max 710470 min
Histogram: 1 0 0 0 0 0 0 0 0 0

Total # of neighbors = 710470
Ave neighs/atom = 36.1526
Neighbor list builds = 505
Dangerous builds not checked
Setting up Verlet run ...
  Unit style    : metal
  Current step  : 82000
  Time step     : 0.001
Per MPI rank memory allocation (min/avg/max) = 18.2 | 18.2 | 18.2 Mbytes
Step Temp Press TotEng PotEng Enthalpy Volume 
   82000    346.28387    28.676563   -82552.417   -83432.009   -82540.819    647958.39 
   82495    322.07296    124.89293   -82683.936   -83502.031   -82633.474    647345.64 
Loop time of 37.3274 on 1 procs for 495 steps with 19652 atoms

Performance: 1.146 ns/day, 20.947 hours/ns, 13.261 timesteps/s
100.0% CPU use with 1 MPI tasks x no OpenMP threads

MPI task timing breakdown:
Section |  min time  |  avg time  |  max time  |%varavg| %total
---------------------------------------------------------------
Pair    | 18.829     | 18.829     | 18.829     |   0.0 | 50.44
Neigh   | 17.087     | 17.087     | 17.087     |   0.0 | 45.78
Comm    | 0.48341    | 0.48341    | 0.48341    |   0.0 |  1.30
Output  | 0.00015497 | 0.00015497 | 0.00015497 |   0.0 |  0.00
Modify  | 0.74662    | 0.74662    | 0.74662    |   0.0 |  2.00
Other   |            | 0.1812     |            |       |  0.49

Nlocal:    19652 ave 19652 max 19652 min
Histogram: 1 0 0 0 0 0 0 0 0 0
Nghost:    13999 ave 13999 max 13999 min
Histogram: 1 0 0 0 0 0 0 0 0 0
Neighs:    710802 ave 710802 max 710802 min
Histogram: 1 0 0 0 0 0 0 0 0 0

Total # of neighbors = 710802
Ave neighs/atom = 36.1694
Neighbor list builds = 495
Dangerous builds not checked
Setting up Verlet run ...
  Unit style    : metal
  Current step  : 82495
  Time step     : 0.001
Per MPI rank memory allocation (min/avg/max) = 18.2 | 18.2 | 18.2 Mbytes
Step Temp Press TotEng PotEng Enthalpy Volume 
   82495    322.07296    124.89293   -82683.936   -83502.031   -82633.474    647345.64 
   83000    298.32638   -261.43232   -82817.209   -83574.986   -82922.845    647381.54 
Loop time of 38.0974 on 1 procs for 505 steps with 19652 atoms

Performance: 1.145 ns/day, 20.956 hours/ns, 13.256 timesteps/s
100.0% CPU use with 1 MPI tasks x no OpenMP threads

MPI task timing breakdown:
Section |  min time  |  avg time  |  max time  |%varavg| %total
---------------------------------------------------------------
Pair    | 19.181     | 19.181     | 19.181     |   0.0 | 50.35
Neigh   | 17.476     | 17.476     | 17.476     |   0.0 | 45.87
Comm    | 0.47657    | 0.47657    | 0.47657    |   0.0 |  1.25
Output  | 0.039721   | 0.039721   | 0.039721   |   0.0 |  0.10
Modify  | 0.74475    | 0.74475    | 0.74475    |   0.0 |  1.95
Other   |            | 0.1793     |            |       |  0.47

Nlocal:    19652 ave 19652 max 19652 min
Histogram: 1 0 0 0 0 0 0 0 0 0
Nghost:    13994 ave 13994 max 13994 min
Histogram: 1 0 0 0 0 0 0 0 0 0
Neighs:    709990 ave 709990 max 709990 min
Histogram: 1 0 0 0 0 0 0 0 0 0

Total # of neighbors = 709990
Ave neighs/atom = 36.1281
Neighbor list builds = 505
Dangerous builds not checked
Setting up Verlet run ...
  Unit style    : metal
  Current step  : 83000
  Time step     : 0.001
Per MPI rank memory allocation (min/avg/max) = 18.2 | 18.2 | 18.2 Mbytes
Step Temp Press TotEng PotEng Enthalpy Volume 
   83000    298.32638   -261.43232   -82817.209   -83574.986   -82922.845    647381.54 
   83495    273.25516    247.97768   -82947.915   -83642.008   -82847.921    646056.66 
Loop time of 36.6993 on 1 procs for 495 steps with 19652 atoms

Performance: 1.165 ns/day, 20.594 hours/ns, 13.488 timesteps/s
100.1% CPU use with 1 MPI tasks x no OpenMP threads

MPI task timing breakdown:
Section |  min time  |  avg time  |  max time  |%varavg| %total
---------------------------------------------------------------
Pair    | 18.552     | 18.552     | 18.552     |   0.0 | 50.55
Neigh   | 16.8       | 16.8       | 16.8       |   0.0 | 45.78
Comm    | 0.45785    | 0.45785    | 0.45785    |   0.0 |  1.25
Output  | 0.00014091 | 0.00014091 | 0.00014091 |   0.0 |  0.00
Modify  | 0.71629    | 0.71629    | 0.71629    |   0.0 |  1.95
Other   |            | 0.1735     |            |       |  0.47

Nlocal:    19652 ave 19652 max 19652 min
Histogram: 1 0 0 0 0 0 0 0 0 0
Nghost:    14013 ave 14013 max 14013 min
Histogram: 1 0 0 0 0 0 0 0 0 0
Neighs:    710931 ave 710931 max 710931 min
Histogram: 1 0 0 0 0 0 0 0 0 0

Total # of neighbors = 710931
Ave neighs/atom = 36.176
Neighbor list builds = 495
Dangerous builds not checked
Setting up Verlet run ...
  Unit style    : metal
  Current step  : 83495
  Time step     : 0.001
Per MPI rank memory allocation (min/avg/max) = 18.2 | 18.2 | 18.2 Mbytes
Step Temp Press TotEng PotEng Enthalpy Volume 
   83495    273.25516    247.97768   -82947.915   -83642.008   -82847.921    646056.66 
   84000    247.92597     -54.1059   -83079.993   -83709.748   -83101.807    645956.72 
Loop time of 37.1624 on 1 procs for 505 steps with 19652 atoms

Performance: 1.174 ns/day, 20.441 hours/ns, 13.589 timesteps/s
100.1% CPU use with 1 MPI tasks x no OpenMP threads

MPI task timing breakdown:
Section |  min time  |  avg time  |  max time  |%varavg| %total
---------------------------------------------------------------
Pair    | 18.786     | 18.786     | 18.786     |   0.0 | 50.55
Neigh   | 17.067     | 17.067     | 17.067     |   0.0 | 45.93
Comm    | 0.41451    | 0.41451    | 0.41451    |   0.0 |  1.12
Output  | 0.039366   | 0.039366   | 0.039366   |   0.0 |  0.11
Modify  | 0.6881     | 0.6881     | 0.6881     |   0.0 |  1.85
Other   |            | 0.1672     |            |       |  0.45

Nlocal:    19652 ave 19652 max 19652 min
Histogram: 1 0 0 0 0 0 0 0 0 0
Nghost:    13991 ave 13991 max 13991 min
Histogram: 1 0 0 0 0 0 0 0 0 0
Neighs:    711025 ave 711025 max 711025 min
Histogram: 1 0 0 0 0 0 0 0 0 0

Total # of neighbors = 711025
Ave neighs/atom = 36.1808
Neighbor list builds = 505
Dangerous builds not checked
Setting up Verlet run ...
  Unit style    : metal
  Current step  : 84000
  Time step     : 0.001
Per MPI rank memory allocation (min/avg/max) = 18.2 | 18.2 | 18.2 Mbytes
Step Temp Press TotEng PotEng Enthalpy Volume 
   84000    247.92597     -54.1059   -83079.993   -83709.748   -83101.807    645956.72 
   84495    223.27565    59.078298   -83208.616   -83775.757   -83184.822    645287.87 
Loop time of 36.8306 on 1 procs for 495 steps with 19652 atoms

Performance: 1.161 ns/day, 20.668 hours/ns, 13.440 timesteps/s
100.1% CPU use with 1 MPI tasks x no OpenMP threads

MPI task timing breakdown:
Section |  min time  |  avg time  |  max time  |%varavg| %total
---------------------------------------------------------------
Pair    | 18.655     | 18.655     | 18.655     |   0.0 | 50.65
Neigh   | 16.912     | 16.912     | 16.912     |   0.0 | 45.92
Comm    | 0.41054    | 0.41054    | 0.41054    |   0.0 |  1.11
Output  | 0.00015807 | 0.00015807 | 0.00015807 |   0.0 |  0.00
Modify  | 0.68618    | 0.68618    | 0.68618    |   0.0 |  1.86
Other   |            | 0.1667     |            |       |  0.45

Nlocal:    19652 ave 19652 max 19652 min
Histogram: 1 0 0 0 0 0 0 0 0 0
Nghost:    13989 ave 13989 max 13989 min
Histogram: 1 0 0 0 0 0 0 0 0 0
Neighs:    711101 ave 711101 max 711101 min
Histogram: 1 0 0 0 0 0 0 0 0 0

Total # of neighbors = 711101
Ave neighs/atom = 36.1847
Neighbor list builds = 495
Dangerous builds not checked
Setting up Verlet run ...
  Unit style    : metal
  Current step  : 84495
  Time step     : 0.001
Per MPI rank memory allocation (min/avg/max) = 18.2 | 18.2 | 18.2 Mbytes
Step Temp Press TotEng PotEng Enthalpy Volume 
   84495    223.27565    59.078298   -83208.616   -83775.757   -83184.822    645287.87 
   85000    198.92837    23.517266   -83339.842   -83845.138   -83330.376    644910.47 
Loop time of 37.2336 on 1 procs for 505 steps with 19652 atoms

Performance: 1.172 ns/day, 20.481 hours/ns, 13.563 timesteps/s
100.0% CPU use with 1 MPI tasks x no OpenMP threads

MPI task timing breakdown:
Section |  min time  |  avg time  |  max time  |%varavg| %total
---------------------------------------------------------------
Pair    | 18.851     | 18.851     | 18.851     |   0.0 | 50.63
Neigh   | 17.073     | 17.073     | 17.073     |   0.0 | 45.85
Comm    | 0.41194    | 0.41194    | 0.41194    |   0.0 |  1.11
Output  | 0.038839   | 0.038839   | 0.038839   |   0.0 |  0.10
Modify  | 0.69106    | 0.69106    | 0.69106    |   0.0 |  1.86
Other   |            | 0.1676     |            |       |  0.45

Nlocal:    19652 ave 19652 max 19652 min
Histogram: 1 0 0 0 0 0 0 0 0 0
Nghost:    13993 ave 13993 max 13993 min
Histogram: 1 0 0 0 0 0 0 0 0 0
Neighs:    711094 ave 711094 max 711094 min
Histogram: 1 0 0 0 0 0 0 0 0 0

Total # of neighbors = 711094
Ave neighs/atom = 36.1843
Neighbor list builds = 505
Dangerous builds not checked
Setting up Verlet run ...
  Unit style    : metal
  Current step  : 85000
  Time step     : 0.001
Per MPI rank memory allocation (min/avg/max) = 18.2 | 18.2 | 18.2 Mbytes
Step Temp Press TotEng PotEng Enthalpy Volume 
   85000    198.92837    23.517266   -83339.842   -83845.138   -83330.376    644910.47 
   85495    174.57917    62.058928   -83465.215   -83908.662   -83440.255    644403.86 
Loop time of 36.3943 on 1 procs for 495 steps with 19652 atoms

Performance: 1.175 ns/day, 20.423 hours/ns, 13.601 timesteps/s
100.1% CPU use with 1 MPI tasks x no OpenMP threads

MPI task timing breakdown:
Section |  min time  |  avg time  |  max time  |%varavg| %total
---------------------------------------------------------------
Pair    | 18.449     | 18.449     | 18.449     |   0.0 | 50.69
Neigh   | 16.695     | 16.695     | 16.695     |   0.0 | 45.87
Comm    | 0.40606    | 0.40606    | 0.40606    |   0.0 |  1.12
Output  | 0.00014997 | 0.00014997 | 0.00014997 |   0.0 |  0.00
Modify  | 0.67916    | 0.67916    | 0.67916    |   0.0 |  1.87
Other   |            | 0.1648     |            |       |  0.45

Nlocal:    19652 ave 19652 max 19652 min
Histogram: 1 0 0 0 0 0 0 0 0 0
Nghost:    13992 ave 13992 max 13992 min
Histogram: 1 0 0 0 0 0 0 0 0 0
Neighs:    711381 ave 711381 max 711381 min
Histogram: 1 0 0 0 0 0 0 0 0 0

Total # of neighbors = 711381
Ave neighs/atom = 36.1989
Neighbor list builds = 495
Dangerous builds not checked
Setting up Verlet run ...
  Unit style    : metal
  Current step  : 85495
  Time step     : 0.001
Per MPI rank memory allocation (min/avg/max) = 18.2 | 18.2 | 18.2 Mbytes
Step Temp Press TotEng PotEng Enthalpy Volume 
   85495    174.57917    62.058928   -83465.215   -83908.662   -83440.255    644403.86 
   86000    149.92442   -46.297578    -83596.26   -83977.082    -83614.87    644009.71 
Loop time of 37.1369 on 1 procs for 505 steps with 19652 atoms

Performance: 1.175 ns/day, 20.427 hours/ns, 13.598 timesteps/s
100.1% CPU use with 1 MPI tasks x no OpenMP threads

MPI task timing breakdown:
Section |  min time  |  avg time  |  max time  |%varavg| %total
---------------------------------------------------------------
Pair    | 18.806     | 18.806     | 18.806     |   0.0 | 50.64
Neigh   | 17.022     | 17.022     | 17.022     |   0.0 | 45.84
Comm    | 0.41204    | 0.41204    | 0.41204    |   0.0 |  1.11
Output  | 0.039267   | 0.039267   | 0.039267   |   0.0 |  0.11
Modify  | 0.69056    | 0.69056    | 0.69056    |   0.0 |  1.86
Other   |            | 0.1673     |            |       |  0.45

Nlocal:    19652 ave 19652 max 19652 min
Histogram: 1 0 0 0 0 0 0 0 0 0
Nghost:    13998 ave 13998 max 13998 min
Histogram: 1 0 0 0 0 0 0 0 0 0
Neighs:    711612 ave 711612 max 711612 min
Histogram: 1 0 0 0 0 0 0 0 0 0

Total # of neighbors = 711612
Ave neighs/atom = 36.2107
Neighbor list builds = 505
Dangerous builds not checked
Setting up Verlet run ...
  Unit style    : metal
  Current step  : 86000
  Time step     : 0.001
Per MPI rank memory allocation (min/avg/max) = 18.2 | 18.2 | 18.2 Mbytes
Step Temp Press TotEng PotEng Enthalpy Volume 
   86000    149.92442   -46.297578    -83596.26   -83977.082    -83614.87    644009.71 
   86495    126.27767    63.994831     -83718.9   -84039.657   -83693.205    643298.08 
Loop time of 36.4745 on 1 procs for 495 steps with 19652 atoms

Performance: 1.173 ns/day, 20.468 hours/ns, 13.571 timesteps/s
100.1% CPU use with 1 MPI tasks x no OpenMP threads

MPI task timing breakdown:
Section |  min time  |  avg time  |  max time  |%varavg| %total
---------------------------------------------------------------
Pair    | 18.507     | 18.507     | 18.507     |   0.0 | 50.74
Neigh   | 16.721     | 16.721     | 16.721     |   0.0 | 45.84
Comm    | 0.40401    | 0.40401    | 0.40401    |   0.0 |  1.11
Output  | 0.00013709 | 0.00013709 | 0.00013709 |   0.0 |  0.00
Modify  | 0.67786    | 0.67786    | 0.67786    |   0.0 |  1.86
Other   |            | 0.1648     |            |       |  0.45

Nlocal:    19652 ave 19652 max 19652 min
Histogram: 1 0 0 0 0 0 0 0 0 0
Nghost:    13979 ave 13979 max 13979 min
Histogram: 1 0 0 0 0 0 0 0 0 0
Neighs:    712119 ave 712119 max 712119 min
Histogram: 1 0 0 0 0 0 0 0 0 0

Total # of neighbors = 712119
Ave neighs/atom = 36.2365
Neighbor list builds = 495
Dangerous builds not checked
Setting up Verlet run ...
  Unit style    : metal
  Current step  : 86495
  Time step     : 0.001
Per MPI rank memory allocation (min/avg/max) = 18.2 | 18.2 | 18.2 Mbytes
Step Temp Press TotEng PotEng Enthalpy Volume 
   86495    126.27767    63.994831     -83718.9   -84039.657   -83693.205    643298.08 
   87000    102.39133   -90.601954   -83846.832   -84106.915   -83883.198    643089.92 
Loop time of 37.1284 on 1 procs for 505 steps with 19652 atoms

Performance: 1.175 ns/day, 20.423 hours/ns, 13.601 timesteps/s
100.1% CPU use with 1 MPI tasks x no OpenMP threads

MPI task timing breakdown:
Section |  min time  |  avg time  |  max time  |%varavg| %total
---------------------------------------------------------------
Pair    | 18.816     | 18.816     | 18.816     |   0.0 | 50.68
Neigh   | 17.008     | 17.008     | 17.008     |   0.0 | 45.81
Comm    | 0.40899    | 0.40899    | 0.40899    |   0.0 |  1.10
Output  | 0.039796   | 0.039796   | 0.039796   |   0.0 |  0.11
Modify  | 0.6889     | 0.6889     | 0.6889     |   0.0 |  1.86
Other   |            | 0.1669     |            |       |  0.45

Nlocal:    19652 ave 19652 max 19652 min
Histogram: 1 0 0 0 0 0 0 0 0 0
Nghost:    14015 ave 14015 max 14015 min
Histogram: 1 0 0 0 0 0 0 0 0 0
Neighs:    711678 ave 711678 max 711678 min
Histogram: 1 0 0 0 0 0 0 0 0 0

Total # of neighbors = 711678
Ave neighs/atom = 36.214
Neighbor list builds = 505
Dangerous builds not checked
Total wall time: 1:47:06
