LAMMPS (12 Dec 2018)
Lattice spacing in x,y,z = 4 4 4
Created orthogonal box = (0 0 0) to (68 68 68)
  1 by 2 by 3 MPI processor grid
Created 19652 atoms
  Time spent = 0.000836849 secs
Setting atom values ...
  19480 settings made for type/fraction
Neighbor list info ...
  update every 1 steps, delay 0 steps, check no
  max neighbors/atom: 2000, page size: 100000
  master list distance cutoff = 8.5
  ghost atom cutoff = 8.5
  binsize = 4.25, bins = 16 16 16
  1 neighbor lists, perpetual/occasional/extra = 1 0 0
  (1) pair eam/alloy, perpetual
      attributes: half, newton on
      pair build: half/bin/atomonly/newton
      stencil: half/bin/3d/newton
      bin: standard
Setting up Verlet run ...
  Unit style    : metal
  Current step  : 0
  Time step     : 0.001
Per MPI rank memory allocation (min/avg/max) = 5.546 | 5.705 | 5.983 Mbytes
Step Temp Press TotEng PotEng Enthalpy 
       0          300    58241.258   -55124.656   -55886.684   -43694.633 
    1000    154.70045    64868.401   -55124.607   -55517.561   -42393.987 
Loop time of 30.7047 on 6 procs for 1000 steps with 19652 atoms

Performance: 2.814 ns/day, 8.529 hours/ns, 32.568 timesteps/s
99.9% CPU use with 6 MPI tasks x no OpenMP threads

MPI task timing breakdown:
Section |  min time  |  avg time  |  max time  |%varavg| %total
---------------------------------------------------------------
Pair    | 17.207     | 17.528     | 17.986     |   5.9 | 57.08
Neigh   | 9.4553     | 10.593     | 12.14      |  27.1 | 34.50
Comm    | 1.1956     | 2.4405     | 3.1288     |  43.0 |  7.95
Output  | 0.00012422 | 0.00014337 | 0.00016618 |   0.0 |  0.00
Modify  | 0.065999   | 0.071905   | 0.082264   |   2.1 |  0.23
Other   |            | 0.07149    |            |       |  0.23

Nlocal:    3275.33 ave 3339 max 3165 min
Histogram: 1 1 0 0 0 0 0 0 2 2
Nghost:    7720.67 ave 7872 max 7434 min
Histogram: 2 0 0 0 0 0 0 0 0 4
Neighs:    262278 ave 271657 max 253473 min
Histogram: 1 1 0 0 1 1 0 0 1 1

Total # of neighbors = 1573668
Ave neighs/atom = 80.0767
Neighbor list builds = 1000
Dangerous builds not checked
Setting up Verlet run ...
  Unit style    : metal
  Current step  : 1000
  Time step     : 0.001
Per MPI rank memory allocation (min/avg/max) = 5.548 | 5.835 | 5.983 Mbytes
Step Temp Press TotEng PotEng Enthalpy 
    1000    154.70045    64868.401   -55124.607   -55517.561   -42393.987 
    2000      290.942    54.140599   -54649.175   -55388.194   -54637.802 
Loop time of 31.0581 on 6 procs for 1000 steps with 19652 atoms

Performance: 2.782 ns/day, 8.627 hours/ns, 32.198 timesteps/s
96.6% CPU use with 6 MPI tasks x no OpenMP threads

MPI task timing breakdown:
Section |  min time  |  avg time  |  max time  |%varavg| %total
---------------------------------------------------------------
Pair    | 17.496     | 17.79      | 18.373     |   6.9 | 57.28
Neigh   | 9.4169     | 10.448     | 10.981     |  16.4 | 33.64
Comm    | 2.1365     | 2.4446     | 2.9023     |  16.0 |  7.87
Output  | 5.1975e-05 | 6.4373e-05 | 8.8215e-05 |   0.0 |  0.00
Modify  | 0.29122    | 0.30023    | 0.30646    |   1.1 |  0.97
Other   |            | 0.07544    |            |       |  0.24

Nlocal:    3275.33 ave 3345 max 3179 min
Histogram: 2 0 0 0 0 0 0 1 2 1
Nghost:    7713.33 ave 7865 max 7436 min
Histogram: 2 0 0 0 0 0 0 0 0 4
Neighs:    235100 ave 244288 max 228292 min
Histogram: 2 0 0 2 0 0 0 1 0 1

Total # of neighbors = 1410598
Ave neighs/atom = 71.7789
Neighbor list builds = 1000
Dangerous builds not checked
Setting up Verlet run ...
  Unit style    : metal
  Current step  : 2000
  Time step     : 0.001
Per MPI rank memory allocation (min/avg/max) = 5.548 | 5.835 | 5.983 Mbytes
Step Temp Press TotEng PotEng Enthalpy 
    2000      290.942    54.140599   -54649.175   -55388.194   -54637.802 
   10000     2422.336   -236.60438   -39866.134   -46019.088   -39933.608 
Loop time of 220.83 on 6 procs for 8000 steps with 19652 atoms

Performance: 3.130 ns/day, 7.668 hours/ns, 36.227 timesteps/s
99.7% CPU use with 6 MPI tasks x no OpenMP threads

MPI task timing breakdown:
Section |  min time  |  avg time  |  max time  |%varavg| %total
---------------------------------------------------------------
Pair    | 118.8      | 119.4      | 119.98     |   3.3 | 54.07
Neigh   | 78.098     | 80.661     | 83.971     |  22.4 | 36.53
Comm    | 14.652     | 17.489     | 20.184     |  48.0 |  7.92
Output  | 5.6982e-05 | 6.8466e-05 | 0.00010896 |   0.0 |  0.00
Modify  | 2.233      | 2.7088     | 2.8398     |  13.0 |  1.23
Other   |            | 0.5726     |            |       |  0.26

Nlocal:    3275.33 ave 3294 max 3242 min
Histogram: 2 0 0 0 0 0 0 0 0 4
Nghost:    6309.33 ave 6342 max 6291 min
Histogram: 2 1 0 0 1 1 0 0 0 1
Neighs:    180264 ave 182368 max 176719 min
Histogram: 1 0 1 0 0 0 1 0 1 2

Total # of neighbors = 1081584
Ave neighs/atom = 55.0368
Neighbor list builds = 8000
Dangerous builds not checked
Setting up Verlet run ...
  Unit style    : metal
  Current step  : 10000
  Time step     : 0.001
Per MPI rank memory allocation (min/avg/max) = 5.548 | 5.835 | 5.983 Mbytes
Step Temp Press TotEng PotEng Enthalpy 
   10000     2422.336   -236.60438   -39866.134   -46019.088   -39933.608 
   40000    2437.4837   -93.920092   -39745.982   -45937.412   -39772.868 
Loop time of 709.238 on 6 procs for 30000 steps with 19652 atoms

Performance: 3.655 ns/day, 6.567 hours/ns, 42.299 timesteps/s
99.8% CPU use with 6 MPI tasks x no OpenMP threads

MPI task timing breakdown:
Section |  min time  |  avg time  |  max time  |%varavg| %total
---------------------------------------------------------------
Pair    | 372.22     | 375        | 377.34     |   8.4 | 52.87
Neigh   | 262.06     | 266.61     | 270.82     |  17.3 | 37.59
Comm    | 53.47      | 57.108     | 62.259     |  38.6 |  8.05
Output  | 5.1975e-05 | 5.9883e-05 | 9.1076e-05 |   0.0 |  0.00
Modify  | 8.3467     | 8.4756     | 8.5838     |   2.7 |  1.20
Other   |            | 2.045      |            |       |  0.29

Nlocal:    3275.33 ave 3303 max 3234 min
Histogram: 1 0 0 0 0 1 2 1 0 1
Nghost:    6299.33 ave 6324 max 6283 min
Histogram: 1 1 0 2 0 1 0 0 0 1
Neighs:    179557 ave 181447 max 176216 min
Histogram: 1 0 0 0 0 1 0 3 0 1

Total # of neighbors = 1077344
Ave neighs/atom = 54.8211
Neighbor list builds = 30000
Dangerous builds not checked
Setting up Verlet run ...
  Unit style    : metal
  Current step  : 40000
  Time step     : 0.001
Per MPI rank memory allocation (min/avg/max) = 5.548 | 5.835 | 5.983 Mbytes
Step Temp Press TotEng PotEng Enthalpy 
   40000    2437.4837   -93.920092   -39745.982   -45937.412   -39772.868 
   40495    2407.6615   -976.68277   -39809.547   -45925.227   -40089.745 
Loop time of 10.7296 on 6 procs for 495 steps with 19652 atoms

Performance: 3.986 ns/day, 6.021 hours/ns, 46.134 timesteps/s
100.0% CPU use with 6 MPI tasks x no OpenMP threads

MPI task timing breakdown:
Section |  min time  |  avg time  |  max time  |%varavg| %total
---------------------------------------------------------------
Pair    | 5.5285     | 5.5815     | 5.6208     |   1.3 | 52.02
Neigh   | 3.9107     | 4.0331     | 4.3152     |   6.7 | 37.59
Comm    | 0.71734    | 0.95563    | 1.0721     |  11.7 |  8.91
Output  | 4.9114e-05 | 5.9366e-05 | 0.00010109 |   0.0 |  0.00
Modify  | 0.12639    | 0.12928    | 0.13604    |   0.9 |  1.20
Other   |            | 0.03       |            |       |  0.28

Nlocal:    3275.33 ave 3302 max 3252 min
Histogram: 1 1 0 0 1 1 0 1 0 1
Nghost:    6278.33 ave 6324 max 6248 min
Histogram: 1 0 2 1 0 1 0 0 0 1
Neighs:    179127 ave 180737 max 177009 min
Histogram: 1 0 0 2 0 0 1 0 0 2

Total # of neighbors = 1074763
Ave neighs/atom = 54.6898
Neighbor list builds = 495
Dangerous builds not checked
Setting up Verlet run ...
  Unit style    : metal
  Current step  : 40495
  Time step     : 0.001
Per MPI rank memory allocation (min/avg/max) = 5.548 | 5.835 | 5.983 Mbytes
Step Temp Press TotEng PotEng Enthalpy 
   40495    2407.6615   -976.68277   -39809.547   -45925.227   -40089.745 
   66667    2421.8126    518.05031   -39942.047   -46093.672   -39794.877 
  106667    2390.9859   -678.67141   -39994.408    -46067.73   -40187.753 
Loop time of 1580.8 on 6 procs for 66172 steps with 19652 atoms

Performance: 3.617 ns/day, 6.636 hours/ns, 41.860 timesteps/s
99.4% CPU use with 6 MPI tasks x no OpenMP threads

MPI task timing breakdown:
Section |  min time  |  avg time  |  max time  |%varavg| %total
---------------------------------------------------------------
Pair    | 826.86     | 835.8      | 839.88     |  15.1 | 52.87
Neigh   | 585.81     | 590.91     | 604.87     |  26.6 | 37.38
Comm    | 121.48     | 126.7      | 128.69     |  21.5 |  8.02
Output  | 0.014611   | 0.01463    | 0.014693   |   0.0 |  0.00
Modify  | 22.359     | 22.72      | 22.949     |   4.8 |  1.44
Other   |            | 4.651      |            |       |  0.29

Nlocal:    3275.33 ave 3297 max 3259 min
Histogram: 1 1 0 1 1 1 0 0 0 1
Nghost:    6340.5 ave 6379 max 6323 min
Histogram: 2 0 2 1 0 0 0 0 0 1
Neighs:    180420 ave 182392 max 179315 min
Histogram: 2 0 1 1 1 0 0 0 0 1

Total # of neighbors = 1082523
Ave neighs/atom = 55.0846
Neighbor list builds = 66172
Dangerous builds not checked
Setting up Verlet run ...
  Unit style    : metal
  Current step  : 106667
  Time step     : 0.001
Per MPI rank memory allocation (min/avg/max) = 5.566 | 5.853 | 5.997 Mbytes
Step Temp Press TotEng PotEng Enthalpy 
  106667    2390.9859   -678.67141   -39994.408    -46067.73   -40187.753 
  107162    2352.7922    251.48037   -40168.359   -46144.666   -40097.051 
Loop time of 11.636 on 6 procs for 495 steps with 19652 atoms

Performance: 3.675 ns/day, 6.530 hours/ns, 42.540 timesteps/s
99.9% CPU use with 6 MPI tasks x no OpenMP threads

MPI task timing breakdown:
Section |  min time  |  avg time  |  max time  |%varavg| %total
---------------------------------------------------------------
Pair    | 6.1058     | 6.1727     | 6.2196     |   1.7 | 53.05
Neigh   | 4.3685     | 4.5815     | 4.7541     |   5.7 | 39.37
Comm    | 0.55234    | 0.69593    | 0.86811    |  11.4 |  5.98
Output  | 5.8889e-05 | 7.1645e-05 | 0.00012589 |   0.0 |  0.00
Modify  | 0.14363    | 0.14792    | 0.15046    |   0.6 |  1.27
Other   |            | 0.03781    |            |       |  0.32

Nlocal:    3275.33 ave 3287 max 3257 min
Histogram: 1 0 0 1 0 0 1 1 0 2
Nghost:    6323 ave 6342 max 6294 min
Histogram: 1 0 0 0 0 2 0 2 0 1
Neighs:    181240 ave 182331 max 179346 min
Histogram: 1 0 0 0 1 1 0 0 0 3

Total # of neighbors = 1087439
Ave neighs/atom = 55.3348
Neighbor list builds = 495
Dangerous builds not checked
Setting up Verlet run ...
  Unit style    : metal
  Current step  : 107162
  Time step     : 0.001
Per MPI rank memory allocation (min/avg/max) = 5.566 | 5.853 | 5.997 Mbytes
Step Temp Press TotEng PotEng Enthalpy 
  107162    2352.7922    251.48037   -40168.359   -46144.666   -40097.051 
  133334     2355.392    1082.6576   -40373.363   -46356.273   -40069.376 
  173334    2338.2432    318.60285   -40277.964   -46217.315   -40187.911 
Loop time of 1678.92 on 6 procs for 66172 steps with 19652 atoms

Performance: 3.405 ns/day, 7.048 hours/ns, 39.413 timesteps/s
99.4% CPU use with 6 MPI tasks x no OpenMP threads

MPI task timing breakdown:
Section |  min time  |  avg time  |  max time  |%varavg| %total
---------------------------------------------------------------
Pair    | 879.53     | 896.97     | 903.4      |  27.7 | 53.43
Neigh   | 631.77     | 641.21     | 651.97     |  28.3 | 38.19
Comm    | 108.55     | 114.14     | 120.83     |  39.9 |  6.80
Output  | 0.08873    | 0.08875    | 0.088834   |   0.0 |  0.01
Modify  | 21.318     | 21.473     | 21.601     |   1.9 |  1.28
Other   |            | 5.036      |            |       |  0.30

Nlocal:    3275.33 ave 3313 max 3234 min
Histogram: 1 0 0 1 1 0 2 0 0 1
Nghost:    6331.17 ave 6376 max 6285 min
Histogram: 1 0 0 0 1 2 1 0 0 1
Neighs:    181956 ave 185895 max 178441 min
Histogram: 1 0 0 2 0 1 1 0 0 1

Total # of neighbors = 1091739
Ave neighs/atom = 55.5536
Neighbor list builds = 66172
Dangerous builds not checked
Setting up Verlet run ...
  Unit style    : metal
  Current step  : 173334
  Time step     : 0.001
Per MPI rank memory allocation (min/avg/max) = 5.568 | 5.855 | 6 Mbytes
Step Temp Press TotEng PotEng Enthalpy 
  173334    2338.2432    318.60285   -40277.964   -46217.315   -40187.911 
  173829    2320.0561   -297.44361   -40469.318   -46362.472   -40553.089 
Loop time of 11.8879 on 6 procs for 495 steps with 19652 atoms

Performance: 3.598 ns/day, 6.671 hours/ns, 41.639 timesteps/s
99.9% CPU use with 6 MPI tasks x no OpenMP threads

MPI task timing breakdown:
Section |  min time  |  avg time  |  max time  |%varavg| %total
---------------------------------------------------------------
Pair    | 6.2387     | 6.3152     | 6.3826     |   2.5 | 53.12
Neigh   | 4.275      | 4.6039     | 5.0226     |  12.8 | 38.73
Comm    | 0.43046    | 0.78496    | 1.0552     |  27.7 |  6.60
Output  | 5.6982e-05 | 6.8148e-05 | 0.00010109 |   0.0 |  0.00
Modify  | 0.14003    | 0.14646    | 0.15552    |   1.6 |  1.23
Other   |            | 0.03728    |            |       |  0.31

Nlocal:    3275.33 ave 3311 max 3259 min
Histogram: 3 0 1 0 0 1 0 0 0 1
Nghost:    6340.17 ave 6368 max 6320 min
Histogram: 2 0 1 0 1 0 0 1 0 1
Neighs:    182471 ave 186677 max 180300 min
Histogram: 2 0 1 1 1 0 0 0 0 1

Total # of neighbors = 1094826
Ave neighs/atom = 55.7107
Neighbor list builds = 495
Dangerous builds not checked
Setting up Verlet run ...
  Unit style    : metal
  Current step  : 173829
  Time step     : 0.001
Per MPI rank memory allocation (min/avg/max) = 5.568 | 5.855 | 6 Mbytes
Step Temp Press TotEng PotEng Enthalpy 
  173829    2320.0561   -297.44361   -40469.318   -46362.472   -40553.089 
  200001    2280.6476   -617.22337   -40660.444   -46453.496   -40833.739 
  240001    2307.2613    819.23191   -40630.967   -46491.621   -40401.931 
Loop time of 1711.12 on 6 procs for 66172 steps with 19652 atoms

Performance: 3.341 ns/day, 7.183 hours/ns, 38.672 timesteps/s
99.3% CPU use with 6 MPI tasks x no OpenMP threads

MPI task timing breakdown:
Section |  min time  |  avg time  |  max time  |%varavg| %total
---------------------------------------------------------------
Pair    | 893.78     | 910.66     | 916.98     |  26.8 | 53.22
Neigh   | 654.39     | 661.59     | 670.95     |  19.2 | 38.66
Comm    | 104.57     | 110.09     | 117.53     |  42.6 |  6.43
Output  | 0.16262    | 0.18816    | 0.31581    |  13.2 |  0.01
Modify  | 23.191     | 23.528     | 23.782     |   5.0 |  1.38
Other   |            | 5.067      |            |       |  0.30

Nlocal:    3275.33 ave 3298 max 3253 min
Histogram: 2 0 0 0 1 1 0 0 0 2
Nghost:    6348.67 ave 6361 max 6335 min
Histogram: 1 0 0 1 2 0 0 0 0 2
Neighs:    183915 ave 186843 max 181417 min
Histogram: 1 1 1 0 0 1 0 0 1 1

Total # of neighbors = 1103492
Ave neighs/atom = 56.1516
Neighbor list builds = 66172
Dangerous builds not checked
Setting up Verlet run ...
  Unit style    : metal
  Current step  : 240001
  Time step     : 0.001
Per MPI rank memory allocation (min/avg/max) = 5.574 | 5.86 | 6.005 Mbytes
Step Temp Press TotEng PotEng Enthalpy 
  240001    2307.2613    819.23191   -40630.967   -46491.621   -40401.931 
  240496     2263.445   -499.70085   -40832.241   -46581.598   -40971.652 
Loop time of 12.2313 on 6 procs for 495 steps with 19652 atoms

Performance: 3.497 ns/day, 6.864 hours/ns, 40.470 timesteps/s
99.9% CPU use with 6 MPI tasks x no OpenMP threads

MPI task timing breakdown:
Section |  min time  |  avg time  |  max time  |%varavg| %total
---------------------------------------------------------------
Pair    | 6.3761     | 6.4843     | 6.5751     |   3.4 | 53.01
Neigh   | 4.4908     | 4.8089     | 5.259      |  13.9 | 39.32
Comm    | 0.36573    | 0.75062    | 0.9949     |  27.3 |  6.14
Output  | 4.9114e-05 | 5.9088e-05 | 9.8944e-05 |   0.0 |  0.00
Modify  | 0.1435     | 0.14984    | 0.15976    |   1.6 |  1.23
Other   |            | 0.03759    |            |       |  0.31

Nlocal:    3275.33 ave 3304 max 3262 min
Histogram: 2 0 2 1 0 0 0 0 0 1
Nghost:    6356.17 ave 6407 max 6317 min
Histogram: 1 0 1 1 1 1 0 0 0 1
Neighs:    184327 ave 186604 max 182902 min
Histogram: 2 0 1 1 0 0 1 0 0 1

Total # of neighbors = 1105964
Ave neighs/atom = 56.2774
Neighbor list builds = 495
Dangerous builds not checked
Setting up Verlet run ...
  Unit style    : metal
  Current step  : 240496
  Time step     : 0.001
Per MPI rank memory allocation (min/avg/max) = 5.574 | 5.86 | 6.005 Mbytes
Step Temp Press TotEng PotEng Enthalpy 
  240496     2263.445   -499.70085   -40832.241   -46581.598   -40971.652 
  266668    2256.4483    1531.8433    -40978.37   -46709.954   -40554.774 
  306668    2281.5259    717.22008    -40875.48   -46670.764    -40676.46 
Loop time of 1749.73 on 6 procs for 66172 steps with 19652 atoms

Performance: 3.268 ns/day, 7.345 hours/ns, 37.819 timesteps/s
99.7% CPU use with 6 MPI tasks x no OpenMP threads

MPI task timing breakdown:
Section |  min time  |  avg time  |  max time  |%varavg| %total
---------------------------------------------------------------
Pair    | 892.61     | 914.7      | 927.07     |  36.3 | 52.28
Neigh   | 690.71     | 699.2      | 707.85     |  20.3 | 39.96
Comm    | 99.003     | 110.6      | 124.24     |  79.2 |  6.32
Output  | 0.014985   | 0.015002   | 0.015085   |   0.0 |  0.00
Modify  | 20.008     | 20.234     | 20.666     |   6.5 |  1.16
Other   |            | 4.982      |            |       |  0.28

Nlocal:    3275.33 ave 3294 max 3260 min
Histogram: 1 1 0 1 0 1 0 1 0 1
Nghost:    6382 ave 6405 max 6359 min
Histogram: 2 0 0 1 0 0 0 0 2 1
Neighs:    185265 ave 187442 max 181709 min
Histogram: 1 0 0 0 0 1 2 1 0 1

Total # of neighbors = 1111591
Ave neighs/atom = 56.5638
Neighbor list builds = 66172
Dangerous builds not checked
Setting up Verlet run ...
  Unit style    : metal
  Current step  : 306668
  Time step     : 0.001
Per MPI rank memory allocation (min/avg/max) = 5.574 | 5.86 | 6.005 Mbytes
Step Temp Press TotEng PotEng Enthalpy 
  306668    2281.5259    717.22008    -40875.48   -46670.764    -40676.46 
  307163    2213.7495     14.99699   -41126.001   -46749.126   -41121.846 
Loop time of 12.7884 on 6 procs for 495 steps with 19652 atoms

Performance: 3.344 ns/day, 7.176 hours/ns, 38.707 timesteps/s
99.8% CPU use with 6 MPI tasks x no OpenMP threads

MPI task timing breakdown:
Section |  min time  |  avg time  |  max time  |%varavg| %total
---------------------------------------------------------------
Pair    | 6.4922     | 6.6004     | 6.6796     |   2.3 | 51.61
Neigh   | 4.8171     | 5.1917     | 5.4946     |  10.4 | 40.60
Comm    | 0.54682    | 0.76894    | 1.1432     |  23.4 |  6.01
Output  | 4.7922e-05 | 5.7062e-05 | 9.3937e-05 |   0.0 |  0.00
Modify  | 0.18257    | 0.18877    | 0.19557    |   1.0 |  1.48
Other   |            | 0.03855    |            |       |  0.30

Nlocal:    3275.33 ave 3308 max 3253 min
Histogram: 1 0 1 2 1 0 0 0 0 1
Nghost:    6389.17 ave 6422 max 6366 min
Histogram: 2 0 0 2 0 0 0 1 0 1
Neighs:    185584 ave 187553 max 181970 min
Histogram: 1 0 0 0 1 0 1 1 0 2

Total # of neighbors = 1113506
Ave neighs/atom = 56.6612
Neighbor list builds = 495
Dangerous builds not checked
Setting up Verlet run ...
  Unit style    : metal
  Current step  : 307163
  Time step     : 0.001
Per MPI rank memory allocation (min/avg/max) = 5.574 | 5.86 | 6.005 Mbytes
Step Temp Press TotEng PotEng Enthalpy 
  307163    2213.7495     14.99699   -41126.001   -46749.126   -41121.846 
  333335    2174.9526    748.53301   -41383.922     -46908.5   -41178.303 
  373335    2171.8378   -1068.1127   -41324.018   -46840.684   -41619.129 
Loop time of 1774.5 on 6 procs for 66172 steps with 19652 atoms

Performance: 3.222 ns/day, 7.449 hours/ns, 37.290 timesteps/s
99.6% CPU use with 6 MPI tasks x no OpenMP threads

MPI task timing breakdown:
Section |  min time  |  avg time  |  max time  |%varavg| %total
---------------------------------------------------------------
Pair    | 909.69     | 929.86     | 942.64     |  34.3 | 52.40
Neigh   | 704.88     | 714.57     | 728.5      |  30.9 | 40.27
Comm    | 96.702     | 103.6      | 109.66     |  42.6 |  5.84
Output  | 0.014582   | 0.014597   | 0.014657   |   0.0 |  0.00
Modify  | 21.105     | 21.367     | 21.524     |   3.1 |  1.20
Other   |            | 5.096      |            |       |  0.29

Nlocal:    3275.33 ave 3332 max 3229 min
Histogram: 1 0 1 1 0 2 0 0 0 1
Nghost:    6394.67 ave 6438 max 6362 min
Histogram: 1 1 0 1 0 2 0 0 0 1
Neighs:    186098 ave 192605 max 182060 min
Histogram: 1 2 0 1 0 1 0 0 0 1

Total # of neighbors = 1116591
Ave neighs/atom = 56.8182
Neighbor list builds = 66172
Dangerous builds not checked
Setting up Verlet run ...
  Unit style    : metal
  Current step  : 373335
  Time step     : 0.001
Per MPI rank memory allocation (min/avg/max) = 5.574 | 5.86 | 6.005 Mbytes
Step Temp Press TotEng PotEng Enthalpy 
  373335    2171.8378   -1068.1127   -41324.018   -46840.684   -41619.129 
  373830    2157.3853    374.51299   -41486.914   -46966.869   -41384.143 
Loop time of 14.4802 on 6 procs for 495 steps with 19652 atoms

Performance: 2.954 ns/day, 8.126 hours/ns, 34.185 timesteps/s
96.7% CPU use with 6 MPI tasks x no OpenMP threads

MPI task timing breakdown:
Section |  min time  |  avg time  |  max time  |%varavg| %total
---------------------------------------------------------------
Pair    | 6.9793     | 7.2775     | 7.4457     |   6.2 | 50.26
Neigh   | 5.3161     | 5.5944     | 5.7924     |   7.2 | 38.63
Comm    | 1.2132     | 1.4047     | 1.5543     |  10.2 |  9.70
Output  | 6.3896e-05 | 7.232e-05  | 9.799e-05  |   0.0 |  0.00
Modify  | 0.15888    | 0.16318    | 0.16575    |   0.5 |  1.13
Other   |            | 0.0404     |            |       |  0.28

Nlocal:    3275.33 ave 3309 max 3234 min
Histogram: 1 0 0 1 0 1 0 2 0 1
Nghost:    6430 ave 6440 max 6423 min
Histogram: 2 0 0 1 1 0 1 0 0 1
Neighs:    187446 ave 191133 max 183463 min
Histogram: 1 1 1 0 0 0 0 1 0 2

Total # of neighbors = 1124676
Ave neighs/atom = 57.2296
Neighbor list builds = 495
Dangerous builds not checked
Setting up Verlet run ...
  Unit style    : metal
  Current step  : 373830
  Time step     : 0.001
Per MPI rank memory allocation (min/avg/max) = 5.574 | 5.86 | 6.005 Mbytes
Step Temp Press TotEng PotEng Enthalpy 
  373830    2157.3853    374.51299   -41486.914   -46966.869   -41384.143 
  400002    2152.3776    25.992469    -41554.75   -47021.985   -41547.633 
  440002    2140.2929    1058.8927   -41526.823   -46963.362   -41236.777 
Loop time of 2069.23 on 6 procs for 66172 steps with 19652 atoms

Performance: 2.763 ns/day, 8.686 hours/ns, 31.979 timesteps/s
97.2% CPU use with 6 MPI tasks x no OpenMP threads

MPI task timing breakdown:
Section |  min time  |  avg time  |  max time  |%varavg| %total
---------------------------------------------------------------
Pair    | 1060.8     | 1089.7     | 1110.3     |  45.5 | 52.66
Neigh   | 767.11     | 775.03     | 785.66     |  22.5 | 37.46
Comm    | 137.84     | 153.78     | 172.43     |  88.0 |  7.43
Output  | 0.035325   | 0.03537    | 0.035592   |   0.1 |  0.00
Modify  | 43.716     | 45.041     | 46.038     |  11.6 |  2.18
Other   |            | 5.623      |            |       |  0.27

Nlocal:    3275.33 ave 3295 max 3247 min
Histogram: 1 0 0 0 1 1 0 2 0 1
Nghost:    6406.33 ave 6429 max 6368 min
Histogram: 1 0 0 1 0 0 0 1 2 1
Neighs:    187691 ave 190682 max 183802 min
Histogram: 1 0 1 0 0 0 1 2 0 1

Total # of neighbors = 1126146
Ave neighs/atom = 57.3044
Neighbor list builds = 66172
Dangerous builds not checked
Setting up Verlet run ...
  Unit style    : metal
  Current step  : 440002
  Time step     : 0.001
Per MPI rank memory allocation (min/avg/max) = 5.574 | 5.86 | 6.005 Mbytes
Step Temp Press TotEng PotEng Enthalpy 
  440002    2140.2929    1058.8927   -41526.823   -46963.362   -41236.777 
  440497     2115.315    269.13368   -41750.208   -47123.301   -41676.807 
Loop time of 26.6161 on 6 procs for 495 steps with 19652 atoms

Performance: 1.607 ns/day, 14.936 hours/ns, 18.598 timesteps/s
86.7% CPU use with 6 MPI tasks x no OpenMP threads

MPI task timing breakdown:
Section |  min time  |  avg time  |  max time  |%varavg| %total
---------------------------------------------------------------
Pair    | 15.629     | 15.798     | 15.89      |   2.4 | 59.36
Neigh   | 5.7478     | 5.9427     | 6.2781     |   7.6 | 22.33
Comm    | 2.8023     | 2.9578     | 3.062      |   5.1 | 11.11
Output  | 5.1022e-05 | 6.2664e-05 | 0.00010109 |   0.0 |  0.00
Modify  | 1.7571     | 1.8734     | 1.968      |   6.2 |  7.04
Other   |            | 0.044      |            |       |  0.17

Nlocal:    3275.33 ave 3292 max 3262 min
Histogram: 1 0 1 0 1 2 0 0 0 1
Nghost:    6412.17 ave 6460 max 6369 min
Histogram: 1 1 0 1 0 1 0 1 0 1
Neighs:    188650 ave 191875 max 185211 min
Histogram: 1 1 0 0 0 1 1 0 1 1

Total # of neighbors = 1131897
Ave neighs/atom = 57.597
Neighbor list builds = 495
Dangerous builds not checked
Setting up Verlet run ...
  Unit style    : metal
  Current step  : 440497
  Time step     : 0.001
Per MPI rank memory allocation (min/avg/max) = 5.574 | 5.86 | 6.005 Mbytes
Step Temp Press TotEng PotEng Enthalpy 
  440497     2115.315    269.13368   -41750.208   -47123.301   -41676.807 
  466669    2118.7443    1966.7018   -41875.973   -47257.777   -41344.208 
  506669    2108.2601    834.36535   -41777.535   -47132.707   -41550.396 
Loop time of 2457.21 on 6 procs for 66172 steps with 19652 atoms

Performance: 2.327 ns/day, 10.315 hours/ns, 26.930 timesteps/s
94.1% CPU use with 6 MPI tasks x no OpenMP threads

MPI task timing breakdown:
Section |  min time  |  avg time  |  max time  |%varavg| %total
---------------------------------------------------------------
Pair    | 1264.4     | 1291.4     | 1307       |  37.0 | 52.56
Neigh   | 785.38     | 794.53     | 803.76     |  21.0 | 32.33
Comm    | 261.35     | 278.47     | 295.96     |  63.2 | 11.33
Output  | 0.027164   | 0.027206   | 0.027399   |   0.1 |  0.00
Modify  | 84.795     | 86.976     | 88.496     |  12.5 |  3.54
Other   |            | 5.808      |            |       |  0.24

Nlocal:    3275.33 ave 3291 max 3264 min
Histogram: 2 0 1 0 0 1 0 1 0 1
Nghost:    6457.5 ave 6497 max 6427 min
Histogram: 1 1 1 0 1 0 0 1 0 1
Neighs:    188851 ave 190539 max 186832 min
Histogram: 1 1 0 1 0 0 0 0 1 2

Total # of neighbors = 1133104
Ave neighs/atom = 57.6585
Neighbor list builds = 66172
Dangerous builds not checked
Setting up Verlet run ...
  Unit style    : metal
  Current step  : 506669
  Time step     : 0.001
Per MPI rank memory allocation (min/avg/max) = 5.574 | 5.86 | 6.005 Mbytes
Step Temp Press TotEng PotEng Enthalpy 
  506669    2108.2601    834.36535   -41777.535   -47132.707   -41550.396 
  507164    2060.2865    434.02751   -42039.739   -47273.055   -41921.965 
Loop time of 21.4882 on 6 procs for 495 steps with 19652 atoms

Performance: 1.990 ns/day, 12.058 hours/ns, 23.036 timesteps/s
90.4% CPU use with 6 MPI tasks x no OpenMP threads

MPI task timing breakdown:
Section |  min time  |  avg time  |  max time  |%varavg| %total
---------------------------------------------------------------
Pair    | 11.127     | 11.299     | 11.502     |   4.3 | 52.58
Neigh   | 5.6481     | 5.9664     | 6.2579     |   8.7 | 27.77
Comm    | 2.8703     | 3.2187     | 3.4603     |  12.7 | 14.98
Output  | 5.5075e-05 | 6.8108e-05 | 0.00011706 |   0.0 |  0.00
Modify  | 0.90044    | 0.95744    | 1.0544     |   5.2 |  4.46
Other   |            | 0.04635    |            |       |  0.22

Nlocal:    3275.33 ave 3298 max 3227 min
Histogram: 1 0 0 0 0 1 0 1 1 2
Nghost:    6488.5 ave 6532 max 6458 min
Histogram: 2 1 0 0 1 0 0 1 0 1
Neighs:    189638 ave 193233 max 187228 min
Histogram: 2 0 1 0 1 0 1 0 0 1

Total # of neighbors = 1137830
Ave neighs/atom = 57.8989
Neighbor list builds = 495
Dangerous builds not checked
Setting up Verlet run ...
  Unit style    : metal
  Current step  : 507164
  Time step     : 0.001
Per MPI rank memory allocation (min/avg/max) = 5.574 | 5.86 | 6.005 Mbytes
Step Temp Press TotEng PotEng Enthalpy 
  507164    2060.2865    434.02751   -42039.739   -47273.055   -41921.965 
  533336    2043.7028   -429.51376   -42205.337   -47396.528   -42321.369 
  573336    2035.1865   -292.57059   -42170.285   -47339.844   -42249.534 
Loop time of 2807.1 on 6 procs for 66172 steps with 19652 atoms

Performance: 2.037 ns/day, 11.784 hours/ns, 23.573 timesteps/s
90.5% CPU use with 6 MPI tasks x no OpenMP threads

MPI task timing breakdown:
Section |  min time  |  avg time  |  max time  |%varavg| %total
---------------------------------------------------------------
Pair    | 1430.1     | 1462.6     | 1479.1     |  41.8 | 52.10
Neigh   | 808.96     | 815.51     | 824.03     |  21.6 | 29.05
Comm    | 376.12     | 386.72     | 407.89     |  58.5 | 13.78
Output  | 0.035717   | 0.035869   | 0.036394   |   0.1 |  0.00
Modify  | 133.56     | 136.2      | 139.08     |  15.8 |  4.85
Other   |            | 6          |            |       |  0.21

Nlocal:    3275.33 ave 3301 max 3257 min
Histogram: 1 0 1 2 0 0 1 0 0 1
Nghost:    6454.17 ave 6499 max 6423 min
Histogram: 3 0 0 0 0 1 0 1 0 1
Neighs:    189946 ave 195208 max 186376 min
Histogram: 2 0 0 1 1 1 0 0 0 1

Total # of neighbors = 1139673
Ave neighs/atom = 57.9927
Neighbor list builds = 66172
Dangerous builds not checked
Setting up Verlet run ...
  Unit style    : metal
  Current step  : 573336
  Time step     : 0.001
Per MPI rank memory allocation (min/avg/max) = 5.574 | 5.86 | 6.005 Mbytes
Step Temp Press TotEng PotEng Enthalpy 
  573336    2035.1865   -292.57059   -42170.285   -47339.844   -42249.534 
  573831    2010.7498   -133.66497   -42389.336   -47496.824   -42425.312 
Loop time of 16.4634 on 6 procs for 495 steps with 19652 atoms

Performance: 2.598 ns/day, 9.239 hours/ns, 30.067 timesteps/s
96.1% CPU use with 6 MPI tasks x no OpenMP threads

MPI task timing breakdown:
Section |  min time  |  avg time  |  max time  |%varavg| %total
---------------------------------------------------------------
Pair    | 8.7164     | 8.7673     | 8.8372     |   1.7 | 53.25
Neigh   | 5.2565     | 5.5969     | 6.06       |  11.1 | 34.00
Comm    | 1.234      | 1.6506     | 2.0257     |  18.9 | 10.03
Output  | 5.1975e-05 | 8.2692e-05 | 0.00022817 |   0.0 |  0.00
Modify  | 0.39368    | 0.40611    | 0.42436    |   1.5 |  2.47
Other   |            | 0.0423     |            |       |  0.26

Nlocal:    3275.33 ave 3292 max 3248 min
Histogram: 1 0 0 1 0 0 0 2 1 1
Nghost:    6461.83 ave 6517 max 6440 min
Histogram: 3 0 1 0 1 0 0 0 0 1
Neighs:    191210 ave 196352 max 185357 min
Histogram: 1 0 1 0 0 1 1 1 0 1

Total # of neighbors = 1147257
Ave neighs/atom = 58.3786
Neighbor list builds = 495
Dangerous builds not checked
Setting up Verlet run ...
  Unit style    : metal
  Current step  : 573831
  Time step     : 0.001
Per MPI rank memory allocation (min/avg/max) = 5.574 | 5.86 | 6.005 Mbytes
Step Temp Press TotEng PotEng Enthalpy 
  573831    2010.7498   -133.66497   -42389.336   -47496.824   -42425.312 
  600003    1992.3757    201.55929   -42500.577   -47561.392   -42446.494 
  640003    1999.4209    949.96652   -42469.706   -47548.418   -42215.173 
Loop time of 1988.53 on 6 procs for 66172 steps with 19652 atoms

Performance: 2.875 ns/day, 8.347 hours/ns, 33.277 timesteps/s
97.7% CPU use with 6 MPI tasks x no OpenMP threads

MPI task timing breakdown:
Section |  min time  |  avg time  |  max time  |%varavg| %total
---------------------------------------------------------------
Pair    | 1011.9     | 1040.2     | 1058.5     |  43.8 | 52.31
Neigh   | 735.11     | 744.18     | 758.71     |  29.8 | 37.42
Comm    | 144.5      | 160.06     | 172.84     |  81.0 |  8.05
Output  | 0.01533    | 0.015347   | 0.015415   |   0.0 |  0.00
Modify  | 37.54      | 38.54      | 39.504     |  10.0 |  1.94
Other   |            | 5.532      |            |       |  0.28

Nlocal:    3275.33 ave 3305 max 3249 min
Histogram: 2 0 1 0 0 0 1 0 1 1
Nghost:    6480.33 ave 6509 max 6435 min
Histogram: 1 0 0 0 1 1 0 1 0 2
Neighs:    192130 ave 195893 max 186509 min
Histogram: 1 0 0 0 1 1 1 0 0 2

Total # of neighbors = 1152777
Ave neighs/atom = 58.6595
Neighbor list builds = 66172
Dangerous builds not checked
Setting up Verlet run ...
  Unit style    : metal
  Current step  : 640003
  Time step     : 0.001
Per MPI rank memory allocation (min/avg/max) = 5.574 | 5.86 | 6.005 Mbytes
Step Temp Press TotEng PotEng Enthalpy 
  640003    1999.4209    949.96652   -42469.706   -47548.418   -42215.173 
  640498    1958.1739   -268.11145   -42661.299   -47635.239   -42733.044 
Loop time of 13.472 on 6 procs for 495 steps with 19652 atoms

Performance: 3.175 ns/day, 7.560 hours/ns, 36.743 timesteps/s
99.9% CPU use with 6 MPI tasks x no OpenMP threads

MPI task timing breakdown:
Section |  min time  |  avg time  |  max time  |%varavg| %total
---------------------------------------------------------------
Pair    | 6.7042     | 7.0122     | 7.2917     |   6.5 | 52.05
Neigh   | 5.0828     | 5.3202     | 5.6549     |   9.4 | 39.49
Comm    | 0.51783    | 0.94541    | 1.1907     |  25.8 |  7.02
Output  | 0.00012898 | 0.00014083 | 0.00018811 |   0.0 |  0.00
Modify  | 0.15139    | 0.15325    | 0.15514    |   0.3 |  1.14
Other   |            | 0.04082    |            |       |  0.30

Nlocal:    3275.33 ave 3292 max 3262 min
Histogram: 1 1 0 0 0 3 0 0 0 1
Nghost:    6481.33 ave 6512 max 6433 min
Histogram: 1 0 1 0 0 0 0 1 2 1
Neighs:    192407 ave 195130 max 189798 min
Histogram: 1 1 0 0 0 1 1 1 0 1

Total # of neighbors = 1154441
Ave neighs/atom = 58.7442
Neighbor list builds = 495
Dangerous builds not checked
Setting up Verlet run ...
  Unit style    : metal
  Current step  : 640498
  Time step     : 0.001
Per MPI rank memory allocation (min/avg/max) = 5.574 | 5.86 | 6.005 Mbytes
Step Temp Press TotEng PotEng Enthalpy 
  640498    1958.1739   -268.11145   -42661.299   -47635.239   -42733.044 
  666670    1948.7127   -1354.6889   -42756.344   -47706.252   -43118.466 
  706670    1966.8923    595.93384   -42828.186   -47824.272   -42669.947 
Loop time of 1816.75 on 6 procs for 66172 steps with 19652 atoms

Performance: 3.147 ns/day, 7.626 hours/ns, 36.423 timesteps/s
99.8% CPU use with 6 MPI tasks x no OpenMP threads

MPI task timing breakdown:
Section |  min time  |  avg time  |  max time  |%varavg| %total
---------------------------------------------------------------
Pair    | 916.01     | 947.92     | 961.48     |  48.4 | 52.18
Neigh   | 716.4      | 725.72     | 741.81     |  31.1 | 39.95
Comm    | 102.93     | 116.89     | 132.57     |  84.3 |  6.43
Output  | 0.015045   | 0.015095   | 0.015258   |   0.1 |  0.00
Modify  | 20.738     | 20.826     | 20.96      |   1.6 |  1.15
Other   |            | 5.373      |            |       |  0.30

Nlocal:    3275.33 ave 3315 max 3256 min
Histogram: 2 1 0 1 1 0 0 0 0 1
Nghost:    6510.33 ave 6558 max 6450 min
Histogram: 1 1 0 0 0 0 2 0 1 1
Neighs:    193986 ave 200703 max 189014 min
Histogram: 1 1 0 1 0 2 0 0 0 1

Total # of neighbors = 1163917
Ave neighs/atom = 59.2264
Neighbor list builds = 66172
Dangerous builds not checked
Setting up Verlet run ...
  Unit style    : metal
  Current step  : 706670
  Time step     : 0.001
Per MPI rank memory allocation (min/avg/max) = 5.574 | 5.86 | 6.005 Mbytes
Step Temp Press TotEng PotEng Enthalpy 
  706670    1966.8923    595.93384   -42828.186   -47824.272   -42669.947 
  707165    1935.1292     241.3194   -42851.243   -47766.648   -42787.059 
Loop time of 13.3498 on 6 procs for 495 steps with 19652 atoms

Performance: 3.204 ns/day, 7.491 hours/ns, 37.079 timesteps/s
99.1% CPU use with 6 MPI tasks x no OpenMP threads

MPI task timing breakdown:
Section |  min time  |  avg time  |  max time  |%varavg| %total
---------------------------------------------------------------
Pair    | 6.9101     | 7.1331     | 7.3039     |   4.4 | 53.43
Neigh   | 5.0799     | 5.2678     | 5.5054     |   5.6 | 39.46
Comm    | 0.56379    | 0.73478    | 0.87923    |  11.3 |  5.50
Output  | 5.1975e-05 | 0.0034624  | 0.020484   |  12.9 |  0.03
Modify  | 0.14989    | 0.15278    | 0.15739    |   0.6 |  1.14
Other   |            | 0.05782    |            |       |  0.43

Nlocal:    3275.33 ave 3303 max 3253 min
Histogram: 2 0 0 1 1 0 0 0 1 1
Nghost:    6513 ave 6545 max 6473 min
Histogram: 2 0 0 0 0 1 0 1 0 2
Neighs:    193625 ave 197051 max 188840 min
Histogram: 1 0 0 1 1 0 0 1 0 2

Total # of neighbors = 1161750
Ave neighs/atom = 59.1161
Neighbor list builds = 495
Dangerous builds not checked
Setting up Verlet run ...
  Unit style    : metal
  Current step  : 707165
  Time step     : 0.001
Per MPI rank memory allocation (min/avg/max) = 5.574 | 5.86 | 6.005 Mbytes
Step Temp Press TotEng PotEng Enthalpy 
  707165    1935.1292     241.3194   -42851.243   -47766.648   -42787.059 
  733337    1893.8223    352.11208   -43158.348   -47968.829   -43065.439 
  773337    1912.4232    357.64516   -43116.918   -47974.648   -43022.476 
Loop time of 1820.41 on 6 procs for 66172 steps with 19652 atoms

Performance: 3.141 ns/day, 7.642 hours/ns, 36.350 timesteps/s
99.8% CPU use with 6 MPI tasks x no OpenMP threads

MPI task timing breakdown:
Section |  min time  |  avg time  |  max time  |%varavg| %total
---------------------------------------------------------------
Pair    | 919.56     | 951.39     | 967.77     |  48.8 | 52.26
Neigh   | 716.82     | 725.65     | 735.36     |  24.4 | 39.86
Comm    | 96.505     | 116.42     | 138.58     | 120.2 |  6.40
Output  | 0.015544   | 0.015595   | 0.015759   |   0.1 |  0.00
Modify  | 21.519     | 21.562     | 21.601     |   0.6 |  1.18
Other   |            | 5.367      |            |       |  0.29

Nlocal:    3275.33 ave 3290 max 3254 min
Histogram: 1 0 0 1 0 1 1 0 1 1
Nghost:    6541.83 ave 6575 max 6521 min
Histogram: 3 0 0 0 0 1 1 0 0 1
Neighs:    195037 ave 199619 max 191750 min
Histogram: 1 2 0 0 0 1 1 0 0 1

Total # of neighbors = 1170224
Ave neighs/atom = 59.5473
Neighbor list builds = 66172
Dangerous builds not checked
Setting up Verlet run ...
  Unit style    : metal
  Current step  : 773337
  Time step     : 0.001
Per MPI rank memory allocation (min/avg/max) = 5.574 | 5.86 | 6.005 Mbytes
Step Temp Press TotEng PotEng Enthalpy 
  773337    1912.4232    357.64516   -43116.918   -47974.648   -43022.476 
  773832      1865.79    263.67634   -43276.942   -48016.219   -43207.489 
Loop time of 13.398 on 6 procs for 495 steps with 19652 atoms

Performance: 3.192 ns/day, 7.519 hours/ns, 36.946 timesteps/s
99.9% CPU use with 6 MPI tasks x no OpenMP threads

MPI task timing breakdown:
Section |  min time  |  avg time  |  max time  |%varavg| %total
---------------------------------------------------------------
Pair    | 6.7891     | 7.0202     | 7.1378     |   4.4 | 52.40
Neigh   | 5.1184     | 5.2743     | 5.4725     |   5.8 | 39.37
Comm    | 0.62215    | 0.91176    | 1.2848     |  24.3 |  6.81
Output  | 5.9843e-05 | 7.2161e-05 | 0.00011301 |   0.0 |  0.00
Modify  | 0.14928    | 0.15179    | 0.15505    |   0.5 |  1.13
Other   |            | 0.03992    |            |       |  0.30

Nlocal:    3275.33 ave 3290 max 3258 min
Histogram: 1 0 0 0 1 2 1 0 0 1
Nghost:    6519.33 ave 6561 max 6497 min
Histogram: 2 0 1 0 2 0 0 0 0 1
Neighs:    195510 ave 200482 max 192943 min
Histogram: 1 2 1 0 0 1 0 0 0 1

Total # of neighbors = 1173061
Ave neighs/atom = 59.6917
Neighbor list builds = 495
Dangerous builds not checked
Setting up Verlet run ...
  Unit style    : metal
  Current step  : 773832
  Time step     : 0.001
Per MPI rank memory allocation (min/avg/max) = 5.574 | 5.86 | 6.005 Mbytes
Step Temp Press TotEng PotEng Enthalpy 
  773832      1865.79    263.67634   -43276.942   -48016.219   -43207.489 
  800004    1834.3284   -472.08961   -43453.717   -48113.078   -43577.954 
  840004    1828.6925   -508.53981   -43477.688   -48122.734   -43611.305 
Loop time of 1818.69 on 6 procs for 66172 steps with 19652 atoms

Performance: 3.144 ns/day, 7.635 hours/ns, 36.384 timesteps/s
99.8% CPU use with 6 MPI tasks x no OpenMP threads

MPI task timing breakdown:
Section |  min time  |  avg time  |  max time  |%varavg| %total
---------------------------------------------------------------
Pair    | 924.43     | 953.33     | 968.66     |  45.2 | 52.42
Neigh   | 717.71     | 726.65     | 740.51     |  25.9 | 39.95
Comm    | 97.412     | 111.24     | 126.58     |  81.8 |  6.12
Output  | 0.015752   | 0.015775   | 0.01587    |   0.0 |  0.00
Modify  | 21.791     | 22.13      | 22.567     |   6.7 |  1.22
Other   |            | 5.334      |            |       |  0.29

Nlocal:    3275.33 ave 3300 max 3251 min
Histogram: 1 0 1 1 0 1 0 0 0 2
Nghost:    6534.67 ave 6574 max 6504 min
Histogram: 2 1 0 0 0 0 1 0 1 1
Neighs:    196028 ave 200090 max 192296 min
Histogram: 2 0 1 0 0 0 1 0 0 2

Total # of neighbors = 1176171
Ave neighs/atom = 59.8499
Neighbor list builds = 66172
Dangerous builds not checked
Setting up Verlet run ...
  Unit style    : metal
  Current step  : 840004
  Time step     : 0.001
Per MPI rank memory allocation (min/avg/max) = 5.574 | 5.86 | 6.005 Mbytes
Step Temp Press TotEng PotEng Enthalpy 
  840004    1828.6925   -508.53981   -43477.688   -48122.734   -43611.305 
  840499    1811.5928   -151.87403   -43640.231   -48241.841   -43679.996 
Loop time of 13.3245 on 6 procs for 495 steps with 19652 atoms

Performance: 3.210 ns/day, 7.477 hours/ns, 37.150 timesteps/s
99.9% CPU use with 6 MPI tasks x no OpenMP threads

MPI task timing breakdown:
Section |  min time  |  avg time  |  max time  |%varavg| %total
---------------------------------------------------------------
Pair    | 6.6796     | 6.9709     | 7.1922     |   5.8 | 52.32
Neigh   | 5.1788     | 5.4065     | 5.5689     |   5.2 | 40.58
Comm    | 0.43873    | 0.75274    | 0.93961    |  18.5 |  5.65
Output  | 5.1022e-05 | 6.6678e-05 | 0.00011015 |   0.0 |  0.00
Modify  | 0.15088    | 0.15403    | 0.15847    |   0.7 |  1.16
Other   |            | 0.04017    |            |       |  0.30

Nlocal:    3275.33 ave 3289 max 3258 min
Histogram: 1 0 0 0 1 2 0 1 0 1
Nghost:    6547 ave 6577 max 6523 min
Histogram: 1 1 1 0 0 0 2 0 0 1
Neighs:    196629 ave 201323 max 193070 min
Histogram: 1 1 1 1 0 0 0 1 0 1

Total # of neighbors = 1179775
Ave neighs/atom = 60.0333
Neighbor list builds = 495
Dangerous builds not checked
Setting up Verlet run ...
  Unit style    : metal
  Current step  : 840499
  Time step     : 0.001
Per MPI rank memory allocation (min/avg/max) = 5.574 | 5.86 | 6.005 Mbytes
Step Temp Press TotEng PotEng Enthalpy 
  840499    1811.5928   -151.87403   -43640.231   -48241.841   -43679.996 
  866671    1800.2886    59.124741   -43772.765   -48345.662   -43757.356 
  906671    1793.8068    329.38838   -43730.748   -48287.181   -43644.733 
Loop time of 1812.5 on 6 procs for 66172 steps with 19652 atoms

Performance: 3.154 ns/day, 7.609 hours/ns, 36.509 timesteps/s
99.8% CPU use with 6 MPI tasks x no OpenMP threads

MPI task timing breakdown:
Section |  min time  |  avg time  |  max time  |%varavg| %total
---------------------------------------------------------------
Pair    | 928.94     | 955.4      | 967.77     |  40.2 | 52.71
Neigh   | 720.62     | 727.44     | 741.06     |  24.9 | 40.13
Comm    | 90.348     | 103.38     | 116.14     |  80.0 |  5.70
Output  | 0.015513   | 0.01553    | 0.015597   |   0.0 |  0.00
Modify  | 20.844     | 20.973     | 21.066     |   1.6 |  1.16
Other   |            | 5.294      |            |       |  0.29

Nlocal:    3275.33 ave 3299 max 3246 min
Histogram: 1 0 0 1 1 0 1 0 1 1
Nghost:    6548.83 ave 6584 max 6512 min
Histogram: 2 0 0 0 0 0 3 0 0 1
Neighs:    197339 ave 199433 max 193233 min
Histogram: 1 0 0 0 0 1 0 2 0 2

Total # of neighbors = 1184035
Ave neighs/atom = 60.2501
Neighbor list builds = 66172
Dangerous builds not checked
Setting up Verlet run ...
  Unit style    : metal
  Current step  : 906671
  Time step     : 0.001
Per MPI rank memory allocation (min/avg/max) = 5.574 | 5.86 | 6.005 Mbytes
Step Temp Press TotEng PotEng Enthalpy 
  906671    1793.8068    329.38838   -43730.748   -48287.181   -43644.733 
  907166    1777.8024    905.13639   -43911.359   -48427.139   -43676.266 
Loop time of 13.1242 on 6 procs for 495 steps with 19652 atoms

Performance: 3.259 ns/day, 7.365 hours/ns, 37.716 timesteps/s
99.9% CPU use with 6 MPI tasks x no OpenMP threads

MPI task timing breakdown:
Section |  min time  |  avg time  |  max time  |%varavg| %total
---------------------------------------------------------------
Pair    | 6.6881     | 6.9129     | 7.1111     |   5.3 | 52.67
Neigh   | 4.8993     | 5.1809     | 5.4414     |   9.3 | 39.48
Comm    | 0.50076    | 0.84135    | 1.0731     |  21.5 |  6.41
Output  | 5.7936e-05 | 0.00010165 | 0.00031495 |   0.0 |  0.00
Modify  | 0.14433    | 0.1496     | 0.15554    |   0.9 |  1.14
Other   |            | 0.03945    |            |       |  0.30

Nlocal:    3275.33 ave 3300 max 3252 min
Histogram: 2 0 0 0 1 1 0 0 0 2
Nghost:    6556.67 ave 6585 max 6533 min
Histogram: 1 1 1 0 0 1 0 1 0 1
Neighs:    198321 ave 202626 max 194933 min
Histogram: 1 0 2 0 0 1 1 0 0 1

Total # of neighbors = 1189925
Ave neighs/atom = 60.5498
Neighbor list builds = 495
Dangerous builds not checked
Setting up Verlet run ...
  Unit style    : metal
  Current step  : 907166
  Time step     : 0.001
Per MPI rank memory allocation (min/avg/max) = 5.574 | 5.86 | 6.005 Mbytes
Step Temp Press TotEng PotEng Enthalpy 
  907166    1777.8024    905.13639   -43911.359   -48427.139   -43676.266 
  933338     1761.725    27.934066   -44029.913   -48504.855   -44022.672 
  973338    1731.1949   -1512.3595   -44086.679   -48484.072    -44479.83 
Loop time of 1795.48 on 6 procs for 66172 steps with 19652 atoms

Performance: 3.184 ns/day, 7.537 hours/ns, 36.855 timesteps/s
99.9% CPU use with 6 MPI tasks x no OpenMP threads

MPI task timing breakdown:
Section |  min time  |  avg time  |  max time  |%varavg| %total
---------------------------------------------------------------
Pair    | 922.14     | 946.93     | 957.15     |  37.4 | 52.74
Neigh   | 706.47     | 720.01     | 731.51     |  29.5 | 40.10
Comm    | 92.74      | 103.25     | 116.45     |  87.0 |  5.75
Output  | 0.024621   | 0.024638   | 0.024704   |   0.0 |  0.00
Modify  | 19.952     | 20.058     | 20.144     |   1.7 |  1.12
Other   |            | 5.204      |            |       |  0.29

Nlocal:    3275.33 ave 3304 max 3237 min
Histogram: 1 0 0 1 0 1 0 1 1 1
Nghost:    6568.83 ave 6592 max 6554 min
Histogram: 1 2 1 0 0 0 0 0 1 1
Neighs:    198290 ave 203000 max 195520 min
Histogram: 1 1 2 0 0 1 0 0 0 1

Total # of neighbors = 1189737
Ave neighs/atom = 60.5403
Neighbor list builds = 66172
Dangerous builds not checked
Setting up Verlet run ...
  Unit style    : metal
  Current step  : 973338
  Time step     : 0.001
Per MPI rank memory allocation (min/avg/max) = 5.574 | 5.86 | 6.005 Mbytes
Step Temp Press TotEng PotEng Enthalpy 
  973338    1731.1949   -1512.3595   -44086.679   -48484.072    -44479.83 
  973833    1709.1251   -776.79908   -44255.944   -48597.277   -44456.863 
Loop time of 13.2188 on 6 procs for 495 steps with 19652 atoms

Performance: 3.235 ns/day, 7.418 hours/ns, 37.447 timesteps/s
99.9% CPU use with 6 MPI tasks x no OpenMP threads

MPI task timing breakdown:
Section |  min time  |  avg time  |  max time  |%varavg| %total
---------------------------------------------------------------
Pair    | 6.7475     | 6.9849     | 7.0832     |   4.3 | 52.84
Neigh   | 4.9979     | 5.2884     | 5.5336     |   8.3 | 40.01
Comm    | 0.52643    | 0.75666    | 0.96521    |  15.7 |  5.72
Output  | 5.8889e-05 | 7.2598e-05 | 0.00013399 |   0.0 |  0.00
Modify  | 0.14677    | 0.14979    | 0.15213    |   0.5 |  1.13
Other   |            | 0.03898    |            |       |  0.29

Nlocal:    3275.33 ave 3286 max 3267 min
Histogram: 2 0 0 1 0 1 0 1 0 1
Nghost:    6583.67 ave 6595 max 6567 min
Histogram: 1 0 0 1 0 0 1 1 1 1
Neighs:    199294 ave 202595 max 196254 min
Histogram: 1 0 2 0 1 0 0 0 0 2

Total # of neighbors = 1195764
Ave neighs/atom = 60.8469
Neighbor list builds = 495
Dangerous builds not checked
Setting up Verlet run ...
  Unit style    : metal
  Current step  : 973833
  Time step     : 0.001
Per MPI rank memory allocation (min/avg/max) = 5.574 | 5.86 | 6.005 Mbytes
Step Temp Press TotEng PotEng Enthalpy 
  973833    1709.1251   -776.79908   -44255.944   -48597.277   -44456.863 
 1000005    1698.8973    350.03749   -44365.938   -48681.292   -44275.869 
 1040005    1704.2633    308.51419   -44384.548   -48713.532   -44305.227 
Loop time of 1803.96 on 6 procs for 66172 steps with 19652 atoms

Performance: 3.169 ns/day, 7.573 hours/ns, 36.681 timesteps/s
99.8% CPU use with 6 MPI tasks x no OpenMP threads

MPI task timing breakdown:
Section |  min time  |  avg time  |  max time  |%varavg| %total
---------------------------------------------------------------
Pair    | 924.94     | 951.72     | 968.11     |  42.7 | 52.76
Neigh   | 708.14     | 719.83     | 736.83     |  34.8 | 39.90
Comm    | 89.165     | 106.96     | 117.13     |  98.4 |  5.93
Output  | 0.014714   | 0.01473    | 0.014797   |   0.0 |  0.00
Modify  | 20.036     | 20.229     | 20.433     |   3.0 |  1.12
Other   |            | 5.204      |            |       |  0.29

Nlocal:    3275.33 ave 3290 max 3250 min
Histogram: 1 0 0 0 0 0 1 3 0 1
Nghost:    6590.33 ave 6627 max 6549 min
Histogram: 1 0 0 1 1 0 1 0 1 1
Neighs:    200538 ave 204345 max 197833 min
Histogram: 1 0 1 2 0 1 0 0 0 1

Total # of neighbors = 1203230
Ave neighs/atom = 61.2268
Neighbor list builds = 66172
Dangerous builds not checked
Setting up Verlet run ...
  Unit style    : metal
  Current step  : 1040005
  Time step     : 0.001
Per MPI rank memory allocation (min/avg/max) = 5.574 | 5.86 | 6.005 Mbytes
Step Temp Press TotEng PotEng Enthalpy 
 1040005    1704.2633    308.51419   -44384.548   -48713.532   -44305.227 
 1040500    1661.7896    1502.3178   -44568.011   -48789.108   -44183.359 
Loop time of 13.0891 on 6 procs for 495 steps with 19652 atoms

Performance: 3.267 ns/day, 7.345 hours/ns, 37.818 timesteps/s
99.9% CPU use with 6 MPI tasks x no OpenMP threads

MPI task timing breakdown:
Section |  min time  |  avg time  |  max time  |%varavg| %total
---------------------------------------------------------------
Pair    | 6.7588     | 6.945      | 7.0095     |   3.2 | 53.06
Neigh   | 5.0097     | 5.2096     | 5.5131     |   7.8 | 39.80
Comm    | 0.38044    | 0.75025    | 0.90918    |  23.3 |  5.73
Output  | 5.6982e-05 | 6.5168e-05 | 9.6083e-05 |   0.0 |  0.00
Modify  | 0.1437     | 0.14617    | 0.15       |   0.6 |  1.12
Other   |            | 0.03807    |            |       |  0.29

Nlocal:    3275.33 ave 3284 max 3264 min
Histogram: 1 0 0 1 0 1 1 0 0 2
Nghost:    6630.33 ave 6645 max 6613 min
Histogram: 1 0 1 0 1 0 0 1 1 1
Neighs:    201352 ave 205793 max 198724 min
Histogram: 2 0 1 0 1 1 0 0 0 1

Total # of neighbors = 1208114
Ave neighs/atom = 61.4754
Neighbor list builds = 495
Dangerous builds not checked
Setting up Verlet run ...
  Unit style    : metal
  Current step  : 1040500
  Time step     : 0.001
Per MPI rank memory allocation (min/avg/max) = 5.574 | 5.86 | 6.005 Mbytes
Step Temp Press TotEng PotEng Enthalpy 
 1040500    1661.7896    1502.3178   -44568.011   -48789.108   -44183.359 
 1066672    1655.4477    192.67552   -44631.363   -48836.351   -44582.043 
 1106672    1643.1581   -467.31313   -44685.981   -48859.752    -44805.67 
Loop time of 2151.32 on 6 procs for 66172 steps with 19652 atoms

Performance: 2.658 ns/day, 9.031 hours/ns, 30.759 timesteps/s
96.6% CPU use with 6 MPI tasks x no OpenMP threads

MPI task timing breakdown:
Section |  min time  |  avg time  |  max time  |%varavg| %total
---------------------------------------------------------------
Pair    | 1117.6     | 1139.7     | 1155.4     |  33.2 | 52.97
Neigh   | 751.33     | 757.28     | 764.25     |  16.8 | 35.20
Comm    | 182.99     | 194.92     | 209.07     |  60.4 |  9.06
Output  | 0.014802   | 0.014821   | 0.014892   |   0.0 |  0.00
Modify  | 53.104     | 53.937     | 54.916     |   9.0 |  2.51
Other   |            | 5.519      |            |       |  0.26

Nlocal:    3275.33 ave 3290 max 3265 min
Histogram: 2 0 1 1 0 0 0 0 1 1
Nghost:    6605 ave 6646 max 6577 min
Histogram: 1 1 1 0 1 1 0 0 0 1
Neighs:    201352 ave 203643 max 199556 min
Histogram: 1 0 2 1 0 0 0 0 1 1

Total # of neighbors = 1208109
Ave neighs/atom = 61.4751
Neighbor list builds = 66172
Dangerous builds not checked
Setting up Verlet run ...
  Unit style    : metal
  Current step  : 1106672
  Time step     : 0.001
Per MPI rank memory allocation (min/avg/max) = 5.574 | 5.86 | 6.005 Mbytes
Step Temp Press TotEng PotEng Enthalpy 
 1106672    1643.1581   -467.31313   -44685.981   -48859.752    -44805.67 
 1107167    1611.1151   -572.13018   -44882.871    -48975.25   -45028.938 
Loop time of 15.2289 on 6 procs for 495 steps with 19652 atoms

Performance: 2.808 ns/day, 8.546 hours/ns, 32.504 timesteps/s
98.0% CPU use with 6 MPI tasks x no OpenMP threads

MPI task timing breakdown:
Section |  min time  |  avg time  |  max time  |%varavg| %total
---------------------------------------------------------------
Pair    | 7.7081     | 8.0514     | 8.3631     |   8.3 | 52.87
Neigh   | 5.4869     | 5.7113     | 5.903      |   5.6 | 37.50
Comm    | 0.89641    | 1.0995     | 1.2421     |  11.0 |  7.22
Output  | 5.2214e-05 | 8.7539e-05 | 0.00023198 |   0.0 |  0.00
Modify  | 0.30837    | 0.32357    | 0.33477    |   1.7 |  2.12
Other   |            | 0.04308    |            |       |  0.28

Nlocal:    3275.33 ave 3299 max 3251 min
Histogram: 1 0 0 1 1 1 0 1 0 1
Nghost:    6624.33 ave 6630 max 6615 min
Histogram: 1 0 0 1 0 0 0 1 2 1
Neighs:    202030 ave 203775 max 200533 min
Histogram: 1 0 1 1 1 0 1 0 0 1

Total # of neighbors = 1212183
Ave neighs/atom = 61.6824
Neighbor list builds = 495
Dangerous builds not checked
Setting up Verlet run ...
  Unit style    : metal
  Current step  : 1107167
  Time step     : 0.001
Per MPI rank memory allocation (min/avg/max) = 5.574 | 5.86 | 6.005 Mbytes
Step Temp Press TotEng PotEng Enthalpy 
 1107167    1611.1151   -572.13018   -44882.871    -48975.25   -45028.938 
 1133339    1591.9452     -1248.27   -44968.669   -49012.355   -45286.797 
 1173339     1587.275    266.88962   -45028.947    -49060.77   -44961.146 
Loop time of 2636.75 on 6 procs for 66172 steps with 19652 atoms

Performance: 2.168 ns/day, 11.069 hours/ns, 25.096 timesteps/s
93.3% CPU use with 6 MPI tasks x no OpenMP threads

MPI task timing breakdown:
Section |  min time  |  avg time  |  max time  |%varavg| %total
---------------------------------------------------------------
Pair    | 1373.2     | 1403.6     | 1418.7     |  38.6 | 53.23
Neigh   | 787.15     | 798.67     | 811.72     |  25.4 | 30.29
Comm    | 314.76     | 327.3      | 343.7      |  49.0 | 12.41
Output  | 0.049      | 0.04907    | 0.049306   |   0.1 |  0.00
Modify  | 99.419     | 101.23     | 102.59     |  11.5 |  3.84
Other   |            | 5.954      |            |       |  0.23

Nlocal:    3275.33 ave 3295 max 3242 min
Histogram: 1 0 0 0 1 0 0 2 1 1
Nghost:    6630.5 ave 6670 max 6568 min
Histogram: 1 0 0 0 0 2 0 2 0 1
Neighs:    203053 ave 208552 max 199028 min
Histogram: 2 0 0 1 0 2 0 0 0 1

Total # of neighbors = 1218317
Ave neighs/atom = 61.9946
Neighbor list builds = 66172
Dangerous builds not checked
Setting up Verlet run ...
  Unit style    : metal
  Current step  : 1173339
  Time step     : 0.001
Per MPI rank memory allocation (min/avg/max) = 5.574 | 5.86 | 6.005 Mbytes
Step Temp Press TotEng PotEng Enthalpy 
 1173339     1587.275    266.88962   -45028.947    -49060.77   -44961.146 
 1173834     1563.069    403.68805   -45165.682   -49136.019   -45063.436 
Loop time of 14.805 on 6 procs for 495 steps with 19652 atoms

Performance: 2.889 ns/day, 8.308 hours/ns, 33.435 timesteps/s
99.4% CPU use with 6 MPI tasks x no OpenMP threads

MPI task timing breakdown:
Section |  min time  |  avg time  |  max time  |%varavg| %total
---------------------------------------------------------------
Pair    | 7.4931     | 7.8214     | 8.0816     |   6.5 | 52.83
Neigh   | 5.3385     | 5.6776     | 5.8326     |   7.3 | 38.35
Comm    | 0.83203    | 1.0614     | 1.3174     |  17.1 |  7.17
Output  | 5.3167e-05 | 6.7393e-05 | 0.00012898 |   0.0 |  0.00
Modify  | 0.1832     | 0.20258    | 0.21771    |   2.8 |  1.37
Other   |            | 0.04196    |            |       |  0.28

Nlocal:    3275.33 ave 3304 max 3251 min
Histogram: 1 0 1 0 2 0 1 0 0 1
Nghost:    6630.67 ave 6647 max 6621 min
Histogram: 2 1 1 0 0 0 0 1 0 1
Neighs:    203617 ave 210390 max 200137 min
Histogram: 2 0 2 0 1 0 0 0 0 1

Total # of neighbors = 1221703
Ave neighs/atom = 62.1669
Neighbor list builds = 495
Dangerous builds not checked
Setting up Verlet run ...
  Unit style    : metal
  Current step  : 1173834
  Time step     : 0.001
Per MPI rank memory allocation (min/avg/max) = 5.574 | 5.86 | 6.005 Mbytes
Step Temp Press TotEng PotEng Enthalpy 
 1173834     1563.069    403.68805   -45165.682   -49136.019   -45063.436 
 1200006    1541.0291   -146.94834   -45312.767   -49227.122   -45349.903 
 1240006    1547.5272    707.83285   -45291.542   -49222.402    -45112.85 
Loop time of 1922.52 on 6 procs for 66172 steps with 19652 atoms

Performance: 2.974 ns/day, 8.070 hours/ns, 34.419 timesteps/s
99.2% CPU use with 6 MPI tasks x no OpenMP threads

MPI task timing breakdown:
Section |  min time  |  avg time  |  max time  |%varavg| %total
---------------------------------------------------------------
Pair    | 999.72     | 1027.3     | 1041.9     |  40.7 | 53.43
Neigh   | 755.17     | 761.99     | 773.5      |  21.3 | 39.64
Comm    | 94.584     | 102.13     | 117.97     |  76.0 |  5.31
Output  | 0.016192   | 0.016219   | 0.016327   |   0.0 |  0.00
Modify  | 25.198     | 25.502     | 25.72      |   3.8 |  1.33
Other   |            | 5.592      |            |       |  0.29

Nlocal:    3275.33 ave 3300 max 3264 min
Histogram: 1 3 0 0 1 0 0 0 0 1
Nghost:    6684.17 ave 6707 max 6673 min
Histogram: 2 0 2 1 0 0 0 0 0 1
Neighs:    204394 ave 209212 max 200709 min
Histogram: 1 1 1 0 0 1 0 1 0 1

Total # of neighbors = 1226363
Ave neighs/atom = 62.404
Neighbor list builds = 66172
Dangerous builds not checked
Setting up Verlet run ...
  Unit style    : metal
  Current step  : 1240006
  Time step     : 0.001
Per MPI rank memory allocation (min/avg/max) = 5.574 | 5.86 | 6.005 Mbytes
Step Temp Press TotEng PotEng Enthalpy 
 1240006    1547.5272    707.83285   -45291.542   -49222.402    -45112.85 
 1240501    1513.6832   -131.75062   -45499.443   -49344.336   -45532.612 
Loop time of 13.842 on 6 procs for 495 steps with 19652 atoms

Performance: 3.090 ns/day, 7.768 hours/ns, 35.761 timesteps/s
99.9% CPU use with 6 MPI tasks x no OpenMP threads

MPI task timing breakdown:
Section |  min time  |  avg time  |  max time  |%varavg| %total
---------------------------------------------------------------
Pair    | 7.2063     | 7.3612     | 7.4602     |   3.3 | 53.18
Neigh   | 5.259      | 5.5107     | 5.6903     |   7.3 | 39.81
Comm    | 0.54014    | 0.76371    | 0.92045    |  15.0 |  5.52
Output  | 5.4121e-05 | 6.6042e-05 | 0.00011206 |   0.0 |  0.00
Modify  | 0.15785    | 0.16468    | 0.16977    |   1.1 |  1.19
Other   |            | 0.04169    |            |       |  0.30

Nlocal:    3275.33 ave 3310 max 3258 min
Histogram: 2 1 0 1 1 0 0 0 0 1
Nghost:    6673.5 ave 6686 max 6656 min
Histogram: 1 1 0 0 1 0 0 0 0 3
Neighs:    205002 ave 210415 max 202036 min
Histogram: 3 0 0 1 0 0 1 0 0 1

Total # of neighbors = 1230009
Ave neighs/atom = 62.5895
Neighbor list builds = 495
Dangerous builds not checked
Setting up Verlet run ...
  Unit style    : metal
  Current step  : 1240501
  Time step     : 0.001
Per MPI rank memory allocation (min/avg/max) = 5.574 | 5.86 | 6.005 Mbytes
Step Temp Press TotEng PotEng Enthalpy 
 1240501    1513.6832   -131.75062   -45499.443   -49344.336   -45532.612 
 1266673    1491.6978   -244.35516    -45632.49   -49421.538    -45693.86 
 1306673      1510.66    917.72132   -45648.061   -49485.275   -45418.387 
Loop time of 1887.44 on 6 procs for 66172 steps with 19652 atoms

Performance: 3.029 ns/day, 7.923 hours/ns, 35.059 timesteps/s
99.2% CPU use with 6 MPI tasks x no OpenMP threads

MPI task timing breakdown:
Section |  min time  |  avg time  |  max time  |%varavg| %total
---------------------------------------------------------------
Pair    | 978.85     | 1006.9     | 1021.6     |  42.5 | 53.35
Neigh   | 745.85     | 758.18     | 774.43     |  32.5 | 40.17
Comm    | 80.783     | 91.581     | 103.12     |  90.2 |  4.85
Output  | 0.015394   | 0.015412   | 0.015493   |   0.0 |  0.00
Modify  | 24.866     | 25.229     | 25.569     |   5.3 |  1.34
Other   |            | 5.505      |            |       |  0.29

Nlocal:    3275.33 ave 3289 max 3259 min
Histogram: 1 0 1 0 0 1 0 1 1 1
Nghost:    6700.33 ave 6726 max 6666 min
Histogram: 1 0 0 0 1 2 0 0 0 2
Neighs:    206272 ave 209467 max 203111 min
Histogram: 2 0 0 0 1 0 1 0 0 2

Total # of neighbors = 1237629
Ave neighs/atom = 62.9773
Neighbor list builds = 66172
Dangerous builds not checked
Setting up Verlet run ...
  Unit style    : metal
  Current step  : 1306673
  Time step     : 0.001
Per MPI rank memory allocation (min/avg/max) = 5.574 | 5.86 | 6.005 Mbytes
Step Temp Press TotEng PotEng Enthalpy 
 1306673      1510.66    917.72132   -45648.061   -49485.275   -45418.387 
 1307168    1469.6871    115.06283    -45787.77   -49520.909   -45758.979 
Loop time of 13.3248 on 6 procs for 495 steps with 19652 atoms

Performance: 3.210 ns/day, 7.477 hours/ns, 37.149 timesteps/s
99.9% CPU use with 6 MPI tasks x no OpenMP threads

MPI task timing breakdown:
Section |  min time  |  avg time  |  max time  |%varavg| %total
---------------------------------------------------------------
Pair    | 6.942      | 7.0913     | 7.1588     |   2.6 | 53.22
Neigh   | 5.417      | 5.5231     | 5.6157     |   3.3 | 41.45
Comm    | 0.40219    | 0.50968    | 0.60433    |  11.3 |  3.83
Output  | 8.2016e-05 | 9.1473e-05 | 0.00012398 |   0.0 |  0.00
Modify  | 0.15629    | 0.15906    | 0.16123    |   0.5 |  1.19
Other   |            | 0.04156    |            |       |  0.31

Nlocal:    3275.33 ave 3295 max 3265 min
Histogram: 2 1 0 1 0 0 1 0 0 1
Nghost:    6700.17 ave 6732 max 6670 min
Histogram: 1 0 0 2 0 2 0 0 0 1
Neighs:    206274 ave 210390 max 201378 min
Histogram: 1 0 1 0 1 0 0 2 0 1

Total # of neighbors = 1237644
Ave neighs/atom = 62.978
Neighbor list builds = 495
Dangerous builds not checked
Setting up Verlet run ...
  Unit style    : metal
  Current step  : 1307168
  Time step     : 0.001
Per MPI rank memory allocation (min/avg/max) = 5.574 | 5.86 | 6.005 Mbytes
Step Temp Press TotEng PotEng Enthalpy 
 1307168    1469.6871    115.06283    -45787.77   -49520.909   -45758.979 
 1333340    1442.7056   -359.10577   -45965.835   -49630.439   -46055.383 
 1373340    1451.3507    843.69694   -45938.414   -49624.977   -45728.324 
Loop time of 1870.33 on 6 procs for 66172 steps with 19652 atoms

Performance: 3.057 ns/day, 7.851 hours/ns, 35.380 timesteps/s
99.5% CPU use with 6 MPI tasks x no OpenMP threads

MPI task timing breakdown:
Section |  min time  |  avg time  |  max time  |%varavg| %total
---------------------------------------------------------------
Pair    | 971.76     | 999.88     | 1014.8     |  42.7 | 53.46
Neigh   | 718.79     | 728.53     | 742.46     |  28.9 | 38.95
Comm    | 98.233     | 111.75     | 124.81     |  77.1 |  5.97
Output  | 0.015432   | 0.015464   | 0.015571   |   0.0 |  0.00
Modify  | 23.555     | 24.736     | 25.848     |  17.9 |  1.32
Other   |            | 5.418      |            |       |  0.29

Nlocal:    3275.33 ave 3294 max 3258 min
Histogram: 1 0 1 1 0 1 0 1 0 1
Nghost:    6686.83 ave 6719 max 6660 min
Histogram: 1 0 1 0 1 2 0 0 0 1
Neighs:    207355 ave 209878 max 202968 min
Histogram: 1 0 1 0 0 0 1 0 1 2

Total # of neighbors = 1244131
Ave neighs/atom = 63.3081
Neighbor list builds = 66172
Dangerous builds not checked
Setting up Verlet run ...
  Unit style    : metal
  Current step  : 1373340
  Time step     : 0.001
Per MPI rank memory allocation (min/avg/max) = 5.574 | 5.86 | 6.005 Mbytes
Step Temp Press TotEng PotEng Enthalpy 
 1373340    1451.3507    843.69694   -45938.414   -49624.977   -45728.324 
 1373835    1421.0132    255.37416   -46116.733   -49726.236    -46053.29 
Loop time of 14.9422 on 6 procs for 495 steps with 19652 atoms

Performance: 2.862 ns/day, 8.385 hours/ns, 33.128 timesteps/s
97.7% CPU use with 6 MPI tasks x no OpenMP threads

MPI task timing breakdown:
Section |  min time  |  avg time  |  max time  |%varavg| %total
---------------------------------------------------------------
Pair    | 8.2391     | 8.5587     | 8.8371     |   7.1 | 57.28
Neigh   | 4.8834     | 5.193      | 5.4357     |   7.7 | 34.75
Comm    | 0.72055    | 0.99069    | 1.1301     |  13.3 |  6.63
Output  | 5.6982e-05 | 6.8188e-05 | 0.00010896 |   0.0 |  0.00
Modify  | 0.14943    | 0.15909    | 0.16788    |   1.7 |  1.06
Other   |            | 0.04058    |            |       |  0.27

Nlocal:    3275.33 ave 3287 max 3258 min
Histogram: 1 0 1 0 1 0 0 0 0 3
Nghost:    6705.83 ave 6728 max 6685 min
Histogram: 2 0 1 0 0 1 0 0 0 2
Neighs:    207778 ave 210201 max 204423 min
Histogram: 2 0 0 0 0 1 0 0 0 3

Total # of neighbors = 1246667
Ave neighs/atom = 63.4372
Neighbor list builds = 495
Dangerous builds not checked
Setting up Verlet run ...
  Unit style    : metal
  Current step  : 1373835
  Time step     : 0.001
Per MPI rank memory allocation (min/avg/max) = 5.574 | 5.86 | 6.005 Mbytes
Step Temp Press TotEng PotEng Enthalpy 
 1373835    1421.0132    255.37416   -46116.733   -49726.236    -46053.29 
 1400007    1401.0869    173.38588   -46244.843   -49803.731    -46201.87 
 1440007    1399.5652   -591.82081    -46197.19   -49752.213   -46344.236 
Loop time of 1842.77 on 6 procs for 66172 steps with 19652 atoms

Performance: 3.103 ns/day, 7.736 hours/ns, 35.909 timesteps/s
99.6% CPU use with 6 MPI tasks x no OpenMP threads

MPI task timing breakdown:
Section |  min time  |  avg time  |  max time  |%varavg| %total
---------------------------------------------------------------
Pair    | 961.19     | 985.23     | 994.33     |  35.4 | 53.46
Neigh   | 703.64     | 714.28     | 725.01     |  25.6 | 38.76
Comm    | 107.46     | 116.09     | 129.41     |  71.6 |  6.30
Output  | 0.015529   | 0.015551   | 0.015646   |   0.0 |  0.00
Modify  | 21.646     | 21.904     | 22.269     |   4.7 |  1.19
Other   |            | 5.256      |            |       |  0.29

Nlocal:    3275.33 ave 3291 max 3248 min
Histogram: 1 0 0 1 0 0 1 0 0 3
Nghost:    6710.33 ave 6733 max 6680 min
Histogram: 1 0 0 1 0 1 1 0 1 1
Neighs:    207961 ave 209134 max 205916 min
Histogram: 1 0 1 0 0 0 1 0 0 3

Total # of neighbors = 1247767
Ave neighs/atom = 63.4931
Neighbor list builds = 66172
Dangerous builds not checked
Setting up Verlet run ...
  Unit style    : metal
  Current step  : 1440007
  Time step     : 0.001
Per MPI rank memory allocation (min/avg/max) = 5.574 | 5.86 | 6.005 Mbytes
Step Temp Press TotEng PotEng Enthalpy 
 1440007    1399.5652   -591.82081    -46197.19   -49752.213   -46344.236 
 1440502    1362.8171   -386.42558   -46445.764   -49907.444   -46541.239 
Loop time of 13.9394 on 6 procs for 495 steps with 19652 atoms

Performance: 3.068 ns/day, 7.822 hours/ns, 35.511 timesteps/s
99.4% CPU use with 6 MPI tasks x no OpenMP threads

MPI task timing breakdown:
Section |  min time  |  avg time  |  max time  |%varavg| %total
---------------------------------------------------------------
Pair    | 7.3482     | 7.6329     | 7.7398     |   4.8 | 54.76
Neigh   | 4.8775     | 5.228      | 5.6473     |  13.5 | 37.51
Comm    | 0.585      | 0.88595    | 1.1374     |  26.7 |  6.36
Output  | 5.5075e-05 | 8.742e-05  | 0.00022912 |   0.0 |  0.00
Modify  | 0.14862    | 0.15299    | 0.16098    |   1.0 |  1.10
Other   |            | 0.03937    |            |       |  0.28

Nlocal:    3275.33 ave 3287 max 3261 min
Histogram: 1 1 0 0 0 0 2 1 0 1
Nghost:    6704.33 ave 6751 max 6677 min
Histogram: 2 0 1 0 1 1 0 0 0 1
Neighs:    209018 ave 212180 max 207485 min
Histogram: 2 1 0 1 1 0 0 0 0 1

Total # of neighbors = 1254109
Ave neighs/atom = 63.8158
Neighbor list builds = 495
Dangerous builds not checked
Setting up Verlet run ...
  Unit style    : metal
  Current step  : 1440502
  Time step     : 0.001
Per MPI rank memory allocation (min/avg/max) = 5.574 | 5.86 | 6.005 Mbytes
Step Temp Press TotEng PotEng Enthalpy 
 1440502    1362.8171   -386.42558   -46445.764   -49907.444   -46541.239 
 1466674    1346.7032    17.461477   -46590.814   -50011.563   -46586.515 
 1506674    1354.5639     569.9452    -46588.19   -50028.906   -46448.061 
Loop time of 1827 on 6 procs for 66172 steps with 19652 atoms

Performance: 3.129 ns/day, 7.669 hours/ns, 36.219 timesteps/s
99.8% CPU use with 6 MPI tasks x no OpenMP threads

MPI task timing breakdown:
Section |  min time  |  avg time  |  max time  |%varavg| %total
---------------------------------------------------------------
Pair    | 952.48     | 978.29     | 987.24     |  38.1 | 53.55
Neigh   | 696.05     | 706.58     | 714.97     |  22.6 | 38.67
Comm    | 97.422     | 114.63     | 137.23     | 113.6 |  6.27
Output  | 0.015291   | 0.015308   | 0.015377   |   0.0 |  0.00
Modify  | 22.013     | 22.308     | 22.547     |   4.4 |  1.22
Other   |            | 5.174      |            |       |  0.28

Nlocal:    3275.33 ave 3293 max 3266 min
Histogram: 2 0 1 1 1 0 0 0 0 1
Nghost:    6746 ave 6779 max 6713 min
Histogram: 1 0 1 0 0 2 0 1 0 1
Neighs:    210063 ave 212945 max 206311 min
Histogram: 1 1 0 0 0 0 1 2 0 1

Total # of neighbors = 1260376
Ave neighs/atom = 64.1347
Neighbor list builds = 66172
Dangerous builds not checked
Setting up Verlet run ...
  Unit style    : metal
  Current step  : 1506674
  Time step     : 0.001
Per MPI rank memory allocation (min/avg/max) = 5.574 | 5.86 | 6.005 Mbytes
Step Temp Press TotEng PotEng Enthalpy 
 1506674    1354.5639     569.9452    -46588.19   -50028.906   -46448.061 
 1507169    1320.4091     73.69966   -46756.404   -50110.364   -46738.328 
Loop time of 13.1571 on 6 procs for 495 steps with 19652 atoms

Performance: 3.251 ns/day, 7.383 hours/ns, 37.622 timesteps/s
99.9% CPU use with 6 MPI tasks x no OpenMP threads

MPI task timing breakdown:
Section |  min time  |  avg time  |  max time  |%varavg| %total
---------------------------------------------------------------
Pair    | 6.883      | 7.0761     | 7.1712     |   3.8 | 53.78
Neigh   | 4.9058     | 5.1691     | 5.395      |   7.2 | 39.29
Comm    | 0.50119    | 0.72819    | 0.91302    |  17.6 |  5.53
Output  | 5.0068e-05 | 6.2068e-05 | 0.00011206 |   0.0 |  0.00
Modify  | 0.14045    | 0.14512    | 0.14947    |   0.8 |  1.10
Other   |            | 0.03854    |            |       |  0.29

Nlocal:    3275.33 ave 3296 max 3251 min
Histogram: 1 0 0 0 3 0 0 0 0 2
Nghost:    6748.17 ave 6783 max 6709 min
Histogram: 1 1 0 0 0 1 0 1 1 1
Neighs:    210716 ave 213670 max 206681 min
Histogram: 1 0 0 0 0 1 3 0 0 1

Total # of neighbors = 1264294
Ave neighs/atom = 64.3341
Neighbor list builds = 495
Dangerous builds not checked
Setting up Verlet run ...
  Unit style    : metal
  Current step  : 1507169
  Time step     : 0.001
Per MPI rank memory allocation (min/avg/max) = 5.574 | 5.86 | 6.005 Mbytes
Step Temp Press TotEng PotEng Enthalpy 
 1507169    1320.4091     73.69966   -46756.404   -50110.364   -46738.328 
 1533341    1293.1406   -332.92388       -46900   -50184.695   -46981.464 
 1573341    1295.6935    -1275.967   -46938.434   -50229.614   -47250.752 
Loop time of 1839.21 on 6 procs for 66172 steps with 19652 atoms

Performance: 3.109 ns/day, 7.721 hours/ns, 35.978 timesteps/s
99.6% CPU use with 6 MPI tasks x no OpenMP threads

MPI task timing breakdown:
Section |  min time  |  avg time  |  max time  |%varavg| %total
---------------------------------------------------------------
Pair    | 962.76     | 988.71     | 998.45     |  38.5 | 53.76
Neigh   | 700.8      | 712.15     | 720.54     |  23.3 | 38.72
Comm    | 101.1      | 111.97     | 129.44     |  86.8 |  6.09
Output  | 0.01561    | 0.015651   | 0.015829   |   0.1 |  0.00
Modify  | 20.635     | 21.141     | 21.49      |   7.5 |  1.15
Other   |            | 5.222      |            |       |  0.28

Nlocal:    3275.33 ave 3286 max 3264 min
Histogram: 1 0 0 1 1 1 0 1 0 1
Nghost:    6747.83 ave 6765 max 6719 min
Histogram: 1 0 0 0 0 1 1 1 1 1
Neighs:    211130 ave 213088 max 208916 min
Histogram: 1 1 0 0 1 0 1 0 1 1

Total # of neighbors = 1266779
Ave neighs/atom = 64.4606
Neighbor list builds = 66172
Dangerous builds not checked
Setting up Verlet run ...
  Unit style    : metal
  Current step  : 1573341
  Time step     : 0.001
Per MPI rank memory allocation (min/avg/max) = 5.574 | 5.86 | 6.005 Mbytes
Step Temp Press TotEng PotEng Enthalpy 
 1573341    1295.6935    -1275.967   -46938.434   -50229.614   -47250.752 
 1573836    1261.6861    11.021564   -47075.439   -50280.236    -47072.75 
Loop time of 13.76 on 6 procs for 495 steps with 19652 atoms

Performance: 3.108 ns/day, 7.722 hours/ns, 35.974 timesteps/s
98.1% CPU use with 6 MPI tasks x no OpenMP threads

MPI task timing breakdown:
Section |  min time  |  avg time  |  max time  |%varavg| %total
---------------------------------------------------------------
Pair    | 7.2935     | 7.5123     | 7.5944     |   3.7 | 54.60
Neigh   | 4.8696     | 5.0842     | 5.379      |   8.6 | 36.95
Comm    | 0.61983    | 0.97553    | 1.177      |  20.5 |  7.09
Output  | 5.6028e-05 | 6.9658e-05 | 0.00012088 |   0.0 |  0.00
Modify  | 0.14791    | 0.14977    | 0.15307    |   0.6 |  1.09
Other   |            | 0.03808    |            |       |  0.28

Nlocal:    3275.33 ave 3284 max 3267 min
Histogram: 1 1 0 0 0 2 0 1 0 1
Nghost:    6776.5 ave 6801 max 6744 min
Histogram: 1 0 0 1 0 0 2 1 0 1
Neighs:    211842 ave 214746 max 209471 min
Histogram: 1 0 2 1 0 0 0 1 0 1

Total # of neighbors = 1271050
Ave neighs/atom = 64.6779
Neighbor list builds = 495
Dangerous builds not checked
Setting up Verlet run ...
  Unit style    : metal
  Current step  : 1573836
  Time step     : 0.001
Per MPI rank memory allocation (min/avg/max) = 5.574 | 5.86 | 6.005 Mbytes
Step Temp Press TotEng PotEng Enthalpy 
 1573836    1261.6861    11.021564   -47075.439   -50280.236    -47072.75 
 1600008    1247.9798    614.51779   -47232.205   -50402.188   -47083.015 
 1640008    1249.4358    828.80661   -47209.712   -50383.393    -47008.43 
Loop time of 1827.93 on 6 procs for 66172 steps with 19652 atoms

Performance: 3.128 ns/day, 7.673 hours/ns, 36.201 timesteps/s
99.7% CPU use with 6 MPI tasks x no OpenMP threads

MPI task timing breakdown:
Section |  min time  |  avg time  |  max time  |%varavg| %total
---------------------------------------------------------------
Pair    | 959.11     | 984.16     | 994.58     |  37.2 | 53.84
Neigh   | 664.84     | 668.94     | 671.87     |  10.2 | 36.60
Comm    | 134        | 146.47     | 168.38     |  90.7 |  8.01
Output  | 0.015733   | 0.015752   | 0.015804   |   0.0 |  0.00
Modify  | 23.007     | 23.256     | 23.645     |   5.6 |  1.27
Other   |            | 5.079      |            |       |  0.28

Nlocal:    3275.33 ave 3313 max 3258 min
Histogram: 1 2 2 0 0 0 0 0 0 1
Nghost:    6777.17 ave 6801 max 6748 min
Histogram: 1 1 0 0 0 0 2 0 1 1
Neighs:    212897 ave 215238 max 209764 min
Histogram: 2 0 0 0 0 1 0 0 1 2

Total # of neighbors = 1277380
Ave neighs/atom = 65
Neighbor list builds = 66172
Dangerous builds not checked
Setting up Verlet run ...
  Unit style    : metal
  Current step  : 1640008
  Time step     : 0.001
Per MPI rank memory allocation (min/avg/max) = 5.574 | 5.86 | 6.005 Mbytes
Step Temp Press TotEng PotEng Enthalpy 
 1640008    1249.4358    828.80661   -47209.712   -50383.393    -47008.43 
 1640503    1221.4255   -38.458671   -47403.475   -50506.007   -47412.789 
Loop time of 13.1822 on 6 procs for 495 steps with 19652 atoms

Performance: 3.244 ns/day, 7.397 hours/ns, 37.551 timesteps/s
99.9% CPU use with 6 MPI tasks x no OpenMP threads

MPI task timing breakdown:
Section |  min time  |  avg time  |  max time  |%varavg| %total
---------------------------------------------------------------
Pair    | 6.9926     | 7.1663     | 7.3352     |   4.9 | 54.36
Neigh   | 4.5051     | 4.7998     | 5.4049     |  14.3 | 36.41
Comm    | 0.52513    | 1.0378     | 1.2182     |  23.8 |  7.87
Output  | 5.6982e-05 | 6.5923e-05 | 9.8944e-05 |   0.0 |  0.00
Modify  | 0.13059    | 0.14147    | 0.15434    |   2.2 |  1.07
Other   |            | 0.03678    |            |       |  0.28

Nlocal:    3275.33 ave 3305 max 3249 min
Histogram: 2 0 1 0 0 0 1 0 1 1
Nghost:    6794 ave 6849 max 6745 min
Histogram: 1 0 1 0 2 0 0 1 0 1
Neighs:    213500 ave 217989 max 210269 min
Histogram: 1 2 0 0 0 1 1 0 0 1

Total # of neighbors = 1281001
Ave neighs/atom = 65.1843
Neighbor list builds = 495
Dangerous builds not checked
Setting up Verlet run ...
  Unit style    : metal
  Current step  : 1640503
  Time step     : 0.001
Per MPI rank memory allocation (min/avg/max) = 5.574 | 5.86 | 6.005 Mbytes
Step Temp Press TotEng PotEng Enthalpy 
 1640503    1221.4255   -38.458671   -47403.475   -50506.007   -47412.789 
 1666675    1200.6166    937.18209   -47565.754   -50615.429    -47339.81 
 1706675    1207.8513    623.93448   -47568.505   -50636.558   -47418.082 
Loop time of 1879.02 on 6 procs for 66172 steps with 19652 atoms

Performance: 3.043 ns/day, 7.888 hours/ns, 35.216 timesteps/s
99.8% CPU use with 6 MPI tasks x no OpenMP threads

MPI task timing breakdown:
Section |  min time  |  avg time  |  max time  |%varavg| %total
---------------------------------------------------------------
Pair    | 992.04     | 1018.8     | 1030.8     |  39.6 | 54.22
Neigh   | 719.02     | 726.86     | 739.75     |  24.3 | 38.68
Comm    | 96.359     | 106.9      | 120.73     |  80.3 |  5.69
Output  | 0.016258   | 0.016293   | 0.016427   |   0.0 |  0.00
Modify  | 20.84      | 20.96      | 21.05      |   1.6 |  1.12
Other   |            | 5.44       |            |       |  0.29

Nlocal:    3275.33 ave 3288 max 3248 min
Histogram: 1 0 0 0 0 1 0 0 2 2
Nghost:    6790.33 ave 6805 max 6762 min
Histogram: 1 0 0 1 0 0 0 1 1 2
Neighs:    214564 ave 216741 max 211359 min
Histogram: 1 0 0 0 2 0 0 1 0 2

Total # of neighbors = 1287383
Ave neighs/atom = 65.509
Neighbor list builds = 66172
Dangerous builds not checked
Setting up Verlet run ...
  Unit style    : metal
  Current step  : 1706675
  Time step     : 0.001
Per MPI rank memory allocation (min/avg/max) = 5.574 | 5.86 | 6.005 Mbytes
Step Temp Press TotEng PotEng Enthalpy 
 1706675    1207.8513    623.93448   -47568.505   -50636.558   -47418.082 
 1707170    1171.5557   -390.10759   -47744.731    -50720.59   -47838.613 
Loop time of 13.7543 on 6 procs for 495 steps with 19652 atoms

Performance: 3.109 ns/day, 7.718 hours/ns, 35.989 timesteps/s
99.9% CPU use with 6 MPI tasks x no OpenMP threads

MPI task timing breakdown:
Section |  min time  |  avg time  |  max time  |%varavg| %total
---------------------------------------------------------------
Pair    | 7.2545     | 7.4524     | 7.5914     |   4.1 | 54.18
Neigh   | 5.4145     | 5.5279     | 5.6736     |   4.2 | 40.19
Comm    | 0.41391    | 0.57545    | 0.66437    |  11.6 |  4.18
Output  | 5.0068e-05 | 6.2029e-05 | 0.0001111  |   0.0 |  0.00
Modify  | 0.15045    | 0.15639    | 0.16232    |   1.1 |  1.14
Other   |            | 0.04215    |            |       |  0.31

Nlocal:    3275.33 ave 3294 max 3264 min
Histogram: 1 0 2 1 1 0 0 0 0 1
Nghost:    6780.33 ave 6834 max 6740 min
Histogram: 1 0 1 1 1 1 0 0 0 1
Neighs:    214821 ave 219642 max 211501 min
[...]
Loop time of 13.1632 on 6 procs for 495 steps with 19652 atoms

Performance: 3.249 ns/day, 7.387 hours/ns, 37.605 timesteps/s
99.9% CPU use with 6 MPI tasks x no OpenMP threads

MPI task timing breakdown:
Section |  min time  |  avg time  |  max time  |%varavg| %total
---------------------------------------------------------------
Pair    | 6.9445     | 7.1243     | 7.2574     |   3.8 | 54.12
Neigh   | 4.4942     | 4.739      | 5.0979     |  10.9 | 36.00
Comm    | 0.9138     | 1.1329     | 1.3348     |  15.1 |  8.61
Output  | 7.7009e-05 | 0.00010522 | 0.00017715 |   0.0 |  0.00
Modify  | 0.12546    | 0.13158    | 0.1377     |   1.2 |  1.00
Other   |            | 0.03536    |            |       |  0.27

Nlocal:    3275.33 ave 3287 max 3263 min
Histogram: 1 1 0 0 0 2 0 0 1 1
Nghost:    7189.5 ave 7213 max 7143 min
Histogram: 1 0 0 0 1 0 0 2 0 2
Neighs:    238916 ave 243531 max 235238 min
Histogram: 2 0 0 2 0 0 0 0 1 1

Total # of neighbors = 1433498
Ave neighs/atom = 72.9441
Neighbor list builds = 495
Dangerous builds not checked
Setting up Verlet run ...
  Unit style    : metal
  Current step  : 2707175
  Time step     : 0.001
Per MPI rank memory allocation (min/avg/max) = 5.574 | 5.861 | 6.007 Mbytes
Step Temp Press TotEng PotEng Enthalpy 
 2707175     422.2229   -249.61567   -53502.908   -54575.392   -53556.605 
 2733347    400.06945    278.52281   -53691.487   -54707.699   -53631.803 
 2773347     402.5547    240.79539   -53758.327   -54780.853   -53706.809 
Loop time of 1745.12 on 6 procs for 66172 steps with 19652 atoms

Performance: 3.276 ns/day, 7.326 hours/ns, 37.918 timesteps/s
99.6% CPU use with 6 MPI tasks x no OpenMP threads

MPI task timing breakdown:
Section |  min time  |  avg time  |  max time  |%varavg| %total
---------------------------------------------------------------
Pair    | 928.78     | 945.04     | 951.77     |  24.7 | 54.15
Neigh   | 622.65     | 631.55     | 639.11     |  24.1 | 36.19
Comm    | 136.26     | 146.2      | 155.67     |  57.8 |  8.38
Output  | 0.014673   | 0.01469    | 0.014761   |   0.0 |  0.00
Modify  | 17.602     | 17.666     | 17.77      |   1.6 |  1.01
Other   |            | 4.653      |            |       |  0.27

Nlocal:    3275.33 ave 3290 max 3265 min
Histogram: 3 0 0 0 1 0 0 0 1 1
Nghost:    7186 ave 7214 max 7148 min
Histogram: 1 0 0 0 2 0 1 0 0 2
Neighs:    238792 ave 244162 max 233883 min
Histogram: 2 0 0 1 0 0 1 1 0 1

Total # of neighbors = 1432749
Ave neighs/atom = 72.906
Neighbor list builds = 66172
Dangerous builds not checked
Setting up Verlet run ...
  Unit style    : metal
  Current step  : 2773347
  Time step     : 0.001
Per MPI rank memory allocation (min/avg/max) = 5.574 | 5.862 | 6.007 Mbytes
Step Temp Press TotEng PotEng Enthalpy 
 2773347     402.5547    240.79539   -53758.327   -54780.853   -53706.809 
 2773842    371.23064    124.78988   -53909.167   -54852.127   -53882.517 
Loop time of 14.9442 on 6 procs for 495 steps with 19652 atoms

Performance: 2.862 ns/day, 8.386 hours/ns, 33.123 timesteps/s
99.1% CPU use with 6 MPI tasks x no OpenMP threads

MPI task timing breakdown:
Section |  min time  |  avg time  |  max time  |%varavg| %total
---------------------------------------------------------------
Pair    | 7.869      | 8.1018     | 8.188      |   3.8 | 54.21
Neigh   | 5.624      | 5.7088     | 5.8039     |   2.2 | 38.20
Comm    | 0.83364    | 0.93312    | 1.0712     |   9.3 |  6.24
Output  | 5.0068e-05 | 6.5327e-05 | 0.00011206 |   0.0 |  0.00
Modify  | 0.15647    | 0.157      | 0.158      |   0.1 |  1.05
Other   |            | 0.04343    |            |       |  0.29

Nlocal:    3275.33 ave 3282 max 3263 min
Histogram: 1 0 0 1 0 0 0 1 1 2
Nghost:    7202.33 ave 7242 max 7170 min
Histogram: 2 0 0 1 0 1 1 0 0 1
Neighs:    239126 ave 243266 max 234817 min
Histogram: 2 0 0 0 0 1 1 0 1 1

Total # of neighbors = 1434754
Ave neighs/atom = 73.008
Neighbor list builds = 495
Dangerous builds not checked
Setting up Verlet run ...
  Unit style    : metal
  Current step  : 2773842
  Time step     : 0.001
Per MPI rank memory allocation (min/avg/max) = 5.574 | 5.862 | 6.007 Mbytes
Step Temp Press TotEng PotEng Enthalpy 
 2773842    371.23064    124.78988   -53909.167   -54852.127   -53882.517 
 2800014    347.57403    416.57585   -54040.879   -54923.748   -53952.103 
 2840014     347.5116   -1179.2452   -54047.786   -54930.497   -54299.445 
Loop time of 2003.13 on 6 procs for 66172 steps with 19652 atoms

Performance: 2.854 ns/day, 8.409 hours/ns, 33.034 timesteps/s
99.6% CPU use with 6 MPI tasks x no OpenMP threads

MPI task timing breakdown:
Section |  min time  |  avg time  |  max time  |%varavg| %total
---------------------------------------------------------------
Pair    | 1051.6     | 1077       | 1089.1     |  39.9 | 53.77
Neigh   | 762.89     | 771.41     | 780.98     |  21.2 | 38.51
Comm    | 111.65     | 126.93     | 144.18     | 109.9 |  6.34
Output  | 0.015585   | 0.015612   | 0.015728   |   0.0 |  0.00
Modify  | 21.848     | 21.958     | 22.074     |   1.8 |  1.10
Other   |            | 5.831      |            |       |  0.29

Nlocal:    3275.33 ave 3297 max 3265 min
Histogram: 2 0 2 0 1 0 0 0 0 1
Nghost:    7207.17 ave 7253 max 7178 min
Histogram: 2 0 2 0 0 0 0 0 1 1
Neighs:    239252 ave 244106 max 234166 min
Histogram: 1 1 0 1 0 1 0 0 0 2

Total # of neighbors = 1435514
Ave neighs/atom = 73.0467
Neighbor list builds = 66172
Dangerous builds not checked
Setting up Verlet run ...
  Unit style    : metal
  Current step  : 2840014
  Time step     : 0.001
Per MPI rank memory allocation (min/avg/max) = 5.574 | 5.862 | 6.007 Mbytes
Step Temp Press TotEng PotEng Enthalpy 
 2840014     347.5116   -1179.2452   -54047.786   -54930.497   -54299.445 
 2840509    322.30016    625.41821   -54187.814   -55006.486   -54054.861 
Loop time of 14.6776 on 6 procs for 495 steps with 19652 atoms

Performance: 2.914 ns/day, 8.237 hours/ns, 33.725 timesteps/s
99.0% CPU use with 6 MPI tasks x no OpenMP threads

MPI task timing breakdown:
Section |  min time  |  avg time  |  max time  |%varavg| %total
---------------------------------------------------------------
Pair    | 7.8003     | 7.9828     | 8.0537     |   3.1 | 54.39
Neigh   | 5.6306     | 5.7572     | 5.8691     |   3.7 | 39.22
Comm    | 0.55003    | 0.73804    | 0.90338    |  14.0 |  5.03
Output  | 5.4121e-05 | 9.1553e-05 | 0.00026894 |   0.0 |  0.00
Modify  | 0.15393    | 0.15636    | 0.16079    |   0.5 |  1.07
Other   |            | 0.04322    |            |       |  0.29

Nlocal:    3275.33 ave 3287 max 3251 min
Histogram: 1 0 0 0 0 1 0 1 2 1
Nghost:    7218.83 ave 7260 max 7195 min
Histogram: 1 1 2 0 0 1 0 0 0 1
Neighs:    240062 ave 244022 max 234086 min
Histogram: 1 0 0 1 0 0 1 1 0 2

Total # of neighbors = 1440373
Ave neighs/atom = 73.294
Neighbor list builds = 495
Dangerous builds not checked
Setting up Verlet run ...
  Unit style    : metal
  Current step  : 2840509
  Time step     : 0.001
Per MPI rank memory allocation (min/avg/max) = 5.574 | 5.862 | 6.007 Mbytes
Step Temp Press TotEng PotEng Enthalpy 
 2840509    322.30016    625.41821   -54187.814   -55006.486   -54054.861 
 2866681    299.96791    912.71536   -54308.582   -55070.528    -54114.92 
 2906681    299.05093    987.11405   -54321.709   -55081.325   -54112.333 
Loop time of 1999.88 on 6 procs for 66172 steps with 19652 atoms

Performance: 2.859 ns/day, 8.395 hours/ns, 33.088 timesteps/s
99.8% CPU use with 6 MPI tasks x no OpenMP threads

MPI task timing breakdown:
Section |  min time  |  avg time  |  max time  |%varavg| %total
---------------------------------------------------------------
Pair    | 1049.3     | 1077       | 1089.5     |  40.6 | 53.85
Neigh   | 767.95     | 776.32     | 786.59     |  25.2 | 38.82
Comm    | 99.646     | 116.86     | 134.58     | 115.8 |  5.84
Output  | 0.015446   | 0.015474   | 0.015602   |   0.0 |  0.00
Modify  | 23.404     | 23.77      | 24.081     |   5.2 |  1.19
Other   |            | 5.927      |            |       |  0.30

Nlocal:    3275.33 ave 3286 max 3248 min
Histogram: 1 0 0 0 0 0 0 1 3 1
Nghost:    7216 ave 7255 max 7183 min
Histogram: 1 1 1 0 1 0 0 0 0 2
Neighs:    240384 ave 245584 max 233717 min
Histogram: 1 0 0 1 0 1 0 1 1 1

Total # of neighbors = 1442302
Ave neighs/atom = 73.3921
Neighbor list builds = 66172
Dangerous builds not checked
Setting up Verlet run ...
  Unit style    : metal
  Current step  : 2906681
  Time step     : 0.001
Per MPI rank memory allocation (min/avg/max) = 5.574 | 5.863 | 6.009 Mbytes
Step Temp Press TotEng PotEng Enthalpy 
 2906681    299.05093    987.11405   -54321.709   -55081.325   -54112.333 
 2907176    271.21316   -126.53486   -54452.493   -55141.399   -54479.318 
Loop time of 13.9904 on 6 procs for 495 steps with 19652 atoms

Performance: 3.057 ns/day, 7.851 hours/ns, 35.381 timesteps/s
100.0% CPU use with 6 MPI tasks x no OpenMP threads

MPI task timing breakdown:
Section |  min time  |  avg time  |  max time  |%varavg| %total
---------------------------------------------------------------
Pair    | 7.3127     | 7.5007     | 7.5921     |   3.6 | 53.61
Neigh   | 5.3716     | 5.5027     | 5.7172     |   4.9 | 39.33
Comm    | 0.67459    | 0.80013    | 0.94098    |   9.7 |  5.72
Output  | 4.3869e-05 | 5.6028e-05 | 8.893e-05  |   0.0 |  0.00
Modify  | 0.14424    | 0.14631    | 0.14939    |   0.5 |  1.05
Other   |            | 0.0405     |            |       |  0.29

Nlocal:    3275.33 ave 3293 max 3251 min
Histogram: 1 0 0 0 1 1 1 0 1 1
Nghost:    7217.17 ave 7243 max 7189 min
Histogram: 2 0 0 0 0 1 1 0 1 1
Neighs:    240375 ave 244491 max 234341 min
Histogram: 1 0 1 0 0 0 2 0 0 2

Total # of neighbors = 1442252
Ave neighs/atom = 73.3896
Neighbor list builds = 495
Dangerous builds not checked
Setting up Verlet run ...
  Unit style    : metal
  Current step  : 2907176
  Time step     : 0.001
Per MPI rank memory allocation (min/avg/max) = 5.574 | 5.863 | 6.009 Mbytes
Step Temp Press TotEng PotEng Enthalpy 
 2907176    271.21316   -126.53486   -54452.493   -55141.399   -54479.318 
 2933348    252.08621    811.86536   -54573.786   -55214.108   -54402.147 
 2973348    249.16846    622.93566   -54579.547   -55212.458   -54447.817 
Loop time of 1964.65 on 6 procs for 66172 steps with 19652 atoms

Performance: 2.910 ns/day, 8.247 hours/ns, 33.681 timesteps/s
99.8% CPU use with 6 MPI tasks x no OpenMP threads

MPI task timing breakdown:
Section |  min time  |  avg time  |  max time  |%varavg| %total
---------------------------------------------------------------
Pair    | 1029.4     | 1055.3     | 1065       |  38.7 | 53.71
Neigh   | 751.14     | 759.59     | 772.75     |  25.5 | 38.66
Comm    | 109.95     | 121.1      | 134.45     |  86.9 |  6.16
Output  | 0.016063   | 0.016082   | 0.016162   |   0.0 |  0.00
Modify  | 22.695     | 23.01      | 23.217     |   4.0 |  1.17
Other   |            | 5.669      |            |       |  0.29

Nlocal:    3275.33 ave 3286 max 3258 min
Histogram: 1 0 0 0 1 0 2 0 0 2
Nghost:    7230.5 ave 7274 max 7205 min
Histogram: 2 1 1 0 0 0 0 0 1 1
Neighs:    240897 ave 246409 max 235189 min
Histogram: 1 0 1 0 1 1 0 0 1 1

Total # of neighbors = 1445381
Ave neighs/atom = 73.5488
Neighbor list builds = 66172
Dangerous builds not checked
Setting up Verlet run ...
  Unit style    : metal
  Current step  : 2973348
  Time step     : 0.001
Per MPI rank memory allocation (min/avg/max) = 5.575 | 5.864 | 6.009 Mbytes
Step Temp Press TotEng PotEng Enthalpy 
 2973348    249.16846    622.93566   -54579.547   -55212.458   -54447.817 
 2973843    226.47973    586.43951   -54712.275   -55287.554   -54588.493 
Loop time of 14.672 on 6 procs for 495 steps with 19652 atoms

Performance: 2.915 ns/day, 8.233 hours/ns, 33.738 timesteps/s
99.9% CPU use with 6 MPI tasks x no OpenMP threads

MPI task timing breakdown:
Section |  min time  |  avg time  |  max time  |%varavg| %total
---------------------------------------------------------------
Pair    | 7.697      | 7.8922     | 7.9766     |   3.4 | 53.79
Neigh   | 5.5883     | 5.6877     | 5.7758     |   3.2 | 38.77
Comm    | 0.74351    | 0.89088    | 1.0259     |  11.3 |  6.07
Output  | 5.1975e-05 | 6.0995e-05 | 9.799e-05  |   0.0 |  0.00
Modify  | 0.15546    | 0.15786    | 0.15991    |   0.4 |  1.08
Other   |            | 0.04328    |            |       |  0.29

Nlocal:    3275.33 ave 3283 max 3265 min
Histogram: 1 0 0 2 0 0 1 0 0 2
Nghost:    7245.83 ave 7280 max 7209 min
Histogram: 1 0 2 0 0 0 1 0 0 2
Neighs:    241226 ave 245313 max 236394 min
Histogram: 1 1 0 0 0 1 1 0 0 2

Total # of neighbors = 1447356
Ave neighs/atom = 73.6493
Neighbor list builds = 495
Dangerous builds not checked
Setting up Verlet run ...
  Unit style    : metal
  Current step  : 2973843
  Time step     : 0.001
Per MPI rank memory allocation (min/avg/max) = 5.575 | 5.864 | 6.009 Mbytes
Step Temp Press TotEng PotEng Enthalpy 
 2973843    226.47973    586.43951   -54712.275   -55287.554   -54588.493 
 3000015    201.65902    261.54424   -54835.804   -55348.036   -54780.668 
 3040015    200.88802   -362.96623   -54839.251   -55349.525   -54915.811 
Loop time of 1957.69 on 6 procs for 66172 steps with 19652 atoms

Performance: 2.920 ns/day, 8.218 hours/ns, 33.801 timesteps/s
99.7% CPU use with 6 MPI tasks x no OpenMP threads

MPI task timing breakdown:
Section |  min time  |  avg time  |  max time  |%varavg| %total
---------------------------------------------------------------
Pair    | 1030.1     | 1055.1     | 1065.7     |  37.5 | 53.90
Neigh   | 755.08     | 762.65     | 775.82     |  26.6 | 38.96
Comm    | 100.15     | 113.24     | 125.66     |  86.3 |  5.78
Output  | 0.015861   | 0.015882   | 0.015971   |   0.0 |  0.00
Modify  | 20.906     | 20.975     | 21.057     |   1.2 |  1.07
Other   |            | 5.705      |            |       |  0.29

Nlocal:    3275.33 ave 3283 max 3262 min
Histogram: 1 0 0 0 1 1 0 0 1 2
Nghost:    7238.17 ave 7282 max 7214 min
Histogram: 2 1 0 1 0 0 1 0 0 1
Neighs:    241354 ave 246175 max 236109 min
Histogram: 1 0 1 0 1 0 1 1 0 1

Total # of neighbors = 1448125
Ave neighs/atom = 73.6884
Neighbor list builds = 66172
Dangerous builds not checked
Setting up Verlet run ...
  Unit style    : metal
  Current step  : 3040015
  Time step     : 0.001
Per MPI rank memory allocation (min/avg/max) = 5.575 | 5.864 | 6.009 Mbytes
Step Temp Press TotEng PotEng Enthalpy 
 3040015    200.88802   -362.96623   -54839.251   -55349.525   -54915.811 
 3040510    176.15903    450.75063   -54966.936   -55414.396     -54872.1 
Loop time of 14.8569 on 6 procs for 495 steps with 19652 atoms

Performance: 2.879 ns/day, 8.337 hours/ns, 33.318 timesteps/s
99.7% CPU use with 6 MPI tasks x no OpenMP threads

MPI task timing breakdown:
Section |  min time  |  avg time  |  max time  |%varavg| %total
---------------------------------------------------------------
Pair    | 7.8152     | 8.0305     | 8.1236     |   3.7 | 54.05
Neigh   | 5.5502     | 5.701      | 5.8388     |   5.3 | 38.37
Comm    | 0.72999    | 0.91774    | 1.1124     |  14.6 |  6.18
Output  | 5.4836e-05 | 7.1804e-05 | 0.00011492 |   0.0 |  0.00
Modify  | 0.16098    | 0.16319    | 0.16537    |   0.4 |  1.10
Other   |            | 0.04439    |            |       |  0.30

Nlocal:    3275.33 ave 3284 max 3260 min
Histogram: 1 0 0 0 0 2 0 1 0 2
Nghost:    7249.67 ave 7282 max 7232 min
Histogram: 2 2 0 0 0 0 0 0 1 1
Neighs:    241820 ave 247249 max 236441 min
Histogram: 1 1 0 1 0 0 1 0 1 1

Total # of neighbors = 1450922
Ave neighs/atom = 73.8308
Neighbor list builds = 495
Dangerous builds not checked
Setting up Verlet run ...
  Unit style    : metal
  Current step  : 3040510
  Time step     : 0.001
Per MPI rank memory allocation (min/avg/max) = 5.575 | 5.864 | 6.009 Mbytes
Step Temp Press TotEng PotEng Enthalpy 
 3040510    176.15903    450.75063   -54966.936   -55414.396     -54872.1 
 3066682    149.44714       287.72   -55104.245   -55483.854   -55043.803 
 3106682    149.00839   -198.81548    -55103.31   -55481.805   -55145.098 
Loop time of 1998.93 on 6 procs for 66172 steps with 19652 atoms

Performance: 2.860 ns/day, 8.391 hours/ns, 33.104 timesteps/s
99.5% CPU use with 6 MPI tasks x no OpenMP threads

MPI task timing breakdown:
Section |  min time  |  avg time  |  max time  |%varavg| %total
---------------------------------------------------------------
Pair    | 1047.7     | 1077       | 1088       |  43.5 | 53.88
Neigh   | 764.58     | 771.87     | 784.79     |  26.1 | 38.61
Comm    | 109.18     | 122.23     | 138.5      | 103.7 |  6.11
Output  | 0.015609   | 0.015633   | 0.01573    |   0.0 |  0.00
Modify  | 21.514     | 21.856     | 22.061     |   5.2 |  1.09
Other   |            | 5.945      |            |       |  0.30

Nlocal:    3275.33 ave 3291 max 3258 min
Histogram: 1 0 0 1 0 2 1 0 0 1
Nghost:    7243.5 ave 7300 max 7216 min
Histogram: 3 1 0 0 0 0 1 0 0 1
Neighs:    241928 ave 246732 max 236292 min
Histogram: 1 1 0 0 1 0 1 0 0 2

Total # of neighbors = 1451571
Ave neighs/atom = 73.8638
Neighbor list builds = 66172
Dangerous builds not checked
Setting up Verlet run ...
  Unit style    : metal
  Current step  : 3106682
  Time step     : 0.001
Per MPI rank memory allocation (min/avg/max) = 5.575 | 5.864 | 6.009 Mbytes
Step Temp Press TotEng PotEng Enthalpy 
 3106682    149.00839   -198.81548    -55103.31   -55481.805   -55145.098 
 3107177    127.84464   -110.48533   -55220.783   -55545.521   -55243.965 
Loop time of 15.5068 on 6 procs for 495 steps with 19652 atoms

Performance: 2.758 ns/day, 8.702 hours/ns, 31.922 timesteps/s
99.9% CPU use with 6 MPI tasks x no OpenMP threads

MPI task timing breakdown:
Section |  min time  |  avg time  |  max time  |%varavg| %total
---------------------------------------------------------------
Pair    | 8.0655     | 8.3572     | 8.4884     |   4.8 | 53.89
Neigh   | 5.7142     | 5.8727     | 6.1301     |   6.2 | 37.87
Comm    | 0.74577    | 1.0592     | 1.2441     |  16.8 |  6.83
Output  | 6.0081e-05 | 6.8426e-05 | 9.799e-05  |   0.0 |  0.00
Modify  | 0.16799    | 0.17011    | 0.17312    |   0.4 |  1.10
Other   |            | 0.04747    |            |       |  0.31

Nlocal:    3275.33 ave 3290 max 3258 min
Histogram: 1 0 0 1 0 1 2 0 0 1
Nghost:    7252.83 ave 7300 max 7219 min
Histogram: 1 1 1 1 0 0 1 0 0 1
Neighs:    242366 ave 247383 max 236812 min
Histogram: 1 1 0 0 1 0 1 0 0 2

Total # of neighbors = 1454195
Ave neighs/atom = 73.9973
Neighbor list builds = 495
Dangerous builds not checked
Setting up Verlet run ...
  Unit style    : metal
  Current step  : 3107177
  Time step     : 0.001
Per MPI rank memory allocation (min/avg/max) = 5.575 | 5.864 | 6.009 Mbytes
Step Temp Press TotEng PotEng Enthalpy 
 3107177    127.84464   -110.48533   -55220.783   -55545.521   -55243.965 
 3133349    99.236376     439.8631   -55363.855   -55615.924   -55271.777 
 3173349    99.542176    446.31635   -55359.891   -55612.737   -55266.456 
Loop time of 1965.67 on 6 procs for 66172 steps with 19652 atoms

Performance: 2.909 ns/day, 8.252 hours/ns, 33.664 timesteps/s
99.7% CPU use with 6 MPI tasks x no OpenMP threads

MPI task timing breakdown:
Section |  min time  |  avg time  |  max time  |%varavg| %total
---------------------------------------------------------------
Pair    | 1034       | 1059.4     | 1069.4     |  36.0 | 53.89
Neigh   | 749.58     | 760.87     | 772.19     |  25.4 | 38.71
Comm    | 108.37     | 118.04     | 132.12     |  84.7 |  6.01
Output  | 0.015559   | 0.015582   | 0.015647   |   0.0 |  0.00
Modify  | 21.403     | 21.497     | 21.58      |   1.3 |  1.09
Other   |            | 5.863      |            |       |  0.30

Nlocal:    3275.33 ave 3282 max 3258 min
Histogram: 1 0 0 0 0 0 0 2 1 2
Nghost:    7263.83 ave 7301 max 7238 min
Histogram: 1 2 1 0 0 0 0 0 1 1
Neighs:    242726 ave 247304 max 236901 min
Histogram: 1 0 1 0 0 1 0 1 1 1

Total # of neighbors = 1456359
Ave neighs/atom = 74.1074
Neighbor list builds = 66172
Dangerous builds not checked
Total wall time: 25:54:30
