LAMMPS (12 Dec 2018)
Lattice spacing in x,y,z = 4 4 4
Created orthogonal box = (0 0 0) to (68 68 68)
  1 by 1 by 2 MPI processor grid
Created 19652 atoms
  Time spent = 0.00157785 secs
Setting atom values ...
  417 settings made for type/fraction
Neighbor list info ...
  update every 1 steps, delay 0 steps, check no
  max neighbors/atom: 2000, page size: 100000
  master list distance cutoff = 8.5
  ghost atom cutoff = 8.5
  binsize = 4.25, bins = 16 16 16
  1 neighbor lists, perpetual/occasional/extra = 1 0 0
  (1) pair eam/alloy, perpetual
      attributes: half, newton on
      pair build: half/bin/atomonly/newton
      stencil: half/bin/3d/newton
      bin: standard
Setting up Verlet run ...
  Unit style    : metal
  Current step  : 0
  Time step     : 0.001
Per MPI rank memory allocation (min/avg/max) = 11.15 | 11.15 | 11.15 Mbytes
Step Temp Press TotEng PotEng Enthalpy 
       0          300      1200412   -19364.497   -20126.524       216220 
    1000    163.99276    1203487.9   -19364.371   -19780.928    216823.78 
Loop time of 90.4172 on 2 procs for 1000 steps with 19652 atoms

Performance: 0.956 ns/day, 25.116 hours/ns, 11.060 timesteps/s
97.8% CPU use with 2 MPI tasks x no OpenMP threads

MPI task timing breakdown:
Section |  min time  |  avg time  |  max time  |%varavg| %total
---------------------------------------------------------------
Pair    | 51.555     | 51.944     | 52.333     |   5.4 | 57.45
Neigh   | 34.51      | 35.089     | 35.667     |   9.8 | 38.81
Comm    | 1.949      | 2.9314     | 3.9138     |  57.4 |  3.24
Output  | 0.00016594 | 0.00016654 | 0.00016713 |   0.0 |  0.00
Modify  | 0.21385    | 0.22377    | 0.23369    |   2.1 |  0.25
Other   |            | 0.2289     |            |       |  0.25

Nlocal:    9826 ave 9829 max 9823 min
Histogram: 1 0 0 0 0 0 0 0 0 1
Nghost:    14211 ave 14214 max 14208 min
Histogram: 1 0 0 0 0 0 0 0 0 1
Neighs:    795684 ave 796344 max 795024 min
Histogram: 1 0 0 0 0 0 0 0 0 1

Total # of neighbors = 1591368
Ave neighs/atom = 80.9774
Neighbor list builds = 1000
Dangerous builds not checked
Setting up Verlet run ...
  Unit style    : metal
  Current step  : 1000
  Time step     : 0.001
Per MPI rank memory allocation (min/avg/max) = 11.15 | 11.15 | 11.15 Mbytes
Step Temp Press TotEng PotEng Enthalpy 
    1000    163.99276    1203487.9   -19364.371   -19780.928    216823.78 
    2000    178.99133    1518.5983   -86293.852   -86748.506   -85603.468 
Loop time of 63.1056 on 2 procs for 1000 steps with 19652 atoms

Performance: 1.369 ns/day, 17.529 hours/ns, 15.846 timesteps/s
99.3% CPU use with 2 MPI tasks x no OpenMP threads

MPI task timing breakdown:
Section |  min time  |  avg time  |  max time  |%varavg| %total
---------------------------------------------------------------
Pair    | 32.946     | 33.264     | 33.581     |   5.5 | 52.71
Neigh   | 23.878     | 25.573     | 27.268     |  33.5 | 40.52
Comm    | 1.1794     | 3.2383     | 5.2972     | 114.4 |  5.13
Output  | 7.7009e-05 | 0.00010848 | 0.00013995 |   0.0 |  0.00
Modify  | 0.78292    | 0.81317    | 0.84341    |   3.4 |  1.29
Other   |            | 0.2174     |            |       |  0.34

Nlocal:    9826 ave 9842 max 9810 min
Histogram: 1 0 0 0 0 0 0 0 0 1
Nghost:    10344.5 ave 10360 max 10329 min
Histogram: 1 0 0 0 0 0 0 0 0 1
Neighs:    355145 ave 357090 max 353200 min
Histogram: 1 0 0 0 0 0 0 0 0 1

Total # of neighbors = 710290
Ave neighs/atom = 36.1434
Neighbor list builds = 1000
Dangerous builds not checked
Setting up Verlet run ...
  Unit style    : metal
  Current step  : 2000
  Time step     : 0.001
Per MPI rank memory allocation (min/avg/max) = 11.17 | 11.17 | 11.17 Mbytes
Step Temp Press TotEng PotEng Enthalpy 
    2000    178.99133    1518.5983   -86293.852   -86748.506   -85603.468 
   10000    2461.6134   -710.22955   -73867.634   -80120.356   -74237.105 
Loop time of 408.356 on 2 procs for 8000 steps with 19652 atoms

Performance: 1.693 ns/day, 14.179 hours/ns, 19.591 timesteps/s
97.5% CPU use with 2 MPI tasks x no OpenMP threads

MPI task timing breakdown:
Section |  min time  |  avg time  |  max time  |%varavg| %total
---------------------------------------------------------------
Pair    | 198.93     | 198.98     | 199.02     |   0.3 | 48.73
Neigh   | 169.85     | 175.01     | 180.17     |  39.0 | 42.86
Comm    | 20.57      | 25.921     | 31.272     | 105.1 |  6.35
Output  | 7.7009e-05 | 0.00010741 | 0.00013781 |   0.0 |  0.00
Modify  | 6.6105     | 6.6888     | 6.767      |   3.0 |  1.64
Other   |            | 1.755      |            |       |  0.43

Nlocal:    9826 ave 9836 max 9816 min
Histogram: 1 0 0 0 0 0 0 0 0 1
Nghost:    8814.5 ave 8833 max 8796 min
Histogram: 1 0 0 0 0 0 0 0 0 1
Neighs:    294108 ave 294331 max 293886 min
Histogram: 1 0 0 0 0 0 0 0 0 1

Total # of neighbors = 588217
Ave neighs/atom = 29.9317
Neighbor list builds = 8000
Dangerous builds not checked
Setting up Verlet run ...
  Unit style    : metal
  Current step  : 10000
  Time step     : 0.001
Per MPI rank memory allocation (min/avg/max) = 11.18 | 11.18 | 11.18 Mbytes
Step Temp Press TotEng PotEng Enthalpy 
   10000    2461.6134   -710.22955   -73867.634   -80120.356   -74237.105 
   20000     2448.887   -558.64619   -73737.077   -79957.473   -74028.302 
   40000      2450.94    30.253161   -73776.827   -80002.437   -73761.108 
Loop time of 1379 on 2 procs for 30000 steps with 19652 atoms

Performance: 1.880 ns/day, 12.768 hours/ns, 21.755 timesteps/s
99.0% CPU use with 2 MPI tasks x no OpenMP threads

MPI task timing breakdown:
Section |  min time  |  avg time  |  max time  |%varavg| %total
---------------------------------------------------------------
Pair    | 674.16     | 674.61     | 675.06     |   1.7 | 48.92
Neigh   | 609.19     | 618.01     | 626.84     |  35.5 | 44.82
Comm    | 45.718     | 55.411     | 65.104     | 130.2 |  4.02
Output  | 0.097211   | 0.097239   | 0.097267   |   0.0 |  0.01
Modify  | 24.176     | 24.425     | 24.674     |   5.0 |  1.77
Other   |            | 6.439      |            |       |  0.47

Nlocal:    9826 ave 9837 max 9815 min
Histogram: 1 0 0 0 0 0 0 0 0 1
Nghost:    8827 ave 8838 max 8816 min
Histogram: 1 0 0 0 0 0 0 0 0 1
Neighs:    294252 ave 294738 max 293766 min
Histogram: 1 0 0 0 0 0 0 0 0 1

Total # of neighbors = 588504
Ave neighs/atom = 29.9463
Neighbor list builds = 30000
Dangerous builds not checked
Setting up Verlet run ...
  Unit style    : metal
  Current step  : 40000
  Time step     : 0.001
Per MPI rank memory allocation (min/avg/max) = 11.26 | 11.26 | 11.26 Mbytes
Step Temp Press TotEng PotEng Enthalpy 
   40000      2450.94    30.253161   -73776.827   -80002.437   -73761.108 
   40495    2414.6751    67.633244   -73980.093   -80113.588   -73945.033 
Loop time of 23.2805 on 2 procs for 495 steps with 19652 atoms

Performance: 1.837 ns/day, 13.064 hours/ns, 21.262 timesteps/s
99.1% CPU use with 2 MPI tasks x no OpenMP threads

MPI task timing breakdown:
Section |  min time  |  avg time  |  max time  |%varavg| %total
---------------------------------------------------------------
Pair    | 11.462     | 11.528     | 11.594     |   1.9 | 49.52
Neigh   | 9.7384     | 10.158     | 10.577     |  13.2 | 43.63
Comm    | 0.56081    | 1.0686     | 1.5765     |  49.1 |  4.59
Output  | 6.8188e-05 | 0.00010002 | 0.00013185 |   0.0 |  0.00
Modify  | 0.39735    | 0.41586    | 0.43436    |   2.9 |  1.79
Other   |            | 0.1102     |            |       |  0.47

Nlocal:    9826 ave 9834 max 9818 min
Histogram: 1 0 0 0 0 0 0 0 0 1
Nghost:    8811.5 ave 8827 max 8796 min
Histogram: 1 0 0 0 0 0 0 0 0 1
Neighs:    294998 ave 295153 max 294843 min
Histogram: 1 0 0 0 0 0 0 0 0 1

Total # of neighbors = 589996
Ave neighs/atom = 30.0222
Neighbor list builds = 495
Dangerous builds not checked
Setting up Verlet run ...
  Unit style    : metal
  Current step  : 40495
  Time step     : 0.001
Per MPI rank memory allocation (min/avg/max) = 11.26 | 11.26 | 11.26 Mbytes
Step Temp Press TotEng PotEng Enthalpy 
   40495    2414.6751    67.633244   -73980.093   -80113.588   -73945.033 
   60000    2386.6106    131.18304   -74001.371   -80063.579    -73933.35 
Loop time of 920.024 on 2 procs for 19505 steps with 19652 atoms

Performance: 1.832 ns/day, 13.102 hours/ns, 21.201 timesteps/s
99.2% CPU use with 2 MPI tasks x no OpenMP threads

MPI task timing breakdown:
Section |  min time  |  avg time  |  max time  |%varavg| %total
---------------------------------------------------------------
Pair    | 452.4      | 455.82     | 459.24     |  16.0 | 49.54
Neigh   | 411        | 411.96     | 412.92     |   4.7 | 44.78
Comm    | 29.292     | 31.782     | 34.272     |  44.2 |  3.45
Output  | 0.049044   | 0.049063   | 0.049083   |   0.0 |  0.01
Modify  | 16.078     | 16.109     | 16.139     |   0.8 |  1.75
Other   |            | 4.307      |            |       |  0.47

Nlocal:    9826 ave 9847 max 9805 min
Histogram: 1 0 0 0 0 0 0 0 0 1
Nghost:    8868.5 ave 8887 max 8850 min
Histogram: 1 0 0 0 0 0 0 0 0 1
Neighs:    295078 ave 295793 max 294364 min
Histogram: 1 0 0 0 0 0 0 0 0 1

Total # of neighbors = 590157
Ave neighs/atom = 30.0304
Neighbor list builds = 19505
Dangerous builds not checked
Setting up Verlet run ...
  Unit style    : metal
  Current step  : 60000
  Time step     : 0.001
Per MPI rank memory allocation (min/avg/max) = 11.28 | 11.28 | 11.28 Mbytes
Step Temp Press TotEng PotEng Enthalpy 
   60000    2386.6106    131.18304   -74001.371   -80063.579    -73933.35 
   60495    2363.8045    358.40591   -74241.439   -80245.718   -74056.298 
Loop time of 21.1805 on 2 procs for 495 steps with 19652 atoms

Performance: 2.019 ns/day, 11.886 hours/ns, 23.371 timesteps/s
99.9% CPU use with 2 MPI tasks x no OpenMP threads

MPI task timing breakdown:
Section |  min time  |  avg time  |  max time  |%varavg| %total
---------------------------------------------------------------
Pair    | 10.142     | 10.297     | 10.452     |   4.8 | 48.61
Neigh   | 9.3182     | 9.5161     | 9.714      |   6.4 | 44.93
Comm    | 0.80564    | 0.8585     | 0.91136    |   5.7 |  4.05
Output  | 7.2956e-05 | 0.00010848 | 0.000144   |   0.0 |  0.00
Modify  | 0.39431    | 0.40046    | 0.40661    |   1.0 |  1.89
Other   |            | 0.1085     |            |       |  0.51

Nlocal:    9826 ave 9841 max 9811 min
Histogram: 1 0 0 0 0 0 0 0 0 1
Nghost:    8849 ave 8851 max 8847 min
Histogram: 1 0 0 0 0 0 0 0 0 1
Neighs:    296117 ave 296753 max 295481 min
Histogram: 1 0 0 0 0 0 0 0 0 1

Total # of neighbors = 592234
Ave neighs/atom = 30.1361
Neighbor list builds = 495
Dangerous builds not checked
Setting up Verlet run ...
  Unit style    : metal
  Current step  : 60495
  Time step     : 0.001
Per MPI rank memory allocation (min/avg/max) = 11.28 | 11.28 | 11.28 Mbytes
Step Temp Press TotEng PotEng Enthalpy 
   60495    2363.8045    358.40591   -74241.439   -80245.718   -74056.298 
   80000     2340.683     39.69674   -74275.659   -80221.207   -74255.128 
Loop time of 910.803 on 2 procs for 19505 steps with 19652 atoms

Performance: 1.850 ns/day, 12.971 hours/ns, 21.415 timesteps/s
99.6% CPU use with 2 MPI tasks x no OpenMP threads

MPI task timing breakdown:
Section |  min time  |  avg time  |  max time  |%varavg| %total
---------------------------------------------------------------
Pair    | 447.88     | 451.5      | 455.11     |  17.0 | 49.57
Neigh   | 402.93     | 406.48     | 410.03     |  17.6 | 44.63
Comm    | 32.574     | 32.604     | 32.633     |   0.5 |  3.58
Output  | 0.05125    | 0.05126    | 0.051271   |   0.0 |  0.01
Modify  | 15.908     | 15.959     | 16.01      |   1.3 |  1.75
Other   |            | 4.213      |            |       |  0.46

Nlocal:    9826 ave 9828 max 9824 min
Histogram: 1 0 0 0 0 0 0 0 0 1
Nghost:    8786.5 ave 8792 max 8781 min
Histogram: 1 0 0 0 0 0 0 0 0 1
Neighs:    295785 ave 296296 max 295274 min
Histogram: 1 0 0 0 0 0 0 0 0 1

Total # of neighbors = 591570
Ave neighs/atom = 30.1023
Neighbor list builds = 19505
Dangerous builds not checked
Setting up Verlet run ...
  Unit style    : metal
  Current step  : 80000
  Time step     : 0.001
Per MPI rank memory allocation (min/avg/max) = 11.29 | 11.29 | 11.29 Mbytes
Step Temp Press TotEng PotEng Enthalpy 
   80000     2340.683     39.69674   -74275.659   -80221.207   -74255.128 
   80495    2309.1917    246.01126   -74523.435   -80388.992    -74396.64 
Loop time of 19.9974 on 2 procs for 495 steps with 19652 atoms

Performance: 2.139 ns/day, 11.222 hours/ns, 24.753 timesteps/s
100.0% CPU use with 2 MPI tasks x no OpenMP threads

MPI task timing breakdown:
Section |  min time  |  avg time  |  max time  |%varavg| %total
---------------------------------------------------------------
Pair    | 9.4862     | 9.5227     | 9.5592     |   1.2 | 47.62
Neigh   | 9.2173     | 9.2756     | 9.3339     |   1.9 | 46.38
Comm    | 0.61708    | 0.72306    | 0.82903    |  12.5 |  3.62
Output  | 9.7036e-05 | 0.00012052 | 0.000144   |   0.0 |  0.00
Modify  | 0.36907    | 0.37478    | 0.38049    |   0.9 |  1.87
Other   |            | 0.1012     |            |       |  0.51

Nlocal:    9826 ave 9828 max 9824 min
Histogram: 1 0 0 0 0 0 0 0 0 1
Nghost:    8831.5 ave 8837 max 8826 min
Histogram: 1 0 0 0 0 0 0 0 0 1
Neighs:    296954 ave 296997 max 296910 min
Histogram: 1 0 0 0 0 0 0 0 0 1

Total # of neighbors = 593907
Ave neighs/atom = 30.2212
Neighbor list builds = 495
Dangerous builds not checked
Setting up Verlet run ...
  Unit style    : metal
  Current step  : 80495
  Time step     : 0.001
Per MPI rank memory allocation (min/avg/max) = 11.29 | 11.29 | 11.29 Mbytes
Step Temp Press TotEng PotEng Enthalpy 
   80495    2309.1917    246.01126   -74523.435   -80388.992    -74396.64 
  100000    2304.6607    165.80761   -74562.275   -80416.323   -74476.867 
Loop time of 828.373 on 2 procs for 19505 steps with 19652 atoms

Performance: 2.034 ns/day, 11.797 hours/ns, 23.546 timesteps/s
99.6% CPU use with 2 MPI tasks x no OpenMP threads

MPI task timing breakdown:
Section |  min time  |  avg time  |  max time  |%varavg| %total
---------------------------------------------------------------
Pair    | 393.49     | 396.95     | 400.41     |  17.4 | 47.92
Neigh   | 380.74     | 382.08     | 383.43     |   6.9 | 46.12
Comm    | 27.913     | 30.04      | 32.167     |  38.8 |  3.63
Output  | 0.052602   | 0.052618   | 0.052633   |   0.0 |  0.01
Modify  | 15.153     | 15.255     | 15.357     |   2.6 |  1.84
Other   |            | 3.993      |            |       |  0.48

Nlocal:    9826 ave 9837 max 9815 min
Histogram: 1 0 0 0 0 0 0 0 0 1
Nghost:    8834.5 ave 8852 max 8817 min
Histogram: 1 0 0 0 0 0 0 0 0 1
Neighs:    296807 ave 296954 max 296660 min
Histogram: 1 0 0 0 0 0 0 0 0 1

Total # of neighbors = 593614
Ave neighs/atom = 30.2063
Neighbor list builds = 19505
Dangerous builds not checked
Setting up Verlet run ...
  Unit style    : metal
  Current step  : 100000
  Time step     : 0.001
Per MPI rank memory allocation (min/avg/max) = 11.3 | 11.3 | 11.3 Mbytes
Step Temp Press TotEng PotEng Enthalpy 
  100000    2304.6607    165.80761   -74562.275   -80416.323   -74476.867 
  100495    2243.9805     124.8161   -74754.202   -80454.117   -74689.978 
Loop time of 20.1469 on 2 procs for 495 steps with 19652 atoms

Performance: 2.123 ns/day, 11.306 hours/ns, 24.570 timesteps/s
100.0% CPU use with 2 MPI tasks x no OpenMP threads

MPI task timing breakdown:
Section |  min time  |  avg time  |  max time  |%varavg| %total
---------------------------------------------------------------
Pair    | 9.4455     | 9.552      | 9.6585     |   3.4 | 47.41
Neigh   | 9.4006     | 9.4831     | 9.5656     |   2.7 | 47.07
Comm    | 0.60508    | 0.62727    | 0.64946    |   2.8 |  3.11
Output  | 7.6056e-05 | 0.00010204 | 0.00012803 |   0.0 |  0.00
Modify  | 0.38623    | 0.38812    | 0.39002    |   0.3 |  1.93
Other   |            | 0.09635    |            |       |  0.48

Nlocal:    9826 ave 9850 max 9802 min
Histogram: 1 0 0 0 0 0 0 0 0 1
Nghost:    8838.5 ave 8866 max 8811 min
Histogram: 1 0 0 0 0 0 0 0 0 1
Neighs:    297144 ave 298155 max 296132 min
Histogram: 1 0 0 0 0 0 0 0 0 1

Total # of neighbors = 594287
Ave neighs/atom = 30.2405
Neighbor list builds = 495
Dangerous builds not checked
Setting up Verlet run ...
  Unit style    : metal
  Current step  : 100495
  Time step     : 0.001
Per MPI rank memory allocation (min/avg/max) = 11.3 | 11.3 | 11.3 Mbytes
Step Temp Press TotEng PotEng Enthalpy 
  100495    2243.9805     124.8161   -74754.202   -80454.117   -74689.978 
  120000    2243.2609   -165.68992    -74781.29   -80479.377   -74866.626 
Loop time of 831.959 on 2 procs for 19505 steps with 19652 atoms

Performance: 2.026 ns/day, 11.848 hours/ns, 23.445 timesteps/s
99.5% CPU use with 2 MPI tasks x no OpenMP threads

MPI task timing breakdown:
Section |  min time  |  avg time  |  max time  |%varavg| %total
---------------------------------------------------------------
Pair    | 395.17     | 397.79     | 400.4      |  13.1 | 47.81
Neigh   | 386.75     | 388.8      | 390.85     |  10.4 | 46.73
Comm    | 25.089     | 25.559     | 26.028     |   9.3 |  3.07
Output  | 0.36148    | 0.36149    | 0.36151    |   0.0 |  0.04
Modify  | 15.423     | 15.526     | 15.628     |   2.6 |  1.87
Other   |            | 3.93       |            |       |  0.47

Nlocal:    9826 ave 9833 max 9819 min
Histogram: 1 0 0 0 0 0 0 0 0 1
Nghost:    8824 ave 8829 max 8819 min
Histogram: 1 0 0 0 0 0 0 0 0 1
Neighs:    297127 ave 297323 max 296931 min
Histogram: 1 0 0 0 0 0 0 0 0 1

Total # of neighbors = 594254
Ave neighs/atom = 30.2389
Neighbor list builds = 19505
Dangerous builds not checked
Setting up Verlet run ...
  Unit style    : metal
  Current step  : 120000
  Time step     : 0.001
Per MPI rank memory allocation (min/avg/max) = 11.31 | 11.31 | 11.31 Mbytes
Step Temp Press TotEng PotEng Enthalpy 
  120000    2243.2609   -165.68992    -74781.29   -80479.377   -74866.626 
  120495    2203.2843    221.78439   -74927.856   -80524.399   -74813.938 
Loop time of 20.9185 on 2 procs for 495 steps with 19652 atoms

Performance: 2.045 ns/day, 11.739 hours/ns, 23.663 timesteps/s
98.6% CPU use with 2 MPI tasks x no OpenMP threads

MPI task timing breakdown:
Section |  min time  |  avg time  |  max time  |%varavg| %total
---------------------------------------------------------------
Pair    | 9.9001     | 10.048     | 10.197     |   4.7 | 48.04
Neigh   | 9.6131     | 9.6461     | 9.6792     |   1.1 | 46.11
Comm    | 0.60492    | 0.72549    | 0.84607    |  14.2 |  3.47
Output  | 7.5102e-05 | 0.00010014 | 0.00012517 |   0.0 |  0.00
Modify  | 0.39374    | 0.39434    | 0.39495    |   0.1 |  1.89
Other   |            | 0.104      |            |       |  0.50

Nlocal:    9826 ave 9827 max 9825 min
Histogram: 1 0 0 0 0 0 0 0 0 1
Nghost:    8932 ave 8954 max 8910 min
Histogram: 1 0 0 0 0 0 0 0 0 1
Neighs:    297688 ave 297969 max 297406 min
Histogram: 1 0 0 0 0 0 0 0 0 1

Total # of neighbors = 595375
Ave neighs/atom = 30.2959
Neighbor list builds = 495
Dangerous builds not checked
Setting up Verlet run ...
  Unit style    : metal
  Current step  : 120495
  Time step     : 0.001
Per MPI rank memory allocation (min/avg/max) = 11.31 | 11.31 | 11.31 Mbytes
Step Temp Press TotEng PotEng Enthalpy 
  120495    2203.2843    221.78439   -74927.856   -80524.399   -74813.938 
  140000    2205.9385    239.13474   -75046.888   -80650.172   -74924.292 
Loop time of 854.944 on 2 procs for 19505 steps with 19652 atoms

Performance: 1.971 ns/day, 12.176 hours/ns, 22.814 timesteps/s
98.5% CPU use with 2 MPI tasks x no OpenMP threads

MPI task timing breakdown:
Section |  min time  |  avg time  |  max time  |%varavg| %total
---------------------------------------------------------------
Pair    | 405.33     | 409.03     | 412.74     |  18.3 | 47.84
Neigh   | 385.99     | 386.75     | 387.52     |   3.9 | 45.24
Comm    | 35.096     | 39.575     | 44.055     |  71.2 |  4.63
Output  | 0.073762   | 0.073784   | 0.073807   |   0.0 |  0.01
Modify  | 15.508     | 15.556     | 15.603     |   1.2 |  1.82
Other   |            | 3.952      |            |       |  0.46

Nlocal:    9826 ave 9832 max 9820 min
Histogram: 1 0 0 0 0 0 0 0 0 1
Nghost:    8873 ave 8899 max 8847 min
Histogram: 1 0 0 0 0 0 0 0 0 1
Neighs:    298324 ave 298735 max 297913 min
Histogram: 1 0 0 0 0 0 0 0 0 1

Total # of neighbors = 596648
Ave neighs/atom = 30.3607
Neighbor list builds = 19505
Dangerous builds not checked
Setting up Verlet run ...
  Unit style    : metal
  Current step  : 140000
  Time step     : 0.001
Per MPI rank memory allocation (min/avg/max) = 11.32 | 11.32 | 11.32 Mbytes
Step Temp Press TotEng PotEng Enthalpy 
  140000    2205.9385    239.13474   -75046.888   -80650.172   -74924.292 
  140495     2150.996    392.72519   -75257.801   -80721.526   -75056.854 
Loop time of 21.5691 on 2 procs for 495 steps with 19652 atoms

Performance: 1.983 ns/day, 12.104 hours/ns, 22.949 timesteps/s
99.2% CPU use with 2 MPI tasks x no OpenMP threads

MPI task timing breakdown:
Section |  min time  |  avg time  |  max time  |%varavg| %total
---------------------------------------------------------------
Pair    | 10.293     | 10.437     | 10.581     |   4.5 | 48.39
Neigh   | 9.4928     | 9.7673     | 10.042     |   8.8 | 45.28
Comm    | 0.69849    | 0.84752    | 0.99656    |  16.2 |  3.93
Output  | 9.3937e-05 | 0.00011945 | 0.00014496 |   0.0 |  0.00
Modify  | 0.40084    | 0.40852    | 0.4162     |   1.2 |  1.89
Other   |            | 0.1087     |            |       |  0.50

Nlocal:    9826 ave 9834 max 9818 min
Histogram: 1 0 0 0 0 0 0 0 0 1
Nghost:    8834 ave 8849 max 8819 min
Histogram: 1 0 0 0 0 0 0 0 0 1
Neighs:    298792 ave 299303 max 298281 min
Histogram: 1 0 0 0 0 0 0 0 0 1

Total # of neighbors = 597584
Ave neighs/atom = 30.4083
Neighbor list builds = 495
Dangerous builds not checked
Setting up Verlet run ...
  Unit style    : metal
  Current step  : 140495
  Time step     : 0.001
Per MPI rank memory allocation (min/avg/max) = 11.32 | 11.32 | 11.32 Mbytes
Step Temp Press TotEng PotEng Enthalpy 
  140495     2150.996    392.72519   -75257.801   -80721.526   -75056.854 
  160000      2170.86    290.89703   -75202.831   -80717.014    -75053.96 
Loop time of 851.608 on 2 procs for 19505 steps with 19652 atoms

Performance: 1.979 ns/day, 12.128 hours/ns, 22.904 timesteps/s
99.4% CPU use with 2 MPI tasks x no OpenMP threads

MPI task timing breakdown:
Section |  min time  |  avg time  |  max time  |%varavg| %total
---------------------------------------------------------------
Pair    | 410.58     | 411.86     | 413.14     |   6.3 | 48.36
Neigh   | 386.52     | 387.37     | 388.22     |   4.3 | 45.49
Comm    | 30.598     | 32.816     | 35.034     |  38.7 |  3.85
Output  | 0.052087   | 0.052106   | 0.052124   |   0.0 |  0.01
Modify  | 15.487     | 15.572     | 15.656     |   2.1 |  1.83
Other   |            | 3.938      |            |       |  0.46

Nlocal:    9826 ave 9841 max 9811 min
Histogram: 1 0 0 0 0 0 0 0 0 1
Nghost:    8912 ave 8934 max 8890 min
Histogram: 1 0 0 0 0 0 0 0 0 1
Neighs:    298746 ave 299685 max 297807 min
Histogram: 1 0 0 0 0 0 0 0 0 1

Total # of neighbors = 597492
Ave neighs/atom = 30.4036
Neighbor list builds = 19505
Dangerous builds not checked
Setting up Verlet run ...
  Unit style    : metal
  Current step  : 160000
  Time step     : 0.001
Per MPI rank memory allocation (min/avg/max) = 11.33 | 11.33 | 11.33 Mbytes
Step Temp Press TotEng PotEng Enthalpy 
  160000      2170.86    290.89703   -75202.831   -80717.014    -75053.96 
  160495    2108.4122    531.60925   -75454.235   -80809.794   -75182.865 
Loop time of 22.4509 on 2 procs for 495 steps with 19652 atoms

Performance: 1.905 ns/day, 12.599 hours/ns, 22.048 timesteps/s
99.1% CPU use with 2 MPI tasks x no OpenMP threads

MPI task timing breakdown:
Section |  min time  |  avg time  |  max time  |%varavg| %total
---------------------------------------------------------------
Pair    | 10.75      | 10.835     | 10.919     |   2.6 | 48.26
Neigh   | 10.125     | 10.347     | 10.57      |   6.9 | 46.09
Comm    | 0.60257    | 0.75391    | 0.90524    |  17.4 |  3.36
Output  | 7.1049e-05 | 0.00010598 | 0.00014091 |   0.0 |  0.00
Modify  | 0.39771    | 0.41276    | 0.42782    |   2.3 |  1.84
Other   |            | 0.1022     |            |       |  0.46

Nlocal:    9826 ave 9829 max 9823 min
Histogram: 1 0 0 0 0 0 0 0 0 1
Nghost:    8883 ave 8911 max 8855 min
Histogram: 1 0 0 0 0 0 0 0 0 1
Neighs:    299683 ave 300170 max 299196 min
Histogram: 1 0 0 0 0 0 0 0 0 1

Total # of neighbors = 599366
Ave neighs/atom = 30.499
Neighbor list builds = 495
Dangerous builds not checked
Setting up Verlet run ...
  Unit style    : metal
  Current step  : 160495
  Time step     : 0.001
Per MPI rank memory allocation (min/avg/max) = 11.33 | 11.33 | 11.33 Mbytes
Step Temp Press TotEng PotEng Enthalpy 
  160495    2108.4122    531.60925   -75454.235   -80809.794   -75182.865 
  180000     2094.236   -517.44161   -75513.337   -80832.887   -75778.076 
Loop time of 850.22 on 2 procs for 19505 steps with 19652 atoms

Performance: 1.982 ns/day, 12.108 hours/ns, 22.941 timesteps/s
99.5% CPU use with 2 MPI tasks x no OpenMP threads

MPI task timing breakdown:
Section |  min time  |  avg time  |  max time  |%varavg| %total
---------------------------------------------------------------
Pair    | 408.86     | 409.82     | 410.79     |   4.8 | 48.20
Neigh   | 380.79     | 386.75     | 392.7      |  30.3 | 45.49
Comm    | 29.288     | 34.397     | 39.506     |  87.1 |  4.05
Output  | 0.053734   | 0.053747   | 0.053759   |   0.0 |  0.01
Modify  | 15.049     | 15.232     | 15.416     |   4.7 |  1.79
Other   |            | 3.966      |            |       |  0.47

Nlocal:    9826 ave 9839 max 9813 min
Histogram: 1 0 0 0 0 0 0 0 0 1
Nghost:    8851.5 ave 8895 max 8808 min
Histogram: 1 0 0 0 0 0 0 0 0 1
Neighs:    299056 ave 299237 max 298874 min
Histogram: 1 0 0 0 0 0 0 0 0 1

Total # of neighbors = 598111
Ave neighs/atom = 30.4351
Neighbor list builds = 19505
Dangerous builds not checked
Setting up Verlet run ...
  Unit style    : metal
  Current step  : 180000
  Time step     : 0.001
Per MPI rank memory allocation (min/avg/max) = 11.34 | 11.34 | 11.34 Mbytes
Step Temp Press TotEng PotEng Enthalpy 
  180000     2094.236   -517.44161   -75513.337   -80832.887   -75778.076 
  180495    2063.7567   -184.60945   -75655.223   -80897.353   -75749.472 
Loop time of 21.5708 on 2 procs for 495 steps with 19652 atoms

Performance: 1.983 ns/day, 12.105 hours/ns, 22.948 timesteps/s
100.0% CPU use with 2 MPI tasks x no OpenMP threads

MPI task timing breakdown:
Section |  min time  |  avg time  |  max time  |%varavg| %total
---------------------------------------------------------------
Pair    | 10.309     | 10.379     | 10.45      |   2.2 | 48.12
Neigh   | 9.4698     | 9.8249     | 10.18      |  11.3 | 45.55
Comm    | 0.58139    | 0.88124    | 1.1811     |  31.9 |  4.09
Output  | 7.2002e-05 | 0.00010204 | 0.00013208 |   0.0 |  0.00
Modify  | 0.37484    | 0.38748    | 0.40011    |   2.0 |  1.80
Other   |            | 0.09757    |            |       |  0.45

Nlocal:    9826 ave 9840 max 9812 min
Histogram: 1 0 0 0 0 0 0 0 0 1
Nghost:    8854 ave 8876 max 8832 min
Histogram: 1 0 0 0 0 0 0 0 0 1
Neighs:    299518 ave 299643 max 299393 min
Histogram: 1 0 0 0 0 0 0 0 0 1

Total # of neighbors = 599036
Ave neighs/atom = 30.4822
Neighbor list builds = 495
Dangerous builds not checked
Setting up Verlet run ...
  Unit style    : metal
  Current step  : 180495
  Time step     : 0.001
Per MPI rank memory allocation (min/avg/max) = 11.34 | 11.34 | 11.34 Mbytes
Step Temp Press TotEng PotEng Enthalpy 
  180495    2063.7567   -184.60945   -75655.223   -80897.353   -75749.472 
  200000    2039.0022   -31.592877   -75750.135   -80929.386   -75766.235 
Loop time of 872.776 on 2 procs for 19505 steps with 19652 atoms

Performance: 1.931 ns/day, 12.430 hours/ns, 22.348 timesteps/s
99.3% CPU use with 2 MPI tasks x no OpenMP threads

MPI task timing breakdown:
Section |  min time  |  avg time  |  max time  |%varavg| %total
---------------------------------------------------------------
Pair    | 415.77     | 418.04     | 420.31     |  11.1 | 47.90
Neigh   | 398.88     | 401.24     | 403.6      |  11.8 | 45.97
Comm    | 29.464     | 34.276     | 39.089     |  82.2 |  3.93
Output  | 0.053635   | 0.053652   | 0.053669   |   0.0 |  0.01
Modify  | 15.243     | 15.33      | 15.417     |   2.2 |  1.76
Other   |            | 3.834      |            |       |  0.44

Nlocal:    9826 ave 9828 max 9824 min
Histogram: 1 0 0 0 0 0 0 0 0 1
Nghost:    8898 ave 8925 max 8871 min
Histogram: 1 0 0 0 0 0 0 0 0 1
Neighs:    300048 ave 302727 max 297369 min
Histogram: 1 0 0 0 0 0 0 0 0 1

Total # of neighbors = 600096
Ave neighs/atom = 30.5361
Neighbor list builds = 19505
Dangerous builds not checked
Setting up Verlet run ...
  Unit style    : metal
  Current step  : 200000
  Time step     : 0.001
Per MPI rank memory allocation (min/avg/max) = 11.34 | 11.34 | 11.34 Mbytes
Step Temp Press TotEng PotEng Enthalpy 
  200000    2039.0022   -31.592877   -75750.135   -80929.386   -75766.235 
  200495     2006.833   -210.14036   -75924.066   -81021.604   -76031.141 
Loop time of 21.3477 on 2 procs for 495 steps with 19652 atoms

Performance: 2.003 ns/day, 11.980 hours/ns, 23.188 timesteps/s
99.2% CPU use with 2 MPI tasks x no OpenMP threads

MPI task timing breakdown:
Section |  min time  |  avg time  |  max time  |%varavg| %total
---------------------------------------------------------------
Pair    | 9.8507     | 9.9922     | 10.134     |   4.5 | 46.81
Neigh   | 10.07      | 10.177     | 10.283     |   3.3 | 47.67
Comm    | 0.63417    | 0.67085    | 0.70754    |   4.5 |  3.14
Output  | 9.203e-05  | 0.000108   | 0.00012398 |   0.0 |  0.00
Modify  | 0.40244    | 0.40422    | 0.40601    |   0.3 |  1.89
Other   |            | 0.1036     |            |       |  0.49

Nlocal:    9826 ave 9858 max 9794 min
Histogram: 1 0 0 0 0 0 0 0 0 1
Nghost:    8892.5 ave 8941 max 8844 min
Histogram: 1 0 0 0 0 0 0 0 0 1
Neighs:    300030 ave 303507 max 296554 min
Histogram: 1 0 0 0 0 0 0 0 0 1

Total # of neighbors = 600061
Ave neighs/atom = 30.5343
Neighbor list builds = 495
Dangerous builds not checked
Setting up Verlet run ...
  Unit style    : metal
  Current step  : 200495
  Time step     : 0.001
Per MPI rank memory allocation (min/avg/max) = 11.34 | 11.34 | 11.34 Mbytes
Step Temp Press TotEng PotEng Enthalpy 
  200495     2006.833   -210.14036   -75924.066   -81021.604   -76031.141 
  220000    1970.3069   -389.61382   -76020.767   -81025.526   -76219.334 
Loop time of 878.641 on 2 procs for 19505 steps with 19652 atoms

Performance: 1.918 ns/day, 12.513 hours/ns, 22.199 timesteps/s
98.2% CPU use with 2 MPI tasks x no OpenMP threads

MPI task timing breakdown:
Section |  min time  |  avg time  |  max time  |%varavg| %total
---------------------------------------------------------------
Pair    | 418.52     | 419.35     | 420.19     |   4.1 | 47.73
Neigh   | 405.67     | 408.35     | 411.03     |  13.3 | 46.48
Comm    | 27.602     | 31.341     | 35.08      |  66.8 |  3.57
Output  | 0.058951   | 0.058968   | 0.058984   |   0.0 |  0.01
Modify  | 15.244     | 15.387     | 15.53      |   3.6 |  1.75
Other   |            | 4.151      |            |       |  0.47

Nlocal:    9826 ave 9842 max 9810 min
Histogram: 1 0 0 0 0 0 0 0 0 1
Nghost:    8901 ave 8904 max 8898 min
Histogram: 1 0 0 0 0 0 0 0 0 1
Neighs:    300075 ave 301993 max 298157 min
Histogram: 1 0 0 0 0 0 0 0 0 1

Total # of neighbors = 600150
Ave neighs/atom = 30.5389
Neighbor list builds = 19505
Dangerous builds not checked
Setting up Verlet run ...
  Unit style    : metal
  Current step  : 220000
  Time step     : 0.001
Per MPI rank memory allocation (min/avg/max) = 11.34 | 11.34 | 11.34 Mbytes
Step Temp Press TotEng PotEng Enthalpy 
  220000    1970.3069   -389.61382   -76020.767   -81025.526   -76219.334 
  220495    1955.2028   -136.63518   -76180.001   -81146.394   -76249.422 
Loop time of 21.3773 on 2 procs for 495 steps with 19652 atoms

Performance: 2.001 ns/day, 11.996 hours/ns, 23.155 timesteps/s
100.0% CPU use with 2 MPI tasks x no OpenMP threads

MPI task timing breakdown:
Section |  min time  |  avg time  |  max time  |%varavg| %total
---------------------------------------------------------------
Pair    | 10.003     | 10.135     | 10.267     |   4.1 | 47.41
Neigh   | 9.8659     | 9.8759     | 9.886      |   0.3 | 46.20
Comm    | 0.74084    | 0.88821    | 1.0356     |  15.6 |  4.15
Output  | 7.391e-05  | 9.9897e-05 | 0.00012589 |   0.0 |  0.00
Modify  | 0.37532    | 0.38096    | 0.38661    |   0.9 |  1.78
Other   |            | 0.09709    |            |       |  0.45

Nlocal:    9826 ave 9852 max 9800 min
Histogram: 1 0 0 0 0 0 0 0 0 1
Nghost:    8886.5 ave 8893 max 8880 min
Histogram: 1 0 0 0 0 0 0 0 0 1
Neighs:    300992 ave 302013 max 299971 min
Histogram: 1 0 0 0 0 0 0 0 0 1

Total # of neighbors = 601984
Ave neighs/atom = 30.6322
Neighbor list builds = 495
Dangerous builds not checked
Setting up Verlet run ...
  Unit style    : metal
  Current step  : 220495
  Time step     : 0.001
Per MPI rank memory allocation (min/avg/max) = 11.34 | 11.34 | 11.34 Mbytes
Step Temp Press TotEng PotEng Enthalpy 
  220495    1955.2028   -136.63518   -76180.001   -81146.394   -76249.422 
  240000    1935.2038   -361.03697   -76250.589   -81166.183   -76434.052 
Loop time of 876.097 on 2 procs for 19505 steps with 19652 atoms

Performance: 1.924 ns/day, 12.477 hours/ns, 22.264 timesteps/s
99.8% CPU use with 2 MPI tasks x no OpenMP threads

MPI task timing breakdown:
Section |  min time  |  avg time  |  max time  |%varavg| %total
---------------------------------------------------------------
Pair    | 411.61     | 415.18     | 418.76     |  17.6 | 47.39
Neigh   | 411.29     | 413.18     | 415.07     |   9.3 | 47.16
Comm    | 22.908     | 28.502     | 34.096     | 104.8 |  3.25
Output  | 0.056149   | 0.056169   | 0.056188   |   0.0 |  0.01
Modify  | 15.201     | 15.3       | 15.398     |   2.5 |  1.75
Other   |            | 3.876      |            |       |  0.44

Nlocal:    9826 ave 9834 max 9818 min
Histogram: 1 0 0 0 0 0 0 0 0 1
Nghost:    8866.5 ave 8889 max 8844 min
Histogram: 1 0 0 0 0 0 0 0 0 1
Neighs:    300894 ave 303189 max 298599 min
Histogram: 1 0 0 0 0 0 0 0 0 1

Total # of neighbors = 601788
Ave neighs/atom = 30.6222
Neighbor list builds = 19505
Dangerous builds not checked
Setting up Verlet run ...
  Unit style    : metal
  Current step  : 240000
  Time step     : 0.001
Per MPI rank memory allocation (min/avg/max) = 11.35 | 11.35 | 11.35 Mbytes
Step Temp Press TotEng PotEng Enthalpy 
  240000    1935.2038   -361.03697   -76250.589   -81166.183   -76434.052 
  240495    1902.1885   -283.71244   -76431.733   -81263.465   -76575.642 
Loop time of 22.2417 on 2 procs for 495 steps with 19652 atoms

Performance: 1.923 ns/day, 12.481 hours/ns, 22.256 timesteps/s
99.6% CPU use with 2 MPI tasks x no OpenMP threads

MPI task timing breakdown:
Section |  min time  |  avg time  |  max time  |%varavg| %total
---------------------------------------------------------------
Pair    | 10.48      | 10.52      | 10.559     |   1.2 | 47.30
Neigh   | 10.034     | 10.284     | 10.535     |   7.8 | 46.24
Comm    | 0.71964    | 0.93541    | 1.1512     |  22.3 |  4.21
Output  | 6.9857e-05 | 9.9421e-05 | 0.00012898 |   0.0 |  0.00
Modify  | 0.3993     | 0.40302    | 0.40675    |   0.6 |  1.81
Other   |            | 0.09908    |            |       |  0.45

Nlocal:    9826 ave 9840 max 9812 min
Histogram: 1 0 0 0 0 0 0 0 0 1
Nghost:    8930 ave 8937 max 8923 min
Histogram: 1 0 0 0 0 0 0 0 0 1
Neighs:    301436 ave 304496 max 298375 min
Histogram: 1 0 0 0 0 0 0 0 0 1

Total # of neighbors = 602871
Ave neighs/atom = 30.6773
Neighbor list builds = 495
Dangerous builds not checked
Setting up Verlet run ...
  Unit style    : metal
  Current step  : 240495
  Time step     : 0.001
Per MPI rank memory allocation (min/avg/max) = 11.35 | 11.35 | 11.35 Mbytes
Step Temp Press TotEng PotEng Enthalpy 
  240495    1902.1885   -283.71244   -76431.733   -81263.465   -76575.642 
  260000    1892.6776    635.33675   -76509.217    -81316.79   -76188.459 
Loop time of 882.176 on 2 procs for 19505 steps with 19652 atoms

Performance: 1.910 ns/day, 12.563 hours/ns, 22.110 timesteps/s
99.8% CPU use with 2 MPI tasks x no OpenMP threads

MPI task timing breakdown:
Section |  min time  |  avg time  |  max time  |%varavg| %total
---------------------------------------------------------------
Pair    | 413.9      | 419.19     | 424.48     |  25.8 | 47.52
Neigh   | 410.16     | 412.53     | 414.9      |  11.7 | 46.76
Comm    | 28.005     | 30.894     | 33.784     |  52.0 |  3.50
Output  | 0.066648   | 0.066662   | 0.066676   |   0.0 |  0.01
Modify  | 15.575     | 15.612     | 15.649     |   0.9 |  1.77
Other   |            | 3.89       |            |       |  0.44

Nlocal:    9826 ave 9845 max 9807 min
Histogram: 1 0 0 0 0 0 0 0 0 1
Nghost:    8929 ave 8945 max 8913 min
Histogram: 1 0 0 0 0 0 0 0 0 1
Neighs:    302928 ave 304709 max 301147 min
Histogram: 1 0 0 0 0 0 0 0 0 1

Total # of neighbors = 605856
Ave neighs/atom = 30.8292
Neighbor list builds = 19505
Dangerous builds not checked
Setting up Verlet run ...
  Unit style    : metal
  Current step  : 260000
  Time step     : 0.001
Per MPI rank memory allocation (min/avg/max) = 11.35 | 11.35 | 11.35 Mbytes
Step Temp Press TotEng PotEng Enthalpy 
  260000    1892.6776    635.33675   -76509.217    -81316.79   -76188.459 
  260495    1858.0094    655.66827   -76662.998   -81382.511   -76332.391 
Loop time of 21.8412 on 2 procs for 495 steps with 19652 atoms

Performance: 1.958 ns/day, 12.257 hours/ns, 22.664 timesteps/s
99.5% CPU use with 2 MPI tasks x no OpenMP threads

MPI task timing breakdown:
Section |  min time  |  avg time  |  max time  |%varavg| %total
---------------------------------------------------------------
Pair    | 10.265     | 10.31      | 10.354     |   1.4 | 47.20
Neigh   | 10.216     | 10.375     | 10.534     |   4.9 | 47.50
Comm    | 0.41581    | 0.63197    | 0.84813    |  27.2 |  2.89
Output  | 6.6996e-05 | 0.00010395 | 0.00014091 |   0.0 |  0.00
Modify  | 0.40955    | 0.42084    | 0.43214    |   1.7 |  1.93
Other   |            | 0.1034     |            |       |  0.47

Nlocal:    9826 ave 9834 max 9818 min
Histogram: 1 0 0 0 0 0 0 0 0 1
Nghost:    8937 ave 8944 max 8930 min
Histogram: 1 0 0 0 0 0 0 0 0 1
Neighs:    303216 ave 305365 max 301068 min
Histogram: 1 0 0 0 0 0 0 0 0 1

Total # of neighbors = 606433
Ave neighs/atom = 30.8586
Neighbor list builds = 495
Dangerous builds not checked
Setting up Verlet run ...
  Unit style    : metal
  Current step  : 260495
  Time step     : 0.001
Per MPI rank memory allocation (min/avg/max) = 11.35 | 11.35 | 11.35 Mbytes
Step Temp Press TotEng PotEng Enthalpy 
  260495    1858.0094    655.66827   -76662.998   -81382.511   -76332.391 
  280000    1839.0166   -176.34031   -76698.221    -81369.49   -76787.353 
Loop time of 859.919 on 2 procs for 19505 steps with 19652 atoms

Performance: 1.960 ns/day, 12.246 hours/ns, 22.682 timesteps/s
99.7% CPU use with 2 MPI tasks x no OpenMP threads

MPI task timing breakdown:
Section |  min time  |  avg time  |  max time  |%varavg| %total
---------------------------------------------------------------
Pair    | 399.24     | 404.93     | 410.62     |  28.3 | 47.09
Neigh   | 407.62     | 408.57     | 409.52     |   4.7 | 47.51
Comm    | 22.29      | 27.059     | 31.828     |  91.7 |  3.15
Output  | 0.055496   | 0.055512   | 0.055528   |   0.0 |  0.01
Modify  | 15.349     | 15.39      | 15.43      |   1.0 |  1.79
Other   |            | 3.915      |            |       |  0.46

Nlocal:    9826 ave 9831 max 9821 min
Histogram: 1 0 0 0 0 0 0 0 0 1
Nghost:    8897 ave 8917 max 8877 min
Histogram: 1 0 0 0 0 0 0 0 0 1
Neighs:    302672 ave 305656 max 299689 min
Histogram: 1 0 0 0 0 0 0 0 0 1

Total # of neighbors = 605345
Ave neighs/atom = 30.8032
Neighbor list builds = 19505
Dangerous builds not checked
Setting up Verlet run ...
  Unit style    : metal
  Current step  : 280000
  Time step     : 0.001
Per MPI rank memory allocation (min/avg/max) = 11.35 | 11.35 | 11.35 Mbytes
Step Temp Press TotEng PotEng Enthalpy 
  280000    1839.0166   -176.34031   -76698.221    -81369.49   -76787.353 
  280495    1812.4061    38.577731   -76889.788   -81493.465    -76870.33 
Loop time of 22.6378 on 2 procs for 495 steps with 19652 atoms

Performance: 1.889 ns/day, 12.704 hours/ns, 21.866 timesteps/s
99.9% CPU use with 2 MPI tasks x no OpenMP threads

MPI task timing breakdown:
Section |  min time  |  avg time  |  max time  |%varavg| %total
---------------------------------------------------------------
Pair    | 10.585     | 10.784     | 10.983     |   6.1 | 47.64
Neigh   | 10.039     | 10.593     | 11.148     |  17.0 | 46.80
Comm    | 0.38752    | 0.76241    | 1.1373     |  42.9 |  3.37
Output  | 7.1049e-05 | 0.0001086  | 0.00014615 |   0.0 |  0.00
Modify  | 0.37941    | 0.39827    | 0.41713    |   3.0 |  1.76
Other   |            | 0.09937    |            |       |  0.44

Nlocal:    9826 ave 9843 max 9809 min
Histogram: 1 0 0 0 0 0 0 0 0 1
Nghost:    8916 ave 8936 max 8896 min
Histogram: 1 0 0 0 0 0 0 0 0 1
Neighs:    303120 ave 304837 max 301404 min
Histogram: 1 0 0 0 0 0 0 0 0 1

Total # of neighbors = 606241
Ave neighs/atom = 30.8488
Neighbor list builds = 495
Dangerous builds not checked
Setting up Verlet run ...
  Unit style    : metal
  Current step  : 280495
  Time step     : 0.001
Per MPI rank memory allocation (min/avg/max) = 11.35 | 11.35 | 11.35 Mbytes
Step Temp Press TotEng PotEng Enthalpy 
  280495    1812.4061    38.577731   -76889.788   -81493.465    -76870.33 
  300000    1807.7613    181.54588   -76924.952    -81516.83   -76833.493 
Loop time of 871.03 on 2 procs for 19505 steps with 19652 atoms

Performance: 1.935 ns/day, 12.405 hours/ns, 22.393 timesteps/s
99.1% CPU use with 2 MPI tasks x no OpenMP threads

MPI task timing breakdown:
Section |  min time  |  avg time  |  max time  |%varavg| %total
---------------------------------------------------------------
Pair    | 409.64     | 413.16     | 416.69     |  17.3 | 47.43
Neigh   | 400.4      | 405.97     | 411.53     |  27.6 | 46.61
Comm    | 30.266     | 32.429     | 34.592     |  38.0 |  3.72
Output  | 0.056902   | 0.056917   | 0.056933   |   0.0 |  0.01
Modify  | 15.257     | 15.389     | 15.52      |   3.4 |  1.77
Other   |            | 4.028      |            |       |  0.46

Nlocal:    9826 ave 9826 max 9826 min
Histogram: 2 0 0 0 0 0 0 0 0 0
Nghost:    8908.5 ave 8914 max 8903 min
Histogram: 1 0 0 0 0 0 0 0 0 1
Neighs:    303660 ave 306417 max 300902 min
Histogram: 1 0 0 0 0 0 0 0 0 1

Total # of neighbors = 607319
Ave neighs/atom = 30.9037
Neighbor list builds = 19505
Dangerous builds not checked
Setting up Verlet run ...
  Unit style    : metal
  Current step  : 300000
  Time step     : 0.001
Per MPI rank memory allocation (min/avg/max) = 11.36 | 11.36 | 11.36 Mbytes
Step Temp Press TotEng PotEng Enthalpy 
  300000    1807.7613    181.54588   -76924.952    -81516.83   -76833.493 
  300495    1762.8903    33.382234   -77101.371   -81579.273   -77084.571 
Loop time of 20.0863 on 2 procs for 495 steps with 19652 atoms

Performance: 2.129 ns/day, 11.272 hours/ns, 24.644 timesteps/s
100.0% CPU use with 2 MPI tasks x no OpenMP threads

MPI task timing breakdown:
Section |  min time  |  avg time  |  max time  |%varavg| %total
---------------------------------------------------------------
Pair    | 9.3408     | 9.4534     | 9.5661     |   3.7 | 47.06
Neigh   | 9.3426     | 9.4097     | 9.4769     |   2.2 | 46.85
Comm    | 0.72862    | 0.77579    | 0.82297    |   5.4 |  3.86
Output  | 7.4863e-05 | 0.00010335 | 0.00013185 |   0.0 |  0.00
Modify  | 0.35052    | 0.35304    | 0.35555    |   0.4 |  1.76
Other   |            | 0.09419    |            |       |  0.47

Nlocal:    9826 ave 9831 max 9821 min
Histogram: 1 0 0 0 0 0 0 0 0 1
Nghost:    8935 ave 8936 max 8934 min
Histogram: 1 0 0 0 0 0 0 0 0 1
Neighs:    303922 ave 306729 max 301115 min
Histogram: 1 0 0 0 0 0 0 0 0 1

Total # of neighbors = 607844
Ave neighs/atom = 30.9304
Neighbor list builds = 495
Dangerous builds not checked
Setting up Verlet run ...
  Unit style    : metal
  Current step  : 300495
  Time step     : 0.001
Per MPI rank memory allocation (min/avg/max) = 11.36 | 11.36 | 11.36 Mbytes
Step Temp Press TotEng PotEng Enthalpy 
  300495    1762.8903    33.382234   -77101.371   -81579.273   -77084.571 
  320000    1735.9304   -105.36854   -77192.183   -81601.604   -77245.204 
Loop time of 857.739 on 2 procs for 19505 steps with 19652 atoms

Performance: 1.965 ns/day, 12.215 hours/ns, 22.740 timesteps/s
99.3% CPU use with 2 MPI tasks x no OpenMP threads

MPI task timing breakdown:
Section |  min time  |  avg time  |  max time  |%varavg| %total
---------------------------------------------------------------
Pair    | 404.17     | 407.1      | 410.03     |  14.5 | 47.46
Neigh   | 399.79     | 400.09     | 400.38     |   1.5 | 46.64
Comm    | 28.879     | 31.446     | 34.014     |  45.8 |  3.67
Output  | 0.051552   | 0.051569   | 0.051586   |   0.0 |  0.01
Modify  | 15.073     | 15.089     | 15.105     |   0.4 |  1.76
Other   |            | 3.966      |            |       |  0.46

Nlocal:    9826 ave 9841 max 9811 min
Histogram: 1 0 0 0 0 0 0 0 0 1
Nghost:    8910 ave 8922 max 8898 min
Histogram: 1 0 0 0 0 0 0 0 0 1
Neighs:    303829 ave 305223 max 302435 min
Histogram: 1 0 0 0 0 0 0 0 0 1

Total # of neighbors = 607658
Ave neighs/atom = 30.9209
Neighbor list builds = 19505
Dangerous builds not checked
Setting up Verlet run ...
  Unit style    : metal
  Current step  : 320000
  Time step     : 0.001
Per MPI rank memory allocation (min/avg/max) = 11.36 | 11.36 | 11.36 Mbytes
Step Temp Press TotEng PotEng Enthalpy 
  320000    1735.9304   -105.36854   -77192.183   -81601.604   -77245.204 
  320495    1698.0887   -202.89375   -77390.571   -81703.871    -77492.47 
Loop time of 21.6118 on 2 procs for 495 steps with 19652 atoms

Performance: 1.979 ns/day, 12.128 hours/ns, 22.904 timesteps/s
100.0% CPU use with 2 MPI tasks x no OpenMP threads

MPI task timing breakdown:
Section |  min time  |  avg time  |  max time  |%varavg| %total
---------------------------------------------------------------
Pair    | 10.123     | 10.169     | 10.215     |   1.4 | 47.05
Neigh   | 10.066     | 10.205     | 10.343     |   4.3 | 47.22
Comm    | 0.56739    | 0.7574     | 0.94741    |  21.8 |  3.50
Output  | 6.6996e-05 | 9.9063e-05 | 0.00013113 |   0.0 |  0.00
Modify  | 0.37928    | 0.38487    | 0.39047    |   0.9 |  1.78
Other   |            | 0.09512    |            |       |  0.44

Nlocal:    9826 ave 9837 max 9815 min
Histogram: 1 0 0 0 0 0 0 0 0 1
Nghost:    8936 ave 8968 max 8904 min
Histogram: 1 0 0 0 0 0 0 0 0 1
Neighs:    304159 ave 305901 max 302417 min
Histogram: 1 0 0 0 0 0 0 0 0 1

Total # of neighbors = 608318
Ave neighs/atom = 30.9545
Neighbor list builds = 495
Dangerous builds not checked
Setting up Verlet run ...
  Unit style    : metal
  Current step  : 320495
  Time step     : 0.001
Per MPI rank memory allocation (min/avg/max) = 11.36 | 11.36 | 11.36 Mbytes
Step Temp Press TotEng PotEng Enthalpy 
  320495    1698.0887   -202.89375   -77390.571   -81703.871    -77492.47 
  340000    1702.5811   -41.397888   -77420.964   -81745.675   -77441.737 
Loop time of 849.232 on 2 procs for 19505 steps with 19652 atoms

Performance: 1.984 ns/day, 12.094 hours/ns, 22.968 timesteps/s
99.2% CPU use with 2 MPI tasks x no OpenMP threads

MPI task timing breakdown:
Section |  min time  |  avg time  |  max time  |%varavg| %total
---------------------------------------------------------------
Pair    | 399.14     | 403.92     | 408.7      |  23.8 | 47.56
Neigh   | 389.67     | 392.5      | 395.33     |  14.3 | 46.22
Comm    | 32.488     | 34.166     | 35.843     |  28.7 |  4.02
Output  | 0.19       | 0.19002    | 0.19003    |   0.0 |  0.02
Modify  | 14.583     | 14.702     | 14.822     |   3.1 |  1.73
Other   |            | 3.754      |            |       |  0.44

Nlocal:    9826 ave 9834 max 9818 min
Histogram: 1 0 0 0 0 0 0 0 0 1
Nghost:    8986.5 ave 8989 max 8984 min
Histogram: 1 0 0 0 0 0 0 0 0 1
Neighs:    304462 ave 306538 max 302387 min
Histogram: 1 0 0 0 0 0 0 0 0 1

Total # of neighbors = 608925
Ave neighs/atom = 30.9854
Neighbor list builds = 19505
Dangerous builds not checked
Setting up Verlet run ...
  Unit style    : metal
  Current step  : 340000
  Time step     : 0.001
Per MPI rank memory allocation (min/avg/max) = 11.36 | 11.36 | 11.36 Mbytes
Step Temp Press TotEng PotEng Enthalpy 
  340000    1702.5811   -41.397888   -77420.964   -81745.675   -77441.737 
  340495    1658.2421    166.31429   -77604.259   -81816.345    -77520.97 
Loop time of 20.7802 on 2 procs for 495 steps with 19652 atoms

Performance: 2.058 ns/day, 11.661 hours/ns, 23.821 timesteps/s
99.9% CPU use with 2 MPI tasks x no OpenMP threads

MPI task timing breakdown:
Section |  min time  |  avg time  |  max time  |%varavg| %total
---------------------------------------------------------------
Pair    | 9.8009     | 9.8102     | 9.8195     |   0.3 | 47.21
Neigh   | 9.6691     | 9.7991     | 9.9292     |   4.2 | 47.16
Comm    | 0.57151    | 0.70716    | 0.84282    |  16.1 |  3.40
Output  | 7.1049e-05 | 0.00010061 | 0.00013018 |   0.0 |  0.00
Modify  | 0.36439    | 0.36572    | 0.36705    |   0.2 |  1.76
Other   |            | 0.09789    |            |       |  0.47

Nlocal:    9826 ave 9833 max 9819 min
Histogram: 1 0 0 0 0 0 0 0 0 1
Nghost:    8932 ave 8956 max 8908 min
Histogram: 1 0 0 0 0 0 0 0 0 1
Neighs:    305298 ave 307847 max 302748 min
Histogram: 1 0 0 0 0 0 0 0 0 1

Total # of neighbors = 610595
Ave neighs/atom = 31.0704
Neighbor list builds = 495
Dangerous builds not checked
Setting up Verlet run ...
  Unit style    : metal
  Current step  : 340495
  Time step     : 0.001
Per MPI rank memory allocation (min/avg/max) = 11.36 | 11.36 | 11.36 Mbytes
Step Temp Press TotEng PotEng Enthalpy 
  340495    1658.2421    166.31429   -77604.259   -81816.345    -77520.97 
  360000    1657.2426    138.87676   -77690.218   -81899.765   -77620.735 
Loop time of 861.306 on 2 procs for 19505 steps with 19652 atoms

Performance: 1.957 ns/day, 12.266 hours/ns, 22.646 timesteps/s
98.8% CPU use with 2 MPI tasks x no OpenMP threads

MPI task timing breakdown:
Section |  min time  |  avg time  |  max time  |%varavg| %total
---------------------------------------------------------------
Pair    | 402.33     | 405.99     | 409.64     |  18.1 | 47.14
Neigh   | 394.89     | 397.15     | 399.41     |  11.3 | 46.11
Comm    | 32.97      | 38.987     | 45.005     |  96.4 |  4.53
Output  | 0.15745    | 0.15747    | 0.15749    |   0.0 |  0.02
Modify  | 15.128     | 15.269     | 15.411     |   3.6 |  1.77
Other   |            | 3.754      |            |       |  0.44

Nlocal:    9826 ave 9832 max 9820 min
Histogram: 1 0 0 0 0 0 0 0 0 1
Nghost:    8946.5 ave 8956 max 8937 min
Histogram: 1 0 0 0 0 0 0 0 0 1
Neighs:    305694 ave 307828 max 303561 min
Histogram: 1 0 0 0 0 0 0 0 0 1

Total # of neighbors = 611389
Ave neighs/atom = 31.1108
Neighbor list builds = 19505
Dangerous builds not checked
Setting up Verlet run ...
  Unit style    : metal
  Current step  : 360000
  Time step     : 0.001
Per MPI rank memory allocation (min/avg/max) = 11.36 | 11.36 | 11.36 Mbytes
Step Temp Press TotEng PotEng Enthalpy 
  360000    1657.2426    138.87676   -77690.218   -81899.765   -77620.735 
  360495    1609.8117    189.58955    -77877.89   -81966.958   -77783.203 
Loop time of 21.7458 on 2 procs for 495 steps with 19652 atoms

Performance: 1.967 ns/day, 12.203 hours/ns, 22.763 timesteps/s
98.6% CPU use with 2 MPI tasks x no OpenMP threads

MPI task timing breakdown:
Section |  min time  |  avg time  |  max time  |%varavg| %total
---------------------------------------------------------------
Pair    | 10.134     | 10.352     | 10.571     |   6.8 | 47.61
Neigh   | 10.002     | 10.097     | 10.192     |   3.0 | 46.43
Comm    | 0.68759    | 0.81757    | 0.94755    |  14.4 |  3.76
Output  | 7.6056e-05 | 0.00010598 | 0.0001359  |   0.0 |  0.00
Modify  | 0.37843    | 0.38379    | 0.38914    |   0.9 |  1.76
Other   |            | 0.0951     |            |       |  0.44

Nlocal:    9826 ave 9828 max 9824 min
Histogram: 1 0 0 0 0 0 0 0 0 1
Nghost:    8928 ave 8965 max 8891 min
Histogram: 1 0 0 0 0 0 0 0 0 1
Neighs:    306154 ave 308641 max 303667 min
Histogram: 1 0 0 0 0 0 0 0 0 1

Total # of neighbors = 612308
Ave neighs/atom = 31.1575
Neighbor list builds = 495
Dangerous builds not checked
Setting up Verlet run ...
  Unit style    : metal
  Current step  : 360495
  Time step     : 0.001
Per MPI rank memory allocation (min/avg/max) = 11.36 | 11.36 | 11.36 Mbytes
Step Temp Press TotEng PotEng Enthalpy 
  360495    1609.8117    189.58955    -77877.89   -81966.958   -77783.203 
  380000    1612.2437    305.97766   -77878.069   -81973.315   -77725.344 
Loop time of 901.79 on 2 procs for 19505 steps with 19652 atoms

Performance: 1.869 ns/day, 12.843 hours/ns, 21.629 timesteps/s
98.6% CPU use with 2 MPI tasks x no OpenMP threads

MPI task timing breakdown:
Section |  min time  |  avg time  |  max time  |%varavg| %total
---------------------------------------------------------------
Pair    | 422.73     | 428.42     | 434.12     |  27.5 | 47.51
Neigh   | 401.34     | 403.94     | 406.54     |  12.9 | 44.79
Comm    | 41.831     | 50.228     | 58.625     | 118.5 |  5.57
Output  | 0.053797   | 0.053807   | 0.053817   |   0.0 |  0.01
Modify  | 15.277     | 15.368     | 15.459     |   2.3 |  1.70
Other   |            | 3.781      |            |       |  0.42

Nlocal:    9826 ave 9854 max 9798 min
Histogram: 1 0 0 0 0 0 0 0 0 1
Nghost:    8932.5 ave 8984 max 8881 min
Histogram: 1 0 0 0 0 0 0 0 0 1
Neighs:    306230 ave 309281 max 303180 min
Histogram: 1 0 0 0 0 0 0 0 0 1

Total # of neighbors = 612461
Ave neighs/atom = 31.1653
Neighbor list builds = 19505
Dangerous builds not checked
Setting up Verlet run ...
  Unit style    : metal
  Current step  : 380000
  Time step     : 0.001
Per MPI rank memory allocation (min/avg/max) = 11.36 | 11.36 | 11.36 Mbytes
Step Temp Press TotEng PotEng Enthalpy 
  380000    1612.2437    305.97766   -77878.069   -81973.315   -77725.344 
  380495    1561.4298    477.56814   -78090.577   -82056.751    -77852.72 
Loop time of 21.9463 on 2 procs for 495 steps with 19652 atoms

Performance: 1.949 ns/day, 12.316 hours/ns, 22.555 timesteps/s
99.6% CPU use with 2 MPI tasks x no OpenMP threads

MPI task timing breakdown:
Section |  min time  |  avg time  |  max time  |%varavg| %total
---------------------------------------------------------------
Pair    | 10.395     | 10.491     | 10.588     |   3.0 | 47.80
Neigh   | 9.7628     | 10.034     | 10.305     |   8.6 | 45.72
Comm    | 0.55412    | 0.93785    | 1.3216     |  39.6 |  4.27
Output  | 8.0109e-05 | 0.00011408 | 0.00014806 |   0.0 |  0.00
Modify  | 0.37615    | 0.38794    | 0.39974    |   1.9 |  1.77
Other   |            | 0.09529    |            |       |  0.43

Nlocal:    9826 ave 9832 max 9820 min
Histogram: 1 0 0 0 0 0 0 0 0 1
Nghost:    8956 ave 8974 max 8938 min
Histogram: 1 0 0 0 0 0 0 0 0 1
Neighs:    306864 ave 309144 max 304583 min
Histogram: 1 0 0 0 0 0 0 0 0 1

Total # of neighbors = 613727
Ave neighs/atom = 31.2297
Neighbor list builds = 495
Dangerous builds not checked
Setting up Verlet run ...
  Unit style    : metal
  Current step  : 380495
  Time step     : 0.001
Per MPI rank memory allocation (min/avg/max) = 11.36 | 11.36 | 11.36 Mbytes
Step Temp Press TotEng PotEng Enthalpy 
  380495    1561.4298    477.56814   -78090.577   -82056.751    -77852.72 
  400000    1561.5928    482.79378   -78166.826   -82133.414   -77926.614 
Loop time of 893.749 on 2 procs for 19505 steps with 19652 atoms

Performance: 1.886 ns/day, 12.728 hours/ns, 21.824 timesteps/s
99.4% CPU use with 2 MPI tasks x no OpenMP threads

MPI task timing breakdown:
Section |  min time  |  avg time  |  max time  |%varavg| %total
---------------------------------------------------------------
Pair    | 424.35     | 430.24     | 436.12     |  28.4 | 48.14
Neigh   | 401.86     | 402.24     | 402.61     |   1.9 | 45.01
Comm    | 35.279     | 41.573     | 47.866     |  97.6 |  4.65
Output  | 0.054343   | 0.054359   | 0.054375   |   0.0 |  0.01
Modify  | 15.903     | 15.937     | 15.971     |   0.9 |  1.78
Other   |            | 3.712      |            |       |  0.42

Nlocal:    9826 ave 9830 max 9822 min
Histogram: 1 0 0 0 0 0 0 0 0 1
Nghost:    8977.5 ave 8980 max 8975 min
Histogram: 1 0 0 0 0 0 0 0 0 1
Neighs:    307122 ave 309570 max 304673 min
Histogram: 1 0 0 0 0 0 0 0 0 1

Total # of neighbors = 614243
Ave neighs/atom = 31.256
Neighbor list builds = 19505
Dangerous builds not checked
Setting up Verlet run ...
  Unit style    : metal
  Current step  : 400000
  Time step     : 0.001
Per MPI rank memory allocation (min/avg/max) = 11.36 | 11.36 | 11.36 Mbytes
Step Temp Press TotEng PotEng Enthalpy 
  400000    1561.5928    482.79378   -78166.826   -82133.414   -77926.614 
  400495    1503.9899    697.18376   -78355.026   -82175.297   -78008.912 
Loop time of 22.5637 on 2 procs for 495 steps with 19652 atoms

Performance: 1.895 ns/day, 12.662 hours/ns, 21.938 timesteps/s
99.9% CPU use with 2 MPI tasks x no OpenMP threads

MPI task timing breakdown:
Section |  min time  |  avg time  |  max time  |%varavg| %total
---------------------------------------------------------------
Pair    | 10.696     | 10.852     | 11.007     |   4.7 | 48.09
Neigh   | 9.9507     | 10.238     | 10.526     |   9.0 | 45.38
Comm    | 0.51814    | 0.975      | 1.4319     |  46.3 |  4.32
Output  | 7.081e-05  | 0.00010395 | 0.00013709 |   0.0 |  0.00
Modify  | 0.38882    | 0.3994     | 0.40997    |   1.7 |  1.77
Other   |            | 0.09916    |            |       |  0.44

Nlocal:    9826 ave 9831 max 9821 min
Histogram: 1 0 0 0 0 0 0 0 0 1
Nghost:    8965 ave 8996 max 8934 min
Histogram: 1 0 0 0 0 0 0 0 0 1
Neighs:    307818 ave 309863 max 305773 min
Histogram: 1 0 0 0 0 0 0 0 0 1

Total # of neighbors = 615636
Ave neighs/atom = 31.3269
Neighbor list builds = 495
Dangerous builds not checked
Setting up Verlet run ...
  Unit style    : metal
  Current step  : 400495
  Time step     : 0.001
Per MPI rank memory allocation (min/avg/max) = 11.36 | 11.36 | 11.36 Mbytes
Step Temp Press TotEng PotEng Enthalpy 
  400495    1503.9899    697.18376   -78355.026   -82175.297   -78008.912 
  420000    1499.9819   -684.64455   -78412.901   -82222.992   -78754.294 
Loop time of 892.647 on 2 procs for 19505 steps with 19652 atoms

Performance: 1.888 ns/day, 12.713 hours/ns, 21.851 timesteps/s
99.3% CPU use with 2 MPI tasks x no OpenMP threads

MPI task timing breakdown:
Section |  min time  |  avg time  |  max time  |%varavg| %total
---------------------------------------------------------------
Pair    | 427.36     | 432.79     | 438.22     |  26.1 | 48.48
Neigh   | 394.18     | 397.06     | 399.94     |  14.5 | 44.48
Comm    | 35.651     | 44.041     | 52.431     | 126.4 |  4.93
Output  | 0.17464    | 0.17465    | 0.17466    |   0.0 |  0.02
Modify  | 14.877     | 14.94      | 15.003     |   1.6 |  1.67
Other   |            | 3.638      |            |       |  0.41

Nlocal:    9826 ave 9847 max 9805 min
Histogram: 1 0 0 0 0 0 0 0 0 1
Nghost:    9001.5 ave 9008 max 8995 min
Histogram: 1 0 0 0 0 0 0 0 0 1
Neighs:    306452 ave 310460 max 302444 min
Histogram: 1 0 0 0 0 0 0 0 0 1

Total # of neighbors = 612904
Ave neighs/atom = 31.1879
Neighbor list builds = 19505
Dangerous builds not checked
Setting up Verlet run ...
  Unit style    : metal
  Current step  : 420000
  Time step     : 0.001
Per MPI rank memory allocation (min/avg/max) = 11.36 | 11.36 | 11.36 Mbytes
Step Temp Press TotEng PotEng Enthalpy 
  420000    1499.9819   -684.64455   -78412.901   -82222.992   -78754.294 
  420495    1443.3437   -431.12911   -78640.218   -82306.442    -78854.59 
Loop time of 21.9288 on 2 procs for 495 steps with 19652 atoms

Performance: 1.950 ns/day, 12.306 hours/ns, 22.573 timesteps/s
99.9% CPU use with 2 MPI tasks x no OpenMP threads

MPI task timing breakdown:
Section |  min time  |  avg time  |  max time  |%varavg| %total
---------------------------------------------------------------
Pair    | 10.422     | 10.58      | 10.738     |   4.9 | 48.25
Neigh   | 9.4235     | 9.87       | 10.316     |  14.2 | 45.01
Comm    | 0.69702    | 1.0086     | 1.3201     |  31.0 |  4.60
Output  | 6.9141e-05 | 9.9063e-05 | 0.00012898 |   0.0 |  0.00
Modify  | 0.36118    | 0.37852    | 0.39587    |   2.8 |  1.73
Other   |            | 0.09174    |            |       |  0.42

Nlocal:    9826 ave 9831 max 9821 min
Histogram: 1 0 0 0 0 0 0 0 0 1
Nghost:    9004.5 ave 9009 max 9000 min
Histogram: 1 0 0 0 0 0 0 0 0 1
Neighs:    307453 ave 310685 max 304221 min
Histogram: 1 0 0 0 0 0 0 0 0 1

Total # of neighbors = 614906
Ave neighs/atom = 31.2897
Neighbor list builds = 495
Dangerous builds not checked
Setting up Verlet run ...
  Unit style    : metal
  Current step  : 420495
  Time step     : 0.001
Per MPI rank memory allocation (min/avg/max) = 11.36 | 11.36 | 11.36 Mbytes
Step Temp Press TotEng PotEng Enthalpy 
  420495    1443.3437   -431.12911   -78640.218   -82306.442    -78854.59 
  440000    1451.8595   -455.94606    -78636.24   -82324.095   -78862.956 
Loop time of 873.661 on 2 procs for 19505 steps with 19652 atoms

Performance: 1.929 ns/day, 12.442 hours/ns, 22.326 timesteps/s
99.6% CPU use with 2 MPI tasks x no OpenMP threads

MPI task timing breakdown:
Section |  min time  |  avg time  |  max time  |%varavg| %total
---------------------------------------------------------------
Pair    | 415.74     | 420.17     | 424.61     |  21.6 | 48.09
Neigh   | 389.86     | 391.83     | 393.8      |  10.0 | 44.85
Comm    | 36.675     | 43.117     | 49.558     |  98.1 |  4.94
Output  | 0.25135    | 0.25136    | 0.25138    |   0.0 |  0.03
Modify  | 14.679     | 14.715     | 14.751     |   0.9 |  1.68
Other   |            | 3.571      |            |       |  0.41

Nlocal:    9826 ave 9852 max 9800 min
Histogram: 1 0 0 0 0 0 0 0 0 1
Nghost:    8991.5 ave 9014 max 8969 min
Histogram: 1 0 0 0 0 0 0 0 0 1
Neighs:    307134 ave 308625 max 305643 min
Histogram: 1 0 0 0 0 0 0 0 0 1

Total # of neighbors = 614268
Ave neighs/atom = 31.2573
Neighbor list builds = 19505
Dangerous builds not checked
Setting up Verlet run ...
  Unit style    : metal
  Current step  : 440000
  Time step     : 0.001
Per MPI rank memory allocation (min/avg/max) = 11.36 | 11.36 | 11.36 Mbytes
Step Temp Press TotEng PotEng Enthalpy 
  440000    1451.8595   -455.94606    -78636.24   -82324.095   -78862.956 
  440495    1408.1219   -552.78164   -78869.169   -82445.927   -79143.361 
Loop time of 22.1352 on 2 procs for 495 steps with 19652 atoms

Performance: 1.932 ns/day, 12.422 hours/ns, 22.363 timesteps/s
99.9% CPU use with 2 MPI tasks x no OpenMP threads

MPI task timing breakdown:
Section |  min time  |  avg time  |  max time  |%varavg| %total
---------------------------------------------------------------
Pair    | 10.445     | 10.609     | 10.773     |   5.0 | 47.93
Neigh   | 9.9912     | 10.052     | 10.113     |   1.9 | 45.41
Comm    | 0.89219    | 0.99366    | 1.0951     |  10.2 |  4.49
Output  | 7.0095e-05 | 0.00010204 | 0.00013399 |   0.0 |  0.00
Modify  | 0.38523    | 0.38721    | 0.38919    |   0.3 |  1.75
Other   |            | 0.09347    |            |       |  0.42

Nlocal:    9826 ave 9831 max 9821 min
Histogram: 1 0 0 0 0 0 0 0 0 1
Nghost:    9024.5 ave 9061 max 8988 min
Histogram: 1 0 0 0 0 0 0 0 0 1
Neighs:    308053 ave 310504 max 305602 min
Histogram: 1 0 0 0 0 0 0 0 0 1

Total # of neighbors = 616106
Ave neighs/atom = 31.3508
Neighbor list builds = 495
Dangerous builds not checked
Setting up Verlet run ...
  Unit style    : metal
  Current step  : 440495
  Time step     : 0.001
Per MPI rank memory allocation (min/avg/max) = 11.36 | 11.36 | 11.36 Mbytes
Step Temp Press TotEng PotEng Enthalpy 
  440495    1408.1219   -552.78164   -78869.169   -82445.927   -79143.361 
  460000    1404.2226   -184.43257   -78932.401   -82499.254   -79023.764 
Loop time of 880.058 on 2 procs for 19505 steps with 19652 atoms

Performance: 1.915 ns/day, 12.533 hours/ns, 22.163 timesteps/s
97.4% CPU use with 2 MPI tasks x no OpenMP threads

MPI task timing breakdown:
Section |  min time  |  avg time  |  max time  |%varavg| %total
---------------------------------------------------------------
Pair    | 416.92     | 421.42     | 425.91     |  21.9 | 47.88
Neigh   | 386        | 386.11     | 386.22     |   0.6 | 43.87
Comm    | 49.927     | 54.267     | 58.607     |  58.9 |  6.17
Output  | 0.05732    | 0.057337   | 0.057354   |   0.0 |  0.01
Modify  | 14.619     | 14.649     | 14.68      |   0.8 |  1.66
Other   |            | 3.558      |            |       |  0.40

Nlocal:    9826 ave 9842 max 9810 min
Histogram: 1 0 0 0 0 0 0 0 0 1
Nghost:    8969.5 ave 8982 max 8957 min
Histogram: 1 0 0 0 0 0 0 0 0 1
Neighs:    308498 ave 312031 max 304965 min
Histogram: 1 0 0 0 0 0 0 0 0 1

Total # of neighbors = 616996
Ave neighs/atom = 31.3961
Neighbor list builds = 19505
Dangerous builds not checked
Setting up Verlet run ...
  Unit style    : metal
  Current step  : 460000
  Time step     : 0.001
Per MPI rank memory allocation (min/avg/max) = 11.36 | 11.37 | 11.37 Mbytes
Step Temp Press TotEng PotEng Enthalpy 
  460000    1404.2226   -184.43257   -78932.401   -82499.254   -79023.764 
  460495     1355.396   -269.55784   -79113.159   -82555.988   -79246.469 
Loop time of 22.5278 on 2 procs for 495 steps with 19652 atoms

Performance: 1.898 ns/day, 12.642 hours/ns, 21.973 timesteps/s
98.8% CPU use with 2 MPI tasks x no OpenMP threads

MPI task timing breakdown:
Section |  min time  |  avg time  |  max time  |%varavg| %total
---------------------------------------------------------------
Pair    | 10.697     | 10.806     | 10.915     |   3.3 | 47.97
Neigh   | 9.6447     | 10.247     | 10.849     |  18.8 | 45.49
Comm    | 0.48314    | 0.9932     | 1.5033     |  51.2 |  4.41
Output  | 6.9857e-05 | 0.00010037 | 0.00013089 |   0.0 |  0.00
Modify  | 0.37519    | 0.3873     | 0.39942    |   1.9 |  1.72
Other   |            | 0.094      |            |       |  0.42

Nlocal:    9826 ave 9843 max 9809 min
Histogram: 1 0 0 0 0 0 0 0 0 1
Nghost:    9031 ave 9032 max 9030 min
Histogram: 1 0 0 0 0 0 0 0 0 1
Neighs:    308947 ave 312352 max 305542 min
Histogram: 1 0 0 0 0 0 0 0 0 1

Total # of neighbors = 617894
Ave neighs/atom = 31.4418
Neighbor list builds = 495
Dangerous builds not checked
Setting up Verlet run ...
  Unit style    : metal
  Current step  : 460495
  Time step     : 0.001
Per MPI rank memory allocation (min/avg/max) = 11.36 | 11.37 | 11.37 Mbytes
Step Temp Press TotEng PotEng Enthalpy 
  460495     1355.396   -269.55784   -79113.159   -82555.988   -79246.469 
  480000    1340.8382    304.48217   -79185.742   -82591.593   -79035.532 
Loop time of 972.655 on 2 procs for 19505 steps with 19652 atoms

Performance: 1.733 ns/day, 13.852 hours/ns, 20.053 timesteps/s
94.1% CPU use with 2 MPI tasks x no OpenMP threads

MPI task timing breakdown:
Section |  min time  |  avg time  |  max time  |%varavg| %total
---------------------------------------------------------------
Pair    | 463.26     | 468.51     | 473.76     |  24.3 | 48.17
Neigh   | 394.23     | 397.45     | 400.68     |  16.2 | 40.86
Comm    | 78.975     | 87.575     | 96.176     |  91.9 |  9.00
Output  | 0.13132    | 0.13134    | 0.13136    |   0.0 |  0.01
Modify  | 15.235     | 15.332     | 15.429     |   2.5 |  1.58
Other   |            | 3.649      |            |       |  0.38

Nlocal:    9826 ave 9833 max 9819 min
Histogram: 1 0 0 0 0 0 0 0 0 1
Nghost:    9009.5 ave 9019 max 9000 min
Histogram: 1 0 0 0 0 0 0 0 0 1
Neighs:    309585 ave 311962 max 307208 min
Histogram: 1 0 0 0 0 0 0 0 0 1

Total # of neighbors = 619170
Ave neighs/atom = 31.5067
Neighbor list builds = 19505
Dangerous builds not checked
Setting up Verlet run ...
  Unit style    : metal
  Current step  : 480000
  Time step     : 0.001
Per MPI rank memory allocation (min/avg/max) = 11.36 | 11.37 | 11.37 Mbytes
Step Temp Press TotEng PotEng Enthalpy 
  480000    1340.8382    304.48217   -79185.742   -82591.593   -79035.532 
  480495     1312.628    362.03433   -79381.313   -82715.508   -79203.217 
Loop time of 25.7922 on 2 procs for 495 steps with 19652 atoms

Performance: 1.658 ns/day, 14.474 hours/ns, 19.192 timesteps/s
92.3% CPU use with 2 MPI tasks x no OpenMP threads

MPI task timing breakdown:
Section |  min time  |  avg time  |  max time  |%varavg| %total
---------------------------------------------------------------
Pair    | 11.711     | 11.861     | 12.012     |   4.4 | 45.99
Neigh   | 10.13      | 10.315     | 10.501     |   5.8 | 39.99
Comm    | 2.5616     | 2.9078     | 3.254      |  20.3 | 11.27
Output  | 8.893e-05  | 0.00012493 | 0.00016093 |   0.0 |  0.00
Modify  | 0.5979     | 0.6056     | 0.6133     |   1.0 |  2.35
Other   |            | 0.1018     |            |       |  0.39

Nlocal:    9826 ave 9856 max 9796 min
Histogram: 1 0 0 0 0 0 0 0 0 1
Nghost:    9025.5 ave 9063 max 8988 min
Histogram: 1 0 0 0 0 0 0 0 0 1
Neighs:    310515 ave 312160 max 308870 min
Histogram: 1 0 0 0 0 0 0 0 0 1

Total # of neighbors = 621030
Ave neighs/atom = 31.6014
Neighbor list builds = 495
Dangerous builds not checked
Setting up Verlet run ...
  Unit style    : metal
  Current step  : 480495
  Time step     : 0.001
Per MPI rank memory allocation (min/avg/max) = 11.36 | 11.37 | 11.37 Mbytes
Step Temp Press TotEng PotEng Enthalpy 
  480495     1312.628    362.03433   -79381.313   -82715.508   -79203.217 
  500000    1305.6609   -750.24113   -79445.004   -82761.502   -79815.402 
Loop time of 984.388 on 2 procs for 19505 steps with 19652 atoms

Performance: 1.712 ns/day, 14.019 hours/ns, 19.814 timesteps/s
90.5% CPU use with 2 MPI tasks x no OpenMP threads

MPI task timing breakdown:
Section |  min time  |  avg time  |  max time  |%varavg| %total
---------------------------------------------------------------
Pair    | 468.01     | 471.22     | 474.42     |  14.8 | 47.87
Neigh   | 377.46     | 382.2      | 386.94     |  24.2 | 38.83
Comm    | 104.41     | 112.57     | 120.73     |  76.9 | 11.44
Output  | 0.19584    | 0.19585    | 0.19587    |   0.0 |  0.02
Modify  | 14.491     | 14.613     | 14.735     |   3.2 |  1.48
Other   |            | 3.592      |            |       |  0.36

Nlocal:    9826 ave 9832 max 9820 min
Histogram: 1 0 0 0 0 0 0 0 0 1
Nghost:    9033 ave 9044 max 9022 min
Histogram: 1 0 0 0 0 0 0 0 0 1
Neighs:    309528 ave 312402 max 306653 min
Histogram: 1 0 0 0 0 0 0 0 0 1

Total # of neighbors = 619055
Ave neighs/atom = 31.5009
Neighbor list builds = 19505
Dangerous builds not checked
Setting up Verlet run ...
  Unit style    : metal
  Current step  : 500000
  Time step     : 0.001
Per MPI rank memory allocation (min/avg/max) = 11.36 | 11.37 | 11.37 Mbytes
Step Temp Press TotEng PotEng Enthalpy 
  500000    1305.6609   -750.24113   -79445.004   -82761.502   -79815.402 
  500495     1254.881    -425.0142   -79610.857   -82798.369   -79820.244 
Loop time of 30.3444 on 2 procs for 495 steps with 19652 atoms

Performance: 1.409 ns/day, 17.028 hours/ns, 16.313 timesteps/s
81.5% CPU use with 2 MPI tasks x no OpenMP threads

MPI task timing breakdown:
Section |  min time  |  avg time  |  max time  |%varavg| %total
---------------------------------------------------------------
Pair    | 11.338     | 11.427     | 11.517     |   2.6 | 37.66
Neigh   | 9.728      | 9.849      | 9.9701     |   3.9 | 32.46
Comm    | 7.6434     | 7.8623     | 8.0813     |   7.8 | 25.91
Output  | 5.0783e-05 | 7.7367e-05 | 0.00010395 |   0.0 |  0.00
Modify  | 1.1056     | 1.1109     | 1.1162     |   0.5 |  3.66
Other   |            | 0.09484    |            |       |  0.31

Nlocal:    9826 ave 9842 max 9810 min
Histogram: 1 0 0 0 0 0 0 0 0 1
Nghost:    9009.5 ave 9022 max 8997 min
Histogram: 1 0 0 0 0 0 0 0 0 1
Neighs:    310050 ave 313176 max 306923 min
Histogram: 1 0 0 0 0 0 0 0 0 1

Total # of neighbors = 620099
Ave neighs/atom = 31.554
Neighbor list builds = 495
Dangerous builds not checked
Setting up Verlet run ...
  Unit style    : metal
  Current step  : 500495
  Time step     : 0.001
Per MPI rank memory allocation (min/avg/max) = 11.36 | 11.37 | 11.37 Mbytes
Step Temp Press TotEng PotEng Enthalpy 
  500495     1254.881    -425.0142   -79610.857   -82798.369   -79820.244 
  520000    1253.2471   -592.56635    -79673.29   -82856.652   -79965.166 
Loop time of 883.153 on 2 procs for 19505 steps with 19652 atoms

Performance: 1.908 ns/day, 12.577 hours/ns, 22.086 timesteps/s
96.7% CPU use with 2 MPI tasks x no OpenMP threads

MPI task timing breakdown:
Section |  min time  |  avg time  |  max time  |%varavg| %total
---------------------------------------------------------------
Pair    | 418.51     | 425.17     | 431.83     |  32.3 | 48.14
Neigh   | 380.33     | 383.39     | 386.44     |  15.6 | 43.41
Comm    | 46.419     | 56.282     | 66.146     | 131.5 |  6.37
Output  | 0.053875   | 0.053887   | 0.053898   |   0.0 |  0.01
Modify  | 14.546     | 14.552     | 14.557     |   0.1 |  1.65
Other   |            | 3.708      |            |       |  0.42

Nlocal:    9826 ave 9828 max 9824 min
Histogram: 1 0 0 0 0 0 0 0 0 1
Nghost:    9016 ave 9036 max 8996 min
Histogram: 1 0 0 0 0 0 0 0 0 1
Neighs:    310256 ave 313104 max 307409 min
Histogram: 1 0 0 0 0 0 0 0 0 1

Total # of neighbors = 620513
Ave neighs/atom = 31.5751
Neighbor list builds = 19505
Dangerous builds not checked
Setting up Verlet run ...
  Unit style    : metal
  Current step  : 520000
  Time step     : 0.001
Per MPI rank memory allocation (min/avg/max) = 11.36 | 11.37 | 11.37 Mbytes
Step Temp Press TotEng PotEng Enthalpy 
  520000    1253.2471   -592.56635    -79673.29   -82856.652   -79965.166 
  520495    1215.4281   -156.84355   -79871.768   -82959.066   -79948.773 
Loop time of 22.6144 on 2 procs for 495 steps with 19652 atoms

Performance: 1.891 ns/day, 12.690 hours/ns, 21.889 timesteps/s
98.6% CPU use with 2 MPI tasks x no OpenMP threads

MPI task timing breakdown:
Section |  min time  |  avg time  |  max time  |%varavg| %total
---------------------------------------------------------------
Pair    | 10.381     | 10.747     | 11.113     |  11.2 | 47.52
Neigh   | 10.114     | 10.25      | 10.386     |   4.3 | 45.33
Comm    | 0.62522    | 1.1308     | 1.6364     |  47.5 |  5.00
Output  | 6.8188e-05 | 0.00011468 | 0.00016117 |   0.0 |  0.00
Modify  | 0.38415    | 0.3849     | 0.38565    |   0.1 |  1.70
Other   |            | 0.1016     |            |       |  0.45

Nlocal:    9826 ave 9842 max 9810 min
Histogram: 1 0 0 0 0 0 0 0 0 1
Nghost:    9045 ave 9073 max 9017 min
Histogram: 1 0 0 0 0 0 0 0 0 1
Neighs:    311162 ave 314628 max 307695 min
Histogram: 1 0 0 0 0 0 0 0 0 1

Total # of neighbors = 622323
Ave neighs/atom = 31.6672
Neighbor list builds = 495
Dangerous builds not checked
Setting up Verlet run ...
  Unit style    : metal
  Current step  : 520495
  Time step     : 0.001
Per MPI rank memory allocation (min/avg/max) = 11.36 | 11.37 | 11.37 Mbytes
Step Temp Press TotEng PotEng Enthalpy 
  520495    1215.4281   -156.84355   -79871.768   -82959.066   -79948.773 
  540000    1197.5651    566.84528   -79967.266    -83009.19   -79689.859 
Loop time of 890.938 on 2 procs for 19505 steps with 19652 atoms

Performance: 1.892 ns/day, 12.688 hours/ns, 21.893 timesteps/s
98.9% CPU use with 2 MPI tasks x no OpenMP threads

MPI task timing breakdown:
Section |  min time  |  avg time  |  max time  |%varavg| %total
---------------------------------------------------------------
Pair    | 424.38     | 429.19     | 433.99     |  23.2 | 48.17
Neigh   | 399.02     | 400.66     | 402.29     |   8.2 | 44.97
Comm    | 35.327     | 41.861     | 48.396     | 101.0 |  4.70
Output  | 0.24609    | 0.24611    | 0.24612    |   0.0 |  0.03
Modify  | 15.159     | 15.242     | 15.325     |   2.1 |  1.71
Other   |            | 3.743      |            |       |  0.42

Nlocal:    9826 ave 9830 max 9822 min
Histogram: 1 0 0 0 0 0 0 0 0 1
Nghost:    9056.5 ave 9068 max 9045 min
Histogram: 1 0 0 0 0 0 0 0 0 1
Neighs:    312000 ave 314739 max 309260 min
Histogram: 1 0 0 0 0 0 0 0 0 1

Total # of neighbors = 623999
Ave neighs/atom = 31.7524
Neighbor list builds = 19505
Dangerous builds not checked
Setting up Verlet run ...
  Unit style    : metal
  Current step  : 540000
  Time step     : 0.001
Per MPI rank memory allocation (min/avg/max) = 11.36 | 11.37 | 11.37 Mbytes
Step Temp Press TotEng PotEng Enthalpy 
  540000    1197.5651    566.84528   -79967.266    -83009.19   -79689.859 
  540495    1167.7548    337.67405   -80127.218   -83093.421   -79962.077 
Loop time of 21.9368 on 2 procs for 495 steps with 19652 atoms

Performance: 1.950 ns/day, 12.310 hours/ns, 22.565 timesteps/s
98.6% CPU use with 2 MPI tasks x no OpenMP threads

MPI task timing breakdown:
Section |  min time  |  avg time  |  max time  |%varavg| %total
---------------------------------------------------------------
Pair    | 10.284     | 10.405     | 10.526     |   3.8 | 47.43
Neigh   | 9.5648     | 9.7482     | 9.9316     |   5.9 | 44.44
Comm    | 1.007      | 1.3227     | 1.6384     |  27.5 |  6.03
Output  | 6.9857e-05 | 0.00010097 | 0.00013208 |   0.0 |  0.00
Modify  | 0.36176    | 0.37065    | 0.37953    |   1.5 |  1.69
Other   |            | 0.09057    |            |       |  0.41

Nlocal:    9826 ave 9847 max 9805 min
Histogram: 1 0 0 0 0 0 0 0 0 1
Nghost:    9019.5 ave 9034 max 9005 min
Histogram: 1 0 0 0 0 0 0 0 0 1
Neighs:    312095 ave 313798 max 310392 min
Histogram: 1 0 0 0 0 0 0 0 0 1

Total # of neighbors = 624190
Ave neighs/atom = 31.7622
Neighbor list builds = 495
Dangerous builds not checked
Setting up Verlet run ...
  Unit style    : metal
  Current step  : 540495
  Time step     : 0.001
Per MPI rank memory allocation (min/avg/max) = 11.36 | 11.37 | 11.37 Mbytes
Step Temp Press TotEng PotEng Enthalpy 
  540495    1167.7548    337.67405   -80127.218   -83093.421   -79962.077 
  560000    1141.5901    161.03911    -80225.94   -83125.682   -80147.206 
Loop time of 880.336 on 2 procs for 19505 steps with 19652 atoms

Performance: 1.914 ns/day, 12.537 hours/ns, 22.156 timesteps/s
99.5% CPU use with 2 MPI tasks x no OpenMP threads

MPI task timing breakdown:
Section |  min time  |  avg time  |  max time  |%varavg| %total
---------------------------------------------------------------
Pair    | 419.13     | 423.68     | 428.23     |  22.1 | 48.13
Neigh   | 393.37     | 396.57     | 399.77     |  16.1 | 45.05
Comm    | 33.525     | 41.278     | 49.031     | 120.7 |  4.69
Output  | 0.19742    | 0.19743    | 0.19744    |   0.0 |  0.02
Modify  | 14.93      | 14.96      | 14.989     |   0.8 |  1.70
Other   |            | 3.649      |            |       |  0.41

Nlocal:    9826 ave 9863 max 9789 min
Histogram: 1 0 0 0 0 0 0 0 0 1
Nghost:    9049.5 ave 9069 max 9030 min
Histogram: 1 0 0 0 0 0 0 0 0 1
Neighs:    312422 ave 316609 max 308234 min
Histogram: 1 0 0 0 0 0 0 0 0 1

Total # of neighbors = 624843
Ave neighs/atom = 31.7954
Neighbor list builds = 19505
Dangerous builds not checked
Setting up Verlet run ...
  Unit style    : metal
  Current step  : 560000
  Time step     : 0.001
Per MPI rank memory allocation (min/avg/max) = 11.37 | 11.37 | 11.37 Mbytes
Step Temp Press TotEng PotEng Enthalpy 
  560000    1141.5901    161.03911    -80225.94   -83125.682   -80147.206 
  560495    1115.3134    194.96679   -80392.206   -83225.204   -80297.062 
Loop time of 22.7223 on 2 procs for 495 steps with 19652 atoms

[...]
Nghost:    9174.5 ave 9184 max 9165 min
Histogram: 1 0 0 0 0 0 0 0 0 1
Neighs:    321114 ave 323709 max 318520 min
Histogram: 1 0 0 0 0 0 0 0 0 1

Total # of neighbors = 642229
Ave neighs/atom = 32.6801
Neighbor list builds = 19505
Dangerous builds not checked
Setting up Verlet run ...
  Unit style    : metal
  Current step  : 840000
  Time step     : 0.001
Per MPI rank memory allocation (min/avg/max) = 11.37 | 11.37 | 11.37 Mbytes
Step Temp Press TotEng PotEng Enthalpy 
  840000    450.88392    196.82587   -84151.915   -85297.202   -84059.072 
  840495    421.32546    57.023599   -84292.134   -85362.339   -84265.249 
Loop time of 17.6193 on 2 procs for 495 steps with 19652 atoms

Performance: 2.427 ns/day, 9.887 hours/ns, 28.094 timesteps/s
100.0% CPU use with 2 MPI tasks x no OpenMP threads

MPI task timing breakdown:
Section |  min time  |  avg time  |  max time  |%varavg| %total
---------------------------------------------------------------
Pair    | 8.1494     | 8.2307     | 8.3121     |   2.8 | 46.71
Neigh   | 8.0977     | 8.3125     | 8.5273     |   7.5 | 47.18
Comm    | 0.55907    | 0.70806    | 0.85705    |  17.7 |  4.02
Output  | 5.1975e-05 | 7.1049e-05 | 9.0122e-05 |   0.0 |  0.00
Modify  | 0.28156    | 0.2887     | 0.29585    |   1.3 |  1.64
Other   |            | 0.07923    |            |       |  0.45

Nlocal:    9826 ave 9833 max 9819 min
Histogram: 1 0 0 0 0 0 0 0 0 1
Nghost:    9183 ave 9196 max 9170 min
Histogram: 1 0 0 0 0 0 0 0 0 1
Neighs:    321194 ave 323308 max 319081 min
Histogram: 1 0 0 0 0 0 0 0 0 1

Total # of neighbors = 642389
Ave neighs/atom = 32.6882
Neighbor list builds = 495
Dangerous builds not checked
Setting up Verlet run ...
  Unit style    : metal
  Current step  : 840495
  Time step     : 0.001
Per MPI rank memory allocation (min/avg/max) = 11.37 | 11.37 | 11.37 Mbytes
Step Temp Press TotEng PotEng Enthalpy 
  840495    421.32546    57.023599   -84292.134   -85362.339   -84265.249 
  860000    400.42021   -291.22674   -84465.564   -85482.668   -84602.783 
Loop time of 887.783 on 2 procs for 19505 steps with 19652 atoms

Performance: 1.898 ns/day, 12.643 hours/ns, 21.970 timesteps/s
91.6% CPU use with 2 MPI tasks x no OpenMP threads

MPI task timing breakdown:
Section |  min time  |  avg time  |  max time  |%varavg| %total
---------------------------------------------------------------
Pair    | 412.48     | 415.5      | 418.51     |  14.8 | 46.80
Neigh   | 347.75     | 350.93     | 354.1      |  16.9 | 39.53
Comm    | 90.466     | 96.737     | 103.01     |  63.8 | 10.90
Output  | 0.082306   | 0.082311   | 0.082316   |   0.0 |  0.01
Modify  | 21.136     | 21.237     | 21.338     |   2.2 |  2.39
Other   |            | 3.303      |            |       |  0.37

Nlocal:    9826 ave 9827 max 9825 min
Histogram: 1 0 0 0 0 0 0 0 0 1
Nghost:    9168.5 ave 9176 max 9161 min
Histogram: 1 0 0 0 0 0 0 0 0 1
Neighs:    321446 ave 324055 max 318837 min
Histogram: 1 0 0 0 0 0 0 0 0 1

Total # of neighbors = 642892
Ave neighs/atom = 32.7138
Neighbor list builds = 19505
Dangerous builds not checked
Setting up Verlet run ...
  Unit style    : metal
  Current step  : 860000
  Time step     : 0.001
Per MPI rank memory allocation (min/avg/max) = 11.37 | 11.37 | 11.37 Mbytes
Step Temp Press TotEng PotEng Enthalpy 
  860000    400.42021   -291.22674   -84465.564   -85482.668   -84602.783 
  860495    369.69909   -325.48012   -84612.586   -85551.655     -84765.8 
Loop time of 23.5401 on 2 procs for 495 steps with 19652 atoms

Performance: 1.817 ns/day, 13.210 hours/ns, 21.028 timesteps/s
90.8% CPU use with 2 MPI tasks x no OpenMP threads

MPI task timing breakdown:
Section |  min time  |  avg time  |  max time  |%varavg| %total
---------------------------------------------------------------
Pair    | 10.039     | 10.154     | 10.268     |   3.6 | 43.13
Neigh   | 9.2686     | 9.3087     | 9.3488     |   1.3 | 39.54
Comm    | 3.5617     | 3.6359     | 3.7101     |   3.9 | 15.45
Output  | 6.7949e-05 | 9.5963e-05 | 0.00012398 |   0.0 |  0.00
Modify  | 0.35449    | 0.35471    | 0.35493    |   0.0 |  1.51
Other   |            | 0.08722    |            |       |  0.37

Nlocal:    9826 ave 9830 max 9822 min
Histogram: 1 0 0 0 0 0 0 0 0 1
Nghost:    9198 ave 9219 max 9177 min
Histogram: 1 0 0 0 0 0 0 0 0 1
Neighs:    321630 ave 324201 max 319059 min
Histogram: 1 0 0 0 0 0 0 0 0 1

Total # of neighbors = 643260
Ave neighs/atom = 32.7325
Neighbor list builds = 495
Dangerous builds not checked
Setting up Verlet run ...
  Unit style    : metal
  Current step  : 860495
  Time step     : 0.001
Per MPI rank memory allocation (min/avg/max) = 11.37 | 11.37 | 11.37 Mbytes
Step Temp Press TotEng PotEng Enthalpy 
  860495    369.69909   -325.48012   -84612.586   -85551.655     -84765.8 
  880000    345.26883   -146.99239   -84819.312   -85696.326   -84888.284 
Loop time of 802.759 on 2 procs for 19505 steps with 19652 atoms

Performance: 2.099 ns/day, 11.432 hours/ns, 24.297 timesteps/s
94.4% CPU use with 2 MPI tasks x no OpenMP threads

MPI task timing breakdown:
Section |  min time  |  avg time  |  max time  |%varavg| %total
---------------------------------------------------------------
Pair    | 371.51     | 374.85     | 378.19     |  17.2 | 46.70
Neigh   | 340.8      | 342.35     | 343.9      |   8.4 | 42.65
Comm    | 57.879     | 62.848     | 67.816     |  62.7 |  7.83
Output  | 0.28915    | 0.28916    | 0.28917    |   0.0 |  0.04
Modify  | 19.273     | 19.316     | 19.359     |   1.0 |  2.41
Other   |            | 3.105      |            |       |  0.39

Nlocal:    9826 ave 9851 max 9801 min
Histogram: 1 0 0 0 0 0 0 0 0 1
Nghost:    9189.5 ave 9190 max 9189 min
Histogram: 1 0 0 0 0 0 0 0 0 1
Neighs:    322033 ave 325652 max 318414 min
Histogram: 1 0 0 0 0 0 0 0 0 1

Total # of neighbors = 644066
Ave neighs/atom = 32.7736
Neighbor list builds = 19505
Dangerous builds not checked
Setting up Verlet run ...
  Unit style    : metal
  Current step  : 880000
  Time step     : 0.001
Per MPI rank memory allocation (min/avg/max) = 11.37 | 11.37 | 11.37 Mbytes
Step Temp Press TotEng PotEng Enthalpy 
  880000    345.26883   -146.99239   -84819.312   -85696.326   -84888.284 
  880495    318.59219    -134.4063   -84950.547     -85759.8   -85013.555 
Loop time of 21.1444 on 2 procs for 495 steps with 19652 atoms

Performance: 2.023 ns/day, 11.866 hours/ns, 23.410 timesteps/s
95.6% CPU use with 2 MPI tasks x no OpenMP threads

MPI task timing breakdown:
Section |  min time  |  avg time  |  max time  |%varavg| %total
---------------------------------------------------------------
Pair    | 9.3048     | 9.4371     | 9.5694     |   4.3 | 44.63
Neigh   | 8.9609     | 8.9673     | 8.9737     |   0.2 | 42.41
Comm    | 2.2061     | 2.3325     | 2.459      |   8.3 | 11.03
Output  | 6.6042e-05 | 8.75e-05   | 0.00010896 |   0.0 |  0.00
Modify  | 0.32568    | 0.32599    | 0.3263     |   0.1 |  1.54
Other   |            | 0.08132    |            |       |  0.38

Nlocal:    9826 ave 9856 max 9796 min
Histogram: 1 0 0 0 0 0 0 0 0 1
Nghost:    9197 ave 9212 max 9182 min
Histogram: 1 0 0 0 0 0 0 0 0 1
Neighs:    322478 ave 326030 max 318925 min
Histogram: 1 0 0 0 0 0 0 0 0 1

Total # of neighbors = 644955
Ave neighs/atom = 32.8188
Neighbor list builds = 495
Dangerous builds not checked
Setting up Verlet run ...
  Unit style    : metal
  Current step  : 880495
  Time step     : 0.001
Per MPI rank memory allocation (min/avg/max) = 11.37 | 11.37 | 11.37 Mbytes
Step Temp Press TotEng PotEng Enthalpy 
  880495    318.59219    -134.4063   -84950.547     -85759.8   -85013.555 
  900000    300.45977    97.582553   -85140.383   -85903.578   -85094.758 
Loop time of 832.194 on 2 procs for 19505 steps with 19652 atoms

Performance: 2.025 ns/day, 11.852 hours/ns, 23.438 timesteps/s
95.7% CPU use with 2 MPI tasks x no OpenMP threads

MPI task timing breakdown:
Section |  min time  |  avg time  |  max time  |%varavg| %total
---------------------------------------------------------------
Pair    | 389.89     | 393.02     | 396.15     |  15.8 | 47.23
Neigh   | 353.7      | 356.46     | 359.21     |  14.6 | 42.83
Comm    | 56.21      | 62.377     | 68.544     |  78.1 |  7.50
Output  | 0.64787    | 0.64789    | 0.64791    |   0.0 |  0.08
Modify  | 16.2       | 16.323     | 16.446     |   3.0 |  1.96
Other   |            | 3.371      |            |       |  0.41

Nlocal:    9826 ave 9833 max 9819 min
Histogram: 1 0 0 0 0 0 0 0 0 1
Nghost:    9198 ave 9212 max 9184 min
Histogram: 1 0 0 0 0 0 0 0 0 1
Neighs:    323048 ave 325956 max 320140 min
Histogram: 1 0 0 0 0 0 0 0 0 1

Total # of neighbors = 646096
Ave neighs/atom = 32.8769
Neighbor list builds = 19505
Dangerous builds not checked
Setting up Verlet run ...
  Unit style    : metal
  Current step  : 900000
  Time step     : 0.001
Per MPI rank memory allocation (min/avg/max) = 11.37 | 11.37 | 11.37 Mbytes
Step Temp Press TotEng PotEng Enthalpy 
  900000    300.45977    97.582553   -85140.383   -85903.578   -85094.758 
  900495    272.11935    36.426446   -85272.436   -85963.644   -85255.419 
Loop time of 23.147 on 2 procs for 495 steps with 19652 atoms

Performance: 1.848 ns/day, 12.989 hours/ns, 21.385 timesteps/s
94.2% CPU use with 2 MPI tasks x no OpenMP threads

MPI task timing breakdown:
Section |  min time  |  avg time  |  max time  |%varavg| %total
---------------------------------------------------------------
Pair    | 10.753     | 10.759     | 10.765     |   0.2 | 46.48
Neigh   | 8.9494     | 9.3612     | 9.773      |  13.5 | 40.44
Comm    | 2.143      | 2.5774     | 3.0118     |  27.1 | 11.13
Output  | 6.5088e-05 | 9.5487e-05 | 0.00012589 |   0.0 |  0.00
Modify  | 0.35071    | 0.36318    | 0.37564    |   2.1 |  1.57
Other   |            | 0.08634    |            |       |  0.37

Nlocal:    9826 ave 9833 max 9819 min
Histogram: 1 0 0 0 0 0 0 0 0 1
Nghost:    9195.5 ave 9207 max 9184 min
Histogram: 1 0 0 0 0 0 0 0 0 1
Neighs:    323172 ave 326050 max 320293 min
Histogram: 1 0 0 0 0 0 0 0 0 1

Total # of neighbors = 646343
Ave neighs/atom = 32.8894
Neighbor list builds = 495
Dangerous builds not checked
Setting up Verlet run ...
  Unit style    : metal
  Current step  : 900495
  Time step     : 0.001
Per MPI rank memory allocation (min/avg/max) = 11.37 | 11.37 | 11.37 Mbytes
Step Temp Press TotEng PotEng Enthalpy 
  900495    272.11935    36.426446   -85272.436   -85963.644   -85255.419 
  920000    248.88838   -376.28651   -85450.521   -86082.721   -85626.178 
Loop time of 884.864 on 2 procs for 19505 steps with 19652 atoms

Performance: 1.905 ns/day, 12.602 hours/ns, 22.043 timesteps/s
91.7% CPU use with 2 MPI tasks x no OpenMP threads

MPI task timing breakdown:
Section |  min time  |  avg time  |  max time  |%varavg| %total
---------------------------------------------------------------
Pair    | 414.43     | 418.65     | 422.87     |  20.6 | 47.31
Neigh   | 351.42     | 352.41     | 353.39     |   5.2 | 39.83
Comm    | 81.372     | 86.636     | 91.9       |  56.6 |  9.79
Output  | 0.10739    | 0.10741    | 0.10743    |   0.0 |  0.01
Modify  | 23.713     | 23.731     | 23.75      |   0.4 |  2.68
Other   |            | 3.333      |            |       |  0.38

Nlocal:    9826 ave 9835 max 9817 min
Histogram: 1 0 0 0 0 0 0 0 0 1
Nghost:    9187.5 ave 9194 max 9181 min
Histogram: 1 0 0 0 0 0 0 0 0 1
Neighs:    323404 ave 325618 max 321190 min
Histogram: 1 0 0 0 0 0 0 0 0 1

Total # of neighbors = 646808
Ave neighs/atom = 32.9131
Neighbor list builds = 19505
Dangerous builds not checked
Setting up Verlet run ...
  Unit style    : metal
  Current step  : 920000
  Time step     : 0.001
Per MPI rank memory allocation (min/avg/max) = 11.37 | 11.37 | 11.37 Mbytes
Step Temp Press TotEng PotEng Enthalpy 
  920000    248.88838   -376.28651   -85450.521   -86082.721   -85626.178 
  920495     224.8397    258.74248   -85577.073   -86148.186   -85456.673 
Loop time of 23.3477 on 2 procs for 495 steps with 19652 atoms

Performance: 1.832 ns/day, 13.102 hours/ns, 21.201 timesteps/s
92.0% CPU use with 2 MPI tasks x no OpenMP threads

MPI task timing breakdown:
Section |  min time  |  avg time  |  max time  |%varavg| %total
---------------------------------------------------------------
Pair    | 10.536     | 10.599     | 10.663     |   1.9 | 45.40
Neigh   | 9.3514     | 9.4477     | 9.5439     |   3.1 | 40.46
Comm    | 2.8209     | 2.8515     | 2.8822     |   1.8 | 12.21
Output  | 7.391e-05  | 9.644e-05  | 0.00011897 |   0.0 |  0.00
Modify  | 0.35365    | 0.35636    | 0.35908    |   0.5 |  1.53
Other   |            | 0.09259    |            |       |  0.40

Nlocal:    9826 ave 9828 max 9824 min
Histogram: 1 0 0 0 0 0 0 0 0 1
Nghost:    9209 ave 9213 max 9205 min
Histogram: 1 0 0 0 0 0 0 0 0 1
Neighs:    324062 ave 326819 max 321305 min
Histogram: 1 0 0 0 0 0 0 0 0 1

Total # of neighbors = 648124
Ave neighs/atom = 32.9801
Neighbor list builds = 495
Dangerous builds not checked
Setting up Verlet run ...
  Unit style    : metal
  Current step  : 920495
  Time step     : 0.001
Per MPI rank memory allocation (min/avg/max) = 11.37 | 11.37 | 11.37 Mbytes
Step Temp Press TotEng PotEng Enthalpy 
  920495     224.8397    258.74248   -85577.073   -86148.186   -85456.673 
  940000    200.31334   -68.374874   -85737.684   -86246.499   -85769.485 
Loop time of 823.193 on 2 procs for 19505 steps with 19652 atoms

Performance: 2.047 ns/day, 11.723 hours/ns, 23.694 timesteps/s
94.2% CPU use with 2 MPI tasks x no OpenMP threads

MPI task timing breakdown:
Section |  min time  |  avg time  |  max time  |%varavg| %total
---------------------------------------------------------------
Pair    | 380.9      | 384.08     | 387.27     |  16.3 | 46.66
Neigh   | 346.19     | 348.36     | 350.53     |  11.6 | 42.32
Comm    | 66.811     | 67.616     | 68.421     |   9.8 |  8.21
Output  | 0.15561    | 0.15562    | 0.15563    |   0.0 |  0.02
Modify  | 19.519     | 19.591     | 19.663     |   1.6 |  2.38
Other   |            | 3.386      |            |       |  0.41

Nlocal:    9826 ave 9835 max 9817 min
Histogram: 1 0 0 0 0 0 0 0 0 1
Nghost:    9204.5 ave 9210 max 9199 min
Histogram: 1 0 0 0 0 0 0 0 0 1
Neighs:    324351 ave 326718 max 321984 min
Histogram: 1 0 0 0 0 0 0 0 0 1

Total # of neighbors = 648702
Ave neighs/atom = 33.0095
Neighbor list builds = 19505
Dangerous builds not checked
Setting up Verlet run ...
  Unit style    : metal
  Current step  : 940000
  Time step     : 0.001
Per MPI rank memory allocation (min/avg/max) = 11.37 | 11.37 | 11.37 Mbytes
Step Temp Press TotEng PotEng Enthalpy 
  940000    200.31334   -68.374874   -85737.684   -86246.499   -85769.485 
  940495    175.20597   -106.81306    -85864.45   -86309.489   -85914.091 
Loop time of 19.4528 on 2 procs for 495 steps with 19652 atoms

Performance: 2.199 ns/day, 10.916 hours/ns, 25.446 timesteps/s
98.0% CPU use with 2 MPI tasks x no OpenMP threads

MPI task timing breakdown:
Section |  min time  |  avg time  |  max time  |%varavg| %total
---------------------------------------------------------------
Pair    | 9.1239     | 9.1341     | 9.1443     |   0.3 | 46.96
Neigh   | 8.6313     | 8.8851     | 9.139      |   8.5 | 45.68
Comm    | 0.76158    | 1.0147     | 1.2679     |  25.1 |  5.22
Output  | 4.7922e-05 | 6.7472e-05 | 8.7023e-05 |   0.0 |  0.00
Modify  | 0.32011    | 0.32609    | 0.33207    |   1.0 |  1.68
Other   |            | 0.09265    |            |       |  0.48

Nlocal:    9826 ave 9829 max 9823 min
Histogram: 1 0 0 0 0 0 0 0 0 1
Nghost:    9225 ave 9227 max 9223 min
Histogram: 1 0 0 0 0 0 0 0 0 1
Neighs:    324452 ave 327317 max 321588 min
Histogram: 1 0 0 0 0 0 0 0 0 1

Total # of neighbors = 648905
Ave neighs/atom = 33.0198
Neighbor list builds = 495
Dangerous builds not checked
Setting up Verlet run ...
  Unit style    : metal
  Current step  : 940495
  Time step     : 0.001
Per MPI rank memory allocation (min/avg/max) = 11.37 | 11.37 | 11.37 Mbytes
Step Temp Press TotEng PotEng Enthalpy 
  940495    175.20597   -106.81306    -85864.45   -86309.489   -85914.091 
  960000    150.51424    87.688898   -86028.924   -86411.243   -85988.257 
Loop time of 780.474 on 2 procs for 19505 steps with 19652 atoms

Performance: 2.159 ns/day, 11.115 hours/ns, 24.991 timesteps/s
97.7% CPU use with 2 MPI tasks x no OpenMP threads

MPI task timing breakdown:
Section |  min time  |  avg time  |  max time  |%varavg| %total
---------------------------------------------------------------
Pair    | 362.76     | 365.95     | 369.14     |  16.7 | 46.89
Neigh   | 347.83     | 349.08     | 350.32     |   6.7 | 44.73
Comm    | 43.493     | 48.22      | 52.947     |  68.1 |  6.18
Output  | 0.046341   | 0.046357   | 0.046373   |   0.0 |  0.01
Modify  | 13.498     | 13.807     | 14.117     |   8.3 |  1.77
Other   |            | 3.376      |            |       |  0.43

Nlocal:    9826 ave 9836 max 9816 min
Histogram: 1 0 0 0 0 0 0 0 0 1
Nghost:    9239.5 ave 9255 max 9224 min
Histogram: 1 0 0 0 0 0 0 0 0 1
Neighs:    325115 ave 327365 max 322865 min
Histogram: 1 0 0 0 0 0 0 0 0 1

Total # of neighbors = 650230
Ave neighs/atom = 33.0872
Neighbor list builds = 19505
Dangerous builds not checked
Setting up Verlet run ...
  Unit style    : metal
  Current step  : 960000
  Time step     : 0.001
Per MPI rank memory allocation (min/avg/max) = 11.37 | 11.37 | 11.37 Mbytes
Step Temp Press TotEng PotEng Enthalpy 
  960000    150.51424    87.688898   -86028.924   -86411.243   -85988.257 
  960495    126.41944   -62.987967   -86143.442   -86464.559   -86172.639 
Loop time of 18.5896 on 2 procs for 495 steps with 19652 atoms

Performance: 2.301 ns/day, 10.432 hours/ns, 26.628 timesteps/s
97.8% CPU use with 2 MPI tasks x no OpenMP threads

MPI task timing breakdown:
Section |  min time  |  avg time  |  max time  |%varavg| %total
---------------------------------------------------------------
Pair    | 8.8118     | 8.9319     | 9.052      |   4.0 | 48.05
Neigh   | 8.0538     | 8.3095     | 8.5652     |   8.9 | 44.70
Comm    | 0.58515    | 0.97625    | 1.3673     |  39.6 |  5.25
Output  | 6.6042e-05 | 0.00010204 | 0.00013804 |   0.0 |  0.00
Modify  | 0.28621    | 0.29739    | 0.30857    |   2.1 |  1.60
Other   |            | 0.07444    |            |       |  0.40

Nlocal:    9826 ave 9835 max 9817 min
Histogram: 1 0 0 0 0 0 0 0 0 1
Nghost:    9251 ave 9267 max 9235 min
Histogram: 1 0 0 0 0 0 0 0 0 1
Neighs:    325293 ave 327466 max 323120 min
Histogram: 1 0 0 0 0 0 0 0 0 1

Total # of neighbors = 650586
Ave neighs/atom = 33.1053
Neighbor list builds = 495
Dangerous builds not checked
Setting up Verlet run ...
  Unit style    : metal
  Current step  : 960495
  Time step     : 0.001
Per MPI rank memory allocation (min/avg/max) = 11.37 | 11.37 | 11.37 Mbytes
Step Temp Press TotEng PotEng Enthalpy 
  960495    126.41944   -62.987967   -86143.442   -86464.559   -86172.639 
  980000    98.667734    110.80373   -86309.411   -86560.036   -86258.153 
Loop time of 758.595 on 2 procs for 19505 steps with 19652 atoms

Performance: 2.222 ns/day, 10.803 hours/ns, 25.712 timesteps/s
96.5% CPU use with 2 MPI tasks x no OpenMP threads

MPI task timing breakdown:
Section |  min time  |  avg time  |  max time  |%varavg| %total
---------------------------------------------------------------
Pair    | 351.35     | 355.24     | 359.14     |  20.7 | 46.83
Neigh   | 336.3      | 336.37     | 336.45     |   0.4 | 44.34
Comm    | 47.252     | 51.09      | 54.929     |  53.7 |  6.73
Output  | 0.78418    | 0.78419    | 0.7842     |   0.0 |  0.10
Modify  | 12.064     | 12.078     | 12.092     |   0.4 |  1.59
Other   |            | 3.027      |            |       |  0.40

Nlocal:    9826 ave 9830 max 9822 min
Histogram: 1 0 0 0 0 0 0 0 0 1
Nghost:    9239 ave 9243 max 9235 min
Histogram: 1 0 0 0 0 0 0 0 0 1
Neighs:    325763 ave 328277 max 323249 min
Histogram: 1 0 0 0 0 0 0 0 0 1

Total # of neighbors = 651526
Ave neighs/atom = 33.1532
Neighbor list builds = 19505
Dangerous builds not checked
Total wall time: 12:26:16
