LAMMPS (12 Dec 2018)
Lattice spacing in x,y,z = 4 4 4
Created orthogonal box = (0 0 0) to (68 68 68)
  1 by 1 by 1 MPI processor grid
Created 19652 atoms
  Time spent = 0.00477314 secs
Setting atom values ...
  19281 settings made for type/fraction
Neighbor list info ...
  update every 1 steps, delay 0 steps, check no
  max neighbors/atom: 2000, page size: 100000
  master list distance cutoff = 8.5
  ghost atom cutoff = 8.5
  binsize = 4.25, bins = 16 16 16
  1 neighbor lists, perpetual/occasional/extra = 1 0 0
  (1) pair eam/alloy, perpetual
      attributes: half, newton on
      pair build: half/bin/atomonly/newton
      stencil: half/bin/3d/newton
      bin: standard
Setting up Verlet run ...
  Unit style    : metal
  Current step  : 0
  Time step     : 0.001
Per MPI rank memory allocation (min/avg/max) = 18.19 | 18.19 | 18.19 Mbytes
Step Temp Press TotEng PotEng Enthalpy 
       0          300    20088.665   -66737.626   -67499.653   -62795.164 
    1000    160.08906    26359.647   -66737.452   -67144.092   -61564.291 
Loop time of 168.282 on 1 procs for 1000 steps with 19652 atoms

Performance: 0.513 ns/day, 46.745 hours/ns, 5.942 timesteps/s
98.7% CPU use with 1 MPI tasks x no OpenMP threads

MPI task timing breakdown:
Section |  min time  |  avg time  |  max time  |%varavg| %total
---------------------------------------------------------------
Pair    | 99.606     | 99.606     | 99.606     |   0.0 | 59.19
Neigh   | 62.177     | 62.177     | 62.177     |   0.0 | 36.95
Comm    | 3.1942     | 3.1942     | 3.1942     |   0.0 |  1.90
Output  | 0.00026202 | 0.00026202 | 0.00026202 |   0.0 |  0.00
Modify  | 1.8033     | 1.8033     | 1.8033     |   0.0 |  1.07
Other   |            | 1.501      |            |       |  0.89

Nlocal:    19652 ave 19652 max 19652 min
Histogram: 1 0 0 0 0 0 0 0 0 0
Nghost:    20102 ave 20102 max 20102 min
Histogram: 1 0 0 0 0 0 0 0 0 0
Neighs:    1.57252e+06 ave 1.57252e+06 max 1.57252e+06 min
Histogram: 1 0 0 0 0 0 0 0 0 0

Total # of neighbors = 1572525
Ave neighs/atom = 80.0186
Neighbor list builds = 1000
Dangerous builds not checked
Setting up Verlet run ...
  Unit style    : metal
  Current step  : 1000
  Time step     : 0.001
Per MPI rank memory allocation (min/avg/max) = 18.2 | 18.2 | 18.2 Mbytes
Step Temp Press TotEng PotEng Enthalpy 
    1000    160.08906    26359.647   -66737.452   -67144.092   -61564.291 
    2000    300.05739   -79.589338   -66015.181   -66777.354   -66031.511 
Loop time of 158.691 on 1 procs for 1000 steps with 19652 atoms

Performance: 0.544 ns/day, 44.081 hours/ns, 6.302 timesteps/s
99.7% CPU use with 1 MPI tasks x no OpenMP threads

MPI task timing breakdown:
Section |  min time  |  avg time  |  max time  |%varavg| %total
---------------------------------------------------------------
Pair    | 91.578     | 91.578     | 91.578     |   0.0 | 57.71
Neigh   | 60.512     | 60.512     | 60.512     |   0.0 | 38.13
Comm    | 2.3119     | 2.3119     | 2.3119     |   0.0 |  1.46
Output  | 0.00028586 | 0.00028586 | 0.00028586 |   0.0 |  0.00
Modify  | 2.9957     | 2.9957     | 2.9957     |   0.0 |  1.89
Other   |            | 1.293      |            |       |  0.81

Nlocal:    19652 ave 19652 max 19652 min
Histogram: 1 0 0 0 0 0 0 0 0 0
Nghost:    20101 ave 20101 max 20101 min
Histogram: 1 0 0 0 0 0 0 0 0 0
Neighs:    1.45236e+06 ave 1.45236e+06 max 1.45236e+06 min
Histogram: 1 0 0 0 0 0 0 0 0 0

Total # of neighbors = 1452360
Ave neighs/atom = 73.9039
Neighbor list builds = 1000
Dangerous builds not checked
Setting up Verlet run ...
  Unit style    : metal
  Current step  : 2000
  Time step     : 0.001
Per MPI rank memory allocation (min/avg/max) = 18.2 | 18.2 | 18.2 Mbytes
Step Temp Press TotEng PotEng Enthalpy 
    2000    300.05739   -79.589338   -66015.181   -66777.354   -66031.511 
    6667    1549.1723    -1089.566   -56812.191   -60747.229   -57086.738 
   10000    2437.7757   -687.91834   -51773.899   -57966.071   -51966.136 
Loop time of 1287.08 on 1 procs for 8000 steps with 19652 atoms

Performance: 0.537 ns/day, 44.690 hours/ns, 6.216 timesteps/s
99.2% CPU use with 1 MPI tasks x no OpenMP threads

MPI task timing breakdown:
Section |  min time  |  avg time  |  max time  |%varavg| %total
---------------------------------------------------------------
Pair    | 708.74     | 708.74     | 708.74     |   0.0 | 55.07
Neigh   | 524        | 524        | 524        |   0.0 | 40.71
Comm    | 18.165     | 18.165     | 18.165     |   0.0 |  1.41
Output  | 0.043909   | 0.043909   | 0.043909   |   0.0 |  0.00
Modify  | 25.453     | 25.453     | 25.453     |   0.0 |  1.98
Other   |            | 10.68      |            |       |  0.83

Nlocal:    19652 ave 19652 max 19652 min
Histogram: 1 0 0 0 0 0 0 0 0 0
Nghost:    16179 ave 16179 max 16179 min
Histogram: 1 0 0 0 0 0 0 0 0 0
Neighs:    1.102e+06 ave 1.102e+06 max 1.102e+06 min
Histogram: 1 0 0 0 0 0 0 0 0 0

Total # of neighbors = 1102002
Ave neighs/atom = 56.0758
Neighbor list builds = 8000
Dangerous builds not checked
Setting up Verlet run ...
  Unit style    : metal
  Current step  : 10000
  Time step     : 0.001
Per MPI rank memory allocation (min/avg/max) = 18.21 | 18.21 | 18.21 Mbytes
Step Temp Press TotEng PotEng Enthalpy 
   10000    2437.7757   -687.91834   -51773.899   -57966.071   -51966.136 
   13334    2455.0509    -1047.607   -51633.459   -57869.512   -51927.557 
   20001    2449.5577    740.96549   -51794.967   -58017.067   -51588.789 
   26668    2429.3164   -703.32238   -51821.936   -57992.621    -52018.33 
   33335    2454.2533    528.32413   -51783.655   -58017.682    -51636.62 
   40000    2454.0336    614.83797    -51740.57   -57974.039   -51569.145 
Loop time of 4543.92 on 1 procs for 30000 steps with 19652 atoms

Performance: 0.570 ns/day, 42.073 hours/ns, 6.602 timesteps/s
99.0% CPU use with 1 MPI tasks x no OpenMP threads

MPI task timing breakdown:
Section |  min time  |  avg time  |  max time  |%varavg| %total
---------------------------------------------------------------
Pair    | 2419.8     | 2419.8     | 2419.8     |   0.0 | 53.25
Neigh   | 1940.6     | 1940.6     | 1940.6     |   0.0 | 42.71
Comm    | 60.514     | 60.514     | 60.514     |   0.0 |  1.33
Output  | 0.1952     | 0.1952     | 0.1952     |   0.0 |  0.00
Modify  | 86.823     | 86.823     | 86.823     |   0.0 |  1.91
Other   |            | 36         |            |       |  0.79

Nlocal:    19652 ave 19652 max 19652 min
Histogram: 1 0 0 0 0 0 0 0 0 0
Nghost:    16195 ave 16195 max 16195 min
Histogram: 1 0 0 0 0 0 0 0 0 0
Neighs:    1.10453e+06 ave 1.10453e+06 max 1.10453e+06 min
Histogram: 1 0 0 0 0 0 0 0 0 0

Total # of neighbors = 1104527
Ave neighs/atom = 56.2043
Neighbor list builds = 30000
Dangerous builds not checked
Setting up Verlet run ...
  Unit style    : metal
  Current step  : 40000
  Time step     : 0.001
Per MPI rank memory allocation (min/avg/max) = 18.21 | 18.21 | 18.21 Mbytes
Step Temp Press TotEng PotEng Enthalpy 
   40000    2454.0336    614.83797    -51740.57   -57974.039   -51569.145 
   40002    2452.7327    650.82577   -51740.569   -57970.733    -51559.11 
   40495    2409.1818    453.07428   -51898.834   -58018.375   -51772.676 
Loop time of 72.0352 on 1 procs for 495 steps with 19652 atoms

Performance: 0.594 ns/day, 40.424 hours/ns, 6.872 timesteps/s
99.7% CPU use with 1 MPI tasks x no OpenMP threads

MPI task timing breakdown:
Section |  min time  |  avg time  |  max time  |%varavg| %total
---------------------------------------------------------------
Pair    | 38.112     | 38.112     | 38.112     |   0.0 | 52.91
Neigh   | 31.052     | 31.052     | 31.052     |   0.0 | 43.11
Comm    | 0.93163    | 0.93163    | 0.93163    |   0.0 |  1.29
Output  | 0.047658   | 0.047658   | 0.047658   |   0.0 |  0.07
Modify  | 1.3237     | 1.3237     | 1.3237     |   0.0 |  1.84
Other   |            | 0.5688     |            |       |  0.79

Nlocal:    19652 ave 19652 max 19652 min
Histogram: 1 0 0 0 0 0 0 0 0 0
Nghost:    16330 ave 16330 max 16330 min
Histogram: 1 0 0 0 0 0 0 0 0 0
Neighs:    1.10607e+06 ave 1.10607e+06 max 1.10607e+06 min
Histogram: 1 0 0 0 0 0 0 0 0 0

Total # of neighbors = 1106067
Ave neighs/atom = 56.2827
Neighbor list builds = 495
Dangerous builds not checked
Setting up Verlet run ...
  Unit style    : metal
  Current step  : 40495
  Time step     : 0.001
Per MPI rank memory allocation (min/avg/max) = 18.21 | 18.21 | 18.21 Mbytes
Step Temp Press TotEng PotEng Enthalpy 
   40495    2409.1818    453.07428   -51898.834   -58018.375   -51772.676 
   46667    2396.2509   -44.339207   -52001.709   -58088.405   -52014.028 
Loop time of 1037.83 on 1 procs for 6172 steps with 19652 atoms

Performance: 0.514 ns/day, 46.709 hours/ns, 5.947 timesteps/s
92.3% CPU use with 1 MPI tasks x no OpenMP threads

MPI task timing breakdown:
Section |  min time  |  avg time  |  max time  |%varavg| %total
---------------------------------------------------------------
Pair    | 546.5      | 546.5      | 546.5      |   0.0 | 52.66
Neigh   | 449.44     | 449.44     | 449.44     |   0.0 | 43.31
Comm    | 13.892     | 13.892     | 13.892     |   0.0 |  1.34
Output  | 0.00027013 | 0.00027013 | 0.00027013 |   0.0 |  0.00
Modify  | 19.886     | 19.886     | 19.886     |   0.0 |  1.92
Other   |            | 8.116      |            |       |  0.78

Nlocal:    19652 ave 19652 max 19652 min
Histogram: 1 0 0 0 0 0 0 0 0 0
Nghost:    16386 ave 16386 max 16386 min
Histogram: 1 0 0 0 0 0 0 0 0 0
Neighs:    1.10877e+06 ave 1.10877e+06 max 1.10877e+06 min
Histogram: 1 0 0 0 0 0 0 0 0 0

Total # of neighbors = 1108769
Ave neighs/atom = 56.4202
Neighbor list builds = 6172
Dangerous builds not checked
Setting up Verlet run ...
  Unit style    : metal
  Current step  : 46667
  Time step     : 0.001
Per MPI rank memory allocation (min/avg/max) = 18.21 | 18.21 | 18.21 Mbytes
Step Temp Press TotEng PotEng Enthalpy 
   46667    2396.2509   -44.339207   -52001.709   -58088.405   -52014.028 
   46669    2396.3303   -32.625792   -52001.708   -58088.605   -52010.772 
   47162    2365.6431    552.49361   -52214.341    -58223.29   -52061.818 
Loop time of 71.9894 on 1 procs for 495 steps with 19652 atoms

Performance: 0.594 ns/day, 40.398 hours/ns, 6.876 timesteps/s
92.2% CPU use with 1 MPI tasks x no OpenMP threads

MPI task timing breakdown:
Section |  min time  |  avg time  |  max time  |%varavg| %total
---------------------------------------------------------------
Pair    | 38.224     | 38.224     | 38.224     |   0.0 | 53.10
Neigh   | 30.866     | 30.866     | 30.866     |   0.0 | 42.88
Comm    | 0.97107    | 0.97107    | 0.97107    |   0.0 |  1.35
Output  | 0.045472   | 0.045472   | 0.045472   |   0.0 |  0.06
Modify  | 1.3445     | 1.3445     | 1.3445     |   0.0 |  1.87
Other   |            | 0.5389     |            |       |  0.75

Nlocal:    19652 ave 19652 max 19652 min
Histogram: 1 0 0 0 0 0 0 0 0 0
Nghost:    16397 ave 16397 max 16397 min
Histogram: 1 0 0 0 0 0 0 0 0 0
Neighs:    1.11633e+06 ave 1.11633e+06 max 1.11633e+06 min
Histogram: 1 0 0 0 0 0 0 0 0 0

Total # of neighbors = 1116333
Ave neighs/atom = 56.8051
Neighbor list builds = 495
Dangerous builds not checked
Setting up Verlet run ...
  Unit style    : metal
  Current step  : 47162
  Time step     : 0.001
Per MPI rank memory allocation (min/avg/max) = 18.21 | 18.21 | 18.21 Mbytes
Step Temp Press TotEng PotEng Enthalpy 
   47162    2365.6431    552.49361   -52214.341    -58223.29   -52061.818 
   53334    2356.5616    115.61918     -52211.6   -58197.482   -52179.622 
Loop time of 1055.82 on 1 procs for 6172 steps with 19652 atoms

Performance: 0.505 ns/day, 47.518 hours/ns, 5.846 timesteps/s
86.9% CPU use with 1 MPI tasks x no OpenMP threads

MPI task timing breakdown:
Section |  min time  |  avg time  |  max time  |%varavg| %total
---------------------------------------------------------------
Pair    | 554.09     | 554.09     | 554.09     |   0.0 | 52.48
Neigh   | 461.83     | 461.83     | 461.83     |   0.0 | 43.74
Comm    | 13.382     | 13.382     | 13.382     |   0.0 |  1.27
Output  | 0.00020909 | 0.00020909 | 0.00020909 |   0.0 |  0.00
Modify  | 18.782     | 18.782     | 18.782     |   0.0 |  1.78
Other   |            | 7.734      |            |       |  0.73

Nlocal:    19652 ave 19652 max 19652 min
Histogram: 1 0 0 0 0 0 0 0 0 0
Nghost:    16339 ave 16339 max 16339 min
Histogram: 1 0 0 0 0 0 0 0 0 0
Neighs:    1.11317e+06 ave 1.11317e+06 max 1.11317e+06 min
Histogram: 1 0 0 0 0 0 0 0 0 0

Total # of neighbors = 1113172
Ave neighs/atom = 56.6442
Neighbor list builds = 6172
Dangerous builds not checked
Setting up Verlet run ...
  Unit style    : metal
  Current step  : 53334
  Time step     : 0.001
Per MPI rank memory allocation (min/avg/max) = 18.21 | 18.21 | 18.21 Mbytes
Step Temp Press TotEng PotEng Enthalpy 
   53334    2356.5616    115.61918     -52211.6   -58197.482   -52179.622 
   53336    2355.5343    112.72559     -52211.6   -58194.872   -52180.422 
   53829    2303.1469    528.92475   -52458.163   -58308.366   -52312.665 
Loop time of 77.7718 on 1 procs for 495 steps with 19652 atoms

Performance: 0.550 ns/day, 43.643 hours/ns, 6.365 timesteps/s
88.7% CPU use with 1 MPI tasks x no OpenMP threads

MPI task timing breakdown:
Section |  min time  |  avg time  |  max time  |%varavg| %total
---------------------------------------------------------------
Pair    | 41.095     | 41.095     | 41.095     |   0.0 | 52.84
Neigh   | 33.61      | 33.61      | 33.61      |   0.0 | 43.22
Comm    | 0.98398    | 0.98398    | 0.98398    |   0.0 |  1.27
Output  | 0.061948   | 0.061948   | 0.061948   |   0.0 |  0.08
Modify  | 1.4319     | 1.4319     | 1.4319     |   0.0 |  1.84
Other   |            | 0.5888     |            |       |  0.76

Nlocal:    19652 ave 19652 max 19652 min
Histogram: 1 0 0 0 0 0 0 0 0 0
Nghost:    16382 ave 16382 max 16382 min
Histogram: 1 0 0 0 0 0 0 0 0 0
Neighs:    1.11966e+06 ave 1.11966e+06 max 1.11966e+06 min
Histogram: 1 0 0 0 0 0 0 0 0 0

Total # of neighbors = 1119659
Ave neighs/atom = 56.9743
Neighbor list builds = 495
Dangerous builds not checked
Setting up Verlet run ...
  Unit style    : metal
  Current step  : 53829
  Time step     : 0.001
Per MPI rank memory allocation (min/avg/max) = 18.21 | 18.21 | 18.21 Mbytes
Step Temp Press TotEng PotEng Enthalpy 
   53829    2303.1469    528.92475   -52458.163   -58308.366   -52312.665 
   60001    2299.6757   -950.70493   -52486.869   -58328.255   -52749.053 
Loop time of 1061.89 on 1 procs for 6172 steps with 19652 atoms

Performance: 0.502 ns/day, 47.791 hours/ns, 5.812 timesteps/s
86.4% CPU use with 1 MPI tasks x no OpenMP threads

MPI task timing breakdown:
Section |  min time  |  avg time  |  max time  |%varavg| %total
---------------------------------------------------------------
Pair    | 557.26     | 557.26     | 557.26     |   0.0 | 52.48
Neigh   | 464.76     | 464.76     | 464.76     |   0.0 | 43.77
Comm    | 13.416     | 13.416     | 13.416     |   0.0 |  1.26
Output  | 0.00022507 | 0.00022507 | 0.00022507 |   0.0 |  0.00
Modify  | 18.838     | 18.838     | 18.838     |   0.0 |  1.77
Other   |            | 7.62       |            |       |  0.72

Nlocal:    19652 ave 19652 max 19652 min
Histogram: 1 0 0 0 0 0 0 0 0 0
Nghost:    16318 ave 16318 max 16318 min
Histogram: 1 0 0 0 0 0 0 0 0 0
Neighs:    1.11806e+06 ave 1.11806e+06 max 1.11806e+06 min
Histogram: 1 0 0 0 0 0 0 0 0 0

Total # of neighbors = 1118061
Ave neighs/atom = 56.893
Neighbor list builds = 6172
Dangerous builds not checked
Setting up Verlet run ...
  Unit style    : metal
  Current step  : 60001
  Time step     : 0.001
Per MPI rank memory allocation (min/avg/max) = 18.21 | 18.21 | 18.21 Mbytes
Step Temp Press TotEng PotEng Enthalpy 
   60001    2299.6757   -950.70493   -52486.869   -58328.255   -52749.053 
   60003    2300.8068   -971.98015   -52486.876   -58331.135   -52754.927 
   60496    2278.4148    231.44668   -52741.576   -58528.957   -52678.331 
Loop time of 84.4921 on 1 procs for 495 steps with 19652 atoms

Performance: 0.506 ns/day, 47.414 hours/ns, 5.859 timesteps/s
84.2% CPU use with 1 MPI tasks x no OpenMP threads

MPI task timing breakdown:
Section |  min time  |  avg time  |  max time  |%varavg| %total
---------------------------------------------------------------
Pair    | 44.981     | 44.981     | 44.981     |   0.0 | 53.24
Neigh   | 36.018     | 36.018     | 36.018     |   0.0 | 42.63
Comm    | 1.17       | 1.17       | 1.17       |   0.0 |  1.38
Output  | 0.045082   | 0.045082   | 0.045082   |   0.0 |  0.05
Modify  | 1.6596     | 1.6596     | 1.6596     |   0.0 |  1.96
Other   |            | 0.6184     |            |       |  0.73

Nlocal:    19652 ave 19652 max 19652 min
Histogram: 1 0 0 0 0 0 0 0 0 0
Nghost:    16394 ave 16394 max 16394 min
Histogram: 1 0 0 0 0 0 0 0 0 0
Neighs:    1.12745e+06 ave 1.12745e+06 max 1.12745e+06 min
Histogram: 1 0 0 0 0 0 0 0 0 0

Total # of neighbors = 1127446
Ave neighs/atom = 57.3705
Neighbor list builds = 495
Dangerous builds not checked
Setting up Verlet run ...
  Unit style    : metal
  Current step  : 60496
  Time step     : 0.001
Per MPI rank memory allocation (min/avg/max) = 18.21 | 18.21 | 18.21 Mbytes
Step Temp Press TotEng PotEng Enthalpy 
   60496    2278.4148    231.44668   -52741.576   -58528.957   -52678.331 
   66668    2251.3748   -359.74687   -52758.799   -58477.496   -52857.358 
Loop time of 1050.33 on 1 procs for 6172 steps with 19652 atoms

Performance: 0.508 ns/day, 47.271 hours/ns, 5.876 timesteps/s
86.7% CPU use with 1 MPI tasks x no OpenMP threads

MPI task timing breakdown:
Section |  min time  |  avg time  |  max time  |%varavg| %total
---------------------------------------------------------------
Pair    | 553.97     | 553.97     | 553.97     |   0.0 | 52.74
Neigh   | 456.66     | 456.66     | 456.66     |   0.0 | 43.48
Comm    | 13.387     | 13.387     | 13.387     |   0.0 |  1.27
Output  | 0.00019884 | 0.00019884 | 0.00019884 |   0.0 |  0.00
Modify  | 18.818     | 18.818     | 18.818     |   0.0 |  1.79
Other   |            | 7.489      |            |       |  0.71

Nlocal:    19652 ave 19652 max 19652 min
Histogram: 1 0 0 0 0 0 0 0 0 0
Nghost:    16320 ave 16320 max 16320 min
Histogram: 1 0 0 0 0 0 0 0 0 0
Neighs:    1.12469e+06 ave 1.12469e+06 max 1.12469e+06 min
Histogram: 1 0 0 0 0 0 0 0 0 0

Total # of neighbors = 1124694
Ave neighs/atom = 57.2305
Neighbor list builds = 6172
Dangerous builds not checked
Setting up Verlet run ...
  Unit style    : metal
  Current step  : 66668
  Time step     : 0.001
Per MPI rank memory allocation (min/avg/max) = 18.21 | 18.21 | 18.21 Mbytes
Step Temp Press TotEng PotEng Enthalpy 
   66668    2251.3748   -359.74687   -52758.799   -58477.496   -52857.358 
   66670    2251.5223   -366.68015   -52758.804   -58477.876   -52859.262 
   67163    2223.0194    205.54728   -52997.549   -58644.221   -52941.651 
Loop time of 74.1097 on 1 procs for 495 steps with 19652 atoms

Performance: 0.577 ns/day, 41.588 hours/ns, 6.679 timesteps/s
89.9% CPU use with 1 MPI tasks x no OpenMP threads

MPI task timing breakdown:
Section |  min time  |  avg time  |  max time  |%varavg| %total
---------------------------------------------------------------
Pair    | 39.823     | 39.823     | 39.823     |   0.0 | 53.74
Neigh   | 31.393     | 31.393     | 31.393     |   0.0 | 42.36
Comm    | 0.88921    | 0.88921    | 0.88921    |   0.0 |  1.20
Output  | 0.046589   | 0.046589   | 0.046589   |   0.0 |  0.06
Modify  | 1.4062     | 1.4062     | 1.4062     |   0.0 |  1.90
Other   |            | 0.5521     |            |       |  0.74

Nlocal:    19652 ave 19652 max 19652 min
Histogram: 1 0 0 0 0 0 0 0 0 0
Nghost:    16370 ave 16370 max 16370 min
Histogram: 1 0 0 0 0 0 0 0 0 0
Neighs:    1.13314e+06 ave 1.13314e+06 max 1.13314e+06 min
Histogram: 1 0 0 0 0 0 0 0 0 0

Total # of neighbors = 1133137
Ave neighs/atom = 57.6601
Neighbor list builds = 495
Dangerous builds not checked
Setting up Verlet run ...
  Unit style    : metal
  Current step  : 67163
  Time step     : 0.001
Per MPI rank memory allocation (min/avg/max) = 18.21 | 18.21 | 18.21 Mbytes
Step Temp Press TotEng PotEng Enthalpy 
   67163    2223.0194    205.54728   -52997.549   -58644.221   -52941.651 
   73335    2193.8406   -138.62512    -53057.41   -58629.965    -53095.17 
Loop time of 1054.96 on 1 procs for 6172 steps with 19652 atoms

Performance: 0.505 ns/day, 47.480 hours/ns, 5.850 timesteps/s
87.5% CPU use with 1 MPI tasks x no OpenMP threads

MPI task timing breakdown:
Section |  min time  |  avg time  |  max time  |%varavg| %total
---------------------------------------------------------------
Pair    | 556.82     | 556.82     | 556.82     |   0.0 | 52.78
Neigh   | 458.21     | 458.21     | 458.21     |   0.0 | 43.43
Comm    | 13.439     | 13.439     | 13.439     |   0.0 |  1.27
Output  | 0.00032687 | 0.00032687 | 0.00032687 |   0.0 |  0.00
Modify  | 18.631     | 18.631     | 18.631     |   0.0 |  1.77
Other   |            | 7.864      |            |       |  0.75

Nlocal:    19652 ave 19652 max 19652 min
Histogram: 1 0 0 0 0 0 0 0 0 0
Nghost:    16417 ave 16417 max 16417 min
Histogram: 1 0 0 0 0 0 0 0 0 0
Neighs:    1.13166e+06 ave 1.13166e+06 max 1.13166e+06 min
Histogram: 1 0 0 0 0 0 0 0 0 0

Total # of neighbors = 1131655
Ave neighs/atom = 57.5847
Neighbor list builds = 6172
Dangerous builds not checked
Setting up Verlet run ...
  Unit style    : metal
  Current step  : 73335
  Time step     : 0.001
Per MPI rank memory allocation (min/avg/max) = 18.21 | 18.21 | 18.21 Mbytes
Step Temp Press TotEng PotEng Enthalpy 
   73335    2193.8406   -138.62512    -53057.41   -58629.965    -53095.17 
   73337    2194.7832   -143.50594   -53057.406   -58632.356   -53096.495 
   73830    2161.6841    378.74381   -53313.951   -58804.826   -53211.623 
Loop time of 80.3285 on 1 procs for 495 steps with 19652 atoms

Performance: 0.532 ns/day, 45.078 hours/ns, 6.162 timesteps/s
89.4% CPU use with 1 MPI tasks x no OpenMP threads

MPI task timing breakdown:
Section |  min time  |  avg time  |  max time  |%varavg| %total
---------------------------------------------------------------
Pair    | 42.855     | 42.855     | 42.855     |   0.0 | 53.35
Neigh   | 34.15      | 34.15      | 34.15      |   0.0 | 42.51
Comm    | 1.0714     | 1.0714     | 1.0714     |   0.0 |  1.33
Output  | 0.055711   | 0.055711   | 0.055711   |   0.0 |  0.07
Modify  | 1.5829     | 1.5829     | 1.5829     |   0.0 |  1.97
Other   |            | 0.6131     |            |       |  0.76

Nlocal:    19652 ave 19652 max 19652 min
Histogram: 1 0 0 0 0 0 0 0 0 0
Nghost:    16416 ave 16416 max 16416 min
Histogram: 1 0 0 0 0 0 0 0 0 0
Neighs:    1.14104e+06 ave 1.14104e+06 max 1.14104e+06 min
Histogram: 1 0 0 0 0 0 0 0 0 0

Total # of neighbors = 1141043
Ave neighs/atom = 58.0624
Neighbor list builds = 495
Dangerous builds not checked
Setting up Verlet run ...
  Unit style    : metal
  Current step  : 73830
  Time step     : 0.001
Per MPI rank memory allocation (min/avg/max) = 18.21 | 18.21 | 18.21 Mbytes
Step Temp Press TotEng PotEng Enthalpy 
   73830    2161.6841    378.74381   -53313.951   -58804.826   -53211.623 
   80002    2160.8817   -148.03437    -53350.73   -58839.567   -53390.708 
Loop time of 1069.87 on 1 procs for 6172 steps with 19652 atoms

Performance: 0.498 ns/day, 48.151 hours/ns, 5.769 timesteps/s
85.1% CPU use with 1 MPI tasks x no OpenMP threads

MPI task timing breakdown:
Section |  min time  |  avg time  |  max time  |%varavg| %total
---------------------------------------------------------------
Pair    | 568.01     | 568.01     | 568.01     |   0.0 | 53.09
Neigh   | 462.1      | 462.1      | 462.1      |   0.0 | 43.19
Comm    | 13.509     | 13.509     | 13.509     |   0.0 |  1.26
Output  | 0.00031996 | 0.00031996 | 0.00031996 |   0.0 |  0.00
Modify  | 18.766     | 18.766     | 18.766     |   0.0 |  1.75
Other   |            | 7.485      |            |       |  0.70

Nlocal:    19652 ave 19652 max 19652 min
Histogram: 1 0 0 0 0 0 0 0 0 0
Nghost:    16288 ave 16288 max 16288 min
Histogram: 1 0 0 0 0 0 0 0 0 0
Neighs:    1.1416e+06 ave 1.1416e+06 max 1.1416e+06 min
Histogram: 1 0 0 0 0 0 0 0 0 0

Total # of neighbors = 1141604
Ave neighs/atom = 58.091
Neighbor list builds = 6172
Dangerous builds not checked
Setting up Verlet run ...
  Unit style    : metal
  Current step  : 80002
  Time step     : 0.001
Per MPI rank memory allocation (min/avg/max) = 18.21 | 18.21 | 18.21 Mbytes
Step Temp Press TotEng PotEng Enthalpy 
   80002    2160.8817   -148.03437    -53350.73   -58839.567   -53390.708 
   80004    2158.5818   -73.199445   -53350.736   -58833.731   -53370.504 
   80497    2117.0543    210.34247   -53552.872   -58930.383   -53496.314 
Loop time of 78.9634 on 1 procs for 495 steps with 19652 atoms

Performance: 0.542 ns/day, 44.312 hours/ns, 6.269 timesteps/s
88.6% CPU use with 1 MPI tasks x no OpenMP threads

MPI task timing breakdown:
Section |  min time  |  avg time  |  max time  |%varavg| %total
---------------------------------------------------------------
Pair    | 42.627     | 42.627     | 42.627     |   0.0 | 53.98
Neigh   | 33.392     | 33.392     | 33.392     |   0.0 | 42.29
Comm    | 0.96044    | 0.96044    | 0.96044    |   0.0 |  1.22
Output  | 0.071526   | 0.071526   | 0.071526   |   0.0 |  0.09
Modify  | 1.3559     | 1.3559     | 1.3559     |   0.0 |  1.72
Other   |            | 0.557      |            |       |  0.71

Nlocal:    19652 ave 19652 max 19652 min
Histogram: 1 0 0 0 0 0 0 0 0 0
Nghost:    16447 ave 16447 max 16447 min
Histogram: 1 0 0 0 0 0 0 0 0 0
Neighs:    1.14661e+06 ave 1.14661e+06 max 1.14661e+06 min
Histogram: 1 0 0 0 0 0 0 0 0 0

Total # of neighbors = 1146607
Ave neighs/atom = 58.3456
Neighbor list builds = 495
Dangerous builds not checked
Setting up Verlet run ...
  Unit style    : metal
  Current step  : 80497
  Time step     : 0.001
Per MPI rank memory allocation (min/avg/max) = 18.21 | 18.21 | 18.21 Mbytes
Step Temp Press TotEng PotEng Enthalpy 
   80497    2117.0543    210.34247   -53552.872   -58930.383   -53496.314 
   86669    2104.4266   -262.99561   -53615.196   -58960.631   -53685.927 
Loop time of 1065.82 on 1 procs for 6172 steps with 19652 atoms

Performance: 0.500 ns/day, 47.969 hours/ns, 5.791 timesteps/s
86.4% CPU use with 1 MPI tasks x no OpenMP threads

MPI task timing breakdown:
Section |  min time  |  avg time  |  max time  |%varavg| %total
---------------------------------------------------------------
Pair    | 567.44     | 567.44     | 567.44     |   0.0 | 53.24
Neigh   | 457.85     | 457.85     | 457.85     |   0.0 | 42.96
Comm    | 13.579     | 13.579     | 13.579     |   0.0 |  1.27
Output  | 0.0052931  | 0.0052931  | 0.0052931  |   0.0 |  0.00
Modify  | 19.135     | 19.135     | 19.135     |   0.0 |  1.80
Other   |            | 7.808      |            |       |  0.73

Nlocal:    19652 ave 19652 max 19652 min
Histogram: 1 0 0 0 0 0 0 0 0 0
Nghost:    16501 ave 16501 max 16501 min
Histogram: 1 0 0 0 0 0 0 0 0 0
Neighs:    1.14607e+06 ave 1.14607e+06 max 1.14607e+06 min
Histogram: 1 0 0 0 0 0 0 0 0 0

Total # of neighbors = 1146067
Ave neighs/atom = 58.3181
Neighbor list builds = 6172
Dangerous builds not checked
Setting up Verlet run ...
  Unit style    : metal
  Current step  : 86669
  Time step     : 0.001
Per MPI rank memory allocation (min/avg/max) = 18.21 | 18.21 | 18.21 Mbytes
Step Temp Press TotEng PotEng Enthalpy 
   86669    2104.4266   -262.99561   -53615.196   -58960.631   -53685.927 
   86671    2105.4577   -292.17511   -53615.203   -58963.257   -53693.781 
   87164    2047.1054    421.79835   -53890.041   -59089.875   -53777.417 
Loop time of 79.7232 on 1 procs for 495 steps with 19652 atoms

Performance: 0.536 ns/day, 44.738 hours/ns, 6.209 timesteps/s
87.6% CPU use with 1 MPI tasks x no OpenMP threads

MPI task timing breakdown:
Section |  min time  |  avg time  |  max time  |%varavg| %total
---------------------------------------------------------------
Pair    | 42.856     | 42.856     | 42.856     |   0.0 | 53.76
Neigh   | 33.373     | 33.373     | 33.373     |   0.0 | 41.86
Comm    | 1.0977     | 1.0977     | 1.0977     |   0.0 |  1.38
Output  | 0.083088   | 0.083088   | 0.083088   |   0.0 |  0.10
Modify  | 1.6448     | 1.6448     | 1.6448     |   0.0 |  2.06
Other   |            | 0.6679     |            |       |  0.84

Nlocal:    19652 ave 19652 max 19652 min
Histogram: 1 0 0 0 0 0 0 0 0 0
Nghost:    16521 ave 16521 max 16521 min
Histogram: 1 0 0 0 0 0 0 0 0 0
Neighs:    1.15474e+06 ave 1.15474e+06 max 1.15474e+06 min
Histogram: 1 0 0 0 0 0 0 0 0 0

Total # of neighbors = 1154737
Ave neighs/atom = 58.7593
Neighbor list builds = 495
Dangerous builds not checked
Setting up Verlet run ...
  Unit style    : metal
  Current step  : 87164
  Time step     : 0.001
Per MPI rank memory allocation (min/avg/max) = 18.21 | 18.21 | 18.21 Mbytes
Step Temp Press TotEng PotEng Enthalpy 
   87164    2047.1054    421.79835   -53890.041   -59089.875   -53777.417 
   93336    2062.1672    121.01366   -53882.724   -59120.817   -53850.391 
Loop time of 1029.37 on 1 procs for 6172 steps with 19652 atoms

Performance: 0.518 ns/day, 46.328 hours/ns, 5.996 timesteps/s
88.4% CPU use with 1 MPI tasks x no OpenMP threads

MPI task timing breakdown:
Section |  min time  |  avg time  |  max time  |%varavg| %total
---------------------------------------------------------------
Pair    | 546.65     | 546.65     | 546.65     |   0.0 | 53.10
Neigh   | 444.26     | 444.26     | 444.26     |   0.0 | 43.16
Comm    | 12.844     | 12.844     | 12.844     |   0.0 |  1.25
Output  | 0.00025606 | 0.00025606 | 0.00025606 |   0.0 |  0.00
Modify  | 18.132     | 18.132     | 18.132     |   0.0 |  1.76
Other   |            | 7.491      |            |       |  0.73

Nlocal:    19652 ave 19652 max 19652 min
Histogram: 1 0 0 0 0 0 0 0 0 0
Nghost:    16531 ave 16531 max 16531 min
Histogram: 1 0 0 0 0 0 0 0 0 0
Neighs:    1.15412e+06 ave 1.15412e+06 max 1.15412e+06 min
Histogram: 1 0 0 0 0 0 0 0 0 0

Total # of neighbors = 1154122
Ave neighs/atom = 58.728
Neighbor list builds = 6172
Dangerous builds not checked
Setting up Verlet run ...
  Unit style    : metal
  Current step  : 93336
  Time step     : 0.001
Per MPI rank memory allocation (min/avg/max) = 18.21 | 18.21 | 18.21 Mbytes
Step Temp Press TotEng PotEng Enthalpy 
   93336    2062.1672    121.01366   -53882.724   -59120.817   -53850.391 
   93338    2063.7646    92.480642   -53882.743   -59124.893   -53858.033 
   93831    2011.3487    967.78254   -54125.407   -59234.416   -53868.456 
Loop time of 72.9451 on 1 procs for 495 steps with 19652 atoms

Performance: 0.586 ns/day, 40.934 hours/ns, 6.786 timesteps/s
92.7% CPU use with 1 MPI tasks x no OpenMP threads

MPI task timing breakdown:
Section |  min time  |  avg time  |  max time  |%varavg| %total
---------------------------------------------------------------
Pair    | 38.757     | 38.757     | 38.757     |   0.0 | 53.13
Neigh   | 31.42      | 31.42      | 31.42      |   0.0 | 43.07
Comm    | 0.92096    | 0.92096    | 0.92096    |   0.0 |  1.26
Output  | 0.04733    | 0.04733    | 0.04733    |   0.0 |  0.06
Modify  | 1.3124     | 1.3124     | 1.3124     |   0.0 |  1.80
Other   |            | 0.4877     |            |       |  0.67

Nlocal:    19652 ave 19652 max 19652 min
Histogram: 1 0 0 0 0 0 0 0 0 0
Nghost:    16514 ave 16514 max 16514 min
Histogram: 1 0 0 0 0 0 0 0 0 0
Neighs:    1.16171e+06 ave 1.16171e+06 max 1.16171e+06 min
Histogram: 1 0 0 0 0 0 0 0 0 0

Total # of neighbors = 1161707
Ave neighs/atom = 59.1139
Neighbor list builds = 495
Dangerous builds not checked
Setting up Verlet run ...
  Unit style    : metal
  Current step  : 93831
  Time step     : 0.001
Per MPI rank memory allocation (min/avg/max) = 18.21 | 18.21 | 18.21 Mbytes
Step Temp Press TotEng PotEng Enthalpy 
   93831    2011.3487    967.78254   -54125.407   -59234.416   -53868.456 
  100003    2033.5726    835.53487   -54133.913   -59299.372   -53912.468 
Loop time of 915.446 on 1 procs for 6172 steps with 19652 atoms

Performance: 0.583 ns/day, 41.201 hours/ns, 6.742 timesteps/s
93.9% CPU use with 1 MPI tasks x no OpenMP threads

MPI task timing breakdown:
Section |  min time  |  avg time  |  max time  |%varavg| %total
---------------------------------------------------------------
Pair    | 484.59     | 484.59     | 484.59     |   0.0 | 52.94
Neigh   | 398.95     | 398.95     | 398.95     |   0.0 | 43.58
Comm    | 10.667     | 10.667     | 10.667     |   0.0 |  1.17
Output  | 0.00025105 | 0.00025105 | 0.00025105 |   0.0 |  0.00
Modify  | 15.102     | 15.102     | 15.102     |   0.0 |  1.65
Other   |            | 6.127      |            |       |  0.67

Nlocal:    19652 ave 19652 max 19652 min
Histogram: 1 0 0 0 0 0 0 0 0 0
Nghost:    16579 ave 16579 max 16579 min
Histogram: 1 0 0 0 0 0 0 0 0 0
Neighs:    1.1635e+06 ave 1.1635e+06 max 1.1635e+06 min
Histogram: 1 0 0 0 0 0 0 0 0 0

Total # of neighbors = 1163504
Ave neighs/atom = 59.2054
Neighbor list builds = 6172
Dangerous builds not checked
Setting up Verlet run ...
  Unit style    : metal
  Current step  : 100003
  Time step     : 0.001
Per MPI rank memory allocation (min/avg/max) = 18.21 | 18.21 | 18.21 Mbytes
Step Temp Press TotEng PotEng Enthalpy 
  100003    2033.5726    835.53487   -54133.913   -59299.372   -53912.468 
  100005    2033.7081    833.26163   -54133.951   -59299.755   -53913.109 
  100498    1956.6923    567.29186   -54430.288   -59400.464     -54280.5 
Loop time of 66.7137 on 1 procs for 495 steps with 19652 atoms

Performance: 0.641 ns/day, 37.438 hours/ns, 7.420 timesteps/s
99.4% CPU use with 1 MPI tasks x no OpenMP threads

MPI task timing breakdown:
Section |  min time  |  avg time  |  max time  |%varavg| %total
---------------------------------------------------------------
Pair    | 35.527     | 35.527     | 35.527     |   0.0 | 53.25
Neigh   | 28.794     | 28.794     | 28.794     |   0.0 | 43.16
Comm    | 0.76487    | 0.76487    | 0.76487    |   0.0 |  1.15
Output  | 0.048713   | 0.048713   | 0.048713   |   0.0 |  0.07
Modify  | 1.1178     | 1.1178     | 1.1178     |   0.0 |  1.68
Other   |            | 0.461      |            |       |  0.69

Nlocal:    19652 ave 19652 max 19652 min
Histogram: 1 0 0 0 0 0 0 0 0 0
Nghost:    16591 ave 16591 max 16591 min
Histogram: 1 0 0 0 0 0 0 0 0 0
Neighs:    1.1678e+06 ave 1.1678e+06 max 1.1678e+06 min
Histogram: 1 0 0 0 0 0 0 0 0 0

Total # of neighbors = 1167797
Ave neighs/atom = 59.4238
Neighbor list builds = 495
Dangerous builds not checked
Setting up Verlet run ...
  Unit style    : metal
  Current step  : 100498
  Time step     : 0.001
Per MPI rank memory allocation (min/avg/max) = 18.21 | 18.21 | 18.21 Mbytes
Step Temp Press TotEng PotEng Enthalpy 
  100498    1956.6923    567.29186   -54430.288   -59400.464     -54280.5 
  106670    1941.4768    -76.23432   -54539.551   -59471.079   -54559.639 
Loop time of 797.729 on 1 procs for 6172 steps with 19652 atoms

Performance: 0.668 ns/day, 35.903 hours/ns, 7.737 timesteps/s
99.1% CPU use with 1 MPI tasks x no OpenMP threads

MPI task timing breakdown:
Section |  min time  |  avg time  |  max time  |%varavg| %total
---------------------------------------------------------------
Pair    | 418.23     | 418.23     | 418.23     |   0.0 | 52.43
Neigh   | 355.07     | 355.07     | 355.07     |   0.0 | 44.51
Comm    | 8.0713     | 8.0713     | 8.0713     |   0.0 |  1.01
Output  | 0.00026083 | 0.00026083 | 0.00026083 |   0.0 |  0.00
Modify  | 11.591     | 11.591     | 11.591     |   0.0 |  1.45
Other   |            | 4.765      |            |       |  0.60

Nlocal:    19652 ave 19652 max 19652 min
Histogram: 1 0 0 0 0 0 0 0 0 0
Nghost:    16561 ave 16561 max 16561 min
Histogram: 1 0 0 0 0 0 0 0 0 0
Neighs:    1.17072e+06 ave 1.17072e+06 max 1.17072e+06 min
Histogram: 1 0 0 0 0 0 0 0 0 0

Total # of neighbors = 1170721
Ave neighs/atom = 59.5726
Neighbor list builds = 6172
Dangerous builds not checked
Setting up Verlet run ...
  Unit style    : metal
  Current step  : 106670
  Time step     : 0.001
Per MPI rank memory allocation (min/avg/max) = 18.21 | 18.21 | 18.21 Mbytes
Step Temp Press TotEng PotEng Enthalpy 
  106670    1941.4768    -76.23432   -54539.551   -59471.079   -54559.639 
  106672    1942.6607   -91.995783   -54539.548   -59474.083   -54563.788 
  107165    1922.7292   -1408.7522   -54643.377   -59527.284    -55015.09 
Loop time of 66.8773 on 1 procs for 495 steps with 19652 atoms

Performance: 0.639 ns/day, 37.529 hours/ns, 7.402 timesteps/s
99.6% CPU use with 1 MPI tasks x no OpenMP threads

MPI task timing breakdown:
Section |  min time  |  avg time  |  max time  |%varavg| %total
---------------------------------------------------------------
Pair    | 36.239     | 36.239     | 36.239     |   0.0 | 54.19
Neigh   | 27.799     | 27.799     | 27.799     |   0.0 | 41.57
Comm    | 0.89187    | 0.89187    | 0.89187    |   0.0 |  1.33
Output  | 0.048113   | 0.048113   | 0.048113   |   0.0 |  0.07
Modify  | 1.3816     | 1.3816     | 1.3816     |   0.0 |  2.07
Other   |            | 0.5175     |            |       |  0.77

Nlocal:    19652 ave 19652 max 19652 min
Histogram: 1 0 0 0 0 0 0 0 0 0
Nghost:    16578 ave 16578 max 16578 min
Histogram: 1 0 0 0 0 0 0 0 0 0
Neighs:    1.16841e+06 ave 1.16841e+06 max 1.16841e+06 min
Histogram: 1 0 0 0 0 0 0 0 0 0

Total # of neighbors = 1168408
Ave neighs/atom = 59.4549
Neighbor list builds = 495
Dangerous builds not checked
Setting up Verlet run ...
  Unit style    : metal
  Current step  : 107165
  Time step     : 0.001
Per MPI rank memory allocation (min/avg/max) = 18.21 | 18.21 | 18.21 Mbytes
Step Temp Press TotEng PotEng Enthalpy 
  107165    1922.7292   -1408.7522   -54643.377   -59527.284    -55015.09 
  113337    1896.7443   -434.29096   -54763.573   -59581.476   -54877.762 
Loop time of 893.18 on 1 procs for 6172 steps with 19652 atoms

Performance: 0.597 ns/day, 40.199 hours/ns, 6.910 timesteps/s
99.8% CPU use with 1 MPI tasks x no OpenMP threads

MPI task timing breakdown:
Section |  min time  |  avg time  |  max time  |%varavg| %total
---------------------------------------------------------------
Pair    | 476.68     | 476.68     | 476.68     |   0.0 | 53.37
Neigh   | 383.6      | 383.6      | 383.6      |   0.0 | 42.95
Comm    | 10.882     | 10.882     | 10.882     |   0.0 |  1.22
Output  | 0.00019217 | 0.00019217 | 0.00019217 |   0.0 |  0.00
Modify  | 15.86      | 15.86      | 15.86      |   0.0 |  1.78
Other   |            | 6.158      |            |       |  0.69

Nlocal:    19652 ave 19652 max 19652 min
Histogram: 1 0 0 0 0 0 0 0 0 0
Nghost:    16730 ave 16730 max 16730 min
Histogram: 1 0 0 0 0 0 0 0 0 0
Neighs:    1.17328e+06 ave 1.17328e+06 max 1.17328e+06 min
Histogram: 1 0 0 0 0 0 0 0 0 0

Total # of neighbors = 1173283
Ave neighs/atom = 59.703
Neighbor list builds = 6172
Dangerous builds not checked
Setting up Verlet run ...
  Unit style    : metal
  Current step  : 113337
  Time step     : 0.001
Per MPI rank memory allocation (min/avg/max) = 18.21 | 18.21 | 18.21 Mbytes
Step Temp Press TotEng PotEng Enthalpy 
  113337    1896.7443   -434.29096   -54763.573   -59581.476   -54877.762 
  113339    1896.2348   -397.83233    -54763.57   -59580.179   -54868.173 
  113832    1861.8535    861.95733   -55014.012   -59743.289   -54789.337 
Loop time of 58.1438 on 1 procs for 495 steps with 19652 atoms

Performance: 0.736 ns/day, 32.628 hours/ns, 8.513 timesteps/s
99.4% CPU use with 1 MPI tasks x no OpenMP threads

MPI task timing breakdown:
Section |  min time  |  avg time  |  max time  |%varavg| %total
---------------------------------------------------------------
Pair    | 30.57      | 30.57      | 30.57      |   0.0 | 52.58
Neigh   | 25.933     | 25.933     | 25.933     |   0.0 | 44.60
Comm    | 0.52012    | 0.52012    | 0.52012    |   0.0 |  0.89
Output  | 0.040478   | 0.040478   | 0.040478   |   0.0 |  0.07
Modify  | 0.77367    | 0.77367    | 0.77367    |   0.0 |  1.33
Other   |            | 0.3066     |            |       |  0.53

Nlocal:    19652 ave 19652 max 19652 min
Histogram: 1 0 0 0 0 0 0 0 0 0
Nghost:    16700 ave 16700 max 16700 min
Histogram: 1 0 0 0 0 0 0 0 0 0
Neighs:    1.18353e+06 ave 1.18353e+06 max 1.18353e+06 min
Histogram: 1 0 0 0 0 0 0 0 0 0

Total # of neighbors = 1183532
Ave neighs/atom = 60.2245
Neighbor list builds = 495
Dangerous builds not checked
Setting up Verlet run ...
  Unit style    : metal
  Current step  : 113832
  Time step     : 0.001
Per MPI rank memory allocation (min/avg/max) = 18.21 | 18.21 | 18.21 Mbytes
Step Temp Press TotEng PotEng Enthalpy 
  113832    1861.8535    861.95733   -55014.012   -59743.289   -54789.337 
  120004    1831.9036    296.79159   -55149.702   -59802.904   -55072.446 
Loop time of 822.557 on 1 procs for 6172 steps with 19652 atoms

Performance: 0.648 ns/day, 37.020 hours/ns, 7.503 timesteps/s
99.7% CPU use with 1 MPI tasks x no OpenMP threads

MPI task timing breakdown:
Section |  min time  |  avg time  |  max time  |%varavg| %total
---------------------------------------------------------------
Pair    | 434.81     | 434.81     | 434.81     |   0.0 | 52.86
Neigh   | 361.23     | 361.23     | 361.23     |   0.0 | 43.92
Comm    | 8.7948     | 8.7948     | 8.7948     |   0.0 |  1.07
Output  | 0.00025105 | 0.00025105 | 0.00025105 |   0.0 |  0.00
Modify  | 12.525     | 12.525     | 12.525     |   0.0 |  1.52
Other   |            | 5.194      |            |       |  0.63

Nlocal:    19652 ave 19652 max 19652 min
Histogram: 1 0 0 0 0 0 0 0 0 0
Nghost:    16595 ave 16595 max 16595 min
Histogram: 1 0 0 0 0 0 0 0 0 0
Neighs:    1.18543e+06 ave 1.18543e+06 max 1.18543e+06 min
Histogram: 1 0 0 0 0 0 0 0 0 0

Total # of neighbors = 1185432
Ave neighs/atom = 60.3212
Neighbor list builds = 6172
Dangerous builds not checked
Setting up Verlet run ...
  Unit style    : metal
  Current step  : 120004
  Time step     : 0.001
Per MPI rank memory allocation (min/avg/max) = 18.21 | 18.21 | 18.21 Mbytes
Step Temp Press TotEng PotEng Enthalpy 
  120004    1831.9036    296.79159   -55149.702   -59802.904   -55072.446 
  120006     1831.666    330.25495   -55149.683   -59802.282   -55063.716 
  120499    1816.7936    104.82272   -55229.046   -59843.867   -55201.806 
Loop time of 67.9097 on 1 procs for 495 steps with 19652 atoms

Performance: 0.630 ns/day, 38.109 hours/ns, 7.289 timesteps/s
99.7% CPU use with 1 MPI tasks x no OpenMP threads

MPI task timing breakdown:
Section |  min time  |  avg time  |  max time  |%varavg| %total
---------------------------------------------------------------
Pair    | 36.187     | 36.187     | 36.187     |   0.0 | 53.29
Neigh   | 29.369     | 29.369     | 29.369     |   0.0 | 43.25
Comm    | 0.79303    | 0.79303    | 0.79303    |   0.0 |  1.17
Output  | 0.048794   | 0.048794   | 0.048794   |   0.0 |  0.07
Modify  | 1.0557     | 1.0557     | 1.0557     |   0.0 |  1.55
Other   |            | 0.4559     |            |       |  0.67

Nlocal:    19652 ave 19652 max 19652 min
Histogram: 1 0 0 0 0 0 0 0 0 0
Nghost:    16697 ave 16697 max 16697 min
Histogram: 1 0 0 0 0 0 0 0 0 0
Neighs:    1.18718e+06 ave 1.18718e+06 max 1.18718e+06 min
Histogram: 1 0 0 0 0 0 0 0 0 0

Total # of neighbors = 1187182
Ave neighs/atom = 60.4102
Neighbor list builds = 495
Dangerous builds not checked
Setting up Verlet run ...
  Unit style    : metal
  Current step  : 120499
  Time step     : 0.001
Per MPI rank memory allocation (min/avg/max) = 18.21 | 18.21 | 18.21 Mbytes
Step Temp Press TotEng PotEng Enthalpy 
  120499    1816.7936    104.82272   -55229.046   -59843.867   -55201.806 
  126671     1788.133    -776.0394   -55316.982   -59859.003   -55518.858 
Loop time of 822.172 on 1 procs for 6172 steps with 19652 atoms

Performance: 0.649 ns/day, 37.003 hours/ns, 7.507 timesteps/s
99.7% CPU use with 1 MPI tasks x no OpenMP threads

MPI task timing breakdown:
Section |  min time  |  avg time  |  max time  |%varavg| %total
---------------------------------------------------------------
Pair    | 437.86     | 437.86     | 437.86     |   0.0 | 53.26
Neigh   | 357.57     | 357.57     | 357.57     |   0.0 | 43.49
Comm    | 8.9123     | 8.9123     | 8.9123     |   0.0 |  1.08
Output  | 0.00024199 | 0.00024199 | 0.00024199 |   0.0 |  0.00
Modify  | 12.694     | 12.694     | 12.694     |   0.0 |  1.54
Other   |            | 5.127      |            |       |  0.62

Nlocal:    19652 ave 19652 max 19652 min
Histogram: 1 0 0 0 0 0 0 0 0 0
Nghost:    16758 ave 16758 max 16758 min
Histogram: 1 0 0 0 0 0 0 0 0 0
Neighs:    1.18598e+06 ave 1.18598e+06 max 1.18598e+06 min
Histogram: 1 0 0 0 0 0 0 0 0 0

Total # of neighbors = 1185977
Ave neighs/atom = 60.3489
Neighbor list builds = 6172
Dangerous builds not checked
Setting up Verlet run ...
  Unit style    : metal
  Current step  : 126671
  Time step     : 0.001
Per MPI rank memory allocation (min/avg/max) = 18.21 | 18.21 | 18.21 Mbytes
Step Temp Press TotEng PotEng Enthalpy 
  126671     1788.133    -776.0394   -55316.982   -59859.003   -55518.858 
  126673    1787.4248   -770.32375   -55316.964   -59857.185   -55517.352 
  127166    1751.3221    130.31428   -55571.597   -60020.115   -55537.925 
Loop time of 58.2957 on 1 procs for 495 steps with 19652 atoms

Performance: 0.734 ns/day, 32.714 hours/ns, 8.491 timesteps/s
99.9% CPU use with 1 MPI tasks x no OpenMP threads

MPI task timing breakdown:
Section |  min time  |  avg time  |  max time  |%varavg| %total
---------------------------------------------------------------
Pair    | 30.821     | 30.821     | 30.821     |   0.0 | 52.87
Neigh   | 25.711     | 25.711     | 25.711     |   0.0 | 44.10
Comm    | 0.574      | 0.574      | 0.574      |   0.0 |  0.98
Output  | 0.045569   | 0.045569   | 0.045569   |   0.0 |  0.08
Modify  | 0.80252    | 0.80252    | 0.80252    |   0.0 |  1.38
Other   |            | 0.3421     |            |       |  0.59

Nlocal:    19652 ave 19652 max 19652 min
Histogram: 1 0 0 0 0 0 0 0 0 0
Nghost:    16735 ave 16735 max 16735 min
Histogram: 1 0 0 0 0 0 0 0 0 0
Neighs:    1.19473e+06 ave 1.19473e+06 max 1.19473e+06 min
Histogram: 1 0 0 0 0 0 0 0 0 0

Total # of neighbors = 1194726
Ave neighs/atom = 60.7941
Neighbor list builds = 495
Dangerous builds not checked
Setting up Verlet run ...
  Unit style    : metal
  Current step  : 127166
  Time step     : 0.001
Per MPI rank memory allocation (min/avg/max) = 18.21 | 18.21 | 18.21 Mbytes
Step Temp Press TotEng PotEng Enthalpy 
  127166    1751.3221    130.31428   -55571.597   -60020.115   -55537.925 
  133338    1754.5103   -1234.2978   -55627.255   -60083.871   -55946.184 
Loop time of 829.687 on 1 procs for 6172 steps with 19652 atoms

Performance: 0.643 ns/day, 37.341 hours/ns, 7.439 timesteps/s
99.6% CPU use with 1 MPI tasks x no OpenMP threads

MPI task timing breakdown:
Section |  min time  |  avg time  |  max time  |%varavg| %total
---------------------------------------------------------------
Pair    | 441.96     | 441.96     | 441.96     |   0.0 | 53.27
Neigh   | 360.39     | 360.39     | 360.39     |   0.0 | 43.44
Comm    | 9.068      | 9.068      | 9.068      |   0.0 |  1.09
Output  | 0.0002861  | 0.0002861  | 0.0002861  |   0.0 |  0.00
Modify  | 12.898     | 12.898     | 12.898     |   0.0 |  1.55
Other   |            | 5.367      |            |       |  0.65

Nlocal:    19652 ave 19652 max 19652 min
Histogram: 1 0 0 0 0 0 0 0 0 0
Nghost:    16776 ave 16776 max 16776 min
Histogram: 1 0 0 0 0 0 0 0 0 0
Neighs:    1.19462e+06 ave 1.19462e+06 max 1.19462e+06 min
Histogram: 1 0 0 0 0 0 0 0 0 0

Total # of neighbors = 1194617
Ave neighs/atom = 60.7886
Neighbor list builds = 6172
Dangerous builds not checked
Setting up Verlet run ...
  Unit style    : metal
  Current step  : 133338
  Time step     : 0.001
Per MPI rank memory allocation (min/avg/max) = 18.21 | 18.21 | 18.21 Mbytes
Step Temp Press TotEng PotEng Enthalpy 
  133338    1754.5103   -1234.2978   -55627.255   -60083.871   -55946.184 
  133340    1755.6165   -1264.9311   -55627.262   -60086.688   -55954.107 
  133833    1699.9903    72.908742   -55845.829   -60163.959   -55827.083 
Loop time of 65.5978 on 1 procs for 495 steps with 19652 atoms

Performance: 0.652 ns/day, 36.811 hours/ns, 7.546 timesteps/s
99.9% CPU use with 1 MPI tasks x no OpenMP threads

MPI task timing breakdown:
Section |  min time  |  avg time  |  max time  |%varavg| %total
---------------------------------------------------------------
Pair    | 35.361     | 35.361     | 35.361     |   0.0 | 53.91
Neigh   | 27.962     | 27.962     | 27.962     |   0.0 | 42.63
Comm    | 0.73373    | 0.73373    | 0.73373    |   0.0 |  1.12
Output  | 0.045692   | 0.045692   | 0.045692   |   0.0 |  0.07
Modify  | 1.0501     | 1.0501     | 1.0501     |   0.0 |  1.60
Other   |            | 0.4459     |            |       |  0.68

Nlocal:    19652 ave 19652 max 19652 min
Histogram: 1 0 0 0 0 0 0 0 0 0
Nghost:    16805 ave 16805 max 16805 min
Histogram: 1 0 0 0 0 0 0 0 0 0
Neighs:    1.20023e+06 ave 1.20023e+06 max 1.20023e+06 min
Histogram: 1 0 0 0 0 0 0 0 0 0

Total # of neighbors = 1200231
Ave neighs/atom = 61.0742
Neighbor list builds = 495
Dangerous builds not checked
Setting up Verlet run ...
  Unit style    : metal
  Current step  : 133833
  Time step     : 0.001
Per MPI rank memory allocation (min/avg/max) = 18.21 | 18.21 | 18.21 Mbytes
Step Temp Press TotEng PotEng Enthalpy 
  133833    1699.9903    72.908742   -55845.829   -60163.959   -55827.083 
  140005    1692.5425   -171.41441   -55897.356   -60196.568   -55941.367 
Loop time of 914.244 on 1 procs for 6172 steps with 19652 atoms

Performance: 0.583 ns/day, 41.147 hours/ns, 6.751 timesteps/s
99.3% CPU use with 1 MPI tasks x no OpenMP threads

MPI task timing breakdown:
Section |  min time  |  avg time  |  max time  |%varavg| %total
---------------------------------------------------------------
Pair    | 491.38     | 491.38     | 491.38     |   0.0 | 53.75
Neigh   | 389.6      | 389.6      | 389.6      |   0.0 | 42.61
Comm    | 11.119     | 11.119     | 11.119     |   0.0 |  1.22
Output  | 0.00036502 | 0.00036502 | 0.00036502 |   0.0 |  0.00
Modify  | 15.609     | 15.609     | 15.609     |   0.0 |  1.71
Other   |            | 6.536      |            |       |  0.71

Nlocal:    19652 ave 19652 max 19652 min
Histogram: 1 0 0 0 0 0 0 0 0 0
Nghost:    16814 ave 16814 max 16814 min
Histogram: 1 0 0 0 0 0 0 0 0 0
Neighs:    1.20197e+06 ave 1.20197e+06 max 1.20197e+06 min
Histogram: 1 0 0 0 0 0 0 0 0 0

Total # of neighbors = 1201970
Ave neighs/atom = 61.1627
Neighbor list builds = 6172
Dangerous builds not checked
Setting up Verlet run ...
  Unit style    : metal
  Current step  : 140005
  Time step     : 0.001
Per MPI rank memory allocation (min/avg/max) = 18.21 | 18.21 | 18.21 Mbytes
Step Temp Press TotEng PotEng Enthalpy 
  140005    1692.5425   -171.41441   -55897.356   -60196.568   -55941.367 
  140007    1693.7254   -213.58336   -55897.349   -60199.566   -55952.188 
  140500    1667.2749       374.49   -56116.795   -60351.825   -56021.218 
Loop time of 78.3734 on 1 procs for 495 steps with 19652 atoms

Performance: 0.546 ns/day, 43.981 hours/ns, 6.316 timesteps/s
99.3% CPU use with 1 MPI tasks x no OpenMP threads

MPI task timing breakdown:
Section |  min time  |  avg time  |  max time  |%varavg| %total
---------------------------------------------------------------
Pair    | 43.2       | 43.2       | 43.2       |   0.0 | 55.12
Neigh   | 31.546     | 31.546     | 31.546     |   0.0 | 40.25
Comm    | 1.1664     | 1.1664     | 1.1664     |   0.0 |  1.49
Output  | 0.051869   | 0.051869   | 0.051869   |   0.0 |  0.07
Modify  | 1.7032     | 1.7032     | 1.7032     |   0.0 |  2.17
Other   |            | 0.7057     |            |       |  0.90

Nlocal:    19652 ave 19652 max 19652 min
Histogram: 1 0 0 0 0 0 0 0 0 0
Nghost:    16883 ave 16883 max 16883 min
Histogram: 1 0 0 0 0 0 0 0 0 0
Neighs:    1.20982e+06 ave 1.20982e+06 max 1.20982e+06 min
Histogram: 1 0 0 0 0 0 0 0 0 0

Total # of neighbors = 1209820
Ave neighs/atom = 61.5622
Neighbor list builds = 495
Dangerous builds not checked
Setting up Verlet run ...
  Unit style    : metal
  Current step  : 140500
  Time step     : 0.001
Per MPI rank memory allocation (min/avg/max) = 18.21 | 18.21 | 18.21 Mbytes
Step Temp Press TotEng PotEng Enthalpy 
  140500    1667.2749       374.49   -56116.795   -60351.825   -56021.218 
  146672    1635.6352    113.09642   -56236.907   -60391.569   -56208.088 
Loop time of 941.408 on 1 procs for 6172 steps with 19652 atoms

Performance: 0.566 ns/day, 42.369 hours/ns, 6.556 timesteps/s
99.7% CPU use with 1 MPI tasks x no OpenMP threads

MPI task timing breakdown:
Section |  min time  |  avg time  |  max time  |%varavg| %total
---------------------------------------------------------------
Pair    | 510.47     | 510.47     | 510.47     |   0.0 | 54.22
Neigh   | 393.37     | 393.37     | 393.37     |   0.0 | 41.79
Comm    | 12.347     | 12.347     | 12.347     |   0.0 |  1.31
Output  | 0.00027895 | 0.00027895 | 0.00027895 |   0.0 |  0.00
Modify  | 17.931     | 17.931     | 17.931     |   0.0 |  1.90
Other   |            | 7.293      |            |       |  0.77

Nlocal:    19652 ave 19652 max 19652 min
Histogram: 1 0 0 0 0 0 0 0 0 0
Nghost:    16859 ave 16859 max 16859 min
Histogram: 1 0 0 0 0 0 0 0 0 0
Neighs:    1.21188e+06 ave 1.21188e+06 max 1.21188e+06 min
Histogram: 1 0 0 0 0 0 0 0 0 0

Total # of neighbors = 1211875
Ave neighs/atom = 61.6668
Neighbor list builds = 6172
Dangerous builds not checked
Setting up Verlet run ...
  Unit style    : metal
  Current step  : 146672
  Time step     : 0.001
Per MPI rank memory allocation (min/avg/max) = 18.21 | 18.21 | 18.21 Mbytes
Step Temp Press TotEng PotEng Enthalpy 
  146672    1635.6352    113.09642   -56236.907   -60391.569   -56208.088 
  146674    1638.0469    46.870948   -56236.899   -60397.687   -56224.955 
  147167      1621.98   -361.82654   -56428.213    -60548.19   -56519.975 
Loop time of 69.3111 on 1 procs for 495 steps with 19652 atoms

Performance: 0.617 ns/day, 38.895 hours/ns, 7.142 timesteps/s
99.7% CPU use with 1 MPI tasks x no OpenMP threads

MPI task timing breakdown:
Section |  min time  |  avg time  |  max time  |%varavg| %total
---------------------------------------------------------------
Pair    | 38.181     | 38.181     | 38.181     |   0.0 | 55.09
Neigh   | 28.31      | 28.31      | 28.31      |   0.0 | 40.84
Comm    | 0.91838    | 0.91838    | 0.91838    |   0.0 |  1.33
Output  | 0.043548   | 0.043548   | 0.043548   |   0.0 |  0.06
Modify  | 1.315      | 1.315      | 1.315      |   0.0 |  1.90
Other   |            | 0.5433     |            |       |  0.78

Nlocal:    19652 ave 19652 max 19652 min
Histogram: 1 0 0 0 0 0 0 0 0 0
Nghost:    16907 ave 16907 max 16907 min
Histogram: 1 0 0 0 0 0 0 0 0 0
Neighs:    1.21818e+06 ave 1.21818e+06 max 1.21818e+06 min
Histogram: 1 0 0 0 0 0 0 0 0 0

Total # of neighbors = 1218181
Ave neighs/atom = 61.9876
Neighbor list builds = 495
Dangerous builds not checked
Setting up Verlet run ...
  Unit style    : metal
  Current step  : 147167
  Time step     : 0.001
Per MPI rank memory allocation (min/avg/max) = 18.21 | 18.21 | 18.21 Mbytes
Step Temp Press TotEng PotEng Enthalpy 
  147167      1621.98   -361.82654   -56428.213    -60548.19   -56519.975 
  153339    1610.3488    786.34371   -56468.904   -60559.337   -56269.978 
Loop time of 934.916 on 1 procs for 6172 steps with 19652 atoms

Performance: 0.570 ns/day, 42.077 hours/ns, 6.602 timesteps/s
99.5% CPU use with 1 MPI tasks x no OpenMP threads

MPI task timing breakdown:
Section |  min time  |  avg time  |  max time  |%varavg| %total
---------------------------------------------------------------
Pair    | 508.45     | 508.45     | 508.45     |   0.0 | 54.38
Neigh   | 390.4      | 390.4      | 390.4      |   0.0 | 41.76
Comm    | 11.91      | 11.91      | 11.91      |   0.0 |  1.27
Output  | 0.00024915 | 0.00024915 | 0.00024915 |   0.0 |  0.00
Modify  | 17.08      | 17.08      | 17.08      |   0.0 |  1.83
Other   |            | 7.079      |            |       |  0.76

Nlocal:    19652 ave 19652 max 19652 min
Histogram: 1 0 0 0 0 0 0 0 0 0
Nghost:    16908 ave 16908 max 16908 min
Histogram: 1 0 0 0 0 0 0 0 0 0
Neighs:    1.22111e+06 ave 1.22111e+06 max 1.22111e+06 min
Histogram: 1 0 0 0 0 0 0 0 0 0

Total # of neighbors = 1221113
Ave neighs/atom = 62.1368
Neighbor list builds = 6172
Dangerous builds not checked
Setting up Verlet run ...
  Unit style    : metal
  Current step  : 153339
  Time step     : 0.001
Per MPI rank memory allocation (min/avg/max) = 18.21 | 18.21 | 18.21 Mbytes
Step Temp Press TotEng PotEng Enthalpy 
  153339    1610.3488    786.34371   -56468.904   -60559.337   -56269.978 
  153341    1610.6975    770.17068   -56468.914   -60560.232   -56274.079 
  153834    1570.7213    603.85021   -56698.436   -60688.212    -56546.28 
Loop time of 66.9106 on 1 procs for 495 steps with 19652 atoms

Performance: 0.639 ns/day, 37.548 hours/ns, 7.398 timesteps/s
99.9% CPU use with 1 MPI tasks x no OpenMP threads

MPI task timing breakdown:
Section |  min time  |  avg time  |  max time  |%varavg| %total
---------------------------------------------------------------
Pair    | 36.337     | 36.337     | 36.337     |   0.0 | 54.31
Neigh   | 28.338     | 28.338     | 28.338     |   0.0 | 42.35
Comm    | 0.73498    | 0.73498    | 0.73498    |   0.0 |  1.10
Output  | 0.043124   | 0.043124   | 0.043124   |   0.0 |  0.06
Modify  | 1.031      | 1.031      | 1.031      |   0.0 |  1.54
Other   |            | 0.427      |            |       |  0.64

Nlocal:    19652 ave 19652 max 19652 min
Histogram: 1 0 0 0 0 0 0 0 0 0
Nghost:    16935 ave 16935 max 16935 min
Histogram: 1 0 0 0 0 0 0 0 0 0
Neighs:    1.22638e+06 ave 1.22638e+06 max 1.22638e+06 min
Histogram: 1 0 0 0 0 0 0 0 0 0

Total # of neighbors = 1226375
Ave neighs/atom = 62.4046
Neighbor list builds = 495
Dangerous builds not checked
Setting up Verlet run ...
  Unit style    : metal
  Current step  : 153834
  Time step     : 0.001
Per MPI rank memory allocation (min/avg/max) = 18.21 | 18.21 | 18.21 Mbytes
Step Temp Press TotEng PotEng Enthalpy 
  153834    1570.7213    603.85021   -56698.436   -60688.212    -56546.28 
  160006    1555.1106    138.20373    -56779.03   -60729.153   -56744.234 
Loop time of 924.138 on 1 procs for 6172 steps with 19652 atoms

Performance: 0.577 ns/day, 41.592 hours/ns, 6.679 timesteps/s
99.5% CPU use with 1 MPI tasks x no OpenMP threads

MPI task timing breakdown:
Section |  min time  |  avg time  |  max time  |%varavg| %total
---------------------------------------------------------------
Pair    | 501.44     | 501.44     | 501.44     |   0.0 | 54.26
Neigh   | 388.46     | 388.46     | 388.46     |   0.0 | 42.04
Comm    | 11.397     | 11.397     | 11.397     |   0.0 |  1.23
Output  | 0.00041389 | 0.00041389 | 0.00041389 |   0.0 |  0.00
Modify  | 16.229     | 16.229     | 16.229     |   0.0 |  1.76
Other   |            | 6.608      |            |       |  0.72

Nlocal:    19652 ave 19652 max 19652 min
Histogram: 1 0 0 0 0 0 0 0 0 0
Nghost:    16892 ave 16892 max 16892 min
Histogram: 1 0 0 0 0 0 0 0 0 0
Neighs:    1.22676e+06 ave 1.22676e+06 max 1.22676e+06 min
Histogram: 1 0 0 0 0 0 0 0 0 0

Total # of neighbors = 1226756
Ave neighs/atom = 62.424
Neighbor list builds = 6172
Dangerous builds not checked
Setting up Verlet run ...
  Unit style    : metal
  Current step  : 160006
  Time step     : 0.001
Per MPI rank memory allocation (min/avg/max) = 18.21 | 18.21 | 18.21 Mbytes
Step Temp Press TotEng PotEng Enthalpy 
  160006    1555.1106    138.20373    -56779.03   -60729.153   -56744.234 
  160008    1553.8893    169.66945   -56779.033   -60726.053   -56736.314 
  160501     1512.534    931.06452   -56976.349   -60818.323   -56743.155 
Loop time of 70.321 on 1 procs for 495 steps with 19652 atoms

Performance: 0.608 ns/day, 39.462 hours/ns, 7.039 timesteps/s
97.4% CPU use with 1 MPI tasks x no OpenMP threads

MPI task timing breakdown:
Section |  min time  |  avg time  |  max time  |%varavg| %total
---------------------------------------------------------------
Pair    | 38.197     | 38.197     | 38.197     |   0.0 | 54.32
Neigh   | 29.486     | 29.486     | 29.486     |   0.0 | 41.93
Comm    | 0.8564     | 0.8564     | 0.8564     |   0.0 |  1.22
Output  | 0.047096   | 0.047096   | 0.047096   |   0.0 |  0.07
Modify  | 1.2171     | 1.2171     | 1.2171     |   0.0 |  1.73
Other   |            | 0.518      |            |       |  0.74

Nlocal:    19652 ave 19652 max 19652 min
Histogram: 1 0 0 0 0 0 0 0 0 0
Nghost:    16938 ave 16938 max 16938 min
Histogram: 1 0 0 0 0 0 0 0 0 0
Neighs:    1.23416e+06 ave 1.23416e+06 max 1.23416e+06 min
Histogram: 1 0 0 0 0 0 0 0 0 0

Total # of neighbors = 1234158
Ave neighs/atom = 62.8006
Neighbor list builds = 495
Dangerous builds not checked
Setting up Verlet run ...
  Unit style    : metal
  Current step  : 160501
  Time step     : 0.001
Per MPI rank memory allocation (min/avg/max) = 18.21 | 18.21 | 18.21 Mbytes
Step Temp Press TotEng PotEng Enthalpy 
  160501     1512.534    931.06452   -56976.349   -60818.323   -56743.155 
  166673     1494.978    92.070033   -57099.765   -60897.146   -57076.721 
Loop time of 879.884 on 1 procs for 6172 steps with 19652 atoms

Performance: 0.606 ns/day, 39.600 hours/ns, 7.015 timesteps/s
99.7% CPU use with 1 MPI tasks x no OpenMP threads

MPI task timing breakdown:
Section |  min time  |  avg time  |  max time  |%varavg| %total
---------------------------------------------------------------
Pair    | 478.47     | 478.47     | 478.47     |   0.0 | 54.38
Neigh   | 369.67     | 369.67     | 369.67     |   0.0 | 42.01
Comm    | 10.479     | 10.479     | 10.479     |   0.0 |  1.19
Output  | 0.00030708 | 0.00030708 | 0.00030708 |   0.0 |  0.00
Modify  | 15.04      | 15.04      | 15.04      |   0.0 |  1.71
Other   |            | 6.224      |            |       |  0.71

Nlocal:    19652 ave 19652 max 19652 min
Histogram: 1 0 0 0 0 0 0 0 0 0
Nghost:    16971 ave 16971 max 16971 min
Histogram: 1 0 0 0 0 0 0 0 0 0
Neighs:    1.23539e+06 ave 1.23539e+06 max 1.23539e+06 min
Histogram: 1 0 0 0 0 0 0 0 0 0

Total # of neighbors = 1235392
Ave neighs/atom = 62.8634
Neighbor list builds = 6172
Dangerous builds not checked
Setting up Verlet run ...
  Unit style    : metal
  Current step  : 166673
  Time step     : 0.001
Per MPI rank memory allocation (min/avg/max) = 18.21 | 18.21 | 18.21 Mbytes
Step Temp Press TotEng PotEng Enthalpy 
  166673     1494.978    92.070033   -57099.765   -60897.146   -57076.721 
  166675    1493.4675    136.37533   -57099.755   -60893.298   -57065.621 
  167168    1464.4965     294.8026   -57311.561   -61031.516   -57238.148 
Loop time of 69.7162 on 1 procs for 495 steps with 19652 atoms

Performance: 0.613 ns/day, 39.122 hours/ns, 7.100 timesteps/s
99.9% CPU use with 1 MPI tasks x no OpenMP threads

MPI task timing breakdown:
Section |  min time  |  avg time  |  max time  |%varavg| %total
---------------------------------------------------------------
Pair    | 38.542     | 38.542     | 38.542     |   0.0 | 55.28
Neigh   | 28.206     | 28.206     | 28.206     |   0.0 | 40.46
Comm    | 0.93909    | 0.93909    | 0.93909    |   0.0 |  1.35
Output  | 0.056479   | 0.056479   | 0.056479   |   0.0 |  0.08
Modify  | 1.4087     | 1.4087     | 1.4087     |   0.0 |  2.02
Other   |            | 0.5638     |            |       |  0.81

Nlocal:    19652 ave 19652 max 19652 min
Histogram: 1 0 0 0 0 0 0 0 0 0
Nghost:    17010 ave 17010 max 17010 min
Histogram: 1 0 0 0 0 0 0 0 0 0
Neighs:    1.2413e+06 ave 1.2413e+06 max 1.2413e+06 min
Histogram: 1 0 0 0 0 0 0 0 0 0

Total # of neighbors = 1241301
Ave neighs/atom = 63.1641
Neighbor list builds = 495
Dangerous builds not checked
Setting up Verlet run ...
  Unit style    : metal
  Current step  : 167168
  Time step     : 0.001
Per MPI rank memory allocation (min/avg/max) = 18.21 | 18.21 | 18.21 Mbytes
Step Temp Press TotEng PotEng Enthalpy 
  167168    1464.4965     294.8026   -57311.561   -61031.516   -57238.148 
  173340    1457.7144    705.60288   -57407.016   -61109.744   -57231.838 
Loop time of 919.704 on 1 procs for 6172 steps with 19652 atoms

Performance: 0.580 ns/day, 41.392 hours/ns, 6.711 timesteps/s
99.7% CPU use with 1 MPI tasks x no OpenMP threads

MPI task timing breakdown:
Section |  min time  |  avg time  |  max time  |%varavg| %total
---------------------------------------------------------------
Pair    | 503.55     | 503.55     | 503.55     |   0.0 | 54.75
Neigh   | 380.32     | 380.32     | 380.32     |   0.0 | 41.35
Comm    | 11.753     | 11.753     | 11.753     |   0.0 |  1.28
Output  | 0.00028801 | 0.00028801 | 0.00028801 |   0.0 |  0.00
Modify  | 17.159     | 17.159     | 17.159     |   0.0 |  1.87
Other   |            | 6.92       |            |       |  0.75

Nlocal:    19652 ave 19652 max 19652 min
Histogram: 1 0 0 0 0 0 0 0 0 0
Nghost:    17064 ave 17064 max 17064 min
Histogram: 1 0 0 0 0 0 0 0 0 0
Neighs:    1.24542e+06 ave 1.24542e+06 max 1.24542e+06 min
Histogram: 1 0 0 0 0 0 0 0 0 0

Total # of neighbors = 1245420
Ave neighs/atom = 63.3737
Neighbor list builds = 6172
Dangerous builds not checked
Setting up Verlet run ...
  Unit style    : metal
  Current step  : 173340
  Time step     : 0.001
Per MPI rank memory allocation (min/avg/max) = 18.21 | 18.21 | 18.21 Mbytes
Step Temp Press TotEng PotEng Enthalpy 
  173340    1457.7144    705.60288   -57407.016   -61109.744   -57231.838 
  173342    1459.2213    662.19676   -57407.027   -61113.582   -57242.625 
  173835    1419.1739    888.70058   -57574.489    -61179.32     -57354.6 
Loop time of 69.2665 on 1 procs for 495 steps with 19652 atoms

Performance: 0.617 ns/day, 38.870 hours/ns, 7.146 timesteps/s
99.8% CPU use with 1 MPI tasks x no OpenMP threads

MPI task timing breakdown:
Section |  min time  |  avg time  |  max time  |%varavg| %total
---------------------------------------------------------------
Pair    | 38.318     | 38.318     | 38.318     |   0.0 | 55.32
Neigh   | 28.398     | 28.398     | 28.398     |   0.0 | 41.00
Comm    | 0.83455    | 0.83455    | 0.83455    |   0.0 |  1.20
Output  | 0.044562   | 0.044562   | 0.044562   |   0.0 |  0.06
Modify  | 1.1729     | 1.1729     | 1.1729     |   0.0 |  1.69
Other   |            | 0.4983     |            |       |  0.72

Nlocal:    19652 ave 19652 max 19652 min
Histogram: 1 0 0 0 0 0 0 0 0 0
Nghost:    16996 ave 16996 max 16996 min
Histogram: 1 0 0 0 0 0 0 0 0 0
Neighs:    1.24917e+06 ave 1.24917e+06 max 1.24917e+06 min
Histogram: 1 0 0 0 0 0 0 0 0 0

Total # of neighbors = 1249172
Ave neighs/atom = 63.5646
Neighbor list builds = 495
Dangerous builds not checked
Setting up Verlet run ...
  Unit style    : metal
  Current step  : 173835
  Time step     : 0.001
Per MPI rank memory allocation (min/avg/max) = 18.21 | 18.21 | 18.21 Mbytes
Step Temp Press TotEng PotEng Enthalpy 
  173835    1419.1739    888.70058   -57574.489    -61179.32     -57354.6 
  180007    1409.8932    873.17891   -57664.492   -61245.749   -57448.889 
Loop time of 864.794 on 1 procs for 6172 steps with 19652 atoms

Performance: 0.617 ns/day, 38.921 hours/ns, 7.137 timesteps/s
99.7% CPU use with 1 MPI tasks x no OpenMP threads

MPI task timing breakdown:
Section |  min time  |  avg time  |  max time  |%varavg| %total
---------------------------------------------------------------
Pair    | 469.37     | 469.37     | 469.37     |   0.0 | 54.27
Neigh   | 367.03     | 367.03     | 367.03     |   0.0 | 42.44
Comm    | 9.5405     | 9.5405     | 9.5405     |   0.0 |  1.10
Output  | 0.0002749  | 0.0002749  | 0.0002749  |   0.0 |  0.00
Modify  | 13.273     | 13.273     | 13.273     |   0.0 |  1.53
Other   |            | 5.584      |            |       |  0.65

Nlocal:    19652 ave 19652 max 19652 min
Histogram: 1 0 0 0 0 0 0 0 0 0
Nghost:    17051 ave 17051 max 17051 min
Histogram: 1 0 0 0 0 0 0 0 0 0
Neighs:    1.25193e+06 ave 1.25193e+06 max 1.25193e+06 min
Histogram: 1 0 0 0 0 0 0 0 0 0

Total # of neighbors = 1251930
Ave neighs/atom = 63.705
Neighbor list builds = 6172
Dangerous builds not checked
Setting up Verlet run ...
  Unit style    : metal
  Current step  : 180007
  Time step     : 0.001
Per MPI rank memory allocation (min/avg/max) = 18.21 | 18.21 | 18.21 Mbytes
Step Temp Press TotEng PotEng Enthalpy 
  180007    1409.8932    873.17891   -57664.492   -61245.749   -57448.889 
  180009    1409.3849    878.18589     -57664.5   -61244.466   -57447.661 
  180502    1380.1359   -113.94014   -57874.357   -61380.028   -57902.388 
Loop time of 63.8283 on 1 procs for 495 steps with 19652 atoms

Performance: 0.670 ns/day, 35.818 hours/ns, 7.755 timesteps/s
99.9% CPU use with 1 MPI tasks x no OpenMP threads

MPI task timing breakdown:
Section |  min time  |  avg time  |  max time  |%varavg| %total
---------------------------------------------------------------
Pair    | 34.797     | 34.797     | 34.797     |   0.0 | 54.52
Neigh   | 27.02      | 27.02      | 27.02      |   0.0 | 42.33
Comm    | 0.63846    | 0.63846    | 0.63846    |   0.0 |  1.00
Output  | 0.043501   | 0.043501   | 0.043501   |   0.0 |  0.07
Modify  | 0.92597    | 0.92597    | 0.92597    |   0.0 |  1.45
Other   |            | 0.4042     |            |       |  0.63

Nlocal:    19652 ave 19652 max 19652 min
Histogram: 1 0 0 0 0 0 0 0 0 0
Nghost:    17072 ave 17072 max 17072 min
Histogram: 1 0 0 0 0 0 0 0 0 0
Neighs:    1.25704e+06 ave 1.25704e+06 max 1.25704e+06 min
Histogram: 1 0 0 0 0 0 0 0 0 0

Total # of neighbors = 1257043
Ave neighs/atom = 63.9651
Neighbor list builds = 495
Dangerous builds not checked
Setting up Verlet run ...
  Unit style    : metal
  Current step  : 180502
  Time step     : 0.001
Per MPI rank memory allocation (min/avg/max) = 18.21 | 18.21 | 18.21 Mbytes
Step Temp Press TotEng PotEng Enthalpy 
  180502    1380.1359   -113.94014   -57874.357   -61380.028   -57902.388 
  186674    1348.0248   -406.68569   -57961.345   -61385.451   -58061.466 
Loop time of 932.41 on 1 procs for 6172 steps with 19652 atoms

Performance: 0.572 ns/day, 41.964 hours/ns, 6.619 timesteps/s
99.5% CPU use with 1 MPI tasks x no OpenMP threads

MPI task timing breakdown:
Section |  min time  |  avg time  |  max time  |%varavg| %total
---------------------------------------------------------------
Pair    | 514.55     | 514.55     | 514.55     |   0.0 | 55.18
Neigh   | 382.61     | 382.61     | 382.61     |   0.0 | 41.03
Comm    | 11.7       | 11.7       | 11.7       |   0.0 |  1.25
Output  | 0.00036407 | 0.00036407 | 0.00036407 |   0.0 |  0.00
Modify  | 16.556     | 16.556     | 16.556     |   0.0 |  1.78
Other   |            | 6.995      |            |       |  0.75

Nlocal:    19652 ave 19652 max 19652 min
Histogram: 1 0 0 0 0 0 0 0 0 0
Nghost:    17076 ave 17076 max 17076 min
Histogram: 1 0 0 0 0 0 0 0 0 0
Neighs:    1.25639e+06 ave 1.25639e+06 max 1.25639e+06 min
Histogram: 1 0 0 0 0 0 0 0 0 0

Total # of neighbors = 1256386
Ave neighs/atom = 63.9317
Neighbor list builds = 6172
Dangerous builds not checked
Setting up Verlet run ...
  Unit style    : metal
  Current step  : 186674
  Time step     : 0.001
Per MPI rank memory allocation (min/avg/max) = 18.21 | 18.21 | 18.21 Mbytes
Step Temp Press TotEng PotEng Enthalpy 
  186674    1348.0248   -406.68569   -57961.345   -61385.451   -58061.466 
  186676    1348.4054    -413.3959   -57961.345   -61386.417   -58063.118 
  187169    1326.1122   -50.170402   -58176.742   -61545.188   -58189.025 
Loop time of 74.8187 on 1 procs for 495 steps with 19652 atoms

Performance: 0.572 ns/day, 41.986 hours/ns, 6.616 timesteps/s
99.8% CPU use with 1 MPI tasks x no OpenMP threads

MPI task timing breakdown:
Section |  min time  |  avg time  |  max time  |%varavg| %total
---------------------------------------------------------------
Pair    | 42.04      | 42.04      | 42.04      |   0.0 | 56.19
Neigh   | 29.098     | 29.098     | 29.098     |   0.0 | 38.89
Comm    | 1.1581     | 1.1581     | 1.1581     |   0.0 |  1.55
Output  | 0.053734   | 0.053734   | 0.053734   |   0.0 |  0.07
Modify  | 1.7802     | 1.7802     | 1.7802     |   0.0 |  2.38
Other   |            | 0.6893     |            |       |  0.92

Nlocal:    19652 ave 19652 max 19652 min
Histogram: 1 0 0 0 0 0 0 0 0 0
Nghost:    17213 ave 17213 max 17213 min
Histogram: 1 0 0 0 0 0 0 0 0 0
Neighs:    1.2637e+06 ave 1.2637e+06 max 1.2637e+06 min
Histogram: 1 0 0 0 0 0 0 0 0 0

Total # of neighbors = 1263697
Ave neighs/atom = 64.3037
Neighbor list builds = 495
Dangerous builds not checked
Setting up Verlet run ...
  Unit style    : metal
  Current step  : 187169
  Time step     : 0.001
Per MPI rank memory allocation (min/avg/max) = 18.21 | 18.21 | 18.21 Mbytes
Step Temp Press TotEng PotEng Enthalpy 
  187169    1326.1122   -50.170402   -58176.742   -61545.188   -58189.025 
  193341    1291.1556    1.9307679    -58309.68   -61589.333   -58309.208 
Loop time of 925.784 on 1 procs for 6172 steps with 19652 atoms

Performance: 0.576 ns/day, 41.666 hours/ns, 6.667 timesteps/s
99.2% CPU use with 1 MPI tasks x no OpenMP threads

MPI task timing breakdown:
Section |  min time  |  avg time  |  max time  |%varavg| %total
---------------------------------------------------------------
Pair    | 510.11     | 510.11     | 510.11     |   0.0 | 55.10
Neigh   | 380.37     | 380.37     | 380.37     |   0.0 | 41.09
Comm    | 11.704     | 11.704     | 11.704     |   0.0 |  1.26
Output  | 0.00019217 | 0.00019217 | 0.00019217 |   0.0 |  0.00
Modify  | 16.675     | 16.675     | 16.675     |   0.0 |  1.80
Other   |            | 6.916      |            |       |  0.75

Nlocal:    19652 ave 19652 max 19652 min
Histogram: 1 0 0 0 0 0 0 0 0 0
Nghost:    17181 ave 17181 max 17181 min
Histogram: 1 0 0 0 0 0 0 0 0 0
Neighs:    1.2669e+06 ave 1.2669e+06 max 1.2669e+06 min
Histogram: 1 0 0 0 0 0 0 0 0 0

Total # of neighbors = 1266905
Ave neighs/atom = 64.467
Neighbor list builds = 6172
Dangerous builds not checked
Setting up Verlet run ...
  Unit style    : metal
  Current step  : 193341
  Time step     : 0.001
Per MPI rank memory allocation (min/avg/max) = 18.21 | 18.21 | 18.21 Mbytes
Step Temp Press TotEng PotEng Enthalpy 
  193341    1291.1556    1.9307679    -58309.68   -61589.333   -58309.208 
  193343    1293.0755    -58.99013   -58309.676   -61594.205   -58324.081 
  193836    1263.5432   -74.252288   -58511.362   -61720.877   -58529.415 
Loop time of 70.2954 on 1 procs for 495 steps with 19652 atoms

Performance: 0.608 ns/day, 39.448 hours/ns, 7.042 timesteps/s
98.4% CPU use with 1 MPI tasks x no OpenMP threads

MPI task timing breakdown:
Section |  min time  |  avg time  |  max time  |%varavg| %total
---------------------------------------------------------------
Pair    | 38.903     | 38.903     | 38.903     |   0.0 | 55.34
Neigh   | 28.637     | 28.637     | 28.637     |   0.0 | 40.74
Comm    | 0.90062    | 0.90062    | 0.90062    |   0.0 |  1.28
Output  | 0.045262   | 0.045262   | 0.045262   |   0.0 |  0.06
Modify  | 1.2843     | 1.2843     | 1.2843     |   0.0 |  1.83
Other   |            | 0.5253     |            |       |  0.75

Nlocal:    19652 ave 19652 max 19652 min
Histogram: 1 0 0 0 0 0 0 0 0 0
Nghost:    17226 ave 17226 max 17226 min
Histogram: 1 0 0 0 0 0 0 0 0 0
Neighs:    1.27297e+06 ave 1.27297e+06 max 1.27297e+06 min
Histogram: 1 0 0 0 0 0 0 0 0 0

Total # of neighbors = 1272967
Ave neighs/atom = 64.7754
Neighbor list builds = 495
Dangerous builds not checked
Setting up Verlet run ...
  Unit style    : metal
  Current step  : 193836
  Time step     : 0.001
Per MPI rank memory allocation (min/avg/max) = 18.21 | 18.21 | 18.21 Mbytes
Step Temp Press TotEng PotEng Enthalpy 
  193836    1263.5432   -74.252288   -58511.362   -61720.877   -58529.415 
  200008     1254.277   -846.78059   -58569.282    -61755.26     -58775.2 
Loop time of 916.3 on 1 procs for 6172 steps with 19652 atoms

Performance: 0.582 ns/day, 41.239 hours/ns, 6.736 timesteps/s
98.5% CPU use with 1 MPI tasks x no OpenMP threads

MPI task timing breakdown:
Section |  min time  |  avg time  |  max time  |%varavg| %total
---------------------------------------------------------------
Pair    | 504.26     | 504.26     | 504.26     |   0.0 | 55.03
Neigh   | 379.16     | 379.16     | 379.16     |   0.0 | 41.38
Comm    | 11.048     | 11.048     | 11.048     |   0.0 |  1.21
Output  | 0.0004251  | 0.0004251  | 0.0004251  |   0.0 |  0.00
Modify  | 15.42      | 15.42      | 15.42      |   0.0 |  1.68
Other   |            | 6.414      |            |       |  0.70

Nlocal:    19652 ave 19652 max 19652 min
Histogram: 1 0 0 0 0 0 0 0 0 0
Nghost:    17147 ave 17147 max 17147 min
Histogram: 1 0 0 0 0 0 0 0 0 0
Neighs:    1.27262e+06 ave 1.27262e+06 max 1.27262e+06 min
Histogram: 1 0 0 0 0 0 0 0 0 0

Total # of neighbors = 1272623
Ave neighs/atom = 64.7579
Neighbor list builds = 6172
Dangerous builds not checked
Setting up Verlet run ...
  Unit style    : metal
  Current step  : 200008
  Time step     : 0.001
Per MPI rank memory allocation (min/avg/max) = 18.21 | 18.21 | 18.21 Mbytes
Step Temp Press TotEng PotEng Enthalpy 
  200008     1254.277   -846.78059   -58569.282    -61755.26     -58775.2 
  200010    1254.1532   -845.87978   -58569.288   -61754.951   -58774.987 
  200503     1220.525     -579.013   -58786.372   -61886.616   -58926.446 
Loop time of 81.9218 on 1 procs for 495 steps with 19652 atoms

Performance: 0.522 ns/day, 45.972 hours/ns, 6.042 timesteps/s
90.4% CPU use with 1 MPI tasks x no OpenMP threads

MPI task timing breakdown:
Section |  min time  |  avg time  |  max time  |%varavg| %total
---------------------------------------------------------------
Pair    | 45.69      | 45.69      | 45.69      |   0.0 | 55.77
Neigh   | 32.745     | 32.745     | 32.745     |   0.0 | 39.97
Comm    | 1.1443     | 1.1443     | 1.1443     |   0.0 |  1.40
Output  | 0.049605   | 0.049605   | 0.049605   |   0.0 |  0.06
Modify  | 1.5947     | 1.5947     | 1.5947     |   0.0 |  1.95
Other   |            | 0.698      |            |       |  0.85

Nlocal:    19652 ave 19652 max 19652 min
Histogram: 1 0 0 0 0 0 0 0 0 0
Nghost:    17218 ave 17218 max 17218 min
Histogram: 1 0 0 0 0 0 0 0 0 0
Neighs:    1.28008e+06 ave 1.28008e+06 max 1.28008e+06 min
Histogram: 1 0 0 0 0 0 0 0 0 0

Total # of neighbors = 1280082
Ave neighs/atom = 65.1375
Neighbor list builds = 495
Dangerous builds not checked
Setting up Verlet run ...
  Unit style    : metal
  Current step  : 200503
  Time step     : 0.001
Per MPI rank memory allocation (min/avg/max) = 18.21 | 18.21 | 18.21 Mbytes
Step Temp Press TotEng PotEng Enthalpy 
  200503     1220.525     -579.013   -58786.372   -61886.616   -58926.446 
  206675    1204.4644    966.37853   -58881.414   -61940.863   -58648.682 
Loop time of 938.843 on 1 procs for 6172 steps with 19652 atoms

Performance: 0.568 ns/day, 42.254 hours/ns, 6.574 timesteps/s
97.5% CPU use with 1 MPI tasks x no OpenMP threads

MPI task timing breakdown:
Section |  min time  |  avg time  |  max time  |%varavg| %total
---------------------------------------------------------------
Pair    | 520.83     | 520.83     | 520.83     |   0.0 | 55.48
Neigh   | 382.28     | 382.28     | 382.28     |   0.0 | 40.72
Comm    | 11.937     | 11.937     | 11.937     |   0.0 |  1.27
Output  | 0.00025797 | 0.00025797 | 0.00025797 |   0.0 |  0.00
Modify  | 16.804     | 16.804     | 16.804     |   0.0 |  1.79
Other   |            | 6.991      |            |       |  0.74

Nlocal:    19652 ave 19652 max 19652 min
Histogram: 1 0 0 0 0 0 0 0 0 0
Nghost:    17285 ave 17285 max 17285 min
Histogram: 1 0 0 0 0 0 0 0 0 0
Neighs:    1.28557e+06 ave 1.28557e+06 max 1.28557e+06 min
Histogram: 1 0 0 0 0 0 0 0 0 0

Total # of neighbors = 1285568
Ave neighs/atom = 65.4166
Neighbor list builds = 6172
Dangerous builds not checked
Setting up Verlet run ...
  Unit style    : metal
  Current step  : 206675
  Time step     : 0.001
[...]

Performance: 0.661 ns/day, 36.302 hours/ns, 7.652 timesteps/s
99.9% CPU use with 1 MPI tasks x no OpenMP threads

MPI task timing breakdown:
Section |  min time  |  avg time  |  max time  |%varavg| %total
---------------------------------------------------------------
Pair    | 34.951     | 34.951     | 34.951     |   0.0 | 54.03
Neigh   | 27.994     | 27.994     | 27.994     |   0.0 | 43.27
Comm    | 0.55404    | 0.55404    | 0.55404    |   0.0 |  0.86
Output  | 0.041505   | 0.041505   | 0.041505   |   0.0 |  0.06
Modify  | 0.7986     | 0.7986     | 0.7986     |   0.0 |  1.23
Other   |            | 0.3508     |            |       |  0.54

Nlocal:    19652 ave 19652 max 19652 min
Histogram: 1 0 0 0 0 0 0 0 0 0
Nghost:    18032 ave 18032 max 18032 min
Histogram: 1 0 0 0 0 0 0 0 0 0
Neighs:    1.44251e+06 ave 1.44251e+06 max 1.44251e+06 min
Histogram: 1 0 0 0 0 0 0 0 0 0

Total # of neighbors = 1442514
Ave neighs/atom = 73.4029
Neighbor list builds = 495
Dangerous builds not checked
Setting up Verlet run ...
  Unit style    : metal
  Current step  : 307175
  Time step     : 0.001
Per MPI rank memory allocation (min/avg/max) = 18.21 | 18.21 | 18.21 Mbytes
Step Temp Press TotEng PotEng Enthalpy 
  307175    421.51464   -15.807854   -64179.145   -65249.831    -64182.55 
  313347    399.72762    369.49999   -64356.075   -65371.419   -64276.825 
Loop time of 920.375 on 1 procs for 6172 steps with 19652 atoms

Performance: 0.579 ns/day, 41.423 hours/ns, 6.706 timesteps/s
99.6% CPU use with 1 MPI tasks x no OpenMP threads

MPI task timing breakdown:
Section |  min time  |  avg time  |  max time  |%varavg| %total
---------------------------------------------------------------
Pair    | 509.19     | 509.19     | 509.19     |   0.0 | 55.32
Neigh   | 377.9      | 377.9      | 377.9      |   0.0 | 41.06
Comm    | 11.021     | 11.021     | 11.021     |   0.0 |  1.20
Output  | 0.00029802 | 0.00029802 | 0.00029802 |   0.0 |  0.00
Modify  | 15.679     | 15.679     | 15.679     |   0.0 |  1.70
Other   |            | 6.588      |            |       |  0.72

Nlocal:    19652 ave 19652 max 19652 min
Histogram: 1 0 0 0 0 0 0 0 0 0
Nghost:    18091 ave 18091 max 18091 min
Histogram: 1 0 0 0 0 0 0 0 0 0
Neighs:    1.44857e+06 ave 1.44857e+06 max 1.44857e+06 min
Histogram: 1 0 0 0 0 0 0 0 0 0

Total # of neighbors = 1448572
Ave neighs/atom = 73.7112
Neighbor list builds = 6172
Dangerous builds not checked
Setting up Verlet run ...
  Unit style    : metal
  Current step  : 313347
  Time step     : 0.001
Per MPI rank memory allocation (min/avg/max) = 18.21 | 18.21 | 18.21 Mbytes
Step Temp Press TotEng PotEng Enthalpy 
  313347    399.72762    369.49999   -64356.075   -65371.419   -64276.825 
  313349    399.98901    345.91894   -64356.075   -65372.083   -64281.882 
  313842    374.58459    419.94588   -64509.271    -65460.75   -64419.479 
Loop time of 66.4302 on 1 procs for 495 steps with 19652 atoms

Performance: 0.644 ns/day, 37.278 hours/ns, 7.451 timesteps/s
99.9% CPU use with 1 MPI tasks x no OpenMP threads

MPI task timing breakdown:
Section |  min time  |  avg time  |  max time  |%varavg| %total
---------------------------------------------------------------
Pair    | 36.197     | 36.197     | 36.197     |   0.0 | 54.49
Neigh   | 28.354     | 28.354     | 28.354     |   0.0 | 42.68
Comm    | 0.5984     | 0.5984     | 0.5984     |   0.0 |  0.90
Output  | 0.048075   | 0.048075   | 0.048075   |   0.0 |  0.07
Modify  | 0.85442    | 0.85442    | 0.85442    |   0.0 |  1.29
Other   |            | 0.3773     |            |       |  0.57

Nlocal:    19652 ave 19652 max 19652 min
Histogram: 1 0 0 0 0 0 0 0 0 0
Nghost:    18121 ave 18121 max 18121 min
Histogram: 1 0 0 0 0 0 0 0 0 0
Neighs:    1.45287e+06 ave 1.45287e+06 max 1.45287e+06 min
Histogram: 1 0 0 0 0 0 0 0 0 0

Total # of neighbors = 1452871
Ave neighs/atom = 73.9299
Neighbor list builds = 495
Dangerous builds not checked
Setting up Verlet run ...
  Unit style    : metal
  Current step  : 313842
  Time step     : 0.001
Per MPI rank memory allocation (min/avg/max) = 18.21 | 18.21 | 18.21 Mbytes
Step Temp Press TotEng PotEng Enthalpy 
  313842    374.58459    419.94588   -64509.271    -65460.75   -64419.479 
  320014    348.21959   -77.431537   -64661.224   -65545.734   -64677.744 
Loop time of 911.092 on 1 procs for 6172 steps with 19652 atoms

Performance: 0.585 ns/day, 41.005 hours/ns, 6.774 timesteps/s
99.6% CPU use with 1 MPI tasks x no OpenMP threads

MPI task timing breakdown:
Section |  min time  |  avg time  |  max time  |%varavg| %total
---------------------------------------------------------------
Pair    | 504.79     | 504.79     | 504.79     |   0.0 | 55.40
Neigh   | 373.88     | 373.88     | 373.88     |   0.0 | 41.04
Comm    | 10.782     | 10.782     | 10.782     |   0.0 |  1.18
Output  | 0.00028706 | 0.00028706 | 0.00028706 |   0.0 |  0.00
Modify  | 15.195     | 15.195     | 15.195     |   0.0 |  1.67
Other   |            | 6.441      |            |       |  0.71

Nlocal:    19652 ave 19652 max 19652 min
Histogram: 1 0 0 0 0 0 0 0 0 0
Nghost:    18180 ave 18180 max 18180 min
Histogram: 1 0 0 0 0 0 0 0 0 0
Neighs:    1.45584e+06 ave 1.45584e+06 max 1.45584e+06 min
Histogram: 1 0 0 0 0 0 0 0 0 0

Total # of neighbors = 1455838
Ave neighs/atom = 74.0809
Neighbor list builds = 6172
Dangerous builds not checked
Setting up Verlet run ...
  Unit style    : metal
  Current step  : 320014
  Time step     : 0.001
Per MPI rank memory allocation (min/avg/max) = 18.21 | 18.21 | 18.21 Mbytes
Step Temp Press TotEng PotEng Enthalpy 
  320014    348.21959   -77.431537   -64661.224   -65545.734   -64677.744 
  320016    348.31873   -75.734678   -64661.223   -65545.984   -64677.381 
  320509     322.4276    -331.2477   -64815.047   -65634.043   -64885.551 
Loop time of 72.7851 on 1 procs for 495 steps with 19652 atoms

Performance: 0.588 ns/day, 40.845 hours/ns, 6.801 timesteps/s
99.2% CPU use with 1 MPI tasks x no OpenMP threads

MPI task timing breakdown:
Section |  min time  |  avg time  |  max time  |%varavg| %total
---------------------------------------------------------------
Pair    | 40.325     | 40.325     | 40.325     |   0.0 | 55.40
Neigh   | 29.94      | 29.94      | 29.94      |   0.0 | 41.13
Comm    | 0.82406    | 0.82406    | 0.82406    |   0.0 |  1.13
Output  | 0.049386   | 0.049386   | 0.049386   |   0.0 |  0.07
Modify  | 1.1524     | 1.1524     | 1.1524     |   0.0 |  1.58
Other   |            | 0.4948     |            |       |  0.68

Nlocal:    19652 ave 19652 max 19652 min
Histogram: 1 0 0 0 0 0 0 0 0 0
Nghost:    18143 ave 18143 max 18143 min
Histogram: 1 0 0 0 0 0 0 0 0 0
Neighs:    1.459e+06 ave 1.459e+06 max 1.459e+06 min
Histogram: 1 0 0 0 0 0 0 0 0 0

Total # of neighbors = 1459005
Ave neighs/atom = 74.2421
Neighbor list builds = 495
Dangerous builds not checked
Setting up Verlet run ...
  Unit style    : metal
  Current step  : 320509
  Time step     : 0.001
Per MPI rank memory allocation (min/avg/max) = 18.21 | 18.21 | 18.21 Mbytes
Step Temp Press TotEng PotEng Enthalpy 
  320509     322.4276    -331.2477   -64815.047   -65634.043   -64885.551 
  326681    301.73131   -738.22191   -64956.581   -65723.006   -65113.402 
Loop time of 933.438 on 1 procs for 6172 steps with 19652 atoms

Performance: 0.571 ns/day, 42.010 hours/ns, 6.612 timesteps/s
99.7% CPU use with 1 MPI tasks x no OpenMP threads

MPI task timing breakdown:
Section |  min time  |  avg time  |  max time  |%varavg| %total
---------------------------------------------------------------
Pair    | 519.82     | 519.82     | 519.82     |   0.0 | 55.69
Neigh   | 377.54     | 377.54     | 377.54     |   0.0 | 40.45
Comm    | 11.926     | 11.926     | 11.926     |   0.0 |  1.28
Output  | 0.00018096 | 0.00018096 | 0.00018096 |   0.0 |  0.00
Modify  | 17.047     | 17.047     | 17.047     |   0.0 |  1.83
Other   |            | 7.102      |            |       |  0.76

Nlocal:    19652 ave 19652 max 19652 min
Histogram: 1 0 0 0 0 0 0 0 0 0
Nghost:    18122 ave 18122 max 18122 min
Histogram: 1 0 0 0 0 0 0 0 0 0
Neighs:    1.461e+06 ave 1.461e+06 max 1.461e+06 min
Histogram: 1 0 0 0 0 0 0 0 0 0

Total # of neighbors = 1460997
Ave neighs/atom = 74.3434
Neighbor list builds = 6172
Dangerous builds not checked
Setting up Verlet run ...
  Unit style    : metal
  Current step  : 326681
  Time step     : 0.001
Per MPI rank memory allocation (min/avg/max) = 18.21 | 18.21 | 18.21 Mbytes
Step Temp Press TotEng PotEng Enthalpy 
  326681    301.73131   -738.22191   -64956.581   -65723.006   -65113.402 
  326683    301.63282   -725.31575   -64956.583   -65722.758   -65110.662 
  327176    275.19377    264.24942   -65105.397   -65804.414     -65049.5 
Loop time of 64.9931 on 1 procs for 495 steps with 19652 atoms

Performance: 0.658 ns/day, 36.472 hours/ns, 7.616 timesteps/s
99.9% CPU use with 1 MPI tasks x no OpenMP threads

MPI task timing breakdown:
Section |  min time  |  avg time  |  max time  |%varavg| %total
---------------------------------------------------------------
Pair    | 35.253     | 35.253     | 35.253     |   0.0 | 54.24
Neigh   | 27.962     | 27.962     | 27.962     |   0.0 | 43.02
Comm    | 0.56959    | 0.56959    | 0.56959    |   0.0 |  0.88
Output  | 0.040286   | 0.040286   | 0.040286   |   0.0 |  0.06
Modify  | 0.8186     | 0.8186     | 0.8186     |   0.0 |  1.26
Other   |            | 0.3495     |            |       |  0.54

Nlocal:    19652 ave 19652 max 19652 min
Histogram: 1 0 0 0 0 0 0 0 0 0
Nghost:    18213 ave 18213 max 18213 min
Histogram: 1 0 0 0 0 0 0 0 0 0
Neighs:    1.46729e+06 ave 1.46729e+06 max 1.46729e+06 min
Histogram: 1 0 0 0 0 0 0 0 0 0

Total # of neighbors = 1467289
Ave neighs/atom = 74.6636
Neighbor list builds = 495
Dangerous builds not checked
Setting up Verlet run ...
  Unit style    : metal
  Current step  : 327176
  Time step     : 0.001
Per MPI rank memory allocation (min/avg/max) = 18.21 | 18.21 | 18.21 Mbytes
Step Temp Press TotEng PotEng Enthalpy 
  327176    275.19377    264.24942   -65105.397   -65804.414     -65049.5 
  333348    250.88329   -305.31946   -65244.275   -65881.541   -65308.766 
Loop time of 931.733 on 1 procs for 6172 steps with 19652 atoms

Performance: 0.572 ns/day, 41.934 hours/ns, 6.624 timesteps/s
99.7% CPU use with 1 MPI tasks x no OpenMP threads

MPI task timing breakdown:
Section |  min time  |  avg time  |  max time  |%varavg| %total
---------------------------------------------------------------
Pair    | 520.14     | 520.14     | 520.14     |   0.0 | 55.83
Neigh   | 376.51     | 376.51     | 376.51     |   0.0 | 40.41
Comm    | 11.713     | 11.713     | 11.713     |   0.0 |  1.26
Output  | 0.00027418 | 0.00027418 | 0.00027418 |   0.0 |  0.00
Modify  | 16.444     | 16.444     | 16.444     |   0.0 |  1.76
Other   |            | 6.92       |            |       |  0.74

Nlocal:    19652 ave 19652 max 19652 min
Histogram: 1 0 0 0 0 0 0 0 0 0
Nghost:    18220 ave 18220 max 18220 min
Histogram: 1 0 0 0 0 0 0 0 0 0
Neighs:    1.46926e+06 ave 1.46926e+06 max 1.46926e+06 min
Histogram: 1 0 0 0 0 0 0 0 0 0

Total # of neighbors = 1469261
Ave neighs/atom = 74.7639
Neighbor list builds = 6172
Dangerous builds not checked
Setting up Verlet run ...
  Unit style    : metal
  Current step  : 333348
  Time step     : 0.001
Per MPI rank memory allocation (min/avg/max) = 18.21 | 18.21 | 18.21 Mbytes
Step Temp Press TotEng PotEng Enthalpy 
  333348    250.88329   -305.31946   -65244.275   -65881.541   -65308.766 
  333350    250.98246   -314.29744   -65244.276   -65881.794   -65310.664 
  333843    226.33505    457.35053   -65385.787   -65960.698   -65289.511 
Loop time of 78.1877 on 1 procs for 495 steps with 19652 atoms

Performance: 0.547 ns/day, 43.876 hours/ns, 6.331 timesteps/s
98.8% CPU use with 1 MPI tasks x no OpenMP threads

MPI task timing breakdown:
Section |  min time  |  avg time  |  max time  |%varavg| %total
---------------------------------------------------------------
Pair    | 43.932     | 43.932     | 43.932     |   0.0 | 56.19
Neigh   | 30.98      | 30.98      | 30.98      |   0.0 | 39.62
Comm    | 1.0632     | 1.0632     | 1.0632     |   0.0 |  1.36
Output  | 0.050007   | 0.050007   | 0.050007   |   0.0 |  0.06
Modify  | 1.5247     | 1.5247     | 1.5247     |   0.0 |  1.95
Other   |            | 0.6372     |            |       |  0.82

Nlocal:    19652 ave 19652 max 19652 min
Histogram: 1 0 0 0 0 0 0 0 0 0
Nghost:    18200 ave 18200 max 18200 min
Histogram: 1 0 0 0 0 0 0 0 0 0
Neighs:    1.47389e+06 ave 1.47389e+06 max 1.47389e+06 min
Histogram: 1 0 0 0 0 0 0 0 0 0

Total # of neighbors = 1473887
Ave neighs/atom = 74.9993
Neighbor list builds = 495
Dangerous builds not checked
Setting up Verlet run ...
  Unit style    : metal
  Current step  : 333843
  Time step     : 0.001
Per MPI rank memory allocation (min/avg/max) = 18.21 | 18.21 | 18.21 Mbytes
Step Temp Press TotEng PotEng Enthalpy 
  333843    226.33505    457.35053   -65385.787   -65960.698   -65289.511 
  340015    201.32031   -196.47696   -65522.775   -66034.147   -65564.074 
Loop time of 981.686 on 1 procs for 6172 steps with 19652 atoms

Performance: 0.543 ns/day, 44.182 hours/ns, 6.287 timesteps/s
95.9% CPU use with 1 MPI tasks x no OpenMP threads

MPI task timing breakdown:
Section |  min time  |  avg time  |  max time  |%varavg| %total
---------------------------------------------------------------
Pair    | 550.36     | 550.36     | 550.36     |   0.0 | 56.06
Neigh   | 393.54     | 393.54     | 393.54     |   0.0 | 40.09
Comm    | 12.704     | 12.704     | 12.704     |   0.0 |  1.29
Output  | 0.00022602 | 0.00022602 | 0.00022602 |   0.0 |  0.00
Modify  | 17.516     | 17.516     | 17.516     |   0.0 |  1.78
Other   |            | 7.571      |            |       |  0.77

Nlocal:    19652 ave 19652 max 19652 min
Histogram: 1 0 0 0 0 0 0 0 0 0
Nghost:    18207 ave 18207 max 18207 min
Histogram: 1 0 0 0 0 0 0 0 0 0
Neighs:    1.47588e+06 ave 1.47588e+06 max 1.47588e+06 min
Histogram: 1 0 0 0 0 0 0 0 0 0

Total # of neighbors = 1475884
Ave neighs/atom = 75.101
Neighbor list builds = 6172
Dangerous builds not checked
Setting up Verlet run ...
  Unit style    : metal
  Current step  : 340015
  Time step     : 0.001
Per MPI rank memory allocation (min/avg/max) = 18.21 | 18.21 | 18.21 Mbytes
Step Temp Press TotEng PotEng Enthalpy 
  340015    201.32031   -196.47696   -65522.775   -66034.147   -65564.074 
  340017    201.24408   -193.14323   -65522.777   -66033.955   -65563.375 
  340510    175.45621   -75.843688   -65656.286   -66101.961   -65672.192 
Loop time of 76.0594 on 1 procs for 495 steps with 19652 atoms

Performance: 0.562 ns/day, 42.682 hours/ns, 6.508 timesteps/s
99.6% CPU use with 1 MPI tasks x no OpenMP threads

MPI task timing breakdown:
Section |  min time  |  avg time  |  max time  |%varavg| %total
---------------------------------------------------------------
Pair    | 42.839     | 42.839     | 42.839     |   0.0 | 56.32
Neigh   | 30.248     | 30.248     | 30.248     |   0.0 | 39.77
Comm    | 0.9819     | 0.9819     | 0.9819     |   0.0 |  1.29
Output  | 0.046858   | 0.046858   | 0.046858   |   0.0 |  0.06
Modify  | 1.3565     | 1.3565     | 1.3565     |   0.0 |  1.78
Other   |            | 0.5865     |            |       |  0.77

Nlocal:    19652 ave 19652 max 19652 min
Histogram: 1 0 0 0 0 0 0 0 0 0
Nghost:    18276 ave 18276 max 18276 min
Histogram: 1 0 0 0 0 0 0 0 0 0
Neighs:    1.47846e+06 ave 1.47846e+06 max 1.47846e+06 min
Histogram: 1 0 0 0 0 0 0 0 0 0

Total # of neighbors = 1478456
Ave neighs/atom = 75.2318
Neighbor list builds = 495
Dangerous builds not checked
Setting up Verlet run ...
  Unit style    : metal
  Current step  : 340510
  Time step     : 0.001
Per MPI rank memory allocation (min/avg/max) = 18.21 | 18.21 | 18.21 Mbytes
Step Temp Press TotEng PotEng Enthalpy 
  340510    175.45621   -75.843688   -65656.286   -66101.961   -65672.192 
  346682     149.8875    360.08402   -65800.896   -66181.624   -65725.586 
Loop time of 941.952 on 1 procs for 6172 steps with 19652 atoms

Performance: 0.566 ns/day, 42.394 hours/ns, 6.552 timesteps/s
98.7% CPU use with 1 MPI tasks x no OpenMP threads

MPI task timing breakdown:
Section |  min time  |  avg time  |  max time  |%varavg| %total
---------------------------------------------------------------
Pair    | 528.14     | 528.14     | 528.14     |   0.0 | 56.07
Neigh   | 378.38     | 378.38     | 378.38     |   0.0 | 40.17
Comm    | 11.989     | 11.989     | 11.989     |   0.0 |  1.27
Output  | 0.00025296 | 0.00025296 | 0.00025296 |   0.0 |  0.00
Modify  | 16.392     | 16.392     | 16.392     |   0.0 |  1.74
Other   |            | 7.048      |            |       |  0.75

Nlocal:    19652 ave 19652 max 19652 min
Histogram: 1 0 0 0 0 0 0 0 0 0
Nghost:    18286 ave 18286 max 18286 min
Histogram: 1 0 0 0 0 0 0 0 0 0
Neighs:    1.4828e+06 ave 1.4828e+06 max 1.4828e+06 min
Histogram: 1 0 0 0 0 0 0 0 0 0

Total # of neighbors = 1482798
Ave neighs/atom = 75.4528
Neighbor list builds = 6172
Dangerous builds not checked
Setting up Verlet run ...
  Unit style    : metal
  Current step  : 346682
  Time step     : 0.001
Per MPI rank memory allocation (min/avg/max) = 18.21 | 18.21 | 18.21 Mbytes
Step Temp Press TotEng PotEng Enthalpy 
  346682     149.8875    360.08402   -65800.896   -66181.624   -65725.586 
  346684    150.06615    349.68647   -65800.896   -66182.078   -65727.761 
  347177    126.82653   -210.00584   -65919.342   -66241.493   -65963.213 
Loop time of 72.4666 on 1 procs for 495 steps with 19652 atoms

Performance: 0.590 ns/day, 40.666 hours/ns, 6.831 timesteps/s
98.7% CPU use with 1 MPI tasks x no OpenMP threads

MPI task timing breakdown:
Section |  min time  |  avg time  |  max time  |%varavg| %total
---------------------------------------------------------------
Pair    | 40.352     | 40.352     | 40.352     |   0.0 | 55.68
Neigh   | 29.548     | 29.548     | 29.548     |   0.0 | 40.78
Comm    | 0.8437     | 0.8437     | 0.8437     |   0.0 |  1.16
Output  | 0.045425   | 0.045425   | 0.045425   |   0.0 |  0.06
Modify  | 1.1639     | 1.1639     | 1.1639     |   0.0 |  1.61
Other   |            | 0.513      |            |       |  0.71

Nlocal:    19652 ave 19652 max 19652 min
Histogram: 1 0 0 0 0 0 0 0 0 0
Nghost:    18328 ave 18328 max 18328 min
Histogram: 1 0 0 0 0 0 0 0 0 0
Neighs:    1.48401e+06 ave 1.48401e+06 max 1.48401e+06 min
Histogram: 1 0 0 0 0 0 0 0 0 0

Total # of neighbors = 1484011
Ave neighs/atom = 75.5145
Neighbor list builds = 495
Dangerous builds not checked
Setting up Verlet run ...
  Unit style    : metal
  Current step  : 347177
  Time step     : 0.001
Per MPI rank memory allocation (min/avg/max) = 18.21 | 18.21 | 18.21 Mbytes
Step Temp Press TotEng PotEng Enthalpy 
  347177    126.82653   -210.00584   -65919.342   -66241.493   -65963.213 
  353349    99.886347    227.26939    -66063.22   -66316.941   -66015.876 
Loop time of 1037.08 on 1 procs for 6172 steps with 19652 atoms

Performance: 0.514 ns/day, 46.675 hours/ns, 5.951 timesteps/s
92.0% CPU use with 1 MPI tasks x no OpenMP threads

MPI task timing breakdown:
Section |  min time  |  avg time  |  max time  |%varavg| %total
---------------------------------------------------------------
Pair    | 585.31     | 585.31     | 585.31     |   0.0 | 56.44
Neigh   | 408.44     | 408.44     | 408.44     |   0.0 | 39.38
Comm    | 14.536     | 14.536     | 14.536     |   0.0 |  1.40
Output  | 0.00040889 | 0.00040889 | 0.00040889 |   0.0 |  0.00
Modify  | 20.272     | 20.272     | 20.272     |   0.0 |  1.95
Other   |            | 8.523      |            |       |  0.82

Nlocal:    19652 ave 19652 max 19652 min
Histogram: 1 0 0 0 0 0 0 0 0 0
Nghost:    18326 ave 18326 max 18326 min
Histogram: 1 0 0 0 0 0 0 0 0 0
Neighs:    1.48753e+06 ave 1.48753e+06 max 1.48753e+06 min
Histogram: 1 0 0 0 0 0 0 0 0 0

Total # of neighbors = 1487534
Ave neighs/atom = 75.6938
Neighbor list builds = 6172
Dangerous builds not checked
Total wall time: 14:44:14
