LAMMPS (12 Dec 2018)
Lattice spacing in x,y,z = 4 4 4
Created orthogonal box = (0 0 0) to (68 68 68)
  1 by 1 by 1 MPI processor grid
Created 19652 atoms
  Time spent = 0.004704 secs
Setting atom values ...
  19652 settings made for type/fraction
Neighbor list info ...
  update every 1 steps, delay 0 steps, check no
  max neighbors/atom: 2000, page size: 100000
  master list distance cutoff = 8.5
  ghost atom cutoff = 8.5
  binsize = 4.25, bins = 16 16 16
  1 neighbor lists, perpetual/occasional/extra = 1 0 0
  (1) pair eam/alloy, perpetual
      attributes: half, newton on
      pair build: half/bin/atomonly/newton
      stencil: half/bin/3d/newton
      bin: standard
Setting up Verlet run ...
  Unit style    : metal
  Current step  : 0
  Time step     : 0.001
Per MPI rank memory allocation (min/avg/max) = 18.19 | 18.19 | 18.19 Mbytes
Step Temp Press TotEng PotEng Enthalpy 
       0          300   -61779.302   -76290.537   -77052.565   -88414.913 
    1000    2095.4071    117474.76   -76291.674   -81614.199   -53236.895 
Loop time of 191.053 on 1 procs for 1000 steps with 19652 atoms

Performance: 0.452 ns/day, 53.070 hours/ns, 5.234 timesteps/s
98.3% CPU use with 1 MPI tasks x no OpenMP threads

MPI task timing breakdown:
Section |  min time  |  avg time  |  max time  |%varavg| %total
---------------------------------------------------------------
Pair    | 108.62     | 108.62     | 108.62     |   0.0 | 56.86
Neigh   | 80.121     | 80.121     | 80.121     |   0.0 | 41.94
Comm    | 1.4252     | 1.4252     | 1.4252     |   0.0 |  0.75
Output  | 0.000144   | 0.000144   | 0.000144   |   0.0 |  0.00
Modify  | 0.45349    | 0.45349    | 0.45349    |   0.0 |  0.24
Other   |            | 0.429      |            |       |  0.22

Nlocal:    19652 ave 19652 max 19652 min
Histogram: 1 0 0 0 0 0 0 0 0 0
Nghost:    18775 ave 18775 max 18775 min
Histogram: 1 0 0 0 0 0 0 0 0 0
Neighs:    1.56997e+06 ave 1.56997e+06 max 1.56997e+06 min
Histogram: 1 0 0 0 0 0 0 0 0 0

Total # of neighbors = 1569971
Ave neighs/atom = 79.8886
Neighbor list builds = 1000
Dangerous builds not checked
Setting up Verlet run ...
  Unit style    : metal
  Current step  : 1000
  Time step     : 0.001
Per MPI rank memory allocation (min/avg/max) = 18.19 | 18.19 | 18.19 Mbytes
Step Temp Press TotEng PotEng Enthalpy 
    1000    2095.4071    117474.76   -76291.674   -81614.199   -53236.895 
    2000    342.07417    293.16137   -86581.353   -87450.252   -86514.515 
Loop time of 172.959 on 1 procs for 1000 steps with 19652 atoms

Performance: 0.500 ns/day, 48.044 hours/ns, 5.782 timesteps/s
97.5% CPU use with 1 MPI tasks x no OpenMP threads

MPI task timing breakdown:
Section |  min time  |  avg time  |  max time  |%varavg| %total
---------------------------------------------------------------
Pair    | 92.659     | 92.659     | 92.659     |   0.0 | 53.57
Neigh   | 76.932     | 76.932     | 76.932     |   0.0 | 44.48
Comm    | 1.2554     | 1.2554     | 1.2554     |   0.0 |  0.73
Output  | 0.081901   | 0.081901   | 0.081901   |   0.0 |  0.05
Modify  | 1.5892     | 1.5892     | 1.5892     |   0.0 |  0.92
Other   |            | 0.4412     |            |       |  0.26

Nlocal:    19652 ave 19652 max 19652 min
Histogram: 1 0 0 0 0 0 0 0 0 0
Nghost:    17653 ave 17653 max 17653 min
Histogram: 1 0 0 0 0 0 0 0 0 0
Neighs:    1.35257e+06 ave 1.35257e+06 max 1.35257e+06 min
Histogram: 1 0 0 0 0 0 0 0 0 0

Total # of neighbors = 1352571
Ave neighs/atom = 68.8261
Neighbor list builds = 1000
Dangerous builds not checked
Setting up Verlet run ...
  Unit style    : metal
  Current step  : 2000
  Time step     : 0.001
Per MPI rank memory allocation (min/avg/max) = 18.19 | 18.19 | 18.19 Mbytes
Step Temp Press TotEng PotEng Enthalpy 
    2000    342.07417    293.16137   -86581.353   -87450.252   -86514.515 
    4000    757.28062   -505.29575   -84288.261   -86211.822   -84405.583 
    6000    1363.8655    1051.1163   -80314.491   -83778.833   -80067.536 
    8000    1909.8196   -878.66422   -77677.236   -82528.352   -77888.337 
   10000    2449.3597   -2100.5857   -75245.768   -81467.364   -75762.414 
Loop time of 1252.71 on 1 procs for 8000 steps with 19652 atoms

Performance: 0.552 ns/day, 43.497 hours/ns, 6.386 timesteps/s
98.9% CPU use with 1 MPI tasks x no OpenMP threads

MPI task timing breakdown:
Section |  min time  |  avg time  |  max time  |%varavg| %total
---------------------------------------------------------------
Pair    | 669.53     | 669.53     | 669.53     |   0.0 | 53.45
Neigh   | 557.6      | 557.6      | 557.6      |   0.0 | 44.51
Comm    | 9.549      | 9.549      | 9.549      |   0.0 |  0.76
Output  | 0.3377     | 0.3377     | 0.3377     |   0.0 |  0.03
Modify  | 12.275     | 12.275     | 12.275     |   0.0 |  0.98
Other   |            | 3.421      |            |       |  0.27

Nlocal:    19652 ave 19652 max 19652 min
Histogram: 1 0 0 0 0 0 0 0 0 0
Nghost:    17053 ave 17053 max 17053 min
Histogram: 1 0 0 0 0 0 0 0 0 0
Neighs:    1.25292e+06 ave 1.25292e+06 max 1.25292e+06 min
Histogram: 1 0 0 0 0 0 0 0 0 0

Total # of neighbors = 1252915
Ave neighs/atom = 63.7551
Neighbor list builds = 8000
Dangerous builds not checked
Setting up Verlet run ...
  Unit style    : metal
  Current step  : 10000
  Time step     : 0.001
Per MPI rank memory allocation (min/avg/max) = 18.2 | 18.2 | 18.2 Mbytes
Step Temp Press TotEng PotEng Enthalpy 
   10000    2449.3597   -2100.5857   -75245.768   -81467.364   -75762.414 
   12000    2438.3041    281.37914   -75298.496   -81492.011   -75229.562 
   14000    2455.8062   -1280.5439   -75219.376   -81457.348   -75534.371 
   16000    2448.3212    1809.2148   -75282.136   -81501.095   -74840.275 
   18000    2465.6095   -844.27589   -75168.747    -81431.62   -75376.477 
   20000    2466.3326    60.856072   -75179.889   -81444.599   -75164.975 
   22000     2449.237    792.22023   -75285.019   -81506.304   -75090.985 
   24000     2454.673   -245.80146   -75221.201   -81456.294   -75281.642 
   26000     2455.834     2576.462   -75253.909   -81491.951    -74624.75 
   28000    2477.9885   -791.19339   -75139.946   -81434.262   -75334.523 
   30000    2433.3568    1136.1489   -75308.947   -81489.894   -75031.301 
   32000    2472.3035    563.60368   -75096.912   -81376.788   -74958.418 
   34000    2438.2161   -618.97041   -75241.686   -81434.977   -75393.708 
   36000     2461.767      1806.36   -75245.958    -81499.07   -74804.716 
   38000    2447.0641   -2494.5795   -75249.266   -81465.032   -75863.188 
   40000     2472.769    382.90581   -75211.734   -81492.792   -75118.068 
Loop time of 4480.04 on 1 procs for 30000 steps with 19652 atoms

Performance: 0.579 ns/day, 41.482 hours/ns, 6.696 timesteps/s
99.1% CPU use with 1 MPI tasks x no OpenMP threads

MPI task timing breakdown:
Section |  min time  |  avg time  |  max time  |%varavg| %total
---------------------------------------------------------------
Pair    | 2402.5     | 2402.5     | 2402.5     |   0.0 | 53.63
Neigh   | 1987.3     | 1987.3     | 1987.3     |   0.0 | 44.36
Comm    | 33.703     | 33.703     | 33.703     |   0.0 |  0.75
Output  | 2.3154     | 2.3154     | 2.3154     |   0.0 |  0.05
Modify  | 42.335     | 42.335     | 42.335     |   0.0 |  0.94
Other   |            | 11.84      |            |       |  0.26

Nlocal:    19652 ave 19652 max 19652 min
Histogram: 1 0 0 0 0 0 0 0 0 0
Nghost:    17115 ave 17115 max 17115 min
Histogram: 1 0 0 0 0 0 0 0 0 0
Neighs:    1.2593e+06 ave 1.2593e+06 max 1.2593e+06 min
Histogram: 1 0 0 0 0 0 0 0 0 0

Total # of neighbors = 1259298
Ave neighs/atom = 64.0799
Neighbor list builds = 30000
Dangerous builds not checked
Setting up Verlet run ...
  Unit style    : metal
  Current step  : 40000
  Time step     : 0.001
Per MPI rank memory allocation (min/avg/max) = 18.2 | 18.2 | 18.2 Mbytes
Step Temp Press TotEng PotEng Enthalpy 
   40000     2472.769    382.90581   -75211.734   -81492.792   -75118.068 
   40495    2387.7317   -294.92325   -75444.115   -81509.171   -75516.289 
Loop time of 74.394 on 1 procs for 495 steps with 19652 atoms

Performance: 0.575 ns/day, 41.747 hours/ns, 6.654 timesteps/s
100.0% CPU use with 1 MPI tasks x no OpenMP threads

MPI task timing breakdown:
Section |  min time  |  avg time  |  max time  |%varavg| %total
---------------------------------------------------------------
Pair    | 40.099     | 40.099     | 40.099     |   0.0 | 53.90
Neigh   | 32.764     | 32.764     | 32.764     |   0.0 | 44.04
Comm    | 0.58629    | 0.58629    | 0.58629    |   0.0 |  0.79
Output  | 0.00011706 | 0.00011706 | 0.00011706 |   0.0 |  0.00
Modify  | 0.73594    | 0.73594    | 0.73594    |   0.0 |  0.99
Other   |            | 0.2083     |            |       |  0.28

Nlocal:    19652 ave 19652 max 19652 min
Histogram: 1 0 0 0 0 0 0 0 0 0
Nghost:    17206 ave 17206 max 17206 min
Histogram: 1 0 0 0 0 0 0 0 0 0
Neighs:    1.25944e+06 ave 1.25944e+06 max 1.25944e+06 min
Histogram: 1 0 0 0 0 0 0 0 0 0

Total # of neighbors = 1259445
Ave neighs/atom = 64.0874
Neighbor list builds = 495
Dangerous builds not checked
Setting up Verlet run ...
  Unit style    : metal
  Current step  : 40495
  Time step     : 0.001
Per MPI rank memory allocation (min/avg/max) = 18.2 | 18.2 | 18.2 Mbytes
Step Temp Press TotEng PotEng Enthalpy 
   40495    2387.7317   -294.92325   -75444.115   -81509.171   -75516.289 
   42000    2397.3271   -609.43481   -75409.279   -81498.708   -75558.861 
Loop time of 214.619 on 1 procs for 1505 steps with 19652 atoms

Performance: 0.606 ns/day, 39.612 hours/ns, 7.012 timesteps/s
99.3% CPU use with 1 MPI tasks x no OpenMP threads

MPI task timing breakdown:
Section |  min time  |  avg time  |  max time  |%varavg| %total
---------------------------------------------------------------
Pair    | 115.12     | 115.12     | 115.12     |   0.0 | 53.64
Neigh   | 95.113     | 95.113     | 95.113     |   0.0 | 44.32
Comm    | 1.614      | 1.614      | 1.614      |   0.0 |  0.75
Output  | 0.11193    | 0.11193    | 0.11193    |   0.0 |  0.05
Modify  | 2.0703     | 2.0703     | 2.0703     |   0.0 |  0.96
Other   |            | 0.5855     |            |       |  0.27

Nlocal:    19652 ave 19652 max 19652 min
Histogram: 1 0 0 0 0 0 0 0 0 0
Nghost:    17014 ave 17014 max 17014 min
Histogram: 1 0 0 0 0 0 0 0 0 0
Neighs:    1.25541e+06 ave 1.25541e+06 max 1.25541e+06 min
Histogram: 1 0 0 0 0 0 0 0 0 0

Total # of neighbors = 1255412
Ave neighs/atom = 63.8821
Neighbor list builds = 1505
Dangerous builds not checked
Setting up Verlet run ...
  Unit style    : metal
  Current step  : 42000
  Time step     : 0.001
Per MPI rank memory allocation (min/avg/max) = 18.2 | 18.2 | 18.2 Mbytes
Step Temp Press TotEng PotEng Enthalpy 
   42000    2397.3271   -609.43481   -75409.279   -81498.708   -75558.861 
   42495    2355.9412    721.27578   -75649.872   -81634.178   -75474.047 
Loop time of 71.2893 on 1 procs for 495 steps with 19652 atoms

Performance: 0.600 ns/day, 40.005 hours/ns, 6.944 timesteps/s
100.0% CPU use with 1 MPI tasks x no OpenMP threads

MPI task timing breakdown:
Section |  min time  |  avg time  |  max time  |%varavg| %total
---------------------------------------------------------------
Pair    | 38.442     | 38.442     | 38.442     |   0.0 | 53.92
Neigh   | 31.401     | 31.401     | 31.401     |   0.0 | 44.05
Comm    | 0.54122    | 0.54122    | 0.54122    |   0.0 |  0.76
Output  | 0.00016403 | 0.00016403 | 0.00016403 |   0.0 |  0.00
Modify  | 0.70452    | 0.70452    | 0.70452    |   0.0 |  0.99
Other   |            | 0.2005     |            |       |  0.28

Nlocal:    19652 ave 19652 max 19652 min
Histogram: 1 0 0 0 0 0 0 0 0 0
Nghost:    17130 ave 17130 max 17130 min
Histogram: 1 0 0 0 0 0 0 0 0 0
Neighs:    1.26389e+06 ave 1.26389e+06 max 1.26389e+06 min
Histogram: 1 0 0 0 0 0 0 0 0 0

Total # of neighbors = 1263886
Ave neighs/atom = 64.3134
Neighbor list builds = 495
Dangerous builds not checked
Setting up Verlet run ...
  Unit style    : metal
  Current step  : 42495
  Time step     : 0.001
Per MPI rank memory allocation (min/avg/max) = 18.2 | 18.2 | 18.2 Mbytes
Step Temp Press TotEng PotEng Enthalpy 
   42495    2355.9412    721.27578   -75649.872   -81634.178   -75474.047 
   44000    2344.0374   -438.08451   -75688.551    -81642.62   -75795.719 
Loop time of 227.261 on 1 procs for 1505 steps with 19652 atoms

Performance: 0.572 ns/day, 41.945 hours/ns, 6.622 timesteps/s
98.6% CPU use with 1 MPI tasks x no OpenMP threads

MPI task timing breakdown:
Section |  min time  |  avg time  |  max time  |%varavg| %total
---------------------------------------------------------------
Pair    | 123.28     | 123.28     | 123.28     |   0.0 | 54.25
Neigh   | 99.339     | 99.339     | 99.339     |   0.0 | 43.71
Comm    | 1.7151     | 1.7151     | 1.7151     |   0.0 |  0.75
Output  | 0.16844    | 0.16844    | 0.16844    |   0.0 |  0.07
Modify  | 2.1388     | 2.1388     | 2.1388     |   0.0 |  0.94
Other   |            | 0.6176     |            |       |  0.27

Nlocal:    19652 ave 19652 max 19652 min
Histogram: 1 0 0 0 0 0 0 0 0 0
Nghost:    17087 ave 17087 max 17087 min
Histogram: 1 0 0 0 0 0 0 0 0 0
Neighs:    1.25981e+06 ave 1.25981e+06 max 1.25981e+06 min
Histogram: 1 0 0 0 0 0 0 0 0 0

Total # of neighbors = 1259813
Ave neighs/atom = 64.1061
Neighbor list builds = 1505
Dangerous builds not checked
Setting up Verlet run ...
  Unit style    : metal
  Current step  : 44000
  Time step     : 0.001
Per MPI rank memory allocation (min/avg/max) = 18.2 | 18.2 | 18.2 Mbytes
Step Temp Press TotEng PotEng Enthalpy 
   44000    2344.0374   -438.08451   -75688.551    -81642.62   -75795.719 
   44495    2304.0705    345.21895   -75885.806   -81738.355   -75801.708 
Loop time of 61.681 on 1 procs for 495 steps with 19652 atoms

Performance: 0.693 ns/day, 34.613 hours/ns, 8.025 timesteps/s
99.6% CPU use with 1 MPI tasks x no OpenMP threads

MPI task timing breakdown:
Section |  min time  |  avg time  |  max time  |%varavg| %total
---------------------------------------------------------------
Pair    | 32.663     | 32.663     | 32.663     |   0.0 | 52.96
Neigh   | 27.797     | 27.797     | 27.797     |   0.0 | 45.07
Comm    | 0.4587     | 0.4587     | 0.4587     |   0.0 |  0.74
Output  | 0.00014997 | 0.00014997 | 0.00014997 |   0.0 |  0.00
Modify  | 0.59906    | 0.59906    | 0.59906    |   0.0 |  0.97
Other   |            | 0.1623     |            |       |  0.26

Nlocal:    19652 ave 19652 max 19652 min
Histogram: 1 0 0 0 0 0 0 0 0 0
Nghost:    17113 ave 17113 max 17113 min
Histogram: 1 0 0 0 0 0 0 0 0 0
Neighs:    1.26499e+06 ave 1.26499e+06 max 1.26499e+06 min
Histogram: 1 0 0 0 0 0 0 0 0 0

Total # of neighbors = 1264994
Ave neighs/atom = 64.3697
Neighbor list builds = 495
Dangerous builds not checked
Setting up Verlet run ...
  Unit style    : metal
  Current step  : 44495
  Time step     : 0.001
Per MPI rank memory allocation (min/avg/max) = 18.2 | 18.2 | 18.2 Mbytes
Step Temp Press TotEng PotEng Enthalpy 
   44495    2304.0705    345.21895   -75885.806   -81738.355   -75801.708 
   46000    2318.6008    849.80929   -75865.095   -81754.552   -75658.402 
Loop time of 206.983 on 1 procs for 1505 steps with 19652 atoms

Performance: 0.628 ns/day, 38.203 hours/ns, 7.271 timesteps/s
98.1% CPU use with 1 MPI tasks x no OpenMP threads

MPI task timing breakdown:
Section |  min time  |  avg time  |  max time  |%varavg| %total
---------------------------------------------------------------
Pair    | 109.62     | 109.62     | 109.62     |   0.0 | 52.96
Neigh   | 91.348     | 91.348     | 91.348     |   0.0 | 44.13
Comm    | 1.5382     | 1.5382     | 1.5382     |   0.0 |  0.74
Output  | 1.974      | 1.974      | 1.974      |   0.0 |  0.95
Modify  | 1.9607     | 1.9607     | 1.9607     |   0.0 |  0.95
Other   |            | 0.538      |            |       |  0.26

Nlocal:    19652 ave 19652 max 19652 min
Histogram: 1 0 0 0 0 0 0 0 0 0
Nghost:    17099 ave 17099 max 17099 min
Histogram: 1 0 0 0 0 0 0 0 0 0
Neighs:    1.26678e+06 ave 1.26678e+06 max 1.26678e+06 min
Histogram: 1 0 0 0 0 0 0 0 0 0

Total # of neighbors = 1266780
Ave neighs/atom = 64.4606
Neighbor list builds = 1505
Dangerous builds not checked
Setting up Verlet run ...
  Unit style    : metal
  Current step  : 46000
  Time step     : 0.001
Per MPI rank memory allocation (min/avg/max) = 18.2 | 18.2 | 18.2 Mbytes
Step Temp Press TotEng PotEng Enthalpy 
   46000    2318.6008    849.80929   -75865.095   -81754.552   -75658.402 
   46495    2249.5654   -420.13851   -76093.087   -81807.188   -76195.122 
Loop time of 70.965 on 1 procs for 495 steps with 19652 atoms

Performance: 0.603 ns/day, 39.823 hours/ns, 6.975 timesteps/s
99.6% CPU use with 1 MPI tasks x no OpenMP threads

MPI task timing breakdown:
Section |  min time  |  avg time  |  max time  |%varavg| %total
---------------------------------------------------------------
Pair    | 38.546     | 38.546     | 38.546     |   0.0 | 54.32
Neigh   | 30.996     | 30.996     | 30.996     |   0.0 | 43.68
Comm    | 0.54419    | 0.54419    | 0.54419    |   0.0 |  0.77
Output  | 0.00018311 | 0.00018311 | 0.00018311 |   0.0 |  0.00
Modify  | 0.6832     | 0.6832     | 0.6832     |   0.0 |  0.96
Other   |            | 0.1957     |            |       |  0.28

Nlocal:    19652 ave 19652 max 19652 min
Histogram: 1 0 0 0 0 0 0 0 0 0
Nghost:    17137 ave 17137 max 17137 min
Histogram: 1 0 0 0 0 0 0 0 0 0
Neighs:    1.26914e+06 ave 1.26914e+06 max 1.26914e+06 min
Histogram: 1 0 0 0 0 0 0 0 0 0

Total # of neighbors = 1269144
Ave neighs/atom = 64.5809
Neighbor list builds = 495
Dangerous builds not checked
Setting up Verlet run ...
  Unit style    : metal
  Current step  : 46495
  Time step     : 0.001
Per MPI rank memory allocation (min/avg/max) = 18.2 | 18.2 | 18.2 Mbytes
Step Temp Press TotEng PotEng Enthalpy 
   46495    2249.5654   -420.13851   -76093.087   -81807.188   -76195.122 
   48000    2251.2611   -429.66929   -76134.883   -81853.291   -76239.308 
Loop time of 220.831 on 1 procs for 1505 steps with 19652 atoms

Performance: 0.589 ns/day, 40.759 hours/ns, 6.815 timesteps/s
99.1% CPU use with 1 MPI tasks x no OpenMP threads

MPI task timing breakdown:
Section |  min time  |  avg time  |  max time  |%varavg| %total
---------------------------------------------------------------
Pair    | 118.48     | 118.48     | 118.48     |   0.0 | 53.65
Neigh   | 97.744     | 97.744     | 97.744     |   0.0 | 44.26
Comm    | 1.6799     | 1.6799     | 1.6799     |   0.0 |  0.76
Output  | 0.21286    | 0.21286    | 0.21286    |   0.0 |  0.10
Modify  | 2.1099     | 2.1099     | 2.1099     |   0.0 |  0.96
Other   |            | 0.6002     |            |       |  0.27

Nlocal:    19652 ave 19652 max 19652 min
Histogram: 1 0 0 0 0 0 0 0 0 0
Nghost:    17155 ave 17155 max 17155 min
Histogram: 1 0 0 0 0 0 0 0 0 0
Neighs:    1.2682e+06 ave 1.2682e+06 max 1.2682e+06 min
Histogram: 1 0 0 0 0 0 0 0 0 0

Total # of neighbors = 1268199
Ave neighs/atom = 64.5328
Neighbor list builds = 1505
Dangerous builds not checked
Setting up Verlet run ...
  Unit style    : metal
  Current step  : 48000
  Time step     : 0.001
Per MPI rank memory allocation (min/avg/max) = 18.2 | 18.2 | 18.2 Mbytes
Step Temp Press TotEng PotEng Enthalpy 
   48000    2251.2611   -429.66929   -76134.883   -81853.291   -76239.308 
   48495    2194.0981    66.990682   -76321.664   -81894.873   -76305.406 
Loop time of 71.6722 on 1 procs for 495 steps with 19652 atoms

Performance: 0.597 ns/day, 40.220 hours/ns, 6.906 timesteps/s
99.9% CPU use with 1 MPI tasks x no OpenMP threads

MPI task timing breakdown:
Section |  min time  |  avg time  |  max time  |%varavg| %total
---------------------------------------------------------------
Pair    | 38.167     | 38.167     | 38.167     |   0.0 | 53.25
Neigh   | 32.046     | 32.046     | 32.046     |   0.0 | 44.71
Comm    | 0.53843    | 0.53843    | 0.53843    |   0.0 |  0.75
Output  | 0.0001719  | 0.0001719  | 0.0001719  |   0.0 |  0.00
Modify  | 0.71529    | 0.71529    | 0.71529    |   0.0 |  1.00
Other   |            | 0.2049     |            |       |  0.29

Nlocal:    19652 ave 19652 max 19652 min
Histogram: 1 0 0 0 0 0 0 0 0 0
Nghost:    17214 ave 17214 max 17214 min
Histogram: 1 0 0 0 0 0 0 0 0 0
Neighs:    1.27055e+06 ave 1.27055e+06 max 1.27055e+06 min
Histogram: 1 0 0 0 0 0 0 0 0 0

Total # of neighbors = 1270549
Ave neighs/atom = 64.6524
Neighbor list builds = 495
Dangerous builds not checked
Setting up Verlet run ...
  Unit style    : metal
  Current step  : 48495
  Time step     : 0.001
Per MPI rank memory allocation (min/avg/max) = 18.2 | 18.2 | 18.2 Mbytes
Step Temp Press TotEng PotEng Enthalpy 
   48495    2194.0981    66.990682   -76321.664   -81894.873   -76305.406 
   50000    2189.8537   -1578.5572   -76367.812    -81930.24   -76751.709 
Loop time of 202.2 on 1 procs for 1505 steps with 19652 atoms

Performance: 0.643 ns/day, 37.320 hours/ns, 7.443 timesteps/s
99.2% CPU use with 1 MPI tasks x no OpenMP threads

MPI task timing breakdown:
Section |  min time  |  avg time  |  max time  |%varavg| %total
---------------------------------------------------------------
Pair    | 106.88     | 106.88     | 106.88     |   0.0 | 52.86
Neigh   | 91.124     | 91.124     | 91.124     |   0.0 | 45.07
Comm    | 1.5037     | 1.5037     | 1.5037     |   0.0 |  0.74
Output  | 0.14835    | 0.14835    | 0.14835    |   0.0 |  0.07
Modify  | 1.9562     | 1.9562     | 1.9562     |   0.0 |  0.97
Other   |            | 0.5915     |            |       |  0.29

Nlocal:    19652 ave 19652 max 19652 min
Histogram: 1 0 0 0 0 0 0 0 0 0
Nghost:    17170 ave 17170 max 17170 min
Histogram: 1 0 0 0 0 0 0 0 0 0
Neighs:    1.26749e+06 ave 1.26749e+06 max 1.26749e+06 min
Histogram: 1 0 0 0 0 0 0 0 0 0

Total # of neighbors = 1267491
Ave neighs/atom = 64.4968
Neighbor list builds = 1505
Dangerous builds not checked
Setting up Verlet run ...
  Unit style    : metal
  Current step  : 50000
  Time step     : 0.001
Per MPI rank memory allocation (min/avg/max) = 18.2 | 18.2 | 18.2 Mbytes
Step Temp Press TotEng PotEng Enthalpy 
   50000    2189.8537   -1578.5572   -76367.812    -81930.24   -76751.709 
   50495    2149.6223    736.13568   -76559.159   -82019.395   -76381.204 
Loop time of 67.8969 on 1 procs for 495 steps with 19652 atoms

Performance: 0.630 ns/day, 38.102 hours/ns, 7.290 timesteps/s
99.2% CPU use with 1 MPI tasks x no OpenMP threads

MPI task timing breakdown:
Section |  min time  |  avg time  |  max time  |%varavg| %total
---------------------------------------------------------------
Pair    | 35.9       | 35.9       | 35.9       |   0.0 | 52.87
Neigh   | 30.592     | 30.592     | 30.592     |   0.0 | 45.06
Comm    | 0.51684    | 0.51684    | 0.51684    |   0.0 |  0.76
Output  | 0.00016594 | 0.00016594 | 0.00016594 |   0.0 |  0.00
Modify  | 0.68537    | 0.68537    | 0.68537    |   0.0 |  1.01
Other   |            | 0.2027     |            |       |  0.30

Nlocal:    19652 ave 19652 max 19652 min
Histogram: 1 0 0 0 0 0 0 0 0 0
Nghost:    17202 ave 17202 max 17202 min
Histogram: 1 0 0 0 0 0 0 0 0 0
Neighs:    1.27439e+06 ave 1.27439e+06 max 1.27439e+06 min
Histogram: 1 0 0 0 0 0 0 0 0 0

Total # of neighbors = 1274390
Ave neighs/atom = 64.8479
Neighbor list builds = 495
Dangerous builds not checked
Setting up Verlet run ...
  Unit style    : metal
  Current step  : 50495
  Time step     : 0.001
Per MPI rank memory allocation (min/avg/max) = 18.2 | 18.2 | 18.2 Mbytes
Step Temp Press TotEng PotEng Enthalpy 
   50495    2149.6223    736.13568   -76559.159   -82019.395   -76381.204 
   52000    2140.1449    1189.6616   -76586.821   -82022.985   -76299.163 
Loop time of 221.045 on 1 procs for 1505 steps with 19652 atoms

Performance: 0.588 ns/day, 40.798 hours/ns, 6.809 timesteps/s
98.5% CPU use with 1 MPI tasks x no OpenMP threads

MPI task timing breakdown:
Section |  min time  |  avg time  |  max time  |%varavg| %total
---------------------------------------------------------------
Pair    | 118.48     | 118.48     | 118.48     |   0.0 | 53.60
Neigh   | 97.899     | 97.899     | 97.899     |   0.0 | 44.29
Comm    | 1.6702     | 1.6702     | 1.6702     |   0.0 |  0.76
Output  | 0.21002    | 0.21002    | 0.21002    |   0.0 |  0.10
Modify  | 2.1523     | 2.1523     | 2.1523     |   0.0 |  0.97
Other   |            | 0.6318     |            |       |  0.29

Nlocal:    19652 ave 19652 max 19652 min
Histogram: 1 0 0 0 0 0 0 0 0 0
Nghost:    17174 ave 17174 max 17174 min
Histogram: 1 0 0 0 0 0 0 0 0 0
Neighs:    1.27399e+06 ave 1.27399e+06 max 1.27399e+06 min
Histogram: 1 0 0 0 0 0 0 0 0 0

Total # of neighbors = 1273993
Ave neighs/atom = 64.8277
Neighbor list builds = 1505
Dangerous builds not checked
Setting up Verlet run ...
  Unit style    : metal
  Current step  : 52000
  Time step     : 0.001
Per MPI rank memory allocation (min/avg/max) = 18.2 | 18.2 | 18.2 Mbytes
Step Temp Press TotEng PotEng Enthalpy 
   52000    2140.1449    1189.6616   -76586.821   -82022.985   -76299.163 
   52495    2110.2917    767.41288   -76767.117    -82127.45   -76581.681 
Loop time of 72.8584 on 1 procs for 495 steps with 19652 atoms

Performance: 0.587 ns/day, 40.886 hours/ns, 6.794 timesteps/s
98.7% CPU use with 1 MPI tasks x no OpenMP threads

MPI task timing breakdown:
Section |  min time  |  avg time  |  max time  |%varavg| %total
---------------------------------------------------------------
Pair    | 38.991     | 38.991     | 38.991     |   0.0 | 53.52
Neigh   | 32.374     | 32.374     | 32.374     |   0.0 | 44.43
Comm    | 0.56153    | 0.56153    | 0.56153    |   0.0 |  0.77
Output  | 0.00011206 | 0.00011206 | 0.00011206 |   0.0 |  0.00
Modify  | 0.72409    | 0.72409    | 0.72409    |   0.0 |  0.99
Other   |            | 0.208      |            |       |  0.29

Nlocal:    19652 ave 19652 max 19652 min
Histogram: 1 0 0 0 0 0 0 0 0 0
Nghost:    17153 ave 17153 max 17153 min
Histogram: 1 0 0 0 0 0 0 0 0 0
Neighs:    1.27548e+06 ave 1.27548e+06 max 1.27548e+06 min
Histogram: 1 0 0 0 0 0 0 0 0 0

Total # of neighbors = 1275483
Ave neighs/atom = 64.9035
Neighbor list builds = 495
Dangerous builds not checked
Setting up Verlet run ...
  Unit style    : metal
  Current step  : 52495
  Time step     : 0.001
Per MPI rank memory allocation (min/avg/max) = 18.2 | 18.2 | 18.2 Mbytes
Step Temp Press TotEng PotEng Enthalpy 
   52495    2110.2917    767.41288   -76767.117    -82127.45   -76581.681 
   54000    2104.3951   -45.352834   -76736.096   -82081.451   -76747.055 
Loop time of 216.506 on 1 procs for 1505 steps with 19652 atoms

Performance: 0.601 ns/day, 39.960 hours/ns, 6.951 timesteps/s
99.0% CPU use with 1 MPI tasks x no OpenMP threads

MPI task timing breakdown:
Section |  min time  |  avg time  |  max time  |%varavg| %total
---------------------------------------------------------------
Pair    | 115.28     | 115.28     | 115.28     |   0.0 | 53.25
Neigh   | 96.659     | 96.659     | 96.659     |   0.0 | 44.65
Comm    | 1.6116     | 1.6116     | 1.6116     |   0.0 |  0.74
Output  | 0.18492    | 0.18492    | 0.18492    |   0.0 |  0.09
Modify  | 2.1512     | 2.1512     | 2.1512     |   0.0 |  0.99
Other   |            | 0.6141     |            |       |  0.28

Nlocal:    19652 ave 19652 max 19652 min
Histogram: 1 0 0 0 0 0 0 0 0 0
Nghost:    17189 ave 17189 max 17189 min
Histogram: 1 0 0 0 0 0 0 0 0 0
Neighs:    1.27534e+06 ave 1.27534e+06 max 1.27534e+06 min
Histogram: 1 0 0 0 0 0 0 0 0 0

Total # of neighbors = 1275344
Ave neighs/atom = 64.8964
Neighbor list builds = 1505
Dangerous builds not checked
Setting up Verlet run ...
  Unit style    : metal
  Current step  : 54000
  Time step     : 0.001
Per MPI rank memory allocation (min/avg/max) = 18.2 | 18.2 | 18.2 Mbytes
Step Temp Press TotEng PotEng Enthalpy 
   54000    2104.3951   -45.352834   -76736.096   -82081.451   -76747.055 
   54495    2048.6315    908.38636   -76969.018   -82172.728   -76750.169 
Loop time of 71.7569 on 1 procs for 495 steps with 19652 atoms

Performance: 0.596 ns/day, 40.268 hours/ns, 6.898 timesteps/s
98.4% CPU use with 1 MPI tasks x no OpenMP threads

MPI task timing breakdown:
Section |  min time  |  avg time  |  max time  |%varavg| %total
---------------------------------------------------------------
Pair    | 38.19      | 38.19      | 38.19      |   0.0 | 53.22
Neigh   | 32.122     | 32.122     | 32.122     |   0.0 | 44.77
Comm    | 0.52458    | 0.52458    | 0.52458    |   0.0 |  0.73
Output  | 0.00014901 | 0.00014901 | 0.00014901 |   0.0 |  0.00
Modify  | 0.71869    | 0.71869    | 0.71869    |   0.0 |  1.00
Other   |            | 0.2008     |            |       |  0.28

Nlocal:    19652 ave 19652 max 19652 min
Histogram: 1 0 0 0 0 0 0 0 0 0
Nghost:    17129 ave 17129 max 17129 min
Histogram: 1 0 0 0 0 0 0 0 0 0
Neighs:    1.27919e+06 ave 1.27919e+06 max 1.27919e+06 min
Histogram: 1 0 0 0 0 0 0 0 0 0

Total # of neighbors = 1279191
Ave neighs/atom = 65.0922
Neighbor list builds = 495
Dangerous builds not checked
Setting up Verlet run ...
  Unit style    : metal
  Current step  : 54495
  Time step     : 0.001
Per MPI rank memory allocation (min/avg/max) = 18.2 | 18.2 | 18.2 Mbytes
Step Temp Press TotEng PotEng Enthalpy 
   54495    2048.6315    908.38636   -76969.018   -82172.728   -76750.169 
   56000    2043.3499   -1055.5959   -77034.157   -82224.452   -77288.617 
Loop time of 212.999 on 1 procs for 1505 steps with 19652 atoms

Performance: 0.610 ns/day, 39.313 hours/ns, 7.066 timesteps/s
98.0% CPU use with 1 MPI tasks x no OpenMP threads

MPI task timing breakdown:
Section |  min time  |  avg time  |  max time  |%varavg| %total
---------------------------------------------------------------
Pair    | 113.17     | 113.17     | 113.17     |   0.0 | 53.13
Neigh   | 95.331     | 95.331     | 95.331     |   0.0 | 44.76
Comm    | 1.584      | 1.584      | 1.584      |   0.0 |  0.74
Output  | 0.19938    | 0.19938    | 0.19938    |   0.0 |  0.09
Modify  | 2.1229     | 2.1229     | 2.1229     |   0.0 |  1.00
Other   |            | 0.5917     |            |       |  0.28

Nlocal:    19652 ave 19652 max 19652 min
Histogram: 1 0 0 0 0 0 0 0 0 0
Nghost:    17144 ave 17144 max 17144 min
Histogram: 1 0 0 0 0 0 0 0 0 0
Neighs:    1.27789e+06 ave 1.27789e+06 max 1.27789e+06 min
Histogram: 1 0 0 0 0 0 0 0 0 0

Total # of neighbors = 1277894
Ave neighs/atom = 65.0262
Neighbor list builds = 1505
Dangerous builds not checked
Setting up Verlet run ...
  Unit style    : metal
  Current step  : 56000
  Time step     : 0.001
Per MPI rank memory allocation (min/avg/max) = 18.2 | 18.2 | 18.2 Mbytes
Step Temp Press TotEng PotEng Enthalpy 
   56000    2043.3499   -1055.5959   -77034.157   -82224.452   -77288.617 
   56495    2008.1421    361.37032   -77198.217   -82299.081   -77111.258 
Loop time of 64.5526 on 1 procs for 495 steps with 19652 atoms

Performance: 0.663 ns/day, 36.225 hours/ns, 7.668 timesteps/s
100.0% CPU use with 1 MPI tasks x no OpenMP threads

MPI task timing breakdown:
Section |  min time  |  avg time  |  max time  |%varavg| %total
---------------------------------------------------------------
Pair    | 34.007     | 34.007     | 34.007     |   0.0 | 52.68
Neigh   | 29.228     | 29.228     | 29.228     |   0.0 | 45.28
Comm    | 0.47667    | 0.47667    | 0.47667    |   0.0 |  0.74
Output  | 0.00013089 | 0.00013089 | 0.00013089 |   0.0 |  0.00
Modify  | 0.65339    | 0.65339    | 0.65339    |   0.0 |  1.01
Other   |            | 0.1879     |            |       |  0.29

Nlocal:    19652 ave 19652 max 19652 min
Histogram: 1 0 0 0 0 0 0 0 0 0
Nghost:    17216 ave 17216 max 17216 min
Histogram: 1 0 0 0 0 0 0 0 0 0
Neighs:    1.28083e+06 ave 1.28083e+06 max 1.28083e+06 min
Histogram: 1 0 0 0 0 0 0 0 0 0

Total # of neighbors = 1280833
Ave neighs/atom = 65.1757
Neighbor list builds = 495
Dangerous builds not checked
Setting up Verlet run ...
  Unit style    : metal
  Current step  : 56495
  Time step     : 0.001
Per MPI rank memory allocation (min/avg/max) = 18.2 | 18.2 | 18.2 Mbytes
Step Temp Press TotEng PotEng Enthalpy 
   56495    2008.1421    361.37032   -77198.217   -82299.081   -77111.258 
   58000    2000.2691   -143.16967   -77208.045   -82288.911   -77242.621 
Loop time of 205.782 on 1 procs for 1505 steps with 19652 atoms

Performance: 0.632 ns/day, 37.981 hours/ns, 7.314 timesteps/s
99.4% CPU use with 1 MPI tasks x no OpenMP threads

MPI task timing breakdown:
Section |  min time  |  avg time  |  max time  |%varavg| %total
---------------------------------------------------------------
Pair    | 108.91     | 108.91     | 108.91     |   0.0 | 52.93
Neigh   | 92.654     | 92.654     | 92.654     |   0.0 | 45.03
Comm    | 1.5274     | 1.5274     | 1.5274     |   0.0 |  0.74
Output  | 0.10324    | 0.10324    | 0.10324    |   0.0 |  0.05
Modify  | 2.0181     | 2.0181     | 2.0181     |   0.0 |  0.98
Other   |            | 0.5663     |            |       |  0.28

Nlocal:    19652 ave 19652 max 19652 min
Histogram: 1 0 0 0 0 0 0 0 0 0
Nghost:    17187 ave 17187 max 17187 min
Histogram: 1 0 0 0 0 0 0 0 0 0
Neighs:    1.2764e+06 ave 1.2764e+06 max 1.2764e+06 min
Histogram: 1 0 0 0 0 0 0 0 0 0

Total # of neighbors = 1276402
Ave neighs/atom = 64.9502
Neighbor list builds = 1505
Dangerous builds not checked
Setting up Verlet run ...
  Unit style    : metal
  Current step  : 58000
  Time step     : 0.001
Per MPI rank memory allocation (min/avg/max) = 18.2 | 18.2 | 18.2 Mbytes
Step Temp Press TotEng PotEng Enthalpy 
   58000    2000.2691   -143.16967   -77208.045   -82288.911   -77242.621 
   58495    1961.5469    183.13864   -77446.163   -82428.671    -77402.25 
Loop time of 62.6666 on 1 procs for 495 steps with 19652 atoms

Performance: 0.682 ns/day, 35.166 hours/ns, 7.899 timesteps/s
100.0% CPU use with 1 MPI tasks x no OpenMP threads

MPI task timing breakdown:
Section |  min time  |  avg time  |  max time  |%varavg| %total
---------------------------------------------------------------
Pair    | 33.172     | 33.172     | 33.172     |   0.0 | 52.93
Neigh   | 28.236     | 28.236     | 28.236     |   0.0 | 45.06
Comm    | 0.47208    | 0.47208    | 0.47208    |   0.0 |  0.75
Output  | 0.00015378 | 0.00015378 | 0.00015378 |   0.0 |  0.00
Modify  | 0.61062    | 0.61062    | 0.61062    |   0.0 |  0.97
Other   |            | 0.176      |            |       |  0.28

Nlocal:    19652 ave 19652 max 19652 min
Histogram: 1 0 0 0 0 0 0 0 0 0
Nghost:    17228 ave 17228 max 17228 min
Histogram: 1 0 0 0 0 0 0 0 0 0
Neighs:    1.28491e+06 ave 1.28491e+06 max 1.28491e+06 min
Histogram: 1 0 0 0 0 0 0 0 0 0

Total # of neighbors = 1284910
Ave neighs/atom = 65.3832
Neighbor list builds = 495
Dangerous builds not checked
Setting up Verlet run ...
  Unit style    : metal
  Current step  : 58495
  Time step     : 0.001
Per MPI rank memory allocation (min/avg/max) = 18.2 | 18.2 | 18.2 Mbytes
Step Temp Press TotEng PotEng Enthalpy 
   58495    1961.5469    183.13864   -77446.163   -82428.671    -77402.25 
   60000    1956.8236   -571.91383   -77422.192   -82392.703   -77559.995 
Loop time of 204.644 on 1 procs for 1505 steps with 19652 atoms

Performance: 0.635 ns/day, 37.771 hours/ns, 7.354 timesteps/s
99.8% CPU use with 1 MPI tasks x no OpenMP threads

MPI task timing breakdown:
Section |  min time  |  avg time  |  max time  |%varavg| %total
---------------------------------------------------------------
Pair    | 108.99     | 108.99     | 108.99     |   0.0 | 53.26
Neigh   | 91.477     | 91.477     | 91.477     |   0.0 | 44.70
Comm    | 1.5671     | 1.5671     | 1.5671     |   0.0 |  0.77
Output  | 0.062835   | 0.062835   | 0.062835   |   0.0 |  0.03
Modify  | 1.986      | 1.986      | 1.986      |   0.0 |  0.97
Other   |            | 0.561      |            |       |  0.27

Nlocal:    19652 ave 19652 max 19652 min
Histogram: 1 0 0 0 0 0 0 0 0 0
Nghost:    17236 ave 17236 max 17236 min
Histogram: 1 0 0 0 0 0 0 0 0 0
Neighs:    1.27882e+06 ave 1.27882e+06 max 1.27882e+06 min
Histogram: 1 0 0 0 0 0 0 0 0 0

Total # of neighbors = 1278824
Ave neighs/atom = 65.0735
Neighbor list builds = 1505
Dangerous builds not checked
Setting up Verlet run ...
  Unit style    : metal
  Current step  : 60000
  Time step     : 0.001
Per MPI rank memory allocation (min/avg/max) = 18.2 | 18.2 | 18.2 Mbytes
Step Temp Press TotEng PotEng Enthalpy 
   60000    1956.8236   -571.91383   -77422.192   -82392.703   -77559.995 
   60495    1902.7918    227.85684   -77665.628   -82498.892   -77611.019 
Loop time of 54.194 on 1 procs for 495 steps with 19652 atoms

Performance: 0.789 ns/day, 30.412 hours/ns, 9.134 timesteps/s
100.0% CPU use with 1 MPI tasks x no OpenMP threads

MPI task timing breakdown:
Section |  min time  |  avg time  |  max time  |%varavg| %total
---------------------------------------------------------------
Pair    | 28.036     | 28.036     | 28.036     |   0.0 | 51.73
Neigh   | 25.05      | 25.05      | 25.05      |   0.0 | 46.22
Comm    | 0.41053    | 0.41053    | 0.41053    |   0.0 |  0.76
Output  | 0.00016999 | 0.00016999 | 0.00016999 |   0.0 |  0.00
Modify  | 0.53693    | 0.53693    | 0.53693    |   0.0 |  0.99
Other   |            | 0.1599     |            |       |  0.29

Nlocal:    19652 ave 19652 max 19652 min
Histogram: 1 0 0 0 0 0 0 0 0 0
Nghost:    17310 ave 17310 max 17310 min
Histogram: 1 0 0 0 0 0 0 0 0 0
Neighs:    1.28585e+06 ave 1.28585e+06 max 1.28585e+06 min
Histogram: 1 0 0 0 0 0 0 0 0 0

Total # of neighbors = 1285851
Ave neighs/atom = 65.4311
Neighbor list builds = 495
Dangerous builds not checked
Setting up Verlet run ...
  Unit style    : metal
  Current step  : 60495
  Time step     : 0.001
Per MPI rank memory allocation (min/avg/max) = 18.2 | 18.2 | 18.2 Mbytes
Step Temp Press TotEng PotEng Enthalpy 
   60495    1902.7918    227.85684   -77665.628   -82498.892   -77611.019 
   62000    1906.1676   -278.27149   -77651.604   -82493.443   -77718.421 
Loop time of 187.745 on 1 procs for 1505 steps with 19652 atoms

Performance: 0.693 ns/day, 34.652 hours/ns, 8.016 timesteps/s
99.4% CPU use with 1 MPI tasks x no OpenMP threads

MPI task timing breakdown:
Section |  min time  |  avg time  |  max time  |%varavg| %total
---------------------------------------------------------------
Pair    | 97.748     | 97.748     | 97.748     |   0.0 | 52.06
Neigh   | 85.529     | 85.529     | 85.529     |   0.0 | 45.56
Comm    | 1.4213     | 1.4213     | 1.4213     |   0.0 |  0.76
Output  | 0.65257    | 0.65257    | 0.65257    |   0.0 |  0.35
Modify  | 1.8554     | 1.8554     | 1.8554     |   0.0 |  0.99
Other   |            | 0.5392     |            |       |  0.29

Nlocal:    19652 ave 19652 max 19652 min
Histogram: 1 0 0 0 0 0 0 0 0 0
Nghost:    17225 ave 17225 max 17225 min
Histogram: 1 0 0 0 0 0 0 0 0 0
Neighs:    1.28359e+06 ave 1.28359e+06 max 1.28359e+06 min
Histogram: 1 0 0 0 0 0 0 0 0 0

Total # of neighbors = 1283593
Ave neighs/atom = 65.3162
Neighbor list builds = 1505
Dangerous builds not checked
Setting up Verlet run ...
  Unit style    : metal
  Current step  : 62000
  Time step     : 0.001
Per MPI rank memory allocation (min/avg/max) = 18.2 | 18.2 | 18.2 Mbytes
Step Temp Press TotEng PotEng Enthalpy 
   62000    1906.1676   -278.27149   -77651.604   -82493.443   -77718.421 
   62495    1862.0892    862.00717   -77874.234   -82604.111   -77668.061 
Loop time of 63.859 on 1 procs for 495 steps with 19652 atoms

Performance: 0.670 ns/day, 35.836 hours/ns, 7.751 timesteps/s
99.6% CPU use with 1 MPI tasks x no OpenMP threads

MPI task timing breakdown:
Section |  min time  |  avg time  |  max time  |%varavg| %total
---------------------------------------------------------------
Pair    | 33.454     | 33.454     | 33.454     |   0.0 | 52.39
Neigh   | 29.085     | 29.085     | 29.085     |   0.0 | 45.55
Comm    | 0.49481    | 0.49481    | 0.49481    |   0.0 |  0.77
Output  | 0.00012302 | 0.00012302 | 0.00012302 |   0.0 |  0.00
Modify  | 0.63754    | 0.63754    | 0.63754    |   0.0 |  1.00
Other   |            | 0.1875     |            |       |  0.29

Nlocal:    19652 ave 19652 max 19652 min
Histogram: 1 0 0 0 0 0 0 0 0 0
Nghost:    17263 ave 17263 max 17263 min
Histogram: 1 0 0 0 0 0 0 0 0 0
Neighs:    1.28796e+06 ave 1.28796e+06 max 1.28796e+06 min
Histogram: 1 0 0 0 0 0 0 0 0 0

Total # of neighbors = 1287961
Ave neighs/atom = 65.5384
Neighbor list builds = 495
Dangerous builds not checked
Setting up Verlet run ...
  Unit style    : metal
  Current step  : 62495
  Time step     : 0.001
Per MPI rank memory allocation (min/avg/max) = 18.2 | 18.2 | 18.2 Mbytes
Step Temp Press TotEng PotEng Enthalpy 
   62495    1862.0892    862.00717   -77874.234   -82604.111   -77668.061 
   64000    1861.0354   -79.302827   -77927.285   -82654.485    -77946.24 
Loop time of 187.029 on 1 procs for 1505 steps with 19652 atoms

Performance: 0.695 ns/day, 34.520 hours/ns, 8.047 timesteps/s
100.0% CPU use with 1 MPI tasks x no OpenMP threads

MPI task timing breakdown:
Section |  min time  |  avg time  |  max time  |%varavg| %total
---------------------------------------------------------------
Pair    | 97.867     | 97.867     | 97.867     |   0.0 | 52.33
Neigh   | 85.257     | 85.257     | 85.257     |   0.0 | 45.58
Comm    | 1.4303     | 1.4303     | 1.4303     |   0.0 |  0.76
Output  | 0.09917    | 0.09917    | 0.09917    |   0.0 |  0.05
Modify  | 1.8445     | 1.8445     | 1.8445     |   0.0 |  0.99
Other   |            | 0.5319     |            |       |  0.28

Nlocal:    19652 ave 19652 max 19652 min
Histogram: 1 0 0 0 0 0 0 0 0 0
Nghost:    17345 ave 17345 max 17345 min
Histogram: 1 0 0 0 0 0 0 0 0 0
Neighs:    1.29005e+06 ave 1.29005e+06 max 1.29005e+06 min
Histogram: 1 0 0 0 0 0 0 0 0 0

Total # of neighbors = 1290049
Ave neighs/atom = 65.6447
Neighbor list builds = 1505
Dangerous builds not checked
Setting up Verlet run ...
  Unit style    : metal
  Current step  : 64000
  Time step     : 0.001
Per MPI rank memory allocation (min/avg/max) = 18.2 | 18.2 | 18.2 Mbytes
Step Temp Press TotEng PotEng Enthalpy 
   64000    1861.0354   -79.302827   -77927.285   -82654.485    -77946.24 
   64495    1809.6824   -1147.1658   -78103.557   -82700.316   -78378.024 
Loop time of 53.1393 on 1 procs for 495 steps with 19652 atoms

Performance: 0.805 ns/day, 29.820 hours/ns, 9.315 timesteps/s
100.0% CPU use with 1 MPI tasks x no OpenMP threads

MPI task timing breakdown:
Section |  min time  |  avg time  |  max time  |%varavg| %total
---------------------------------------------------------------
Pair    | 27.475     | 27.475     | 27.475     |   0.0 | 51.70
Neigh   | 24.583     | 24.583     | 24.583     |   0.0 | 46.26
Comm    | 0.40426    | 0.40426    | 0.40426    |   0.0 |  0.76
Output  | 0.0001502  | 0.0001502  | 0.0001502  |   0.0 |  0.00
Modify  | 0.52158    | 0.52158    | 0.52158    |   0.0 |  0.98
Other   |            | 0.1549     |            |       |  0.29

Nlocal:    19652 ave 19652 max 19652 min
Histogram: 1 0 0 0 0 0 0 0 0 0
Nghost:    17264 ave 17264 max 17264 min
Histogram: 1 0 0 0 0 0 0 0 0 0
Neighs:    1.2883e+06 ave 1.2883e+06 max 1.2883e+06 min
Histogram: 1 0 0 0 0 0 0 0 0 0

Total # of neighbors = 1288302
Ave neighs/atom = 65.5558
Neighbor list builds = 495
Dangerous builds not checked
Setting up Verlet run ...
  Unit style    : metal
  Current step  : 64495
  Time step     : 0.001
Per MPI rank memory allocation (min/avg/max) = 18.2 | 18.2 | 18.2 Mbytes
Step Temp Press TotEng PotEng Enthalpy 
   64495    1809.6824   -1147.1658   -78103.557   -82700.316   -78378.024 
   66000     1782.631    688.50004   -78216.613   -82744.658   -78052.509 
Loop time of 182.621 on 1 procs for 1505 steps with 19652 atoms

Performance: 0.712 ns/day, 33.706 hours/ns, 8.241 timesteps/s
99.6% CPU use with 1 MPI tasks x no OpenMP threads

MPI task timing breakdown:
Section |  min time  |  avg time  |  max time  |%varavg| %total
---------------------------------------------------------------
Pair    | 95.055     | 95.055     | 95.055     |   0.0 | 52.05
Neigh   | 83.341     | 83.341     | 83.341     |   0.0 | 45.64
Comm    | 1.3868     | 1.3868     | 1.3868     |   0.0 |  0.76
Output  | 0.53406    | 0.53406    | 0.53406    |   0.0 |  0.29
Modify  | 1.7871     | 1.7871     | 1.7871     |   0.0 |  0.98
Other   |            | 0.5176     |            |       |  0.28

Nlocal:    19652 ave 19652 max 19652 min
Histogram: 1 0 0 0 0 0 0 0 0 0
Nghost:    17370 ave 17370 max 17370 min
Histogram: 1 0 0 0 0 0 0 0 0 0
Neighs:    1.29273e+06 ave 1.29273e+06 max 1.29273e+06 min
Histogram: 1 0 0 0 0 0 0 0 0 0

Total # of neighbors = 1292732
Ave neighs/atom = 65.7812
Neighbor list builds = 1505
Dangerous builds not checked
Setting up Verlet run ...
  Unit style    : metal
  Current step  : 66000
  Time step     : 0.001
Per MPI rank memory allocation (min/avg/max) = 18.2 | 18.2 | 18.2 Mbytes
Step Temp Press TotEng PotEng Enthalpy 
   66000     1782.631    688.50004   -78216.613   -82744.658   -78052.509 
   66495     1759.278   -690.82867   -78318.002   -82786.728   -78482.986 
Loop time of 74.1136 on 1 procs for 495 steps with 19652 atoms

Performance: 0.577 ns/day, 41.590 hours/ns, 6.679 timesteps/s
98.3% CPU use with 1 MPI tasks x no OpenMP threads

MPI task timing breakdown:
Section |  min time  |  avg time  |  max time  |%varavg| %total
---------------------------------------------------------------
Pair    | 39.719     | 39.719     | 39.719     |   0.0 | 53.59
Neigh   | 32.875     | 32.875     | 32.875     |   0.0 | 44.36
Comm    | 0.56074    | 0.56074    | 0.56074    |   0.0 |  0.76
Output  | 0.00016594 | 0.00016594 | 0.00016594 |   0.0 |  0.00
Modify  | 0.75096    | 0.75096    | 0.75096    |   0.0 |  1.01
Other   |            | 0.2076     |            |       |  0.28

Nlocal:    19652 ave 19652 max 19652 min
Histogram: 1 0 0 0 0 0 0 0 0 0
Nghost:    17156 ave 17156 max 17156 min
Histogram: 1 0 0 0 0 0 0 0 0 0
Neighs:    1.29025e+06 ave 1.29025e+06 max 1.29025e+06 min
Histogram: 1 0 0 0 0 0 0 0 0 0

Total # of neighbors = 1290248
Ave neighs/atom = 65.6548
Neighbor list builds = 495
Dangerous builds not checked
Setting up Verlet run ...
  Unit style    : metal
  Current step  : 66495
  Time step     : 0.001
Per MPI rank memory allocation (min/avg/max) = 18.2 | 18.2 | 18.2 Mbytes
Step Temp Press TotEng PotEng Enthalpy 
   66495     1759.278   -690.82867   -78318.002   -82786.728   -78482.986 
   68000    1762.5249    67.151335   -78383.492   -82860.466   -78367.482 
Loop time of 229.942 on 1 procs for 1505 steps with 19652 atoms

Performance: 0.565 ns/day, 42.440 hours/ns, 6.545 timesteps/s
98.2% CPU use with 1 MPI tasks x no OpenMP threads

MPI task timing breakdown:
Section |  min time  |  avg time  |  max time  |%varavg| %total
---------------------------------------------------------------
Pair    | 122.51     | 122.51     | 122.51     |   0.0 | 53.28
Neigh   | 101.97     | 101.97     | 101.97     |   0.0 | 44.35
Comm    | 1.7136     | 1.7136     | 1.7136     |   0.0 |  0.75
Output  | 0.88699    | 0.88699    | 0.88699    |   0.0 |  0.39
Modify  | 2.2348     | 2.2348     | 2.2348     |   0.0 |  0.97
Other   |            | 0.6272     |            |       |  0.27

Nlocal:    19652 ave 19652 max 19652 min
Histogram: 1 0 0 0 0 0 0 0 0 0
Nghost:    17333 ave 17333 max 17333 min
Histogram: 1 0 0 0 0 0 0 0 0 0
Neighs:    1.29328e+06 ave 1.29328e+06 max 1.29328e+06 min
Histogram: 1 0 0 0 0 0 0 0 0 0

Total # of neighbors = 1293276
Ave neighs/atom = 65.8089
Neighbor list builds = 1505
Dangerous builds not checked
Setting up Verlet run ...
  Unit style    : metal
  Current step  : 68000
  Time step     : 0.001
Per MPI rank memory allocation (min/avg/max) = 18.2 | 18.2 | 18.2 Mbytes
Step Temp Press TotEng PotEng Enthalpy 
   68000    1762.5249    67.151335   -78383.492   -82860.466   -78367.482 
   68495     1712.533   -210.72916    -78580.38   -82930.369   -78630.574 
Loop time of 70.9259 on 1 procs for 495 steps with 19652 atoms

Performance: 0.603 ns/day, 39.801 hours/ns, 6.979 timesteps/s
99.2% CPU use with 1 MPI tasks x no OpenMP threads

MPI task timing breakdown:
Section |  min time  |  avg time  |  max time  |%varavg| %total
---------------------------------------------------------------
Pair    | 37.441     | 37.441     | 37.441     |   0.0 | 52.79
Neigh   | 32.035     | 32.035     | 32.035     |   0.0 | 45.17
Comm    | 0.52032    | 0.52032    | 0.52032    |   0.0 |  0.73
Output  | 0.00015211 | 0.00015211 | 0.00015211 |   0.0 |  0.00
Modify  | 0.74025    | 0.74025    | 0.74025    |   0.0 |  1.04
Other   |            | 0.1892     |            |       |  0.27

Nlocal:    19652 ave 19652 max 19652 min
Histogram: 1 0 0 0 0 0 0 0 0 0
Nghost:    17281 ave 17281 max 17281 min
Histogram: 1 0 0 0 0 0 0 0 0 0
Neighs:    1.29435e+06 ave 1.29435e+06 max 1.29435e+06 min
Histogram: 1 0 0 0 0 0 0 0 0 0

Total # of neighbors = 1294346
Ave neighs/atom = 65.8633
Neighbor list builds = 495
Dangerous builds not checked
Setting up Verlet run ...
  Unit style    : metal
  Current step  : 68495
  Time step     : 0.001
Per MPI rank memory allocation (min/avg/max) = 18.2 | 18.2 | 18.2 Mbytes
Step Temp Press TotEng PotEng Enthalpy 
   68495     1712.533   -210.72916    -78580.38   -82930.369   -78630.574 
   70000    1679.4908   -2119.9657   -78687.447   -82953.506   -79193.339 
Loop time of 215.163 on 1 procs for 1505 steps with 19652 atoms

Performance: 0.604 ns/day, 39.713 hours/ns, 6.995 timesteps/s
98.7% CPU use with 1 MPI tasks x no OpenMP threads

MPI task timing breakdown:
Section |  min time  |  avg time  |  max time  |%varavg| %total
---------------------------------------------------------------
Pair    | 113.65     | 113.65     | 113.65     |   0.0 | 52.82
Neigh   | 97.078     | 97.078     | 97.078     |   0.0 | 45.12
Comm    | 1.6022     | 1.6022     | 1.6022     |   0.0 |  0.74
Output  | 0.070076   | 0.070076   | 0.070076   |   0.0 |  0.03
Modify  | 2.193      | 2.193      | 2.193      |   0.0 |  1.02
Other   |            | 0.568      |            |       |  0.26

Nlocal:    19652 ave 19652 max 19652 min
Histogram: 1 0 0 0 0 0 0 0 0 0
Nghost:    17351 ave 17351 max 17351 min
Histogram: 1 0 0 0 0 0 0 0 0 0
Neighs:    1.29165e+06 ave 1.29165e+06 max 1.29165e+06 min
Histogram: 1 0 0 0 0 0 0 0 0 0

Total # of neighbors = 1291648
Ave neighs/atom = 65.726
Neighbor list builds = 1505
Dangerous builds not checked
Setting up Verlet run ...
  Unit style    : metal
  Current step  : 70000
  Time step     : 0.001
Per MPI rank memory allocation (min/avg/max) = 18.2 | 18.2 | 18.2 Mbytes
Step Temp Press TotEng PotEng Enthalpy 
   70000    1679.4908   -2119.9657   -78687.447   -82953.506   -79193.339 
   70495    1660.9959    136.07724   -78791.677   -83010.758   -78759.299 
Loop time of 65.5948 on 1 procs for 495 steps with 19652 atoms

Performance: 0.652 ns/day, 36.810 hours/ns, 7.546 timesteps/s
96.4% CPU use with 1 MPI tasks x no OpenMP threads

MPI task timing breakdown:
Section |  min time  |  avg time  |  max time  |%varavg| %total
---------------------------------------------------------------
Pair    | 34.519     | 34.519     | 34.519     |   0.0 | 52.62
Neigh   | 29.758     | 29.758     | 29.758     |   0.0 | 45.37
Comm    | 0.49987    | 0.49987    | 0.49987    |   0.0 |  0.76
Output  | 0.00010991 | 0.00010991 | 0.00010991 |   0.0 |  0.00
Modify  | 0.6392     | 0.6392     | 0.6392     |   0.0 |  0.97
Other   |            | 0.178      |            |       |  0.27

Nlocal:    19652 ave 19652 max 19652 min
Histogram: 1 0 0 0 0 0 0 0 0 0
Nghost:    17265 ave 17265 max 17265 min
Histogram: 1 0 0 0 0 0 0 0 0 0
Neighs:    1.29571e+06 ave 1.29571e+06 max 1.29571e+06 min
Histogram: 1 0 0 0 0 0 0 0 0 0

Total # of neighbors = 1295710
Ave neighs/atom = 65.9327
Neighbor list builds = 495
Dangerous builds not checked
Setting up Verlet run ...
  Unit style    : metal
  Current step  : 70495
  Time step     : 0.001
Per MPI rank memory allocation (min/avg/max) = 18.2 | 18.2 | 18.2 Mbytes
Step Temp Press TotEng PotEng Enthalpy 
   70495    1660.9959    136.07724   -78791.677   -83010.758   -78759.299 
   72000    1649.2235   -222.70478   -78870.167   -83059.345   -78923.008 
Loop time of 229.975 on 1 procs for 1505 steps with 19652 atoms

Performance: 0.565 ns/day, 42.447 hours/ns, 6.544 timesteps/s
94.0% CPU use with 1 MPI tasks x no OpenMP threads

MPI task timing breakdown:
Section |  min time  |  avg time  |  max time  |%varavg| %total
---------------------------------------------------------------
Pair    | 115.86     | 115.86     | 115.86     |   0.0 | 50.38
Neigh   | 97.995     | 97.995     | 97.995     |   0.0 | 42.61
Comm    | 1.6195     | 1.6195     | 1.6195     |   0.0 |  0.70
Output  | 11.738     | 11.738     | 11.738     |   0.0 |  5.10
Modify  | 2.2033     | 2.2033     | 2.2033     |   0.0 |  0.96
Other   |            | 0.5642     |            |       |  0.25

Nlocal:    19652 ave 19652 max 19652 min
Histogram: 1 0 0 0 0 0 0 0 0 0
Nghost:    17380 ave 17380 max 17380 min
Histogram: 1 0 0 0 0 0 0 0 0 0
Neighs:    1.29903e+06 ave 1.29903e+06 max 1.29903e+06 min
Histogram: 1 0 0 0 0 0 0 0 0 0

Total # of neighbors = 1299027
Ave neighs/atom = 66.1015
Neighbor list builds = 1505
Dangerous builds not checked
Setting up Verlet run ...
  Unit style    : metal
  Current step  : 72000
  Time step     : 0.001
Per MPI rank memory allocation (min/avg/max) = 18.2 | 18.2 | 18.2 Mbytes
Step Temp Press TotEng PotEng Enthalpy 
   72000    1649.2235   -222.70478   -78870.167   -83059.345   -78923.008 
   72495    1621.3943   -816.24722   -79056.199   -83174.688    -79249.74 
Loop time of 71.2264 on 1 procs for 495 steps with 19652 atoms

Performance: 0.600 ns/day, 39.970 hours/ns, 6.950 timesteps/s
99.2% CPU use with 1 MPI tasks x no OpenMP threads

MPI task timing breakdown:
Section |  min time  |  avg time  |  max time  |%varavg| %total
---------------------------------------------------------------
Pair    | 37.951     | 37.951     | 37.951     |   0.0 | 53.28
Neigh   | 31.798     | 31.798     | 31.798     |   0.0 | 44.64
Comm    | 0.54976    | 0.54976    | 0.54976    |   0.0 |  0.77
Output  | 0.00013995 | 0.00013995 | 0.00013995 |   0.0 |  0.00
Modify  | 0.73742    | 0.73742    | 0.73742    |   0.0 |  1.04
Other   |            | 0.19       |            |       |  0.27

Nlocal:    19652 ave 19652 max 19652 min
Histogram: 1 0 0 0 0 0 0 0 0 0
Nghost:    17275 ave 17275 max 17275 min
Histogram: 1 0 0 0 0 0 0 0 0 0
Neighs:    1.29956e+06 ave 1.29956e+06 max 1.29956e+06 min
Histogram: 1 0 0 0 0 0 0 0 0 0

Total # of neighbors = 1299564
Ave neighs/atom = 66.1288
Neighbor list builds = 495
Dangerous builds not checked
Setting up Verlet run ...
  Unit style    : metal
  Current step  : 72495
  Time step     : 0.001
Per MPI rank memory allocation (min/avg/max) = 18.2 | 18.2 | 18.2 Mbytes
Step Temp Press TotEng PotEng Enthalpy 
   72495    1621.3943   -816.24722   -79056.199   -83174.688    -79249.74 
   74000    1606.2549    833.64716   -79032.666     -83112.7   -78835.251 
Loop time of 194.78 on 1 procs for 1505 steps with 19652 atoms

Performance: 0.668 ns/day, 35.950 hours/ns, 7.727 timesteps/s
99.0% CPU use with 1 MPI tasks x no OpenMP threads

MPI task timing breakdown:
Section |  min time  |  avg time  |  max time  |%varavg| %total
---------------------------------------------------------------
Pair    | 102.82     | 102.82     | 102.82     |   0.0 | 52.79
Neigh   | 87.854     | 87.854     | 87.854     |   0.0 | 45.10
Comm    | 1.4754     | 1.4754     | 1.4754     |   0.0 |  0.76
Output  | 0.17536    | 0.17536    | 0.17536    |   0.0 |  0.09
Modify  | 1.9262     | 1.9262     | 1.9262     |   0.0 |  0.99
Other   |            | 0.5314     |            |       |  0.27

Nlocal:    19652 ave 19652 max 19652 min
Histogram: 1 0 0 0 0 0 0 0 0 0
Nghost:    17312 ave 17312 max 17312 min
Histogram: 1 0 0 0 0 0 0 0 0 0
Neighs:    1.30198e+06 ave 1.30198e+06 max 1.30198e+06 min
Histogram: 1 0 0 0 0 0 0 0 0 0

Total # of neighbors = 1301983
Ave neighs/atom = 66.2519
Neighbor list builds = 1505
Dangerous builds not checked
Setting up Verlet run ...
  Unit style    : metal
  Current step  : 74000
  Time step     : 0.001
Per MPI rank memory allocation (min/avg/max) = 18.2 | 18.2 | 18.2 Mbytes
Step Temp Press TotEng PotEng Enthalpy 
   74000    1606.2549    833.64716   -79032.666     -83112.7   -78835.251 
   74495    1560.1692   -91.488083   -79297.351   -83260.323   -79319.016 
Loop time of 62.5438 on 1 procs for 495 steps with 19652 atoms

Performance: 0.684 ns/day, 35.098 hours/ns, 7.914 timesteps/s
98.9% CPU use with 1 MPI tasks x no OpenMP threads

MPI task timing breakdown:
Section |  min time  |  avg time  |  max time  |%varavg| %total
---------------------------------------------------------------
Pair    | 32.877     | 32.877     | 32.877     |   0.0 | 52.57
Neigh   | 28.399     | 28.399     | 28.399     |   0.0 | 45.41
Comm    | 0.46145    | 0.46145    | 0.46145    |   0.0 |  0.74
Output  | 0.00016499 | 0.00016499 | 0.00016499 |   0.0 |  0.00
Modify  | 0.63625    | 0.63625    | 0.63625    |   0.0 |  1.02
Other   |            | 0.1696     |            |       |  0.27

Nlocal:    19652 ave 19652 max 19652 min
Histogram: 1 0 0 0 0 0 0 0 0 0
Nghost:    17285 ave 17285 max 17285 min
Histogram: 1 0 0 0 0 0 0 0 0 0
Neighs:    1.30126e+06 ave 1.30126e+06 max 1.30126e+06 min
Histogram: 1 0 0 0 0 0 0 0 0 0

Total # of neighbors = 1301260
Ave neighs/atom = 66.2151
Neighbor list builds = 495
Dangerous builds not checked
Setting up Verlet run ...
  Unit style    : metal
  Current step  : 74495
  Time step     : 0.001
Per MPI rank memory allocation (min/avg/max) = 18.2 | 18.2 | 18.2 Mbytes
Step Temp Press TotEng PotEng Enthalpy 
   74495    1560.1692   -91.488083   -79297.351   -83260.323   -79319.016 
   76000    1545.8892   -1392.1819   -79340.992   -83267.691   -79671.061 
Loop time of 195.216 on 1 procs for 1505 steps with 19652 atoms

Performance: 0.666 ns/day, 36.031 hours/ns, 7.709 timesteps/s
99.5% CPU use with 1 MPI tasks x no OpenMP threads

MPI task timing breakdown:
Section |  min time  |  avg time  |  max time  |%varavg| %total
---------------------------------------------------------------
Pair    | 102.9      | 102.9      | 102.9      |   0.0 | 52.71
Neigh   | 88.24      | 88.24      | 88.24      |   0.0 | 45.20
Comm    | 1.4543     | 1.4543     | 1.4543     |   0.0 |  0.74
Output  | 0.17141    | 0.17141    | 0.17141    |   0.0 |  0.09
Modify  | 1.9222     | 1.9222     | 1.9222     |   0.0 |  0.98
Other   |            | 0.5245     |            |       |  0.27

Nlocal:    19652 ave 19652 max 19652 min
Histogram: 1 0 0 0 0 0 0 0 0 0
Nghost:    17336 ave 17336 max 17336 min
Histogram: 1 0 0 0 0 0 0 0 0 0
Neighs:    1.29968e+06 ave 1.29968e+06 max 1.29968e+06 min
Histogram: 1 0 0 0 0 0 0 0 0 0

Total # of neighbors = 1299678
Ave neighs/atom = 66.1346
Neighbor list builds = 1505
Dangerous builds not checked
Setting up Verlet run ...
  Unit style    : metal
  Current step  : 76000
  Time step     : 0.001
Per MPI rank memory allocation (min/avg/max) = 18.2 | 18.2 | 18.2 Mbytes
Step Temp Press TotEng PotEng Enthalpy 
   76000    1545.8892   -1392.1819   -79340.992   -83267.691   -79671.061 
   76495     1500.647   -1971.4665   -79560.455   -83372.235   -80027.784 
Loop time of 72.1876 on 1 procs for 495 steps with 19652 atoms

Performance: 0.592 ns/day, 40.509 hours/ns, 6.857 timesteps/s
99.0% CPU use with 1 MPI tasks x no OpenMP threads

MPI task timing breakdown:
Section |  min time  |  avg time  |  max time  |%varavg| %total
---------------------------------------------------------------
Pair    | 38.326     | 38.326     | 38.326     |   0.0 | 53.09
Neigh   | 32.376     | 32.376     | 32.376     |   0.0 | 44.85
Comm    | 0.53961    | 0.53961    | 0.53961    |   0.0 |  0.75
Output  | 0.00015521 | 0.00015521 | 0.00015521 |   0.0 |  0.00
Modify  | 0.75462    | 0.75462    | 0.75462    |   0.0 |  1.05
Other   |            | 0.1917     |            |       |  0.27

Nlocal:    19652 ave 19652 max 19652 min
Histogram: 1 0 0 0 0 0 0 0 0 0
Nghost:    17408 ave 17408 max 17408 min
Histogram: 1 0 0 0 0 0 0 0 0 0
Neighs:    1.30052e+06 ave 1.30052e+06 max 1.30052e+06 min
Histogram: 1 0 0 0 0 0 0 0 0 0

Total # of neighbors = 1300522
Ave neighs/atom = 66.1776
Neighbor list builds = 495
Dangerous builds not checked
Setting up Verlet run ...
  Unit style    : metal
  Current step  : 76495
  Time step     : 0.001
Per MPI rank memory allocation (min/avg/max) = 18.2 | 18.2 | 18.2 Mbytes
Step Temp Press TotEng PotEng Enthalpy 
   76495     1500.647   -1971.4665   -79560.455   -83372.235   -80027.784 
   78000    1507.9244    1358.7193   -79623.046   -83453.312   -79303.033 
Loop time of 188.396 on 1 procs for 1505 steps with 19652 atoms

Performance: 0.690 ns/day, 34.772 hours/ns, 7.988 timesteps/s
98.9% CPU use with 1 MPI tasks x no OpenMP threads

MPI task timing breakdown:
Section |  min time  |  avg time  |  max time  |%varavg| %total
---------------------------------------------------------------
Pair    | 99.184     | 99.184     | 99.184     |   0.0 | 52.65
Neigh   | 85.109     | 85.109     | 85.109     |   0.0 | 45.18
Comm    | 1.4278     | 1.4278     | 1.4278     |   0.0 |  0.76
Output  | 0.28776    | 0.28776    | 0.28776    |   0.0 |  0.15
Modify  | 1.87       | 1.87       | 1.87       |   0.0 |  0.99
Other   |            | 0.5176     |            |       |  0.27

Nlocal:    19652 ave 19652 max 19652 min
Histogram: 1 0 0 0 0 0 0 0 0 0
Nghost:    17324 ave 17324 max 17324 min
Histogram: 1 0 0 0 0 0 0 0 0 0
Neighs:    1.30905e+06 ave 1.30905e+06 max 1.30905e+06 min
Histogram: 1 0 0 0 0 0 0 0 0 0

Total # of neighbors = 1309050
Ave neighs/atom = 66.6115
Neighbor list builds = 1505
Dangerous builds not checked
Setting up Verlet run ...
  Unit style    : metal
  Current step  : 78000
  Time step     : 0.001
Per MPI rank memory allocation (min/avg/max) = 18.2 | 18.2 | 18.2 Mbytes
Step Temp Press TotEng PotEng Enthalpy 
   78000    1507.9244    1358.7193   -79623.046   -83453.312   -79303.033 
   78495    1466.6447    573.04287   -79771.142   -83496.553   -79636.002 
Loop time of 70.2993 on 1 procs for 495 steps with 19652 atoms

Performance: 0.608 ns/day, 39.450 hours/ns, 7.041 timesteps/s
99.3% CPU use with 1 MPI tasks x no OpenMP threads

MPI task timing breakdown:
Section |  min time  |  avg time  |  max time  |%varavg| %total
---------------------------------------------------------------
Pair    | 37.321     | 37.321     | 37.321     |   0.0 | 53.09
Neigh   | 31.523     | 31.523     | 31.523     |   0.0 | 44.84
Comm    | 0.53097    | 0.53097    | 0.53097    |   0.0 |  0.76
Output  | 0.00015402 | 0.00015402 | 0.00015402 |   0.0 |  0.00
Modify  | 0.73378    | 0.73378    | 0.73378    |   0.0 |  1.04
Other   |            | 0.1896     |            |       |  0.27

Nlocal:    19652 ave 19652 max 19652 min
Histogram: 1 0 0 0 0 0 0 0 0 0
Nghost:    17395 ave 17395 max 17395 min
Histogram: 1 0 0 0 0 0 0 0 0 0
Neighs:    1.30706e+06 ave 1.30706e+06 max 1.30706e+06 min
Histogram: 1 0 0 0 0 0 0 0 0 0

Total # of neighbors = 1307058
Ave neighs/atom = 66.5102
Neighbor list builds = 495
Dangerous builds not checked
Setting up Verlet run ...
  Unit style    : metal
  Current step  : 78495
  Time step     : 0.001
Per MPI rank memory allocation (min/avg/max) = 18.2 | 18.2 | 18.2 Mbytes
Step Temp Press TotEng PotEng Enthalpy 
   78495    1466.6447    573.04287   -79771.142   -83496.553   -79636.002 
   80000    1451.2376   -971.83026   -79828.066   -83514.342   -80057.811 
Loop time of 179.065 on 1 procs for 1505 steps with 19652 atoms

Performance: 0.726 ns/day, 33.050 hours/ns, 8.405 timesteps/s
97.9% CPU use with 1 MPI tasks x no OpenMP threads

MPI task timing breakdown:
Section |  min time  |  avg time  |  max time  |%varavg| %total
---------------------------------------------------------------
Pair    | 92.566     | 92.566     | 92.566     |   0.0 | 51.69
Neigh   | 81.4       | 81.4       | 81.4       |   0.0 | 45.46
Comm    | 1.3554     | 1.3554     | 1.3554     |   0.0 |  0.76
Output  | 1.4749     | 1.4749     | 1.4749     |   0.0 |  0.82
Modify  | 1.7711     | 1.7711     | 1.7711     |   0.0 |  0.99
Other   |            | 0.4976     |            |       |  0.28

Nlocal:    19652 ave 19652 max 19652 min
Histogram: 1 0 0 0 0 0 0 0 0 0
Nghost:    17400 ave 17400 max 17400 min
Histogram: 1 0 0 0 0 0 0 0 0 0
Neighs:    1.30378e+06 ave 1.30378e+06 max 1.30378e+06 min
Histogram: 1 0 0 0 0 0 0 0 0 0

Total # of neighbors = 1303778
Ave neighs/atom = 66.3433
Neighbor list builds = 1505
Dangerous builds not checked
Setting up Verlet run ...
  Unit style    : metal
  Current step  : 80000
  Time step     : 0.001
Per MPI rank memory allocation (min/avg/max) = 18.2 | 18.2 | 18.2 Mbytes
Step Temp Press TotEng PotEng Enthalpy 
   80000    1451.2376   -971.83026   -79828.066   -83514.342   -80057.811 
   80495      1402.03    -787.0758   -80060.839   -83622.123   -80246.545 
Loop time of 52.8471 on 1 procs for 495 steps with 19652 atoms

Performance: 0.809 ns/day, 29.656 hours/ns, 9.367 timesteps/s
100.0% CPU use with 1 MPI tasks x no OpenMP threads

MPI task timing breakdown:
Section |  min time  |  avg time  |  max time  |%varavg| %total
---------------------------------------------------------------
Pair    | 27.221     | 27.221     | 27.221     |   0.0 | 51.51
Neigh   | 24.571     | 24.571     | 24.571     |   0.0 | 46.50
Comm    | 0.39569    | 0.39569    | 0.39569    |   0.0 |  0.75
Output  | 0.00011015 | 0.00011015 | 0.00011015 |   0.0 |  0.00
Modify  | 0.50704    | 0.50704    | 0.50704    |   0.0 |  0.96
Other   |            | 0.1516     |            |       |  0.29

Nlocal:    19652 ave 19652 max 19652 min
Histogram: 1 0 0 0 0 0 0 0 0 0
Nghost:    17415 ave 17415 max 17415 min
Histogram: 1 0 0 0 0 0 0 0 0 0
Neighs:    1.3068e+06 ave 1.3068e+06 max 1.3068e+06 min
Histogram: 1 0 0 0 0 0 0 0 0 0

Total # of neighbors = 1306796
Ave neighs/atom = 66.4968
Neighbor list builds = 495
Dangerous builds not checked
Setting up Verlet run ...
  Unit style    : metal
  Current step  : 80495
  Time step     : 0.001
Per MPI rank memory allocation (min/avg/max) = 18.2 | 18.2 | 18.2 Mbytes
Step Temp Press TotEng PotEng Enthalpy 
   80495      1402.03    -787.0758   -80060.839   -83622.123   -80246.545 
   82000    1411.3836   -479.70429   -80102.405   -83687.447   -80215.387 
Loop time of 214.453 on 1 procs for 1505 steps with 19652 atoms

Performance: 0.606 ns/day, 39.582 hours/ns, 7.018 timesteps/s
98.2% CPU use with 1 MPI tasks x no OpenMP threads

MPI task timing breakdown:
Section |  min time  |  avg time  |  max time  |%varavg| %total
---------------------------------------------------------------
Pair    | 112.19     | 112.19     | 112.19     |   0.0 | 52.32
Neigh   | 97.659     | 97.659     | 97.659     |   0.0 | 45.54
Comm    | 1.5871     | 1.5871     | 1.5871     |   0.0 |  0.74
Output  | 0.2814     | 0.2814     | 0.2814     |   0.0 |  0.13
Modify  | 2.1672     | 2.1672     | 2.1672     |   0.0 |  1.01
Other   |            | 0.5665     |            |       |  0.26

Nlocal:    19652 ave 19652 max 19652 min
Histogram: 1 0 0 0 0 0 0 0 0 0
Nghost:    17358 ave 17358 max 17358 min
Histogram: 1 0 0 0 0 0 0 0 0 0
Neighs:    1.31006e+06 ave 1.31006e+06 max 1.31006e+06 min
Histogram: 1 0 0 0 0 0 0 0 0 0

Total # of neighbors = 1310056
Ave neighs/atom = 66.6627
Neighbor list builds = 1505
Dangerous builds not checked
Setting up Verlet run ...
  Unit style    : metal
  Current step  : 82000
  Time step     : 0.001
Per MPI rank memory allocation (min/avg/max) = 18.2 | 18.2 | 18.2 Mbytes
Step Temp Press TotEng PotEng Enthalpy 
   82000    1411.3836   -479.70429   -80102.405   -83687.447   -80215.387 
   82495    1355.8478   -552.10723   -80303.167   -83747.143   -80433.283 
Loop time of 74.1693 on 1 procs for 495 steps with 19652 atoms

Performance: 0.577 ns/day, 41.621 hours/ns, 6.674 timesteps/s
98.5% CPU use with 1 MPI tasks x no OpenMP threads

MPI task timing breakdown:
Section |  min time  |  avg time  |  max time  |%varavg| %total
---------------------------------------------------------------
Pair    | 38.874     | 38.874     | 38.874     |   0.0 | 52.41
Neigh   | 33.815     | 33.815     | 33.815     |   0.0 | 45.59
Comm    | 0.55089    | 0.55089    | 0.55089    |   0.0 |  0.74
Output  | 0.00015593 | 0.00015593 | 0.00015593 |   0.0 |  0.00
Modify  | 0.74175    | 0.74175    | 0.74175    |   0.0 |  1.00
Other   |            | 0.1876     |            |       |  0.25

Nlocal:    19652 ave 19652 max 19652 min
Histogram: 1 0 0 0 0 0 0 0 0 0
Nghost:    17371 ave 17371 max 17371 min
Histogram: 1 0 0 0 0 0 0 0 0 0
Neighs:    1.30808e+06 ave 1.30808e+06 max 1.30808e+06 min
Histogram: 1 0 0 0 0 0 0 0 0 0

Total # of neighbors = 1308084
Ave neighs/atom = 66.5624
Neighbor list builds = 495
Dangerous builds not checked
Setting up Verlet run ...
  Unit style    : metal
  Current step  : 82495
  Time step     : 0.001
Per MPI rank memory allocation (min/avg/max) = 18.2 | 18.2 | 18.2 Mbytes
Step Temp Press TotEng PotEng Enthalpy 
   82495    1355.8478   -552.10723   -80303.167   -83747.143   -80433.283 
   84000    1340.7759    669.52206    -80372.68   -83778.373   -80215.327 
Loop time of 222.28 on 1 procs for 1505 steps with 19652 atoms

Performance: 0.585 ns/day, 41.026 hours/ns, 6.771 timesteps/s
98.9% CPU use with 1 MPI tasks x no OpenMP threads

MPI task timing breakdown:
Section |  min time  |  avg time  |  max time  |%varavg| %total
---------------------------------------------------------------
Pair    | 115.03     | 115.03     | 115.03     |   0.0 | 51.75
Neigh   | 102.74     | 102.74     | 102.74     |   0.0 | 46.22
Comm    | 1.5826     | 1.5826     | 1.5826     |   0.0 |  0.71
Output  | 0.165      | 0.165      | 0.165      |   0.0 |  0.07
Modify  | 2.1695     | 2.1695     | 2.1695     |   0.0 |  0.98
Other   |            | 0.5873     |            |       |  0.26

Nlocal:    19652 ave 19652 max 19652 min
Histogram: 1 0 0 0 0 0 0 0 0 0
Nghost:    17394 ave 17394 max 17394 min
Histogram: 1 0 0 0 0 0 0 0 0 0
Neighs:    1.31215e+06 ave 1.31215e+06 max 1.31215e+06 min
Histogram: 1 0 0 0 0 0 0 0 0 0

Total # of neighbors = 1312147
Ave neighs/atom = 66.7691
Neighbor list builds = 1505
Dangerous builds not checked
Setting up Verlet run ...
  Unit style    : metal
  Current step  : 84000
  Time step     : 0.001
Per MPI rank memory allocation (min/avg/max) = 18.2 | 18.2 | 18.2 Mbytes
Step Temp Press TotEng PotEng Enthalpy 
   84000    1340.7759    669.52206    -80372.68   -83778.373   -80215.327 
   84495     1313.805    1177.0376   -80564.596    -83901.78   -80288.844 
Loop time of 57.4333 on 1 procs for 495 steps with 19652 atoms

Performance: 0.745 ns/day, 32.230 hours/ns, 8.619 timesteps/s
100.0% CPU use with 1 MPI tasks x no OpenMP threads

MPI task timing breakdown:
Section |  min time  |  avg time  |  max time  |%varavg| %total
---------------------------------------------------------------
Pair    | 29.173     | 29.173     | 29.173     |   0.0 | 50.80
Neigh   | 27.119     | 27.119     | 27.119     |   0.0 | 47.22
Comm    | 0.43468    | 0.43468    | 0.43468    |   0.0 |  0.76
Output  | 0.00013614 | 0.00013614 | 0.00013614 |   0.0 |  0.00
Modify  | 0.54443    | 0.54443    | 0.54443    |   0.0 |  0.95
Other   |            | 0.1617     |            |       |  0.28

Nlocal:    19652 ave 19652 max 19652 min
Histogram: 1 0 0 0 0 0 0 0 0 0
Nghost:    17486 ave 17486 max 17486 min
Histogram: 1 0 0 0 0 0 0 0 0 0
Neighs:    1.3158e+06 ave 1.3158e+06 max 1.3158e+06 min
Histogram: 1 0 0 0 0 0 0 0 0 0

Total # of neighbors = 1315804
Ave neighs/atom = 66.9552
Neighbor list builds = 495
Dangerous builds not checked
Setting up Verlet run ...
  Unit style    : metal
  Current step  : 84495
  Time step     : 0.001
Per MPI rank memory allocation (min/avg/max) = 18.2 | 18.2 | 18.2 Mbytes
Step Temp Press TotEng PotEng Enthalpy 
   84495     1313.805    1177.0376   -80564.596    -83901.78   -80288.844 
   86000    1304.3656     573.0514   -80619.774   -83932.981   -80485.186 
Loop time of 211.28 on 1 procs for 1505 steps with 19652 atoms

Performance: 0.615 ns/day, 38.996 hours/ns, 7.123 timesteps/s
95.4% CPU use with 1 MPI tasks x no OpenMP threads

MPI task timing breakdown:
Section |  min time  |  avg time  |  max time  |%varavg| %total
---------------------------------------------------------------
Pair    | 107.47     | 107.47     | 107.47     |   0.0 | 50.87
Neigh   | 99.498     | 99.498     | 99.498     |   0.0 | 47.09
Comm    | 1.5157     | 1.5157     | 1.5157     |   0.0 |  0.72
Output  | 0.19814    | 0.19814    | 0.19814    |   0.0 |  0.09
Modify  | 2.0539     | 2.0539     | 2.0539     |   0.0 |  0.97
Other   |            | 0.5398     |            |       |  0.26

Nlocal:    19652 ave 19652 max 19652 min
Histogram: 1 0 0 0 0 0 0 0 0 0
Nghost:    17307 ave 17307 max 17307 min
Histogram: 1 0 0 0 0 0 0 0 0 0
Neighs:    1.31321e+06 ave 1.31321e+06 max 1.31321e+06 min
Histogram: 1 0 0 0 0 0 0 0 0 0

Total # of neighbors = 1313208
Ave neighs/atom = 66.8231
Neighbor list builds = 1505
Dangerous builds not checked
Setting up Verlet run ...
  Unit style    : metal
  Current step  : 86000
  Time step     : 0.001
Per MPI rank memory allocation (min/avg/max) = 18.2 | 18.2 | 18.2 Mbytes
Step Temp Press TotEng PotEng Enthalpy 
   86000    1304.3656     573.0514   -80619.774   -83932.981   -80485.186 
   86495    1266.7084   -516.88102   -80830.518   -84048.073   -80951.711 
Loop time of 74.2287 on 1 procs for 495 steps with 19652 atoms

Performance: 0.576 ns/day, 41.655 hours/ns, 6.669 timesteps/s
98.0% CPU use with 1 MPI tasks x no OpenMP threads

MPI task timing breakdown:
Section |  min time  |  avg time  |  max time  |%varavg| %total
---------------------------------------------------------------
Pair    | 37.996     | 37.996     | 37.996     |   0.0 | 51.19
Neigh   | 34.77      | 34.77      | 34.77      |   0.0 | 46.84
Comm    | 0.5335     | 0.5335     | 0.5335     |   0.0 |  0.72
Output  | 0.00012493 | 0.00012493 | 0.00012493 |   0.0 |  0.00
Modify  | 0.73747    | 0.73747    | 0.73747    |   0.0 |  0.99
Other   |            | 0.1916     |            |       |  0.26

Nlocal:    19652 ave 19652 max 19652 min
Histogram: 1 0 0 0 0 0 0 0 0 0
Nghost:    17472 ave 17472 max 17472 min
Histogram: 1 0 0 0 0 0 0 0 0 0
Neighs:    1.31493e+06 ave 1.31493e+06 max 1.31493e+06 min
Histogram: 1 0 0 0 0 0 0 0 0 0

Total # of neighbors = 1314927
Ave neighs/atom = 66.9106
Neighbor list builds = 495
Dangerous builds not checked
Setting up Verlet run ...
  Unit style    : metal
  Current step  : 86495
  Time step     : 0.001
Per MPI rank memory allocation (min/avg/max) = 18.2 | 18.2 | 18.2 Mbytes
Step Temp Press TotEng PotEng Enthalpy 
   86495    1266.7084   -516.88102   -80830.518   -84048.073   -80951.711 
   88000    1248.5781    63.626157   -80904.314   -84075.816   -80889.403 
Loop time of 234.48 on 1 procs for 1505 steps with 19652 atoms

Performance: 0.555 ns/day, 43.278 hours/ns, 6.418 timesteps/s
94.9% CPU use with 1 MPI tasks x no OpenMP threads

MPI task timing breakdown:
Section |  min time  |  avg time  |  max time  |%varavg| %total
---------------------------------------------------------------
Pair    | 119.57     | 119.57     | 119.57     |   0.0 | 51.00
Neigh   | 110.18     | 110.18     | 110.18     |   0.0 | 46.99
Comm    | 1.6795     | 1.6795     | 1.6795     |   0.0 |  0.72
Output  | 0.083313   | 0.083313   | 0.083313   |   0.0 |  0.04
Modify  | 2.3604     | 2.3604     | 2.3604     |   0.0 |  1.01
Other   |            | 0.6027     |            |       |  0.26

Nlocal:    19652 ave 19652 max 19652 min
Histogram: 1 0 0 0 0 0 0 0 0 0
Nghost:    17469 ave 17469 max 17469 min
Histogram: 1 0 0 0 0 0 0 0 0 0
Neighs:    1.31508e+06 ave 1.31508e+06 max 1.31508e+06 min
Histogram: 1 0 0 0 0 0 0 0 0 0

Total # of neighbors = 1315076
Ave neighs/atom = 66.9182
Neighbor list builds = 1505
Dangerous builds not checked
Setting up Verlet run ...
  Unit style    : metal
  Current step  : 88000
  Time step     : 0.001
Per MPI rank memory allocation (min/avg/max) = 18.2 | 18.2 | 18.2 Mbytes
Step Temp Press TotEng PotEng Enthalpy 
   88000    1248.5781    63.626157   -80904.314   -84075.816   -80889.403 
   88495    1215.0537   -577.95097   -81114.864   -84201.211   -81250.284 
Loop time of 82.1763 on 1 procs for 495 steps with 19652 atoms

Performance: 0.520 ns/day, 46.115 hours/ns, 6.024 timesteps/s
96.3% CPU use with 1 MPI tasks x no OpenMP threads

MPI task timing breakdown:
Section |  min time  |  avg time  |  max time  |%varavg| %total
---------------------------------------------------------------
Pair    | 42.983     | 42.983     | 42.983     |   0.0 | 52.31
Neigh   | 37.573     | 37.573     | 37.573     |   0.0 | 45.72
Comm    | 0.59931    | 0.59931    | 0.59931    |   0.0 |  0.73
Output  | 0.00015998 | 0.00015998 | 0.00015998 |   0.0 |  0.00
Modify  | 0.81792    | 0.81792    | 0.81792    |   0.0 |  1.00
Other   |            | 0.2036     |            |       |  0.25

Nlocal:    19652 ave 19652 max 19652 min
Histogram: 1 0 0 0 0 0 0 0 0 0
Nghost:    17413 ave 17413 max 17413 min
Histogram: 1 0 0 0 0 0 0 0 0 0
Neighs:    1.31611e+06 ave 1.31611e+06 max 1.31611e+06 min
Histogram: 1 0 0 0 0 0 0 0 0 0

Total # of neighbors = 1316111
Ave neighs/atom = 66.9708
Neighbor list builds = 495
Dangerous builds not checked
Setting up Verlet run ...
  Unit style    : metal
  Current step  : 88495
  Time step     : 0.001
Per MPI rank memory allocation (min/avg/max) = 18.2 | 18.2 | 18.2 Mbytes
Step Temp Press TotEng PotEng Enthalpy 
   88495    1215.0537   -577.95097   -81114.864   -84201.211   -81250.284 
   90000    1188.6043    93.462559   -81218.161   -84237.324    -81196.31 
Loop time of 224.712 on 1 procs for 1505 steps with 19652 atoms

Performance: 0.579 ns/day, 41.475 hours/ns, 6.697 timesteps/s
97.6% CPU use with 1 MPI tasks x no OpenMP threads

MPI task timing breakdown:
Section |  min time  |  avg time  |  max time  |%varavg| %total
---------------------------------------------------------------
Pair    | 115.12     | 115.12     | 115.12     |   0.0 | 51.23
Neigh   | 105.15     | 105.15     | 105.15     |   0.0 | 46.79
Comm    | 1.6324     | 1.6324     | 1.6324     |   0.0 |  0.73
Output  | 0.064949   | 0.064949   | 0.064949   |   0.0 |  0.03
Modify  | 2.1781     | 2.1781     | 2.1781     |   0.0 |  0.97
Other   |            | 0.569      |            |       |  0.25

Nlocal:    19652 ave 19652 max 19652 min
Histogram: 1 0 0 0 0 0 0 0 0 0
Nghost:    17472 ave 17472 max 17472 min
Histogram: 1 0 0 0 0 0 0 0 0 0
Neighs:    1.31932e+06 ave 1.31932e+06 max 1.31932e+06 min
Histogram: 1 0 0 0 0 0 0 0 0 0

Total # of neighbors = 1319321
Ave neighs/atom = 67.1342
Neighbor list builds = 1505
Dangerous builds not checked
Setting up Verlet run ...
  Unit style    : metal
  Current step  : 90000
  Time step     : 0.001
Per MPI rank memory allocation (min/avg/max) = 18.2 | 18.2 | 18.2 Mbytes
Step Temp Press TotEng PotEng Enthalpy 
   90000    1188.6043    93.462559   -81218.161   -84237.324    -81196.31 
   90495    1166.0939    1875.0067   -81379.313   -84341.298   -80941.957 
Loop time of 52.774 on 1 procs for 495 steps with 19652 atoms

Performance: 0.810 ns/day, 29.615 hours/ns, 9.380 timesteps/s
100.0% CPU use with 1 MPI tasks x no OpenMP threads

MPI task timing breakdown:
Section |  min time  |  avg time  |  max time  |%varavg| %total
---------------------------------------------------------------
Pair    | 26.579     | 26.579     | 26.579     |   0.0 | 50.36
Neigh   | 25.16      | 25.16      | 25.16      |   0.0 | 47.68
Comm    | 0.39154    | 0.39154    | 0.39154    |   0.0 |  0.74
Output  | 0.00012612 | 0.00012612 | 0.00012612 |   0.0 |  0.00
Modify  | 0.49421    | 0.49421    | 0.49421    |   0.0 |  0.94
Other   |            | 0.1493     |            |       |  0.28

Nlocal:    19652 ave 19652 max 19652 min
Histogram: 1 0 0 0 0 0 0 0 0 0
Nghost:    17442 ave 17442 max 17442 min
Histogram: 1 0 0 0 0 0 0 0 0 0
[...]
Dangerous builds not checked
Setting up Verlet run ...
  Unit style    : metal
  Current step  : 120000
  Time step     : 0.001
Per MPI rank memory allocation (min/avg/max) = 18.2 | 18.2 | 18.2 Mbytes
Step Temp Press TotEng PotEng Enthalpy 
  120000    448.26585    252.14912   -86549.462   -87688.098   -86491.349 
  120495    423.58091   -224.95321   -86715.353   -87791.287   -86767.174 
Loop time of 64.2806 on 1 procs for 495 steps with 19652 atoms

Performance: 0.665 ns/day, 36.072 hours/ns, 7.701 timesteps/s
100.0% CPU use with 1 MPI tasks x no OpenMP threads

MPI task timing breakdown:
Section |  min time  |  avg time  |  max time  |%varavg| %total
---------------------------------------------------------------
Pair    | 32.759     | 32.759     | 32.759     |   0.0 | 50.96
Neigh   | 30.205     | 30.205     | 30.205     |   0.0 | 46.99
Comm    | 0.47781    | 0.47781    | 0.47781    |   0.0 |  0.74
Output  | 0.000144   | 0.000144   | 0.000144   |   0.0 |  0.00
Modify  | 0.64928    | 0.64928    | 0.64928    |   0.0 |  1.01
Other   |            | 0.1892     |            |       |  0.29

Nlocal:    19652 ave 19652 max 19652 min
Histogram: 1 0 0 0 0 0 0 0 0 0
Nghost:    17559 ave 17559 max 17559 min
Histogram: 1 0 0 0 0 0 0 0 0 0
Neighs:    1.33966e+06 ave 1.33966e+06 max 1.33966e+06 min
Histogram: 1 0 0 0 0 0 0 0 0 0

Total # of neighbors = 1339664
Ave neighs/atom = 68.1693
Neighbor list builds = 495
Dangerous builds not checked
Setting up Verlet run ...
  Unit style    : metal
  Current step  : 120495
  Time step     : 0.001
Per MPI rank memory allocation (min/avg/max) = 18.2 | 18.2 | 18.2 Mbytes
Step Temp Press TotEng PotEng Enthalpy 
  120495    423.58091   -224.95321   -86715.353   -87791.287   -86767.174 
  122000    402.82502   -706.06483   -86911.162   -87934.374   -87073.827 
Loop time of 206.361 on 1 procs for 1505 steps with 19652 atoms

Performance: 0.630 ns/day, 38.088 hours/ns, 7.293 timesteps/s
99.7% CPU use with 1 MPI tasks x no OpenMP threads

MPI task timing breakdown:
Section |  min time  |  avg time  |  max time  |%varavg| %total
---------------------------------------------------------------
Pair    | 105.64     | 105.64     | 105.64     |   0.0 | 51.19
Neigh   | 96.346     | 96.346     | 96.346     |   0.0 | 46.69
Comm    | 1.556      | 1.556      | 1.556      |   0.0 |  0.75
Output  | 0.085835   | 0.085835   | 0.085835   |   0.0 |  0.04
Modify  | 2.1276     | 2.1276     | 2.1276     |   0.0 |  1.03
Other   |            | 0.6023     |            |       |  0.29

Nlocal:    19652 ave 19652 max 19652 min
Histogram: 1 0 0 0 0 0 0 0 0 0
Nghost:    17560 ave 17560 max 17560 min
Histogram: 1 0 0 0 0 0 0 0 0 0
Neighs:    1.33911e+06 ave 1.33911e+06 max 1.33911e+06 min
Histogram: 1 0 0 0 0 0 0 0 0 0

Total # of neighbors = 1339109
Ave neighs/atom = 68.1411
Neighbor list builds = 1505
Dangerous builds not checked
Setting up Verlet run ...
  Unit style    : metal
  Current step  : 122000
  Time step     : 0.001
Per MPI rank memory allocation (min/avg/max) = 18.2 | 18.2 | 18.2 Mbytes
Step Temp Press TotEng PotEng Enthalpy 
  122000    402.82502   -706.06483   -86911.162   -87934.374   -87073.827 
  122495    375.03972    824.30322   -87068.393   -88021.028   -86878.973 
Loop time of 66.7535 on 1 procs for 495 steps with 19652 atoms

Performance: 0.641 ns/day, 37.460 hours/ns, 7.415 timesteps/s
100.0% CPU use with 1 MPI tasks x no OpenMP threads

MPI task timing breakdown:
Section |  min time  |  avg time  |  max time  |%varavg| %total
---------------------------------------------------------------
Pair    | 34.136     | 34.136     | 34.136     |   0.0 | 51.14
Neigh   | 31.239     | 31.239     | 31.239     |   0.0 | 46.80
Comm    | 0.49577    | 0.49577    | 0.49577    |   0.0 |  0.74
Output  | 0.00015903 | 0.00015903 | 0.00015903 |   0.0 |  0.00
Modify  | 0.68529    | 0.68529    | 0.68529    |   0.0 |  1.03
Other   |            | 0.1973     |            |       |  0.30

Nlocal:    19652 ave 19652 max 19652 min
Histogram: 1 0 0 0 0 0 0 0 0 0
Nghost:    17586 ave 17586 max 17586 min
Histogram: 1 0 0 0 0 0 0 0 0 0
Neighs:    1.34226e+06 ave 1.34226e+06 max 1.34226e+06 min
Histogram: 1 0 0 0 0 0 0 0 0 0

Total # of neighbors = 1342265
Ave neighs/atom = 68.3017
Neighbor list builds = 495
Dangerous builds not checked
Setting up Verlet run ...
  Unit style    : metal
  Current step  : 122495
  Time step     : 0.001
Per MPI rank memory allocation (min/avg/max) = 18.2 | 18.2 | 18.2 Mbytes
Step Temp Press TotEng PotEng Enthalpy 
  122495    375.03972    824.30322   -87068.393   -88021.028   -86878.973 
  124000    350.25375   -204.62493   -87243.974    -88133.65   -87291.022 
Loop time of 209.033 on 1 procs for 1505 steps with 19652 atoms

Performance: 0.622 ns/day, 38.581 hours/ns, 7.200 timesteps/s
98.8% CPU use with 1 MPI tasks x no OpenMP threads

MPI task timing breakdown:
Section |  min time  |  avg time  |  max time  |%varavg| %total
---------------------------------------------------------------
Pair    | 106.83     | 106.83     | 106.83     |   0.0 | 51.11
Neigh   | 97.759     | 97.759     | 97.759     |   0.0 | 46.77
Comm    | 1.5574     | 1.5574     | 1.5574     |   0.0 |  0.75
Output  | 0.088148   | 0.088148   | 0.088148   |   0.0 |  0.04
Modify  | 2.1776     | 2.1776     | 2.1776     |   0.0 |  1.04
Other   |            | 0.621      |            |       |  0.30

Nlocal:    19652 ave 19652 max 19652 min
Histogram: 1 0 0 0 0 0 0 0 0 0
Nghost:    17547 ave 17547 max 17547 min
Histogram: 1 0 0 0 0 0 0 0 0 0
Neighs:    1.34151e+06 ave 1.34151e+06 max 1.34151e+06 min
Histogram: 1 0 0 0 0 0 0 0 0 0

Total # of neighbors = 1341507
Ave neighs/atom = 68.2631
Neighbor list builds = 1505
Dangerous builds not checked
Setting up Verlet run ...
  Unit style    : metal
  Current step  : 124000
  Time step     : 0.001
Per MPI rank memory allocation (min/avg/max) = 18.2 | 18.2 | 18.2 Mbytes
Step Temp Press TotEng PotEng Enthalpy 
  124000    350.25375   -204.62493   -87243.974    -88133.65   -87291.022 
  124495    323.79723    55.540005   -87394.654   -88217.129   -87381.898 
Loop time of 69.7345 on 1 procs for 495 steps with 19652 atoms

Performance: 0.613 ns/day, 39.133 hours/ns, 7.098 timesteps/s
93.3% CPU use with 1 MPI tasks x no OpenMP threads

MPI task timing breakdown:
Section |  min time  |  avg time  |  max time  |%varavg| %total
---------------------------------------------------------------
Pair    | 35.674     | 35.674     | 35.674     |   0.0 | 51.16
Neigh   | 32.623     | 32.623     | 32.623     |   0.0 | 46.78
Comm    | 0.52112    | 0.52112    | 0.52112    |   0.0 |  0.75
Output  | 0.00015497 | 0.00015497 | 0.00015497 |   0.0 |  0.00
Modify  | 0.72148    | 0.72148    | 0.72148    |   0.0 |  1.03
Other   |            | 0.1955     |            |       |  0.28

Nlocal:    19652 ave 19652 max 19652 min
Histogram: 1 0 0 0 0 0 0 0 0 0
Nghost:    17606 ave 17606 max 17606 min
Histogram: 1 0 0 0 0 0 0 0 0 0
Neighs:    1.34277e+06 ave 1.34277e+06 max 1.34277e+06 min
Histogram: 1 0 0 0 0 0 0 0 0 0

Total # of neighbors = 1342771
Ave neighs/atom = 68.3274
Neighbor list builds = 495
Dangerous builds not checked
Setting up Verlet run ...
  Unit style    : metal
  Current step  : 124495
  Time step     : 0.001
Per MPI rank memory allocation (min/avg/max) = 18.2 | 18.2 | 18.2 Mbytes
Step Temp Press TotEng PotEng Enthalpy 
  124495    323.79723    55.540005   -87394.654   -88217.129   -87381.898 
  126000    302.15635   -695.58253   -87553.329   -88320.834   -87713.162 
Loop time of 233.743 on 1 procs for 1505 steps with 19652 atoms

Performance: 0.556 ns/day, 43.142 hours/ns, 6.439 timesteps/s
94.9% CPU use with 1 MPI tasks x no OpenMP threads

MPI task timing breakdown:
Section |  min time  |  avg time  |  max time  |%varavg| %total
---------------------------------------------------------------
Pair    | 119.62     | 119.62     | 119.62     |   0.0 | 51.18
Neigh   | 107.58     | 107.58     | 107.58     |   0.0 | 46.03
Comm    | 1.7138     | 1.7138     | 1.7138     |   0.0 |  0.73
Output  | 1.693      | 1.693      | 1.693      |   0.0 |  0.72
Modify  | 2.4272     | 2.4272     | 2.4272     |   0.0 |  1.04
Other   |            | 0.7013     |            |       |  0.30

Nlocal:    19652 ave 19652 max 19652 min
Histogram: 1 0 0 0 0 0 0 0 0 0
Nghost:    17621 ave 17621 max 17621 min
Histogram: 1 0 0 0 0 0 0 0 0 0
Neighs:    1.34256e+06 ave 1.34256e+06 max 1.34256e+06 min
Histogram: 1 0 0 0 0 0 0 0 0 0

Total # of neighbors = 1342556
Ave neighs/atom = 68.3165
Neighbor list builds = 1505
Dangerous builds not checked
Setting up Verlet run ...
  Unit style    : metal
  Current step  : 126000
  Time step     : 0.001
Per MPI rank memory allocation (min/avg/max) = 18.2 | 18.2 | 18.2 Mbytes
Step Temp Press TotEng PotEng Enthalpy 
  126000    302.15635   -695.58253   -87553.329   -88320.834   -87713.162 
  126495    275.82982   -404.41367   -87703.938   -88404.571   -87796.745 
Loop time of 71.5355 on 1 procs for 495 steps with 19652 atoms

Performance: 0.598 ns/day, 40.143 hours/ns, 6.920 timesteps/s
98.6% CPU use with 1 MPI tasks x no OpenMP threads

MPI task timing breakdown:
Section |  min time  |  avg time  |  max time  |%varavg| %total
---------------------------------------------------------------
Pair    | 36.692     | 36.692     | 36.692     |   0.0 | 51.29
Neigh   | 33.352     | 33.352     | 33.352     |   0.0 | 46.62
Comm    | 0.53105    | 0.53105    | 0.53105    |   0.0 |  0.74
Output  | 0.00015306 | 0.00015306 | 0.00015306 |   0.0 |  0.00
Modify  | 0.73889    | 0.73889    | 0.73889    |   0.0 |  1.03
Other   |            | 0.2213     |            |       |  0.31

Nlocal:    19652 ave 19652 max 19652 min
Histogram: 1 0 0 0 0 0 0 0 0 0
Nghost:    17624 ave 17624 max 17624 min
Histogram: 1 0 0 0 0 0 0 0 0 0
Neighs:    1.34376e+06 ave 1.34376e+06 max 1.34376e+06 min
Histogram: 1 0 0 0 0 0 0 0 0 0

Total # of neighbors = 1343763
Ave neighs/atom = 68.3779
Neighbor list builds = 495
Dangerous builds not checked
Setting up Verlet run ...
  Unit style    : metal
  Current step  : 126495
  Time step     : 0.001
Per MPI rank memory allocation (min/avg/max) = 18.2 | 18.2 | 18.2 Mbytes
Step Temp Press TotEng PotEng Enthalpy 
  126495    275.82982   -404.41367   -87703.938   -88404.571   -87796.745 
  128000    250.55921    484.53808   -87862.248   -88498.692   -87751.236 
Loop time of 232.181 on 1 procs for 1505 steps with 19652 atoms

Performance: 0.560 ns/day, 42.854 hours/ns, 6.482 timesteps/s
93.8% CPU use with 1 MPI tasks x no OpenMP threads

MPI task timing breakdown:
Section |  min time  |  avg time  |  max time  |%varavg| %total
---------------------------------------------------------------
Pair    | 119.44     | 119.44     | 119.44     |   0.0 | 51.44
Neigh   | 107.51     | 107.51     | 107.51     |   0.0 | 46.30
Comm    | 1.7339     | 1.7339     | 1.7339     |   0.0 |  0.75
Output  | 0.4655     | 0.4655     | 0.4655     |   0.0 |  0.20
Modify  | 2.3684     | 2.3684     | 2.3684     |   0.0 |  1.02
Other   |            | 0.6659     |            |       |  0.29

Nlocal:    19652 ave 19652 max 19652 min
Histogram: 1 0 0 0 0 0 0 0 0 0
Nghost:    17625 ave 17625 max 17625 min
Histogram: 1 0 0 0 0 0 0 0 0 0
Neighs:    1.34541e+06 ave 1.34541e+06 max 1.34541e+06 min
Histogram: 1 0 0 0 0 0 0 0 0 0

Total # of neighbors = 1345412
Ave neighs/atom = 68.4618
Neighbor list builds = 1505
Dangerous builds not checked
Setting up Verlet run ...
  Unit style    : metal
  Current step  : 128000
  Time step     : 0.001
Per MPI rank memory allocation (min/avg/max) = 18.2 | 18.2 | 18.2 Mbytes
Step Temp Press TotEng PotEng Enthalpy 
  128000    250.55921    484.53808   -87862.248   -88498.692   -87751.236 
  128495    224.57751    110.84945   -87996.454   -88566.901   -87971.069 
Loop time of 71.1939 on 1 procs for 495 steps with 19652 atoms

Performance: 0.601 ns/day, 39.952 hours/ns, 6.953 timesteps/s
99.6% CPU use with 1 MPI tasks x no OpenMP threads

MPI task timing breakdown:
Section |  min time  |  avg time  |  max time  |%varavg| %total
---------------------------------------------------------------
Pair    | 36.578     | 36.578     | 36.578     |   0.0 | 51.38
Neigh   | 33.118     | 33.118     | 33.118     |   0.0 | 46.52
Comm    | 0.54104    | 0.54104    | 0.54104    |   0.0 |  0.76
Output  | 0.00014019 | 0.00014019 | 0.00014019 |   0.0 |  0.00
Modify  | 0.74371    | 0.74371    | 0.74371    |   0.0 |  1.04
Other   |            | 0.2134     |            |       |  0.30

Nlocal:    19652 ave 19652 max 19652 min
Histogram: 1 0 0 0 0 0 0 0 0 0
Nghost:    17627 ave 17627 max 17627 min
Histogram: 1 0 0 0 0 0 0 0 0 0
Neighs:    1.34626e+06 ave 1.34626e+06 max 1.34626e+06 min
Histogram: 1 0 0 0 0 0 0 0 0 0

Total # of neighbors = 1346262
Ave neighs/atom = 68.5051
Neighbor list builds = 495
Dangerous builds not checked
Setting up Verlet run ...
  Unit style    : metal
  Current step  : 128495
  Time step     : 0.001
Per MPI rank memory allocation (min/avg/max) = 18.2 | 18.2 | 18.2 Mbytes
Step Temp Press TotEng PotEng Enthalpy 
  128495    224.57751    110.84945   -87996.454   -88566.901   -87971.069 
  130000     199.2981   -30.498924    -88142.04   -88648.275   -88149.024 
Loop time of 223.794 on 1 procs for 1505 steps with 19652 atoms

Performance: 0.581 ns/day, 41.306 hours/ns, 6.725 timesteps/s
97.5% CPU use with 1 MPI tasks x no OpenMP threads

MPI task timing breakdown:
Section |  min time  |  avg time  |  max time  |%varavg| %total
---------------------------------------------------------------
Pair    | 114.77     | 114.77     | 114.77     |   0.0 | 51.28
Neigh   | 103.45     | 103.45     | 103.45     |   0.0 | 46.22
Comm    | 1.6901     | 1.6901     | 1.6901     |   0.0 |  0.76
Output  | 0.92171    | 0.92171    | 0.92171    |   0.0 |  0.41
Modify  | 2.3195     | 2.3195     | 2.3195     |   0.0 |  1.04
Other   |            | 0.6467     |            |       |  0.29

Nlocal:    19652 ave 19652 max 19652 min
Histogram: 1 0 0 0 0 0 0 0 0 0
Nghost:    17641 ave 17641 max 17641 min
Histogram: 1 0 0 0 0 0 0 0 0 0
Neighs:    1.34651e+06 ave 1.34651e+06 max 1.34651e+06 min
Histogram: 1 0 0 0 0 0 0 0 0 0

Total # of neighbors = 1346508
Ave neighs/atom = 68.5176
Neighbor list builds = 1505
Dangerous builds not checked
Setting up Verlet run ...
  Unit style    : metal
  Current step  : 130000
  Time step     : 0.001
Per MPI rank memory allocation (min/avg/max) = 18.2 | 18.2 | 18.2 Mbytes
Step Temp Press TotEng PotEng Enthalpy 
  130000     199.2981   -30.498924    -88142.04   -88648.275   -88149.024 
  130495    176.98915    195.24341    -88271.38   -88720.948   -88226.718 
Loop time of 71.0095 on 1 procs for 495 steps with 19652 atoms

Performance: 0.602 ns/day, 39.848 hours/ns, 6.971 timesteps/s
97.5% CPU use with 1 MPI tasks x no OpenMP threads

MPI task timing breakdown:
Section |  min time  |  avg time  |  max time  |%varavg| %total
---------------------------------------------------------------
Pair    | 36.548     | 36.548     | 36.548     |   0.0 | 51.47
Neigh   | 32.994     | 32.994     | 32.994     |   0.0 | 46.46
Comm    | 0.52854    | 0.52854    | 0.52854    |   0.0 |  0.74
Output  | 0.00015497 | 0.00015497 | 0.00015497 |   0.0 |  0.00
Modify  | 0.72404    | 0.72404    | 0.72404    |   0.0 |  1.02
Other   |            | 0.2148     |            |       |  0.30

Nlocal:    19652 ave 19652 max 19652 min
Histogram: 1 0 0 0 0 0 0 0 0 0
Nghost:    17623 ave 17623 max 17623 min
Histogram: 1 0 0 0 0 0 0 0 0 0
Neighs:    1.34769e+06 ave 1.34769e+06 max 1.34769e+06 min
Histogram: 1 0 0 0 0 0 0 0 0 0

Total # of neighbors = 1347693
Ave neighs/atom = 68.5779
Neighbor list builds = 495
Dangerous builds not checked
Setting up Verlet run ...
  Unit style    : metal
  Current step  : 130495
  Time step     : 0.001
Per MPI rank memory allocation (min/avg/max) = 18.2 | 18.2 | 18.2 Mbytes
Step Temp Press TotEng PotEng Enthalpy 
  130495    176.98915    195.24341    -88271.38   -88720.948   -88226.718 
  132000    150.14388    507.60087   -88418.579   -88799.958   -88302.566 
Loop time of 222.784 on 1 procs for 1505 steps with 19652 atoms

Performance: 0.584 ns/day, 41.119 hours/ns, 6.755 timesteps/s
96.4% CPU use with 1 MPI tasks x no OpenMP threads

MPI task timing breakdown:
Section |  min time  |  avg time  |  max time  |%varavg| %total
---------------------------------------------------------------
Pair    | 114.78     | 114.78     | 114.78     |   0.0 | 51.52
Neigh   | 103.18     | 103.18     | 103.18     |   0.0 | 46.31
Comm    | 1.678      | 1.678      | 1.678      |   0.0 |  0.75
Output  | 0.144      | 0.144      | 0.144      |   0.0 |  0.06
Modify  | 2.3369     | 2.3369     | 2.3369     |   0.0 |  1.05
Other   |            | 0.6615     |            |       |  0.30

Nlocal:    19652 ave 19652 max 19652 min
Histogram: 1 0 0 0 0 0 0 0 0 0
Nghost:    17654 ave 17654 max 17654 min
Histogram: 1 0 0 0 0 0 0 0 0 0
Neighs:    1.34877e+06 ave 1.34877e+06 max 1.34877e+06 min
Histogram: 1 0 0 0 0 0 0 0 0 0

Total # of neighbors = 1348773
Ave neighs/atom = 68.6329
Neighbor list builds = 1505
Dangerous builds not checked
Setting up Verlet run ...
  Unit style    : metal
  Current step  : 132000
  Time step     : 0.001
Per MPI rank memory allocation (min/avg/max) = 18.2 | 18.2 | 18.2 Mbytes
Step Temp Press TotEng PotEng Enthalpy 
  132000    150.14388    507.60087   -88418.579   -88799.958   -88302.566 
  132495     126.5839    7.3787743   -88537.286   -88858.821     -88535.6 
Loop time of 69.8301 on 1 procs for 495 steps with 19652 atoms

Performance: 0.612 ns/day, 39.186 hours/ns, 7.089 timesteps/s
98.8% CPU use with 1 MPI tasks x no OpenMP threads

MPI task timing breakdown:
Section |  min time  |  avg time  |  max time  |%varavg| %total
---------------------------------------------------------------
Pair    | 35.902     | 35.902     | 35.902     |   0.0 | 51.41
Neigh   | 32.443     | 32.443     | 32.443     |   0.0 | 46.46
Comm    | 0.53151    | 0.53151    | 0.53151    |   0.0 |  0.76
Output  | 0.00014281 | 0.00014281 | 0.00014281 |   0.0 |  0.00
Modify  | 0.73735    | 0.73735    | 0.73735    |   0.0 |  1.06
Other   |            | 0.2165     |            |       |  0.31

Nlocal:    19652 ave 19652 max 19652 min
Histogram: 1 0 0 0 0 0 0 0 0 0
Nghost:    17637 ave 17637 max 17637 min
Histogram: 1 0 0 0 0 0 0 0 0 0
Neighs:    1.34899e+06 ave 1.34899e+06 max 1.34899e+06 min
Histogram: 1 0 0 0 0 0 0 0 0 0

Total # of neighbors = 1348994
Ave neighs/atom = 68.6441
Neighbor list builds = 495
Dangerous builds not checked
Setting up Verlet run ...
  Unit style    : metal
  Current step  : 132495
  Time step     : 0.001
Per MPI rank memory allocation (min/avg/max) = 18.2 | 18.2 | 18.2 Mbytes
Step Temp Press TotEng PotEng Enthalpy 
  132495     126.5839    7.3787743   -88537.286   -88858.821     -88535.6 
  134000    98.711231   -11.463211   -88686.139   -88936.875   -88688.758 
Loop time of 211.159 on 1 procs for 1505 steps with 19652 atoms

Performance: 0.616 ns/day, 38.974 hours/ns, 7.127 timesteps/s
99.4% CPU use with 1 MPI tasks x no OpenMP threads

MPI task timing breakdown:
Section |  min time  |  avg time  |  max time  |%varavg| %total
---------------------------------------------------------------
Pair    | 108.93     | 108.93     | 108.93     |   0.0 | 51.59
Neigh   | 97.689     | 97.689     | 97.689     |   0.0 | 46.26
Comm    | 1.6529     | 1.6529     | 1.6529     |   0.0 |  0.78
Output  | 0.08743    | 0.08743    | 0.08743    |   0.0 |  0.04
Modify  | 2.1801     | 2.1801     | 2.1801     |   0.0 |  1.03
Other   |            | 0.6209     |            |       |  0.29

Nlocal:    19652 ave 19652 max 19652 min
Histogram: 1 0 0 0 0 0 0 0 0 0
Nghost:    17687 ave 17687 max 17687 min
Histogram: 1 0 0 0 0 0 0 0 0 0
Neighs:    1.3495e+06 ave 1.3495e+06 max 1.3495e+06 min
Histogram: 1 0 0 0 0 0 0 0 0 0

Total # of neighbors = 1349499
Ave neighs/atom = 68.6698
Neighbor list builds = 1505
Dangerous builds not checked
Total wall time: 5:19:02
