LAMMPS (12 Dec 2018)
Lattice spacing in x,y,z = 4 4 4
Created orthogonal box = (0 0 0) to (68 68 68)
  1 by 1 by 2 MPI processor grid
Created 19652 atoms
  Time spent = 0.00176096 secs
Setting atom values ...
  19281 settings made for type/fraction
Neighbor list info ...
  update every 1 steps, delay 0 steps, check no
  max neighbors/atom: 2000, page size: 100000
  master list distance cutoff = 8.5
  ghost atom cutoff = 8.5
  binsize = 4.25, bins = 16 16 16
  1 neighbor lists, perpetual/occasional/extra = 1 0 0
  (1) pair eam/alloy, perpetual
      attributes: half, newton on
      pair build: half/bin/atomonly/newton
      stencil: half/bin/3d/newton
      bin: standard
Setting up Verlet run ...
  Unit style    : metal
  Current step  : 0
  Time step     : 0.001
Per MPI rank memory allocation (min/avg/max) = 11.15 | 11.15 | 11.15 Mbytes
Step Temp Press TotEng PotEng Enthalpy 
       0          300   -166746.06   -61341.629   -62103.656   -94066.049 
    1000    415.75953   -81163.135    -61341.63   -62397.697   -77270.141 
Loop time of 95.0363 on 2 procs for 1000 steps with 19652 atoms

Performance: 0.909 ns/day, 26.399 hours/ns, 10.522 timesteps/s
98.5% CPU use with 2 MPI tasks x no OpenMP threads

MPI task timing breakdown:
Section |  min time  |  avg time  |  max time  |%varavg| %total
---------------------------------------------------------------
Pair    | 52.802     | 53.335     | 53.868     |   7.3 | 56.12
Neigh   | 35.678     | 35.851     | 36.024     |   2.9 | 37.72
Comm    | 4.677      | 5.4002     | 6.1234     |  31.1 |  5.68
Output  | 0.00018907 | 0.00019443 | 0.00019979 |   0.0 |  0.00
Modify  | 0.21878    | 0.23233    | 0.24588    |   2.8 |  0.24
Other   |            | 0.2172     |            |       |  0.23

Nlocal:    9826 ave 9918 max 9734 min
Histogram: 1 0 0 0 0 0 0 0 0 1
Nghost:    13612.5 ave 13661 max 13564 min
Histogram: 1 0 0 0 0 0 0 0 0 1
Neighs:    788258 ave 803859 max 772656 min
Histogram: 1 0 0 0 0 0 0 0 0 1

Total # of neighbors = 1576515
Ave neighs/atom = 80.2216
Neighbor list builds = 1000
Dangerous builds not checked
Setting up Verlet run ...
  Unit style    : metal
  Current step  : 1000
  Time step     : 0.001
Per MPI rank memory allocation (min/avg/max) = 11.15 | 11.15 | 11.15 Mbytes
Step Temp Press TotEng PotEng Enthalpy 
    1000    415.75953   -81163.135    -61341.63   -62397.697   -77270.141 
    2000     400.3857    -1548.309   -65375.014    -66392.03   -65611.636 
Loop time of 117.099 on 2 procs for 1000 steps with 19652 atoms

Performance: 0.738 ns/day, 32.527 hours/ns, 8.540 timesteps/s
97.7% CPU use with 2 MPI tasks x no OpenMP threads

MPI task timing breakdown:
Section |  min time  |  avg time  |  max time  |%varavg| %total
---------------------------------------------------------------
Pair    | 64.562     | 65.185     | 65.808     |   7.7 | 55.67
Neigh   | 44.421     | 44.873     | 45.325     |   6.7 | 38.32
Comm    | 5.8391     | 6.013      | 6.1869     |   7.1 |  5.13
Output  | 0.00015712 | 0.00018406 | 0.000211   |   0.0 |  0.00
Modify  | 0.811      | 0.81242    | 0.81384    |   0.2 |  0.69
Other   |            | 0.2152     |            |       |  0.18

Nlocal:    9826 ave 10125 max 9527 min
Histogram: 1 0 0 0 0 0 0 0 0 1
Nghost:    14389.5 ave 14590 max 14189 min
Histogram: 1 0 0 0 0 0 0 0 0 1
Neighs:    1.0012e+06 ave 1.04524e+06 max 957160 min
Histogram: 1 0 0 0 0 0 0 0 0 1

Total # of neighbors = 2002403
Ave neighs/atom = 101.893
Neighbor list builds = 1000
Dangerous builds not checked
Setting up Verlet run ...
  Unit style    : metal
  Current step  : 2000
  Time step     : 0.001
Per MPI rank memory allocation (min/avg/max) = 11.54 | 11.73 | 11.92 Mbytes
Step Temp Press TotEng PotEng Enthalpy 
    2000     400.3857    -1548.309   -65375.014    -66392.03   -65611.636 
   10000    2467.0653    610.76463   -52525.477   -58792.048   -52412.235 
Loop time of 1037.11 on 2 procs for 8000 steps with 19652 atoms

Performance: 0.666 ns/day, 36.011 hours/ns, 7.714 timesteps/s
96.8% CPU use with 2 MPI tasks x no OpenMP threads

MPI task timing breakdown:
Section |  min time  |  avg time  |  max time  |%varavg| %total
---------------------------------------------------------------
Pair    | 569.95     | 570.32     | 570.69     |   1.5 | 54.99
Neigh   | 364.44     | 375.36     | 386.27     |  56.4 | 36.19
Comm    | 53.907     | 65.377     | 76.848     | 141.9 |  6.30
Output  | 0.00010204 | 0.00013351 | 0.00016499 |   0.0 |  0.00
Modify  | 23.99      | 24.13      | 24.27      |   2.8 |  2.33
Other   |            | 1.932      |            |       |  0.19

Nlocal:    9826 ave 9838 max 9814 min
Histogram: 1 0 0 0 0 0 0 0 0 1
Nghost:    13535 ave 13554 max 13516 min
Histogram: 1 0 0 0 0 0 0 0 0 1
Neighs:    829278 ave 837711 max 820846 min
Histogram: 1 0 0 0 0 0 0 0 0 1

Total # of neighbors = 1658557
Ave neighs/atom = 84.3963
Neighbor list builds = 8000
Dangerous builds not checked
Setting up Verlet run ...
  Unit style    : metal
  Current step  : 10000
  Time step     : 0.001
Per MPI rank memory allocation (min/avg/max) = 11.92 | 11.92 | 11.92 Mbytes
Step Temp Press TotEng PotEng Enthalpy 
   10000    2467.0653    610.76463   -52525.477   -58792.048   -52412.235 
   40000    2455.8397    2082.3943   -52428.149   -58666.205   -52041.743 
Loop time of 4846.11 on 2 procs for 30000 steps with 19652 atoms

Performance: 0.535 ns/day, 44.871 hours/ns, 6.191 timesteps/s
82.8% CPU use with 2 MPI tasks x no OpenMP threads

MPI task timing breakdown:
Section |  min time  |  avg time  |  max time  |%varavg| %total
---------------------------------------------------------------
Pair    | 2735.1     | 2749       | 2763       |  26.6 | 56.73
Neigh   | 1585.1     | 1627.5     | 1670       | 105.1 | 33.58
Comm    | 389.98     | 418.73     | 447.47     | 140.5 |  8.64
Output  | 8.3923e-05 | 0.00011253 | 0.00014114 |   0.0 |  0.00
Modify  | 41.957     | 42.014     | 42.071     |   0.9 |  0.87
Other   |            | 8.783      |            |       |  0.18

Nlocal:    9826 ave 9845 max 9807 min
Histogram: 1 0 0 0 0 0 0 0 0 1
Nghost:    13523 ave 13562 max 13484 min
Histogram: 1 0 0 0 0 0 0 0 0 1
Neighs:    828782 ave 835092 max 822472 min
Histogram: 1 0 0 0 0 0 0 0 0 1

Total # of neighbors = 1657564
Ave neighs/atom = 84.3458
Neighbor list builds = 30000
Dangerous builds not checked
Setting up Verlet run ...
  Unit style    : metal
  Current step  : 40000
  Time step     : 0.001
Per MPI rank memory allocation (min/avg/max) = 11.92 | 11.92 | 11.92 Mbytes
Step Temp Press TotEng PotEng Enthalpy 
   40000    2455.8397    2082.3943   -52428.149   -58666.205   -52041.743 
   40495    2401.2584   -827.98872   -52678.463   -58777.878    -52831.96 
Loop time of 93.4582 on 2 procs for 495 steps with 19652 atoms

Performance: 0.458 ns/day, 52.446 hours/ns, 5.296 timesteps/s
68.9% CPU use with 2 MPI tasks x no OpenMP threads

MPI task timing breakdown:
Section |  min time  |  avg time  |  max time  |%varavg| %total
---------------------------------------------------------------
Pair    | 52.254     | 52.46      | 52.665     |   2.8 | 56.13
Neigh   | 30.008     | 31.686     | 33.364     |  29.8 | 33.90
Comm    | 6.1586     | 8.0598     | 9.9611     |  67.0 |  8.62
Output  | 8.7976e-05 | 0.00012445 | 0.00016093 |   0.0 |  0.00
Modify  | 1.0265     | 1.0467     | 1.0669     |   2.0 |  1.12
Other   |            | 0.2058     |            |       |  0.22

Nlocal:    9826 ave 9845 max 9807 min
Histogram: 1 0 0 0 0 0 0 0 0 1
Nghost:    13489.5 ave 13538 max 13441 min
Histogram: 1 0 0 0 0 0 0 0 0 1
Neighs:    829361 ave 840785 max 817937 min
Histogram: 1 0 0 0 0 0 0 0 0 1

Total # of neighbors = 1658722
Ave neighs/atom = 84.4047
Neighbor list builds = 495
Dangerous builds not checked
Setting up Verlet run ...
  Unit style    : metal
  Current step  : 40495
  Time step     : 0.001
Per MPI rank memory allocation (min/avg/max) = 11.92 | 11.92 | 11.92 Mbytes
Step Temp Press TotEng PotEng Enthalpy 
   40495    2401.2584   -827.98872   -52678.463   -58777.878    -52831.96 
   50000    2391.3074   -1259.7944   -52760.009   -58834.148   -52993.616 
   90000    2402.5799   -680.19224   -52780.206   -58882.978   -52905.984 
Loop time of 7682.99 on 2 procs for 49505 steps with 19652 atoms

Performance: 0.557 ns/day, 43.110 hours/ns, 6.443 timesteps/s
85.9% CPU use with 2 MPI tasks x no OpenMP threads

MPI task timing breakdown:
Section |  min time  |  avg time  |  max time  |%varavg| %total
---------------------------------------------------------------
Pair    | 4290.3     | 4327.2     | 4364.1     |  56.1 | 56.32
Neigh   | 2488.5     | 2534.8     | 2581.1     |  92.0 | 32.99
Comm    | 716.96     | 733.38     | 749.79     |  60.6 |  9.55
Output  | 0.051106   | 0.051146   | 0.051185   |   0.0 |  0.00
Modify  | 66.877     | 73.654     | 80.431     |  79.0 |  0.96
Other   |            | 13.92      |            |       |  0.18

Nlocal:    9826 ave 9834 max 9818 min
Histogram: 1 0 0 0 0 0 0 0 0 1
Nghost:    13492.5 ave 13496 max 13489 min
Histogram: 1 0 0 0 0 0 0 0 0 1
Neighs:    831510 ave 842781 max 820239 min
Histogram: 1 0 0 0 0 0 0 0 0 1

Total # of neighbors = 1663020
Ave neighs/atom = 84.6234
Neighbor list builds = 49505
Dangerous builds not checked
Setting up Verlet run ...
  Unit style    : metal
  Current step  : 90000
  Time step     : 0.001
Per MPI rank memory allocation (min/avg/max) = 12.02 | 12.02 | 12.02 Mbytes
Step Temp Press TotEng PotEng Enthalpy 
   90000    2402.5799   -680.19224   -52780.206   -58882.978   -52905.984 
   90495    2374.4055   -237.73465   -52932.848   -58964.054   -52976.688 
Loop time of 104.316 on 2 procs for 495 steps with 19652 atoms

Performance: 0.410 ns/day, 58.539 hours/ns, 4.745 timesteps/s
77.6% CPU use with 2 MPI tasks x no OpenMP threads

MPI task timing breakdown:
Section |  min time  |  avg time  |  max time  |%varavg| %total
---------------------------------------------------------------
Pair    | 59.149     | 60.728     | 62.308     |  20.3 | 58.22
Neigh   | 28.913     | 31.128     | 33.343     |  39.7 | 29.84
Comm    | 7.3286     | 11.152     | 14.975     | 114.5 | 10.69
Output  | 0.00011086 | 0.00013494 | 0.00015903 |   0.0 |  0.00
Modify  | 1.0511     | 1.0598     | 1.0685     |   0.8 |  1.02
Other   |            | 0.2482     |            |       |  0.24

Nlocal:    9826 ave 9856 max 9796 min
Histogram: 1 0 0 0 0 0 0 0 0 1
Nghost:    13484.5 ave 13514 max 13455 min
Histogram: 1 0 0 0 0 0 0 0 0 1
Neighs:    833483 ave 847014 max 819952 min
Histogram: 1 0 0 0 0 0 0 0 0 1

Total # of neighbors = 1666966
Ave neighs/atom = 84.8242
Neighbor list builds = 495
Dangerous builds not checked
Setting up Verlet run ...
  Unit style    : metal
  Current step  : 90495
  Time step     : 0.001
Per MPI rank memory allocation (min/avg/max) = 12.02 | 12.02 | 12.02 Mbytes
Step Temp Press TotEng PotEng Enthalpy 
   90495    2374.4055   -237.73465   -52932.848   -58964.054   -52976.688 
  100000    2339.4208    1349.9935   -53068.135   -59010.477   -52819.889 
  140000    2338.1067   -247.25926   -53040.931   -58979.936   -53086.499 
Loop time of 8559.9 on 2 procs for 49505 steps with 19652 atoms

Performance: 0.500 ns/day, 48.031 hours/ns, 5.783 timesteps/s
85.6% CPU use with 2 MPI tasks x no OpenMP threads

MPI task timing breakdown:
Section |  min time  |  avg time  |  max time  |%varavg| %total
---------------------------------------------------------------
Pair    | 4819.9     | 4865.7     | 4911.4     |  65.6 | 56.84
Neigh   | 2654.8     | 2658.3     | 2661.8     |   6.8 | 31.06
Comm    | 876.82     | 927.57     | 978.33     | 166.7 | 10.84
Output  | 0.045001   | 0.045061   | 0.045122   |   0.0 |  0.00
Modify  | 88.983     | 90.267     | 91.552     |  13.5 |  1.05
Other   |            | 18         |            |       |  0.21

Nlocal:    9826 ave 9863 max 9789 min
Histogram: 1 0 0 0 0 0 0 0 0 1
Nghost:    13517.5 ave 13561 max 13474 min
Histogram: 1 0 0 0 0 0 0 0 0 1
Neighs:    834180 ave 840129 max 828232 min
Histogram: 1 0 0 0 0 0 0 0 0 1

Total # of neighbors = 1668361
Ave neighs/atom = 84.8952
Neighbor list builds = 49505
Dangerous builds not checked
Setting up Verlet run ...
  Unit style    : metal
  Current step  : 140000
  Time step     : 0.001
Per MPI rank memory allocation (min/avg/max) = 12.06 | 12.06 | 12.06 Mbytes
Step Temp Press TotEng PotEng Enthalpy 
  140000    2338.1067   -247.25926   -53040.931   -58979.936   -53086.499 
  140495    2321.2164    722.72341   -53253.155   -59149.257   -53120.655 
Loop time of 94.9105 on 2 procs for 495 steps with 19652 atoms

Performance: 0.451 ns/day, 53.261 hours/ns, 5.215 timesteps/s
77.4% CPU use with 2 MPI tasks x no OpenMP threads

MPI task timing breakdown:
Section |  min time  |  avg time  |  max time  |%varavg| %total
---------------------------------------------------------------
Pair    | 53.999     | 55.074     | 56.148     |  14.5 | 58.03
Neigh   | 19.057     | 27.475     | 35.893     | 160.6 | 28.95
Comm    | 4.0093     | 11.478     | 18.946     | 220.4 | 12.09
Output  | 0.00011301 | 0.00013912 | 0.00016522 |   0.0 |  0.00
Modify  | 0.60905    | 0.66822    | 0.72739    |   7.2 |  0.70
Other   |            | 0.2157     |            |       |  0.23

Nlocal:    9826 ave 9842 max 9810 min
Histogram: 1 0 0 0 0 0 0 0 0 1
Nghost:    13555 ave 13563 max 13547 min
Histogram: 1 0 0 0 0 0 0 0 0 1
Neighs:    838290 ave 845946 max 830635 min
Histogram: 1 0 0 0 0 0 0 0 0 1

Total # of neighbors = 1676581
Ave neighs/atom = 85.3135
Neighbor list builds = 495
Dangerous builds not checked
Setting up Verlet run ...
  Unit style    : metal
  Current step  : 140495
  Time step     : 0.001
Per MPI rank memory allocation (min/avg/max) = 12.06 | 12.06 | 12.06 Mbytes
Step Temp Press TotEng PotEng Enthalpy 
  140495    2321.2164    722.72341   -53253.155   -59149.257   -53120.655 
  150000    2302.3989   -906.66087   -53340.502   -59188.805   -53506.626 
  190000    2292.8294   -791.12031   -53293.996   -59117.991   -53439.227 
Loop time of 7307.09 on 2 procs for 49505 steps with 19652 atoms

Performance: 0.585 ns/day, 41.001 hours/ns, 6.775 timesteps/s
96.5% CPU use with 2 MPI tasks x no OpenMP threads

MPI task timing breakdown:
Section |  min time  |  avg time  |  max time  |%varavg| %total
---------------------------------------------------------------
Pair    | 4199.8     | 4262.6     | 4325.3     |  96.1 | 58.33
Neigh   | 2468.5     | 2515.7     | 2562.8     |  94.0 | 34.43
Comm    | 341.05     | 451.39     | 561.73     | 519.3 |  6.18
Output  | 2.6007     | 2.6007     | 2.6007     |   0.0 |  0.04
Modify  | 57.164     | 57.483     | 57.803     |   4.2 |  0.79
Other   |            | 17.35      |            |       |  0.24

Nlocal:    9826 ave 9846 max 9806 min
Histogram: 1 0 0 0 0 0 0 0 0 1
Nghost:    13572 ave 13572 max 13572 min
Histogram: 2 0 0 0 0 0 0 0 0 0
Neighs:    837498 ave 844885 max 830110 min
Histogram: 1 0 0 0 0 0 0 0 0 1

Total # of neighbors = 1674995
Ave neighs/atom = 85.2328
Neighbor list builds = 49505
Dangerous builds not checked
Setting up Verlet run ...
  Unit style    : metal
  Current step  : 190000
  Time step     : 0.001
Per MPI rank memory allocation (min/avg/max) = 12.08 | 12.08 | 12.08 Mbytes
Step Temp Press TotEng PotEng Enthalpy 
  190000    2292.8294   -791.12031   -53293.996   -59117.991   -53439.227 
  190495    2275.0282   -360.96273   -53518.109   -59296.888   -53583.992 
Loop time of 62.2704 on 2 procs for 495 steps with 19652 atoms

Performance: 0.687 ns/day, 34.944 hours/ns, 7.949 timesteps/s
99.1% CPU use with 2 MPI tasks x no OpenMP threads

MPI task timing breakdown:
Section |  min time  |  avg time  |  max time  |%varavg| %total
---------------------------------------------------------------
Pair    | 35.422     | 36.048     | 36.675     |  10.4 | 57.89
Neigh   | 22.722     | 23.011     | 23.301     |   6.0 | 36.95
Comm    | 1.6272     | 2.5475     | 3.4678     |  57.7 |  4.09
Output  | 9.8944e-05 | 0.00012803 | 0.00015712 |   0.0 |  0.00
Modify  | 0.49514    | 0.49792    | 0.5007     |   0.4 |  0.80
Other   |            | 0.1651     |            |       |  0.27

Nlocal:    9826 ave 9835 max 9817 min
Histogram: 1 0 0 0 0 0 0 0 0 1
Nghost:    13627.5 ave 13630 max 13625 min
Histogram: 1 0 0 0 0 0 0 0 0 1
Neighs:    842239 ave 852259 max 832219 min
Histogram: 1 0 0 0 0 0 0 0 0 1

Total # of neighbors = 1684478
Ave neighs/atom = 85.7153
Neighbor list builds = 495
Dangerous builds not checked
Setting up Verlet run ...
  Unit style    : metal
  Current step  : 190495
  Time step     : 0.001
Per MPI rank memory allocation (min/avg/max) = 12.08 | 12.08 | 12.08 Mbytes
Step Temp Press TotEng PotEng Enthalpy 
  190495    2275.0282   -360.96273   -53518.109   -59296.888   -53583.992 
  200000     2244.576    1997.4459   -53673.795   -59375.222    -53310.82 
  240000    2222.4224   -1883.6961   -53620.923   -59266.079   -53965.515 
Loop time of 6533.92 on 2 procs for 49505 steps with 19652 atoms

Performance: 0.655 ns/day, 36.663 hours/ns, 7.577 timesteps/s
99.0% CPU use with 2 MPI tasks x no OpenMP threads

MPI task timing breakdown:
Section |  min time  |  avg time  |  max time  |%varavg| %total
---------------------------------------------------------------
Pair    | 3766.2     | 3809.3     | 3852.4     |  69.8 | 58.30
Neigh   | 2331.4     | 2342.6     | 2353.8     |  23.1 | 35.85
Comm    | 263.16     | 317.49     | 371.81     | 304.9 |  4.86
Output  | 0.075582   | 0.075642   | 0.075703   |   0.0 |  0.00
Modify  | 48.561     | 48.638     | 48.715     |   1.1 |  0.74
Other   |            | 15.77      |            |       |  0.24

Nlocal:    9826 ave 9836 max 9816 min
Histogram: 1 0 0 0 0 0 0 0 0 1
Nghost:    13591.5 ave 13597 max 13586 min
Histogram: 1 0 0 0 0 0 0 0 0 1
Neighs:    839940 ave 851891 max 827989 min
Histogram: 1 0 0 0 0 0 0 0 0 1

Total # of neighbors = 1679880
Ave neighs/atom = 85.4814
Neighbor list builds = 49505
Dangerous builds not checked
Setting up Verlet run ...
  Unit style    : metal
  Current step  : 240000
  Time step     : 0.001
Per MPI rank memory allocation (min/avg/max) = 12.09 | 12.09 | 12.09 Mbytes
Step Temp Press TotEng PotEng Enthalpy 
  240000    2222.4224   -1883.6961   -53620.923   -59266.079   -53965.515 
  240495    2213.3688   -1328.2569   -53785.034   -59407.192   -54026.943 
Loop time of 58.7773 on 2 procs for 495 steps with 19652 atoms

Performance: 0.728 ns/day, 32.984 hours/ns, 8.422 timesteps/s
99.4% CPU use with 2 MPI tasks x no OpenMP threads

MPI task timing breakdown:
Section |  min time  |  avg time  |  max time  |%varavg| %total
---------------------------------------------------------------
Pair    | 33.507     | 34.023     | 34.54      |   8.9 | 57.89
Neigh   | 19.713     | 20.351     | 20.988     |  14.1 | 34.62
Comm    | 3.6776     | 3.8047     | 3.9318     |   6.5 |  6.47
Output  | 0.00011015 | 0.00014257 | 0.000175   |   0.0 |  0.00
Modify  | 0.43527    | 0.44554    | 0.45581    |   1.5 |  0.76
Other   |            | 0.153      |            |       |  0.26

Nlocal:    9826 ave 9886 max 9766 min
Histogram: 1 0 0 0 0 0 0 0 0 1
Nghost:    13625 ave 13643 max 13607 min
Histogram: 1 0 0 0 0 0 0 0 0 1
Neighs:    844016 ave 862195 max 825838 min
Histogram: 1 0 0 0 0 0 0 0 0 1

Total # of neighbors = 1688033
Ave neighs/atom = 85.8962
Neighbor list builds = 495
Dangerous builds not checked
Setting up Verlet run ...
  Unit style    : metal
  Current step  : 240495
  Time step     : 0.001
Per MPI rank memory allocation (min/avg/max) = 12.09 | 12.09 | 12.09 Mbytes
Step Temp Press TotEng PotEng Enthalpy 
  240495    2213.3688   -1328.2569   -53785.034   -59407.192   -54026.943 
  250000    2188.6127    301.99221   -53858.039   -59417.315   -53803.117 
  290000     2208.742   -673.76723   -53828.477   -59438.883   -53950.964 
Loop time of 5919.85 on 2 procs for 49505 steps with 19652 atoms

Performance: 0.723 ns/day, 33.217 hours/ns, 8.363 timesteps/s
97.6% CPU use with 2 MPI tasks x no OpenMP threads

MPI task timing breakdown:
Section |  min time  |  avg time  |  max time  |%varavg| %total
---------------------------------------------------------------
Pair    | 3340.3     | 3369.8     | 3399.3     |  50.8 | 56.92
Neigh   | 2044.1     | 2064.3     | 2084.6     |  44.6 | 34.87
Comm    | 407.23     | 415.68     | 424.14     |  41.5 |  7.02
Output  | 0.13286    | 0.1329     | 0.13294    |   0.0 |  0.00
Modify  | 55.198     | 55.973     | 56.748     |  10.4 |  0.95
Other   |            | 13.89      |            |       |  0.23

Nlocal:    9826 ave 9838 max 9814 min
Histogram: 1 0 0 0 0 0 0 0 0 1
Nghost:    13650.5 ave 13675 max 13626 min
Histogram: 1 0 0 0 0 0 0 0 0 1
Neighs:    845203 ave 852555 max 837851 min
Histogram: 1 0 0 0 0 0 0 0 0 1

Total # of neighbors = 1690406
Ave neighs/atom = 86.017
Neighbor list builds = 49505
Dangerous builds not checked
Setting up Verlet run ...
  Unit style    : metal
  Current step  : 290000
  Time step     : 0.001
Per MPI rank memory allocation (min/avg/max) = 12.1 | 12.1 | 12.1 Mbytes
Step Temp Press TotEng PotEng Enthalpy 
  290000     2208.742   -673.76723   -53828.477   -59438.883   -53950.964 
  290495    2167.5512   -111.98026   -54102.872   -59608.649   -54123.115 
Loop time of 61.4786 on 2 procs for 495 steps with 19652 atoms

Performance: 0.696 ns/day, 34.500 hours/ns, 8.052 timesteps/s
99.6% CPU use with 2 MPI tasks x no OpenMP threads

MPI task timing breakdown:
Section |  min time  |  avg time  |  max time  |%varavg| %total
---------------------------------------------------------------
Pair    | 35.099     | 35.433     | 35.767     |   5.6 | 57.63
Neigh   | 21.969     | 22.451     | 22.932     |  10.2 | 36.52
Comm    | 2.1481     | 2.9668     | 3.7856     |  47.5 |  4.83
Output  | 0.00010204 | 0.00012851 | 0.00015497 |   0.0 |  0.00
Modify  | 0.47661    | 0.4784     | 0.48018    |   0.3 |  0.78
Other   |            | 0.1495     |            |       |  0.24

Nlocal:    9826 ave 9832 max 9820 min
Histogram: 1 0 0 0 0 0 0 0 0 1
Nghost:    13653.5 ave 13690 max 13617 min
Histogram: 1 0 0 0 0 0 0 0 0 1
Neighs:    850042 ave 860035 max 840048 min
Histogram: 1 0 0 0 0 0 0 0 0 1

Total # of neighbors = 1700083
Ave neighs/atom = 86.5094
Neighbor list builds = 495
Dangerous builds not checked
Setting up Verlet run ...
  Unit style    : metal
  Current step  : 290495
  Time step     : 0.001
Per MPI rank memory allocation (min/avg/max) = 12.1 | 12.1 | 12.1 Mbytes
Step Temp Press TotEng PotEng Enthalpy 
  290495    2167.5512   -111.98026   -54102.872   -59608.649   -54123.115 
  300000    2141.6125    700.11604   -54151.342   -59591.233   -54024.773 
  340000    2164.7412    930.78354    -54125.37    -59624.01   -53957.359 
Loop time of 6233.52 on 2 procs for 49505 steps with 19652 atoms

Performance: 0.686 ns/day, 34.977 hours/ns, 7.942 timesteps/s
97.3% CPU use with 2 MPI tasks x no OpenMP threads

MPI task timing breakdown:
Section |  min time  |  avg time  |  max time  |%varavg| %total
---------------------------------------------------------------
Pair    | 3535.2     | 3573.7     | 3612.2     |  64.3 | 57.33
Neigh   | 2229.4     | 2239.8     | 2250.2     |  22.0 | 35.93
Comm    | 289.47     | 347.34     | 405.22     | 310.5 |  5.57
Output  | 0.16132    | 0.16136    | 0.16139    |   0.0 |  0.00
Modify  | 49.954     | 58.814     | 67.675     | 115.5 |  0.94
Other   |            | 13.67      |            |       |  0.22

Nlocal:    9826 ave 9846 max 9806 min
Histogram: 1 0 0 0 0 0 0 0 0 1
Nghost:    13650 ave 13670 max 13630 min
Histogram: 1 0 0 0 0 0 0 0 0 1
Neighs:    851492 ave 863049 max 839934 min
Histogram: 1 0 0 0 0 0 0 0 0 1

Total # of neighbors = 1702983
Ave neighs/atom = 86.657
Neighbor list builds = 49505
Dangerous builds not checked
Setting up Verlet run ...
  Unit style    : metal
  Current step  : 340000
  Time step     : 0.001
Per MPI rank memory allocation (min/avg/max) = 12.1 | 12.1 | 12.1 Mbytes
Step Temp Press TotEng PotEng Enthalpy 
  340000    2164.7412    930.78354    -54125.37    -59624.01   -53957.359 
  340495    2120.4681     389.8716    -54344.93   -59731.113   -54274.762 
Loop time of 55.7763 on 2 procs for 495 steps with 19652 atoms

Performance: 0.767 ns/day, 31.300 hours/ns, 8.875 timesteps/s
98.8% CPU use with 2 MPI tasks x no OpenMP threads

MPI task timing breakdown:
Section |  min time  |  avg time  |  max time  |%varavg| %total
---------------------------------------------------------------
Pair    | 31.269     | 31.514     | 31.759     |   4.4 | 56.50
Neigh   | 20.431     | 20.721     | 21.012     |   6.4 | 37.15
Comm    | 2.8338     | 2.8768     | 2.9198     |   2.5 |  5.16
Output  | 9.1076e-05 | 0.00012505 | 0.00015903 |   0.0 |  0.00
Modify  | 0.5387     | 0.5404     | 0.54211    |   0.2 |  0.97
Other   |            | 0.1233     |            |       |  0.22

Nlocal:    9826 ave 9826 max 9826 min
Histogram: 2 0 0 0 0 0 0 0 0 0
Nghost:    13690.5 ave 13701 max 13680 min
Histogram: 1 0 0 0 0 0 0 0 0 1
Neighs:    853754 ave 863791 max 843716 min
Histogram: 1 0 0 0 0 0 0 0 0 1

Total # of neighbors = 1707507
Ave neighs/atom = 86.8872
Neighbor list builds = 495
Dangerous builds not checked
Setting up Verlet run ...
  Unit style    : metal
  Current step  : 340495
  Time step     : 0.001
Per MPI rank memory allocation (min/avg/max) = 12.1 | 12.1 | 12.1 Mbytes
Step Temp Press TotEng PotEng Enthalpy 
  340495    2120.4681     389.8716    -54344.93   -59731.113   -54274.762 
  350000    2094.5471    2113.4039   -54497.522   -59817.862   -54118.733 
  390000    2125.5013    -481.8599   -54381.234   -59780.201   -54467.914 
Loop time of 5693.63 on 2 procs for 49505 steps with 19652 atoms

Performance: 0.751 ns/day, 31.948 hours/ns, 8.695 timesteps/s
96.8% CPU use with 2 MPI tasks x no OpenMP threads

MPI task timing breakdown:
Section |  min time  |  avg time  |  max time  |%varavg| %total
---------------------------------------------------------------
Pair    | 3150       | 3172.4     | 3194.8     |  39.7 | 55.72
Neigh   | 2070.2     | 2074       | 2077.9     |   8.4 | 36.43
Comm    | 356.36     | 382.81     | 409.26     | 135.2 |  6.72
Output  | 0.064087   | 0.064116   | 0.064145   |   0.0 |  0.00
Modify  | 52.558     | 52.762     | 52.967     |   2.8 |  0.93
Other   |            | 11.55      |            |       |  0.20

Nlocal:    9826 ave 9847 max 9805 min
Histogram: 1 0 0 0 0 0 0 0 0 1
Nghost:    13649 ave 13681 max 13617 min
Histogram: 1 0 0 0 0 0 0 0 0 1
Neighs:    854112 ave 862500 max 845724 min
Histogram: 1 0 0 0 0 0 0 0 0 1

Total # of neighbors = 1708224
Ave neighs/atom = 86.9237
Neighbor list builds = 49505
Dangerous builds not checked
Setting up Verlet run ...
  Unit style    : metal
  Current step  : 390000
  Time step     : 0.001
Per MPI rank memory allocation (min/avg/max) = 12.1 | 12.1 | 12.1 Mbytes
Step Temp Press TotEng PotEng Enthalpy 
  390000    2125.5013    -481.8599   -54381.234   -59780.201   -54467.914 
  390495    2070.4434    495.04978   -54663.299   -59922.414    -54574.73 
Loop time of 53.5796 on 2 procs for 495 steps with 19652 atoms

Performance: 0.798 ns/day, 30.067 hours/ns, 9.239 timesteps/s
99.1% CPU use with 2 MPI tasks x no OpenMP threads

MPI task timing breakdown:
Section |  min time  |  avg time  |  max time  |%varavg| %total
---------------------------------------------------------------
Pair    | 29.794     | 30.139     | 30.485     |   6.3 | 56.25
Neigh   | 20.447     | 20.49      | 20.533     |   0.9 | 38.24
Comm    | 2.04       | 2.4373     | 2.8345     |  25.4 |  4.55
Output  | 9.3937e-05 | 0.00012743 | 0.00016093 |   0.0 |  0.00
Modify  | 0.3914     | 0.39264    | 0.39387    |   0.2 |  0.73
Other   |            | 0.1198     |            |       |  0.22

Nlocal:    9826 ave 9845 max 9807 min
Histogram: 1 0 0 0 0 0 0 0 0 1
Nghost:    13688.5 ave 13695 max 13682 min
Histogram: 1 0 0 0 0 0 0 0 0 1
Neighs:    858622 ave 870507 max 846736 min
Histogram: 1 0 0 0 0 0 0 0 0 1

Total # of neighbors = 1717243
Ave neighs/atom = 87.3826
Neighbor list builds = 495
Dangerous builds not checked
Setting up Verlet run ...
  Unit style    : metal
  Current step  : 390495
  Time step     : 0.001
Per MPI rank memory allocation (min/avg/max) = 12.1 | 12.1 | 12.1 Mbytes
Step Temp Press TotEng PotEng Enthalpy 
  390495    2070.4434    495.04978   -54663.299   -59922.414    -54574.73 
  400000    2041.0969    1161.0577   -54765.345   -59949.917   -54557.748 
  440000    2047.3541   -1389.1862   -54757.111   -59957.577   -55006.141 
Loop time of 4903.29 on 2 procs for 49505 steps with 19652 atoms

Performance: 0.872 ns/day, 27.513 hours/ns, 10.096 timesteps/s
96.7% CPU use with 2 MPI tasks x no OpenMP threads

MPI task timing breakdown:
Section |  min time  |  avg time  |  max time  |%varavg| %total
---------------------------------------------------------------
Pair    | 2655.8     | 2680.5     | 2705.2     |  47.7 | 54.67
Neigh   | 1808.2     | 1809.5     | 1810.8     |   3.1 | 36.90
Comm    | 324.58     | 347.5      | 370.42     | 123.0 |  7.09
Output  | 0.042231   | 0.042276   | 0.042321   |   0.0 |  0.00
Modify  | 55.056     | 55.647     | 56.238     |   7.9 |  1.13
Other   |            | 10.13      |            |       |  0.21

Nlocal:    9826 ave 9851 max 9801 min
Histogram: 1 0 0 0 0 0 0 0 0 1
Nghost:    13681 ave 13692 max 13670 min
Histogram: 1 0 0 0 0 0 0 0 0 1
Neighs:    856858 ave 870829 max 842888 min
Histogram: 1 0 0 0 0 0 0 0 0 1

Total # of neighbors = 1713717
Ave neighs/atom = 87.2032
Neighbor list builds = 49505
Dangerous builds not checked
Setting up Verlet run ...
  Unit style    : metal
  Current step  : 440000
  Time step     : 0.001
Per MPI rank memory allocation (min/avg/max) = 12.1 | 12.11 | 12.11 Mbytes
Step Temp Press TotEng PotEng Enthalpy 
  440000    2047.3541   -1389.1862   -54757.111   -59957.577   -55006.141 
  440495    2005.5974   -1298.5018   -54981.011   -60075.411   -55212.727 
Loop time of 44.0073 on 2 procs for 495 steps with 19652 atoms

Performance: 0.972 ns/day, 24.695 hours/ns, 11.248 timesteps/s
99.8% CPU use with 2 MPI tasks x no OpenMP threads

MPI task timing breakdown:
Section |  min time  |  avg time  |  max time  |%varavg| %total
---------------------------------------------------------------
Pair    | 24.267     | 24.464     | 24.66      |   4.0 | 55.59
Neigh   | 17.227     | 17.272     | 17.316     |   1.1 | 39.25
Comm    | 1.628      | 1.8692     | 2.1105     |  17.6 |  4.25
Output  | 9.2983e-05 | 0.00012743 | 0.00016189 |   0.0 |  0.00
Modify  | 0.31646    | 0.31745    | 0.31844    |   0.2 |  0.72
Other   |            | 0.08515    |            |       |  0.19

Nlocal:    9826 ave 9840 max 9812 min
Histogram: 1 0 0 0 0 0 0 0 0 1
Nghost:    13810.5 ave 13819 max 13802 min
Histogram: 1 0 0 0 0 0 0 0 0 1
Neighs:    860984 ave 869070 max 852897 min
Histogram: 1 0 0 0 0 0 0 0 0 1

Total # of neighbors = 1721967
Ave neighs/atom = 87.623
Neighbor list builds = 495
Dangerous builds not checked
Setting up Verlet run ...
  Unit style    : metal
  Current step  : 440495
  Time step     : 0.001
Per MPI rank memory allocation (min/avg/max) = 12.1 | 12.11 | 12.11 Mbytes
Step Temp Press TotEng PotEng Enthalpy 
  440495    2005.5974   -1298.5018   -54981.011   -60075.411   -55212.727 
  450000    1995.4754    620.95721   -55059.865   -60128.554   -54949.399 
  490000    1996.5917   -131.87719    -55026.77   -60098.295   -55050.269 
Loop time of 4290.2 on 2 procs for 49505 steps with 19652 atoms

Performance: 0.997 ns/day, 24.073 hours/ns, 11.539 timesteps/s
98.6% CPU use with 2 MPI tasks x no OpenMP threads

MPI task timing breakdown:
Section |  min time  |  avg time  |  max time  |%varavg| %total
---------------------------------------------------------------
Pair    | 2341.3     | 2357.1     | 2373       |  32.6 | 54.94
Neigh   | 1671.5     | 1681       | 1690.4     |  23.1 | 39.18
Comm    | 181.87     | 207.8      | 233.73     | 179.9 |  4.84
Output  | 0.081398   | 0.081437   | 0.081475   |   0.0 |  0.00
Modify  | 34.733     | 35.337     | 35.94      |  10.1 |  0.82
Other   |            | 8.884      |            |       |  0.21

Nlocal:    9826 ave 9832 max 9820 min
Histogram: 1 0 0 0 0 0 0 0 0 1
Nghost:    13754 ave 13761 max 13747 min
Histogram: 1 0 0 0 0 0 0 0 0 1
Neighs:    862252 ave 871198 max 853307 min
Histogram: 1 0 0 0 0 0 0 0 0 1

Total # of neighbors = 1724505
Ave neighs/atom = 87.7521
Neighbor list builds = 49505
Dangerous builds not checked
Setting up Verlet run ...
  Unit style    : metal
  Current step  : 490000
  Time step     : 0.001
Per MPI rank memory allocation (min/avg/max) = 12.11 | 12.11 | 12.11 Mbytes
Step Temp Press TotEng PotEng Enthalpy 
  490000    1996.5917   -131.87719    -55026.77   -60098.295   -55050.269 
  490495    1964.9905   -508.64426   -55241.649   -60232.904   -55331.951 
Loop time of 38.9572 on 2 procs for 495 steps with 19652 atoms

Performance: 1.098 ns/day, 21.861 hours/ns, 12.706 timesteps/s
99.8% CPU use with 2 MPI tasks x no OpenMP threads

MPI task timing breakdown:
Section |  min time  |  avg time  |  max time  |%varavg| %total
---------------------------------------------------------------
Pair    | 21.336     | 21.442     | 21.549     |   2.3 | 55.04
Neigh   | 15.96      | 16.079     | 16.198     |   3.0 | 41.27
Comm    | 0.83659    | 1.0649     | 1.2933     |  22.1 |  2.73
Output  | 5.6028e-05 | 8.8573e-05 | 0.00012112 |   0.0 |  0.00
Modify  | 0.28708    | 0.29013    | 0.29319    |   0.6 |  0.74
Other   |            | 0.08063    |            |       |  0.21

Nlocal:    9826 ave 9835 max 9817 min
Histogram: 1 0 0 0 0 0 0 0 0 1
Nghost:    13787 ave 13790 max 13784 min
Histogram: 1 0 0 0 0 0 0 0 0 1
Neighs:    864964 ave 875299 max 854629 min
Histogram: 1 0 0 0 0 0 0 0 0 1

Total # of neighbors = 1729928
Ave neighs/atom = 88.0281
Neighbor list builds = 495
Dangerous builds not checked
Setting up Verlet run ...
  Unit style    : metal
  Current step  : 490495
  Time step     : 0.001
Per MPI rank memory allocation (min/avg/max) = 12.11 | 12.11 | 12.11 Mbytes
Step Temp Press TotEng PotEng Enthalpy 
  490495    1964.9905   -508.64426   -55241.649   -60232.904   -55331.951 
  500000    1957.8563     1140.105   -55212.772   -60185.905   -55010.563 
  540000    1951.2687   -2991.3083   -55324.987   -60281.387   -55856.596 
Loop time of 4210.64 on 2 procs for 49505 steps with 19652 atoms

Performance: 1.016 ns/day, 23.626 hours/ns, 11.757 timesteps/s
98.8% CPU use with 2 MPI tasks x no OpenMP threads

MPI task timing breakdown:
Section |  min time  |  avg time  |  max time  |%varavg| %total
---------------------------------------------------------------
Pair    | 2272.8     | 2297.8     | 2322.8     |  52.1 | 54.57
Neigh   | 1661.1     | 1664.3     | 1667.5     |   7.9 | 39.53
Comm    | 179.4      | 200.96     | 222.52     | 152.1 |  4.77
Output  | 0.060223   | 0.060261   | 0.0603     |   0.0 |  0.00
Modify  | 38.626     | 38.865     | 39.103     |   3.8 |  0.92
Other   |            | 8.66       |            |       |  0.21

Nlocal:    9826 ave 9828 max 9824 min
Histogram: 1 0 0 0 0 0 0 0 0 1
Nghost:    13777 ave 13805 max 13749 min
Histogram: 1 0 0 0 0 0 0 0 0 1
Neighs:    864099 ave 874945 max 853253 min
Histogram: 1 0 0 0 0 0 0 0 0 1

Total # of neighbors = 1728198
Ave neighs/atom = 87.9401
Neighbor list builds = 49505
Dangerous builds not checked
Setting up Verlet run ...
  Unit style    : metal
  Current step  : 540000
  Time step     : 0.001
Per MPI rank memory allocation (min/avg/max) = 12.11 | 12.11 | 12.11 Mbytes
Step Temp Press TotEng PotEng Enthalpy 
  540000    1951.2687   -2991.3083   -55324.987   -60281.387   -55856.596 
  540495    1906.5175    -949.8473   -55557.023   -60399.751   -55724.958 
Loop time of 35.8164 on 2 procs for 495 steps with 19652 atoms

Performance: 1.194 ns/day, 20.099 hours/ns, 13.820 timesteps/s
99.9% CPU use with 2 MPI tasks x no OpenMP threads

MPI task timing breakdown:
Section |  min time  |  avg time  |  max time  |%varavg| %total
---------------------------------------------------------------
Pair    | 18.968     | 19.406     | 19.844     |   9.9 | 54.18
Neigh   | 14.674     | 14.852     | 15.03      |   4.6 | 41.47
Comm    | 0.59462    | 1.2173     | 1.84       |  56.4 |  3.40
Output  | 5.9843e-05 | 8.3923e-05 | 0.000108   |   0.0 |  0.00
Modify  | 0.26027    | 0.2615     | 0.26274    |   0.2 |  0.73
Other   |            | 0.07997    |            |       |  0.22

Nlocal:    9826 ave 9845 max 9807 min
Histogram: 1 0 0 0 0 0 0 0 0 1
Nghost:    13826.5 ave 13850 max 13803 min
Histogram: 1 0 0 0 0 0 0 0 0 1
Neighs:    868561 ave 881885 max 855237 min
Histogram: 1 0 0 0 0 0 0 0 0 1

Total # of neighbors = 1737122
Ave neighs/atom = 88.3942
Neighbor list builds = 495
Dangerous builds not checked
Setting up Verlet run ...
  Unit style    : metal
  Current step  : 540495
  Time step     : 0.001
Per MPI rank memory allocation (min/avg/max) = 12.11 | 12.11 | 12.11 Mbytes
Step Temp Press TotEng PotEng Enthalpy 
  540495    1906.5175    -949.8473   -55557.023   -60399.751   -55724.958 
  550000     1907.698   -238.98693   -55584.827   -60430.554   -55627.004 
  590000    1886.2599   -890.25472   -55627.162   -60418.434   -55784.384 
Loop time of 3548.79 on 2 procs for 49505 steps with 19652 atoms

Performance: 1.205 ns/day, 19.913 hours/ns, 13.950 timesteps/s
99.6% CPU use with 2 MPI tasks x no OpenMP threads

MPI task timing breakdown:
Section |  min time  |  avg time  |  max time  |%varavg| %total
---------------------------------------------------------------
Pair    | 1904.8     | 1917.8     | 1930.7     |  29.6 | 54.04
Neigh   | 1488.9     | 1503       | 1517.1     |  36.4 | 42.35
Comm    | 66.424     | 93.624     | 120.82     | 281.1 |  2.64
Output  | 0.041833   | 0.041857   | 0.041881   |   0.0 |  0.00
Modify  | 26.682     | 26.808     | 26.934     |   2.4 |  0.76
Other   |            | 7.603      |            |       |  0.21

Nlocal:    9826 ave 9844 max 9808 min
Histogram: 1 0 0 0 0 0 0 0 0 1
Nghost:    13852.5 ave 13879 max 13826 min
Histogram: 1 0 0 0 0 0 0 0 0 1
Neighs:    869844 ave 880840 max 858847 min
Histogram: 1 0 0 0 0 0 0 0 0 1

Total # of neighbors = 1739687
Ave neighs/atom = 88.5247
Neighbor list builds = 49505
Dangerous builds not checked
Setting up Verlet run ...
  Unit style    : metal
  Current step  : 590000
  Time step     : 0.001
Per MPI rank memory allocation (min/avg/max) = 12.11 | 12.11 | 12.11 Mbytes
Step Temp Press TotEng PotEng Enthalpy 
  590000    1886.2599   -890.25472   -55627.162   -60418.434   -55784.384 
  590495    1864.3844     502.8232   -55820.882   -60556.588   -55732.492 
Loop time of 43.4347 on 2 procs for 495 steps with 19652 atoms

Performance: 0.985 ns/day, 24.374 hours/ns, 11.396 timesteps/s
87.6% CPU use with 2 MPI tasks x no OpenMP threads

MPI task timing breakdown:
Section |  min time  |  avg time  |  max time  |%varavg| %total
---------------------------------------------------------------
Pair    | 19.938     | 20.088     | 20.238     |   3.3 | 46.25
Neigh   | 14.503     | 14.578     | 14.654     |   2.0 | 33.56
Comm    | 7.9483     | 8.2875     | 8.6266     |  11.8 | 19.08
Output  | 7.4863e-05 | 9.3937e-05 | 0.00011301 |   0.0 |  0.00
Modify  | 0.28394    | 0.39758    | 0.51121    |  18.0 |  0.92
Other   |            | 0.08336    |            |       |  0.19

Nlocal:    9826 ave 9833 max 9819 min
Histogram: 1 0 0 0 0 0 0 0 0 1
Nghost:    13839 ave 13849 max 13829 min
Histogram: 1 0 0 0 0 0 0 0 0 1
Neighs:    873521 ave 883469 max 863573 min
Histogram: 1 0 0 0 0 0 0 0 0 1

Total # of neighbors = 1747042
Ave neighs/atom = 88.8989
Neighbor list builds = 495
Dangerous builds not checked
Setting up Verlet run ...
  Unit style    : metal
  Current step  : 590495
  Time step     : 0.001
Per MPI rank memory allocation (min/avg/max) = 12.11 | 12.11 | 12.11 Mbytes
Step Temp Press TotEng PotEng Enthalpy 
  590495    1864.3844     502.8232   -55820.882   -60556.588   -55732.492 
  600000    1863.8818    686.59362   -55926.232   -60660.662   -55805.993 
  640000    1852.7193    802.70431   -55922.868   -60628.944   -55782.186 
Loop time of 4250.35 on 2 procs for 49505 steps with 19652 atoms

Performance: 1.006 ns/day, 23.849 hours/ns, 11.647 timesteps/s
94.8% CPU use with 2 MPI tasks x no OpenMP threads

MPI task timing breakdown:
Section |  min time  |  avg time  |  max time  |%varavg| %total
---------------------------------------------------------------
Pair    | 2221.2     | 2231.5     | 2241.8     |  21.8 | 52.50
Neigh   | 1594.6     | 1599.9     | 1605.2     |  13.3 | 37.64
Comm    | 352.49     | 356.36     | 360.23     |  20.5 |  8.38
Output  | 0.98485    | 0.9849     | 0.98494    |   0.0 |  0.02
Modify  | 52.302     | 53.21      | 54.117     |  12.4 |  1.25
Other   |            | 8.411      |            |       |  0.20

Nlocal:    9826 ave 9842 max 9810 min
Histogram: 1 0 0 0 0 0 0 0 0 1
Nghost:    13869.5 ave 13881 max 13858 min
Histogram: 1 0 0 0 0 0 0 0 0 1
Neighs:    876088 ave 888139 max 864038 min
Histogram: 1 0 0 0 0 0 0 0 0 1

Total # of neighbors = 1752177
Ave neighs/atom = 89.1602
Neighbor list builds = 49505
Dangerous builds not checked
Setting up Verlet run ...
  Unit style    : metal
  Current step  : 640000
  Time step     : 0.001
Per MPI rank memory allocation (min/avg/max) = 12.11 | 12.11 | 12.11 Mbytes
Step Temp Press TotEng PotEng Enthalpy 
  640000    1852.7193    802.70431   -55922.868   -60628.944   -55782.186 
  640495    1817.9718    1500.8614   -56129.124   -60746.938   -55866.956 
Loop time of 33.6325 on 2 procs for 495 steps with 19652 atoms

Performance: 1.272 ns/day, 18.873 hours/ns, 14.718 timesteps/s
100.0% CPU use with 2 MPI tasks x no OpenMP threads

MPI task timing breakdown:
Section |  min time  |  avg time  |  max time  |%varavg| %total
---------------------------------------------------------------
Pair    | 18.091     | 18.166     | 18.242     |   1.8 | 54.01
Neigh   | 14.301     | 14.503     | 14.705     |   5.3 | 43.12
Comm    | 0.36581    | 0.64469    | 0.92358    |  34.7 |  1.92
Output  | 5.5075e-05 | 7.9036e-05 | 0.000103   |   0.0 |  0.00
Modify  | 0.24523    | 0.2475     | 0.24978    |   0.5 |  0.74
Other   |            | 0.07067    |            |       |  0.21

Nlocal:    9826 ave 9836 max 9816 min
Histogram: 1 0 0 0 0 0 0 0 0 1
Nghost:    13867.5 ave 13869 max 13866 min
Histogram: 1 0 0 0 0 0 0 0 0 1
Neighs:    879098 ave 890824 max 867371 min
Histogram: 1 0 0 0 0 0 0 0 0 1

Total # of neighbors = 1758195
Ave neighs/atom = 89.4665
Neighbor list builds = 495
Dangerous builds not checked
Setting up Verlet run ...
  Unit style    : metal
  Current step  : 640495
  Time step     : 0.001
Per MPI rank memory allocation (min/avg/max) = 12.11 | 12.11 | 12.11 Mbytes
Step Temp Press TotEng PotEng Enthalpy 
  640495    1817.9718    1500.8614   -56129.124   -60746.938   -55866.956 
  650000    1795.0023    26.887296    -56190.79   -60750.259    -56186.09 
  690000    1818.2131    983.56598   -56135.882   -60754.309   -55964.121 
Loop time of 3520.43 on 2 procs for 49505 steps with 19652 atoms

Performance: 1.215 ns/day, 19.753 hours/ns, 14.062 timesteps/s
99.2% CPU use with 2 MPI tasks x no OpenMP threads

MPI task timing breakdown:
Section |  min time  |  avg time  |  max time  |%varavg| %total
---------------------------------------------------------------
Pair    | 1886.1     | 1898.3     | 1910.6     |  28.1 | 53.92
Neigh   | 1486.5     | 1490.1     | 1493.6     |   9.1 | 42.33
Comm    | 88.687     | 97.461     | 106.24     |  88.9 |  2.77
Output  | 0.04366    | 0.043696   | 0.043733   |   0.0 |  0.00
Modify  | 26.911     | 26.964     | 27.017     |   1.0 |  0.77
Other   |            | 7.544      |            |       |  0.21

Nlocal:    9826 ave 9832 max 9820 min
Histogram: 1 0 0 0 0 0 0 0 0 1
Nghost:    13918 ave 13918 max 13918 min
Histogram: 2 0 0 0 0 0 0 0 0 0
Neighs:    879086 ave 887957 max 870216 min
Histogram: 1 0 0 0 0 0 0 0 0 1

Total # of neighbors = 1758173
Ave neighs/atom = 89.4653
Neighbor list builds = 49505
Dangerous builds not checked
Setting up Verlet run ...
  Unit style    : metal
  Current step  : 690000
  Time step     : 0.001
Per MPI rank memory allocation (min/avg/max) = 12.11 | 12.11 | 12.11 Mbytes
Step Temp Press TotEng PotEng Enthalpy 
  690000    1818.2131    983.56598   -56135.882   -60754.309   -55964.121 
  690495    1775.3949    844.14816   -56393.721   -60903.386   -56246.932 
Loop time of 34.854 on 2 procs for 495 steps with 19652 atoms

Performance: 1.227 ns/day, 19.559 hours/ns, 14.202 timesteps/s
99.8% CPU use with 2 MPI tasks x no OpenMP threads

MPI task timing breakdown:
Section |  min time  |  avg time  |  max time  |%varavg| %total
---------------------------------------------------------------
Pair    | 18.8       | 18.959     | 19.119     |   3.7 | 54.40
Neigh   | 14.698     | 14.878     | 15.057     |   4.7 | 42.69
Comm    | 0.65779    | 0.67927    | 0.70075    |   2.6 |  1.95
Output  | 5.7936e-05 | 7.7486e-05 | 9.7036e-05 |   0.0 |  0.00
Modify  | 0.25797    | 0.25868    | 0.25939    |   0.1 |  0.74
Other   |            | 0.07908    |            |       |  0.23

Nlocal:    9826 ave 9841 max 9811 min
Histogram: 1 0 0 0 0 0 0 0 0 1
Nghost:    13918.5 ave 13928 max 13909 min
Histogram: 1 0 0 0 0 0 0 0 0 1
Neighs:    882811 ave 890462 max 875160 min
Histogram: 1 0 0 0 0 0 0 0 0 1

Total # of neighbors = 1765622
Ave neighs/atom = 89.8444
Neighbor list builds = 495
Dangerous builds not checked
Setting up Verlet run ...
  Unit style    : metal
  Current step  : 690495
  Time step     : 0.001
Per MPI rank memory allocation (min/avg/max) = 12.11 | 12.11 | 12.11 Mbytes
Step Temp Press TotEng PotEng Enthalpy 
  690495    1775.3949    844.14816   -56393.721   -60903.386   -56246.932 
  700000    1735.8425    763.34482   -56542.647   -60951.845   -56410.116 
  740000    1755.7504   -1762.1182   -56455.296   -60915.062   -56762.518 
Loop time of 3393.41 on 2 procs for 49505 steps with 19652 atoms

Performance: 1.260 ns/day, 19.041 hours/ns, 14.589 timesteps/s
100.0% CPU use with 2 MPI tasks x no OpenMP threads

MPI task timing breakdown:
Section |  min time  |  avg time  |  max time  |%varavg| %total
---------------------------------------------------------------
Pair    | 1824.1     | 1836       | 1847.9     |  27.8 | 54.11
Neigh   | 1467.2     | 1469.2     | 1471.2     |   5.1 | 43.30
Comm    | 42.247     | 56.207     | 70.167     | 186.2 |  1.66
Output  | 0.040165   | 0.040203   | 0.04024    |   0.0 |  0.00
Modify  | 24.484     | 24.543     | 24.602     |   1.2 |  0.72
Other   |            | 7.414      |            |       |  0.22

Nlocal:    9826 ave 9840 max 9812 min
Histogram: 1 0 0 0 0 0 0 0 0 1
Nghost:    13872 ave 13926 max 13818 min
Histogram: 1 0 0 0 0 0 0 0 0 1
Neighs:    880520 ave 887230 max 873809 min
Histogram: 1 0 0 0 0 0 0 0 0 1

Total # of neighbors = 1761039
Ave neighs/atom = 89.6112
Neighbor list builds = 49505
Dangerous builds not checked
Setting up Verlet run ...
  Unit style    : metal
  Current step  : 740000
  Time step     : 0.001
Per MPI rank memory allocation (min/avg/max) = 12.11 | 12.11 | 12.11 Mbytes
Step Temp Press TotEng PotEng Enthalpy 
  740000    1755.7504   -1762.1182   -56455.296   -60915.062   -56762.518 
  740495    1709.2826   -134.89025   -56719.982   -61061.716   -56743.353 
Loop time of 33.8207 on 2 procs for 495 steps with 19652 atoms

Performance: 1.265 ns/day, 18.979 hours/ns, 14.636 timesteps/s
100.0% CPU use with 2 MPI tasks x no OpenMP threads

MPI task timing breakdown:
Section |  min time  |  avg time  |  max time  |%varavg| %total
---------------------------------------------------------------
Pair    | 17.893     | 18.255     | 18.617     |   8.5 | 53.98
Neigh   | 14.263     | 14.377     | 14.491     |   3.0 | 42.51
Comm    | 0.38487    | 0.86696    | 1.3491     |  51.8 |  2.56
Output  | 6.0797e-05 | 8.738e-05  | 0.00011396 |   0.0 |  0.00
Modify  | 0.24471    | 0.2457     | 0.2467     |   0.2 |  0.73
Other   |            | 0.07584    |            |       |  0.22

Nlocal:    9826 ave 9828 max 9824 min
Histogram: 1 0 0 0 0 0 0 0 0 1
Nghost:    13919.5 ave 13947 max 13892 min
Histogram: 1 0 0 0 0 0 0 0 0 1
Neighs:    886007 ave 895179 max 876835 min
Histogram: 1 0 0 0 0 0 0 0 0 1

Total # of neighbors = 1772014
Ave neighs/atom = 90.1697
Neighbor list builds = 495
Dangerous builds not checked
Setting up Verlet run ...
  Unit style    : metal
  Current step  : 740495
  Time step     : 0.001
Per MPI rank memory allocation (min/avg/max) = 12.11 | 12.11 | 12.11 Mbytes
Step Temp Press TotEng PotEng Enthalpy 
  740495    1709.2826   -134.89025   -56719.982   -61061.716   -56743.353 
  750000    1703.3339    112.59138   -56791.197   -61117.821   -56771.723 
  790000    1691.3167     410.0149   -56859.743   -61155.842   -56788.931 
Loop time of 3443.64 on 2 procs for 49505 steps with 19652 atoms

Performance: 1.242 ns/day, 19.323 hours/ns, 14.376 timesteps/s
99.9% CPU use with 2 MPI tasks x no OpenMP threads

MPI task timing breakdown:
Section |  min time  |  avg time  |  max time  |%varavg| %total
---------------------------------------------------------------
Pair    | 1854.2     | 1867.7     | 1881.2     |  31.2 | 54.24
Neigh   | 1475       | 1475.7     | 1476.4     |   1.8 | 42.85
Comm    | 50.211     | 64.276     | 78.341     | 175.4 |  1.87
Output  | 0.039757   | 0.039785   | 0.039813   |   0.0 |  0.00
Modify  | 28.261     | 28.293     | 28.324     |   0.6 |  0.82
Other   |            | 7.664      |            |       |  0.22

Nlocal:    9826 ave 9827 max 9825 min
Histogram: 1 0 0 0 0 0 0 0 0 1
Nghost:    13948 ave 13961 max 13935 min
Histogram: 1 0 0 0 0 0 0 0 0 1
Neighs:    888748 ave 897371 max 880124 min
Histogram: 1 0 0 0 0 0 0 0 0 1

Total # of neighbors = 1777495
Ave neighs/atom = 90.4486
Neighbor list builds = 49505
Dangerous builds not checked
Setting up Verlet run ...
  Unit style    : metal
  Current step  : 790000
  Time step     : 0.001
Per MPI rank memory allocation (min/avg/max) = 12.11 | 12.11 | 12.11 Mbytes
Step Temp Press TotEng PotEng Enthalpy 
  790000    1691.3167     410.0149   -56859.743   -61155.842   -56788.931 
  790495    1662.8834    1147.4351    -56991.39   -61215.265   -56793.703 
Loop time of 32.9902 on 2 procs for 495 steps with 19652 atoms

Performance: 1.296 ns/day, 18.513 hours/ns, 15.004 timesteps/s
99.3% CPU use with 2 MPI tasks x no OpenMP threads

MPI task timing breakdown:
Section |  min time  |  avg time  |  max time  |%varavg| %total
---------------------------------------------------------------
Pair    | 17.782     | 17.928     | 18.074     |   3.4 | 54.34
Neigh   | 14.287     | 14.287     | 14.287     |   0.0 | 43.31
Comm    | 0.31869    | 0.46398    | 0.60928    |  21.3 |  1.41
Output  | 5.3167e-05 | 7.5102e-05 | 9.7036e-05 |   0.0 |  0.00
Modify  | 0.24089    | 0.24102    | 0.24116    |   0.0 |  0.73
Other   |            | 0.07039    |            |       |  0.21

Nlocal:    9826 ave 9838 max 9814 min
Histogram: 1 0 0 0 0 0 0 0 0 1
Nghost:    13958.5 ave 13976 max 13941 min
Histogram: 1 0 0 0 0 0 0 0 0 1
Neighs:    890442 ave 900098 max 880787 min
Histogram: 1 0 0 0 0 0 0 0 0 1

Total # of neighbors = 1780885
Ave neighs/atom = 90.6211
Neighbor list builds = 495
Dangerous builds not checked
Setting up Verlet run ...
  Unit style    : metal
  Current step  : 790495
  Time step     : 0.001
Per MPI rank memory allocation (min/avg/max) = 12.11 | 12.11 | 12.11 Mbytes
Step Temp Press TotEng PotEng Enthalpy 
  790495    1662.8834    1147.4351    -56991.39   -61215.265   -56793.703 
  800000     1671.636    579.72554   -57097.362   -61343.469   -56997.745 
  840000     1638.941   -778.62855   -57177.694   -61340.753   -57311.646 
Loop time of 3420.55 on 2 procs for 49505 steps with 19652 atoms

Performance: 1.250 ns/day, 19.193 hours/ns, 14.473 timesteps/s
99.5% CPU use with 2 MPI tasks x no OpenMP threads

MPI task timing breakdown:
Section |  min time  |  avg time  |  max time  |%varavg| %total
---------------------------------------------------------------
Pair    | 1830.7     | 1846.2     | 1861.7     |  36.0 | 53.97
Neigh   | 1463.7     | 1465.5     | 1467.3     |   4.7 | 42.84
Comm    | 57.97      | 75.34      | 92.71      | 200.1 |  2.20
Output  | 0.11845    | 0.11848    | 0.11851    |   0.0 |  0.00
Modify  | 25.73      | 25.907     | 26.084     |   3.5 |  0.76
Other   |            | 7.494      |            |       |  0.22

Nlocal:    9826 ave 9847 max 9805 min
Histogram: 1 0 0 0 0 0 0 0 0 1
Nghost:    13970 ave 13990 max 13950 min
Histogram: 1 0 0 0 0 0 0 0 0 1
Neighs:    891290 ave 897099 max 885481 min
Histogram: 1 0 0 0 0 0 0 0 0 1

Total # of neighbors = 1782580
Ave neighs/atom = 90.7073
Neighbor list builds = 49505
Dangerous builds not checked
Setting up Verlet run ...
  Unit style    : metal
  Current step  : 840000
  Time step     : 0.001
Per MPI rank memory allocation (min/avg/max) = 12.11 | 12.11 | 12.11 Mbytes
Step Temp Press TotEng PotEng Enthalpy 
  840000     1638.941   -778.62855   -57177.694   -61340.753   -57311.646 
  840495    1611.6371    487.32398   -57309.946   -61403.651   -57226.354 
Loop time of 32.792 on 2 procs for 495 steps with 19652 atoms

Performance: 1.304 ns/day, 18.402 hours/ns, 15.095 timesteps/s
100.0% CPU use with 2 MPI tasks x no OpenMP threads

MPI task timing breakdown:
Section |  min time  |  avg time  |  max time  |%varavg| %total
---------------------------------------------------------------
Pair    | 17.6       | 17.743     | 17.886     |   3.4 | 54.11
Neigh   | 14.278     | 14.297     | 14.316     |   0.5 | 43.60
Comm    | 0.31766    | 0.44195    | 0.56623    |  18.7 |  1.35
Output  | 5.3167e-05 | 7.1645e-05 | 9.0122e-05 |   0.0 |  0.00
Modify  | 0.23925    | 0.23944    | 0.23962    |   0.0 |  0.73
Other   |            | 0.07049    |            |       |  0.21

Nlocal:    9826 ave 9848 max 9804 min
Histogram: 1 0 0 0 0 0 0 0 0 1
Nghost:    14028 ave 14044 max 14012 min
Histogram: 1 0 0 0 0 0 0 0 0 1
Neighs:    894466 ave 901924 max 887008 min
Histogram: 1 0 0 0 0 0 0 0 0 1

Total # of neighbors = 1788932
Ave neighs/atom = 91.0305
Neighbor list builds = 495
Dangerous builds not checked
Setting up Verlet run ...
  Unit style    : metal
  Current step  : 840495
  Time step     : 0.001
Per MPI rank memory allocation (min/avg/max) = 12.11 | 12.11 | 12.11 Mbytes
Step Temp Press TotEng PotEng Enthalpy 
  840495    1611.6371    487.32398   -57309.946   -61403.651   -57226.354 
  850000    1578.4525   -796.27843   -57490.902   -61500.315   -57627.197 
  890000     1586.079   -762.84069   -57439.562   -61468.347   -57570.275 
Loop time of 3385.01 on 2 procs for 49505 steps with 19652 atoms

Performance: 1.264 ns/day, 18.994 hours/ns, 14.625 timesteps/s
99.8% CPU use with 2 MPI tasks x no OpenMP threads

MPI task timing breakdown:
Section |  min time  |  avg time  |  max time  |%varavg| %total
---------------------------------------------------------------
Pair    | 1809.8     | 1826.9     | 1843.9     |  39.9 | 53.97
Neigh   | 1458.4     | 1459.4     | 1460.5     |   2.7 | 43.12
Comm    | 48.704     | 66.835     | 84.966     | 221.8 |  1.97
Output  | 0.043422   | 0.043462   | 0.043502   |   0.0 |  0.00
Modify  | 24.358     | 24.376     | 24.394     |   0.4 |  0.72
Other   |            | 7.447      |            |       |  0.22

Nlocal:    9826 ave 9842 max 9810 min
Histogram: 1 0 0 0 0 0 0 0 0 1
Nghost:    14008 ave 14012 max 14004 min
Histogram: 1 0 0 0 0 0 0 0 0 1
Neighs:    895214 ave 901876 max 888553 min
Histogram: 1 0 0 0 0 0 0 0 0 1

Total # of neighbors = 1790429
Ave neighs/atom = 91.1067
Neighbor list builds = 49505
Dangerous builds not checked
Setting up Verlet run ...
  Unit style    : metal
  Current step  : 890000
  Time step     : 0.001
Per MPI rank memory allocation (min/avg/max) = 12.11 | 12.11 | 12.11 Mbytes
Step Temp Press TotEng PotEng Enthalpy 
  890000     1586.079   -762.84069   -57439.562   -61468.347   -57570.275 
  890495    1559.9601    525.69693   -57623.523   -61585.964   -57533.811 
Loop time of 36.0848 on 2 procs for 495 steps with 19652 atoms

Performance: 1.185 ns/day, 20.250 hours/ns, 13.718 timesteps/s
100.0% CPU use with 2 MPI tasks x no OpenMP threads

MPI task timing breakdown:
Section |  min time  |  avg time  |  max time  |%varavg| %total
---------------------------------------------------------------
Pair    | 19.795     | 19.819     | 19.843     |   0.5 | 54.92
Neigh   | 14.342     | 14.941     | 15.539     |  15.5 | 41.40
Comm    | 0.36006    | 0.99387    | 1.6277     |  63.6 |  2.75
Output  | 6.2943e-05 | 9.0957e-05 | 0.00011897 |   0.0 |  0.00
Modify  | 0.25047    | 0.2588     | 0.26712    |   1.6 |  0.72
Other   |            | 0.07267    |            |       |  0.20

Nlocal:    9826 ave 9851 max 9801 min
Histogram: 1 0 0 0 0 0 0 0 0 1
Nghost:    14023.5 ave 14048 max 13999 min
Histogram: 1 0 0 0 0 0 0 0 0 1
Neighs:    898592 ave 904301 max 892883 min
Histogram: 1 0 0 0 0 0 0 0 0 1

Total # of neighbors = 1797184
Ave neighs/atom = 91.4504
Neighbor list builds = 495
Dangerous builds not checked
Setting up Verlet run ...
  Unit style    : metal
  Current step  : 890495
  Time step     : 0.001
Per MPI rank memory allocation (min/avg/max) = 12.11 | 12.11 | 12.11 Mbytes
Step Temp Press TotEng PotEng Enthalpy 
  890495    1559.9601    525.69693   -57623.523   -61585.964   -57533.811 
  900000    1557.6368   -314.98037   -57694.514   -61651.054   -57748.207 
  940000    1530.6127   -793.21981   -57812.848   -61700.744   -57947.895 
Loop time of 3486.25 on 2 procs for 49505 steps with 19652 atoms

Performance: 1.227 ns/day, 19.562 hours/ns, 14.200 timesteps/s
99.8% CPU use with 2 MPI tasks x no OpenMP threads

MPI task timing breakdown:
Section |  min time  |  avg time  |  max time  |%varavg| %total
---------------------------------------------------------------
Pair    | 1879.4     | 1892       | 1904.6     |  28.9 | 54.27
Neigh   | 1478.6     | 1481.6     | 1484.6     |   7.8 | 42.50
Comm    | 64.364     | 79.916     | 95.468     | 174.0 |  2.29
Output  | 0.041288   | 0.041316   | 0.041343   |   0.0 |  0.00
Modify  | 24.959     | 25.024     | 25.09      |   1.3 |  0.72
Other   |            | 7.663      |            |       |  0.22

Nlocal:    9826 ave 9830 max 9822 min
Histogram: 1 0 0 0 0 0 0 0 0 1
Nghost:    14103.5 ave 14130 max 14077 min
Histogram: 1 0 0 0 0 0 0 0 0 1
Neighs:    900838 ave 909673 max 892002 min
Histogram: 1 0 0 0 0 0 0 0 0 1

Total # of neighbors = 1801675
Ave neighs/atom = 91.679
Neighbor list builds = 49505
Dangerous builds not checked
Setting up Verlet run ...
  Unit style    : metal
  Current step  : 940000
  Time step     : 0.001
Per MPI rank memory allocation (min/avg/max) = 12.11 | 12.11 | 12.11 Mbytes
Step Temp Press TotEng PotEng Enthalpy 
  940000    1530.6127   -793.21981   -57812.848   -61700.744   -57947.895 
  940495    1509.7299   -195.59252   -57893.837   -61728.689   -57927.092 
Loop time of 33.0577 on 2 procs for 495 steps with 19652 atoms

Performance: 1.294 ns/day, 18.551 hours/ns, 14.974 timesteps/s
100.0% CPU use with 2 MPI tasks x no OpenMP threads

MPI task timing breakdown:
Section |  min time  |  avg time  |  max time  |%varavg| %total
---------------------------------------------------------------
Pair    | 17.814     | 17.96      | 18.106     |   3.4 | 54.33
Neigh   | 14.286     | 14.306     | 14.327     |   0.6 | 43.28
Comm    | 0.31663    | 0.48377    | 0.65091    |  24.0 |  1.46
Output  | 4.7922e-05 | 6.3419e-05 | 7.8917e-05 |   0.0 |  0.00
Modify  | 0.23833    | 0.2388     | 0.23927    |   0.1 |  0.72
Other   |            | 0.06871    |            |       |  0.21

Nlocal:    9826 ave 9841 max 9811 min
Histogram: 1 0 0 0 0 0 0 0 0 1
Nghost:    14055 ave 14066 max 14044 min
Histogram: 1 0 0 0 0 0 0 0 0 1
Neighs:    901844 ave 908957 max 894730 min
Histogram: 1 0 0 0 0 0 0 0 0 1

Total # of neighbors = 1803687
Ave neighs/atom = 91.7813
Neighbor list builds = 495
Dangerous builds not checked
Setting up Verlet run ...
  Unit style    : metal
  Current step  : 940495
  Time step     : 0.001
Per MPI rank memory allocation (min/avg/max) = 12.11 | 12.11 | 12.11 Mbytes
Step Temp Press TotEng PotEng Enthalpy 
  940495    1509.7299   -195.59252   -57893.837   -61728.689   -57927.092 
  950000    1495.5067   -110.20936   -58085.621   -61884.344   -58104.283 
  990000    1495.3872   -383.34684   -58032.013   -61830.433   -58097.057 
Loop time of 3526.99 on 2 procs for 49505 steps with 19652 atoms

Performance: 1.213 ns/day, 19.790 hours/ns, 14.036 timesteps/s
99.9% CPU use with 2 MPI tasks x no OpenMP threads

MPI task timing breakdown:
Section |  min time  |  avg time  |  max time  |%varavg| %total
---------------------------------------------------------------
Pair    | 1913.8     | 1929       | 1944.2     |  34.6 | 54.69
Neigh   | 1491.4     | 1493.3     | 1495.2     |   5.0 | 42.34
Comm    | 54.705     | 71.805     | 88.905     | 201.8 |  2.04
Output  | 0.044689   | 0.044728   | 0.044767   |   0.0 |  0.00
Modify  | 25.228     | 25.276     | 25.324     |   1.0 |  0.72
Other   |            | 7.561      |            |       |  0.21

Nlocal:    9826 ave 9831 max 9821 min
Histogram: 1 0 0 0 0 0 0 0 0 1
Nghost:    14076.5 ave 14100 max 14053 min
Histogram: 1 0 0 0 0 0 0 0 0 1
Neighs:    903321 ave 912340 max 894302 min
Histogram: 1 0 0 0 0 0 0 0 0 1

Total # of neighbors = 1806642
Ave neighs/atom = 91.9317
Neighbor list builds = 49505
Dangerous builds not checked
Setting up Verlet run ...
  Unit style    : metal
  Current step  : 990000
  Time step     : 0.001
Per MPI rank memory allocation (min/avg/max) = 12.11 | 12.11 | 12.11 Mbytes
Step Temp Press TotEng PotEng Enthalpy 
  990000    1495.3872   -383.34684   -58032.013   -61830.433   -58097.057 
  990495    1461.1975   -368.67649   -58228.139   -61939.714   -58290.478 
Loop time of 37.0334 on 2 procs for 495 steps with 19652 atoms

Performance: 1.155 ns/day, 20.782 hours/ns, 13.366 timesteps/s
100.0% CPU use with 2 MPI tasks x no OpenMP threads

MPI task timing breakdown:
Section |  min time  |  avg time  |  max time  |%varavg| %total
---------------------------------------------------------------
Pair    | 20.384     | 20.48      | 20.576     |   2.1 | 55.30
Neigh   | 14.936     | 15.141     | 15.345     |   5.3 | 40.88
Comm    | 0.76891    | 1.0736     | 1.3782     |  29.4 |  2.90
Output  | 4.9829e-05 | 7.7844e-05 | 0.00010586 |   0.0 |  0.00
Modify  | 0.26077    | 0.26411    | 0.26746    |   0.7 |  0.71
Other   |            | 0.07484    |            |       |  0.20

Nlocal:    9826 ave 9827 max 9825 min
Histogram: 1 0 0 0 0 0 0 0 0 1
Nghost:    14073.5 ave 14110 max 14037 min
Histogram: 1 0 0 0 0 0 0 0 0 1
Neighs:    906910 ave 917026 max 896794 min
Histogram: 1 0 0 0 0 0 0 0 0 1

Total # of neighbors = 1813820
Ave neighs/atom = 92.297
Neighbor list builds = 495
Dangerous builds not checked
Setting up Verlet run ...
  Unit style    : metal
  Current step  : 990495
  Time step     : 0.001
Per MPI rank memory allocation (min/avg/max) = 12.11 | 12.11 | 12.11 Mbytes
Step Temp Press TotEng PotEng Enthalpy 
  990495    1461.1975   -368.67649   -58228.139   -61939.714   -58290.478 
 1000000    1457.9413    1506.4775   -58313.817   -62017.121   -58060.015 
 1040000    1460.3335    1219.7554   -58308.801   -62018.182   -58103.287 
Loop time of 3711.99 on 2 procs for 49505 steps with 19652 atoms

Performance: 1.152 ns/day, 20.828 hours/ns, 13.336 timesteps/s
99.9% CPU use with 2 MPI tasks x no OpenMP threads

MPI task timing breakdown:
Section |  min time  |  avg time  |  max time  |%varavg| %total
---------------------------------------------------------------
Pair    | 2030.8     | 2046.3     | 2061.8     |  34.2 | 55.13
Neigh   | 1535.4     | 1536.5     | 1537.6     |   2.8 | 41.39
Comm    | 80.627     | 94.91      | 109.19     | 146.6 |  2.56
Output  | 0.052325   | 0.052364   | 0.052402   |   0.0 |  0.00
Modify  | 26.498     | 26.505     | 26.513     |   0.1 |  0.71
Other   |            | 7.777      |            |       |  0.21

Nlocal:    9826 ave 9847 max 9805 min
Histogram: 1 0 0 0 0 0 0 0 0 1
Nghost:    14077.5 ave 14082 max 14073 min
Histogram: 1 0 0 0 0 0 0 0 0 1
Neighs:    909656 ave 916218 max 903094 min
Histogram: 1 0 0 0 0 0 0 0 0 1

Total # of neighbors = 1819312
Ave neighs/atom = 92.5764
Neighbor list builds = 49505
Dangerous builds not checked
Setting up Verlet run ...
  Unit style    : metal
  Current step  : 1040000
  Time step     : 0.001
Per MPI rank memory allocation (min/avg/max) = 12.11 | 12.11 | 12.11 Mbytes
Step Temp Press TotEng PotEng Enthalpy 
 1040000    1460.3335    1219.7554   -58308.801   -62018.182   -58103.287 
 1040495    1421.3036     348.6319   -58531.555   -62141.795   -58472.974 
Loop time of 36.9268 on 2 procs for 495 steps with 19652 atoms

Performance: 1.158 ns/day, 20.722 hours/ns, 13.405 timesteps/s
100.0% CPU use with 2 MPI tasks x no OpenMP threads

MPI task timing breakdown:
Section |  min time  |  avg time  |  max time  |%varavg| %total
---------------------------------------------------------------
Pair    | 20.329     | 20.421     | 20.512     |   2.0 | 55.30
Neigh   | 14.814     | 15.099     | 15.384     |   7.3 | 40.89
Comm    | 0.68684    | 1.0693     | 1.4518     |  37.0 |  2.90
Output  | 6.5088e-05 | 9.8586e-05 | 0.00013208 |   0.0 |  0.00
Modify  | 0.25874    | 0.26309    | 0.26744    |   0.8 |  0.71
Other   |            | 0.07446    |            |       |  0.20

Nlocal:    9826 ave 9832 max 9820 min
Histogram: 1 0 0 0 0 0 0 0 0 1
Nghost:    14106.5 ave 14138 max 14075 min
Histogram: 1 0 0 0 0 0 0 0 0 1
Neighs:    911984 ave 918876 max 905091 min
Histogram: 1 0 0 0 0 0 0 0 0 1

Total # of neighbors = 1823967
Ave neighs/atom = 92.8133
Neighbor list builds = 495
Dangerous builds not checked
Setting up Verlet run ...
  Unit style    : metal
  Current step  : 1040495
  Time step     : 0.001
Per MPI rank memory allocation (min/avg/max) = 12.11 | 12.11 | 12.11 Mbytes
Step Temp Press TotEng PotEng Enthalpy 
 1040495    1421.3036     348.6319   -58531.555   -62141.795   -58472.974 
 1050000    1412.1799   -860.10557   -58637.989   -62225.054   -58782.438 
 1090000    1401.5284   -1697.2299   -58569.431   -62129.441   -58855.373 
Loop time of 3519.9 on 2 procs for 49505 steps with 19652 atoms

Performance: 1.215 ns/day, 19.751 hours/ns, 14.064 timesteps/s
99.9% CPU use with 2 MPI tasks x no OpenMP threads

MPI task timing breakdown:
Section |  min time  |  avg time  |  max time  |%varavg| %total
---------------------------------------------------------------
Pair    | 1913.2     | 1929.4     | 1945.6     |  36.9 | 54.81
Neigh   | 1485.3     | 1486.2     | 1487.2     |   2.5 | 42.22
Comm    | 56.429     | 71.661     | 86.893     | 179.9 |  2.04
Output  | 0.03611    | 0.036146   | 0.036181   |   0.0 |  0.00
Modify  | 25.113     | 25.135     | 25.156     |   0.4 |  0.71
Other   |            | 7.413      |            |       |  0.21

Nlocal:    9826 ave 9838 max 9814 min
Histogram: 1 0 0 0 0 0 0 0 0 1
Nghost:    14154.5 ave 14155 max 14154 min
Histogram: 1 0 0 0 0 0 0 0 0 1
Neighs:    909524 ave 917523 max 901524 min
Histogram: 1 0 0 0 0 0 0 0 0 1

Total # of neighbors = 1819047
Ave neighs/atom = 92.5629
Neighbor list builds = 49505
Dangerous builds not checked
Setting up Verlet run ...
  Unit style    : metal
  Current step  : 1090000
  Time step     : 0.001
Per MPI rank memory allocation (min/avg/max) = 12.11 | 12.11 | 12.11 Mbytes
Step Temp Press TotEng PotEng Enthalpy 
 1090000    1401.5284   -1697.2299   -58569.431   -62129.441   -58855.373 
 1090495    1356.0119    22.329347   -58846.093   -62290.486   -58842.355 
Loop time of 33.4428 on 2 procs for 495 steps with 19652 atoms

Performance: 1.279 ns/day, 18.767 hours/ns, 14.801 timesteps/s
100.0% CPU use with 2 MPI tasks x no OpenMP threads

MPI task timing breakdown:
Section |  min time  |  avg time  |  max time  |%varavg| %total
---------------------------------------------------------------
Pair    | 18.314     | 18.341     | 18.368     |   0.6 | 54.84
Neigh   | 14.333     | 14.365     | 14.397     |   0.8 | 42.95
Comm    | 0.40349    | 0.41452    | 0.42554    |   1.7 |  1.24
Output  | 5.2214e-05 | 7.3195e-05 | 9.4175e-05 |   0.0 |  0.00
Modify  | 0.24619    | 0.24627    | 0.24636    |   0.0 |  0.74
Other   |            | 0.07612    |            |       |  0.23

Nlocal:    9826 ave 9852 max 9800 min
Histogram: 1 0 0 0 0 0 0 0 0 1
Nghost:    14165.5 ave 14192 max 14139 min
Histogram: 1 0 0 0 0 0 0 0 0 1
Neighs:    915190 ave 926118 max 904261 min
Histogram: 1 0 0 0 0 0 0 0 0 1

Total # of neighbors = 1830379
Ave neighs/atom = 93.1396
Neighbor list builds = 495
Dangerous builds not checked
Setting up Verlet run ...
  Unit style    : metal
  Current step  : 1090495
  Time step     : 0.001
Per MPI rank memory allocation (min/avg/max) = 12.11 | 12.11 | 12.11 Mbytes
Step Temp Press TotEng PotEng Enthalpy 
 1090495    1356.0119    22.329347   -58846.093   -62290.486   -58842.355 
 1100000    1344.3011    -176.7897   -58999.066   -62413.713   -59028.586 
 1140000    1350.1185   -298.93636    -58991.71   -62421.134   -59041.591 
Loop time of 3566.84 on 2 procs for 49505 steps with 19652 atoms

Performance: 1.199 ns/day, 20.014 hours/ns, 13.879 timesteps/s
99.7% CPU use with 2 MPI tasks x no OpenMP threads

MPI task timing breakdown:
Section |  min time  |  avg time  |  max time  |%varavg| %total
---------------------------------------------------------------
Pair    | 1937.9     | 1952.4     | 1967       |  32.9 | 54.74
Neigh   | 1491.9     | 1492.4     | 1493       |   1.5 | 41.84
Comm    | 72.671     | 86.078     | 99.484     | 144.5 |  2.41
Output  | 0.089977   | 0.090012   | 0.090047   |   0.0 |  0.00
Modify  | 26.632     | 28.315     | 29.999     |  31.6 |  0.79
Other   |            | 7.496      |            |       |  0.21

Nlocal:    9826 ave 9853 max 9799 min
Histogram: 1 0 0 0 0 0 0 0 0 1
Nghost:    14099 ave 14102 max 14096 min
Histogram: 1 0 0 0 0 0 0 0 0 1
Neighs:    917467 ave 923831 max 911103 min
Histogram: 1 0 0 0 0 0 0 0 0 1

Total # of neighbors = 1834934
Ave neighs/atom = 93.3714
Neighbor list builds = 49505
Dangerous builds not checked
Setting up Verlet run ...
  Unit style    : metal
  Current step  : 1140000
  Time step     : 0.001
Per MPI rank memory allocation (min/avg/max) = 12.11 | 12.11 | 12.11 Mbytes
Step Temp Press TotEng PotEng Enthalpy 
 1140000    1350.1185   -298.93636    -58991.71   -62421.134   -59041.591 
 1140495    1322.3386   -319.96992   -59187.565   -62546.426    -59240.81 
Loop time of 38.641 on 2 procs for 495 steps with 19652 atoms

Performance: 1.107 ns/day, 21.684 hours/ns, 12.810 timesteps/s
99.9% CPU use with 2 MPI tasks x no OpenMP threads

MPI task timing breakdown:
Section |  min time  |  avg time  |  max time  |%varavg| %total
---------------------------------------------------------------
Pair    | 21.454     | 21.503     | 21.552     |   1.1 | 55.65
Neigh   | 15.085     | 15.606     | 16.127     |  13.2 | 40.39
Comm    | 0.6011     | 1.1801     | 1.7592     |  53.3 |  3.05
Output  | 6.9857e-05 | 9.6917e-05 | 0.00012398 |   0.0 |  0.00
Modify  | 0.26754    | 0.27447    | 0.28139    |   1.3 |  0.71
Other   |            | 0.0776     |            |       |  0.20

Nlocal:    9826 ave 9828 max 9824 min
Histogram: 1 0 0 0 0 0 0 0 0 1
Nghost:    14168.5 ave 14188 max 14149 min
Histogram: 1 0 0 0 0 0 0 0 0 1
Neighs:    919990 ave 930776 max 909205 min
Histogram: 1 0 0 0 0 0 0 0 0 1

Total # of neighbors = 1839981
Ave neighs/atom = 93.6282
Neighbor list builds = 495
Dangerous builds not checked
Setting up Verlet run ...
  Unit style    : metal
  Current step  : 1140495
  Time step     : 0.001
Per MPI rank memory allocation (min/avg/max) = 12.11 | 12.11 | 12.11 Mbytes
Step Temp Press TotEng PotEng Enthalpy 
 1140495    1322.3386   -319.96992   -59187.565   -62546.426    -59240.81 
 1150000    1310.2715    2186.4532   -59244.434   -62572.643   -58881.686 
 1190000    1307.3728     446.2505   -59304.546   -62625.393   -59230.491 
Loop time of 4224.97 on 2 procs for 49505 steps with 19652 atoms

Performance: 1.012 ns/day, 23.707 hours/ns, 11.717 timesteps/s
99.6% CPU use with 2 MPI tasks x no OpenMP threads

MPI task timing breakdown:
Section |  min time  |  avg time  |  max time  |%varavg| %total
---------------------------------------------------------------
Pair    | 2340       | 2358.2     | 2376.4     |  37.4 | 55.82
Neigh   | 1671.2     | 1679.7     | 1688.3     |  20.8 | 39.76
Comm    | 138.22     | 147.93     | 157.64     |  79.8 |  3.50
Output  | 0.04065    | 0.040677   | 0.040705   |   0.0 |  0.00
Modify  | 30.202     | 30.481     | 30.76      |   5.1 |  0.72
Other   |            | 8.543      |            |       |  0.20

Nlocal:    9826 ave 9826 max 9826 min
Histogram: 2 0 0 0 0 0 0 0 0 0
Nghost:    14227 ave 14236 max 14218 min
Histogram: 1 0 0 0 0 0 0 0 0 1
Neighs:    922553 ave 932255 max 912851 min
Histogram: 1 0 0 0 0 0 0 0 0 1

Total # of neighbors = 1845106
Ave neighs/atom = 93.889
Neighbor list builds = 49505
Dangerous builds not checked
Setting up Verlet run ...
  Unit style    : metal
  Current step  : 1190000
  Time step     : 0.001
Per MPI rank memory allocation (min/avg/max) = 12.11 | 12.11 | 12.11 Mbytes
Step Temp Press TotEng PotEng Enthalpy 
 1190000    1307.3728     446.2505   -59304.546   -62625.393   -59230.491 
 1190495     1270.738   -548.32033   -59521.556   -62749.346   -59612.298 
Loop time of 45.3505 on 2 procs for 495 steps with 19652 atoms

Performance: 0.943 ns/day, 25.449 hours/ns, 10.915 timesteps/s
99.8% CPU use with 2 MPI tasks x no OpenMP threads

MPI task timing breakdown:
Section |  min time  |  avg time  |  max time  |%varavg| %total
---------------------------------------------------------------
Pair    | 25.258     | 25.544     | 25.83      |   5.7 | 56.33
Neigh   | 16.364     | 17.704     | 19.045     |  31.9 | 39.04
Comm    | 0.58148    | 1.6703     | 2.7592     |  84.2 |  3.68
Output  | 8.1062e-05 | 9.5963e-05 | 0.00011086 |   0.0 |  0.00
Modify  | 0.31536    | 0.33562    | 0.35588    |   3.5 |  0.74
Other   |            | 0.09617    |            |       |  0.21

Nlocal:    9826 ave 9834 max 9818 min
Histogram: 1 0 0 0 0 0 0 0 0 1
Nghost:    14170 ave 14175 max 14165 min
Histogram: 1 0 0 0 0 0 0 0 0 1
Neighs:    925038 ave 934451 max 915624 min
Histogram: 1 0 0 0 0 0 0 0 0 1

Total # of neighbors = 1850075
Ave neighs/atom = 94.1418
Neighbor list builds = 495
Dangerous builds not checked
Setting up Verlet run ...
  Unit style    : metal
  Current step  : 1190495
  Time step     : 0.001
Per MPI rank memory allocation (min/avg/max) = 12.11 | 12.11 | 12.11 Mbytes
Step Temp Press TotEng PotEng Enthalpy 
 1190495     1270.738   -548.32033   -59521.556   -62749.346   -59612.298 
 1200000    1244.3987   -2428.7525   -59634.141   -62795.027   -60036.355 
 1240000    1262.3403   -1054.0398   -59581.321    -62787.78   -59755.693 
Loop time of 4777.91 on 2 procs for 49505 steps with 19652 atoms

Performance: 0.895 ns/day, 26.809 hours/ns, 10.361 timesteps/s
98.7% CPU use with 2 MPI tasks x no OpenMP threads

MPI task timing breakdown:
Section |  min time  |  avg time  |  max time  |%varavg| %total
---------------------------------------------------------------
Pair    | 2659.5     | 2677.2     | 2694.9     |  34.3 | 56.03
Neigh   | 1834.4     | 1843.5     | 1852.6     |  21.1 | 38.58
Comm    | 202.02     | 210.48     | 218.94     |  58.3 |  4.41
Output  | 0.094997   | 0.095041   | 0.095085   |   0.0 |  0.00
Modify  | 36.68      | 36.827     | 36.974     |   2.4 |  0.77
Other   |            | 9.794      |            |       |  0.20

Nlocal:    9826 ave 9844 max 9808 min
Histogram: 1 0 0 0 0 0 0 0 0 1
Nghost:    14191 ave 14197 max 14185 min
Histogram: 1 0 0 0 0 0 0 0 0 1
Neighs:    925108 ave 932726 max 917490 min
Histogram: 1 0 0 0 0 0 0 0 0 1

Total # of neighbors = 1850216
Ave neighs/atom = 94.149
Neighbor list builds = 49505
Dangerous builds not checked
Setting up Verlet run ...
  Unit style    : metal
  Current step  : 1240000
  Time step     : 0.001
Per MPI rank memory allocation (min/avg/max) = 12.11 | 12.11 | 12.11 Mbytes
Step Temp Press TotEng PotEng Enthalpy 
 1240000    1262.3403   -1054.0398   -59581.321    -62787.78   -59755.693 
 1240495    1218.4753   -818.47187   -59826.741    -62921.78   -59961.582 
Loop time of 46.927 on 2 procs for 495 steps with 19652 atoms

Performance: 0.911 ns/day, 26.334 hours/ns, 10.548 timesteps/s
99.5% CPU use with 2 MPI tasks x no OpenMP threads

MPI task timing breakdown:
Section |  min time  |  avg time  |  max time  |%varavg| %total
---------------------------------------------------------------
Pair    | 25.881     | 26.298     | 26.715     |   8.1 | 56.04
Neigh   | 18.878     | 18.939     | 19.001     |   1.4 | 40.36
Comm    | 0.86892    | 1.2276     | 1.5863     |  32.4 |  2.62
Output  | 7.081e-05  | 9.6917e-05 | 0.00012302 |   0.0 |  0.00
Modify  | 0.35543    | 0.35772    | 0.36001    |   0.4 |  0.76
Other   |            | 0.1045     |            |       |  0.22

Nlocal:    9826 ave 9835 max 9817 min
Histogram: 1 0 0 0 0 0 0 0 0 1
Nghost:    14248 ave 14262 max 14234 min
Histogram: 1 0 0 0 0 0 0 0 0 1
Neighs:    929242 ave 938910 max 919573 min
Histogram: 1 0 0 0 0 0 0 0 0 1

Total # of neighbors = 1858483
Ave neighs/atom = 94.5697
Neighbor list builds = 495
Dangerous builds not checked
Setting up Verlet run ...
  Unit style    : metal
  Current step  : 1240495
  Time step     : 0.001
Per MPI rank memory allocation (min/avg/max) = 12.11 | 12.11 | 12.11 Mbytes
Step Temp Press TotEng PotEng Enthalpy 
 1240495    1218.4753   -818.47187   -59826.741    -62921.78   -59961.582 
 1250000    1194.2223    -1616.688   -59985.284   -63018.717    -60251.26 
 1290000    1213.8415    1754.6131   -59931.718   -63014.986   -59644.059 
Loop time of 4669.56 on 2 procs for 49505 steps with 19652 atoms

Performance: 0.916 ns/day, 26.201 hours/ns, 10.602 timesteps/s
99.5% CPU use with 2 MPI tasks x no OpenMP threads

MPI task timing breakdown:
Section |  min time  |  avg time  |  max time  |%varavg| %total
---------------------------------------------------------------
Pair    | 2603.4     | 2627.5     | 2651.7     |  47.1 | 56.27
Neigh   | 1830.9     | 1837.2     | 1843.5     |  14.7 | 39.34
Comm    | 130.6      | 161.14     | 191.68     | 240.6 |  3.45
Output  | 0.062011   | 0.062043   | 0.062075   |   0.0 |  0.00
Modify  | 34.122     | 34.158     | 34.193     |   0.6 |  0.73
Other   |            | 9.492      |            |       |  0.20

Nlocal:    9826 ave 9835 max 9817 min
Histogram: 1 0 0 0 0 0 0 0 0 1
Nghost:    14249 ave 14253 max 14245 min
Histogram: 1 0 0 0 0 0 0 0 0 1
Neighs:    933638 ave 945003 max 922274 min
Histogram: 1 0 0 0 0 0 0 0 0 1

Total # of neighbors = 1867277
Ave neighs/atom = 95.0171
Neighbor list builds = 49505
Dangerous builds not checked
Setting up Verlet run ...
  Unit style    : metal
  Current step  : 1290000
  Time step     : 0.001
Per MPI rank memory allocation (min/avg/max) = 12.11 | 12.11 | 12.11 Mbytes
Step Temp Press TotEng PotEng Enthalpy 
 1290000    1213.8415    1754.6131   -59931.718   -63014.986   -59644.059 
 1290495    1165.6168    1381.9226   -60148.905   -63109.678    -59922.75 
Loop time of 45.7671 on 2 procs for 495 steps with 19652 atoms

Performance: 0.934 ns/day, 25.683 hours/ns, 10.816 timesteps/s
99.9% CPU use with 2 MPI tasks x no OpenMP threads

MPI task timing breakdown:
Section |  min time  |  avg time  |  max time  |%varavg| %total
---------------------------------------------------------------
Pair    | 25.773     | 25.815     | 25.857     |   0.8 | 56.41
Neigh   | 17.683     | 18.173     | 18.663     |  11.5 | 39.71
Comm    | 0.80307    | 1.3474     | 1.8918     |  46.9 |  2.94
Output  | 6.3896e-05 | 8.738e-05  | 0.00011086 |   0.0 |  0.00
Modify  | 0.32813    | 0.33693    | 0.34573    |   1.5 |  0.74
Other   |            | 0.09464    |            |       |  0.21

Nlocal:    9826 ave 9849 max 9803 min
Histogram: 1 0 0 0 0 0 0 0 0 1
Nghost:    14298 ave 14300 max 14296 min
Histogram: 1 0 0 0 0 0 0 0 0 1
Neighs:    935110 ave 941631 max 928590 min
[...]

MPI task timing breakdown:
Section |  min time  |  avg time  |  max time  |%varavg| %total
---------------------------------------------------------------
Pair    | 28.087     | 28.483     | 28.88      |   7.4 | 56.07
Neigh   | 19.061     | 19.552     | 20.043     |  11.1 | 38.49
Comm    | 2.2204     | 2.3185     | 2.4166     |   6.4 |  4.56
Output  | 7.8917e-05 | 0.00011349 | 0.00014806 |   0.0 |  0.00
Modify  | 0.34026    | 0.34756    | 0.35487    |   1.2 |  0.68
Other   |            | 0.09948    |            |       |  0.20

Nlocal:    9826 ave 9840 max 9812 min
Histogram: 1 0 0 0 0 0 0 0 0 1
Nghost:    14803 ave 14805 max 14801 min
Histogram: 1 0 0 0 0 0 0 0 0 1
Neighs:    1.00895e+06 ave 1.01135e+06 max 1.00655e+06 min
Histogram: 1 0 0 0 0 0 0 0 0 1

Total # of neighbors = 2017896
Ave neighs/atom = 102.681
Neighbor list builds = 495
Dangerous builds not checked
Setting up Verlet run ...
  Unit style    : metal
  Current step  : 2040495
  Time step     : 0.001
Per MPI rank memory allocation (min/avg/max) = 12.11 | 12.11 | 12.11 Mbytes
Step Temp Press TotEng PotEng Enthalpy 
 2040495    421.75709   -946.08491   -65490.922   -66562.223   -65633.927 
 2050000    400.32609   -669.66438   -65620.495    -66637.36   -65721.519 
 2090000    393.40015   -1008.8691   -65636.626   -66635.898   -65788.875 
Loop time of 5183.59 on 2 procs for 49505 steps with 19652 atoms

Performance: 0.825 ns/day, 29.086 hours/ns, 9.550 timesteps/s
99.3% CPU use with 2 MPI tasks x no OpenMP threads

MPI task timing breakdown:
Section |  min time  |  avg time  |  max time  |%varavg| %total
---------------------------------------------------------------
Pair    | 2894.4     | 2902.6     | 2910.8     |  15.2 | 56.00
Neigh   | 1959.6     | 1979       | 1998.4     |  43.7 | 38.18
Comm    | 245.81     | 256.94     | 268.06     |  69.4 |  4.96
Output  | 0.046221   | 0.046251   | 0.046281   |   0.0 |  0.00
Modify  | 34.968     | 35.155     | 35.342     |   3.2 |  0.68
Other   |            | 9.886      |            |       |  0.19

Nlocal:    9826 ave 9834 max 9818 min
Histogram: 1 0 0 0 0 0 0 0 0 1
Nghost:    14796.5 ave 14805 max 14788 min
Histogram: 1 0 0 0 0 0 0 0 0 1
Neighs:    1.0109e+06 ave 1.0117e+06 max 1.0101e+06 min
Histogram: 1 0 0 0 0 0 0 0 0 1

Total # of neighbors = 2021803
Ave neighs/atom = 102.88
Neighbor list builds = 49505
Dangerous builds not checked
Setting up Verlet run ...
  Unit style    : metal
  Current step  : 2090000
  Time step     : 0.001
Per MPI rank memory allocation (min/avg/max) = 12.11 | 12.11 | 12.11 Mbytes
Step Temp Press TotEng PotEng Enthalpy 
 2090000    393.40015   -1008.8691   -65636.626   -66635.898   -65788.875 
 2090495    371.64572    8.1536477   -65778.207   -66722.221   -65776.979 
Loop time of 53.5302 on 2 procs for 495 steps with 19652 atoms

Performance: 0.799 ns/day, 30.039 hours/ns, 9.247 timesteps/s
99.8% CPU use with 2 MPI tasks x no OpenMP threads

MPI task timing breakdown:
Section |  min time  |  avg time  |  max time  |%varavg| %total
---------------------------------------------------------------
Pair    | 29.82      | 29.898     | 29.976     |   1.4 | 55.85
Neigh   | 21.165     | 21.272     | 21.379     |   2.3 | 39.74
Comm    | 1.8401     | 1.8758     | 1.9115     |   2.6 |  3.50
Output  | 7.1049e-05 | 0.00011551 | 0.00015998 |   0.0 |  0.00
Modify  | 0.37374    | 0.3744     | 0.37505    |   0.1 |  0.70
Other   |            | 0.1104     |            |       |  0.21

Nlocal:    9826 ave 9851 max 9801 min
Histogram: 1 0 0 0 0 0 0 0 0 1
Nghost:    14825 ave 14855 max 14795 min
Histogram: 1 0 0 0 0 0 0 0 0 1
Neighs:    1.01375e+06 ave 1.01609e+06 max 1.01142e+06 min
Histogram: 1 0 0 0 0 0 0 0 0 1

Total # of neighbors = 2027504
Ave neighs/atom = 103.17
Neighbor list builds = 495
Dangerous builds not checked
Setting up Verlet run ...
  Unit style    : metal
  Current step  : 2090495
  Time step     : 0.001
Per MPI rank memory allocation (min/avg/max) = 12.11 | 12.11 | 12.11 Mbytes
Step Temp Press TotEng PotEng Enthalpy 
 2090495    371.64572    8.1536477   -65778.207   -66722.221   -65776.979 
 2100000    348.92921    1005.5341   -65908.783   -66795.095   -65757.801 
 2140000    349.09709      1039.78    -65913.67   -66800.408   -65757.561 
Loop time of 5349.77 on 2 procs for 49505 steps with 19652 atoms

Performance: 0.800 ns/day, 30.018 hours/ns, 9.254 timesteps/s
99.2% CPU use with 2 MPI tasks x no OpenMP threads

MPI task timing breakdown:
Section |  min time  |  avg time  |  max time  |%varavg| %total
---------------------------------------------------------------
Pair    | 3002.4     | 3008.2     | 3013.9     |  10.5 | 56.23
Neigh   | 2063.9     | 2068.7     | 2073.5     |  10.6 | 38.67
Comm    | 225.43     | 226.1      | 226.77     |   4.5 |  4.23
Output  | 0.21398    | 0.21405    | 0.21413    |   0.0 |  0.00
Modify  | 36.101     | 36.226     | 36.352     |   2.1 |  0.68
Other   |            | 10.35      |            |       |  0.19

Nlocal:    9826 ave 9861 max 9791 min
Histogram: 1 0 0 0 0 0 0 0 0 1
Nghost:    14830 ave 14848 max 14812 min
Histogram: 1 0 0 0 0 0 0 0 0 1
Neighs:    1.01661e+06 ave 1.02098e+06 max 1.01225e+06 min
Histogram: 1 0 0 0 0 0 0 0 0 1

Total # of neighbors = 2033224
Ave neighs/atom = 103.461
Neighbor list builds = 49505
Dangerous builds not checked
Setting up Verlet run ...
  Unit style    : metal
  Current step  : 2140000
  Time step     : 0.001
Per MPI rank memory allocation (min/avg/max) = 12.11 | 12.11 | 12.11 Mbytes
Step Temp Press TotEng PotEng Enthalpy 
 2140000    349.09709      1039.78    -65913.67   -66800.408   -65757.561 
 2140495    324.74307    -422.8383   -66056.438   -66881.315   -66119.884 
Loop time of 56.4034 on 2 procs for 495 steps with 19652 atoms

Performance: 0.758 ns/day, 31.652 hours/ns, 8.776 timesteps/s
100.0% CPU use with 2 MPI tasks x no OpenMP threads

MPI task timing breakdown:
Section |  min time  |  avg time  |  max time  |%varavg| %total
---------------------------------------------------------------
Pair    | 31.654     | 31.789     | 31.924     |   2.4 | 56.36
Neigh   | 19.9       | 21.417     | 22.933     |  32.8 | 37.97
Comm    | 1.3113     | 2.7199     | 4.1286     |  85.4 |  4.82
Output  | 7.7009e-05 | 0.000108   | 0.000139   |   0.0 |  0.00
Modify  | 0.35795    | 0.37746    | 0.39698    |   3.2 |  0.67
Other   |            | 0.1004     |            |       |  0.18

Nlocal:    9826 ave 9839 max 9813 min
Histogram: 1 0 0 0 0 0 0 0 0 1
Nghost:    14848 ave 14871 max 14825 min
Histogram: 1 0 0 0 0 0 0 0 0 1
Neighs:    1.01682e+06 ave 1.01811e+06 max 1.01553e+06 min
Histogram: 1 0 0 0 0 0 0 0 0 1

Total # of neighbors = 2033636
Ave neighs/atom = 103.482
Neighbor list builds = 495
Dangerous builds not checked
Setting up Verlet run ...
  Unit style    : metal
  Current step  : 2140495
  Time step     : 0.001
Per MPI rank memory allocation (min/avg/max) = 12.11 | 12.11 | 12.11 Mbytes
Step Temp Press TotEng PotEng Enthalpy 
 2140495    324.74307    -422.8383   -66056.438   -66881.315   -66119.884 
 2150000    301.39355    331.20101   -66180.425   -66945.992   -66130.826 
 2190000    298.58147   -1531.0987   -66193.546   -66951.971   -66423.145 
Loop time of 5252.45 on 2 procs for 49505 steps with 19652 atoms

Performance: 0.814 ns/day, 29.472 hours/ns, 9.425 timesteps/s
99.4% CPU use with 2 MPI tasks x no OpenMP threads

MPI task timing breakdown:
Section |  min time  |  avg time  |  max time  |%varavg| %total
---------------------------------------------------------------
Pair    | 2939.1     | 2940       | 2940.8     |   1.6 | 55.97
Neigh   | 2040.8     | 2045.4     | 2049.9     |  10.0 | 38.94
Comm    | 217.47     | 221.19     | 224.91     |  25.0 |  4.21
Output  | 0.054613   | 0.054653   | 0.054693   |   0.0 |  0.00
Modify  | 35.506     | 35.521     | 35.536     |   0.3 |  0.68
Other   |            | 10.34      |            |       |  0.20

Nlocal:    9826 ave 9827 max 9825 min
Histogram: 1 0 0 0 0 0 0 0 0 1
Nghost:    14854 ave 14868 max 14840 min
Histogram: 1 0 0 0 0 0 0 0 0 1
Neighs:    1.01771e+06 ave 1.01779e+06 max 1.01762e+06 min
Histogram: 1 0 0 0 0 0 0 0 0 1

Total # of neighbors = 2035411
Ave neighs/atom = 103.573
Neighbor list builds = 49505
Dangerous builds not checked
Setting up Verlet run ...
  Unit style    : metal
  Current step  : 2190000
  Time step     : 0.001
Per MPI rank memory allocation (min/avg/max) = 12.11 | 12.11 | 12.11 Mbytes
Step Temp Press TotEng PotEng Enthalpy 
 2190000    298.58147   -1531.0987   -66193.546   -66951.971   -66423.145 
 2190495     274.8487     261.8633   -66328.027   -67026.167   -66288.871 
Loop time of 51.509 on 2 procs for 495 steps with 19652 atoms

Performance: 0.830 ns/day, 28.905 hours/ns, 9.610 timesteps/s
99.7% CPU use with 2 MPI tasks x no OpenMP threads

MPI task timing breakdown:
Section |  min time  |  avg time  |  max time  |%varavg| %total
---------------------------------------------------------------
Pair    | 28.526     | 28.838     | 29.151     |   5.8 | 55.99
Neigh   | 19.179     | 20.218     | 21.257     |  23.1 | 39.25
Comm    | 1.2613     | 2          | 2.7388     |  52.2 |  3.88
Output  | 8.2016e-05 | 9.6083e-05 | 0.00011015 |   0.0 |  0.00
Modify  | 0.33832    | 0.35137    | 0.36442    |   2.2 |  0.68
Other   |            | 0.1009     |            |       |  0.20

Nlocal:    9826 ave 9842 max 9810 min
Histogram: 1 0 0 0 0 0 0 0 0 1
Nghost:    14861 ave 14869 max 14853 min
Histogram: 1 0 0 0 0 0 0 0 0 1
Neighs:    1.02108e+06 ave 1.02306e+06 max 1.01909e+06 min
Histogram: 1 0 0 0 0 0 0 0 0 1

Total # of neighbors = 2042154
Ave neighs/atom = 103.916
Neighbor list builds = 495
Dangerous builds not checked
Setting up Verlet run ...
  Unit style    : metal
  Current step  : 2190495
  Time step     : 0.001
Per MPI rank memory allocation (min/avg/max) = 12.11 | 12.11 | 12.11 Mbytes
Step Temp Press TotEng PotEng Enthalpy 
 2190495     274.8487     261.8633   -66328.027   -67026.167   -66288.871 
 2200000    252.00799    862.69776   -66449.782   -67089.905   -66321.013 
 2240000    251.87775   -339.07652    -66453.43   -67093.222   -66504.083 
Loop time of 5856.16 on 2 procs for 49505 steps with 19652 atoms

Performance: 0.730 ns/day, 32.860 hours/ns, 8.453 timesteps/s
98.7% CPU use with 2 MPI tasks x no OpenMP threads

MPI task timing breakdown:
Section |  min time  |  avg time  |  max time  |%varavg| %total
---------------------------------------------------------------
Pair    | 3296.3     | 3306       | 3315.6     |  16.8 | 56.45
Neigh   | 2201       | 2236.7     | 2272.4     |  75.5 | 38.19
Comm    | 231.06     | 258.55     | 286.03     | 171.0 |  4.41
Output  | 0.30655    | 0.30659    | 0.30664    |   0.0 |  0.01
Modify  | 40.907     | 42.492     | 44.077     |  24.3 |  0.73
Other   |            | 12.16      |            |       |  0.21

Nlocal:    9826 ave 9850 max 9802 min
Histogram: 1 0 0 0 0 0 0 0 0 1
Nghost:    14874.5 ave 14902 max 14847 min
Histogram: 1 0 0 0 0 0 0 0 0 1
Neighs:    1.02234e+06 ave 1.02512e+06 max 1.01956e+06 min
Histogram: 1 0 0 0 0 0 0 0 0 1

Total # of neighbors = 2044675
Ave neighs/atom = 104.044
Neighbor list builds = 49505
Dangerous builds not checked
Setting up Verlet run ...
  Unit style    : metal
  Current step  : 2240000
  Time step     : 0.001
Per MPI rank memory allocation (min/avg/max) = 12.11 | 12.11 | 12.11 Mbytes
Step Temp Press TotEng PotEng Enthalpy 
 2240000    251.87775   -339.07652    -66453.43   -67093.222   -66504.083 
 2240495    224.69048    132.52977   -66589.409   -67160.144   -66569.648 
Loop time of 58.4699 on 2 procs for 495 steps with 19652 atoms

Performance: 0.731 ns/day, 32.811 hours/ns, 8.466 timesteps/s
99.5% CPU use with 2 MPI tasks x no OpenMP threads

MPI task timing breakdown:
Section |  min time  |  avg time  |  max time  |%varavg| %total
---------------------------------------------------------------
Pair    | 32.578     | 32.923     | 33.268     |   6.0 | 56.31
Neigh   | 22.77      | 22.971     | 23.172     |   4.2 | 39.29
Comm    | 1.4818     | 2.0322     | 2.5826     |  38.6 |  3.48
Output  | 8.893e-05  | 0.0001179  | 0.00014687 |   0.0 |  0.00
Modify  | 0.41276    | 0.41827    | 0.42378    |   0.9 |  0.72
Other   |            | 0.1255     |            |       |  0.21

Nlocal:    9826 ave 9843 max 9809 min
Histogram: 1 0 0 0 0 0 0 0 0 1
Nghost:    14890.5 ave 14900 max 14881 min
Histogram: 1 0 0 0 0 0 0 0 0 1
Neighs:    1.02457e+06 ave 1.0266e+06 max 1.02253e+06 min
Histogram: 1 0 0 0 0 0 0 0 0 1

Total # of neighbors = 2049132
Ave neighs/atom = 104.271
Neighbor list builds = 495
Dangerous builds not checked
Setting up Verlet run ...
  Unit style    : metal
  Current step  : 2240495
  Time step     : 0.001
Per MPI rank memory allocation (min/avg/max) = 12.11 | 12.11 | 12.11 Mbytes
Step Temp Press TotEng PotEng Enthalpy 
 2240495    224.69048    132.52977   -66589.409   -67160.144   -66569.648 
 2250000    198.36184   -91.597306   -66723.248   -67227.105    -66736.89 
 2290000    200.30323    434.73264   -66721.086   -67229.874   -66656.366 
Loop time of 5969.96 on 2 procs for 49505 steps with 19652 atoms

Performance: 0.716 ns/day, 33.498 hours/ns, 8.292 timesteps/s
99.1% CPU use with 2 MPI tasks x no OpenMP threads

MPI task timing breakdown:
Section |  min time  |  avg time  |  max time  |%varavg| %total
---------------------------------------------------------------
Pair    | 3368.3     | 3371.4     | 3374.4     |   5.3 | 56.47
Neigh   | 2261.5     | 2278.9     | 2296.4     |  36.5 | 38.17
Comm    | 248.62     | 263.06     | 277.49     |  89.0 |  4.41
Output  | 0.058256   | 0.058314   | 0.058373   |   0.0 |  0.00
Modify  | 43.245     | 43.419     | 43.593     |   2.6 |  0.73
Other   |            | 13.1       |            |       |  0.22

Nlocal:    9826 ave 9830 max 9822 min
Histogram: 1 0 0 0 0 0 0 0 0 1
Nghost:    14883.5 ave 14893 max 14874 min
Histogram: 1 0 0 0 0 0 0 0 0 1
Neighs:    1.02637e+06 ave 1.02699e+06 max 1.02574e+06 min
Histogram: 1 0 0 0 0 0 0 0 0 1

Total # of neighbors = 2052731
Ave neighs/atom = 104.454
Neighbor list builds = 49505
Dangerous builds not checked
Setting up Verlet run ...
  Unit style    : metal
  Current step  : 2290000
  Time step     : 0.001
Per MPI rank memory allocation (min/avg/max) = 12.11 | 12.11 | 12.12 Mbytes
Step Temp Press TotEng PotEng Enthalpy 
 2290000    200.30323    434.73264   -66721.086   -67229.874   -66656.366 
 2290495    176.12118     379.5186   -66848.568   -67295.932   -66792.148 
Loop time of 57.6961 on 2 procs for 495 steps with 19652 atoms

Performance: 0.741 ns/day, 32.377 hours/ns, 8.579 timesteps/s
99.9% CPU use with 2 MPI tasks x no OpenMP threads

MPI task timing breakdown:
Section |  min time  |  avg time  |  max time  |%varavg| %total
---------------------------------------------------------------
Pair    | 32.458     | 32.639     | 32.821     |   3.2 | 56.57
Neigh   | 22.311     | 22.663     | 23.014     |   7.4 | 39.28
Comm    | 1.6974     | 1.8734     | 2.0494     |  12.9 |  3.25
Output  | 9.799e-05  | 0.00014043 | 0.00018287 |   0.0 |  0.00
Modify  | 0.39897    | 0.40329    | 0.40761    |   0.7 |  0.70
Other   |            | 0.1172     |            |       |  0.20

Nlocal:    9826 ave 9840 max 9812 min
Histogram: 1 0 0 0 0 0 0 0 0 1
Nghost:    14894.5 ave 14912 max 14877 min
Histogram: 1 0 0 0 0 0 0 0 0 1
Neighs:    1.02798e+06 ave 1.02943e+06 max 1.02652e+06 min
Histogram: 1 0 0 0 0 0 0 0 0 1

Total # of neighbors = 2055956
Ave neighs/atom = 104.618
Neighbor list builds = 495
Dangerous builds not checked
Setting up Verlet run ...
  Unit style    : metal
  Current step  : 2290495
  Time step     : 0.001
Per MPI rank memory allocation (min/avg/max) = 12.11 | 12.11 | 12.12 Mbytes
Step Temp Press TotEng PotEng Enthalpy 
 2290495    176.12118     379.5186   -66848.568   -67295.932   -66792.148 
 2300000    150.15227    691.91402   -66983.971   -67365.372   -66881.273 
 2340000    149.88882   -403.71709   -66988.076   -67368.807   -67048.043 
Loop time of 6167.18 on 2 procs for 49505 steps with 19652 atoms

Performance: 0.694 ns/day, 34.605 hours/ns, 8.027 timesteps/s
97.2% CPU use with 2 MPI tasks x no OpenMP threads

MPI task timing breakdown:
Section |  min time  |  avg time  |  max time  |%varavg| %total
---------------------------------------------------------------
Pair    | 3469.8     | 3471.9     | 3474       |   3.6 | 56.30
Neigh   | 2343.5     | 2369.2     | 2395       |  52.9 | 38.42
Comm    | 243.24     | 266.99     | 290.74     | 145.3 |  4.33
Output  | 0.049931   | 0.049968   | 0.050005   |   0.0 |  0.00
Modify  | 45.342     | 45.579     | 45.816     |   3.5 |  0.74
Other   |            | 13.4       |            |       |  0.22

Nlocal:    9826 ave 9834 max 9818 min
Histogram: 1 0 0 0 0 0 0 0 0 1
Nghost:    14895.5 ave 14906 max 14885 min
Histogram: 1 0 0 0 0 0 0 0 0 1
Neighs:    1.02914e+06 ave 1.03031e+06 max 1.02798e+06 min
Histogram: 1 0 0 0 0 0 0 0 0 1

Total # of neighbors = 2058288
Ave neighs/atom = 104.737
Neighbor list builds = 49505
Dangerous builds not checked
Setting up Verlet run ...
  Unit style    : metal
  Current step  : 2340000
  Time step     : 0.001
Per MPI rank memory allocation (min/avg/max) = 12.11 | 12.12 | 12.12 Mbytes
Step Temp Press TotEng PotEng Enthalpy 
 2340000    149.88882   -403.71709   -66988.076   -67368.807   -67048.043 
 2340495    125.45592   -131.56082   -67103.751    -67422.42   -67123.266 
Loop time of 57.5858 on 2 procs for 495 steps with 19652 atoms

Performance: 0.743 ns/day, 32.315 hours/ns, 8.596 timesteps/s
100.0% CPU use with 2 MPI tasks x no OpenMP threads

MPI task timing breakdown:
Section |  min time  |  avg time  |  max time  |%varavg| %total
---------------------------------------------------------------
Pair    | 32.224     | 32.262     | 32.301     |   0.7 | 56.02
Neigh   | 23.639     | 23.661     | 23.684     |   0.5 | 41.09
Comm    | 1.112      | 1.1141     | 1.1163     |   0.2 |  1.93
Output  | 9.4891e-05 | 0.00014448 | 0.00019407 |   0.0 |  0.00
Modify  | 0.41228    | 0.4229     | 0.43351    |   1.6 |  0.73
Other   |            | 0.1248     |            |       |  0.22

Nlocal:    9826 ave 9831 max 9821 min
Histogram: 1 0 0 0 0 0 0 0 0 1
Nghost:    14913.5 ave 14919 max 14908 min
Histogram: 1 0 0 0 0 0 0 0 0 1
Neighs:    1.03061e+06 ave 1.03107e+06 max 1.03016e+06 min
Histogram: 1 0 0 0 0 0 0 0 0 1

Total # of neighbors = 2061229
Ave neighs/atom = 104.886
Neighbor list builds = 495
Dangerous builds not checked
Setting up Verlet run ...
  Unit style    : metal
  Current step  : 2340495
  Time step     : 0.001
Per MPI rank memory allocation (min/avg/max) = 12.11 | 12.12 | 12.12 Mbytes
Step Temp Press TotEng PotEng Enthalpy 
 2340495    125.45592   -131.56082   -67103.751    -67422.42   -67123.266 
 2350000    99.462057    19.631412   -67245.288   -67497.931   -67242.381 
 2390000    98.997493    564.06035   -67242.729   -67494.192   -67159.222 
Loop time of 5903.53 on 2 procs for 49505 steps with 19652 atoms

Performance: 0.725 ns/day, 33.125 hours/ns, 8.386 timesteps/s
99.0% CPU use with 2 MPI tasks x no OpenMP threads

MPI task timing breakdown:
Section |  min time  |  avg time  |  max time  |%varavg| %total
---------------------------------------------------------------
Pair    | 3320.3     | 3324.7     | 3329.2     |   7.7 | 56.32
Neigh   | 2290.6     | 2298.4     | 2306.1     |  16.1 | 38.93
Comm    | 212.56     | 224.89     | 237.23     |  82.2 |  3.81
Output  | 0.057037   | 0.057079   | 0.057121   |   0.0 |  0.00
Modify  | 42.772     | 43.02      | 43.267     |   3.8 |  0.73
Other   |            | 12.46      |            |       |  0.21

Nlocal:    9826 ave 9836 max 9816 min
Histogram: 1 0 0 0 0 0 0 0 0 1
Nghost:    14929.5 ave 14939 max 14920 min
Histogram: 1 0 0 0 0 0 0 0 0 1
Neighs:    1.03338e+06 ave 1.0346e+06 max 1.03216e+06 min
Histogram: 1 0 0 0 0 0 0 0 0 1

Total # of neighbors = 2066756
Ave neighs/atom = 105.168
Neighbor list builds = 49505
Dangerous builds not checked
Total wall time: 67:11:04
