LAMMPS (12 Dec 2018)
Lattice spacing in x,y,z = 4 4 4
Created orthogonal box = (0 0 0) to (68 68 68)
  1 by 1 by 1 MPI processor grid
Created 19652 atoms
  Time spent = 0.00348496 secs
Setting atom values ...
  19480 settings made for type/fraction
Neighbor list info ...
  update every 1 steps, delay 0 steps, check no
  max neighbors/atom: 2000, page size: 100000
  master list distance cutoff = 8.2
  ghost atom cutoff = 8.2
  binsize = 4.1, bins = 17 17 17
  1 neighbor lists, perpetual/occasional/extra = 1 0 0
  (1) pair eam/alloy, perpetual
      attributes: half, newton on
      pair build: half/bin/atomonly/newton
      stencil: half/bin/3d/newton
      bin: standard
Setting up Verlet run ...
  Unit style    : metal
  Current step  : 0
  Time step     : 0.001
Per MPI rank memory allocation (min/avg/max) = 17.03 | 17.03 | 17.03 Mbytes
Step Temp Press TotEng PotEng Enthalpy Volume 
       0          300   -362526.57   -69435.747   -70197.774   -140582.69       314432 
     667    1112.1894   -120438.51   -69435.985   -72261.047   -93072.407       314432 
    1000    1414.0292   -79894.501   -69436.086   -73027.849   -85115.625       314432 
Loop time of 143.969 on 1 procs for 1000 steps with 19652 atoms

Performance: 0.600 ns/day, 39.991 hours/ns, 6.946 timesteps/s
99.4% CPU use with 1 MPI tasks x no OpenMP threads

MPI task timing breakdown:
Section |  min time  |  avg time  |  max time  |%varavg| %total
---------------------------------------------------------------
Pair    | 75.448     | 75.448     | 75.448     |   0.0 | 52.41
Neigh   | 66.56      | 66.56      | 66.56      |   0.0 | 46.23
Comm    | 1.0799     | 1.0799     | 1.0799     |   0.0 |  0.75
Output  | 0.11352    | 0.11352    | 0.11352    |   0.0 |  0.08
Modify  | 0.3948     | 0.3948     | 0.3948     |   0.0 |  0.27
Other   |            | 0.3725     |            |       |  0.26

Nlocal:    19652 ave 19652 max 19652 min
Histogram: 1 0 0 0 0 0 0 0 0 0
Nghost:    17930 ave 17930 max 17930 min
Histogram: 1 0 0 0 0 0 0 0 0 0
Neighs:    1.44637e+06 ave 1.44637e+06 max 1.44637e+06 min
Histogram: 1 0 0 0 0 0 0 0 0 0

Total # of neighbors = 1446374
Ave neighs/atom = 73.5993
Neighbor list builds = 1000
Dangerous builds not checked
Setting up Verlet run ...
  Unit style    : metal
  Current step  : 1000
  Time step     : 0.001
Per MPI rank memory allocation (min/avg/max) = 17.03 | 17.03 | 17.03 Mbytes
Step Temp Press TotEng PotEng Enthalpy Volume 
    1000    1414.0292   -79894.501   -69436.086   -73027.849   -85115.625       314432 
    1334    930.80749   -19708.484   -75507.609   -77871.945    -78800.84    267719.07 
    2000    425.67131    -3052.688   -80618.362   -81699.606   -81068.242    236115.56 
Loop time of 178.986 on 1 procs for 1000 steps with 19652 atoms

Performance: 0.483 ns/day, 49.718 hours/ns, 5.587 timesteps/s
98.3% CPU use with 1 MPI tasks x no OpenMP threads

MPI task timing breakdown:
Section |  min time  |  avg time  |  max time  |%varavg| %total
---------------------------------------------------------------
Pair    | 97.244     | 97.244     | 97.244     |   0.0 | 54.33
Neigh   | 78.496     | 78.496     | 78.496     |   0.0 | 43.86
Comm    | 1.0463     | 1.0463     | 1.0463     |   0.0 |  0.58
Output  | 0.42111    | 0.42111    | 0.42111    |   0.0 |  0.24
Modify  | 1.4123     | 1.4123     | 1.4123     |   0.0 |  0.79
Other   |            | 0.367      |            |       |  0.21

Nlocal:    19652 ave 19652 max 19652 min
Histogram: 1 0 0 0 0 0 0 0 0 0
Nghost:    20338 ave 20338 max 20338 min
Histogram: 1 0 0 0 0 0 0 0 0 0
Neighs:    1.87949e+06 ave 1.87949e+06 max 1.87949e+06 min
Histogram: 1 0 0 0 0 0 0 0 0 0

Total # of neighbors = 1879488
Ave neighs/atom = 95.6385
Neighbor list builds = 1000
Dangerous builds not checked
Setting up Verlet run ...
  Unit style    : metal
  Current step  : 2000
  Time step     : 0.001
Per MPI rank memory allocation (min/avg/max) = 18.94 | 18.94 | 18.94 Mbytes
Step Temp Press TotEng PotEng Enthalpy Volume 
    2000    425.67131    -3052.688   -80618.362   -81699.606   -81068.242    236115.56 
    2001    426.83109    -3203.918   -80618.409   -81702.599   -81090.575    236115.24 
    2668     465.5942    53.193067   -81423.825   -82606.476   -81416.261    227826.11 
    3335    648.81182    607.67403   -80866.845   -82514.886   -80780.915    226561.74 
    4002    821.20067   -670.48336   -80088.778   -82174.702   -80183.923     227358.6 
    4669     991.5329    1700.1754    -79146.25   -81664.834   -78903.674    228594.39 
    5336    1179.9577    1728.1841   -78108.765   -81105.965   -77860.162     230477.1 
    6003    1352.8361   -2769.6307   -76982.936   -80419.263   -77386.136    233243.01 
    6670    1535.6061   -2057.4463   -75720.982   -79621.561   -76023.942    235921.16 
    7337    1699.6312    1817.2951   -74436.839   -78754.057   -74166.257    238553.12 
    8004    1890.7732     212.9896   -73091.285   -77894.021   -73059.136    241836.91 
    8671    2070.4171    -2642.763   -71860.222    -77119.27   -72264.564    245132.56 
    9338    2256.7628   -1616.1744   -70521.528   -76253.911    -70771.83    248134.05 
   10000    2450.4627    393.12607   -69440.732    -75665.13   -69379.318    250291.39 
Loop time of 1501.68 on 1 procs for 8000 steps with 19652 atoms

Performance: 0.460 ns/day, 52.142 hours/ns, 5.327 timesteps/s
99.5% CPU use with 1 MPI tasks x no OpenMP threads

MPI task timing breakdown:
Section |  min time  |  avg time  |  max time  |%varavg| %total
---------------------------------------------------------------
Pair    | 807.84     | 807.84     | 807.84     |   0.0 | 53.80
Neigh   | 669.55     | 669.55     | 669.55     |   0.0 | 44.59
Comm    | 8.5064     | 8.5064     | 8.5064     |   0.0 |  0.57
Output  | 1.3549     | 1.3549     | 1.3549     |   0.0 |  0.09
Modify  | 11.424     | 11.424     | 11.424     |   0.0 |  0.76
Other   |            | 3.008      |            |       |  0.20

Nlocal:    19652 ave 19652 max 19652 min
Histogram: 1 0 0 0 0 0 0 0 0 0
Nghost:    19676 ave 19676 max 19676 min
Histogram: 1 0 0 0 0 0 0 0 0 0
Neighs:    1.76282e+06 ave 1.76282e+06 max 1.76282e+06 min
Histogram: 1 0 0 0 0 0 0 0 0 0

Total # of neighbors = 1762815
Ave neighs/atom = 89.7016
Neighbor list builds = 8000
Dangerous builds not checked
Setting up Verlet run ...
  Unit style    : metal
  Current step  : 10000
  Time step     : 0.001
Per MPI rank memory allocation (min/avg/max) = 18.96 | 18.96 | 18.96 Mbytes
Step Temp Press TotEng PotEng Enthalpy Volume 
   10000    2450.4627    393.12607   -69440.732    -75665.13   -69379.318    250291.39 
   10005    2448.6623    604.67351   -69440.731   -75660.556   -69346.269    250291.55 
   10672    2428.8358    52.703902   -69314.769   -75484.233   -69306.512    251001.88 
   11339    2463.5034    3036.4469   -69189.892   -75447.415   -68714.629    250771.43 
   12006    2400.9926   -1074.8922   -69377.455   -75476.195   -69545.904    251081.13 
   12673     2461.771    2420.2663   -69198.498    -75451.62   -68819.838    250666.36 
   13340    2455.1056    -360.9209   -69192.006   -75428.198   -69248.621    251319.31 
   14007    2442.5538   -1399.0193   -69225.974   -75430.283   -69445.538    251448.14 
   14674    2473.0338   -20.636338   -69172.176   -75453.907    -69175.41    251062.26 
   15341    2463.6989    423.66985   -69308.167   -75566.187   -69241.882    250668.15 
   16008    2457.3128    2155.3272   -69232.437   -75474.235   -68894.985     250847.3 
   16675     2450.611    249.26356   -69244.439   -75469.214   -69205.383    251033.23 
   17342     2470.532    1639.1216   -69237.219   -75512.596    -68980.83    250610.16 
   18009    2446.4486   -722.55017   -69324.011   -75538.214   -69437.178     250935.7 
   18676     2460.288    1119.9177   -69327.774    -75577.13   -69152.676    250498.95 
   19343    2434.8651    643.19836   -69299.496   -75484.275   -69198.774    250894.14 
   20010    2481.2376   -172.59206   -69201.419   -75503.988   -69228.448    250916.94 
   20677    2448.6667   -2983.8582   -69254.129   -75473.966   -69722.355    251412.78 
   21344    2459.3089    319.04042   -69244.353   -75491.222   -69194.388     250917.3 
   22011    2453.5911   -1878.0798   -69208.488   -75440.833   -69503.207    251422.81 
   22678    2433.1383    229.80207   -69219.618   -75400.011   -69183.592    251176.36 
   23345    2466.3886   -1023.9744   -69187.913   -75452.765   -69348.538     251323.1 
   24012    2460.4495    698.66997   -69233.286   -75483.052   -69123.867    250918.76 
   24679    2443.4461    607.97146   -69288.442   -75495.018   -69193.228    250916.71 
   25346    2454.3324    1661.2503   -69218.627   -75452.855   -68958.486    250889.87 
   26013    2448.4755   -1389.6187   -69205.345   -75424.696   -69423.461    251478.57 
   26680    2454.5259    389.11058   -69231.621   -75466.341   -69170.674    250952.34 
   27347     2450.885   -3197.8145   -69296.236   -75521.707   -69797.508    251148.24 
   28014    2481.6901    2016.7293    -69196.53   -75500.249   -68880.869    250774.77 
   28681    2442.6984    200.87747   -69271.318   -75475.995   -69239.851    250978.67 
   29348    2430.5845   -1529.7673   -69253.803   -75427.709   -69493.806    251363.28 
   30015    2444.5062    229.49615   -69221.362    -75430.63   -69185.401    251054.36 
   30682    2469.7726   -501.81496   -69217.993    -75491.44   -69296.642    251108.75 
   31349     2448.479   -277.96763   -69312.703   -75532.063   -69356.213    250789.31 
   32016    2437.2675    2144.7586   -69356.615   -75547.496   -69021.326    250467.04 
   32683    2421.6154   -984.71579   -69335.024   -75486.148   -69489.301    251015.38 
   33350    2445.3192    99.869098   -69242.039   -75453.372   -69226.388    251081.85 
   34017    2454.1333    3363.6784   -69297.179   -75530.901    -68771.73    250279.91 
   34684    2423.7248   -1026.5877   -69222.663   -75379.145   -69383.747     251400.9 
   35351    2461.4026    2026.3269   -69206.588   -75458.775   -68889.541    250682.66 
   36018    2449.5754   -4140.1587   -69293.769   -75515.914   -69943.606    251476.49 
   36685    2457.5729    3427.0322   -69281.436   -75523.896   -68745.823    250405.33 
   37352    2456.6769   -3393.7562   -69289.577    -75529.76   -69821.917     251315.4 
   38019    2469.9161    2198.2593   -69225.501   -75499.312   -68881.669    250597.45 
   38686    2431.4928   -1202.3057   -69297.387     -75473.6   -69485.887    251192.85 
   39353    2450.1397    2558.1778   -69251.934   -75475.512   -68851.679    250677.84 
   40000    2436.3968   -929.69729   -69221.381   -75410.051   -69367.199    251291.93 
Loop time of 4938.89 on 1 procs for 30000 steps with 19652 atoms

Performance: 0.525 ns/day, 45.731 hours/ns, 6.074 timesteps/s
98.3% CPU use with 1 MPI tasks x no OpenMP threads

MPI task timing breakdown:
Section |  min time  |  avg time  |  max time  |%varavg| %total
---------------------------------------------------------------
Pair    | 2640.7     | 2640.7     | 2640.7     |   0.0 | 53.47
Neigh   | 2208.7     | 2208.7     | 2208.7     |   0.0 | 44.72
Comm    | 29.236     | 29.236     | 29.236     |   0.0 |  0.59
Output  | 11.889     | 11.889     | 11.889     |   0.0 |  0.24
Modify  | 38.283     | 38.283     | 38.283     |   0.0 |  0.78
Other   |            | 10.07      |            |       |  0.20

Nlocal:    19652 ave 19652 max 19652 min
Histogram: 1 0 0 0 0 0 0 0 0 0
Nghost:    19676 ave 19676 max 19676 min
Histogram: 1 0 0 0 0 0 0 0 0 0
Neighs:    1.7562e+06 ave 1.7562e+06 max 1.7562e+06 min
Histogram: 1 0 0 0 0 0 0 0 0 0

Total # of neighbors = 1756197
Ave neighs/atom = 89.3648
Neighbor list builds = 30000
Dangerous builds not checked
Setting up Verlet run ...
  Unit style    : metal
  Current step  : 40000
  Time step     : 0.001
Per MPI rank memory allocation (min/avg/max) = 18.96 | 18.96 | 18.96 Mbytes
Step Temp Press TotEng PotEng Enthalpy Volume 
   40000    2436.3968   -929.69729   -69221.381   -75410.051   -69367.199    251291.93 
   40020    2440.1676   -927.31234   -69219.568   -75417.816   -69365.009     251287.6 
   40495    2426.1131   -2107.8392   -69515.678   -75678.226   -69845.337    250575.01 
Loop time of 80.3802 on 1 procs for 495 steps with 19652 atoms

Performance: 0.532 ns/day, 45.107 hours/ns, 6.158 timesteps/s
99.2% CPU use with 1 MPI tasks x no OpenMP threads

MPI task timing breakdown:
Section |  min time  |  avg time  |  max time  |%varavg| %total
---------------------------------------------------------------
Pair    | 42.794     | 42.794     | 42.794     |   0.0 | 53.24
Neigh   | 35.725     | 35.725     | 35.725     |   0.0 | 44.45
Comm    | 0.47056    | 0.47056    | 0.47056    |   0.0 |  0.59
Output  | 0.59442    | 0.59442    | 0.59442    |   0.0 |  0.74
Modify  | 0.63108    | 0.63108    | 0.63108    |   0.0 |  0.79
Other   |            | 0.1645     |            |       |  0.20

Nlocal:    19652 ave 19652 max 19652 min
Histogram: 1 0 0 0 0 0 0 0 0 0
Nghost:    19707 ave 19707 max 19707 min
Histogram: 1 0 0 0 0 0 0 0 0 0
Neighs:    1.76114e+06 ave 1.76114e+06 max 1.76114e+06 min
Histogram: 1 0 0 0 0 0 0 0 0 0

Total # of neighbors = 1761145
Ave neighs/atom = 89.6166
Neighbor list builds = 495
Dangerous builds not checked
Setting up Verlet run ...
  Unit style    : metal
  Current step  : 40495
  Time step     : 0.001
Per MPI rank memory allocation (min/avg/max) = 18.96 | 18.96 | 18.96 Mbytes
Step Temp Press TotEng PotEng Enthalpy Volume 
   40495    2426.1131   -2107.8392   -69515.678   -75678.226   -69845.337    250575.01 
   40667    2388.2527    771.55162   -69624.534   -75690.914   -69504.146    249992.91 
Loop time of 27.1735 on 1 procs for 172 steps with 19652 atoms

Performance: 0.547 ns/day, 43.885 hours/ns, 6.330 timesteps/s
99.8% CPU use with 1 MPI tasks x no OpenMP threads

MPI task timing breakdown:
Section |  min time  |  avg time  |  max time  |%varavg| %total
---------------------------------------------------------------
Pair    | 14.579     | 14.579     | 14.579     |   0.0 | 53.65
Neigh   | 12.162     | 12.162     | 12.162     |   0.0 | 44.76
Comm    | 0.1596     | 0.1596     | 0.1596     |   0.0 |  0.59
Output  | 0.0001421  | 0.0001421  | 0.0001421  |   0.0 |  0.00
Modify  | 0.21606    | 0.21606    | 0.21606    |   0.0 |  0.80
Other   |            | 0.05706    |            |       |  0.21

Nlocal:    19652 ave 19652 max 19652 min
Histogram: 1 0 0 0 0 0 0 0 0 0
Nghost:    19646 ave 19646 max 19646 min
Histogram: 1 0 0 0 0 0 0 0 0 0
Neighs:    1.76419e+06 ave 1.76419e+06 max 1.76419e+06 min
Histogram: 1 0 0 0 0 0 0 0 0 0

Total # of neighbors = 1764189
Ave neighs/atom = 89.7715
Neighbor list builds = 172
Dangerous builds not checked
Setting up Verlet run ...
  Unit style    : metal
  Current step  : 40667
  Time step     : 0.001
Per MPI rank memory allocation (min/avg/max) = 18.96 | 18.96 | 18.96 Mbytes
Step Temp Press TotEng PotEng Enthalpy Volume 
   40667    2388.2527    771.55162   -69624.534   -75690.914   -69504.146    249992.91 
   40687    2400.5966    322.73446   -69624.079   -75721.813   -69573.721    249996.18 
   41162    2363.9859   -23.356315   -69838.519   -75843.259   -69842.158    249571.72 
Loop time of 81.7212 on 1 procs for 495 steps with 19652 atoms

Performance: 0.523 ns/day, 45.859 hours/ns, 6.057 timesteps/s
99.8% CPU use with 1 MPI tasks x no OpenMP threads

MPI task timing breakdown:
Section |  min time  |  avg time  |  max time  |%varavg| %total
---------------------------------------------------------------
Pair    | 44.005     | 44.005     | 44.005     |   0.0 | 53.85
Neigh   | 36.314     | 36.314     | 36.314     |   0.0 | 44.44
Comm    | 0.47788    | 0.47788    | 0.47788    |   0.0 |  0.58
Output  | 0.10168    | 0.10168    | 0.10168    |   0.0 |  0.12
Modify  | 0.65293    | 0.65293    | 0.65293    |   0.0 |  0.80
Other   |            | 0.17       |            |       |  0.21

Nlocal:    19652 ave 19652 max 19652 min
Histogram: 1 0 0 0 0 0 0 0 0 0
Nghost:    19692 ave 19692 max 19692 min
Histogram: 1 0 0 0 0 0 0 0 0 0
Neighs:    1.76754e+06 ave 1.76754e+06 max 1.76754e+06 min
Histogram: 1 0 0 0 0 0 0 0 0 0

Total # of neighbors = 1767541
Ave neighs/atom = 89.942
Neighbor list builds = 495
Dangerous builds not checked
Setting up Verlet run ...
  Unit style    : metal
  Current step  : 41162
  Time step     : 0.001
Per MPI rank memory allocation (min/avg/max) = 18.96 | 18.96 | 18.96 Mbytes
Step Temp Press TotEng PotEng Enthalpy Volume 
   41162    2363.9859   -23.356315   -69838.519   -75843.259   -69842.158    249571.72 
   41334    2317.8586    110.46174   -69917.657   -75805.229   -69900.454    249515.61 
Loop time of 27.0151 on 1 procs for 172 steps with 19652 atoms

Performance: 0.550 ns/day, 43.629 hours/ns, 6.367 timesteps/s
99.9% CPU use with 1 MPI tasks x no OpenMP threads

MPI task timing breakdown:
Section |  min time  |  avg time  |  max time  |%varavg| %total
---------------------------------------------------------------
Pair    | 14.618     | 14.618     | 14.618     |   0.0 | 54.11
Neigh   | 11.963     | 11.963     | 11.963     |   0.0 | 44.28
Comm    | 0.15962    | 0.15962    | 0.15962    |   0.0 |  0.59
Output  | 0.00015092 | 0.00015092 | 0.00015092 |   0.0 |  0.00
Modify  | 0.2184     | 0.2184     | 0.2184     |   0.0 |  0.81
Other   |            | 0.05682    |            |       |  0.21

Nlocal:    19652 ave 19652 max 19652 min
Histogram: 1 0 0 0 0 0 0 0 0 0
Nghost:    19751 ave 19751 max 19751 min
Histogram: 1 0 0 0 0 0 0 0 0 0
Neighs:    1.7686e+06 ave 1.7686e+06 max 1.7686e+06 min
Histogram: 1 0 0 0 0 0 0 0 0 0

Total # of neighbors = 1768603
Ave neighs/atom = 89.9961
Neighbor list builds = 172
Dangerous builds not checked
Setting up Verlet run ...
  Unit style    : metal
  Current step  : 41334
  Time step     : 0.001
Per MPI rank memory allocation (min/avg/max) = 18.96 | 18.96 | 18.96 Mbytes
Step Temp Press TotEng PotEng Enthalpy Volume 
   41334    2317.8586    110.46174   -69917.657   -75805.229   -69900.454    249515.61 
   41354    2353.3765   -1462.8323   -69915.969    -75893.76   -70143.781    249512.89 
   41829    2321.6544   -318.16088   -70186.935   -76084.149   -70236.337    248774.77 
Loop time of 75.9318 on 1 procs for 495 steps with 19652 atoms

Performance: 0.563 ns/day, 42.610 hours/ns, 6.519 timesteps/s
99.8% CPU use with 1 MPI tasks x no OpenMP threads

MPI task timing breakdown:
Section |  min time  |  avg time  |  max time  |%varavg| %total
---------------------------------------------------------------
Pair    | 40.804     | 40.804     | 40.804     |   0.0 | 53.74
Neigh   | 33.883     | 33.883     | 33.883     |   0.0 | 44.62
Comm    | 0.44375    | 0.44375    | 0.44375    |   0.0 |  0.58
Output  | 0.05707    | 0.05707    | 0.05707    |   0.0 |  0.08
Modify  | 0.58889    | 0.58889    | 0.58889    |   0.0 |  0.78
Other   |            | 0.1551     |            |       |  0.20

Nlocal:    19652 ave 19652 max 19652 min
Histogram: 1 0 0 0 0 0 0 0 0 0
Nghost:    19761 ave 19761 max 19761 min
Histogram: 1 0 0 0 0 0 0 0 0 0
Neighs:    1.77311e+06 ave 1.77311e+06 max 1.77311e+06 min
Histogram: 1 0 0 0 0 0 0 0 0 0

Total # of neighbors = 1773110
Ave neighs/atom = 90.2254
Neighbor list builds = 495
Dangerous builds not checked
Setting up Verlet run ...
  Unit style    : metal
  Current step  : 41829
  Time step     : 0.001
Per MPI rank memory allocation (min/avg/max) = 18.96 | 18.96 | 18.96 Mbytes
Step Temp Press TotEng PotEng Enthalpy Volume 
   41829    2321.6544   -318.16088   -70186.935   -76084.149   -70236.337    248774.77 
   42001    2280.9132    642.39438   -70279.134   -76072.862   -70179.442    248638.53 
Loop time of 27.2033 on 1 procs for 172 steps with 19652 atoms

Performance: 0.546 ns/day, 43.933 hours/ns, 6.323 timesteps/s
99.8% CPU use with 1 MPI tasks x no OpenMP threads

MPI task timing breakdown:
Section |  min time  |  avg time  |  max time  |%varavg| %total
---------------------------------------------------------------
Pair    | 14.695     | 14.695     | 14.695     |   0.0 | 54.02
Neigh   | 12.064     | 12.064     | 12.064     |   0.0 | 44.35
Comm    | 0.16313    | 0.16313    | 0.16313    |   0.0 |  0.60
Output  | 0.00020099 | 0.00020099 | 0.00020099 |   0.0 |  0.00
Modify  | 0.22211    | 0.22211    | 0.22211    |   0.0 |  0.82
Other   |            | 0.05807    |            |       |  0.21

Nlocal:    19652 ave 19652 max 19652 min
Histogram: 1 0 0 0 0 0 0 0 0 0
Nghost:    19710 ave 19710 max 19710 min
Histogram: 1 0 0 0 0 0 0 0 0 0
Neighs:    1.77412e+06 ave 1.77412e+06 max 1.77412e+06 min
Histogram: 1 0 0 0 0 0 0 0 0 0

Total # of neighbors = 1774121
Ave neighs/atom = 90.2769
Neighbor list builds = 172
Dangerous builds not checked
Setting up Verlet run ...
  Unit style    : metal
  Current step  : 42001
  Time step     : 0.001
Per MPI rank memory allocation (min/avg/max) = 18.96 | 18.96 | 18.96 Mbytes
Step Temp Press TotEng PotEng Enthalpy Volume 
   42001    2280.9132    642.39438   -70279.134   -76072.862   -70179.442    248638.53 
   42021    2288.6403    40.873781   -70277.441   -76090.796   -70271.098    248641.28 
   42496    2272.2933    246.50069   -70440.681   -76212.513   -70402.487     248246.9 
Loop time of 81.0814 on 1 procs for 495 steps with 19652 atoms

Performance: 0.527 ns/day, 45.500 hours/ns, 6.105 timesteps/s
99.8% CPU use with 1 MPI tasks x no OpenMP threads

MPI task timing breakdown:
Section |  min time  |  avg time  |  max time  |%varavg| %total
---------------------------------------------------------------
Pair    | 43.648     | 43.648     | 43.648     |   0.0 | 53.83
Neigh   | 36.102     | 36.102     | 36.102     |   0.0 | 44.53
Comm    | 0.47236    | 0.47236    | 0.47236    |   0.0 |  0.58
Output  | 0.051867   | 0.051867   | 0.051867   |   0.0 |  0.06
Modify  | 0.63944    | 0.63944    | 0.63944    |   0.0 |  0.79
Other   |            | 0.1677     |            |       |  0.21

Nlocal:    19652 ave 19652 max 19652 min
Histogram: 1 0 0 0 0 0 0 0 0 0
Nghost:    19807 ave 19807 max 19807 min
Histogram: 1 0 0 0 0 0 0 0 0 0
Neighs:    1.77612e+06 ave 1.77612e+06 max 1.77612e+06 min
Histogram: 1 0 0 0 0 0 0 0 0 0

Total # of neighbors = 1776122
Ave neighs/atom = 90.3787
Neighbor list builds = 495
Dangerous builds not checked
Setting up Verlet run ...
  Unit style    : metal
  Current step  : 42496
  Time step     : 0.001
Per MPI rank memory allocation (min/avg/max) = 18.96 | 18.96 | 18.96 Mbytes
Step Temp Press TotEng PotEng Enthalpy Volume 
   42496    2272.2933    246.50069   -70440.681   -76212.513   -70402.487     248246.9 
   42668    2248.7047    -528.4162   -70531.255    -76243.17    -70613.09     248124.9 
Loop time of 26.3598 on 1 procs for 172 steps with 19652 atoms

Performance: 0.564 ns/day, 42.571 hours/ns, 6.525 timesteps/s
99.8% CPU use with 1 MPI tasks x no OpenMP threads

MPI task timing breakdown:
Section |  min time  |  avg time  |  max time  |%varavg| %total
---------------------------------------------------------------
Pair    | 14.27      | 14.27      | 14.27      |   0.0 | 54.14
Neigh   | 11.673     | 11.673     | 11.673     |   0.0 | 44.28
Comm    | 0.15383    | 0.15383    | 0.15383    |   0.0 |  0.58
Output  | 0.00013494 | 0.00013494 | 0.00013494 |   0.0 |  0.00
Modify  | 0.20769    | 0.20769    | 0.20769    |   0.0 |  0.79
Other   |            | 0.05507    |            |       |  0.21

Nlocal:    19652 ave 19652 max 19652 min
Histogram: 1 0 0 0 0 0 0 0 0 0
Nghost:    19773 ave 19773 max 19773 min
Histogram: 1 0 0 0 0 0 0 0 0 0
Neighs:    1.77727e+06 ave 1.77727e+06 max 1.77727e+06 min
Histogram: 1 0 0 0 0 0 0 0 0 0

Total # of neighbors = 1777273
Ave neighs/atom = 90.4373
Neighbor list builds = 172
Dangerous builds not checked
Setting up Verlet run ...
  Unit style    : metal
  Current step  : 42668
  Time step     : 0.001
Per MPI rank memory allocation (min/avg/max) = 18.96 | 18.96 | 18.96 Mbytes
Step Temp Press TotEng PotEng Enthalpy Volume 
   42668    2248.7047    -528.4162   -70531.255    -76243.17    -70613.09     248124.9 
   42688    2242.1731   -222.50134   -70531.057   -76226.381   -70565.515    248122.03 
   43163    2192.6276    1256.0344   -70785.826     -76355.3   -70591.972    247277.06 
Loop time of 78.9562 on 1 procs for 495 steps with 19652 atoms

Performance: 0.542 ns/day, 44.308 hours/ns, 6.269 timesteps/s
99.8% CPU use with 1 MPI tasks x no OpenMP threads

MPI task timing breakdown:
Section |  min time  |  avg time  |  max time  |%varavg| %total
---------------------------------------------------------------
Pair    | 42.835     | 42.835     | 42.835     |   0.0 | 54.25
Neigh   | 34.827     | 34.827     | 34.827     |   0.0 | 44.11
Comm    | 0.4608     | 0.4608     | 0.4608     |   0.0 |  0.58
Output  | 0.048897   | 0.048897   | 0.048897   |   0.0 |  0.06
Modify  | 0.61952    | 0.61952    | 0.61952    |   0.0 |  0.78
Other   |            | 0.1656     |            |       |  0.21

Nlocal:    19652 ave 19652 max 19652 min
Histogram: 1 0 0 0 0 0 0 0 0 0
Nghost:    19752 ave 19752 max 19752 min
Histogram: 1 0 0 0 0 0 0 0 0 0
Neighs:    1.7832e+06 ave 1.7832e+06 max 1.7832e+06 min
Histogram: 1 0 0 0 0 0 0 0 0 0

Total # of neighbors = 1783195
Ave neighs/atom = 90.7386
Neighbor list builds = 495
Dangerous builds not checked
Setting up Verlet run ...
  Unit style    : metal
  Current step  : 43163
  Time step     : 0.001
Per MPI rank memory allocation (min/avg/max) = 18.96 | 18.96 | 18.96 Mbytes
Step Temp Press TotEng PotEng Enthalpy Volume 
   43163    2192.6276    1256.0344   -70785.826     -76355.3   -70591.972    247277.06 
   43335    2170.2044    794.11618   -70879.356   -76391.872   -70756.778    247308.33 
Loop time of 27.5928 on 1 procs for 172 steps with 19652 atoms

Performance: 0.539 ns/day, 44.562 hours/ns, 6.234 timesteps/s
99.8% CPU use with 1 MPI tasks x no OpenMP threads

MPI task timing breakdown:
Section |  min time  |  avg time  |  max time  |%varavg| %total
---------------------------------------------------------------
Pair    | 15.005     | 15.005     | 15.005     |   0.0 | 54.38
Neigh   | 12.15      | 12.15      | 12.15      |   0.0 | 44.03
Comm    | 0.16041    | 0.16041    | 0.16041    |   0.0 |  0.58
Output  | 0.000139   | 0.000139   | 0.000139   |   0.0 |  0.00
Modify  | 0.21892    | 0.21892    | 0.21892    |   0.0 |  0.79
Other   |            | 0.05791    |            |       |  0.21

Nlocal:    19652 ave 19652 max 19652 min
Histogram: 1 0 0 0 0 0 0 0 0 0
Nghost:    19841 ave 19841 max 19841 min
Histogram: 1 0 0 0 0 0 0 0 0 0
Neighs:    1.78249e+06 ave 1.78249e+06 max 1.78249e+06 min
Histogram: 1 0 0 0 0 0 0 0 0 0

Total # of neighbors = 1782486
Ave neighs/atom = 90.7025
Neighbor list builds = 172
Dangerous builds not checked
Setting up Verlet run ...
  Unit style    : metal
  Current step  : 43335
  Time step     : 0.001
Per MPI rank memory allocation (min/avg/max) = 18.96 | 18.96 | 18.96 Mbytes
Step Temp Press TotEng PotEng Enthalpy Volume 
   43335    2170.2044    794.11618   -70879.356   -76391.872   -70756.778    247308.33 
   43355    2189.4375   -74.697381   -70877.089    -76438.46    -70888.62    247311.56 
   43830    2163.4928   -809.17224   -71144.052   -76639.521   -71268.629    246665.26 
Loop time of 79.5975 on 1 procs for 495 steps with 19652 atoms

Performance: 0.537 ns/day, 44.668 hours/ns, 6.219 timesteps/s
99.2% CPU use with 1 MPI tasks x no OpenMP threads

MPI task timing breakdown:
Section |  min time  |  avg time  |  max time  |%varavg| %total
---------------------------------------------------------------
Pair    | 42.951     | 42.951     | 42.951     |   0.0 | 53.96
Neigh   | 34.85      | 34.85      | 34.85      |   0.0 | 43.78
Comm    | 0.45508    | 0.45508    | 0.45508    |   0.0 |  0.57
Output  | 0.57347    | 0.57347    | 0.57347    |   0.0 |  0.72
Modify  | 0.60786    | 0.60786    | 0.60786    |   0.0 |  0.76
Other   |            | 0.16       |            |       |  0.20

Nlocal:    19652 ave 19652 max 19652 min
Histogram: 1 0 0 0 0 0 0 0 0 0
Nghost:    19837 ave 19837 max 19837 min
Histogram: 1 0 0 0 0 0 0 0 0 0
Neighs:    1.78707e+06 ave 1.78707e+06 max 1.78707e+06 min
Histogram: 1 0 0 0 0 0 0 0 0 0

Total # of neighbors = 1787067
Ave neighs/atom = 90.9356
Neighbor list builds = 495
Dangerous builds not checked
Setting up Verlet run ...
  Unit style    : metal
  Current step  : 43830
  Time step     : 0.001
Per MPI rank memory allocation (min/avg/max) = 18.96 | 18.96 | 18.96 Mbytes
Step Temp Press TotEng PotEng Enthalpy Volume 
   43830    2163.4928   -809.17224   -71144.052   -76639.521   -71268.629    246665.26 
   44002    2148.1064     270.9212   -71230.548   -76686.934   -71188.898    246311.35 
Loop time of 25.6306 on 1 procs for 172 steps with 19652 atoms

Performance: 0.580 ns/day, 41.393 hours/ns, 6.711 timesteps/s
100.0% CPU use with 1 MPI tasks x no OpenMP threads

MPI task timing breakdown:
Section |  min time  |  avg time  |  max time  |%varavg| %total
---------------------------------------------------------------
Pair    | 13.804     | 13.804     | 13.804     |   0.0 | 53.86
Neigh   | 11.421     | 11.421     | 11.421     |   0.0 | 44.56
Comm    | 0.15044    | 0.15044    | 0.15044    |   0.0 |  0.59
Output  | 0.00015688 | 0.00015688 | 0.00015688 |   0.0 |  0.00
Modify  | 0.20254    | 0.20254    | 0.20254    |   0.0 |  0.79
Other   |            | 0.05285    |            |       |  0.21

Nlocal:    19652 ave 19652 max 19652 min
Histogram: 1 0 0 0 0 0 0 0 0 0
Nghost:    19808 ave 19808 max 19808 min
Histogram: 1 0 0 0 0 0 0 0 0 0
Neighs:    1.78986e+06 ave 1.78986e+06 max 1.78986e+06 min
Histogram: 1 0 0 0 0 0 0 0 0 0

Total # of neighbors = 1789864
Ave neighs/atom = 91.078
Neighbor list builds = 172
Dangerous builds not checked
Setting up Verlet run ...
  Unit style    : metal
  Current step  : 44002
  Time step     : 0.001
Per MPI rank memory allocation (min/avg/max) = 18.96 | 18.96 | 18.96 Mbytes
Step Temp Press TotEng PotEng Enthalpy Volume 
   44002    2148.1064     270.9212   -71230.548   -76686.934   -71188.898    246311.35 
   44022    2146.5802    613.46087   -71230.711    -76683.22   -71136.399    246313.35 
   44497    2108.9947    1993.1957   -71489.139   -76846.178   -71183.814    245426.79 
Loop time of 79.8728 on 1 procs for 495 steps with 19652 atoms

Performance: 0.535 ns/day, 44.822 hours/ns, 6.197 timesteps/s
99.2% CPU use with 1 MPI tasks x no OpenMP threads

MPI task timing breakdown:
Section |  min time  |  avg time  |  max time  |%varavg| %total
---------------------------------------------------------------
Pair    | 42.897     | 42.897     | 42.897     |   0.0 | 53.71
Neigh   | 35.157     | 35.157     | 35.157     |   0.0 | 44.02
Comm    | 0.45936    | 0.45936    | 0.45936    |   0.0 |  0.58
Output  | 0.56951    | 0.56951    | 0.56951    |   0.0 |  0.71
Modify  | 0.62612    | 0.62612    | 0.62612    |   0.0 |  0.78
Other   |            | 0.1637     |            |       |  0.20

Nlocal:    19652 ave 19652 max 19652 min
Histogram: 1 0 0 0 0 0 0 0 0 0
Nghost:    19847 ave 19847 max 19847 min
Histogram: 1 0 0 0 0 0 0 0 0 0
Neighs:    1.79546e+06 ave 1.79546e+06 max 1.79546e+06 min
Histogram: 1 0 0 0 0 0 0 0 0 0

Total # of neighbors = 1795464
Ave neighs/atom = 91.3629
Neighbor list builds = 495
Dangerous builds not checked
Setting up Verlet run ...
  Unit style    : metal
  Current step  : 44497
  Time step     : 0.001
Per MPI rank memory allocation (min/avg/max) = 18.96 | 18.96 | 18.96 Mbytes
Step Temp Press TotEng PotEng Enthalpy Volume 
   44497    2108.9947    1993.1957   -71489.139   -76846.178   -71183.814    245426.79 
   44669    2090.9224   -1827.7834   -71561.567     -76872.7   -71842.213    246005.32 
Loop time of 28.4979 on 1 procs for 172 steps with 19652 atoms

Performance: 0.521 ns/day, 46.024 hours/ns, 6.036 timesteps/s
98.7% CPU use with 1 MPI tasks x no OpenMP threads

MPI task timing breakdown:
Section |  min time  |  avg time  |  max time  |%varavg| %total
---------------------------------------------------------------
Pair    | 15.399     | 15.399     | 15.399     |   0.0 | 54.03
Neigh   | 12.323     | 12.323     | 12.323     |   0.0 | 43.24
Comm    | 0.16333    | 0.16333    | 0.16333    |   0.0 |  0.57
Output  | 0.33193    | 0.33193    | 0.33193    |   0.0 |  1.16
Modify  | 0.22248    | 0.22248    | 0.22248    |   0.0 |  0.78
Other   |            | 0.05847    |            |       |  0.21

Nlocal:    19652 ave 19652 max 19652 min
Histogram: 1 0 0 0 0 0 0 0 0 0
Nghost:    19829 ave 19829 max 19829 min
Histogram: 1 0 0 0 0 0 0 0 0 0
Neighs:    1.79127e+06 ave 1.79127e+06 max 1.79127e+06 min
Histogram: 1 0 0 0 0 0 0 0 0 0

Total # of neighbors = 1791270
Ave neighs/atom = 91.1495
Neighbor list builds = 172
Dangerous builds not checked
Setting up Verlet run ...
  Unit style    : metal
  Current step  : 44669
  Time step     : 0.001
Per MPI rank memory allocation (min/avg/max) = 18.96 | 18.96 | 18.96 Mbytes
Step Temp Press TotEng PotEng Enthalpy Volume 
   44669    2090.9224   -1827.7834   -71561.567     -76872.7   -71842.213    246005.32 
   44689    2078.2576   -1440.2523   -71560.285   -76839.249   -71781.419    245994.69 
   45164    2064.3182    214.92585   -71786.162   -77029.718   -71753.292    245035.66 
Loop time of 80.0769 on 1 procs for 495 steps with 19652 atoms

Performance: 0.534 ns/day, 44.937 hours/ns, 6.182 timesteps/s
99.8% CPU use with 1 MPI tasks x no OpenMP threads

MPI task timing breakdown:
Section |  min time  |  avg time  |  max time  |%varavg| %total
---------------------------------------------------------------
Pair    | 43.51      | 43.51      | 43.51      |   0.0 | 54.33
Neigh   | 35.255     | 35.255     | 35.255     |   0.0 | 44.03
Comm    | 0.46715    | 0.46715    | 0.46715    |   0.0 |  0.58
Output  | 0.042472   | 0.042472   | 0.042472   |   0.0 |  0.05
Modify  | 0.63541    | 0.63541    | 0.63541    |   0.0 |  0.79
Other   |            | 0.1672     |            |       |  0.21

Nlocal:    19652 ave 19652 max 19652 min
Histogram: 1 0 0 0 0 0 0 0 0 0
Nghost:    19901 ave 19901 max 19901 min
Histogram: 1 0 0 0 0 0 0 0 0 0
Neighs:    1.79766e+06 ave 1.79766e+06 max 1.79766e+06 min
Histogram: 1 0 0 0 0 0 0 0 0 0

Total # of neighbors = 1797665
Ave neighs/atom = 91.4749
Neighbor list builds = 495
Dangerous builds not checked
Setting up Verlet run ...
  Unit style    : metal
  Current step  : 45164
  Time step     : 0.001
Per MPI rank memory allocation (min/avg/max) = 18.96 | 18.96 | 18.96 Mbytes
Step Temp Press TotEng PotEng Enthalpy Volume 
   45164    2064.3182    214.92585   -71786.162   -77029.718   -71753.292    245035.66 
   45336    2062.5038   -1407.4209   -71880.328   -77119.276   -72095.449    244888.42 
Loop time of 27.5996 on 1 procs for 172 steps with 19652 atoms

Performance: 0.538 ns/day, 44.573 hours/ns, 6.232 timesteps/s
99.9% CPU use with 1 MPI tasks x no OpenMP threads

MPI task timing breakdown:
Section |  min time  |  avg time  |  max time  |%varavg| %total
---------------------------------------------------------------
Pair    | 15.04      | 15.04      | 15.04      |   0.0 | 54.49
Neigh   | 12.124     | 12.124     | 12.124     |   0.0 | 43.93
Comm    | 0.16005    | 0.16005    | 0.16005    |   0.0 |  0.58
Output  | 0.00016212 | 0.00016212 | 0.00016212 |   0.0 |  0.00
Modify  | 0.2186     | 0.2186     | 0.2186     |   0.0 |  0.79
Other   |            | 0.05704    |            |       |  0.21

Nlocal:    19652 ave 19652 max 19652 min
Histogram: 1 0 0 0 0 0 0 0 0 0
Nghost:    19887 ave 19887 max 19887 min
Histogram: 1 0 0 0 0 0 0 0 0 0
Neighs:    1.79887e+06 ave 1.79887e+06 max 1.79887e+06 min
Histogram: 1 0 0 0 0 0 0 0 0 0

Total # of neighbors = 1798871
Ave neighs/atom = 91.5363
Neighbor list builds = 172
Dangerous builds not checked
Setting up Verlet run ...
  Unit style    : metal
  Current step  : 45336
  Time step     : 0.001
Per MPI rank memory allocation (min/avg/max) = 18.96 | 18.96 | 18.96 Mbytes
Step Temp Press TotEng PotEng Enthalpy Volume 
   45336    2062.5038   -1407.4209   -71880.328   -77119.276   -72095.449    244888.42 
   45356    2037.4001    184.45269   -71880.844   -77056.026   -71852.651    244882.34 
   45831    2016.7571    265.66508   -72113.522   -77236.269   -72073.014     244294.7 
Loop time of 82.3661 on 1 procs for 495 steps with 19652 atoms

Performance: 0.519 ns/day, 46.221 hours/ns, 6.010 timesteps/s
99.9% CPU use with 1 MPI tasks x no OpenMP threads

MPI task timing breakdown:
Section |  min time  |  avg time  |  max time  |%varavg| %total
---------------------------------------------------------------
Pair    | 44.649     | 44.649     | 44.649     |   0.0 | 54.21
Neigh   | 36.384     | 36.384     | 36.384     |   0.0 | 44.17
Comm    | 0.47174    | 0.47174    | 0.47174    |   0.0 |  0.57
Output  | 0.058146   | 0.058146   | 0.058146   |   0.0 |  0.07
Modify  | 0.63674    | 0.63674    | 0.63674    |   0.0 |  0.77
Other   |            | 0.1663     |            |       |  0.20

Nlocal:    19652 ave 19652 max 19652 min
Histogram: 1 0 0 0 0 0 0 0 0 0
Nghost:    19814 ave 19814 max 19814 min
Histogram: 1 0 0 0 0 0 0 0 0 0
Neighs:    1.80337e+06 ave 1.80337e+06 max 1.80337e+06 min
Histogram: 1 0 0 0 0 0 0 0 0 0

Total # of neighbors = 1803371
Ave neighs/atom = 91.7653
Neighbor list builds = 495
Dangerous builds not checked
Setting up Verlet run ...
  Unit style    : metal
  Current step  : 45831
  Time step     : 0.001
Per MPI rank memory allocation (min/avg/max) = 18.96 | 18.96 | 18.96 Mbytes
Step Temp Press TotEng PotEng Enthalpy Volume 
   45831    2016.7571    265.66508   -72113.522   -77236.269   -72073.014     244294.7 
   46003    1997.4317   -751.19096   -72208.732   -77282.391   -72323.236    244219.66 
Loop time of 28.0149 on 1 procs for 172 steps with 19652 atoms

Performance: 0.530 ns/day, 45.244 hours/ns, 6.140 timesteps/s
99.9% CPU use with 1 MPI tasks x no OpenMP threads

MPI task timing breakdown:
Section |  min time  |  avg time  |  max time  |%varavg| %total
---------------------------------------------------------------
Pair    | 15.196     | 15.196     | 15.196     |   0.0 | 54.24
Neigh   | 12.369     | 12.369     | 12.369     |   0.0 | 44.15
Comm    | 0.16536    | 0.16536    | 0.16536    |   0.0 |  0.59
Output  | 0.00016308 | 0.00016308 | 0.00016308 |   0.0 |  0.00
Modify  | 0.22542    | 0.22542    | 0.22542    |   0.0 |  0.80
Other   |            | 0.05861    |            |       |  0.21

Nlocal:    19652 ave 19652 max 19652 min
Histogram: 1 0 0 0 0 0 0 0 0 0
Nghost:    19854 ave 19854 max 19854 min
Histogram: 1 0 0 0 0 0 0 0 0 0
Neighs:    1.80338e+06 ave 1.80338e+06 max 1.80338e+06 min
Histogram: 1 0 0 0 0 0 0 0 0 0

Total # of neighbors = 1803381
Ave neighs/atom = 91.7658
Neighbor list builds = 172
Dangerous builds not checked
Setting up Verlet run ...
  Unit style    : metal
  Current step  : 46003
  Time step     : 0.001
Per MPI rank memory allocation (min/avg/max) = 18.96 | 18.96 | 18.96 Mbytes
Step Temp Press TotEng PotEng Enthalpy Volume 
   46003    1997.4317   -751.19096   -72208.732   -77282.391   -72323.236    244219.66 
   46023    1999.3812   -632.84845   -72208.606   -77287.216   -72305.069    244214.96 
   46498    1972.2841   -573.61499    -72450.14   -77459.922   -72537.314    243485.82 
Loop time of 81.9306 on 1 procs for 495 steps with 19652 atoms

Performance: 0.522 ns/day, 45.977 hours/ns, 6.042 timesteps/s
99.8% CPU use with 1 MPI tasks x no OpenMP threads

MPI task timing breakdown:
Section |  min time  |  avg time  |  max time  |%varavg| %total
---------------------------------------------------------------
Pair    | 44.447     | 44.447     | 44.447     |   0.0 | 54.25
Neigh   | 36.137     | 36.137     | 36.137     |   0.0 | 44.11
Comm    | 0.47497    | 0.47497    | 0.47497    |   0.0 |  0.58
Output  | 0.062323   | 0.062323   | 0.062323   |   0.0 |  0.08
Modify  | 0.64078    | 0.64078    | 0.64078    |   0.0 |  0.78
Other   |            | 0.1678     |            |       |  0.20

Nlocal:    19652 ave 19652 max 19652 min
Histogram: 1 0 0 0 0 0 0 0 0 0
Nghost:    19962 ave 19962 max 19962 min
Histogram: 1 0 0 0 0 0 0 0 0 0
Neighs:    1.80857e+06 ave 1.80857e+06 max 1.80857e+06 min
Histogram: 1 0 0 0 0 0 0 0 0 0

Total # of neighbors = 1808566
Ave neighs/atom = 92.0296
Neighbor list builds = 495
Dangerous builds not checked
Setting up Verlet run ...
  Unit style    : metal
  Current step  : 46498
  Time step     : 0.001
Per MPI rank memory allocation (min/avg/max) = 18.96 | 18.96 | 18.96 Mbytes
Step Temp Press TotEng PotEng Enthalpy Volume 
   46498    1972.2841   -573.61499    -72450.14   -77459.922   -72537.314    243485.82 
   46670     1951.304   -442.34336   -72531.146   -77487.636   -72598.351    243415.13 
Loop time of 27.5064 on 1 procs for 172 steps with 19652 atoms

Performance: 0.540 ns/day, 44.423 hours/ns, 6.253 timesteps/s
99.8% CPU use with 1 MPI tasks x no OpenMP threads

MPI task timing breakdown:
Section |  min time  |  avg time  |  max time  |%varavg| %total
---------------------------------------------------------------
Pair    | 14.896     | 14.896     | 14.896     |   0.0 | 54.15
Neigh   | 12.173     | 12.173     | 12.173     |   0.0 | 44.25
Comm    | 0.16041    | 0.16041    | 0.16041    |   0.0 |  0.58
Output  | 0.00014186 | 0.00014186 | 0.00014186 |   0.0 |  0.00
Modify  | 0.21985    | 0.21985    | 0.21985    |   0.0 |  0.80
Other   |            | 0.05752    |            |       |  0.21

Nlocal:    19652 ave 19652 max 19652 min
Histogram: 1 0 0 0 0 0 0 0 0 0
Nghost:    19958 ave 19958 max 19958 min
Histogram: 1 0 0 0 0 0 0 0 0 0
Neighs:    1.80914e+06 ave 1.80914e+06 max 1.80914e+06 min
Histogram: 1 0 0 0 0 0 0 0 0 0

Total # of neighbors = 1809145
Ave neighs/atom = 92.0591
Neighbor list builds = 172
Dangerous builds not checked
Setting up Verlet run ...
  Unit style    : metal
  Current step  : 46670
  Time step     : 0.001
Per MPI rank memory allocation (min/avg/max) = 18.96 | 18.96 | 18.96 Mbytes
Step Temp Press TotEng PotEng Enthalpy Volume 
   46670     1951.304   -442.34336   -72531.146   -77487.636   -72598.351    243415.13 
   46690    1971.9821   -1294.7891   -72532.036    -77541.05   -72728.747    243410.56 
   47165    1921.4903   -307.00137   -72776.388   -77657.149   -72822.913    242800.18 
Loop time of 76.4836 on 1 procs for 495 steps with 19652 atoms

Performance: 0.559 ns/day, 42.920 hours/ns, 6.472 timesteps/s
99.7% CPU use with 1 MPI tasks x no OpenMP threads

MPI task timing breakdown:
Section |  min time  |  avg time  |  max time  |%varavg| %total
---------------------------------------------------------------
Pair    | 41.561     | 41.561     | 41.561     |   0.0 | 54.34
Neigh   | 33.591     | 33.591     | 33.591     |   0.0 | 43.92
Comm    | 0.44638    | 0.44638    | 0.44638    |   0.0 |  0.58
Output  | 0.12417    | 0.12417    | 0.12417    |   0.0 |  0.16
Modify  | 0.6032     | 0.6032     | 0.6032     |   0.0 |  0.79
Other   |            | 0.1583     |            |       |  0.21

Nlocal:    19652 ave 19652 max 19652 min
Histogram: 1 0 0 0 0 0 0 0 0 0
Nghost:    19872 ave 19872 max 19872 min
Histogram: 1 0 0 0 0 0 0 0 0 0
Neighs:    1.81366e+06 ave 1.81366e+06 max 1.81366e+06 min
Histogram: 1 0 0 0 0 0 0 0 0 0

Total # of neighbors = 1813663
Ave neighs/atom = 92.289
Neighbor list builds = 495
Dangerous builds not checked
Setting up Verlet run ...
  Unit style    : metal
  Current step  : 47165
  Time step     : 0.001
Per MPI rank memory allocation (min/avg/max) = 18.96 | 18.96 | 18.96 Mbytes
Step Temp Press TotEng PotEng Enthalpy Volume 
   47165    1921.4903   -307.00137   -72776.388   -77657.149   -72822.913    242800.18 
   47337    1902.3623    36.694036   -72867.408   -77699.582   -72861.853    242578.53 
Loop time of 27.4064 on 1 procs for 172 steps with 19652 atoms

Performance: 0.542 ns/day, 44.261 hours/ns, 6.276 timesteps/s
99.8% CPU use with 1 MPI tasks x no OpenMP threads

MPI task timing breakdown:
Section |  min time  |  avg time  |  max time  |%varavg| %total
---------------------------------------------------------------
Pair    | 14.992     | 14.992     | 14.992     |   0.0 | 54.70
Neigh   | 11.978     | 11.978     | 11.978     |   0.0 | 43.71
Comm    | 0.15997    | 0.15997    | 0.15997    |   0.0 |  0.58
Output  | 0.00017095 | 0.00017095 | 0.00017095 |   0.0 |  0.00
Modify  | 0.21837    | 0.21837    | 0.21837    |   0.0 |  0.80
Other   |            | 0.05725    |            |       |  0.21

Nlocal:    19652 ave 19652 max 19652 min
Histogram: 1 0 0 0 0 0 0 0 0 0
Nghost:    19859 ave 19859 max 19859 min
Histogram: 1 0 0 0 0 0 0 0 0 0
Neighs:    1.8145e+06 ave 1.8145e+06 max 1.8145e+06 min
Histogram: 1 0 0 0 0 0 0 0 0 0

Total # of neighbors = 1814503
Ave neighs/atom = 92.3317
Neighbor list builds = 172
Dangerous builds not checked
Setting up Verlet run ...
  Unit style    : metal
  Current step  : 47337
  Time step     : 0.001
Per MPI rank memory allocation (min/avg/max) = 18.96 | 18.96 | 18.96 Mbytes
Step Temp Press TotEng PotEng Enthalpy Volume 
   47337    1902.3623    36.694036   -72867.408   -77699.582   -72861.853    242578.53 
   47357     1910.464   -653.00001   -72868.141   -77720.893   -72967.008       242577 
   47832    1856.7398   -345.24591   -73138.968   -77855.257   -73191.111    241978.04 
Loop time of 80.7324 on 1 procs for 495 steps with 19652 atoms

Performance: 0.530 ns/day, 45.304 hours/ns, 6.131 timesteps/s
99.9% CPU use with 1 MPI tasks x no OpenMP threads

MPI task timing breakdown:
Section |  min time  |  avg time  |  max time  |%varavg| %total
---------------------------------------------------------------
Pair    | 43.978     | 43.978     | 43.978     |   0.0 | 54.47
Neigh   | 35.42      | 35.42      | 35.42      |   0.0 | 43.87
Comm    | 0.47265    | 0.47265    | 0.47265    |   0.0 |  0.59
Output  | 0.061091   | 0.061091   | 0.061091   |   0.0 |  0.08
Modify  | 0.63455    | 0.63455    | 0.63455    |   0.0 |  0.79
Other   |            | 0.1661     |            |       |  0.21

Nlocal:    19652 ave 19652 max 19652 min
Histogram: 1 0 0 0 0 0 0 0 0 0
Nghost:    20018 ave 20018 max 20018 min
Histogram: 1 0 0 0 0 0 0 0 0 0
Neighs:    1.81904e+06 ave 1.81904e+06 max 1.81904e+06 min
Histogram: 1 0 0 0 0 0 0 0 0 0

Total # of neighbors = 1819039
Ave neighs/atom = 92.5625
Neighbor list builds = 495
Dangerous builds not checked
Setting up Verlet run ...
  Unit style    : metal
  Current step  : 47832
  Time step     : 0.001
Per MPI rank memory allocation (min/avg/max) = 18.96 | 18.96 | 18.96 Mbytes
Step Temp Press TotEng PotEng Enthalpy Volume 
   47832    1856.7398   -345.24591   -73138.968   -77855.257   -73191.111    241978.04 
   48004    1852.2795    1141.9581   -73229.459   -77934.418   -73057.244    241618.89 
Loop time of 28.509 on 1 procs for 172 steps with 19652 atoms

Performance: 0.521 ns/day, 46.042 hours/ns, 6.033 timesteps/s
99.9% CPU use with 1 MPI tasks x no OpenMP threads

MPI task timing breakdown:
Section |  min time  |  avg time  |  max time  |%varavg| %total
---------------------------------------------------------------
Pair    | 15.457     | 15.457     | 15.457     |   0.0 | 54.22
Neigh   | 12.598     | 12.598     | 12.598     |   0.0 | 44.19
Comm    | 0.16751    | 0.16751    | 0.16751    |   0.0 |  0.59
Output  | 0.00018191 | 0.00018191 | 0.00018191 |   0.0 |  0.00
Modify  | 0.22741    | 0.22741    | 0.22741    |   0.0 |  0.80
Other   |            | 0.0592     |            |       |  0.21

Nlocal:    19652 ave 19652 max 19652 min
Histogram: 1 0 0 0 0 0 0 0 0 0
Nghost:    20037 ave 20037 max 20037 min
Histogram: 1 0 0 0 0 0 0 0 0 0
Neighs:    1.82104e+06 ave 1.82104e+06 max 1.82104e+06 min
Histogram: 1 0 0 0 0 0 0 0 0 0

Total # of neighbors = 1821040
Ave neighs/atom = 92.6644
Neighbor list builds = 172
Dangerous builds not checked
Setting up Verlet run ...
  Unit style    : metal
  Current step  : 48004
  Time step     : 0.001
Per MPI rank memory allocation (min/avg/max) = 18.96 | 18.96 | 18.96 Mbytes
Step Temp Press TotEng PotEng Enthalpy Volume 
   48004    1852.2795    1141.9581   -73229.459   -77934.418   -73057.244    241618.89 
   48024    1853.6042    642.16939   -73229.884   -77938.208   -73133.038    241625.73 
   48499    1799.4203    763.63498   -73496.673   -78067.364   -73381.744    241131.11 
Loop time of 80.1381 on 1 procs for 495 steps with 19652 atoms

Performance: 0.534 ns/day, 44.971 hours/ns, 6.177 timesteps/s
99.4% CPU use with 1 MPI tasks x no OpenMP threads

MPI task timing breakdown:
Section |  min time  |  avg time  |  max time  |%varavg| %total
---------------------------------------------------------------
Pair    | 43.195     | 43.195     | 43.195     |   0.0 | 53.90
Neigh   | 35.298     | 35.298     | 35.298     |   0.0 | 44.05
Comm    | 0.46093    | 0.46093    | 0.46093    |   0.0 |  0.58
Output  | 0.40448    | 0.40448    | 0.40448    |   0.0 |  0.50
Modify  | 0.61676    | 0.61676    | 0.61676    |   0.0 |  0.77
Other   |            | 0.1633     |            |       |  0.20

Nlocal:    19652 ave 19652 max 19652 min
Histogram: 1 0 0 0 0 0 0 0 0 0
Nghost:    19903 ave 19903 max 19903 min
Histogram: 1 0 0 0 0 0 0 0 0 0
Neighs:    1.82444e+06 ave 1.82444e+06 max 1.82444e+06 min
Histogram: 1 0 0 0 0 0 0 0 0 0

Total # of neighbors = 1824445
Ave neighs/atom = 92.8376
Neighbor list builds = 495
Dangerous builds not checked
Setting up Verlet run ...
  Unit style    : metal
  Current step  : 48499
  Time step     : 0.001
Per MPI rank memory allocation (min/avg/max) = 18.96 | 18.96 | 18.96 Mbytes
Step Temp Press TotEng PotEng Enthalpy Volume 
   48499    1799.4203    763.63498   -73496.673   -78067.364   -73381.744    241131.11 
   48671    1795.6364   -573.26814   -73567.423   -78128.503   -73653.686    241090.14 
Loop time of 28.1455 on 1 procs for 172 steps with 19652 atoms

Performance: 0.528 ns/day, 45.455 hours/ns, 6.111 timesteps/s
99.8% CPU use with 1 MPI tasks x no OpenMP threads

MPI task timing breakdown:
Section |  min time  |  avg time  |  max time  |%varavg| %total
---------------------------------------------------------------
Pair    | 15.491     | 15.491     | 15.491     |   0.0 | 55.04
Neigh   | 12.222     | 12.222     | 12.222     |   0.0 | 43.42
Comm    | 0.15897    | 0.15897    | 0.15897    |   0.0 |  0.56
Output  | 0.00017691 | 0.00017691 | 0.00017691 |   0.0 |  0.00
Modify  | 0.21638    | 0.21638    | 0.21638    |   0.0 |  0.77
Other   |            | 0.05678    |            |       |  0.20

Nlocal:    19652 ave 19652 max 19652 min
Histogram: 1 0 0 0 0 0 0 0 0 0
Nghost:    19959 ave 19959 max 19959 min
Histogram: 1 0 0 0 0 0 0 0 0 0
Neighs:    1.82484e+06 ave 1.82484e+06 max 1.82484e+06 min
Histogram: 1 0 0 0 0 0 0 0 0 0

Total # of neighbors = 1824844
Ave neighs/atom = 92.8579
Neighbor list builds = 172
Dangerous builds not checked
Setting up Verlet run ...
  Unit style    : metal
  Current step  : 48671
  Time step     : 0.001
Per MPI rank memory allocation (min/avg/max) = 18.96 | 18.96 | 18.96 Mbytes
Step Temp Press TotEng PotEng Enthalpy Volume 
   48671    1795.6364   -573.26814   -73567.423   -78128.503   -73653.686    241090.14 
   48691    1806.7109   -1253.3127   -73567.389     -78156.6   -73755.979    241084.48 
   49166    1761.7976    -483.4122   -73851.706   -78326.832    -73924.22    240334.39 
Loop time of 82.6615 on 1 procs for 495 steps with 19652 atoms

Performance: 0.517 ns/day, 46.387 hours/ns, 5.988 timesteps/s
99.8% CPU use with 1 MPI tasks x no OpenMP threads

MPI task timing breakdown:
Section |  min time  |  avg time  |  max time  |%varavg| %total
---------------------------------------------------------------
Pair    | 45.404     | 45.404     | 45.404     |   0.0 | 54.93
Neigh   | 35.892     | 35.892     | 35.892     |   0.0 | 43.42
Comm    | 0.47736    | 0.47736    | 0.47736    |   0.0 |  0.58
Output  | 0.067337   | 0.067337   | 0.067337   |   0.0 |  0.08
Modify  | 0.65091    | 0.65091    | 0.65091    |   0.0 |  0.79
Other   |            | 0.1698     |            |       |  0.21

Nlocal:    19652 ave 19652 max 19652 min
Histogram: 1 0 0 0 0 0 0 0 0 0
Nghost:    20011 ave 20011 max 20011 min
Histogram: 1 0 0 0 0 0 0 0 0 0
Neighs:    1.82969e+06 ave 1.82969e+06 max 1.82969e+06 min
Histogram: 1 0 0 0 0 0 0 0 0 0

Total # of neighbors = 1829691
Ave neighs/atom = 93.1046
Neighbor list builds = 495
Dangerous builds not checked
Setting up Verlet run ...
  Unit style    : metal
  Current step  : 49166
  Time step     : 0.001
Per MPI rank memory allocation (min/avg/max) = 18.96 | 18.96 | 18.96 Mbytes
Step Temp Press TotEng PotEng Enthalpy Volume 
   49166    1761.7976    -483.4122   -73851.706   -78326.832    -73924.22    240334.39 
   49338    1742.9776    281.94051   -73931.759   -78359.081   -73889.509    240095.75 
Loop time of 28.4815 on 1 procs for 172 steps with 19652 atoms

Performance: 0.522 ns/day, 45.997 hours/ns, 6.039 timesteps/s
99.9% CPU use with 1 MPI tasks x no OpenMP threads

MPI task timing breakdown:
Section |  min time  |  avg time  |  max time  |%varavg| %total
---------------------------------------------------------------
Pair    | 15.609     | 15.609     | 15.609     |   0.0 | 54.80
Neigh   | 12.415     | 12.415     | 12.415     |   0.0 | 43.59
Comm    | 0.1679     | 0.1679     | 0.1679     |   0.0 |  0.59
Output  | 0.00016403 | 0.00016403 | 0.00016403 |   0.0 |  0.00
Modify  | 0.22892    | 0.22892    | 0.22892    |   0.0 |  0.80
Other   |            | 0.06109    |            |       |  0.21

Nlocal:    19652 ave 19652 max 19652 min
Histogram: 1 0 0 0 0 0 0 0 0 0
Nghost:    19956 ave 19956 max 19956 min
Histogram: 1 0 0 0 0 0 0 0 0 0
Neighs:    1.83204e+06 ave 1.83204e+06 max 1.83204e+06 min
Histogram: 1 0 0 0 0 0 0 0 0 0

Total # of neighbors = 1832044
Ave neighs/atom = 93.2243
Neighbor list builds = 172
Dangerous builds not checked
Setting up Verlet run ...
  Unit style    : metal
  Current step  : 49338
  Time step     : 0.001
Per MPI rank memory allocation (min/avg/max) = 18.96 | 18.96 | 18.96 Mbytes
Step Temp Press TotEng PotEng Enthalpy Volume 
   49338    1742.9776    281.94051   -73931.759   -78359.081   -73889.509    240095.75 
   49358     1750.538    105.02228   -73931.421   -78377.947   -73915.683    240097.05 
   49833    1706.7875   -1731.5831   -74175.446   -78510.842   -74434.623     239807.4 
Loop time of 83.9244 on 1 procs for 495 steps with 19652 atoms

Performance: 0.510 ns/day, 47.096 hours/ns, 5.898 timesteps/s
99.9% CPU use with 1 MPI tasks x no OpenMP threads

MPI task timing breakdown:
Section |  min time  |  avg time  |  max time  |%varavg| %total
---------------------------------------------------------------
Pair    | 46.013     | 46.013     | 46.013     |   0.0 | 54.83
Neigh   | 36.529     | 36.529     | 36.529     |   0.0 | 43.53
Comm    | 0.48679    | 0.48679    | 0.48679    |   0.0 |  0.58
Output  | 0.064549   | 0.064549   | 0.064549   |   0.0 |  0.08
Modify  | 0.65926    | 0.65926    | 0.65926    |   0.0 |  0.79
Other   |            | 0.1718     |            |       |  0.20

Nlocal:    19652 ave 19652 max 19652 min
Histogram: 1 0 0 0 0 0 0 0 0 0
Nghost:    20045 ave 20045 max 20045 min
Histogram: 1 0 0 0 0 0 0 0 0 0
Neighs:    1.83335e+06 ave 1.83335e+06 max 1.83335e+06 min
Histogram: 1 0 0 0 0 0 0 0 0 0

Total # of neighbors = 1833354
Ave neighs/atom = 93.291
Neighbor list builds = 495
Dangerous builds not checked
Setting up Verlet run ...
  Unit style    : metal
  Current step  : 49833
  Time step     : 0.001
Per MPI rank memory allocation (min/avg/max) = 18.96 | 18.96 | 18.96 Mbytes
Step Temp Press TotEng PotEng Enthalpy Volume 
   49833    1706.7875   -1731.5831   -74175.446   -78510.842   -74434.623     239807.4 
   50005    1704.4953     1396.967   -74255.595   -78585.168   -74047.086    239137.86 
Loop time of 29.3669 on 1 procs for 172 steps with 19652 atoms

Performance: 0.506 ns/day, 47.427 hours/ns, 5.857 timesteps/s
99.8% CPU use with 1 MPI tasks x no OpenMP threads

MPI task timing breakdown:
Section |  min time  |  avg time  |  max time  |%varavg| %total
---------------------------------------------------------------
Pair    | 16.13      | 16.13      | 16.13      |   0.0 | 54.93
Neigh   | 12.778     | 12.778     | 12.778     |   0.0 | 43.51
Comm    | 0.16873    | 0.16873    | 0.16873    |   0.0 |  0.57
Output  | 0.00020409 | 0.00020409 | 0.00020409 |   0.0 |  0.00
Modify  | 0.22943    | 0.22943    | 0.22943    |   0.0 |  0.78
Other   |            | 0.0604     |            |       |  0.21

Nlocal:    19652 ave 19652 max 19652 min
Histogram: 1 0 0 0 0 0 0 0 0 0
Nghost:    20025 ave 20025 max 20025 min
Histogram: 1 0 0 0 0 0 0 0 0 0
Neighs:    1.83824e+06 ave 1.83824e+06 max 1.83824e+06 min
Histogram: 1 0 0 0 0 0 0 0 0 0

Total # of neighbors = 1838237
Ave neighs/atom = 93.5394
Neighbor list builds = 172
Dangerous builds not checked
Setting up Verlet run ...
  Unit style    : metal
  Current step  : 50005
  Time step     : 0.001
Per MPI rank memory allocation (min/avg/max) = 18.96 | 18.96 | 18.96 Mbytes
Step Temp Press TotEng PotEng Enthalpy Volume 
   50005    1704.4953     1396.967   -74255.595   -78585.168   -74047.086    239137.86 
   50025    1702.5218    1517.0865   -74256.143   -78580.704   -74029.696    239148.58 
   50500    1666.8382   -2136.3611   -74501.915   -78735.835   -74820.764    239123.15 
Loop time of 85.8118 on 1 procs for 495 steps with 19652 atoms

Performance: 0.498 ns/day, 48.155 hours/ns, 5.768 timesteps/s
99.1% CPU use with 1 MPI tasks x no OpenMP threads

MPI task timing breakdown:
Section |  min time  |  avg time  |  max time  |%varavg| %total
---------------------------------------------------------------
Pair    | 46.815     | 46.815     | 46.815     |   0.0 | 54.56
Neigh   | 37.055     | 37.055     | 37.055     |   0.0 | 43.18
Comm    | 0.49175    | 0.49175    | 0.49175    |   0.0 |  0.57
Output  | 0.61003    | 0.61003    | 0.61003    |   0.0 |  0.71
Modify  | 0.66541    | 0.66541    | 0.66541    |   0.0 |  0.78
Other   |            | 0.1746     |            |       |  0.20

Nlocal:    19652 ave 19652 max 19652 min
Histogram: 1 0 0 0 0 0 0 0 0 0
Nghost:    20044 ave 20044 max 20044 min
Histogram: 1 0 0 0 0 0 0 0 0 0
Neighs:    1.83756e+06 ave 1.83756e+06 max 1.83756e+06 min
Histogram: 1 0 0 0 0 0 0 0 0 0

Total # of neighbors = 1837559
Ave neighs/atom = 93.5049
Neighbor list builds = 495
Dangerous builds not checked
Setting up Verlet run ...
  Unit style    : metal
  Current step  : 50500
  Time step     : 0.001
Per MPI rank memory allocation (min/avg/max) = 18.96 | 18.96 | 18.96 Mbytes
Step Temp Press TotEng PotEng Enthalpy Volume 
   50500    1666.8382   -2136.3611   -74501.915   -78735.835   -74820.764    239123.15 
   50672     1653.193    1601.1114   -74585.166   -78784.427    -74346.87    238454.75 
Loop time of 28.4467 on 1 procs for 172 steps with 19652 atoms

Performance: 0.522 ns/day, 45.941 hours/ns, 6.046 timesteps/s
99.9% CPU use with 1 MPI tasks x no OpenMP threads

MPI task timing breakdown:
Section |  min time  |  avg time  |  max time  |%varavg| %total
---------------------------------------------------------------
Pair    | 15.588     | 15.588     | 15.588     |   0.0 | 54.80
Neigh   | 12.407     | 12.407     | 12.407     |   0.0 | 43.62
Comm    | 0.16558    | 0.16558    | 0.16558    |   0.0 |  0.58
Output  | 0.00017786 | 0.00017786 | 0.00017786 |   0.0 |  0.00
Modify  | 0.22642    | 0.22642    | 0.22642    |   0.0 |  0.80
Other   |            | 0.0595     |            |       |  0.21

Nlocal:    19652 ave 19652 max 19652 min
Histogram: 1 0 0 0 0 0 0 0 0 0
Nghost:    20058 ave 20058 max 20058 min
Histogram: 1 0 0 0 0 0 0 0 0 0
Neighs:    1.84245e+06 ave 1.84245e+06 max 1.84245e+06 min
Histogram: 1 0 0 0 0 0 0 0 0 0

Total # of neighbors = 1842453
Ave neighs/atom = 93.754
Neighbor list builds = 172
Dangerous builds not checked
Setting up Verlet run ...
  Unit style    : metal
  Current step  : 50672
  Time step     : 0.001
Per MPI rank memory allocation (min/avg/max) = 18.96 | 18.96 | 18.96 Mbytes
Step Temp Press TotEng PotEng Enthalpy Volume 
   50672     1653.193    1601.1114   -74585.166   -78784.427    -74346.87    238454.75 
   50692     1664.845    971.05645   -74586.057   -78814.914   -74441.526    238465.51 
   51167    1616.8148   -1156.9048   -74876.571   -78983.428    -75048.47    238059.23 
Loop time of 85.4378 on 1 procs for 495 steps with 19652 atoms

Performance: 0.501 ns/day, 47.945 hours/ns, 5.794 timesteps/s
99.9% CPU use with 1 MPI tasks x no OpenMP threads

MPI task timing breakdown:
Section |  min time  |  avg time  |  max time  |%varavg| %total
---------------------------------------------------------------
Pair    | 47.035     | 47.035     | 47.035     |   0.0 | 55.05
Neigh   | 36.985     | 36.985     | 36.985     |   0.0 | 43.29
Comm    | 0.49809    | 0.49809    | 0.49809    |   0.0 |  0.58
Output  | 0.062083   | 0.062083   | 0.062083   |   0.0 |  0.07
Modify  | 0.6796     | 0.6796     | 0.6796     |   0.0 |  0.80
Other   |            | 0.1779     |            |       |  0.21

Nlocal:    19652 ave 19652 max 19652 min
Histogram: 1 0 0 0 0 0 0 0 0 0
Nghost:    20028 ave 20028 max 20028 min
Histogram: 1 0 0 0 0 0 0 0 0 0
Neighs:    1.84578e+06 ave 1.84578e+06 max 1.84578e+06 min
Histogram: 1 0 0 0 0 0 0 0 0 0

Total # of neighbors = 1845778
Ave neighs/atom = 93.9232
Neighbor list builds = 495
Dangerous builds not checked
Setting up Verlet run ...
  Unit style    : metal
  Current step  : 51167
  Time step     : 0.001
Per MPI rank memory allocation (min/avg/max) = 18.96 | 18.96 | 18.96 Mbytes
Step Temp Press TotEng PotEng Enthalpy Volume 
   51167    1616.8148   -1156.9048   -74876.571   -78983.428    -75048.47    238059.23 
   51339    1608.4539    671.03916   -74947.675   -79033.294   -74848.111    237717.24 
Loop time of 30.7857 on 1 procs for 172 steps with 19652 atoms

Performance: 0.483 ns/day, 49.719 hours/ns, 5.587 timesteps/s
99.9% CPU use with 1 MPI tasks x no OpenMP threads

MPI task timing breakdown:
Section |  min time  |  avg time  |  max time  |%varavg| %total
---------------------------------------------------------------
Pair    | 16.948     | 16.948     | 16.948     |   0.0 | 55.05
Neigh   | 13.347     | 13.347     | 13.347     |   0.0 | 43.35
Comm    | 0.1793     | 0.1793     | 0.1793     |   0.0 |  0.58
Output  | 0.00011897 | 0.00011897 | 0.00011897 |   0.0 |  0.00
Modify  | 0.24692    | 0.24692    | 0.24692    |   0.0 |  0.80
Other   |            | 0.06474    |            |       |  0.21

Nlocal:    19652 ave 19652 max 19652 min
Histogram: 1 0 0 0 0 0 0 0 0 0
Nghost:    19972 ave 19972 max 19972 min
Histogram: 1 0 0 0 0 0 0 0 0 0
Neighs:    1.84787e+06 ave 1.84787e+06 max 1.84787e+06 min
Histogram: 1 0 0 0 0 0 0 0 0 0

Total # of neighbors = 1847874
Ave neighs/atom = 94.0298
Neighbor list builds = 172
Dangerous builds not checked
Setting up Verlet run ...
  Unit style    : metal
  Current step  : 51339
  Time step     : 0.001
Per MPI rank memory allocation (min/avg/max) = 18.96 | 18.96 | 18.96 Mbytes
Step Temp Press TotEng PotEng Enthalpy Volume 
   51339    1608.4539    671.03916   -74947.675   -79033.294   -74848.111    237717.24 
   51359    1613.9567    214.17924   -74949.177   -79048.774   -74917.398    237720.56 
   51834    1557.5695   -428.67739   -75205.959   -79162.328   -75269.462    237343.28 
Loop time of 87.7347 on 1 procs for 495 steps with 19652 atoms

Performance: 0.487 ns/day, 49.234 hours/ns, 5.642 timesteps/s
99.4% CPU use with 1 MPI tasks x no OpenMP threads

MPI task timing breakdown:
Section |  min time  |  avg time  |  max time  |%varavg| %total
---------------------------------------------------------------
Pair    | 48.034     | 48.034     | 48.034     |   0.0 | 54.75
Neigh   | 37.999     | 37.999     | 37.999     |   0.0 | 43.31
Comm    | 0.50579    | 0.50579    | 0.50579    |   0.0 |  0.58
Output  | 0.32814    | 0.32814    | 0.32814    |   0.0 |  0.37
Modify  | 0.68834    | 0.68834    | 0.68834    |   0.0 |  0.78
Other   |            | 0.1795     |            |       |  0.20

Nlocal:    19652 ave 19652 max 19652 min
Histogram: 1 0 0 0 0 0 0 0 0 0
Nghost:    20033 ave 20033 max 20033 min
Histogram: 1 0 0 0 0 0 0 0 0 0
Neighs:    1.85088e+06 ave 1.85088e+06 max 1.85088e+06 min
Histogram: 1 0 0 0 0 0 0 0 0 0

Total # of neighbors = 1850880
Ave neighs/atom = 94.1828
Neighbor list builds = 495
Dangerous builds not checked
Setting up Verlet run ...
  Unit style    : metal
  Current step  : 51834
  Time step     : 0.001
Per MPI rank memory allocation (min/avg/max) = 18.96 | 18.96 | 18.96 Mbytes
Step Temp Press TotEng PotEng Enthalpy Volume 
   51834    1557.5695   -428.67739   -75205.959   -79162.328   -75269.462    237343.28 
   52006    1558.3699    382.43867   -75281.054   -79239.456   -75224.473    237037.88 
Loop time of 31.1693 on 1 procs for 172 steps with 19652 atoms

Performance: 0.477 ns/day, 50.338 hours/ns, 5.518 timesteps/s
99.4% CPU use with 1 MPI tasks x no OpenMP threads

MPI task timing breakdown:
Section |  min time  |  avg time  |  max time  |%varavg| %total
---------------------------------------------------------------
Pair    | 17.188     | 17.188     | 17.188     |   0.0 | 55.14
Neigh   | 13.478     | 13.478     | 13.478     |   0.0 | 43.24
Comm    | 0.18341    | 0.18341    | 0.18341    |   0.0 |  0.59
Output  | 0.00018215 | 0.00018215 | 0.00018215 |   0.0 |  0.00
Modify  | 0.25221    | 0.25221    | 0.25221    |   0.0 |  0.81
Other   |            | 0.06759    |            |       |  0.22

Nlocal:    19652 ave 19652 max 19652 min
Histogram: 1 0 0 0 0 0 0 0 0 0
Nghost:    20081 ave 20081 max 20081 min
Histogram: 1 0 0 0 0 0 0 0 0 0
Neighs:    1.85289e+06 ave 1.85289e+06 max 1.85289e+06 min
Histogram: 1 0 0 0 0 0 0 0 0 0

Total # of neighbors = 1852890
Ave neighs/atom = 94.2851
Neighbor list builds = 172
Dangerous builds not checked
Setting up Verlet run ...
  Unit style    : metal
  Current step  : 52006
  Time step     : 0.001
Per MPI rank memory allocation (min/avg/max) = 18.96 | 18.96 | 18.96 Mbytes
Step Temp Press TotEng PotEng Enthalpy Volume 
   52006    1558.3699    382.43867   -75281.054   -79239.456   -75224.473    237037.88 
   52026    1553.4147    353.10034   -75281.694   -79227.509   -75229.453    237041.42 
   52501    1526.4658    -1310.698   -75562.966   -79440.328   -75756.479    236548.02 
Loop time of 87.5501 on 1 procs for 495 steps with 19652 atoms

Performance: 0.488 ns/day, 49.130 hours/ns, 5.654 timesteps/s
99.6% CPU use with 1 MPI tasks x no OpenMP threads

MPI task timing breakdown:
Section |  min time  |  avg time  |  max time  |%varavg| %total
---------------------------------------------------------------
Pair    | 48.163     | 48.163     | 48.163     |   0.0 | 55.01
Neigh   | 37.96      | 37.96      | 37.96      |   0.0 | 43.36
Comm    | 0.50481    | 0.50481    | 0.50481    |   0.0 |  0.58
Output  | 0.051248   | 0.051248   | 0.051248   |   0.0 |  0.06
Modify  | 0.69303    | 0.69303    | 0.69303    |   0.0 |  0.79
Other   |            | 0.1785     |            |       |  0.20

Nlocal:    19652 ave 19652 max 19652 min
Histogram: 1 0 0 0 0 0 0 0 0 0
Nghost:    20113 ave 20113 max 20113 min
Histogram: 1 0 0 0 0 0 0 0 0 0
Neighs:    1.85618e+06 ave 1.85618e+06 max 1.85618e+06 min
Histogram: 1 0 0 0 0 0 0 0 0 0

Total # of neighbors = 1856176
Ave neighs/atom = 94.4523
Neighbor list builds = 495
Dangerous builds not checked
Setting up Verlet run ...
  Unit style    : metal
  Current step  : 52501
  Time step     : 0.001
Per MPI rank memory allocation (min/avg/max) = 18.96 | 18.96 | 18.96 Mbytes
Step Temp Press TotEng PotEng Enthalpy Volume 
   52501    1526.4658    -1310.698   -75562.966   -79440.328   -75756.479    236548.02 
   52673    1506.6115    933.82714   -75638.655   -79465.585   -75501.016    236147.92 
Loop time of 31.2395 on 1 procs for 172 steps with 19652 atoms

Performance: 0.476 ns/day, 50.451 hours/ns, 5.506 timesteps/s
100.0% CPU use with 1 MPI tasks x no OpenMP threads

MPI task timing breakdown:
Section |  min time  |  avg time  |  max time  |%varavg| %total
---------------------------------------------------------------
Pair    | 17.148     | 17.148     | 17.148     |   0.0 | 54.89
Neigh   | 13.591     | 13.591     | 13.591     |   0.0 | 43.51
Comm    | 0.18239    | 0.18239    | 0.18239    |   0.0 |  0.58
Output  | 0.00013709 | 0.00013709 | 0.00013709 |   0.0 |  0.00
Modify  | 0.25257    | 0.25257    | 0.25257    |   0.0 |  0.81
Other   |            | 0.06536    |            |       |  0.21

Nlocal:    19652 ave 19652 max 19652 min
Histogram: 1 0 0 0 0 0 0 0 0 0
Nghost:    20138 ave 20138 max 20138 min
Histogram: 1 0 0 0 0 0 0 0 0 0
Neighs:    1.85895e+06 ave 1.85895e+06 max 1.85895e+06 min
Histogram: 1 0 0 0 0 0 0 0 0 0

Total # of neighbors = 1858946
Ave neighs/atom = 94.5932
Neighbor list builds = 172
Dangerous builds not checked
Setting up Verlet run ...
  Unit style    : metal
  Current step  : 52673
  Time step     : 0.001
Per MPI rank memory allocation (min/avg/max) = 18.96 | 18.96 | 18.96 Mbytes
Step Temp Press TotEng PotEng Enthalpy Volume 
   52673    1506.6115    933.82714   -75638.655   -79465.585   -75501.016    236147.92 
   52693    1511.2352    822.77705    -75639.46   -79478.135   -75518.185    236156.15 
   53168    1468.5219   -273.08285   -75873.339   -79603.518   -75913.535    235829.67 
Loop time of 87.9542 on 1 procs for 495 steps with 19652 atoms

Performance: 0.486 ns/day, 49.357 hours/ns, 5.628 timesteps/s
99.4% CPU use with 1 MPI tasks x no OpenMP threads

MPI task timing breakdown:
Section |  min time  |  avg time  |  max time  |%varavg| %total
---------------------------------------------------------------
Pair    | 48.582     | 48.582     | 48.582     |   0.0 | 55.24
Neigh   | 37.926     | 37.926     | 37.926     |   0.0 | 43.12
Comm    | 0.50709    | 0.50709    | 0.50709    |   0.0 |  0.58
Output  | 0.063258   | 0.063258   | 0.063258   |   0.0 |  0.07
Modify  | 0.69391    | 0.69391    | 0.69391    |   0.0 |  0.79
Other   |            | 0.1822     |            |       |  0.21

Nlocal:    19652 ave 19652 max 19652 min
Histogram: 1 0 0 0 0 0 0 0 0 0
Nghost:    20268 ave 20268 max 20268 min
Histogram: 1 0 0 0 0 0 0 0 0 0
Neighs:    1.86115e+06 ave 1.86115e+06 max 1.86115e+06 min
Histogram: 1 0 0 0 0 0 0 0 0 0

Total # of neighbors = 1861148
Ave neighs/atom = 94.7053
Neighbor list builds = 495
Dangerous builds not checked
Setting up Verlet run ...
  Unit style    : metal
  Current step  : 53168
  Time step     : 0.001
Per MPI rank memory allocation (min/avg/max) = 18.96 | 18.96 | 18.96 Mbytes
Step Temp Press TotEng PotEng Enthalpy Volume 
   53168    1468.5219   -273.08285   -75873.339   -79603.518   -75913.535    235829.67 
   53340    1454.8442   -296.32622    -75947.85   -79643.287   -75991.439    235676.94 
Loop time of 30.0753 on 1 procs for 172 steps with 19652 atoms

Performance: 0.494 ns/day, 48.571 hours/ns, 5.719 timesteps/s
100.0% CPU use with 1 MPI tasks x no OpenMP threads

MPI task timing breakdown:
Section |  min time  |  avg time  |  max time  |%varavg| %total
---------------------------------------------------------------
Pair    | 16.684     | 16.684     | 16.684     |   0.0 | 55.47
Neigh   | 12.913     | 12.913     | 12.913     |   0.0 | 42.94
Comm    | 0.1749     | 0.1749     | 0.1749     |   0.0 |  0.58
Output  | 0.00017118 | 0.00017118 | 0.00017118 |   0.0 |  0.00
Modify  | 0.24053    | 0.24053    | 0.24053    |   0.0 |  0.80
Other   |            | 0.06272    |            |       |  0.21

Nlocal:    19652 ave 19652 max 19652 min
Histogram: 1 0 0 0 0 0 0 0 0 0
Nghost:    20284 ave 20284 max 20284 min
Histogram: 1 0 0 0 0 0 0 0 0 0
Neighs:    1.8624e+06 ave 1.8624e+06 max 1.8624e+06 min
Histogram: 1 0 0 0 0 0 0 0 0 0

Total # of neighbors = 1862396
Ave neighs/atom = 94.7688
Neighbor list builds = 172
Dangerous builds not checked
Setting up Verlet run ...
  Unit style    : metal
  Current step  : 53340
  Time step     : 0.001
Per MPI rank memory allocation (min/avg/max) = 18.96 | 18.96 | 18.96 Mbytes
Step Temp Press TotEng PotEng Enthalpy Volume 
   53340    1454.8442   -296.32622    -75947.85   -79643.287   -75991.439    235676.94 
   53360    1466.9383   -479.46911   -75948.676   -79674.833   -76019.204    235674.18 
   53835    1412.7053    296.88063   -76232.126   -79820.526   -76188.585     234977.9 
Loop time of 89.3467 on 1 procs for 495 steps with 19652 atoms

Performance: 0.479 ns/day, 50.138 hours/ns, 5.540 timesteps/s
99.6% CPU use with 1 MPI tasks x no OpenMP threads

MPI task timing breakdown:
Section |  min time  |  avg time  |  max time  |%varavg| %total
---------------------------------------------------------------
Pair    | 49.265     | 49.265     | 49.265     |   0.0 | 55.14
Neigh   | 38.341     | 38.341     | 38.341     |   0.0 | 42.91
Comm    | 0.51416    | 0.51416    | 0.51416    |   0.0 |  0.58
Output  | 0.33916    | 0.33916    | 0.33916    |   0.0 |  0.38
Modify  | 0.70431    | 0.70431    | 0.70431    |   0.0 |  0.79
Other   |            | 0.1835     |            |       |  0.21

Nlocal:    19652 ave 19652 max 19652 min
Histogram: 1 0 0 0 0 0 0 0 0 0
Nghost:    20209 ave 20209 max 20209 min
Histogram: 1 0 0 0 0 0 0 0 0 0
Neighs:    1.86799e+06 ave 1.86799e+06 max 1.86799e+06 min
Histogram: 1 0 0 0 0 0 0 0 0 0

Total # of neighbors = 1867987
Ave neighs/atom = 95.0533
Neighbor list builds = 495
Dangerous builds not checked
Setting up Verlet run ...
  Unit style    : metal
  Current step  : 53835
  Time step     : 0.001
Per MPI rank memory allocation (min/avg/max) = 18.96 | 18.96 | 18.96 Mbytes
Step Temp Press TotEng PotEng Enthalpy Volume 
   53835    1412.7053    296.88063   -76232.126   -79820.526   -76188.585     234977.9 
   54007    1406.6562    212.85493   -76307.083   -79880.118   -76275.885    234825.98 
Loop time of 30.6939 on 1 procs for 172 steps with 19652 atoms

Performance: 0.484 ns/day, 49.570 hours/ns, 5.604 timesteps/s
100.0% CPU use with 1 MPI tasks x no OpenMP threads

MPI task timing breakdown:
Section |  min time  |  avg time  |  max time  |%varavg| %total
---------------------------------------------------------------
Pair    | 16.946     | 16.946     | 16.946     |   0.0 | 55.21
Neigh   | 13.257     | 13.257     | 13.257     |   0.0 | 43.19
Comm    | 0.17771    | 0.17771    | 0.17771    |   0.0 |  0.58
Output  | 0.00013995 | 0.00013995 | 0.00013995 |   0.0 |  0.00
Modify  | 0.24875    | 0.24875    | 0.24875    |   0.0 |  0.81
Other   |            | 0.06445    |            |       |  0.21

Nlocal:    19652 ave 19652 max 19652 min
Histogram: 1 0 0 0 0 0 0 0 0 0
Nghost:    20254 ave 20254 max 20254 min
Histogram: 1 0 0 0 0 0 0 0 0 0
Neighs:    1.86883e+06 ave 1.86883e+06 max 1.86883e+06 min
Histogram: 1 0 0 0 0 0 0 0 0 0

Total # of neighbors = 1868826
Ave neighs/atom = 95.096
Neighbor list builds = 172
Dangerous builds not checked
Setting up Verlet run ...
  Unit style    : metal
  Current step  : 54007
  Time step     : 0.001
Per MPI rank memory allocation (min/avg/max) = 18.96 | 18.96 | 18.96 Mbytes
Step Temp Press TotEng PotEng Enthalpy Volume 
   54007    1406.6562    212.85493   -76307.083   -79880.118   -76275.885    234825.98 
   54027    1409.2193    -204.1703   -76307.857   -79887.402   -76337.782    234827.04 
   54502    1374.3288   -409.26404   -76578.416   -80069.337   -76638.256    234258.69 
Loop time of 87.4924 on 1 procs for 495 steps with 19652 atoms

Performance: 0.489 ns/day, 49.098 hours/ns, 5.658 timesteps/s
99.9% CPU use with 1 MPI tasks x no OpenMP threads

MPI task timing breakdown:
Section |  min time  |  avg time  |  max time  |%varavg| %total
---------------------------------------------------------------
Pair    | 48.347     | 48.347     | 48.347     |   0.0 | 55.26
Neigh   | 37.745     | 37.745     | 37.745     |   0.0 | 43.14
Comm    | 0.50186    | 0.50186    | 0.50186    |   0.0 |  0.57
Output  | 0.041022   | 0.041022   | 0.041022   |   0.0 |  0.05
Modify  | 0.67905    | 0.67905    | 0.67905    |   0.0 |  0.78
Other   |            | 0.1777     |            |       |  0.20

Nlocal:    19652 ave 19652 max 19652 min
Histogram: 1 0 0 0 0 0 0 0 0 0
Nghost:    20279 ave 20279 max 20279 min
Histogram: 1 0 0 0 0 0 0 0 0 0
Neighs:    1.87221e+06 ave 1.87221e+06 max 1.87221e+06 min
Histogram: 1 0 0 0 0 0 0 0 0 0

Total # of neighbors = 1872209
Ave neighs/atom = 95.2681
Neighbor list builds = 495
Dangerous builds not checked
Setting up Verlet run ...
  Unit style    : metal
  Current step  : 54502
  Time step     : 0.001
Per MPI rank memory allocation (min/avg/max) = 18.96 | 18.96 | 18.96 Mbytes
Step Temp Press TotEng PotEng Enthalpy Volume 
   54502    1374.3288   -409.26404   -76578.416   -80069.337   -76638.256    234258.69 
   54674    1363.7799    12.639214   -76654.637   -80118.762   -76652.791    233983.22 
Loop time of 29.9346 on 1 procs for 172 steps with 19652 atoms

Performance: 0.496 ns/day, 48.344 hours/ns, 5.746 timesteps/s
99.9% CPU use with 1 MPI tasks x no OpenMP threads

MPI task timing breakdown:
Section |  min time  |  avg time  |  max time  |%varavg| %total
---------------------------------------------------------------
Pair    | 16.555     | 16.555     | 16.555     |   0.0 | 55.30
Neigh   | 12.902     | 12.902     | 12.902     |   0.0 | 43.10
Comm    | 0.17506    | 0.17506    | 0.17506    |   0.0 |  0.58
Output  | 0.00013709 | 0.00013709 | 0.00013709 |   0.0 |  0.00
Modify  | 0.23998    | 0.23998    | 0.23998    |   0.0 |  0.80
Other   |            | 0.06282    |            |       |  0.21

Nlocal:    19652 ave 19652 max 19652 min
Histogram: 1 0 0 0 0 0 0 0 0 0
Nghost:    20283 ave 20283 max 20283 min
Histogram: 1 0 0 0 0 0 0 0 0 0
Neighs:    1.87453e+06 ave 1.87453e+06 max 1.87453e+06 min
Histogram: 1 0 0 0 0 0 0 0 0 0

Total # of neighbors = 1874528
Ave neighs/atom = 95.3861
Neighbor list builds = 172
Dangerous builds not checked
Setting up Verlet run ...
  Unit style    : metal
  Current step  : 54674
  Time step     : 0.001
Per MPI rank memory allocation (min/avg/max) = 18.96 | 18.96 | 18.96 Mbytes
Step Temp Press TotEng PotEng Enthalpy Volume 
   54674    1363.7799    12.639214   -76654.637   -80118.762   -76652.791    233983.22 
   54694    1357.9936    419.99648   -76655.808   -80105.235    -76594.47    233985.18 
   55169    1314.6696    1197.4496   -76955.653   -80295.034   -76781.357    233206.89 
Loop time of 90.9656 on 1 procs for 495 steps with 19652 atoms

Performance: 0.470 ns/day, 51.047 hours/ns, 5.442 timesteps/s
99.9% CPU use with 1 MPI tasks x no OpenMP threads

MPI task timing breakdown:
Section |  min time  |  avg time  |  max time  |%varavg| %total
---------------------------------------------------------------
Pair    | 50.526     | 50.526     | 50.526     |   0.0 | 55.54
Neigh   | 38.952     | 38.952     | 38.952     |   0.0 | 42.82
Comm    | 0.52352    | 0.52352    | 0.52352    |   0.0 |  0.58
Output  | 0.049684   | 0.049684   | 0.049684   |   0.0 |  0.05
Modify  | 0.72775    | 0.72775    | 0.72775    |   0.0 |  0.80
Other   |            | 0.187      |            |       |  0.21

Nlocal:    19652 ave 19652 max 19652 min
Histogram: 1 0 0 0 0 0 0 0 0 0
Nghost:    20251 ave 20251 max 20251 min
Histogram: 1 0 0 0 0 0 0 0 0 0
Neighs:    1.87943e+06 ave 1.87943e+06 max 1.87943e+06 min
Histogram: 1 0 0 0 0 0 0 0 0 0

Total # of neighbors = 1879426
Ave neighs/atom = 95.6354
Neighbor list builds = 495
Dangerous builds not checked
Setting up Verlet run ...
  Unit style    : metal
  Current step  : 55169
  Time step     : 0.001
Per MPI rank memory allocation (min/avg/max) = 18.96 | 18.96 | 18.96 Mbytes
Step Temp Press TotEng PotEng Enthalpy Volume 
   55169    1314.6696    1197.4496   -76955.653   -80295.034   -76781.357    233206.89 
   55341    1312.1922   -849.13005    -77028.55   -80361.638   -77152.174    233258.69 
Loop time of 30.6803 on 1 procs for 172 steps with 19652 atoms

Performance: 0.484 ns/day, 49.548 hours/ns, 5.606 timesteps/s
99.9% CPU use with 1 MPI tasks x no OpenMP threads

MPI task timing breakdown:
Section |  min time  |  avg time  |  max time  |%varavg| %total
[...]
Modify  | 0.72518    | 0.72518    | 0.72518    |   0.0 |  0.74
Other   |            | 0.1916     |            |       |  0.20

Nlocal:    19652 ave 19652 max 19652 min
Histogram: 1 0 0 0 0 0 0 0 0 0
Nghost:    20677 ave 20677 max 20677 min
Histogram: 1 0 0 0 0 0 0 0 0 0
Neighs:    1.96886e+06 ave 1.96886e+06 max 1.96886e+06 min
Histogram: 1 0 0 0 0 0 0 0 0 0

Total # of neighbors = 1968862
Ave neighs/atom = 100.186
Neighbor list builds = 495
Dangerous builds not checked
Setting up Verlet run ...
  Unit style    : metal
  Current step  : 67175
  Time step     : 0.001
Per MPI rank memory allocation (min/avg/max) = 19.34 | 19.34 | 19.34 Mbytes
Step Temp Press TotEng PotEng Enthalpy Volume 
   67175    422.10221    607.10829   -82642.101   -83714.279   -82557.908    222188.31 
   67347    412.88826    349.52966   -82696.234   -83745.008   -82647.771    222144.45 
Loop time of 34.1428 on 1 procs for 172 steps with 19652 atoms

Performance: 0.435 ns/day, 55.140 hours/ns, 5.038 timesteps/s
98.8% CPU use with 1 MPI tasks x no OpenMP threads

MPI task timing breakdown:
Section |  min time  |  avg time  |  max time  |%varavg| %total
---------------------------------------------------------------
Pair    | 18.296     | 18.296     | 18.296     |   0.0 | 53.59
Neigh   | 15.311     | 15.311     | 15.311     |   0.0 | 44.84
Comm    | 0.19942    | 0.19942    | 0.19942    |   0.0 |  0.58
Output  | 0.000175   | 0.000175   | 0.000175   |   0.0 |  0.00
Modify  | 0.26209    | 0.26209    | 0.26209    |   0.0 |  0.77
Other   |            | 0.07409    |            |       |  0.22

Nlocal:    19652 ave 19652 max 19652 min
Histogram: 1 0 0 0 0 0 0 0 0 0
Nghost:    20664 ave 20664 max 20664 min
Histogram: 1 0 0 0 0 0 0 0 0 0
Neighs:    1.96864e+06 ave 1.96864e+06 max 1.96864e+06 min
Histogram: 1 0 0 0 0 0 0 0 0 0

Total # of neighbors = 1968642
Ave neighs/atom = 100.175
Neighbor list builds = 172
Dangerous builds not checked
Setting up Verlet run ...
  Unit style    : metal
  Current step  : 67347
  Time step     : 0.001
Per MPI rank memory allocation (min/avg/max) = 19.34 | 19.34 | 19.34 Mbytes
Step Temp Press TotEng PotEng Enthalpy Volume 
   67347    412.88826    349.52966   -82696.234   -83745.008   -82647.771    222144.45 
   67367    413.28213     161.5762   -82697.697   -83747.471   -82675.293     222152.4 
   67842    372.64524    299.60941   -82912.607    -83859.16   -82871.138    221757.89 
Loop time of 95.4826 on 1 procs for 495 steps with 19652 atoms

Performance: 0.448 ns/day, 53.582 hours/ns, 5.184 timesteps/s
99.6% CPU use with 1 MPI tasks x no OpenMP threads

MPI task timing breakdown:
Section |  min time  |  avg time  |  max time  |%varavg| %total
---------------------------------------------------------------
Pair    | 51.313     | 51.313     | 51.313     |   0.0 | 53.74
Neigh   | 42.69      | 42.69      | 42.69      |   0.0 | 44.71
Comm    | 0.5239     | 0.5239     | 0.5239     |   0.0 |  0.55
Output  | 0.067384   | 0.067384   | 0.067384   |   0.0 |  0.07
Modify  | 0.69977    | 0.69977    | 0.69977    |   0.0 |  0.73
Other   |            | 0.1884     |            |       |  0.20

Nlocal:    19652 ave 19652 max 19652 min
Histogram: 1 0 0 0 0 0 0 0 0 0
Nghost:    20706 ave 20706 max 20706 min
Histogram: 1 0 0 0 0 0 0 0 0 0
Neighs:    1.97209e+06 ave 1.97209e+06 max 1.97209e+06 min
Histogram: 1 0 0 0 0 0 0 0 0 0

Total # of neighbors = 1972094
Ave neighs/atom = 100.351
Neighbor list builds = 495
Dangerous builds not checked
Setting up Verlet run ...
  Unit style    : metal
  Current step  : 67842
  Time step     : 0.001
Per MPI rank memory allocation (min/avg/max) = 19.34 | 19.34 | 19.34 Mbytes
Step Temp Press TotEng PotEng Enthalpy Volume 
   67842    372.64524    299.60941   -82912.607    -83859.16   -82871.138    221757.89 
   68014    364.39643   -85.372168   -82967.861   -83893.461   -82979.676    221719.86 
Loop time of 31.9807 on 1 procs for 172 steps with 19652 atoms

Performance: 0.465 ns/day, 51.648 hours/ns, 5.378 timesteps/s
99.7% CPU use with 1 MPI tasks x no OpenMP threads

MPI task timing breakdown:
Section |  min time  |  avg time  |  max time  |%varavg| %total
---------------------------------------------------------------
Pair    | 17.236     | 17.236     | 17.236     |   0.0 | 53.90
Neigh   | 14.276     | 14.276     | 14.276     |   0.0 | 44.64
Comm    | 0.17336    | 0.17336    | 0.17336    |   0.0 |  0.54
Output  | 0.00022101 | 0.00022101 | 0.00022101 |   0.0 |  0.00
Modify  | 0.23267    | 0.23267    | 0.23267    |   0.0 |  0.73
Other   |            | 0.06207    |            |       |  0.19

Nlocal:    19652 ave 19652 max 19652 min
Histogram: 1 0 0 0 0 0 0 0 0 0
Nghost:    20716 ave 20716 max 20716 min
Histogram: 1 0 0 0 0 0 0 0 0 0
Neighs:    1.97291e+06 ave 1.97291e+06 max 1.97291e+06 min
Histogram: 1 0 0 0 0 0 0 0 0 0

Total # of neighbors = 1972907
Ave neighs/atom = 100.392
Neighbor list builds = 172
Dangerous builds not checked
Setting up Verlet run ...
  Unit style    : metal
  Current step  : 68014
  Time step     : 0.001
Per MPI rank memory allocation (min/avg/max) = 19.34 | 19.34 | 19.34 Mbytes
Step Temp Press TotEng PotEng Enthalpy Volume 
   68014    364.39643   -85.372168   -82967.861   -83893.461   -82979.676    221719.86 
   68034    364.67536    -154.1662   -82969.479   -83895.788   -82990.813    221716.66 
   68509    324.97089   -506.62323   -83183.627   -84009.082   -83253.641    221419.01 
Loop time of 93.3461 on 1 procs for 495 steps with 19652 atoms

Performance: 0.458 ns/day, 52.383 hours/ns, 5.303 timesteps/s
99.8% CPU use with 1 MPI tasks x no OpenMP threads

MPI task timing breakdown:
Section |  min time  |  avg time  |  max time  |%varavg| %total
---------------------------------------------------------------
Pair    | 50.083     | 50.083     | 50.083     |   0.0 | 53.65
Neigh   | 41.821     | 41.821     | 41.821     |   0.0 | 44.80
Comm    | 0.51462    | 0.51462    | 0.51462    |   0.0 |  0.55
Output  | 0.062728   | 0.062728   | 0.062728   |   0.0 |  0.07
Modify  | 0.68241    | 0.68241    | 0.68241    |   0.0 |  0.73
Other   |            | 0.1823     |            |       |  0.20

Nlocal:    19652 ave 19652 max 19652 min
Histogram: 1 0 0 0 0 0 0 0 0 0
Nghost:    20729 ave 20729 max 20729 min
Histogram: 1 0 0 0 0 0 0 0 0 0
Neighs:    1.976e+06 ave 1.976e+06 max 1.976e+06 min
Histogram: 1 0 0 0 0 0 0 0 0 0

Total # of neighbors = 1975998
Ave neighs/atom = 100.549
Neighbor list builds = 495
Dangerous builds not checked
Setting up Verlet run ...
  Unit style    : metal
  Current step  : 68509
  Time step     : 0.001
Per MPI rank memory allocation (min/avg/max) = 19.34 | 19.34 | 19.34 Mbytes
Step Temp Press TotEng PotEng Enthalpy Volume 
   68509    324.97089   -506.62323   -83183.627   -84009.082   -83253.641    221419.01 
   68681    315.85468   -332.24674   -83237.769   -84040.069   -83283.659    221291.56 
Loop time of 33.5097 on 1 procs for 172 steps with 19652 atoms

Performance: 0.443 ns/day, 54.118 hours/ns, 5.133 timesteps/s
99.6% CPU use with 1 MPI tasks x no OpenMP threads

MPI task timing breakdown:
Section |  min time  |  avg time  |  max time  |%varavg| %total
---------------------------------------------------------------
Pair    | 18.164     | 18.164     | 18.164     |   0.0 | 54.20
Neigh   | 14.847     | 14.847     | 14.847     |   0.0 | 44.31
Comm    | 0.18575    | 0.18575    | 0.18575    |   0.0 |  0.55
Output  | 0.00018406 | 0.00018406 | 0.00018406 |   0.0 |  0.00
Modify  | 0.2454     | 0.2454     | 0.2454     |   0.0 |  0.73
Other   |            | 0.06724    |            |       |  0.20

Nlocal:    19652 ave 19652 max 19652 min
Histogram: 1 0 0 0 0 0 0 0 0 0
Nghost:    20711 ave 20711 max 20711 min
Histogram: 1 0 0 0 0 0 0 0 0 0
Neighs:    1.97707e+06 ave 1.97707e+06 max 1.97707e+06 min
Histogram: 1 0 0 0 0 0 0 0 0 0

Total # of neighbors = 1977070
Ave neighs/atom = 100.604
Neighbor list builds = 172
Dangerous builds not checked
Setting up Verlet run ...
  Unit style    : metal
  Current step  : 68681
  Time step     : 0.001
Per MPI rank memory allocation (min/avg/max) = 19.34 | 19.34 | 19.34 Mbytes
Step Temp Press TotEng PotEng Enthalpy Volume 
   68681    315.85468   -332.24674   -83237.769   -84040.069   -83283.659    221291.56 
   68701    317.35961   -441.46857   -83239.663   -84045.785   -83300.634    221276.46 
   69176    274.90851   -70.744995   -83447.443   -84145.736   -83457.199    220955.65 
Loop time of 100.411 on 1 procs for 495 steps with 19652 atoms

Performance: 0.426 ns/day, 56.347 hours/ns, 4.930 timesteps/s
97.0% CPU use with 1 MPI tasks x no OpenMP threads

MPI task timing breakdown:
Section |  min time  |  avg time  |  max time  |%varavg| %total
---------------------------------------------------------------
Pair    | 53.366     | 53.366     | 53.366     |   0.0 | 53.15
Neigh   | 44.631     | 44.631     | 44.631     |   0.0 | 44.45
Comm    | 0.57576    | 0.57576    | 0.57576    |   0.0 |  0.57
Output  | 0.87868    | 0.87868    | 0.87868    |   0.0 |  0.88
Modify  | 0.75396    | 0.75396    | 0.75396    |   0.0 |  0.75
Other   |            | 0.2058     |            |       |  0.20

Nlocal:    19652 ave 19652 max 19652 min
Histogram: 1 0 0 0 0 0 0 0 0 0
Nghost:    20716 ave 20716 max 20716 min
Histogram: 1 0 0 0 0 0 0 0 0 0
Neighs:    1.98085e+06 ave 1.98085e+06 max 1.98085e+06 min
Histogram: 1 0 0 0 0 0 0 0 0 0

Total # of neighbors = 1980848
Ave neighs/atom = 100.796
Neighbor list builds = 495
Dangerous builds not checked
Setting up Verlet run ...
  Unit style    : metal
  Current step  : 69176
  Time step     : 0.001
Per MPI rank memory allocation (min/avg/max) = 19.34 | 19.34 | 19.34 Mbytes
Step Temp Press TotEng PotEng Enthalpy Volume 
   69176    274.90851   -70.744995   -83447.443   -84145.736   -83457.199    220955.65 
   69348    265.80553   -173.68193   -83501.885   -84177.055   -83525.827    220858.52 
Loop time of 33.9092 on 1 procs for 172 steps with 19652 atoms

Performance: 0.438 ns/day, 54.763 hours/ns, 5.072 timesteps/s
97.5% CPU use with 1 MPI tasks x no OpenMP threads

MPI task timing breakdown:
Section |  min time  |  avg time  |  max time  |%varavg| %total
---------------------------------------------------------------
Pair    | 18.193     | 18.193     | 18.193     |   0.0 | 53.65
Neigh   | 15.184     | 15.184     | 15.184     |   0.0 | 44.78
Comm    | 0.19499    | 0.19499    | 0.19499    |   0.0 |  0.58
Output  | 0.00019598 | 0.00019598 | 0.00019598 |   0.0 |  0.00
Modify  | 0.25935    | 0.25935    | 0.25935    |   0.0 |  0.76
Other   |            | 0.07802    |            |       |  0.23

Nlocal:    19652 ave 19652 max 19652 min
Histogram: 1 0 0 0 0 0 0 0 0 0
Nghost:    20753 ave 20753 max 20753 min
Histogram: 1 0 0 0 0 0 0 0 0 0
Neighs:    1.98136e+06 ave 1.98136e+06 max 1.98136e+06 min
Histogram: 1 0 0 0 0 0 0 0 0 0

Total # of neighbors = 1981355
Ave neighs/atom = 100.822
Neighbor list builds = 172
Dangerous builds not checked
Setting up Verlet run ...
  Unit style    : metal
  Current step  : 69348
  Time step     : 0.001
Per MPI rank memory allocation (min/avg/max) = 19.34 | 19.34 | 19.34 Mbytes
Step Temp Press TotEng PotEng Enthalpy Volume 
   69348    265.80553   -173.68193   -83501.885   -84177.055   -83525.827    220858.52 
   69368    266.46817   -150.45621   -83503.746     -84180.6   -83524.486    220850.06 
   69843    228.50759    517.77249   -83706.552   -84286.982   -83635.305    220465.17 
Loop time of 102.325 on 1 procs for 495 steps with 19652 atoms

Performance: 0.418 ns/day, 57.422 hours/ns, 4.838 timesteps/s
96.3% CPU use with 1 MPI tasks x no OpenMP threads

MPI task timing breakdown:
Section |  min time  |  avg time  |  max time  |%varavg| %total
---------------------------------------------------------------
Pair    | 54.834     | 54.834     | 54.834     |   0.0 | 53.59
Neigh   | 45.909     | 45.909     | 45.909     |   0.0 | 44.87
Comm    | 0.55749    | 0.55749    | 0.55749    |   0.0 |  0.54
Output  | 0.063263   | 0.063263   | 0.063263   |   0.0 |  0.06
Modify  | 0.75443    | 0.75443    | 0.75443    |   0.0 |  0.74
Other   |            | 0.2072     |            |       |  0.20

Nlocal:    19652 ave 19652 max 19652 min
Histogram: 1 0 0 0 0 0 0 0 0 0
Nghost:    20795 ave 20795 max 20795 min
Histogram: 1 0 0 0 0 0 0 0 0 0
Neighs:    1.98543e+06 ave 1.98543e+06 max 1.98543e+06 min
Histogram: 1 0 0 0 0 0 0 0 0 0

Total # of neighbors = 1985428
Ave neighs/atom = 101.029
Neighbor list builds = 495
Dangerous builds not checked
Setting up Verlet run ...
  Unit style    : metal
  Current step  : 69843
  Time step     : 0.001
Per MPI rank memory allocation (min/avg/max) = 19.34 | 19.34 | 19.34 Mbytes
Step Temp Press TotEng PotEng Enthalpy Volume 
   69843    228.50759    517.77249   -83706.552   -84286.982   -83635.305    220465.17 
   70015    218.80975   -802.32848   -83759.806   -84315.603   -83870.225    220495.81 
Loop time of 36.3024 on 1 procs for 172 steps with 19652 atoms

Performance: 0.409 ns/day, 58.628 hours/ns, 4.738 timesteps/s
94.4% CPU use with 1 MPI tasks x no OpenMP threads

MPI task timing breakdown:
Section |  min time  |  avg time  |  max time  |%varavg| %total
---------------------------------------------------------------
Pair    | 19.699     | 19.699     | 19.699     |   0.0 | 54.26
Neigh   | 16.056     | 16.056     | 16.056     |   0.0 | 44.23
Comm    | 0.20245    | 0.20245    | 0.20245    |   0.0 |  0.56
Output  | 0.00019503 | 0.00019503 | 0.00019503 |   0.0 |  0.00
Modify  | 0.2755     | 0.2755     | 0.2755     |   0.0 |  0.76
Other   |            | 0.06935    |            |       |  0.19

Nlocal:    19652 ave 19652 max 19652 min
Histogram: 1 0 0 0 0 0 0 0 0 0
Nghost:    20760 ave 20760 max 20760 min
Histogram: 1 0 0 0 0 0 0 0 0 0
Neighs:    1.98501e+06 ave 1.98501e+06 max 1.98501e+06 min
Histogram: 1 0 0 0 0 0 0 0 0 0

Total # of neighbors = 1985011
Ave neighs/atom = 101.008
Neighbor list builds = 172
Dangerous builds not checked
Setting up Verlet run ...
  Unit style    : metal
  Current step  : 70015
  Time step     : 0.001
Per MPI rank memory allocation (min/avg/max) = 19.34 | 19.34 | 19.34 Mbytes
Step Temp Press TotEng PotEng Enthalpy Volume 
   70015    218.80975   -802.32848   -83759.806   -84315.603   -83870.225    220495.81 
   70035    217.33068   -351.79953   -83761.929   -84313.969   -83810.337    220457.17 
   70510    178.60446   -219.22301   -83960.137   -84413.809   -83990.256    220126.01 
Loop time of 103.854 on 1 procs for 495 steps with 19652 atoms

Performance: 0.412 ns/day, 58.279 hours/ns, 4.766 timesteps/s
95.2% CPU use with 1 MPI tasks x no OpenMP threads

MPI task timing breakdown:
Section |  min time  |  avg time  |  max time  |%varavg| %total
---------------------------------------------------------------
Pair    | 56.138     | 56.138     | 56.138     |   0.0 | 54.06
Neigh   | 46.013     | 46.013     | 46.013     |   0.0 | 44.31
Comm    | 0.59258    | 0.59258    | 0.59258    |   0.0 |  0.57
Output  | 0.14662    | 0.14662    | 0.14662    |   0.0 |  0.14
Modify  | 0.75736    | 0.75736    | 0.75736    |   0.0 |  0.73
Other   |            | 0.2062     |            |       |  0.20

Nlocal:    19652 ave 19652 max 19652 min
Histogram: 1 0 0 0 0 0 0 0 0 0
Nghost:    20747 ave 20747 max 20747 min
Histogram: 1 0 0 0 0 0 0 0 0 0
Neighs:    1.98902e+06 ave 1.98902e+06 max 1.98902e+06 min
Histogram: 1 0 0 0 0 0 0 0 0 0

Total # of neighbors = 1989024
Ave neighs/atom = 101.212
Neighbor list builds = 495
Dangerous builds not checked
Setting up Verlet run ...
  Unit style    : metal
  Current step  : 70510
  Time step     : 0.001
Per MPI rank memory allocation (min/avg/max) = 19.34 | 19.34 | 19.34 Mbytes
Step Temp Press TotEng PotEng Enthalpy Volume 
   70510    178.60446   -219.22301   -83960.137   -84413.809   -83990.256    220126.01 
   70682    168.94184    202.95267    -84012.85   -84441.977   -83984.981    220001.48 
Loop time of 37.4767 on 1 procs for 172 steps with 19652 atoms

Performance: 0.397 ns/day, 60.524 hours/ns, 4.590 timesteps/s
91.6% CPU use with 1 MPI tasks x no OpenMP threads

MPI task timing breakdown:
Section |  min time  |  avg time  |  max time  |%varavg| %total
---------------------------------------------------------------
Pair    | 20.233     | 20.233     | 20.233     |   0.0 | 53.99
Neigh   | 16.679     | 16.679     | 16.679     |   0.0 | 44.50
Comm    | 0.20094    | 0.20094    | 0.20094    |   0.0 |  0.54
Output  | 0.00020695 | 0.00020695 | 0.00020695 |   0.0 |  0.00
Modify  | 0.26902    | 0.26902    | 0.26902    |   0.0 |  0.72
Other   |            | 0.09508    |            |       |  0.25

Nlocal:    19652 ave 19652 max 19652 min
Histogram: 1 0 0 0 0 0 0 0 0 0
Nghost:    20767 ave 20767 max 20767 min
Histogram: 1 0 0 0 0 0 0 0 0 0
Neighs:    1.99027e+06 ave 1.99027e+06 max 1.99027e+06 min
Histogram: 1 0 0 0 0 0 0 0 0 0

Total # of neighbors = 1990274
Ave neighs/atom = 101.276
Neighbor list builds = 172
Dangerous builds not checked
Setting up Verlet run ...
  Unit style    : metal
  Current step  : 70682
  Time step     : 0.001
Per MPI rank memory allocation (min/avg/max) = 19.34 | 19.34 | 19.34 Mbytes
Step Temp Press TotEng PotEng Enthalpy Volume 
   70682    168.94184    202.95267    -84012.85   -84441.977   -83984.981    220001.48 
   70702    169.83944     6.839862    -84015.14   -84446.547     -84014.2    220011.37 
   71177    132.36767   -398.94734   -84209.708   -84545.934   -84264.423    219736.49 
Loop time of 101.165 on 1 procs for 495 steps with 19652 atoms

Performance: 0.423 ns/day, 56.771 hours/ns, 4.893 timesteps/s
97.0% CPU use with 1 MPI tasks x no OpenMP threads

MPI task timing breakdown:
Section |  min time  |  avg time  |  max time  |%varavg| %total
---------------------------------------------------------------
Pair    | 54.308     | 54.308     | 54.308     |   0.0 | 53.68
Neigh   | 45.236     | 45.236     | 45.236     |   0.0 | 44.71
Comm    | 0.59069    | 0.59069    | 0.59069    |   0.0 |  0.58
Output  | 0.072033   | 0.072033   | 0.072033   |   0.0 |  0.07
Modify  | 0.75629    | 0.75629    | 0.75629    |   0.0 |  0.75
Other   |            | 0.2022     |            |       |  0.20

Nlocal:    19652 ave 19652 max 19652 min
Histogram: 1 0 0 0 0 0 0 0 0 0
Nghost:    20794 ave 20794 max 20794 min
Histogram: 1 0 0 0 0 0 0 0 0 0
Neighs:    1.99292e+06 ave 1.99292e+06 max 1.99292e+06 min
Histogram: 1 0 0 0 0 0 0 0 0 0

Total # of neighbors = 1992924
Ave neighs/atom = 101.411
Neighbor list builds = 495
Dangerous builds not checked
Setting up Verlet run ...
  Unit style    : metal
  Current step  : 71177
  Time step     : 0.001
Per MPI rank memory allocation (min/avg/max) = 19.34 | 19.34 | 19.34 Mbytes
Step Temp Press TotEng PotEng Enthalpy Volume 
   71177    132.36767   -398.94734   -84209.708   -84545.934   -84264.423    219736.49 
   71349    121.22456    -324.4532   -84261.929    -84569.85   -84306.408    219638.85 
Loop time of 35.7071 on 1 procs for 172 steps with 19652 atoms

Performance: 0.416 ns/day, 57.667 hours/ns, 4.817 timesteps/s
95.7% CPU use with 1 MPI tasks x no OpenMP threads

MPI task timing breakdown:
Section |  min time  |  avg time  |  max time  |%varavg| %total
---------------------------------------------------------------
Pair    | 19.251     | 19.251     | 19.251     |   0.0 | 53.91
Neigh   | 15.926     | 15.926     | 15.926     |   0.0 | 44.60
Comm    | 0.1961     | 0.1961     | 0.1961     |   0.0 |  0.55
Output  | 0.00019884 | 0.00019884 | 0.00019884 |   0.0 |  0.00
Modify  | 0.26418    | 0.26418    | 0.26418    |   0.0 |  0.74
Other   |            | 0.0699     |            |       |  0.20

Nlocal:    19652 ave 19652 max 19652 min
Histogram: 1 0 0 0 0 0 0 0 0 0
Nghost:    20823 ave 20823 max 20823 min
Histogram: 1 0 0 0 0 0 0 0 0 0
Neighs:    1.99369e+06 ave 1.99369e+06 max 1.99369e+06 min
Histogram: 1 0 0 0 0 0 0 0 0 0

Total # of neighbors = 1993694
Ave neighs/atom = 101.45
Neighbor list builds = 172
Dangerous builds not checked
Total wall time: 3:27:11
