LAMMPS (12 Dec 2018)
Lattice spacing in x,y,z = 4 4 4
Created orthogonal box = (0 0 0) to (68 68 68)
  1 by 1 by 1 MPI processor grid
Created 19652 atoms
  Time spent = 0.00437498 secs
Setting atom values ...
  19480 settings made for type/fraction
Neighbor list info ...
  update every 1 steps, delay 0 steps, check no
  max neighbors/atom: 2000, page size: 100000
  master list distance cutoff = 8.2
  ghost atom cutoff = 8.2
  binsize = 4.1, bins = 17 17 17
  1 neighbor lists, perpetual/occasional/extra = 1 0 0
  (1) pair eam/alloy, perpetual
      attributes: half, newton on
      pair build: half/bin/atomonly/newton
      stencil: half/bin/3d/newton
      bin: standard
Setting up Verlet run ...
  Unit style    : metal
  Current step  : 0
  Time step     : 0.001
Per MPI rank memory allocation (min/avg/max) = 17.03 | 17.03 | 17.03 Mbytes
Step Temp Press TotEng PotEng Enthalpy 
       0          300   -362526.57   -69435.747   -70197.774   -140582.69 
    1000     1419.399    -77915.41   -69436.099   -73041.501   -84727.234 
Loop time of 162.277 on 1 procs for 1000 steps with 19652 atoms

Performance: 0.532 ns/day, 45.077 hours/ns, 6.162 timesteps/s
98.5% CPU use with 1 MPI tasks x no OpenMP threads

MPI task timing breakdown:
Section |  min time  |  avg time  |  max time  |%varavg| %total
---------------------------------------------------------------
Pair    | 87.831     | 87.831     | 87.831     |   0.0 | 54.12
Neigh   | 72.309     | 72.309     | 72.309     |   0.0 | 44.56
Comm    | 1.2712     | 1.2712     | 1.2712     |   0.0 |  0.78
Output  | 0.00018692 | 0.00018692 | 0.00018692 |   0.0 |  0.00
Modify  | 0.45736    | 0.45736    | 0.45736    |   0.0 |  0.28
Other   |            | 0.4077     |            |       |  0.25

Nlocal:    19652 ave 19652 max 19652 min
Histogram: 1 0 0 0 0 0 0 0 0 0
Nghost:    17926 ave 17926 max 17926 min
Histogram: 1 0 0 0 0 0 0 0 0 0
Neighs:    1.44397e+06 ave 1.44397e+06 max 1.44397e+06 min
Histogram: 1 0 0 0 0 0 0 0 0 0

Total # of neighbors = 1443971
Ave neighs/atom = 73.4771
Neighbor list builds = 1000
Dangerous builds not checked
Setting up Verlet run ...
  Unit style    : metal
  Current step  : 1000
  Time step     : 0.001
Per MPI rank memory allocation (min/avg/max) = 17.03 | 17.03 | 17.03 Mbytes
Step Temp Press TotEng PotEng Enthalpy 
    1000     1419.399    -77915.41   -69436.099   -73041.501   -84727.234 
    2000    435.98759   -3262.6726    -80645.25   -81752.698    -81122.16 
Loop time of 186.867 on 1 procs for 1000 steps with 19652 atoms

Performance: 0.462 ns/day, 51.907 hours/ns, 5.351 timesteps/s
99.0% CPU use with 1 MPI tasks x no OpenMP threads

MPI task timing breakdown:
Section |  min time  |  avg time  |  max time  |%varavg| %total
---------------------------------------------------------------
Pair    | 103.01     | 103.01     | 103.01     |   0.0 | 55.13
Neigh   | 80.78      | 80.78      | 80.78      |   0.0 | 43.23
Comm    | 1.1487     | 1.1487     | 1.1487     |   0.0 |  0.61
Output  | 0.073157   | 0.073157   | 0.073157   |   0.0 |  0.04
Modify  | 1.4591     | 1.4591     | 1.4591     |   0.0 |  0.78
Other   |            | 0.3912     |            |       |  0.21

Nlocal:    19652 ave 19652 max 19652 min
Histogram: 1 0 0 0 0 0 0 0 0 0
Nghost:    20286 ave 20286 max 20286 min
Histogram: 1 0 0 0 0 0 0 0 0 0
Neighs:    1.88874e+06 ave 1.88874e+06 max 1.88874e+06 min
Histogram: 1 0 0 0 0 0 0 0 0 0

Total # of neighbors = 1888737
Ave neighs/atom = 96.1091
Neighbor list builds = 1000
Dangerous builds not checked
Setting up Verlet run ...
  Unit style    : metal
  Current step  : 2000
  Time step     : 0.001
Per MPI rank memory allocation (min/avg/max) = 18.94 | 18.94 | 18.94 Mbytes
Step Temp Press TotEng PotEng Enthalpy 
    2000    435.98759   -3262.6726    -80645.25   -81752.698    -81122.16 
    4000    825.38787   -562.77025   -80120.137   -82216.697    -80199.91 
    6000    1356.9835    2765.0309   -76999.435   -80446.297   -76598.122 
    8000    1896.9049   -685.38188   -73082.191   -77900.502   -73185.667 
   10000    2452.4772    1453.7985   -69372.889   -75602.404   -69145.765 
Loop time of 1503.33 on 1 procs for 8000 steps with 19652 atoms

Performance: 0.460 ns/day, 52.199 hours/ns, 5.322 timesteps/s
98.6% CPU use with 1 MPI tasks x no OpenMP threads

MPI task timing breakdown:
Section |  min time  |  avg time  |  max time  |%varavg| %total
---------------------------------------------------------------
Pair    | 814.34     | 814.34     | 814.34     |   0.0 | 54.17
Neigh   | 665.55     | 665.55     | 665.55     |   0.0 | 44.27
Comm    | 8.6883     | 8.6883     | 8.6883     |   0.0 |  0.58
Output  | 0.30896    | 0.30896    | 0.30896    |   0.0 |  0.02
Modify  | 11.324     | 11.324     | 11.324     |   0.0 |  0.75
Other   |            | 3.119      |            |       |  0.21

Nlocal:    19652 ave 19652 max 19652 min
Histogram: 1 0 0 0 0 0 0 0 0 0
Nghost:    19617 ave 19617 max 19617 min
Histogram: 1 0 0 0 0 0 0 0 0 0
Neighs:    1.76251e+06 ave 1.76251e+06 max 1.76251e+06 min
Histogram: 1 0 0 0 0 0 0 0 0 0

Total # of neighbors = 1762509
Ave neighs/atom = 89.686
Neighbor list builds = 8000
Dangerous builds not checked
Setting up Verlet run ...
  Unit style    : metal
  Current step  : 10000
  Time step     : 0.001
Per MPI rank memory allocation (min/avg/max) = 18.95 | 18.95 | 18.95 Mbytes
Step Temp Press TotEng PotEng Enthalpy 
   10000    2452.4772    1453.7985   -69372.889   -75602.404   -69145.765 
   12000    2437.9872    2552.0545    -69369.79     -75562.5   -68970.985 
   14000    2461.8437   -1477.7945   -69269.829   -75523.136   -69501.325 
   16000    2455.8959    560.87887   -69249.239   -75487.439   -69161.451 
   18000    2463.9894   -520.43831   -69258.759   -75517.517   -69340.241 
   20000    2431.5616   -2372.0361   -69364.318   -75540.706   -69736.002 
   22000    2458.8767   -673.64439   -69257.909    -75503.68   -69363.461 
   24000    2463.7502   -488.38016   -69289.256   -75547.407   -69365.691 
   26000    2469.3531    3134.4986   -69124.319     -75396.7    -68633.45 
   28000    2462.1881    2234.8577   -69258.927   -75513.109   -68909.443 
   30000    2464.1184    671.99966   -69309.046   -75568.131   -69203.893 
   32000    2423.9249   -2465.7202   -69291.228   -75448.218   -69678.127 
   34000    2452.4407    3545.6646   -69289.495   -75518.917    -68735.62 
   36000    2455.0586   -508.83555   -69257.525   -75493.598   -69337.263 
   38000    2428.5524   -732.20525    -69277.82   -75446.564   -69392.586 
   40000    2437.4801   -1647.1095   -69260.391   -75451.812   -69518.754 
Loop time of 5536.08 on 1 procs for 30000 steps with 19652 atoms

Performance: 0.468 ns/day, 51.260 hours/ns, 5.419 timesteps/s
98.9% CPU use with 1 MPI tasks x no OpenMP threads

MPI task timing breakdown:
Section |  min time  |  avg time  |  max time  |%varavg| %total
---------------------------------------------------------------
Pair    | 3040.8     | 3040.8     | 3040.8     |   0.0 | 54.93
Neigh   | 2399.2     | 2399.2     | 2399.2     |   0.0 | 43.34
Comm    | 33.771     | 33.771     | 33.771     |   0.0 |  0.61
Output  | 8.8585     | 8.8585     | 8.8585     |   0.0 |  0.16
Modify  | 41.902     | 41.902     | 41.902     |   0.0 |  0.76
Other   |            | 11.55      |            |       |  0.21

Nlocal:    19652 ave 19652 max 19652 min
Histogram: 1 0 0 0 0 0 0 0 0 0
Nghost:    19681 ave 19681 max 19681 min
Histogram: 1 0 0 0 0 0 0 0 0 0
Neighs:    1.75517e+06 ave 1.75517e+06 max 1.75517e+06 min
Histogram: 1 0 0 0 0 0 0 0 0 0

Total # of neighbors = 1755168
Ave neighs/atom = 89.3124
Neighbor list builds = 30000
Dangerous builds not checked
Setting up Verlet run ...
  Unit style    : metal
  Current step  : 40000
  Time step     : 0.001
Per MPI rank memory allocation (min/avg/max) = 18.95 | 18.95 | 18.95 Mbytes
Step Temp Press TotEng PotEng Enthalpy 
   40000    2437.4801   -1647.1095   -69260.391   -75451.812   -69518.754 
   40495    2430.1515   -51.641951   -69506.261   -75679.067   -69514.328 
Loop time of 86.0838 on 1 procs for 495 steps with 19652 atoms

Performance: 0.497 ns/day, 48.307 hours/ns, 5.750 timesteps/s
99.8% CPU use with 1 MPI tasks x no OpenMP threads

MPI task timing breakdown:
Section |  min time  |  avg time  |  max time  |%varavg| %total
---------------------------------------------------------------
Pair    | 47.145     | 47.145     | 47.145     |   0.0 | 54.77
Neigh   | 37.537     | 37.537     | 37.537     |   0.0 | 43.61
Comm    | 0.54315    | 0.54315    | 0.54315    |   0.0 |  0.63
Output  | 0.00010991 | 0.00010991 | 0.00010991 |   0.0 |  0.00
Modify  | 0.66262    | 0.66262    | 0.66262    |   0.0 |  0.77
Other   |            | 0.1959     |            |       |  0.23

Nlocal:    19652 ave 19652 max 19652 min
Histogram: 1 0 0 0 0 0 0 0 0 0
Nghost:    19765 ave 19765 max 19765 min
Histogram: 1 0 0 0 0 0 0 0 0 0
Neighs:    1.76279e+06 ave 1.76279e+06 max 1.76279e+06 min
Histogram: 1 0 0 0 0 0 0 0 0 0

Total # of neighbors = 1762789
Ave neighs/atom = 89.7002
Neighbor list builds = 495
Dangerous builds not checked
Setting up Verlet run ...
  Unit style    : metal
  Current step  : 40495
  Time step     : 0.001
Per MPI rank memory allocation (min/avg/max) = 18.95 | 18.95 | 18.95 Mbytes
Step Temp Press TotEng PotEng Enthalpy 
   40495    2430.1515   -51.641951   -69506.261   -75679.067   -69514.328 
   42000    2396.3762   -1785.1022    -69562.73   -75649.744   -69841.869 
Loop time of 270.016 on 1 procs for 1505 steps with 19652 atoms

Performance: 0.482 ns/day, 49.837 hours/ns, 5.574 timesteps/s
99.5% CPU use with 1 MPI tasks x no OpenMP threads

MPI task timing breakdown:
Section |  min time  |  avg time  |  max time  |%varavg| %total
---------------------------------------------------------------
Pair    | 148.18     | 148.18     | 148.18     |   0.0 | 54.88
Neigh   | 117.44     | 117.44     | 117.44     |   0.0 | 43.50
Comm    | 1.6749     | 1.6749     | 1.6749     |   0.0 |  0.62
Output  | 0.065359   | 0.065359   | 0.065359   |   0.0 |  0.02
Modify  | 2.0449     | 2.0449     | 2.0449     |   0.0 |  0.76
Other   |            | 0.6064     |            |       |  0.22

Nlocal:    19652 ave 19652 max 19652 min
Histogram: 1 0 0 0 0 0 0 0 0 0
Nghost:    19632 ave 19632 max 19632 min
Histogram: 1 0 0 0 0 0 0 0 0 0
Neighs:    1.7612e+06 ave 1.7612e+06 max 1.7612e+06 min
Histogram: 1 0 0 0 0 0 0 0 0 0

Total # of neighbors = 1761201
Ave neighs/atom = 89.6194
Neighbor list builds = 1505
Dangerous builds not checked
Setting up Verlet run ...
  Unit style    : metal
  Current step  : 42000
  Time step     : 0.001
Per MPI rank memory allocation (min/avg/max) = 18.95 | 18.95 | 18.95 Mbytes
Step Temp Press TotEng PotEng Enthalpy 
   42000    2396.3762   -1785.1022    -69562.73   -75649.744   -69841.869 
   42495    2336.8684   -506.06696   -69856.655   -75792.514   -69935.562 
Loop time of 83.444 on 1 procs for 495 steps with 19652 atoms

Performance: 0.513 ns/day, 46.826 hours/ns, 5.932 timesteps/s
100.0% CPU use with 1 MPI tasks x no OpenMP threads

MPI task timing breakdown:
Section |  min time  |  avg time  |  max time  |%varavg| %total
---------------------------------------------------------------
Pair    | 46.007     | 46.007     | 46.007     |   0.0 | 55.14
Neigh   | 36.081     | 36.081     | 36.081     |   0.0 | 43.24
Comm    | 0.52435    | 0.52435    | 0.52435    |   0.0 |  0.63
Output  | 0.00016403 | 0.00016403 | 0.00016403 |   0.0 |  0.00
Modify  | 0.64164    | 0.64164    | 0.64164    |   0.0 |  0.77
Other   |            | 0.1899     |            |       |  0.23

Nlocal:    19652 ave 19652 max 19652 min
Histogram: 1 0 0 0 0 0 0 0 0 0
Nghost:    19687 ave 19687 max 19687 min
Histogram: 1 0 0 0 0 0 0 0 0 0
Neighs:    1.76604e+06 ave 1.76604e+06 max 1.76604e+06 min
Histogram: 1 0 0 0 0 0 0 0 0 0

Total # of neighbors = 1766038
Ave neighs/atom = 89.8656
Neighbor list builds = 495
Dangerous builds not checked
Setting up Verlet run ...
  Unit style    : metal
  Current step  : 42495
  Time step     : 0.001
Per MPI rank memory allocation (min/avg/max) = 18.95 | 18.95 | 18.95 Mbytes
Step Temp Press TotEng PotEng Enthalpy 
   42495    2336.8684   -506.06696   -69856.655   -75792.514   -69935.562 
   44000    2339.1903   -1842.0879   -69924.444     -75866.2   -70211.503 
Loop time of 270.074 on 1 procs for 1505 steps with 19652 atoms

Performance: 0.481 ns/day, 49.847 hours/ns, 5.573 timesteps/s
99.5% CPU use with 1 MPI tasks x no OpenMP threads

MPI task timing breakdown:
Section |  min time  |  avg time  |  max time  |%varavg| %total
---------------------------------------------------------------
Pair    | 148.51     | 148.51     | 148.51     |   0.0 | 54.99
Neigh   | 117.05     | 117.05     | 117.05     |   0.0 | 43.34
Comm    | 1.6993     | 1.6993     | 1.6993     |   0.0 |  0.63
Output  | 0.13491    | 0.13491    | 0.13491    |   0.0 |  0.05
Modify  | 2.0703     | 2.0703     | 2.0703     |   0.0 |  0.77
Other   |            | 0.6122     |            |       |  0.23

Nlocal:    19652 ave 19652 max 19652 min
Histogram: 1 0 0 0 0 0 0 0 0 0
Nghost:    19699 ave 19699 max 19699 min
Histogram: 1 0 0 0 0 0 0 0 0 0
Neighs:    1.76681e+06 ave 1.76681e+06 max 1.76681e+06 min
Histogram: 1 0 0 0 0 0 0 0 0 0

Total # of neighbors = 1766808
Ave neighs/atom = 89.9047
Neighbor list builds = 1505
Dangerous builds not checked
Setting up Verlet run ...
  Unit style    : metal
  Current step  : 44000
  Time step     : 0.001
Per MPI rank memory allocation (min/avg/max) = 18.95 | 18.95 | 18.95 Mbytes
Step Temp Press TotEng PotEng Enthalpy 
   44000    2339.1903   -1842.0879   -69924.444     -75866.2   -70211.503 
   44495    2301.2202   -299.36334   -70133.641    -75978.95   -70180.171 
Loop time of 91.2238 on 1 procs for 495 steps with 19652 atoms

Performance: 0.469 ns/day, 51.192 hours/ns, 5.426 timesteps/s
98.7% CPU use with 1 MPI tasks x no OpenMP threads

MPI task timing breakdown:
Section |  min time  |  avg time  |  max time  |%varavg| %total
---------------------------------------------------------------
Pair    | 50.469     | 50.469     | 50.469     |   0.0 | 55.32
Neigh   | 39.264     | 39.264     | 39.264     |   0.0 | 43.04
Comm    | 0.58929    | 0.58929    | 0.58929    |   0.0 |  0.65
Output  | 0.00012803 | 0.00012803 | 0.00012803 |   0.0 |  0.00
Modify  | 0.69346    | 0.69346    | 0.69346    |   0.0 |  0.76
Other   |            | 0.2076     |            |       |  0.23

Nlocal:    19652 ave 19652 max 19652 min
Histogram: 1 0 0 0 0 0 0 0 0 0
Nghost:    19699 ave 19699 max 19699 min
Histogram: 1 0 0 0 0 0 0 0 0 0
Neighs:    1.77144e+06 ave 1.77144e+06 max 1.77144e+06 min
Histogram: 1 0 0 0 0 0 0 0 0 0

Total # of neighbors = 1771440
Ave neighs/atom = 90.1404
Neighbor list builds = 495
Dangerous builds not checked
Setting up Verlet run ...
  Unit style    : metal
  Current step  : 44495
  Time step     : 0.001
Per MPI rank memory allocation (min/avg/max) = 18.95 | 18.95 | 18.95 Mbytes
Step Temp Press TotEng PotEng Enthalpy 
   44495    2301.2202   -299.36334   -70133.641    -75978.95   -70180.171 
   46000    2317.3774    1190.8977   -70223.953   -76110.303   -70039.238 
Loop time of 276.552 on 1 procs for 1505 steps with 19652 atoms

Performance: 0.470 ns/day, 51.043 hours/ns, 5.442 timesteps/s
99.0% CPU use with 1 MPI tasks x no OpenMP threads

MPI task timing breakdown:
Section |  min time  |  avg time  |  max time  |%varavg| %total
---------------------------------------------------------------
Pair    | 152.95     | 152.95     | 152.95     |   0.0 | 55.30
Neigh   | 119.02     | 119.02     | 119.02     |   0.0 | 43.04
Comm    | 1.719      | 1.719      | 1.719      |   0.0 |  0.62
Output  | 0.1527     | 0.1527     | 0.1527     |   0.0 |  0.06
Modify  | 2.0965     | 2.0965     | 2.0965     |   0.0 |  0.76
Other   |            | 0.618      |            |       |  0.22

Nlocal:    19652 ave 19652 max 19652 min
Histogram: 1 0 0 0 0 0 0 0 0 0
Nghost:    19730 ave 19730 max 19730 min
Histogram: 1 0 0 0 0 0 0 0 0 0
Neighs:    1.7748e+06 ave 1.7748e+06 max 1.7748e+06 min
Histogram: 1 0 0 0 0 0 0 0 0 0

Total # of neighbors = 1774797
Ave neighs/atom = 90.3113
Neighbor list builds = 1505
Dangerous builds not checked
Setting up Verlet run ...
  Unit style    : metal
  Current step  : 46000
  Time step     : 0.001
Per MPI rank memory allocation (min/avg/max) = 18.95 | 18.95 | 18.95 Mbytes
Step Temp Press TotEng PotEng Enthalpy 
   46000    2317.3774    1190.8977   -70223.953   -76110.303   -70039.238 
   46495    2251.0454    465.82108   -70498.515   -76216.376   -70426.405 
Loop time of 78.0519 on 1 procs for 495 steps with 19652 atoms

Performance: 0.548 ns/day, 43.800 hours/ns, 6.342 timesteps/s
99.4% CPU use with 1 MPI tasks x no OpenMP threads

MPI task timing breakdown:
Section |  min time  |  avg time  |  max time  |%varavg| %total
---------------------------------------------------------------
Pair    | 42.783     | 42.783     | 42.783     |   0.0 | 54.81
Neigh   | 34.011     | 34.011     | 34.011     |   0.0 | 43.57
Comm    | 0.48627    | 0.48627    | 0.48627    |   0.0 |  0.62
Output  | 0.00012183 | 0.00012183 | 0.00012183 |   0.0 |  0.00
Modify  | 0.59263    | 0.59263    | 0.59263    |   0.0 |  0.76
Other   |            | 0.1793     |            |       |  0.23

Nlocal:    19652 ave 19652 max 19652 min
Histogram: 1 0 0 0 0 0 0 0 0 0
Nghost:    19792 ave 19792 max 19792 min
Histogram: 1 0 0 0 0 0 0 0 0 0
Neighs:    1.77791e+06 ave 1.77791e+06 max 1.77791e+06 min
Histogram: 1 0 0 0 0 0 0 0 0 0

Total # of neighbors = 1777908
Ave neighs/atom = 90.4696
Neighbor list builds = 495
Dangerous builds not checked
Setting up Verlet run ...
  Unit style    : metal
  Current step  : 46495
  Time step     : 0.001
Per MPI rank memory allocation (min/avg/max) = 18.95 | 18.95 | 18.95 Mbytes
Step Temp Press TotEng PotEng Enthalpy 
   46495    2251.0454    465.82108   -70498.515   -76216.376   -70426.405 
   48000    2241.2004   -4240.1524   -70579.725   -76272.579   -71237.262 
Loop time of 253.836 on 1 procs for 1505 steps with 19652 atoms

Performance: 0.512 ns/day, 46.851 hours/ns, 5.929 timesteps/s
99.7% CPU use with 1 MPI tasks x no OpenMP threads

MPI task timing breakdown:
Section |  min time  |  avg time  |  max time  |%varavg| %total
---------------------------------------------------------------
Pair    | 139.93     | 139.93     | 139.93     |   0.0 | 55.13
Neigh   | 109.76     | 109.76     | 109.76     |   0.0 | 43.24
Comm    | 1.5793     | 1.5793     | 1.5793     |   0.0 |  0.62
Output  | 0.083439   | 0.083439   | 0.083439   |   0.0 |  0.03
Modify  | 1.9089     | 1.9089     | 1.9089     |   0.0 |  0.75
Other   |            | 0.5722     |            |       |  0.23

Nlocal:    19652 ave 19652 max 19652 min
Histogram: 1 0 0 0 0 0 0 0 0 0
Nghost:    19757 ave 19757 max 19757 min
Histogram: 1 0 0 0 0 0 0 0 0 0
Neighs:    1.7742e+06 ave 1.7742e+06 max 1.7742e+06 min
Histogram: 1 0 0 0 0 0 0 0 0 0

Total # of neighbors = 1774197
Ave neighs/atom = 90.2807
Neighbor list builds = 1505
Dangerous builds not checked
Setting up Verlet run ...
  Unit style    : metal
  Current step  : 48000
  Time step     : 0.001
Per MPI rank memory allocation (min/avg/max) = 18.95 | 18.95 | 18.95 Mbytes
Step Temp Press TotEng PotEng Enthalpy 
   48000    2241.2004   -4240.1524   -70579.725   -76272.579   -71237.262 
   48495    2191.0231   -2230.2841   -70812.508   -76377.906   -71157.467 
Loop time of 88.6928 on 1 procs for 495 steps with 19652 atoms

Performance: 0.482 ns/day, 49.771 hours/ns, 5.581 timesteps/s
99.8% CPU use with 1 MPI tasks x no OpenMP threads

MPI task timing breakdown:
Section |  min time  |  avg time  |  max time  |%varavg| %total
---------------------------------------------------------------
Pair    | 48.984     | 48.984     | 48.984     |   0.0 | 55.23
Neigh   | 38.266     | 38.266     | 38.266     |   0.0 | 43.14
Comm    | 0.55072    | 0.55072    | 0.55072    |   0.0 |  0.62
Output  | 0.00016403 | 0.00016403 | 0.00016403 |   0.0 |  0.00
Modify  | 0.68966    | 0.68966    | 0.68966    |   0.0 |  0.78
Other   |            | 0.2023     |            |       |  0.23

Nlocal:    19652 ave 19652 max 19652 min
Histogram: 1 0 0 0 0 0 0 0 0 0
Nghost:    19810 ave 19810 max 19810 min
Histogram: 1 0 0 0 0 0 0 0 0 0
Neighs:    1.7793e+06 ave 1.7793e+06 max 1.7793e+06 min
Histogram: 1 0 0 0 0 0 0 0 0 0

Total # of neighbors = 1779305
Ave neighs/atom = 90.5407
Neighbor list builds = 495
Dangerous builds not checked
Setting up Verlet run ...
  Unit style    : metal
  Current step  : 48495
  Time step     : 0.001
Per MPI rank memory allocation (min/avg/max) = 18.95 | 18.95 | 18.95 Mbytes
Step Temp Press TotEng PotEng Enthalpy 
   48495    2191.0231   -2230.2841   -70812.508   -76377.906   -71157.467 
   50000    2230.7927    1933.5872   -70796.164   -76462.581   -70498.116 
Loop time of 265.832 on 1 procs for 1505 steps with 19652 atoms

Performance: 0.489 ns/day, 49.065 hours/ns, 5.661 timesteps/s
99.4% CPU use with 1 MPI tasks x no OpenMP threads

MPI task timing breakdown:
Section |  min time  |  avg time  |  max time  |%varavg| %total
---------------------------------------------------------------
Pair    | 146.9      | 146.9      | 146.9      |   0.0 | 55.26
Neigh   | 114.6      | 114.6      | 114.6      |   0.0 | 43.11
Comm    | 1.6543     | 1.6543     | 1.6543     |   0.0 |  0.62
Output  | 0.054159   | 0.054159   | 0.054159   |   0.0 |  0.02
Modify  | 2.0212     | 2.0212     | 2.0212     |   0.0 |  0.76
Other   |            | 0.601      |            |       |  0.23

Nlocal:    19652 ave 19652 max 19652 min
Histogram: 1 0 0 0 0 0 0 0 0 0
Nghost:    19774 ave 19774 max 19774 min
Histogram: 1 0 0 0 0 0 0 0 0 0
Neighs:    1.78522e+06 ave 1.78522e+06 max 1.78522e+06 min
Histogram: 1 0 0 0 0 0 0 0 0 0

Total # of neighbors = 1785225
Ave neighs/atom = 90.8419
Neighbor list builds = 1505
Dangerous builds not checked
Setting up Verlet run ...
  Unit style    : metal
  Current step  : 50000
  Time step     : 0.001
Per MPI rank memory allocation (min/avg/max) = 18.95 | 18.95 | 18.95 Mbytes
Step Temp Press TotEng PotEng Enthalpy 
   50000    2230.7927    1933.5872   -70796.164   -76462.581   -70498.116 
   50495    2164.1712    2083.4972   -71103.726   -76600.918   -70783.305 
Loop time of 77.5789 on 1 procs for 495 steps with 19652 atoms

Performance: 0.551 ns/day, 43.535 hours/ns, 6.381 timesteps/s
99.8% CPU use with 1 MPI tasks x no OpenMP threads

MPI task timing breakdown:
Section |  min time  |  avg time  |  max time  |%varavg| %total
---------------------------------------------------------------
Pair    | 42.359     | 42.359     | 42.359     |   0.0 | 54.60
Neigh   | 33.947     | 33.947     | 33.947     |   0.0 | 43.76
Comm    | 0.49626    | 0.49626    | 0.49626    |   0.0 |  0.64
Output  | 0.00012517 | 0.00012517 | 0.00012517 |   0.0 |  0.00
Modify  | 0.59592    | 0.59592    | 0.59592    |   0.0 |  0.77
Other   |            | 0.1804     |            |       |  0.23

Nlocal:    19652 ave 19652 max 19652 min
Histogram: 1 0 0 0 0 0 0 0 0 0
Nghost:    19828 ave 19828 max 19828 min
Histogram: 1 0 0 0 0 0 0 0 0 0
Neighs:    1.78888e+06 ave 1.78888e+06 max 1.78888e+06 min
Histogram: 1 0 0 0 0 0 0 0 0 0

Total # of neighbors = 1788884
Ave neighs/atom = 91.0281
Neighbor list builds = 495
Dangerous builds not checked
Setting up Verlet run ...
  Unit style    : metal
  Current step  : 50495
  Time step     : 0.001
Per MPI rank memory allocation (min/avg/max) = 18.95 | 18.95 | 18.95 Mbytes
Step Temp Press TotEng PotEng Enthalpy 
   50495    2164.1712    2083.4972   -71103.726   -76600.918   -70783.305 
   52000    2134.3683   -504.68208   -71244.738   -76666.228   -71322.391 
Loop time of 260.237 on 1 procs for 1505 steps with 19652 atoms

Performance: 0.500 ns/day, 48.032 hours/ns, 5.783 timesteps/s
99.4% CPU use with 1 MPI tasks x no OpenMP threads

MPI task timing breakdown:
Section |  min time  |  avg time  |  max time  |%varavg| %total
---------------------------------------------------------------
Pair    | 143.87     | 143.87     | 143.87     |   0.0 | 55.29
Neigh   | 112.09     | 112.09     | 112.09     |   0.0 | 43.07
Comm    | 1.6298     | 1.6298     | 1.6298     |   0.0 |  0.63
Output  | 0.092189   | 0.092189   | 0.092189   |   0.0 |  0.04
Modify  | 1.9636     | 1.9636     | 1.9636     |   0.0 |  0.75
Other   |            | 0.584      |            |       |  0.22

Nlocal:    19652 ave 19652 max 19652 min
Histogram: 1 0 0 0 0 0 0 0 0 0
Nghost:    19821 ave 19821 max 19821 min
Histogram: 1 0 0 0 0 0 0 0 0 0
Neighs:    1.78728e+06 ave 1.78728e+06 max 1.78728e+06 min
Histogram: 1 0 0 0 0 0 0 0 0 0

Total # of neighbors = 1787281
Ave neighs/atom = 90.9465
Neighbor list builds = 1505
Dangerous builds not checked
Setting up Verlet run ...
  Unit style    : metal
  Current step  : 52000
  Time step     : 0.001
Per MPI rank memory allocation (min/avg/max) = 18.95 | 18.95 | 18.95 Mbytes
Step Temp Press TotEng PotEng Enthalpy 
   52000    2134.3683   -504.68208   -71244.738   -76666.228   -71322.391 
   52495    2115.2367     92.11376   -71487.184   -76860.078   -71473.056 
Loop time of 83.6694 on 1 procs for 495 steps with 19652 atoms

Performance: 0.511 ns/day, 46.953 hours/ns, 5.916 timesteps/s
99.5% CPU use with 1 MPI tasks x no OpenMP threads

MPI task timing breakdown:
Section |  min time  |  avg time  |  max time  |%varavg| %total
---------------------------------------------------------------
Pair    | 45.976     | 45.976     | 45.976     |   0.0 | 54.95
Neigh   | 36.324     | 36.324     | 36.324     |   0.0 | 43.41
Comm    | 0.52909    | 0.52909    | 0.52909    |   0.0 |  0.63
Output  | 0.00012398 | 0.00012398 | 0.00012398 |   0.0 |  0.00
Modify  | 0.64785    | 0.64785    | 0.64785    |   0.0 |  0.77
Other   |            | 0.1927     |            |       |  0.23

Nlocal:    19652 ave 19652 max 19652 min
Histogram: 1 0 0 0 0 0 0 0 0 0
Nghost:    19839 ave 19839 max 19839 min
Histogram: 1 0 0 0 0 0 0 0 0 0
Neighs:    1.79281e+06 ave 1.79281e+06 max 1.79281e+06 min
Histogram: 1 0 0 0 0 0 0 0 0 0

Total # of neighbors = 1792813
Ave neighs/atom = 91.228
Neighbor list builds = 495
Dangerous builds not checked
Setting up Verlet run ...
  Unit style    : metal
  Current step  : 52495
  Time step     : 0.001
Per MPI rank memory allocation (min/avg/max) = 18.95 | 18.95 | 18.95 Mbytes
Step Temp Press TotEng PotEng Enthalpy 
   52495    2115.2367     92.11376   -71487.184   -76860.078   -71473.056 
   54000    2074.7633   -4718.8071   -71631.205   -76901.293     -72356.2 
Loop time of 271.359 on 1 procs for 1505 steps with 19652 atoms

Performance: 0.479 ns/day, 50.085 hours/ns, 5.546 timesteps/s
99.5% CPU use with 1 MPI tasks x no OpenMP threads

MPI task timing breakdown:
Section |  min time  |  avg time  |  max time  |%varavg| %total
---------------------------------------------------------------
Pair    | 151.04     | 151.04     | 151.04     |   0.0 | 55.66
Neigh   | 115.86     | 115.86     | 115.86     |   0.0 | 42.69
Comm    | 1.7533     | 1.7533     | 1.7533     |   0.0 |  0.65
Output  | 0.084496   | 0.084496   | 0.084496   |   0.0 |  0.03
Modify  | 2.0328     | 2.0328     | 2.0328     |   0.0 |  0.75
Other   |            | 0.5976     |            |       |  0.22

Nlocal:    19652 ave 19652 max 19652 min
Histogram: 1 0 0 0 0 0 0 0 0 0
Nghost:    19770 ave 19770 max 19770 min
Histogram: 1 0 0 0 0 0 0 0 0 0
Neighs:    1.78981e+06 ave 1.78981e+06 max 1.78981e+06 min
Histogram: 1 0 0 0 0 0 0 0 0 0

Total # of neighbors = 1789810
Ave neighs/atom = 91.0752
Neighbor list builds = 1505
Dangerous builds not checked
Setting up Verlet run ...
  Unit style    : metal
  Current step  : 54000
  Time step     : 0.001
Per MPI rank memory allocation (min/avg/max) = 18.95 | 18.95 | 18.95 Mbytes
Step Temp Press TotEng PotEng Enthalpy 
   54000    2074.7633   -4718.8071   -71631.205   -76901.293     -72356.2 
   54495    2058.8632   -935.94861   -71751.646   -76981.346   -71894.966 
Loop time of 81.1469 on 1 procs for 495 steps with 19652 atoms

Performance: 0.527 ns/day, 45.537 hours/ns, 6.100 timesteps/s
99.2% CPU use with 1 MPI tasks x no OpenMP threads

MPI task timing breakdown:
Section |  min time  |  avg time  |  max time  |%varavg| %total
---------------------------------------------------------------
Pair    | 44.591     | 44.591     | 44.591     |   0.0 | 54.95
Neigh   | 35.214     | 35.214     | 35.214     |   0.0 | 43.39
Comm    | 0.53117    | 0.53117    | 0.53117    |   0.0 |  0.65
Output  | 0.00015903 | 0.00015903 | 0.00015903 |   0.0 |  0.00
Modify  | 0.62606    | 0.62606    | 0.62606    |   0.0 |  0.77
Other   |            | 0.1846     |            |       |  0.23

Nlocal:    19652 ave 19652 max 19652 min
Histogram: 1 0 0 0 0 0 0 0 0 0
Nghost:    19870 ave 19870 max 19870 min
Histogram: 1 0 0 0 0 0 0 0 0 0
Neighs:    1.79556e+06 ave 1.79556e+06 max 1.79556e+06 min
Histogram: 1 0 0 0 0 0 0 0 0 0

Total # of neighbors = 1795557
Ave neighs/atom = 91.3676
Neighbor list builds = 495
Dangerous builds not checked
Setting up Verlet run ...
  Unit style    : metal
  Current step  : 54495
  Time step     : 0.001
Per MPI rank memory allocation (min/avg/max) = 18.95 | 18.95 | 18.95 Mbytes
Step Temp Press TotEng PotEng Enthalpy 
   54495    2058.8632   -935.94861   -71751.646   -76981.346   -71894.966 
   56000    2055.5045     2538.091   -71898.911    -77120.08   -71511.729 
Loop time of 254.487 on 1 procs for 1505 steps with 19652 atoms

Performance: 0.511 ns/day, 46.971 hours/ns, 5.914 timesteps/s
99.2% CPU use with 1 MPI tasks x no OpenMP threads

MPI task timing breakdown:
Section |  min time  |  avg time  |  max time  |%varavg| %total
---------------------------------------------------------------
Pair    | 139.84     | 139.84     | 139.84     |   0.0 | 54.95
Neigh   | 109.73     | 109.73     | 109.73     |   0.0 | 43.12
Comm    | 1.602      | 1.602      | 1.602      |   0.0 |  0.63
Output  | 0.78884    | 0.78884    | 0.78884    |   0.0 |  0.31
Modify  | 1.9478     | 1.9478     | 1.9478     |   0.0 |  0.77
Other   |            | 0.5791     |            |       |  0.23

Nlocal:    19652 ave 19652 max 19652 min
Histogram: 1 0 0 0 0 0 0 0 0 0
Nghost:    19858 ave 19858 max 19858 min
Histogram: 1 0 0 0 0 0 0 0 0 0
Neighs:    1.80243e+06 ave 1.80243e+06 max 1.80243e+06 min
Histogram: 1 0 0 0 0 0 0 0 0 0

Total # of neighbors = 1802430
Ave neighs/atom = 91.7174
Neighbor list builds = 1505
Dangerous builds not checked
Setting up Verlet run ...
  Unit style    : metal
  Current step  : 56000
  Time step     : 0.001
Per MPI rank memory allocation (min/avg/max) = 18.95 | 18.95 | 18.95 Mbytes
Step Temp Press TotEng PotEng Enthalpy 
   56000    2055.5045     2538.091   -71898.911    -77120.08   -71511.729 
   56495    1992.0696   -582.07436    -72124.58   -77184.618   -72213.395 
Loop time of 80.7058 on 1 procs for 495 steps with 19652 atoms

Performance: 0.530 ns/day, 45.289 hours/ns, 6.133 timesteps/s
99.9% CPU use with 1 MPI tasks x no OpenMP threads

MPI task timing breakdown:
Section |  min time  |  avg time  |  max time  |%varavg| %total
---------------------------------------------------------------
Pair    | 44.39      | 44.39      | 44.39      |   0.0 | 55.00
Neigh   | 34.987     | 34.987     | 34.987     |   0.0 | 43.35
Comm    | 0.51736    | 0.51736    | 0.51736    |   0.0 |  0.64
Output  | 0.00011182 | 0.00011182 | 0.00011182 |   0.0 |  0.00
Modify  | 0.62427    | 0.62427    | 0.62427    |   0.0 |  0.77
Other   |            | 0.1874     |            |       |  0.23

Nlocal:    19652 ave 19652 max 19652 min
Histogram: 1 0 0 0 0 0 0 0 0 0
Nghost:    19928 ave 19928 max 19928 min
Histogram: 1 0 0 0 0 0 0 0 0 0
Neighs:    1.80178e+06 ave 1.80178e+06 max 1.80178e+06 min
Histogram: 1 0 0 0 0 0 0 0 0 0

Total # of neighbors = 1801778
Ave neighs/atom = 91.6842
Neighbor list builds = 495
Dangerous builds not checked
Setting up Verlet run ...
  Unit style    : metal
  Current step  : 56495
  Time step     : 0.001
Per MPI rank memory allocation (min/avg/max) = 18.95 | 18.95 | 18.95 Mbytes
Step Temp Press TotEng PotEng Enthalpy 
   56495    1992.0696   -582.07436    -72124.58   -77184.618   -72213.395 
   58000    2017.8397     2876.565   -72125.028   -77250.525   -71687.181 
Loop time of 254.076 on 1 procs for 1505 steps with 19652 atoms

Performance: 0.512 ns/day, 46.895 hours/ns, 5.923 timesteps/s
99.6% CPU use with 1 MPI tasks x no OpenMP threads

MPI task timing breakdown:
Section |  min time  |  avg time  |  max time  |%varavg| %total
---------------------------------------------------------------
Pair    | 139.69     | 139.69     | 139.69     |   0.0 | 54.98
Neigh   | 110.21     | 110.21     | 110.21     |   0.0 | 43.38
Comm    | 1.5986     | 1.5986     | 1.5986     |   0.0 |  0.63
Output  | 0.071756   | 0.071756   | 0.071756   |   0.0 |  0.03
Modify  | 1.9295     | 1.9295     | 1.9295     |   0.0 |  0.76
Other   |            | 0.5763     |            |       |  0.23

Nlocal:    19652 ave 19652 max 19652 min
Histogram: 1 0 0 0 0 0 0 0 0 0
Nghost:    19931 ave 19931 max 19931 min
Histogram: 1 0 0 0 0 0 0 0 0 0
Neighs:    1.80612e+06 ave 1.80612e+06 max 1.80612e+06 min
Histogram: 1 0 0 0 0 0 0 0 0 0

Total # of neighbors = 1806124
Ave neighs/atom = 91.9054
Neighbor list builds = 1505
Dangerous builds not checked
Setting up Verlet run ...
  Unit style    : metal
  Current step  : 58000
  Time step     : 0.001
Per MPI rank memory allocation (min/avg/max) = 18.95 | 18.95 | 18.95 Mbytes
Step Temp Press TotEng PotEng Enthalpy 
   58000    2017.8397     2876.565   -72125.028   -77250.525   -71687.181 
   58495     1954.739    1106.8201   -72449.574   -77414.789   -72281.417 
Loop time of 92.3608 on 1 procs for 495 steps with 19652 atoms

Performance: 0.463 ns/day, 51.830 hours/ns, 5.359 timesteps/s
97.9% CPU use with 1 MPI tasks x no OpenMP threads

MPI task timing breakdown:
Section |  min time  |  avg time  |  max time  |%varavg| %total
---------------------------------------------------------------
Pair    | 51.218     | 51.218     | 51.218     |   0.0 | 55.45
Neigh   | 39.623     | 39.623     | 39.623     |   0.0 | 42.90
Comm    | 0.58579    | 0.58579    | 0.58579    |   0.0 |  0.63
Output  | 0.00012302 | 0.00012302 | 0.00012302 |   0.0 |  0.00
Modify  | 0.723      | 0.723      | 0.723      |   0.0 |  0.78
Other   |            | 0.21       |            |       |  0.23

Nlocal:    19652 ave 19652 max 19652 min
Histogram: 1 0 0 0 0 0 0 0 0 0
Nghost:    19915 ave 19915 max 19915 min
Histogram: 1 0 0 0 0 0 0 0 0 0
Neighs:    1.80864e+06 ave 1.80864e+06 max 1.80864e+06 min
Histogram: 1 0 0 0 0 0 0 0 0 0

Total # of neighbors = 1808637
Ave neighs/atom = 92.0332
Neighbor list builds = 495
Dangerous builds not checked
Setting up Verlet run ...
  Unit style    : metal
  Current step  : 58495
  Time step     : 0.001
Per MPI rank memory allocation (min/avg/max) = 18.95 | 18.95 | 18.95 Mbytes
Step Temp Press TotEng PotEng Enthalpy 
   58495     1954.739    1106.8201   -72449.574   -77414.789   -72281.417 
   60000    1967.8806    3406.3855   -72551.344    -77549.94   -72035.428 
Loop time of 254.747 on 1 procs for 1505 steps with 19652 atoms

Performance: 0.510 ns/day, 47.019 hours/ns, 5.908 timesteps/s
99.7% CPU use with 1 MPI tasks x no OpenMP threads

MPI task timing breakdown:
Section |  min time  |  avg time  |  max time  |%varavg| %total
---------------------------------------------------------------
Pair    | 140.91     | 140.91     | 140.91     |   0.0 | 55.31
Neigh   | 109.62     | 109.62     | 109.62     |   0.0 | 43.03
Comm    | 1.6153     | 1.6153     | 1.6153     |   0.0 |  0.63
Output  | 0.095757   | 0.095757   | 0.095757   |   0.0 |  0.04
Modify  | 1.9334     | 1.9334     | 1.9334     |   0.0 |  0.76
Other   |            | 0.5741     |            |       |  0.23

Nlocal:    19652 ave 19652 max 19652 min
Histogram: 1 0 0 0 0 0 0 0 0 0
Nghost:    19985 ave 19985 max 19985 min
Histogram: 1 0 0 0 0 0 0 0 0 0
Neighs:    1.81451e+06 ave 1.81451e+06 max 1.81451e+06 min
Histogram: 1 0 0 0 0 0 0 0 0 0

Total # of neighbors = 1814506
Ave neighs/atom = 92.3319
Neighbor list builds = 1505
Dangerous builds not checked
Setting up Verlet run ...
  Unit style    : metal
  Current step  : 60000
  Time step     : 0.001
Per MPI rank memory allocation (min/avg/max) = 18.95 | 18.95 | 18.95 Mbytes
Step Temp Press TotEng PotEng Enthalpy 
   60000    1967.8806    3406.3855   -72551.344    -77549.94   -72035.428 
   60495    1902.8315    2808.1068    -72803.56   -77636.926   -72378.764 
Loop time of 78.4318 on 1 procs for 495 steps with 19652 atoms

Performance: 0.545 ns/day, 44.013 hours/ns, 6.311 timesteps/s
99.4% CPU use with 1 MPI tasks x no OpenMP threads

MPI task timing breakdown:
Section |  min time  |  avg time  |  max time  |%varavg| %total
---------------------------------------------------------------
Pair    | 42.638     | 42.638     | 42.638     |   0.0 | 54.36
Neigh   | 34.539     | 34.539     | 34.539     |   0.0 | 44.04
Comm    | 0.47938    | 0.47938    | 0.47938    |   0.0 |  0.61
Output  | 0.00018787 | 0.00018787 | 0.00018787 |   0.0 |  0.00
Modify  | 0.60944    | 0.60944    | 0.60944    |   0.0 |  0.78
Other   |            | 0.1664     |            |       |  0.21

Nlocal:    19652 ave 19652 max 19652 min
Histogram: 1 0 0 0 0 0 0 0 0 0
Nghost:    19971 ave 19971 max 19971 min
Histogram: 1 0 0 0 0 0 0 0 0 0
Neighs:    1.81623e+06 ave 1.81623e+06 max 1.81623e+06 min
Histogram: 1 0 0 0 0 0 0 0 0 0

Total # of neighbors = 1816228
Ave neighs/atom = 92.4195
Neighbor list builds = 495
Dangerous builds not checked
Setting up Verlet run ...
  Unit style    : metal
  Current step  : 60495
  Time step     : 0.001
Per MPI rank memory allocation (min/avg/max) = 18.95 | 18.95 | 18.95 Mbytes
Step Temp Press TotEng PotEng Enthalpy 
   60495    1902.8315    2808.1068    -72803.56   -77636.926   -72378.764 
   62000    1894.3361    1913.3093   -72917.141   -77728.927   -72627.915 
Loop time of 231.647 on 1 procs for 1505 steps with 19652 atoms

Performance: 0.561 ns/day, 42.755 hours/ns, 6.497 timesteps/s
99.7% CPU use with 1 MPI tasks x no OpenMP threads

MPI task timing breakdown:
Section |  min time  |  avg time  |  max time  |%varavg| %total
---------------------------------------------------------------
Pair    | 125.47     | 125.47     | 125.47     |   0.0 | 54.16
Neigh   | 102.47     | 102.47     | 102.47     |   0.0 | 44.23
Comm    | 1.3861     | 1.3861     | 1.3861     |   0.0 |  0.60
Output  | 0.062408   | 0.062408   | 0.062408   |   0.0 |  0.03
Modify  | 1.7729     | 1.7729     | 1.7729     |   0.0 |  0.77
Other   |            | 0.4909     |            |       |  0.21

Nlocal:    19652 ave 19652 max 19652 min
Histogram: 1 0 0 0 0 0 0 0 0 0
Nghost:    19918 ave 19918 max 19918 min
Histogram: 1 0 0 0 0 0 0 0 0 0
Neighs:    1.81734e+06 ave 1.81734e+06 max 1.81734e+06 min
Histogram: 1 0 0 0 0 0 0 0 0 0

Total # of neighbors = 1817343
Ave neighs/atom = 92.4762
Neighbor list builds = 1505
Dangerous builds not checked
Setting up Verlet run ...
  Unit style    : metal
  Current step  : 62000
  Time step     : 0.001
Per MPI rank memory allocation (min/avg/max) = 18.95 | 18.95 | 18.95 Mbytes
Step Temp Press TotEng PotEng Enthalpy 
   62000    1894.3361    1913.3093   -72917.141   -77728.927   -72627.915 
   62495    1869.8148    572.57201   -73160.127   -77909.627   -73073.734 
Loop time of 74.107 on 1 procs for 495 steps with 19652 atoms

Performance: 0.577 ns/day, 41.586 hours/ns, 6.680 timesteps/s
100.0% CPU use with 1 MPI tasks x no OpenMP threads

MPI task timing breakdown:
Section |  min time  |  avg time  |  max time  |%varavg| %total
---------------------------------------------------------------
Pair    | 40.176     | 40.176     | 40.176     |   0.0 | 54.21
Neigh   | 32.746     | 32.746     | 32.746     |   0.0 | 44.19
Comm    | 0.45005    | 0.45005    | 0.45005    |   0.0 |  0.61
Output  | 0.00010681 | 0.00010681 | 0.00010681 |   0.0 |  0.00
Modify  | 0.57515    | 0.57515    | 0.57515    |   0.0 |  0.78
Other   |            | 0.16       |            |       |  0.22

Nlocal:    19652 ave 19652 max 19652 min
Histogram: 1 0 0 0 0 0 0 0 0 0
Nghost:    19940 ave 19940 max 19940 min
Histogram: 1 0 0 0 0 0 0 0 0 0
Neighs:    1.8201e+06 ave 1.8201e+06 max 1.8201e+06 min
Histogram: 1 0 0 0 0 0 0 0 0 0

Total # of neighbors = 1820101
Ave neighs/atom = 92.6166
Neighbor list builds = 495
Dangerous builds not checked
Setting up Verlet run ...
  Unit style    : metal
  Current step  : 62495
  Time step     : 0.001
Per MPI rank memory allocation (min/avg/max) = 18.95 | 18.95 | 18.95 Mbytes
Step Temp Press TotEng PotEng Enthalpy 
   62495    1869.8148    572.57201   -73160.127   -77909.627   -73073.734 
   64000    1869.8051    1608.3051   -73227.813   -77977.289   -72985.539 
Loop time of 232.948 on 1 procs for 1505 steps with 19652 atoms

Performance: 0.558 ns/day, 42.995 hours/ns, 6.461 timesteps/s
99.2% CPU use with 1 MPI tasks x no OpenMP threads

MPI task timing breakdown:
Section |  min time  |  avg time  |  max time  |%varavg| %total
---------------------------------------------------------------
Pair    | 126.19     | 126.19     | 126.19     |   0.0 | 54.17
Neigh   | 103        | 103        | 103        |   0.0 | 44.21
Comm    | 1.3732     | 1.3732     | 1.3732     |   0.0 |  0.59
Output  | 0.091332   | 0.091332   | 0.091332   |   0.0 |  0.04
Modify  | 1.8021     | 1.8021     | 1.8021     |   0.0 |  0.77
Other   |            | 0.4918     |            |       |  0.21

Nlocal:    19652 ave 19652 max 19652 min
Histogram: 1 0 0 0 0 0 0 0 0 0
Nghost:    20002 ave 20002 max 20002 min
Histogram: 1 0 0 0 0 0 0 0 0 0
Neighs:    1.823e+06 ave 1.823e+06 max 1.823e+06 min
Histogram: 1 0 0 0 0 0 0 0 0 0

Total # of neighbors = 1823000
Ave neighs/atom = 92.7641
Neighbor list builds = 1505
Dangerous builds not checked
Setting up Verlet run ...
  Unit style    : metal
  Current step  : 64000
  Time step     : 0.001
Per MPI rank memory allocation (min/avg/max) = 18.95 | 18.95 | 18.95 Mbytes
Step Temp Press TotEng PotEng Enthalpy 
   64000    1869.8051    1608.3051   -73227.813   -77977.289   -72985.539 
   64495    1812.9286   -894.94859   -73492.146    -78097.15   -73626.879 
Loop time of 76.5373 on 1 procs for 495 steps with 19652 atoms

Performance: 0.559 ns/day, 42.950 hours/ns, 6.467 timesteps/s
99.7% CPU use with 1 MPI tasks x no OpenMP threads

MPI task timing breakdown:
Section |  min time  |  avg time  |  max time  |%varavg| %total
---------------------------------------------------------------
Pair    | 41.509     | 41.509     | 41.509     |   0.0 | 54.23
Neigh   | 33.819     | 33.819     | 33.819     |   0.0 | 44.19
Comm    | 0.44802    | 0.44802    | 0.44802    |   0.0 |  0.59
Output  | 0.00016499 | 0.00016499 | 0.00016499 |   0.0 |  0.00
Modify  | 0.5974     | 0.5974     | 0.5974     |   0.0 |  0.78
Other   |            | 0.163      |            |       |  0.21

Nlocal:    19652 ave 19652 max 19652 min
Histogram: 1 0 0 0 0 0 0 0 0 0
Nghost:    20011 ave 20011 max 20011 min
Histogram: 1 0 0 0 0 0 0 0 0 0
Neighs:    1.82336e+06 ave 1.82336e+06 max 1.82336e+06 min
Histogram: 1 0 0 0 0 0 0 0 0 0

Total # of neighbors = 1823362
Ave neighs/atom = 92.7825
Neighbor list builds = 495
Dangerous builds not checked
Setting up Verlet run ...
  Unit style    : metal
  Current step  : 64495
  Time step     : 0.001
Per MPI rank memory allocation (min/avg/max) = 18.95 | 18.95 | 18.95 Mbytes
Step Temp Press TotEng PotEng Enthalpy 
   64495    1812.9286   -894.94859   -73492.146    -78097.15   -73626.879 
   66000    1793.3102    3800.5173   -73671.685   -78226.856   -73101.979 
Loop time of 237.714 on 1 procs for 1505 steps with 19652 atoms

Performance: 0.547 ns/day, 43.875 hours/ns, 6.331 timesteps/s
99.5% CPU use with 1 MPI tasks x no OpenMP threads

MPI task timing breakdown:
Section |  min time  |  avg time  |  max time  |%varavg| %total
---------------------------------------------------------------
Pair    | 130.66     | 130.66     | 130.66     |   0.0 | 54.97
Neigh   | 103.06     | 103.06     | 103.06     |   0.0 | 43.35
Comm    | 1.4648     | 1.4648     | 1.4648     |   0.0 |  0.62
Output  | 0.19435    | 0.19435    | 0.19435    |   0.0 |  0.08
Modify  | 1.804      | 1.804      | 1.804      |   0.0 |  0.76
Other   |            | 0.5314     |            |       |  0.22

Nlocal:    19652 ave 19652 max 19652 min
Histogram: 1 0 0 0 0 0 0 0 0 0
Nghost:    20028 ave 20028 max 20028 min
Histogram: 1 0 0 0 0 0 0 0 0 0
Neighs:    1.83141e+06 ave 1.83141e+06 max 1.83141e+06 min
Histogram: 1 0 0 0 0 0 0 0 0 0

Total # of neighbors = 1831406
Ave neighs/atom = 93.1918
Neighbor list builds = 1505
Dangerous builds not checked
Setting up Verlet run ...
  Unit style    : metal
  Current step  : 66000
  Time step     : 0.001
Per MPI rank memory allocation (min/avg/max) = 18.95 | 18.95 | 18.95 Mbytes
Step Temp Press TotEng PotEng Enthalpy 
   66000    1793.3102    3800.5173   -73671.685   -78226.856   -73101.979 
   66495    1760.5617    1212.8863   -73869.814   -78341.801   -73688.014 
Loop time of 76.4491 on 1 procs for 495 steps with 19652 atoms

Performance: 0.559 ns/day, 42.901 hours/ns, 6.475 timesteps/s
100.0% CPU use with 1 MPI tasks x no OpenMP threads

MPI task timing breakdown:
Section |  min time  |  avg time  |  max time  |%varavg| %total
---------------------------------------------------------------
Pair    | 42.2       | 42.2       | 42.2       |   0.0 | 55.20
Neigh   | 33.004     | 33.004     | 33.004     |   0.0 | 43.17
Comm    | 0.48399    | 0.48399    | 0.48399    |   0.0 |  0.63
Output  | 0.00014114 | 0.00014114 | 0.00014114 |   0.0 |  0.00
Modify  | 0.58549    | 0.58549    | 0.58549    |   0.0 |  0.77
Other   |            | 0.1751     |            |       |  0.23

Nlocal:    19652 ave 19652 max 19652 min
Histogram: 1 0 0 0 0 0 0 0 0 0
Nghost:    20011 ave 20011 max 20011 min
Histogram: 1 0 0 0 0 0 0 0 0 0
Neighs:    1.83155e+06 ave 1.83155e+06 max 1.83155e+06 min
Histogram: 1 0 0 0 0 0 0 0 0 0

Total # of neighbors = 1831552
Ave neighs/atom = 93.1993
Neighbor list builds = 495
Dangerous builds not checked
Setting up Verlet run ...
  Unit style    : metal
  Current step  : 66495
  Time step     : 0.001
Per MPI rank memory allocation (min/avg/max) = 18.95 | 18.95 | 18.95 Mbytes
Step Temp Press TotEng PotEng Enthalpy 
   66495    1760.5617    1212.8863   -73869.814   -78341.801   -73688.014 
   68000    1765.4721    606.58782    -73898.47    -78382.93   -73807.613 
Loop time of 256.515 on 1 procs for 1505 steps with 19652 atoms

Performance: 0.507 ns/day, 47.345 hours/ns, 5.867 timesteps/s
99.2% CPU use with 1 MPI tasks x no OpenMP threads

MPI task timing breakdown:
Section |  min time  |  avg time  |  max time  |%varavg| %total
---------------------------------------------------------------
Pair    | 142.1      | 142.1      | 142.1      |   0.0 | 55.40
Neigh   | 110.18     | 110.18     | 110.18     |   0.0 | 42.95
Comm    | 1.6092     | 1.6092     | 1.6092     |   0.0 |  0.63
Output  | 0.093011   | 0.093011   | 0.093011   |   0.0 |  0.04
Modify  | 1.9542     | 1.9542     | 1.9542     |   0.0 |  0.76
Other   |            | 0.5757     |            |       |  0.22

Nlocal:    19652 ave 19652 max 19652 min
Histogram: 1 0 0 0 0 0 0 0 0 0
Nghost:    20042 ave 20042 max 20042 min
Histogram: 1 0 0 0 0 0 0 0 0 0
Neighs:    1.83256e+06 ave 1.83256e+06 max 1.83256e+06 min
Histogram: 1 0 0 0 0 0 0 0 0 0

Total # of neighbors = 1832563
Ave neighs/atom = 93.2507
Neighbor list builds = 1505
Dangerous builds not checked
Setting up Verlet run ...
  Unit style    : metal
  Current step  : 68000
  Time step     : 0.001
Per MPI rank memory allocation (min/avg/max) = 18.95 | 18.95 | 18.95 Mbytes
Step Temp Press TotEng PotEng Enthalpy 
   68000    1765.4721    606.58782    -73898.47    -78382.93   -73807.613 
   68495      1721.47   -1347.2789   -74198.269   -78570.959   -74399.786 
Loop time of 81.2883 on 1 procs for 495 steps with 19652 atoms

Performance: 0.526 ns/day, 45.616 hours/ns, 6.089 timesteps/s
99.6% CPU use with 1 MPI tasks x no OpenMP threads

MPI task timing breakdown:
Section |  min time  |  avg time  |  max time  |%varavg| %total
---------------------------------------------------------------
Pair    | 44.897     | 44.897     | 44.897     |   0.0 | 55.23
Neigh   | 35.086     | 35.086     | 35.086     |   0.0 | 43.16
Comm    | 0.50386    | 0.50386    | 0.50386    |   0.0 |  0.62
Output  | 0.00011706 | 0.00011706 | 0.00011706 |   0.0 |  0.00
Modify  | 0.61527    | 0.61527    | 0.61527    |   0.0 |  0.76
Other   |            | 0.1859     |            |       |  0.23

Nlocal:    19652 ave 19652 max 19652 min
Histogram: 1 0 0 0 0 0 0 0 0 0
Nghost:    20020 ave 20020 max 20020 min
Histogram: 1 0 0 0 0 0 0 0 0 0
Neighs:    1.8345e+06 ave 1.8345e+06 max 1.8345e+06 min
Histogram: 1 0 0 0 0 0 0 0 0 0

Total # of neighbors = 1834502
Ave neighs/atom = 93.3494
Neighbor list builds = 495
Dangerous builds not checked
Setting up Verlet run ...
  Unit style    : metal
  Current step  : 68495
  Time step     : 0.001
Per MPI rank memory allocation (min/avg/max) = 18.95 | 18.95 | 18.95 Mbytes
Step Temp Press TotEng PotEng Enthalpy 
   68495      1721.47   -1347.2789   -74198.269   -78570.959   -74399.786 
   70000     1704.217    -1882.156   -74263.279   -78592.145   -74544.708 
Loop time of 243.524 on 1 procs for 1505 steps with 19652 atoms

Performance: 0.534 ns/day, 44.947 hours/ns, 6.180 timesteps/s
99.3% CPU use with 1 MPI tasks x no OpenMP threads

MPI task timing breakdown:
Section |  min time  |  avg time  |  max time  |%varavg| %total
---------------------------------------------------------------
Pair    | 134.12     | 134.12     | 134.12     |   0.0 | 55.08
Neigh   | 105.41     | 105.41     | 105.41     |   0.0 | 43.28
Comm    | 1.5129     | 1.5129     | 1.5129     |   0.0 |  0.62
Output  | 0.08385    | 0.08385    | 0.08385    |   0.0 |  0.03
Modify  | 1.8394     | 1.8394     | 1.8394     |   0.0 |  0.76
Other   |            | 0.5573     |            |       |  0.23

Nlocal:    19652 ave 19652 max 19652 min
Histogram: 1 0 0 0 0 0 0 0 0 0
Nghost:    20039 ave 20039 max 20039 min
Histogram: 1 0 0 0 0 0 0 0 0 0
Neighs:    1.83428e+06 ave 1.83428e+06 max 1.83428e+06 min
Histogram: 1 0 0 0 0 0 0 0 0 0

Total # of neighbors = 1834282
Ave neighs/atom = 93.3382
Neighbor list builds = 1505
Dangerous builds not checked
Setting up Verlet run ...
  Unit style    : metal
  Current step  : 70000
  Time step     : 0.001
Per MPI rank memory allocation (min/avg/max) = 18.95 | 18.95 | 18.95 Mbytes
Step Temp Press TotEng PotEng Enthalpy 
   70000     1704.217    -1882.156   -74263.279   -78592.145   -74544.708 
   70495     1664.389    -1602.371    -74540.93    -78768.63   -74779.854 
Loop time of 78.3518 on 1 procs for 495 steps with 19652 atoms

Performance: 0.546 ns/day, 43.968 hours/ns, 6.318 timesteps/s
98.4% CPU use with 1 MPI tasks x no OpenMP threads

MPI task timing breakdown:
Section |  min time  |  avg time  |  max time  |%varavg| %total
---------------------------------------------------------------
Pair    | 43.119     | 43.119     | 43.119     |   0.0 | 55.03
Neigh   | 33.955     | 33.955     | 33.955     |   0.0 | 43.34
Comm    | 0.48577    | 0.48577    | 0.48577    |   0.0 |  0.62
Output  | 0.00016117 | 0.00016117 | 0.00016117 |   0.0 |  0.00
Modify  | 0.61321    | 0.61321    | 0.61321    |   0.0 |  0.78
Other   |            | 0.1783     |            |       |  0.23

Nlocal:    19652 ave 19652 max 19652 min
Histogram: 1 0 0 0 0 0 0 0 0 0
Nghost:    20084 ave 20084 max 20084 min
Histogram: 1 0 0 0 0 0 0 0 0 0
Neighs:    1.83928e+06 ave 1.83928e+06 max 1.83928e+06 min
Histogram: 1 0 0 0 0 0 0 0 0 0

Total # of neighbors = 1839279
Ave neighs/atom = 93.5925
Neighbor list builds = 495
Dangerous builds not checked
Setting up Verlet run ...
  Unit style    : metal
  Current step  : 70495
  Time step     : 0.001
Per MPI rank memory allocation (min/avg/max) = 18.95 | 18.95 | 18.95 Mbytes
Step Temp Press TotEng PotEng Enthalpy 
   70495     1664.389    -1602.371    -74540.93    -78768.63   -74779.854 
   72000    1646.5376   -3057.3774   -74729.302   -78911.658   -75184.772 
Loop time of 236.485 on 1 procs for 1505 steps with 19652 atoms

Performance: 0.550 ns/day, 43.648 hours/ns, 6.364 timesteps/s
99.7% CPU use with 1 MPI tasks x no OpenMP threads

MPI task timing breakdown:
Section |  min time  |  avg time  |  max time  |%varavg| %total
---------------------------------------------------------------
Pair    | 130.16     | 130.16     | 130.16     |   0.0 | 55.04
Neigh   | 102.44     | 102.44     | 102.44     |   0.0 | 43.32
Comm    | 1.4705     | 1.4705     | 1.4705     |   0.0 |  0.62
Output  | 0.076031   | 0.076031   | 0.076031   |   0.0 |  0.03
Modify  | 1.7954     | 1.7954     | 1.7954     |   0.0 |  0.76
Other   |            | 0.5424     |            |       |  0.23

Nlocal:    19652 ave 19652 max 19652 min
Histogram: 1 0 0 0 0 0 0 0 0 0
Nghost:    20077 ave 20077 max 20077 min
Histogram: 1 0 0 0 0 0 0 0 0 0
Neighs:    1.8403e+06 ave 1.8403e+06 max 1.8403e+06 min
Histogram: 1 0 0 0 0 0 0 0 0 0

Total # of neighbors = 1840303
Ave neighs/atom = 93.6446
Neighbor list builds = 1505
Dangerous builds not checked
Setting up Verlet run ...
  Unit style    : metal
  Current step  : 72000
  Time step     : 0.001
Per MPI rank memory allocation (min/avg/max) = 18.95 | 18.95 | 18.95 Mbytes
Step Temp Press TotEng PotEng Enthalpy 
   72000    1646.5376   -3057.3774   -74729.302   -78911.658   -75184.772 
   72495    1609.5555    868.17978   -74883.582       -78972   -74754.705 
Loop time of 79.2051 on 1 procs for 495 steps with 19652 atoms

Performance: 0.540 ns/day, 44.447 hours/ns, 6.250 timesteps/s
99.8% CPU use with 1 MPI tasks x no OpenMP threads

MPI task timing breakdown:
Section |  min time  |  avg time  |  max time  |%varavg| %total
---------------------------------------------------------------
Pair    | 43.437     | 43.437     | 43.437     |   0.0 | 54.84
Neigh   | 34.465     | 34.465     | 34.465     |   0.0 | 43.51
Comm    | 0.49646    | 0.49646    | 0.49646    |   0.0 |  0.63
Output  | 0.00015092 | 0.00015092 | 0.00015092 |   0.0 |  0.00
Modify  | 0.62009    | 0.62009    | 0.62009    |   0.0 |  0.78
Other   |            | 0.1864     |            |       |  0.24

Nlocal:    19652 ave 19652 max 19652 min
Histogram: 1 0 0 0 0 0 0 0 0 0
Nghost:    20065 ave 20065 max 20065 min
Histogram: 1 0 0 0 0 0 0 0 0 0
Neighs:    1.84665e+06 ave 1.84665e+06 max 1.84665e+06 min
Histogram: 1 0 0 0 0 0 0 0 0 0

Total # of neighbors = 1846646
Ave neighs/atom = 93.9673
Neighbor list builds = 495
Dangerous builds not checked
Setting up Verlet run ...
  Unit style    : metal
  Current step  : 72495
  Time step     : 0.001
Per MPI rank memory allocation (min/avg/max) = 18.95 | 18.95 | 18.95 Mbytes
Step Temp Press TotEng PotEng Enthalpy 
   72495    1609.5555    868.17978   -74883.582       -78972   -74754.705 
   74000    1594.2112   -387.47328   -75004.181   -79053.623   -75061.656 
Loop time of 229.77 on 1 procs for 1505 steps with 19652 atoms

Performance: 0.566 ns/day, 42.409 hours/ns, 6.550 timesteps/s
99.5% CPU use with 1 MPI tasks x no OpenMP threads

MPI task timing breakdown:
Section |  min time  |  avg time  |  max time  |%varavg| %total
---------------------------------------------------------------
Pair    | 125.05     | 125.05     | 125.05     |   0.0 | 54.42
Neigh   | 100.21     | 100.21     | 100.21     |   0.0 | 43.61
Comm    | 1.4056     | 1.4056     | 1.4056     |   0.0 |  0.61
Output  | 0.85132    | 0.85132    | 0.85132    |   0.0 |  0.37
Modify  | 1.7431     | 1.7431     | 1.7431     |   0.0 |  0.76
Other   |            | 0.5096     |            |       |  0.22

Nlocal:    19652 ave 19652 max 19652 min
Histogram: 1 0 0 0 0 0 0 0 0 0
Nghost:    20026 ave 20026 max 20026 min
Histogram: 1 0 0 0 0 0 0 0 0 0
Neighs:    1.8481e+06 ave 1.8481e+06 max 1.8481e+06 min
Histogram: 1 0 0 0 0 0 0 0 0 0

Total # of neighbors = 1848104
Ave neighs/atom = 94.0415
Neighbor list builds = 1505
Dangerous builds not checked
Setting up Verlet run ...
  Unit style    : metal
  Current step  : 74000
  Time step     : 0.001
Per MPI rank memory allocation (min/avg/max) = 18.95 | 18.95 | 18.95 Mbytes
Step Temp Press TotEng PotEng Enthalpy 
   74000    1594.2112   -387.47328   -75004.181   -79053.623   -75061.656 
   74495    1572.6326    279.23169   -75235.981   -79230.611   -75194.671 
Loop time of 74.4709 on 1 procs for 495 steps with 19652 atoms

Performance: 0.574 ns/day, 41.791 hours/ns, 6.647 timesteps/s
99.9% CPU use with 1 MPI tasks x no OpenMP threads

MPI task timing breakdown:
Section |  min time  |  avg time  |  max time  |%varavg| %total
---------------------------------------------------------------
Pair    | 40.767     | 40.767     | 40.767     |   0.0 | 54.74
Neigh   | 32.52      | 32.52      | 32.52      |   0.0 | 43.67
Comm    | 0.45216    | 0.45216    | 0.45216    |   0.0 |  0.61
Output  | 0.00015187 | 0.00015187 | 0.00015187 |   0.0 |  0.00
Modify  | 0.57478    | 0.57478    | 0.57478    |   0.0 |  0.77
Other   |            | 0.1568     |            |       |  0.21

Nlocal:    19652 ave 19652 max 19652 min
Histogram: 1 0 0 0 0 0 0 0 0 0
Nghost:    20146 ave 20146 max 20146 min
Histogram: 1 0 0 0 0 0 0 0 0 0
Neighs:    1.85207e+06 ave 1.85207e+06 max 1.85207e+06 min
Histogram: 1 0 0 0 0 0 0 0 0 0

Total # of neighbors = 1852066
Ave neighs/atom = 94.2431
Neighbor list builds = 495
Dangerous builds not checked
Setting up Verlet run ...
  Unit style    : metal
  Current step  : 74495
  Time step     : 0.001
Per MPI rank memory allocation (min/avg/max) = 18.95 | 18.95 | 18.95 Mbytes
Step Temp Press TotEng PotEng Enthalpy 
   74495    1572.6326    279.23169   -75235.981   -79230.611   -75194.671 
   76000    1556.7416   -841.90837   -75290.699   -79244.965   -75415.274 
Loop time of 234.049 on 1 procs for 1505 steps with 19652 atoms

Performance: 0.556 ns/day, 43.198 hours/ns, 6.430 timesteps/s
99.7% CPU use with 1 MPI tasks x no OpenMP threads

MPI task timing breakdown:
Section |  min time  |  avg time  |  max time  |%varavg| %total
---------------------------------------------------------------
Pair    | 128.17     | 128.17     | 128.17     |   0.0 | 54.76
Neigh   | 102.02     | 102.02     | 102.02     |   0.0 | 43.59
Comm    | 1.4459     | 1.4459     | 1.4459     |   0.0 |  0.62
Output  | 0.087972   | 0.087972   | 0.087972   |   0.0 |  0.04
Modify  | 1.7903     | 1.7903     | 1.7903     |   0.0 |  0.76
Other   |            | 0.5297     |            |       |  0.23

Nlocal:    19652 ave 19652 max 19652 min
Histogram: 1 0 0 0 0 0 0 0 0 0
Nghost:    20115 ave 20115 max 20115 min
Histogram: 1 0 0 0 0 0 0 0 0 0
Neighs:    1.853e+06 ave 1.853e+06 max 1.853e+06 min
Histogram: 1 0 0 0 0 0 0 0 0 0

Total # of neighbors = 1853003
Ave neighs/atom = 94.2908
Neighbor list builds = 1505
Dangerous builds not checked
Setting up Verlet run ...
  Unit style    : metal
  Current step  : 76000
  Time step     : 0.001
Per MPI rank memory allocation (min/avg/max) = 18.95 | 18.95 | 18.95 Mbytes
Step Temp Press TotEng PotEng Enthalpy 
   76000    1556.7416   -841.90837   -75290.699   -79244.965   -75415.274 
   76495    1511.5642    1616.2768   -75578.141   -79417.652   -75339.807 
Loop time of 75.8346 on 1 procs for 495 steps with 19652 atoms

Performance: 0.564 ns/day, 42.556 hours/ns, 6.527 timesteps/s
99.9% CPU use with 1 MPI tasks x no OpenMP threads

MPI task timing breakdown:
Section |  min time  |  avg time  |  max time  |%varavg| %total
---------------------------------------------------------------
Pair    | 41.565     | 41.565     | 41.565     |   0.0 | 54.81
Neigh   | 33.033     | 33.033     | 33.033     |   0.0 | 43.56
Comm    | 0.47146    | 0.47146    | 0.47146    |   0.0 |  0.62
Output  | 0.00012994 | 0.00012994 | 0.00012994 |   0.0 |  0.00
Modify  | 0.58417    | 0.58417    | 0.58417    |   0.0 |  0.77
Other   |            | 0.1804     |            |       |  0.24

Nlocal:    19652 ave 19652 max 19652 min
Histogram: 1 0 0 0 0 0 0 0 0 0
Nghost:    20138 ave 20138 max 20138 min
Histogram: 1 0 0 0 0 0 0 0 0 0
Neighs:    1.85816e+06 ave 1.85816e+06 max 1.85816e+06 min
Histogram: 1 0 0 0 0 0 0 0 0 0

Total # of neighbors = 1858158
Ave neighs/atom = 94.5531
Neighbor list builds = 495
Dangerous builds not checked
Setting up Verlet run ...
  Unit style    : metal
  Current step  : 76495
  Time step     : 0.001
Per MPI rank memory allocation (min/avg/max) = 18.95 | 18.95 | 18.95 Mbytes
Step Temp Press TotEng PotEng Enthalpy 
   76495    1511.5642    1616.2768   -75578.141   -79417.652   -75339.807 
   78000    1488.3275   -3140.9862   -75736.797   -79517.284   -76200.288 
Loop time of 259.031 on 1 procs for 1505 steps with 19652 atoms

Performance: 0.502 ns/day, 47.809 hours/ns, 5.810 timesteps/s
99.1% CPU use with 1 MPI tasks x no OpenMP threads

MPI task timing breakdown:
Section |  min time  |  avg time  |  max time  |%varavg| %total
---------------------------------------------------------------
Pair    | 143.23     | 143.23     | 143.23     |   0.0 | 55.29
Neigh   | 111.4      | 111.4      | 111.4      |   0.0 | 43.01
Comm    | 1.6006     | 1.6006     | 1.6006     |   0.0 |  0.62
Output  | 0.1983     | 0.1983     | 0.1983     |   0.0 |  0.08
Modify  | 1.9949     | 1.9949     | 1.9949     |   0.0 |  0.77
Other   |            | 0.6084     |            |       |  0.23

Nlocal:    19652 ave 19652 max 19652 min
Histogram: 1 0 0 0 0 0 0 0 0 0
Nghost:    20143 ave 20143 max 20143 min
Histogram: 1 0 0 0 0 0 0 0 0 0
Neighs:    1.8563e+06 ave 1.8563e+06 max 1.8563e+06 min
Histogram: 1 0 0 0 0 0 0 0 0 0

Total # of neighbors = 1856305
Ave neighs/atom = 94.4588
Neighbor list builds = 1505
Dangerous builds not checked
Setting up Verlet run ...
  Unit style    : metal
  Current step  : 78000
  Time step     : 0.001
Per MPI rank memory allocation (min/avg/max) = 18.95 | 18.95 | 18.95 Mbytes
Step Temp Press TotEng PotEng Enthalpy 
   78000    1488.3275   -3140.9862   -75736.797   -79517.284   -76200.288 
   78495    1468.6906    2189.1824   -75954.019   -79684.627   -75632.614 
Loop time of 78.2925 on 1 procs for 495 steps with 19652 atoms

Performance: 0.546 ns/day, 43.935 hours/ns, 6.322 timesteps/s
98.8% CPU use with 1 MPI tasks x no OpenMP threads

MPI task timing breakdown:
Section |  min time  |  avg time  |  max time  |%varavg| %total
---------------------------------------------------------------
Pair    | 42.982     | 42.982     | 42.982     |   0.0 | 54.90
Neigh   | 34.037     | 34.037     | 34.037     |   0.0 | 43.47
Comm    | 0.48978    | 0.48978    | 0.48978    |   0.0 |  0.63
Output  | 0.000139   | 0.000139   | 0.000139   |   0.0 |  0.00
Modify  | 0.60652    | 0.60652    | 0.60652    |   0.0 |  0.77
Other   |            | 0.1773     |            |       |  0.23

Nlocal:    19652 ave 19652 max 19652 min
Histogram: 1 0 0 0 0 0 0 0 0 0
Nghost:    20202 ave 20202 max 20202 min
Histogram: 1 0 0 0 0 0 0 0 0 0
Neighs:    1.86551e+06 ave 1.86551e+06 max 1.86551e+06 min
Histogram: 1 0 0 0 0 0 0 0 0 0

Total # of neighbors = 1865514
Ave neighs/atom = 94.9274
Neighbor list builds = 495
Dangerous builds not checked
Setting up Verlet run ...
  Unit style    : metal
  Current step  : 78495
  Time step     : 0.001
Per MPI rank memory allocation (min/avg/max) = 18.95 | 18.95 | 18.95 Mbytes
Step Temp Press TotEng PotEng Enthalpy 
   78495    1468.6906    2189.1824   -75954.019   -79684.627   -75632.614 
   80000    1443.3459   -1266.1212   -76127.842   -79794.072   -76313.794 
Loop time of 220.494 on 1 procs for 1505 steps with 19652 atoms

Performance: 0.590 ns/day, 40.697 hours/ns, 6.826 timesteps/s
99.4% CPU use with 1 MPI tasks x no OpenMP threads

MPI task timing breakdown:
Section |  min time  |  avg time  |  max time  |%varavg| %total
---------------------------------------------------------------
Pair    | 119.4      | 119.4      | 119.4      |   0.0 | 54.15
Neigh   | 96.83      | 96.83      | 96.83      |   0.0 | 43.91
Comm    | 1.2976     | 1.2976     | 1.2976     |   0.0 |  0.59
Output  | 0.81994    | 0.81994    | 0.81994    |   0.0 |  0.37
Modify  | 1.6872     | 1.6872     | 1.6872     |   0.0 |  0.77
Other   |            | 0.4633     |            |       |  0.21

Nlocal:    19652 ave 19652 max 19652 min
Histogram: 1 0 0 0 0 0 0 0 0 0
Nghost:    20171 ave 20171 max 20171 min
Histogram: 1 0 0 0 0 0 0 0 0 0
Neighs:    1.86488e+06 ave 1.86488e+06 max 1.86488e+06 min
Histogram: 1 0 0 0 0 0 0 0 0 0

Total # of neighbors = 1864878
Ave neighs/atom = 94.8951
Neighbor list builds = 1505
Dangerous builds not checked
Setting up Verlet run ...
  Unit style    : metal
  Current step  : 80000
  Time step     : 0.001
Per MPI rank memory allocation (min/avg/max) = 18.95 | 18.95 | 18.95 Mbytes
Step Temp Press TotEng PotEng Enthalpy 
   80000    1443.3459   -1266.1212   -76127.842   -79794.072   -76313.794 
   80495    1421.3728    1280.6796   -76255.245   -79865.662   -76067.682 
Loop time of 75.7885 on 1 procs for 495 steps with 19652 atoms

Performance: 0.564 ns/day, 42.530 hours/ns, 6.531 timesteps/s
99.8% CPU use with 1 MPI tasks x no OpenMP threads

MPI task timing breakdown:
Section |  min time  |  avg time  |  max time  |%varavg| %total
---------------------------------------------------------------
Pair    | 41.226     | 41.226     | 41.226     |   0.0 | 54.40
Neigh   | 33.366     | 33.366     | 33.366     |   0.0 | 44.02
Comm    | 0.44256    | 0.44256    | 0.44256    |   0.0 |  0.58
Output  | 0.000144   | 0.000144   | 0.000144   |   0.0 |  0.00
Modify  | 0.59375    | 0.59375    | 0.59375    |   0.0 |  0.78
Other   |            | 0.1608     |            |       |  0.21

Nlocal:    19652 ave 19652 max 19652 min
Histogram: 1 0 0 0 0 0 0 0 0 0
Nghost:    20155 ave 20155 max 20155 min
Histogram: 1 0 0 0 0 0 0 0 0 0
Neighs:    1.86998e+06 ave 1.86998e+06 max 1.86998e+06 min
Histogram: 1 0 0 0 0 0 0 0 0 0

Total # of neighbors = 1869975
Ave neighs/atom = 95.1544
Neighbor list builds = 495
Dangerous builds not checked
Setting up Verlet run ...
  Unit style    : metal
  Current step  : 80495
  Time step     : 0.001
Per MPI rank memory allocation (min/avg/max) = 18.95 | 18.95 | 18.95 Mbytes
Step Temp Press TotEng PotEng Enthalpy 
   80495    1421.3728    1280.6796   -76255.245   -79865.662   -76067.682 
   82000     1392.826   -3228.5517    -76433.34   -79971.245   -76906.638 
Loop time of 221.763 on 1 procs for 1505 steps with 19652 atoms

Performance: 0.586 ns/day, 40.931 hours/ns, 6.787 timesteps/s
99.4% CPU use with 1 MPI tasks x no OpenMP threads

MPI task timing breakdown:
Section |  min time  |  avg time  |  max time  |%varavg| %total
---------------------------------------------------------------
Pair    | 120.52     | 120.52     | 120.52     |   0.0 | 54.35
Neigh   | 97.637     | 97.637     | 97.637     |   0.0 | 44.03
Comm    | 1.3178     | 1.3178     | 1.3178     |   0.0 |  0.59
Output  | 0.12267    | 0.12267    | 0.12267    |   0.0 |  0.06
Modify  | 1.7016     | 1.7016     | 1.7016     |   0.0 |  0.77
Other   |            | 0.4636     |            |       |  0.21

Nlocal:    19652 ave 19652 max 19652 min
Histogram: 1 0 0 0 0 0 0 0 0 0
Nghost:    20165 ave 20165 max 20165 min
Histogram: 1 0 0 0 0 0 0 0 0 0
Neighs:    1.86726e+06 ave 1.86726e+06 max 1.86726e+06 min
Histogram: 1 0 0 0 0 0 0 0 0 0

Total # of neighbors = 1867261
Ave neighs/atom = 95.0163
Neighbor list builds = 1505
Dangerous builds not checked
Setting up Verlet run ...
  Unit style    : metal
  Current step  : 82000
  Time step     : 0.001
Per MPI rank memory allocation (min/avg/max) = 18.95 | 18.95 | 18.95 Mbytes
Step Temp Press TotEng PotEng Enthalpy 
   82000     1392.826   -3228.5517    -76433.34   -79971.245   -76906.638 
   82495    1363.2933    2753.2352   -76643.361    -80106.25   -76241.718 
Loop time of 72.0416 on 1 procs for 495 steps with 19652 atoms

Performance: 0.594 ns/day, 40.427 hours/ns, 6.871 timesteps/s
99.8% CPU use with 1 MPI tasks x no OpenMP threads

MPI task timing breakdown:
Section |  min time  |  avg time  |  max time  |%varavg| %total
---------------------------------------------------------------
Pair    | 39.123     | 39.123     | 39.123     |   0.0 | 54.31
Neigh   | 31.792     | 31.792     | 31.792     |   0.0 | 44.13
Comm    | 0.41908    | 0.41908    | 0.41908    |   0.0 |  0.58
Output  | 0.000108   | 0.000108   | 0.000108   |   0.0 |  0.00
Modify  | 0.55608    | 0.55608    | 0.55608    |   0.0 |  0.77
Other   |            | 0.1515     |            |       |  0.21

Nlocal:    19652 ave 19652 max 19652 min
Histogram: 1 0 0 0 0 0 0 0 0 0
Nghost:    20247 ave 20247 max 20247 min
Histogram: 1 0 0 0 0 0 0 0 0 0
Neighs:    1.87689e+06 ave 1.87689e+06 max 1.87689e+06 min
Histogram: 1 0 0 0 0 0 0 0 0 0

Total # of neighbors = 1876888
Ave neighs/atom = 95.5062
Neighbor list builds = 495
Dangerous builds not checked
Setting up Verlet run ...
  Unit style    : metal
  Current step  : 82495
  Time step     : 0.001
Per MPI rank memory allocation (min/avg/max) = 18.95 | 18.95 | 18.95 Mbytes
Step Temp Press TotEng PotEng Enthalpy 
   82495    1363.2933    2753.2352   -76643.361    -80106.25   -76241.718 
   84000    1351.0967   -2778.3537   -76785.913   -80217.822   -77191.662 
Loop time of 220.792 on 1 procs for 1505 steps with 19652 atoms

Performance: 0.589 ns/day, 40.752 hours/ns, 6.816 timesteps/s
99.7% CPU use with 1 MPI tasks x no OpenMP threads

MPI task timing breakdown:
Section |  min time  |  avg time  |  max time  |%varavg| %total
---------------------------------------------------------------
Pair    | 120.06     | 120.06     | 120.06     |   0.0 | 54.38
Neigh   | 97.029     | 97.029     | 97.029     |   0.0 | 43.95
Comm    | 1.2954     | 1.2954     | 1.2954     |   0.0 |  0.59
Output  | 0.25746    | 0.25746    | 0.25746    |   0.0 |  0.12
Modify  | 1.6848     | 1.6848     | 1.6848     |   0.0 |  0.76
Other   |            | 0.4639     |            |       |  0.21

Nlocal:    19652 ave 19652 max 19652 min
Histogram: 1 0 0 0 0 0 0 0 0 0
Nghost:    20204 ave 20204 max 20204 min
Histogram: 1 0 0 0 0 0 0 0 0 0
Neighs:    1.87332e+06 ave 1.87332e+06 max 1.87332e+06 min
Histogram: 1 0 0 0 0 0 0 0 0 0

Total # of neighbors = 1873322
Ave neighs/atom = 95.3248
Neighbor list builds = 1505
Dangerous builds not checked
Setting up Verlet run ...
  Unit style    : metal
  Current step  : 84000
  Time step     : 0.001
Per MPI rank memory allocation (min/avg/max) = 18.95 | 18.95 | 18.95 Mbytes
Step Temp Press TotEng PotEng Enthalpy 
   84000    1351.0967   -2778.3537   -76785.913   -80217.822   -77191.662 
   84495    1322.8121    171.15721   -76998.212   -80358.275   -76973.307 
Loop time of 82.0593 on 1 procs for 495 steps with 19652 atoms

Performance: 0.521 ns/day, 46.049 hours/ns, 6.032 timesteps/s
99.4% CPU use with 1 MPI tasks x no OpenMP threads

MPI task timing breakdown:
Section |  min time  |  avg time  |  max time  |%varavg| %total
---------------------------------------------------------------
Pair    | 45.299     | 45.299     | 45.299     |   0.0 | 55.20
Neigh   | 35.456     | 35.456     | 35.456     |   0.0 | 43.21
Comm    | 0.49165    | 0.49165    | 0.49165    |   0.0 |  0.60
Output  | 0.00018001 | 0.00018001 | 0.00018001 |   0.0 |  0.00
Modify  | 0.64145    | 0.64145    | 0.64145    |   0.0 |  0.78
Other   |            | 0.1711     |            |       |  0.21

Nlocal:    19652 ave 19652 max 19652 min
Histogram: 1 0 0 0 0 0 0 0 0 0
Nghost:    20282 ave 20282 max 20282 min
Histogram: 1 0 0 0 0 0 0 0 0 0
Neighs:    1.88007e+06 ave 1.88007e+06 max 1.88007e+06 min
Histogram: 1 0 0 0 0 0 0 0 0 0

Total # of neighbors = 1880068
Ave neighs/atom = 95.668
Neighbor list builds = 495
Dangerous builds not checked
Setting up Verlet run ...
  Unit style    : metal
  Current step  : 84495
  Time step     : 0.001
Per MPI rank memory allocation (min/avg/max) = 18.95 | 18.95 | 18.95 Mbytes
Step Temp Press TotEng PotEng Enthalpy 
   84495    1322.8121    171.15721   -76998.212   -80358.275   -76973.307 
   86000    1310.6558   -1662.8953   -77141.504   -80470.689   -77383.346 
Loop time of 268.215 on 1 procs for 1505 steps with 19652 atoms

Performance: 0.485 ns/day, 49.504 hours/ns, 5.611 timesteps/s
99.1% CPU use with 1 MPI tasks x no OpenMP threads

MPI task timing breakdown:
Section |  min time  |  avg time  |  max time  |%varavg| %total
---------------------------------------------------------------
Pair    | 149.43     | 149.43     | 149.43     |   0.0 | 55.71
Neigh   | 113.06     | 113.06     | 113.06     |   0.0 | 42.15
Comm    | 1.6407     | 1.6407     | 1.6407     |   0.0 |  0.61
Output  | 1.4612     | 1.4612     | 1.4612     |   0.0 |  0.54
Modify  | 2.0644     | 2.0644     | 2.0644     |   0.0 |  0.77
Other   |            | 0.5581     |            |       |  0.21

Nlocal:    19652 ave 19652 max 19652 min
Histogram: 1 0 0 0 0 0 0 0 0 0
Nghost:    20278 ave 20278 max 20278 min
Histogram: 1 0 0 0 0 0 0 0 0 0
Neighs:    1.88062e+06 ave 1.88062e+06 max 1.88062e+06 min
Histogram: 1 0 0 0 0 0 0 0 0 0

Total # of neighbors = 1880624
Ave neighs/atom = 95.6963
Neighbor list builds = 1505
Dangerous builds not checked
Setting up Verlet run ...
  Unit style    : metal
  Current step  : 86000
  Time step     : 0.001
Per MPI rank memory allocation (min/avg/max) = 18.95 | 18.95 | 18.95 Mbytes
Step Temp Press TotEng PotEng Enthalpy 
   86000    1310.6558   -1662.8953   -77141.504   -80470.689   -77383.346 
   86495    1270.9111     716.5544   -77348.036   -80576.266   -77244.132 
Loop time of 90.0521 on 1 procs for 495 steps with 19652 atoms

Performance: 0.475 ns/day, 50.534 hours/ns, 5.497 timesteps/s
99.3% CPU use with 1 MPI tasks x no OpenMP threads

MPI task timing breakdown:
Section |  min time  |  avg time  |  max time  |%varavg| %total
---------------------------------------------------------------
Pair    | 50.431     | 50.431     | 50.431     |   0.0 | 56.00
Neigh   | 38.179     | 38.179     | 38.179     |   0.0 | 42.40
Comm    | 0.55027    | 0.55027    | 0.55027    |   0.0 |  0.61
Output  | 0.000175   | 0.000175   | 0.000175   |   0.0 |  0.00
Modify  | 0.70593    | 0.70593    | 0.70593    |   0.0 |  0.78
Other   |            | 0.1854     |            |       |  0.21

Nlocal:    19652 ave 19652 max 19652 min
Histogram: 1 0 0 0 0 0 0 0 0 0
Nghost:    20239 ave 20239 max 20239 min
Histogram: 1 0 0 0 0 0 0 0 0 0
Neighs:    1.88557e+06 ave 1.88557e+06 max 1.88557e+06 min
Histogram: 1 0 0 0 0 0 0 0 0 0

Total # of neighbors = 1885570
Ave neighs/atom = 95.948
Neighbor list builds = 495
Dangerous builds not checked
Setting up Verlet run ...
  Unit style    : metal
  Current step  : 86495
  Time step     : 0.001
Per MPI rank memory allocation (min/avg/max) = 18.95 | 18.95 | 18.95 Mbytes
Step Temp Press TotEng PotEng Enthalpy 
   86495    1270.9111     716.5544   -77348.036   -80576.266   -77244.132 
   88000    1249.6107    -865.2819   -77527.213   -80701.338   -77652.577 
Loop time of 289.616 on 1 procs for 1505 steps with 19652 atoms

Performance: 0.449 ns/day, 53.454 hours/ns, 5.197 timesteps/s
99.0% CPU use with 1 MPI tasks x no OpenMP threads

MPI task timing breakdown:
Section |  min time  |  avg time  |  max time  |%varavg| %total
---------------------------------------------------------------
Pair    | 154.51     | 154.51     | 154.51     |   0.0 | 53.35
Neigh   | 130.55     | 130.55     | 130.55     |   0.0 | 45.08
Comm    | 1.7159     | 1.7159     | 1.7159     |   0.0 |  0.59
Output  | 0.11775    | 0.11775    | 0.11775    |   0.0 |  0.04
Modify  | 2.1312     | 2.1312     | 2.1312     |   0.0 |  0.74
Other   |            | 0.5835     |            |       |  0.20

Nlocal:    19652 ave 19652 max 19652 min
Histogram: 1 0 0 0 0 0 0 0 0 0
Nghost:    20257 ave 20257 max 20257 min
Histogram: 1 0 0 0 0 0 0 0 0 0
Neighs:    1.8873e+06 ave 1.8873e+06 max 1.8873e+06 min
Histogram: 1 0 0 0 0 0 0 0 0 0

Total # of neighbors = 1887297
Ave neighs/atom = 96.0359
Neighbor list builds = 1505
Dangerous builds not checked
Setting up Verlet run ...
  Unit style    : metal
  Current step  : 88000
  Time step     : 0.001
Per MPI rank memory allocation (min/avg/max) = 18.95 | 18.95 | 18.95 Mbytes
Step Temp Press TotEng PotEng Enthalpy 
   88000    1249.6107    -865.2819   -77527.213   -80701.338   -77652.577 
   88495    1212.8937     1013.704   -77742.508   -80823.368    -77596.04 
Loop time of 100.215 on 1 procs for 495 steps with 19652 atoms

Performance: 0.427 ns/day, 56.237 hours/ns, 4.939 timesteps/s
99.4% CPU use with 1 MPI tasks x no OpenMP threads

MPI task timing breakdown:
Section |  min time  |  avg time  |  max time  |%varavg| %total
---------------------------------------------------------------
Pair    | 53.871     | 53.871     | 53.871     |   0.0 | 53.75
Neigh   | 44.778     | 44.778     | 44.778     |   0.0 | 44.68
Comm    | 0.59518    | 0.59518    | 0.59518    |   0.0 |  0.59
Output  | 0.00020099 | 0.00020099 | 0.00020099 |   0.0 |  0.00
Modify  | 0.76998    | 0.76998    | 0.76998    |   0.0 |  0.77
Other   |            | 0.2008     |            |       |  0.20

Nlocal:    19652 ave 19652 max 19652 min
Histogram: 1 0 0 0 0 0 0 0 0 0
Nghost:    20310 ave 20310 max 20310 min
Histogram: 1 0 0 0 0 0 0 0 0 0
Neighs:    1.89164e+06 ave 1.89164e+06 max 1.89164e+06 min
Histogram: 1 0 0 0 0 0 0 0 0 0

Total # of neighbors = 1891638
Ave neighs/atom = 96.2568
Neighbor list builds = 495
Dangerous builds not checked
Setting up Verlet run ...
  Unit style    : metal
  Current step  : 88495
  Time step     : 0.001
Per MPI rank memory allocation (min/avg/max) = 18.95 | 18.95 | 18.95 Mbytes
Step Temp Press TotEng PotEng Enthalpy 
   88495    1212.8937     1013.704   -77742.508   -80823.368    -77596.04 
   90000    1198.2833    2596.6754    -77890.54   -80934.289   -77516.313 
Loop time of 307.164 on 1 procs for 1505 steps with 19652 atoms

Performance: 0.423 ns/day, 56.693 hours/ns, 4.900 timesteps/s
99.4% CPU use with 1 MPI tasks x no OpenMP threads

MPI task timing breakdown:
Section |  min time  |  avg time  |  max time  |%varavg| %total
---------------------------------------------------------------
Pair    | 164.59     | 164.59     | 164.59     |   0.0 | 53.59
Neigh   | 137.76     | 137.76     | 137.76     |   0.0 | 44.85
Comm    | 1.8258     | 1.8258     | 1.8258     |   0.0 |  0.59
Output  | 0.10083    | 0.10083    | 0.10083    |   0.0 |  0.03
Modify  | 2.2528     | 2.2528     | 2.2528     |   0.0 |  0.73
Other   |            | 0.6263     |            |       |  0.20

Nlocal:    19652 ave 19652 max 19652 min
Histogram: 1 0 0 0 0 0 0 0 0 0
Nghost:    20323 ave 20323 max 20323 min
Histogram: 1 0 0 0 0 0 0 0 0 0
Neighs:    1.8961e+06 ave 1.8961e+06 max 1.8961e+06 min
Histogram: 1 0 0 0 0 0 0 0 0 0

Total # of neighbors = 1896100
Ave neighs/atom = 96.4838
Neighbor list builds = 1505
Dangerous builds not checked
Setting up Verlet run ...
  Unit style    : metal
  Current step  : 90000
  Time step     : 0.001
Per MPI rank memory allocation (min/avg/max) = 18.95 | 18.95 | 18.95 Mbytes
Step Temp Press TotEng PotEng Enthalpy 
   90000    1198.2833    2596.6754    -77890.54   -80934.289   -77516.313 
   90495    1161.6014    -1425.281   -78082.183   -81032.757   -78287.742 
Loop time of 107.357 on 1 procs for 495 steps with 19652 atoms

Performance: 0.398 ns/day, 60.245 hours/ns, 4.611 timesteps/s
98.8% CPU use with 1 MPI tasks x no OpenMP threads

MPI task timing breakdown:
Section |  min time  |  avg time  |  max time  |%varavg| %total
---------------------------------------------------------------
Pair    | 58.404     | 58.404     | 58.404     |   0.0 | 54.40
Neigh   | 47.22      | 47.22      | 47.22      |   0.0 | 43.98
Comm    | 0.66799    | 0.66799    | 0.66799    |   0.0 |  0.62
Output  | 0.00016117 | 0.00016117 | 0.00016117 |   0.0 |  0.00
Modify  | 0.84719    | 0.84719    | 0.84719    |   0.0 |  0.79
Other   |            | 0.2166     |            |       |  0.20

Nlocal:    19652 ave 19652 max 19652 min
[...]
Setting up Verlet run ...
  Unit style    : metal
  Current step  : 120000
  Time step     : 0.001
Per MPI rank memory allocation (min/avg/max) = 19.34 | 19.34 | 19.34 Mbytes
Step Temp Press TotEng PotEng Enthalpy 
  120000    451.06464   -1940.0893   -82655.679   -83801.424   -82924.829 
  120495    421.48439    295.09705   -82819.798   -83890.407   -82778.951 
Loop time of 100.364 on 1 procs for 495 steps with 19652 atoms

Performance: 0.426 ns/day, 56.321 hours/ns, 4.932 timesteps/s
99.6% CPU use with 1 MPI tasks x no OpenMP threads

MPI task timing breakdown:
Section |  min time  |  avg time  |  max time  |%varavg| %total
---------------------------------------------------------------
Pair    | 54.545     | 54.545     | 54.545     |   0.0 | 54.35
Neigh   | 44.298     | 44.298     | 44.298     |   0.0 | 44.14
Comm    | 0.59451    | 0.59451    | 0.59451    |   0.0 |  0.59
Output  | 0.00020313 | 0.00020313 | 0.00020313 |   0.0 |  0.00
Modify  | 0.72224    | 0.72224    | 0.72224    |   0.0 |  0.72
Other   |            | 0.2043     |            |       |  0.20

Nlocal:    19652 ave 19652 max 19652 min
Histogram: 1 0 0 0 0 0 0 0 0 0
Nghost:    20679 ave 20679 max 20679 min
Histogram: 1 0 0 0 0 0 0 0 0 0
Neighs:    1.97234e+06 ave 1.97234e+06 max 1.97234e+06 min
Histogram: 1 0 0 0 0 0 0 0 0 0

Total # of neighbors = 1972340
Ave neighs/atom = 100.363
Neighbor list builds = 495
Dangerous builds not checked
Setting up Verlet run ...
  Unit style    : metal
  Current step  : 120495
  Time step     : 0.001
Per MPI rank memory allocation (min/avg/max) = 19.34 | 19.34 | 19.34 Mbytes
Step Temp Press TotEng PotEng Enthalpy 
  120495    421.48439    295.09705   -82819.798   -83890.407   -82778.951 
  122000    401.37548     2071.876   -82928.711   -83948.242   -82642.379 
Loop time of 315.922 on 1 procs for 1505 steps with 19652 atoms

Performance: 0.412 ns/day, 58.310 hours/ns, 4.764 timesteps/s
99.8% CPU use with 1 MPI tasks x no OpenMP threads

MPI task timing breakdown:
Section |  min time  |  avg time  |  max time  |%varavg| %total
---------------------------------------------------------------
Pair    | 172.89     | 172.89     | 172.89     |   0.0 | 54.73
Neigh   | 137.8      | 137.8      | 137.8      |   0.0 | 43.62
Comm    | 1.9883     | 1.9883     | 1.9883     |   0.0 |  0.63
Output  | 0.075768   | 0.075768   | 0.075768   |   0.0 |  0.02
Modify  | 2.4872     | 2.4872     | 2.4872     |   0.0 |  0.79
Other   |            | 0.6721     |            |       |  0.21

Nlocal:    19652 ave 19652 max 19652 min
Histogram: 1 0 0 0 0 0 0 0 0 0
Nghost:    20699 ave 20699 max 20699 min
Histogram: 1 0 0 0 0 0 0 0 0 0
Neighs:    1.97559e+06 ave 1.97559e+06 max 1.97559e+06 min
Histogram: 1 0 0 0 0 0 0 0 0 0

Total # of neighbors = 1975591
Ave neighs/atom = 100.529
Neighbor list builds = 1505
Dangerous builds not checked
Setting up Verlet run ...
  Unit style    : metal
  Current step  : 122000
  Time step     : 0.001
Per MPI rank memory allocation (min/avg/max) = 19.34 | 19.34 | 19.34 Mbytes
Step Temp Press TotEng PotEng Enthalpy 
  122000    401.37548     2071.876   -82928.711   -83948.242   -82642.379 
  122495    371.59854    322.71141   -83088.803   -84032.698   -83044.221 
Loop time of 104.304 on 1 procs for 495 steps with 19652 atoms

Performance: 0.410 ns/day, 58.532 hours/ns, 4.746 timesteps/s
99.6% CPU use with 1 MPI tasks x no OpenMP threads

MPI task timing breakdown:
Section |  min time  |  avg time  |  max time  |%varavg| %total
---------------------------------------------------------------
Pair    | 57.025     | 57.025     | 57.025     |   0.0 | 54.67
Neigh   | 45.586     | 45.586     | 45.586     |   0.0 | 43.70
Comm    | 0.65352    | 0.65352    | 0.65352    |   0.0 |  0.63
Output  | 0.00020003 | 0.00020003 | 0.00020003 |   0.0 |  0.00
Modify  | 0.81571    | 0.81571    | 0.81571    |   0.0 |  0.78
Other   |            | 0.2241     |            |       |  0.21

Nlocal:    19652 ave 19652 max 19652 min
Histogram: 1 0 0 0 0 0 0 0 0 0
Nghost:    20703 ave 20703 max 20703 min
Histogram: 1 0 0 0 0 0 0 0 0 0
Neighs:    1.97609e+06 ave 1.97609e+06 max 1.97609e+06 min
Histogram: 1 0 0 0 0 0 0 0 0 0

Total # of neighbors = 1976088
Ave neighs/atom = 100.554
Neighbor list builds = 495
Dangerous builds not checked
Setting up Verlet run ...
  Unit style    : metal
  Current step  : 122495
  Time step     : 0.001
Per MPI rank memory allocation (min/avg/max) = 19.34 | 19.34 | 19.34 Mbytes
Step Temp Press TotEng PotEng Enthalpy 
  122495    371.59854    322.71141   -83088.803   -84032.698   -83044.221 
  124000    351.40967   -1365.8484   -83200.816   -84093.428   -83389.481 
Loop time of 303.487 on 1 procs for 1505 steps with 19652 atoms

Performance: 0.428 ns/day, 56.015 hours/ns, 4.959 timesteps/s
99.5% CPU use with 1 MPI tasks x no OpenMP threads

MPI task timing breakdown:
Section |  min time  |  avg time  |  max time  |%varavg| %total
---------------------------------------------------------------
Pair    | 165.25     | 165.25     | 165.25     |   0.0 | 54.45
Neigh   | 133.27     | 133.27     | 133.27     |   0.0 | 43.91
Comm    | 1.8339     | 1.8339     | 1.8339     |   0.0 |  0.60
Output  | 0.23958    | 0.23958    | 0.23958    |   0.0 |  0.08
Modify  | 2.2537     | 2.2537     | 2.2537     |   0.0 |  0.74
Other   |            | 0.6334     |            |       |  0.21

Nlocal:    19652 ave 19652 max 19652 min
Histogram: 1 0 0 0 0 0 0 0 0 0
Nghost:    20709 ave 20709 max 20709 min
Histogram: 1 0 0 0 0 0 0 0 0 0
Neighs:    1.97668e+06 ave 1.97668e+06 max 1.97668e+06 min
Histogram: 1 0 0 0 0 0 0 0 0 0

Total # of neighbors = 1976684
Ave neighs/atom = 100.584
Neighbor list builds = 1505
Dangerous builds not checked
Setting up Verlet run ...
  Unit style    : metal
  Current step  : 124000
  Time step     : 0.001
Per MPI rank memory allocation (min/avg/max) = 19.34 | 19.34 | 19.34 Mbytes
Step Temp Press TotEng PotEng Enthalpy 
  124000    351.40967   -1365.8484   -83200.816   -84093.428   -83389.481 
  124495    321.07747   -1729.0996   -83352.695   -84168.261   -83591.323 
Loop time of 101.177 on 1 procs for 495 steps with 19652 atoms

Performance: 0.423 ns/day, 56.777 hours/ns, 4.892 timesteps/s
99.7% CPU use with 1 MPI tasks x no OpenMP threads

MPI task timing breakdown:
Section |  min time  |  avg time  |  max time  |%varavg| %total
---------------------------------------------------------------
Pair    | 55.394     | 55.394     | 55.394     |   0.0 | 54.75
Neigh   | 44.152     | 44.152     | 44.152     |   0.0 | 43.64
Comm    | 0.62701    | 0.62701    | 0.62701    |   0.0 |  0.62
Output  | 0.00018406 | 0.00018406 | 0.00018406 |   0.0 |  0.00
Modify  | 0.7904     | 0.7904     | 0.7904     |   0.0 |  0.78
Other   |            | 0.2133     |            |       |  0.21

Nlocal:    19652 ave 19652 max 19652 min
Histogram: 1 0 0 0 0 0 0 0 0 0
Nghost:    20712 ave 20712 max 20712 min
Histogram: 1 0 0 0 0 0 0 0 0 0
Neighs:    1.97851e+06 ave 1.97851e+06 max 1.97851e+06 min
Histogram: 1 0 0 0 0 0 0 0 0 0

Total # of neighbors = 1978509
Ave neighs/atom = 100.677
Neighbor list builds = 495
Dangerous builds not checked
Setting up Verlet run ...
  Unit style    : metal
  Current step  : 124495
  Time step     : 0.001
Per MPI rank memory allocation (min/avg/max) = 19.34 | 19.34 | 19.34 Mbytes
Step Temp Press TotEng PotEng Enthalpy 
  124495    321.07747   -1729.0996   -83352.695   -84168.261   -83591.323 
  126000    302.48674   -725.30928   -83471.993   -84240.337   -83571.945 
Loop time of 311.092 on 1 procs for 1505 steps with 19652 atoms

Performance: 0.418 ns/day, 57.418 hours/ns, 4.838 timesteps/s
98.6% CPU use with 1 MPI tasks x no OpenMP threads

MPI task timing breakdown:
Section |  min time  |  avg time  |  max time  |%varavg| %total
---------------------------------------------------------------
Pair    | 169.56     | 169.56     | 169.56     |   0.0 | 54.50
Neigh   | 136.29     | 136.29     | 136.29     |   0.0 | 43.81
Comm    | 1.8881     | 1.8881     | 1.8881     |   0.0 |  0.61
Output  | 0.2975     | 0.2975     | 0.2975     |   0.0 |  0.10
Modify  | 2.4042     | 2.4042     | 2.4042     |   0.0 |  0.77
Other   |            | 0.656      |            |       |  0.21

Nlocal:    19652 ave 19652 max 19652 min
Histogram: 1 0 0 0 0 0 0 0 0 0
Nghost:    20758 ave 20758 max 20758 min
Histogram: 1 0 0 0 0 0 0 0 0 0
Neighs:    1.98163e+06 ave 1.98163e+06 max 1.98163e+06 min
Histogram: 1 0 0 0 0 0 0 0 0 0

Total # of neighbors = 1981634
Ave neighs/atom = 100.836
Neighbor list builds = 1505
Dangerous builds not checked
Setting up Verlet run ...
  Unit style    : metal
  Current step  : 126000
  Time step     : 0.001
Per MPI rank memory allocation (min/avg/max) = 19.34 | 19.34 | 19.34 Mbytes
Step Temp Press TotEng PotEng Enthalpy 
  126000    302.48674   -725.30928   -83471.993   -84240.337   -83571.945 
  126495    274.43166   -15.216656   -83613.758    -84310.84   -83615.852 
Loop time of 98.1232 on 1 procs for 495 steps with 19652 atoms

Performance: 0.436 ns/day, 55.064 hours/ns, 5.045 timesteps/s
97.3% CPU use with 1 MPI tasks x no OpenMP threads

MPI task timing breakdown:
Section |  min time  |  avg time  |  max time  |%varavg| %total
---------------------------------------------------------------
Pair    | 53.132     | 53.132     | 53.132     |   0.0 | 54.15
Neigh   | 43.462     | 43.462     | 43.462     |   0.0 | 44.29
Comm    | 0.59398    | 0.59398    | 0.59398    |   0.0 |  0.61
Output  | 0.00021195 | 0.00021195 | 0.00021195 |   0.0 |  0.00
Modify  | 0.73069    | 0.73069    | 0.73069    |   0.0 |  0.74
Other   |            | 0.2051     |            |       |  0.21

Nlocal:    19652 ave 19652 max 19652 min
Histogram: 1 0 0 0 0 0 0 0 0 0
Nghost:    20726 ave 20726 max 20726 min
Histogram: 1 0 0 0 0 0 0 0 0 0
Neighs:    1.98471e+06 ave 1.98471e+06 max 1.98471e+06 min
Histogram: 1 0 0 0 0 0 0 0 0 0

Total # of neighbors = 1984714
Ave neighs/atom = 100.993
Neighbor list builds = 495
Dangerous builds not checked
Setting up Verlet run ...
  Unit style    : metal
  Current step  : 126495
  Time step     : 0.001
Per MPI rank memory allocation (min/avg/max) = 19.34 | 19.34 | 19.34 Mbytes
Step Temp Press TotEng PotEng Enthalpy 
  126495    274.43166   -15.216656   -83613.758    -84310.84   -83615.852 
  128000    251.72837    146.94245   -83733.419   -84372.832   -83713.215 
Loop time of 301.261 on 1 procs for 1505 steps with 19652 atoms

Performance: 0.432 ns/day, 55.604 hours/ns, 4.996 timesteps/s
98.9% CPU use with 1 MPI tasks x no OpenMP threads

MPI task timing breakdown:
Section |  min time  |  avg time  |  max time  |%varavg| %total
---------------------------------------------------------------
Pair    | 163.83     | 163.83     | 163.83     |   0.0 | 54.38
Neigh   | 132.45     | 132.45     | 132.45     |   0.0 | 43.96
Comm    | 1.7942     | 1.7942     | 1.7942     |   0.0 |  0.60
Output  | 0.25225    | 0.25225    | 0.25225    |   0.0 |  0.08
Modify  | 2.2961     | 2.2961     | 2.2961     |   0.0 |  0.76
Other   |            | 0.6398     |            |       |  0.21

Nlocal:    19652 ave 19652 max 19652 min
Histogram: 1 0 0 0 0 0 0 0 0 0
Nghost:    20809 ave 20809 max 20809 min
Histogram: 1 0 0 0 0 0 0 0 0 0
Neighs:    1.98693e+06 ave 1.98693e+06 max 1.98693e+06 min
Histogram: 1 0 0 0 0 0 0 0 0 0

Total # of neighbors = 1986926
Ave neighs/atom = 101.106
Neighbor list builds = 1505
Dangerous builds not checked
Setting up Verlet run ...
  Unit style    : metal
  Current step  : 128000
  Time step     : 0.001
Per MPI rank memory allocation (min/avg/max) = 19.34 | 19.34 | 19.34 Mbytes
Step Temp Press TotEng PotEng Enthalpy 
  128000    251.72837    146.94245   -83733.419   -84372.832   -83713.215 
  128495    223.48737   -1035.8812   -83872.787   -84440.466   -84015.153 
Loop time of 101.234 on 1 procs for 495 steps with 19652 atoms

Performance: 0.422 ns/day, 56.809 hours/ns, 4.890 timesteps/s
99.3% CPU use with 1 MPI tasks x no OpenMP threads

MPI task timing breakdown:
Section |  min time  |  avg time  |  max time  |%varavg| %total
---------------------------------------------------------------
Pair    | 54.954     | 54.954     | 54.954     |   0.0 | 54.28
Neigh   | 44.752     | 44.752     | 44.752     |   0.0 | 44.21
Comm    | 0.58304    | 0.58304    | 0.58304    |   0.0 |  0.58
Output  | 0.00018215 | 0.00018215 | 0.00018215 |   0.0 |  0.00
Modify  | 0.74046    | 0.74046    | 0.74046    |   0.0 |  0.73
Other   |            | 0.2055     |            |       |  0.20

Nlocal:    19652 ave 19652 max 19652 min
Histogram: 1 0 0 0 0 0 0 0 0 0
Nghost:    20804 ave 20804 max 20804 min
Histogram: 1 0 0 0 0 0 0 0 0 0
Neighs:    1.98722e+06 ave 1.98722e+06 max 1.98722e+06 min
Histogram: 1 0 0 0 0 0 0 0 0 0

Total # of neighbors = 1987216
Ave neighs/atom = 101.12
Neighbor list builds = 495
Dangerous builds not checked
Setting up Verlet run ...
  Unit style    : metal
  Current step  : 128495
  Time step     : 0.001
Per MPI rank memory allocation (min/avg/max) = 19.34 | 19.34 | 19.34 Mbytes
Step Temp Press TotEng PotEng Enthalpy 
  128495    223.48737   -1035.8812   -83872.787   -84440.466   -84015.153 
  130000    200.39971   -263.68761   -83997.419   -84506.453   -84033.612 
Loop time of 306.056 on 1 procs for 1505 steps with 19652 atoms

Performance: 0.425 ns/day, 56.489 hours/ns, 4.917 timesteps/s
99.4% CPU use with 1 MPI tasks x no OpenMP threads

MPI task timing breakdown:
Section |  min time  |  avg time  |  max time  |%varavg| %total
---------------------------------------------------------------
Pair    | 165.88     | 165.88     | 165.88     |   0.0 | 54.20
Neigh   | 135.26     | 135.26     | 135.26     |   0.0 | 44.19
Comm    | 1.8213     | 1.8213     | 1.8213     |   0.0 |  0.60
Output  | 0.15623    | 0.15623    | 0.15623    |   0.0 |  0.05
Modify  | 2.2928     | 2.2928     | 2.2928     |   0.0 |  0.75
Other   |            | 0.6513     |            |       |  0.21

Nlocal:    19652 ave 19652 max 19652 min
Histogram: 1 0 0 0 0 0 0 0 0 0
Nghost:    20775 ave 20775 max 20775 min
Histogram: 1 0 0 0 0 0 0 0 0 0
Neighs:    1.99044e+06 ave 1.99044e+06 max 1.99044e+06 min
Histogram: 1 0 0 0 0 0 0 0 0 0

Total # of neighbors = 1990445
Ave neighs/atom = 101.285
Neighbor list builds = 1505
Dangerous builds not checked
Setting up Verlet run ...
  Unit style    : metal
  Current step  : 130000
  Time step     : 0.001
Per MPI rank memory allocation (min/avg/max) = 19.34 | 19.34 | 19.34 Mbytes
Step Temp Press TotEng PotEng Enthalpy 
  130000    200.39971   -263.68761   -83997.419   -84506.453   -84033.612 
  130495    176.91444   -443.38495   -84129.178   -84578.557   -84189.978 
Loop time of 102.509 on 1 procs for 495 steps with 19652 atoms

Performance: 0.417 ns/day, 57.525 hours/ns, 4.829 timesteps/s
99.5% CPU use with 1 MPI tasks x no OpenMP threads

MPI task timing breakdown:
Section |  min time  |  avg time  |  max time  |%varavg| %total
---------------------------------------------------------------
Pair    | 56.294     | 56.294     | 56.294     |   0.0 | 54.92
Neigh   | 44.584     | 44.584     | 44.584     |   0.0 | 43.49
Comm    | 0.62622    | 0.62622    | 0.62622    |   0.0 |  0.61
Output  | 0.00013399 | 0.00013399 | 0.00013399 |   0.0 |  0.00
Modify  | 0.78854    | 0.78854    | 0.78854    |   0.0 |  0.77
Other   |            | 0.2166     |            |       |  0.21

Nlocal:    19652 ave 19652 max 19652 min
Histogram: 1 0 0 0 0 0 0 0 0 0
Nghost:    20800 ave 20800 max 20800 min
Histogram: 1 0 0 0 0 0 0 0 0 0
Neighs:    1.99242e+06 ave 1.99242e+06 max 1.99242e+06 min
Histogram: 1 0 0 0 0 0 0 0 0 0

Total # of neighbors = 1992416
Ave neighs/atom = 101.385
Neighbor list builds = 495
Dangerous builds not checked
Setting up Verlet run ...
  Unit style    : metal
  Current step  : 130495
  Time step     : 0.001
Per MPI rank memory allocation (min/avg/max) = 19.34 | 19.34 | 19.34 Mbytes
Step Temp Press TotEng PotEng Enthalpy 
  130495    176.91444   -443.38495   -84129.178   -84578.557   -84189.978 
  132000    149.85833    80.115304   -84262.719   -84643.372   -84251.745 
Loop time of 301.27 on 1 procs for 1505 steps with 19652 atoms

Performance: 0.432 ns/day, 55.605 hours/ns, 4.996 timesteps/s
98.9% CPU use with 1 MPI tasks x no OpenMP threads

MPI task timing breakdown:
Section |  min time  |  avg time  |  max time  |%varavg| %total
---------------------------------------------------------------
Pair    | 164.37     | 164.37     | 164.37     |   0.0 | 54.56
Neigh   | 132.14     | 132.14     | 132.14     |   0.0 | 43.86
Comm    | 1.7874     | 1.7874     | 1.7874     |   0.0 |  0.59
Output  | 0.10982    | 0.10982    | 0.10982    |   0.0 |  0.04
Modify  | 2.2122     | 2.2122     | 2.2122     |   0.0 |  0.73
Other   |            | 0.6489     |            |       |  0.22

Nlocal:    19652 ave 19652 max 19652 min
Histogram: 1 0 0 0 0 0 0 0 0 0
Nghost:    20788 ave 20788 max 20788 min
Histogram: 1 0 0 0 0 0 0 0 0 0
Neighs:    1.99524e+06 ave 1.99524e+06 max 1.99524e+06 min
Histogram: 1 0 0 0 0 0 0 0 0 0

Total # of neighbors = 1995242
Ave neighs/atom = 101.529
Neighbor list builds = 1505
Dangerous builds not checked
Setting up Verlet run ...
  Unit style    : metal
  Current step  : 132000
  Time step     : 0.001
Per MPI rank memory allocation (min/avg/max) = 19.34 | 19.34 | 19.34 Mbytes
Step Temp Press TotEng PotEng Enthalpy 
  132000    149.85833    80.115304   -84262.719   -84643.372   -84251.745 
  132495    127.04884    158.91608   -84382.322   -84705.037   -84360.575 
Loop time of 98.7848 on 1 procs for 495 steps with 19652 atoms

Performance: 0.433 ns/day, 55.435 hours/ns, 5.011 timesteps/s
98.7% CPU use with 1 MPI tasks x no OpenMP threads

MPI task timing breakdown:
Section |  min time  |  avg time  |  max time  |%varavg| %total
---------------------------------------------------------------
Pair    | 53.43      | 53.43      | 53.43      |   0.0 | 54.09
Neigh   | 43.808     | 43.808     | 43.808     |   0.0 | 44.35
Comm    | 0.59817    | 0.59817    | 0.59817    |   0.0 |  0.61
Output  | 0.00020409 | 0.00020409 | 0.00020409 |   0.0 |  0.00
Modify  | 0.73499    | 0.73499    | 0.73499    |   0.0 |  0.74
Other   |            | 0.2136     |            |       |  0.22

Nlocal:    19652 ave 19652 max 19652 min
Histogram: 1 0 0 0 0 0 0 0 0 0
Nghost:    20823 ave 20823 max 20823 min
Histogram: 1 0 0 0 0 0 0 0 0 0
Neighs:    1.99707e+06 ave 1.99707e+06 max 1.99707e+06 min
Histogram: 1 0 0 0 0 0 0 0 0 0

Total # of neighbors = 1997069
Ave neighs/atom = 101.622
Neighbor list builds = 495
Dangerous builds not checked
Setting up Verlet run ...
  Unit style    : metal
  Current step  : 132495
  Time step     : 0.001
Per MPI rank memory allocation (min/avg/max) = 19.34 | 19.34 | 19.34 Mbytes
Step Temp Press TotEng PotEng Enthalpy 
  132495    127.04884    158.91608   -84382.322   -84705.037   -84360.575 
  134000    99.489402    114.95191   -84522.994   -84775.706   -84507.278 
Loop time of 291.076 on 1 procs for 1505 steps with 19652 atoms

Performance: 0.447 ns/day, 53.724 hours/ns, 5.170 timesteps/s
99.6% CPU use with 1 MPI tasks x no OpenMP threads

MPI task timing breakdown:
Section |  min time  |  avg time  |  max time  |%varavg| %total
---------------------------------------------------------------
Pair    | 158.43     | 158.43     | 158.43     |   0.0 | 54.43
Neigh   | 128        | 128        | 128        |   0.0 | 43.98
Comm    | 1.7604     | 1.7604     | 1.7604     |   0.0 |  0.60
Output  | 0.073121   | 0.073121   | 0.073121   |   0.0 |  0.03
Modify  | 2.1959     | 2.1959     | 2.1959     |   0.0 |  0.75
Other   |            | 0.615      |            |       |  0.21

Nlocal:    19652 ave 19652 max 19652 min
Histogram: 1 0 0 0 0 0 0 0 0 0
Nghost:    20796 ave 20796 max 20796 min
Histogram: 1 0 0 0 0 0 0 0 0 0
Neighs:    1.99983e+06 ave 1.99983e+06 max 1.99983e+06 min
Histogram: 1 0 0 0 0 0 0 0 0 0

Total # of neighbors = 1999827
Ave neighs/atom = 101.762
Neighbor list builds = 1505
Dangerous builds not checked
Total wall time: 6:44:16
