LAMMPS (12 Dec 2018)
Lattice spacing in x,y,z = 4 4 4
Created orthogonal box = (0 0 0) to (68 68 68)
  1 by 1 by 1 MPI processor grid
Created 19652 atoms
  Time spent = 0.0047369 secs
Setting atom values ...
  417 settings made for type/fraction
Neighbor list info ...
  update every 1 steps, delay 0 steps, check no
  max neighbors/atom: 2000, page size: 100000
  master list distance cutoff = 8.5
  ghost atom cutoff = 8.5
  binsize = 4.25, bins = 16 16 16
  1 neighbor lists, perpetual/occasional/extra = 1 0 0
  (1) pair eam/alloy, perpetual
      attributes: half, newton on
      pair build: half/bin/atomonly/newton
      stencil: half/bin/3d/newton
      bin: standard
Setting up Verlet run ...
  Unit style    : metal
  Current step  : 0
  Time step     : 0.001
Per MPI rank memory allocation (min/avg/max) = 18.19 | 18.19 | 18.19 Mbytes
Step Temp Press TotEng PotEng Enthalpy 
       0          300   -111089.58    -76248.48   -77010.508   -98050.147 
    1000    184.65674   -94154.363   -76248.444   -76717.489   -94726.523 
Loop time of 148.878 on 1 procs for 1000 steps with 19652 atoms

Performance: 0.580 ns/day, 41.355 hours/ns, 6.717 timesteps/s
99.8% CPU use with 1 MPI tasks x no OpenMP threads

MPI task timing breakdown:
Section |  min time  |  avg time  |  max time  |%varavg| %total
---------------------------------------------------------------
Pair    | 86.017     | 86.017     | 86.017     |   0.0 | 57.78
Neigh   | 60.869     | 60.869     | 60.869     |   0.0 | 40.89
Comm    | 1.2061     | 1.2061     | 1.2061     |   0.0 |  0.81
Output  | 0.00017405 | 0.00017405 | 0.00017405 |   0.0 |  0.00
Modify  | 0.40482    | 0.40482    | 0.40482    |   0.0 |  0.27
Other   |            | 0.3813     |            |       |  0.26

Nlocal:    19652 ave 19652 max 19652 min
Histogram: 1 0 0 0 0 0 0 0 0 0
Nghost:    20101 ave 20101 max 20101 min
Histogram: 1 0 0 0 0 0 0 0 0 0
Neighs:    1.56872e+06 ave 1.56872e+06 max 1.56872e+06 min
Histogram: 1 0 0 0 0 0 0 0 0 0

Total # of neighbors = 1568718
Ave neighs/atom = 79.8249
Neighbor list builds = 1000
Dangerous builds not checked
Setting up Verlet run ...
  Unit style    : metal
  Current step  : 1000
  Time step     : 0.001
Per MPI rank memory allocation (min/avg/max) = 18.19 | 18.19 | 18.19 Mbytes
Step Temp Press TotEng PotEng Enthalpy 
    1000    184.65674   -94154.363   -76248.444   -76717.489   -94726.523 
    2000    300.48719    159.46102   -76456.834   -77220.099   -76427.387 
Loop time of 185.185 on 1 procs for 1000 steps with 19652 atoms

Performance: 0.467 ns/day, 51.440 hours/ns, 5.400 timesteps/s
99.9% CPU use with 1 MPI tasks x no OpenMP threads

MPI task timing breakdown:
Section |  min time  |  avg time  |  max time  |%varavg| %total
---------------------------------------------------------------
Pair    | 103.91     | 103.91     | 103.91     |   0.0 | 56.11
Neigh   | 78.158     | 78.158     | 78.158     |   0.0 | 42.21
Comm    | 1.2408     | 1.2408     | 1.2408     |   0.0 |  0.67
Output  | 0.00013614 | 0.00013614 | 0.00013614 |   0.0 |  0.00
Modify  | 1.4633     | 1.4633     | 1.4633     |   0.0 |  0.79
Other   |            | 0.4178     |            |       |  0.23

Nlocal:    19652 ave 19652 max 19652 min
Histogram: 1 0 0 0 0 0 0 0 0 0
Nghost:    20102 ave 20102 max 20102 min
Histogram: 1 0 0 0 0 0 0 0 0 0
Neighs:    1.71007e+06 ave 1.71007e+06 max 1.71007e+06 min
Histogram: 1 0 0 0 0 0 0 0 0 0

Total # of neighbors = 1710074
Ave neighs/atom = 87.0178
Neighbor list builds = 1000
Dangerous builds not checked
Setting up Verlet run ...
  Unit style    : metal
  Current step  : 2000
  Time step     : 0.001
Per MPI rank memory allocation (min/avg/max) = 18.19 | 18.19 | 18.19 Mbytes
Step Temp Press TotEng PotEng Enthalpy 
    2000    300.48719    159.46102   -76456.834   -77220.099   -76427.387 
    5000    1086.2128    237.72511   -72018.503   -74777.583   -71972.929 
   10000    2445.9094     2639.644   -60770.375   -66983.208   -60181.362 
Loop time of 1351.23 on 1 procs for 8000 steps with 19652 atoms

Performance: 0.512 ns/day, 46.918 hours/ns, 5.921 timesteps/s
99.5% CPU use with 1 MPI tasks x no OpenMP threads

MPI task timing breakdown:
Section |  min time  |  avg time  |  max time  |%varavg| %total
---------------------------------------------------------------
Pair    | 755.2      | 755.2      | 755.2      |   0.0 | 55.89
Neigh   | 571.01     | 571.01     | 571.01     |   0.0 | 42.26
Comm    | 9.7004     | 9.7004     | 9.7004     |   0.0 |  0.72
Output  | 0.44276    | 0.44276    | 0.44276    |   0.0 |  0.03
Modify  | 11.555     | 11.555     | 11.555     |   0.0 |  0.86
Other   |            | 3.321      |            |       |  0.25

Nlocal:    19652 ave 19652 max 19652 min
Histogram: 1 0 0 0 0 0 0 0 0 0
Nghost:    17827 ave 17827 max 17827 min
Histogram: 1 0 0 0 0 0 0 0 0 0
Neighs:    1.38402e+06 ave 1.38402e+06 max 1.38402e+06 min
Histogram: 1 0 0 0 0 0 0 0 0 0

Total # of neighbors = 1384025
Ave neighs/atom = 70.4267
Neighbor list builds = 8000
Dangerous builds not checked
Setting up Verlet run ...
  Unit style    : metal
  Current step  : 10000
  Time step     : 0.001
Per MPI rank memory allocation (min/avg/max) = 18.19 | 18.19 | 18.19 Mbytes
Step Temp Press TotEng PotEng Enthalpy 
   10000    2445.9094     2639.644   -60770.375   -66983.208   -60181.362 
   15000    2454.3513    246.00467    -60683.23   -66917.506   -60628.141 
   20000    2462.4808   -674.49588    -60611.91   -66866.835   -60763.213 
   25000    2457.8632    58.978162   -60672.896   -66916.093   -60659.679 
   30000    2464.7868    -1353.111   -60644.896   -66905.679   -60948.472 
   35000    2445.8197     318.7619   -60641.185   -66853.789   -60569.746 
   40000    2421.3521    750.57428    -60771.44   -66921.894   -60603.546 
Loop time of 5161.75 on 1 procs for 30000 steps with 19652 atoms

Performance: 0.502 ns/day, 47.794 hours/ns, 5.812 timesteps/s
99.4% CPU use with 1 MPI tasks x no OpenMP threads

MPI task timing breakdown:
Section |  min time  |  avg time  |  max time  |%varavg| %total
---------------------------------------------------------------
Pair    | 2857.4     | 2857.4     | 2857.4     |   0.0 | 55.36
Neigh   | 2208.9     | 2208.9     | 2208.9     |   0.0 | 42.79
Comm    | 36.334     | 36.334     | 36.334     |   0.0 |  0.70
Output  | 0.5928     | 0.5928     | 0.5928     |   0.0 |  0.01
Modify  | 45.944     | 45.944     | 45.944     |   0.0 |  0.89
Other   |            | 12.62      |            |       |  0.24

Nlocal:    19652 ave 19652 max 19652 min
Histogram: 1 0 0 0 0 0 0 0 0 0
Nghost:    17758 ave 17758 max 17758 min
Histogram: 1 0 0 0 0 0 0 0 0 0
Neighs:    1.37922e+06 ave 1.37922e+06 max 1.37922e+06 min
Histogram: 1 0 0 0 0 0 0 0 0 0

Total # of neighbors = 1379225
Ave neighs/atom = 70.1824
Neighbor list builds = 30000
Dangerous builds not checked
Setting up Verlet run ...
  Unit style    : metal
  Current step  : 40000
  Time step     : 0.001
Per MPI rank memory allocation (min/avg/max) = 18.19 | 18.19 | 18.19 Mbytes
Step Temp Press TotEng PotEng Enthalpy 
   40000    2421.3521    750.57428    -60771.44   -66921.894   -60603.546 
   40495    2425.4897    41.896293   -60821.747   -66982.712   -60812.382 
Loop time of 87.6931 on 1 procs for 495 steps with 19652 atoms

Performance: 0.488 ns/day, 49.211 hours/ns, 5.645 timesteps/s
98.3% CPU use with 1 MPI tasks x no OpenMP threads

MPI task timing breakdown:
Section |  min time  |  avg time  |  max time  |%varavg| %total
---------------------------------------------------------------
Pair    | 49.053     | 49.053     | 49.053     |   0.0 | 55.94
Neigh   | 37.031     | 37.031     | 37.031     |   0.0 | 42.23
Comm    | 0.59884    | 0.59884    | 0.59884    |   0.0 |  0.68
Output  | 0.00019288 | 0.00019288 | 0.00019288 |   0.0 |  0.00
Modify  | 0.78239    | 0.78239    | 0.78239    |   0.0 |  0.89
Other   |            | 0.227      |            |       |  0.26

Nlocal:    19652 ave 19652 max 19652 min
Histogram: 1 0 0 0 0 0 0 0 0 0
Nghost:    17790 ave 17790 max 17790 min
Histogram: 1 0 0 0 0 0 0 0 0 0
Neighs:    1.38086e+06 ave 1.38086e+06 max 1.38086e+06 min
Histogram: 1 0 0 0 0 0 0 0 0 0

Total # of neighbors = 1380856
Ave neighs/atom = 70.2654
Neighbor list builds = 495
Dangerous builds not checked
Setting up Verlet run ...
  Unit style    : metal
  Current step  : 40495
  Time step     : 0.001
Per MPI rank memory allocation (min/avg/max) = 18.19 | 18.19 | 18.19 Mbytes
Step Temp Press TotEng PotEng Enthalpy 
   40495    2425.4897    41.896293   -60821.747   -66982.712   -60812.382 
   45000    2407.9445    -303.5191    -60904.27   -67020.669    -60972.12 
Loop time of 801.82 on 1 procs for 4505 steps with 19652 atoms

Performance: 0.485 ns/day, 49.440 hours/ns, 5.618 timesteps/s
99.3% CPU use with 1 MPI tasks x no OpenMP threads

MPI task timing breakdown:
Section |  min time  |  avg time  |  max time  |%varavg| %total
---------------------------------------------------------------
Pair    | 444.08     | 444.08     | 444.08     |   0.0 | 55.38
Neigh   | 342.96     | 342.96     | 342.96     |   0.0 | 42.77
Comm    | 5.5622     | 5.5622     | 5.5622     |   0.0 |  0.69
Output  | 0.082613   | 0.082613   | 0.082613   |   0.0 |  0.01
Modify  | 7.1616     | 7.1616     | 7.1616     |   0.0 |  0.89
Other   |            | 1.978      |            |       |  0.25

Nlocal:    19652 ave 19652 max 19652 min
Histogram: 1 0 0 0 0 0 0 0 0 0
Nghost:    17759 ave 17759 max 17759 min
Histogram: 1 0 0 0 0 0 0 0 0 0
Neighs:    1.38041e+06 ave 1.38041e+06 max 1.38041e+06 min
Histogram: 1 0 0 0 0 0 0 0 0 0

Total # of neighbors = 1380407
Ave neighs/atom = 70.2426
Neighbor list builds = 4505
Dangerous builds not checked
Setting up Verlet run ...
  Unit style    : metal
  Current step  : 45000
  Time step     : 0.001
Per MPI rank memory allocation (min/avg/max) = 18.19 | 18.19 | 18.19 Mbytes
Step Temp Press TotEng PotEng Enthalpy 
   45000    2407.9445    -303.5191    -60904.27   -67020.669    -60972.12 
   45495    2367.3159   -254.17718   -61158.453   -67171.651   -61215.064 
Loop time of 84.1864 on 1 procs for 495 steps with 19652 atoms

Performance: 0.508 ns/day, 47.243 hours/ns, 5.880 timesteps/s
100.0% CPU use with 1 MPI tasks x no OpenMP threads

MPI task timing breakdown:
Section |  min time  |  avg time  |  max time  |%varavg| %total
---------------------------------------------------------------
Pair    | 46.839     | 46.839     | 46.839     |   0.0 | 55.64
Neigh   | 35.803     | 35.803     | 35.803     |   0.0 | 42.53
Comm    | 0.57488    | 0.57488    | 0.57488    |   0.0 |  0.68
Output  | 0.0001781  | 0.0001781  | 0.0001781  |   0.0 |  0.00
Modify  | 0.75809    | 0.75809    | 0.75809    |   0.0 |  0.90
Other   |            | 0.2117     |            |       |  0.25

Nlocal:    19652 ave 19652 max 19652 min
Histogram: 1 0 0 0 0 0 0 0 0 0
Nghost:    17788 ave 17788 max 17788 min
Histogram: 1 0 0 0 0 0 0 0 0 0
Neighs:    1.38582e+06 ave 1.38582e+06 max 1.38582e+06 min
Histogram: 1 0 0 0 0 0 0 0 0 0

Total # of neighbors = 1385822
Ave neighs/atom = 70.5181
Neighbor list builds = 495
Dangerous builds not checked
Setting up Verlet run ...
  Unit style    : metal
  Current step  : 45495
  Time step     : 0.001
Per MPI rank memory allocation (min/avg/max) = 18.19 | 18.19 | 18.19 Mbytes
Step Temp Press TotEng PotEng Enthalpy 
   45495    2367.3159   -254.17718   -61158.453   -67171.651   -61215.064 
   50000    2351.5461    916.83151   -61253.151   -67226.292   -61049.339 
Loop time of 787.688 on 1 procs for 4505 steps with 19652 atoms

Performance: 0.494 ns/day, 48.569 hours/ns, 5.719 timesteps/s
98.8% CPU use with 1 MPI tasks x no OpenMP threads

MPI task timing breakdown:
Section |  min time  |  avg time  |  max time  |%varavg| %total
---------------------------------------------------------------
Pair    | 434.67     | 434.67     | 434.67     |   0.0 | 55.18
Neigh   | 338.4      | 338.4      | 338.4      |   0.0 | 42.96
Comm    | 5.5109     | 5.5109     | 5.5109     |   0.0 |  0.70
Output  | 0.077339   | 0.077339   | 0.077339   |   0.0 |  0.01
Modify  | 7.0518     | 7.0518     | 7.0518     |   0.0 |  0.90
Other   |            | 1.982      |            |       |  0.25

Nlocal:    19652 ave 19652 max 19652 min
Histogram: 1 0 0 0 0 0 0 0 0 0
Nghost:    17823 ave 17823 max 17823 min
Histogram: 1 0 0 0 0 0 0 0 0 0
Neighs:    1.38876e+06 ave 1.38876e+06 max 1.38876e+06 min
Histogram: 1 0 0 0 0 0 0 0 0 0

Total # of neighbors = 1388755
Ave neighs/atom = 70.6674
Neighbor list builds = 4505
Dangerous builds not checked
Setting up Verlet run ...
  Unit style    : metal
  Current step  : 50000
  Time step     : 0.001
Per MPI rank memory allocation (min/avg/max) = 18.19 | 18.19 | 18.19 Mbytes
Step Temp Press TotEng PotEng Enthalpy 
   50000    2351.5461    916.83151   -61253.151   -67226.292   -61049.339 
   50495    2319.8821    1131.7615   -61536.331   -67429.043    -61286.07 
Loop time of 81.1724 on 1 procs for 495 steps with 19652 atoms

Performance: 0.527 ns/day, 45.551 hours/ns, 6.098 timesteps/s
100.0% CPU use with 1 MPI tasks x no OpenMP threads

MPI task timing breakdown:
Section |  min time  |  avg time  |  max time  |%varavg| %total
---------------------------------------------------------------
Pair    | 44.127     | 44.127     | 44.127     |   0.0 | 54.36
Neigh   | 35.543     | 35.543     | 35.543     |   0.0 | 43.79
Comm    | 0.56805    | 0.56805    | 0.56805    |   0.0 |  0.70
Output  | 0.00020003 | 0.00020003 | 0.00020003 |   0.0 |  0.00
Modify  | 0.72819    | 0.72819    | 0.72819    |   0.0 |  0.90
Other   |            | 0.206      |            |       |  0.25

Nlocal:    19652 ave 19652 max 19652 min
Histogram: 1 0 0 0 0 0 0 0 0 0
Nghost:    17804 ave 17804 max 17804 min
Histogram: 1 0 0 0 0 0 0 0 0 0
Neighs:    1.396e+06 ave 1.396e+06 max 1.396e+06 min
Histogram: 1 0 0 0 0 0 0 0 0 0

Total # of neighbors = 1395996
Ave neighs/atom = 71.0358
Neighbor list builds = 495
Dangerous builds not checked
Setting up Verlet run ...
  Unit style    : metal
  Current step  : 50495
  Time step     : 0.001
Per MPI rank memory allocation (min/avg/max) = 18.19 | 18.19 | 18.19 Mbytes
Step Temp Press TotEng PotEng Enthalpy 
   50495    2319.8821    1131.7615   -61536.331   -67429.043    -61286.07 
   55000    2292.1967   -1455.0545   -61656.739   -67479.128   -61979.001 
Loop time of 791.195 on 1 procs for 4505 steps with 19652 atoms

Performance: 0.492 ns/day, 48.785 hours/ns, 5.694 timesteps/s
98.9% CPU use with 1 MPI tasks x no OpenMP threads

MPI task timing breakdown:
Section |  min time  |  avg time  |  max time  |%varavg| %total
---------------------------------------------------------------
Pair    | 437.46     | 437.46     | 437.46     |   0.0 | 55.29
Neigh   | 339.03     | 339.03     | 339.03     |   0.0 | 42.85
Comm    | 5.5624     | 5.5624     | 5.5624     |   0.0 |  0.70
Output  | 0.086711   | 0.086711   | 0.086711   |   0.0 |  0.01
Modify  | 7.0775     | 7.0775     | 7.0775     |   0.0 |  0.89
Other   |            | 1.975      |            |       |  0.25

Nlocal:    19652 ave 19652 max 19652 min
Histogram: 1 0 0 0 0 0 0 0 0 0
Nghost:    17875 ave 17875 max 17875 min
Histogram: 1 0 0 0 0 0 0 0 0 0
Neighs:    1.39425e+06 ave 1.39425e+06 max 1.39425e+06 min
Histogram: 1 0 0 0 0 0 0 0 0 0

Total # of neighbors = 1394251
Ave neighs/atom = 70.947
Neighbor list builds = 4505
Dangerous builds not checked
Setting up Verlet run ...
  Unit style    : metal
  Current step  : 55000
  Time step     : 0.001
Per MPI rank memory allocation (min/avg/max) = 18.19 | 18.19 | 18.19 Mbytes
Step Temp Press TotEng PotEng Enthalpy 
   55000    2292.1967   -1455.0545   -61656.739   -67479.128   -61979.001 
   55495    2253.6056    1122.5163   -61865.626    -67589.99    -61618.32 
Loop time of 89.092 on 1 procs for 495 steps with 19652 atoms

Performance: 0.480 ns/day, 49.996 hours/ns, 5.556 timesteps/s
98.5% CPU use with 1 MPI tasks x no OpenMP threads

MPI task timing breakdown:
Section |  min time  |  avg time  |  max time  |%varavg| %total
---------------------------------------------------------------
Pair    | 49.852     | 49.852     | 49.852     |   0.0 | 55.96
Neigh   | 37.506     | 37.506     | 37.506     |   0.0 | 42.10
Comm    | 0.66464    | 0.66464    | 0.66464    |   0.0 |  0.75
Output  | 0.00017715 | 0.00017715 | 0.00017715 |   0.0 |  0.00
Modify  | 0.84599    | 0.84599    | 0.84599    |   0.0 |  0.95
Other   |            | 0.2232     |            |       |  0.25

Nlocal:    19652 ave 19652 max 19652 min
Histogram: 1 0 0 0 0 0 0 0 0 0
Nghost:    17846 ave 17846 max 17846 min
Histogram: 1 0 0 0 0 0 0 0 0 0
Neighs:    1.40118e+06 ave 1.40118e+06 max 1.40118e+06 min
Histogram: 1 0 0 0 0 0 0 0 0 0

Total # of neighbors = 1401181
Ave neighs/atom = 71.2997
Neighbor list builds = 495
Dangerous builds not checked
Setting up Verlet run ...
  Unit style    : metal
  Current step  : 55495
  Time step     : 0.001
Per MPI rank memory allocation (min/avg/max) = 18.19 | 18.19 | 18.19 Mbytes
Step Temp Press TotEng PotEng Enthalpy 
   55495    2253.6056    1122.5163   -61865.626    -67589.99    -61618.32 
   60000    2258.9927    945.69515   -62001.862   -67739.909   -61794.152 
Loop time of 707.853 on 1 procs for 4505 steps with 19652 atoms

Performance: 0.550 ns/day, 43.646 hours/ns, 6.364 timesteps/s
98.9% CPU use with 1 MPI tasks x no OpenMP threads

MPI task timing breakdown:
Section |  min time  |  avg time  |  max time  |%varavg| %total
---------------------------------------------------------------
Pair    | 383.52     | 383.52     | 383.52     |   0.0 | 54.18
Neigh   | 311.34     | 311.34     | 311.34     |   0.0 | 43.98
Comm    | 4.901      | 4.901      | 4.901      |   0.0 |  0.69
Output  | 0.067679   | 0.067679   | 0.067679   |   0.0 |  0.01
Modify  | 6.3209     | 6.3209     | 6.3209     |   0.0 |  0.89
Other   |            | 1.706      |            |       |  0.24

Nlocal:    19652 ave 19652 max 19652 min
Histogram: 1 0 0 0 0 0 0 0 0 0
Nghost:    17869 ave 17869 max 17869 min
Histogram: 1 0 0 0 0 0 0 0 0 0
Neighs:    1.40589e+06 ave 1.40589e+06 max 1.40589e+06 min
Histogram: 1 0 0 0 0 0 0 0 0 0

Total # of neighbors = 1405892
Ave neighs/atom = 71.5394
Neighbor list builds = 4505
Dangerous builds not checked
Setting up Verlet run ...
  Unit style    : metal
  Current step  : 60000
  Time step     : 0.001
Per MPI rank memory allocation (min/avg/max) = 18.19 | 18.19 | 18.19 Mbytes
Step Temp Press TotEng PotEng Enthalpy 
   60000    2258.9927    945.69515   -62001.862   -67739.909   -61794.152 
   60495    2220.1065    1875.3734   -62193.112   -67832.384   -61782.283 
Loop time of 70.0982 on 1 procs for 495 steps with 19652 atoms

Performance: 0.610 ns/day, 39.337 hours/ns, 7.062 timesteps/s
99.4% CPU use with 1 MPI tasks x no OpenMP threads

MPI task timing breakdown:
Section |  min time  |  avg time  |  max time  |%varavg| %total
---------------------------------------------------------------
Pair    | 37.562     | 37.562     | 37.562     |   0.0 | 53.58
Neigh   | 31.226     | 31.226     | 31.226     |   0.0 | 44.55
Comm    | 0.49215    | 0.49215    | 0.49215    |   0.0 |  0.70
Output  | 0.00012708 | 0.00012708 | 0.00012708 |   0.0 |  0.00
Modify  | 0.64012    | 0.64012    | 0.64012    |   0.0 |  0.91
Other   |            | 0.178      |            |       |  0.25

Nlocal:    19652 ave 19652 max 19652 min
Histogram: 1 0 0 0 0 0 0 0 0 0
Nghost:    17905 ave 17905 max 17905 min
Histogram: 1 0 0 0 0 0 0 0 0 0
Neighs:    1.40891e+06 ave 1.40891e+06 max 1.40891e+06 min
Histogram: 1 0 0 0 0 0 0 0 0 0

Total # of neighbors = 1408912
Ave neighs/atom = 71.6931
Neighbor list builds = 495
Dangerous builds not checked
Setting up Verlet run ...
  Unit style    : metal
  Current step  : 60495
  Time step     : 0.001
Per MPI rank memory allocation (min/avg/max) = 18.19 | 18.19 | 18.19 Mbytes
Step Temp Press TotEng PotEng Enthalpy 
   60495    2220.1065    1875.3734   -62193.112   -67832.384   -61782.283 
   65000     2208.557    -2290.489   -62296.997   -67906.934   -62799.568 
Loop time of 779.518 on 1 procs for 4505 steps with 19652 atoms

Performance: 0.499 ns/day, 48.065 hours/ns, 5.779 timesteps/s
98.5% CPU use with 1 MPI tasks x no OpenMP threads

MPI task timing breakdown:
Section |  min time  |  avg time  |  max time  |%varavg| %total
---------------------------------------------------------------
Pair    | 428.68     | 428.68     | 428.68     |   0.0 | 54.99
Neigh   | 336.31     | 336.31     | 336.31     |   0.0 | 43.14
Comm    | 5.4754     | 5.4754     | 5.4754     |   0.0 |  0.70
Output  | 0.08456    | 0.08456    | 0.08456    |   0.0 |  0.01
Modify  | 7.0062     | 7.0062     | 7.0062     |   0.0 |  0.90
Other   |            | 1.967      |            |       |  0.25

Nlocal:    19652 ave 19652 max 19652 min
Histogram: 1 0 0 0 0 0 0 0 0 0
Nghost:    17936 ave 17936 max 17936 min
Histogram: 1 0 0 0 0 0 0 0 0 0
Neighs:    1.40774e+06 ave 1.40774e+06 max 1.40774e+06 min
Histogram: 1 0 0 0 0 0 0 0 0 0

Total # of neighbors = 1407741
Ave neighs/atom = 71.6335
Neighbor list builds = 4505
Dangerous builds not checked
Setting up Verlet run ...
  Unit style    : metal
  Current step  : 65000
  Time step     : 0.001
Per MPI rank memory allocation (min/avg/max) = 18.19 | 18.19 | 18.19 Mbytes
Step Temp Press TotEng PotEng Enthalpy 
   65000     2208.557    -2290.489   -62296.997   -67906.934   -62799.568 
   65495    2150.1705   -22.344744   -62476.108   -67937.737       -62481 
Loop time of 79.4585 on 1 procs for 495 steps with 19652 atoms

Performance: 0.538 ns/day, 44.590 hours/ns, 6.230 timesteps/s
97.4% CPU use with 1 MPI tasks x no OpenMP threads

MPI task timing breakdown:
Section |  min time  |  avg time  |  max time  |%varavg| %total
---------------------------------------------------------------
Pair    | 43.034     | 43.034     | 43.034     |   0.0 | 54.16
Neigh   | 34.952     | 34.952     | 34.952     |   0.0 | 43.99
Comm    | 0.53638    | 0.53638    | 0.53638    |   0.0 |  0.68
Output  | 0.00014901 | 0.00014901 | 0.00014901 |   0.0 |  0.00
Modify  | 0.73294    | 0.73294    | 0.73294    |   0.0 |  0.92
Other   |            | 0.2024     |            |       |  0.25

Nlocal:    19652 ave 19652 max 19652 min
Histogram: 1 0 0 0 0 0 0 0 0 0
Nghost:    17870 ave 17870 max 17870 min
Histogram: 1 0 0 0 0 0 0 0 0 0
Neighs:    1.4101e+06 ave 1.4101e+06 max 1.4101e+06 min
Histogram: 1 0 0 0 0 0 0 0 0 0

Total # of neighbors = 1410099
Ave neighs/atom = 71.7535
Neighbor list builds = 495
Dangerous builds not checked
Setting up Verlet run ...
  Unit style    : metal
  Current step  : 65495
  Time step     : 0.001
Per MPI rank memory allocation (min/avg/max) = 18.19 | 18.19 | 18.19 Mbytes
Step Temp Press TotEng PotEng Enthalpy 
   65495    2150.1705   -22.344744   -62476.108   -67937.737       -62481 
   70000    2156.6092   -1458.8985   -62576.083   -68054.067   -62895.016 
Loop time of 696.994 on 1 procs for 4505 steps with 19652 atoms

Performance: 0.558 ns/day, 42.977 hours/ns, 6.463 timesteps/s
99.2% CPU use with 1 MPI tasks x no OpenMP threads

MPI task timing breakdown:
Section |  min time  |  avg time  |  max time  |%varavg| %total
---------------------------------------------------------------
Pair    | 376.58     | 376.58     | 376.58     |   0.0 | 54.03
Neigh   | 307.5      | 307.5      | 307.5      |   0.0 | 44.12
Comm    | 4.7836     | 4.7836     | 4.7836     |   0.0 |  0.69
Output  | 0.21959    | 0.21959    | 0.21959    |   0.0 |  0.03
Modify  | 6.2496     | 6.2496     | 6.2496     |   0.0 |  0.90
Other   |            | 1.664      |            |       |  0.24

Nlocal:    19652 ave 19652 max 19652 min
Histogram: 1 0 0 0 0 0 0 0 0 0
Nghost:    17929 ave 17929 max 17929 min
Histogram: 1 0 0 0 0 0 0 0 0 0
Neighs:    1.4125e+06 ave 1.4125e+06 max 1.4125e+06 min
Histogram: 1 0 0 0 0 0 0 0 0 0

Total # of neighbors = 1412498
Ave neighs/atom = 71.8755
Neighbor list builds = 4505
Dangerous builds not checked
Setting up Verlet run ...
  Unit style    : metal
  Current step  : 70000
  Time step     : 0.001
Per MPI rank memory allocation (min/avg/max) = 18.19 | 18.19 | 18.19 Mbytes
Step Temp Press TotEng PotEng Enthalpy 
   70000    2156.6092   -1458.8985   -62576.083   -68054.067   -62895.016 
   70495    2100.6608   -1128.4625   -62856.007   -68191.877   -63101.909 
Loop time of 78.0069 on 1 procs for 495 steps with 19652 atoms

Performance: 0.548 ns/day, 43.775 hours/ns, 6.346 timesteps/s
98.3% CPU use with 1 MPI tasks x no OpenMP threads

MPI task timing breakdown:
Section |  min time  |  avg time  |  max time  |%varavg| %total
---------------------------------------------------------------
Pair    | 42.36      | 42.36      | 42.36      |   0.0 | 54.30
Neigh   | 34.187     | 34.187     | 34.187     |   0.0 | 43.83
Comm    | 0.55745    | 0.55745    | 0.55745    |   0.0 |  0.71
Output  | 0.000139   | 0.000139   | 0.000139   |   0.0 |  0.00
Modify  | 0.7049     | 0.7049     | 0.7049     |   0.0 |  0.90
Other   |            | 0.1975     |            |       |  0.25

Nlocal:    19652 ave 19652 max 19652 min
Histogram: 1 0 0 0 0 0 0 0 0 0
Nghost:    17948 ave 17948 max 17948 min
Histogram: 1 0 0 0 0 0 0 0 0 0
Neighs:    1.41671e+06 ave 1.41671e+06 max 1.41671e+06 min
Histogram: 1 0 0 0 0 0 0 0 0 0

Total # of neighbors = 1416708
Ave neighs/atom = 72.0898
Neighbor list builds = 495
Dangerous builds not checked
Setting up Verlet run ...
  Unit style    : metal
  Current step  : 70495
  Time step     : 0.001
Per MPI rank memory allocation (min/avg/max) = 18.19 | 18.19 | 18.19 Mbytes
Step Temp Press TotEng PotEng Enthalpy 
   70495    2100.6608   -1128.4625   -62856.007   -68191.877   -63101.909 
   75000    2107.6424    247.82713   -62973.501   -68327.105   -62919.726 
Loop time of 758.613 on 1 procs for 4505 steps with 19652 atoms

Performance: 0.513 ns/day, 46.776 hours/ns, 5.938 timesteps/s
99.3% CPU use with 1 MPI tasks x no OpenMP threads

MPI task timing breakdown:
Section |  min time  |  avg time  |  max time  |%varavg| %total
---------------------------------------------------------------
Pair    | 416.27     | 416.27     | 416.27     |   0.0 | 54.87
Neigh   | 328.09     | 328.09     | 328.09     |   0.0 | 43.25
Comm    | 5.3403     | 5.3403     | 5.3403     |   0.0 |  0.70
Output  | 0.13762    | 0.13762    | 0.13762    |   0.0 |  0.02
Modify  | 6.8232     | 6.8232     | 6.8232     |   0.0 |  0.90
Other   |            | 1.945      |            |       |  0.26

Nlocal:    19652 ave 19652 max 19652 min
Histogram: 1 0 0 0 0 0 0 0 0 0
Nghost:    18010 ave 18010 max 18010 min
Histogram: 1 0 0 0 0 0 0 0 0 0
Neighs:    1.42322e+06 ave 1.42322e+06 max 1.42322e+06 min
Histogram: 1 0 0 0 0 0 0 0 0 0

Total # of neighbors = 1423223
Ave neighs/atom = 72.4213
Neighbor list builds = 4505
Dangerous builds not checked
Setting up Verlet run ...
  Unit style    : metal
  Current step  : 75000
  Time step     : 0.001
Per MPI rank memory allocation (min/avg/max) = 18.19 | 18.19 | 18.19 Mbytes
Step Temp Press TotEng PotEng Enthalpy 
   75000    2107.6424    247.82713   -62973.501   -68327.105   -62919.726 
   75495    2055.4027    756.95747   -63192.315   -68413.226   -63028.392 
Loop time of 83.4584 on 1 procs for 495 steps with 19652 atoms

Performance: 0.512 ns/day, 46.834 hours/ns, 5.931 timesteps/s
98.7% CPU use with 1 MPI tasks x no OpenMP threads

MPI task timing breakdown:
Section |  min time  |  avg time  |  max time  |%varavg| %total
---------------------------------------------------------------
Pair    | 45.621     | 45.621     | 45.621     |   0.0 | 54.66
Neigh   | 36.29      | 36.29      | 36.29      |   0.0 | 43.48
Comm    | 0.57475    | 0.57475    | 0.57475    |   0.0 |  0.69
Output  | 0.0001471  | 0.0001471  | 0.0001471  |   0.0 |  0.00
Modify  | 0.76461    | 0.76461    | 0.76461    |   0.0 |  0.92
Other   |            | 0.2075     |            |       |  0.25

Nlocal:    19652 ave 19652 max 19652 min
Histogram: 1 0 0 0 0 0 0 0 0 0
Nghost:    17941 ave 17941 max 17941 min
Histogram: 1 0 0 0 0 0 0 0 0 0
Neighs:    1.42594e+06 ave 1.42594e+06 max 1.42594e+06 min
Histogram: 1 0 0 0 0 0 0 0 0 0

Total # of neighbors = 1425945
Ave neighs/atom = 72.5598
Neighbor list builds = 495
Dangerous builds not checked
Setting up Verlet run ...
  Unit style    : metal
  Current step  : 75495
  Time step     : 0.001
Per MPI rank memory allocation (min/avg/max) = 18.19 | 18.19 | 18.19 Mbytes
Step Temp Press TotEng PotEng Enthalpy 
   75495    2055.4027    756.95747   -63192.315   -68413.226   -63028.392 
   80000    2056.9952   -193.56424   -63255.911   -68480.866   -63297.784 
Loop time of 745.763 on 1 procs for 4505 steps with 19652 atoms

Performance: 0.522 ns/day, 45.984 hours/ns, 6.041 timesteps/s
97.6% CPU use with 1 MPI tasks x no OpenMP threads

MPI task timing breakdown:
Section |  min time  |  avg time  |  max time  |%varavg| %total
---------------------------------------------------------------
Pair    | 404.83     | 404.83     | 404.83     |   0.0 | 54.28
Neigh   | 327.33     | 327.33     | 327.33     |   0.0 | 43.89
Comm    | 5.0862     | 5.0862     | 5.0862     |   0.0 |  0.68
Output  | 0.082543   | 0.082543   | 0.082543   |   0.0 |  0.01
Modify  | 6.6416     | 6.6416     | 6.6416     |   0.0 |  0.89
Other   |            | 1.786      |            |       |  0.24

Nlocal:    19652 ave 19652 max 19652 min
Histogram: 1 0 0 0 0 0 0 0 0 0
Nghost:    17996 ave 17996 max 17996 min
Histogram: 1 0 0 0 0 0 0 0 0 0
Neighs:    1.42766e+06 ave 1.42766e+06 max 1.42766e+06 min
Histogram: 1 0 0 0 0 0 0 0 0 0

Total # of neighbors = 1427656
Ave neighs/atom = 72.6469
Neighbor list builds = 4505
Dangerous builds not checked
Setting up Verlet run ...
  Unit style    : metal
  Current step  : 80000
  Time step     : 0.001
Per MPI rank memory allocation (min/avg/max) = 18.19 | 18.19 | 18.19 Mbytes
Step Temp Press TotEng PotEng Enthalpy 
   80000    2056.9952   -193.56424   -63255.911   -68480.866   -63297.784 
   80495     2019.638    13.651074   -63533.517   -68663.582   -63530.576 
Loop time of 79.0469 on 1 procs for 495 steps with 19652 atoms

Performance: 0.541 ns/day, 44.359 hours/ns, 6.262 timesteps/s
99.9% CPU use with 1 MPI tasks x no OpenMP threads

MPI task timing breakdown:
Section |  min time  |  avg time  |  max time  |%varavg| %total
---------------------------------------------------------------
Pair    | 43.255     | 43.255     | 43.255     |   0.0 | 54.72
Neigh   | 34.311     | 34.311     | 34.311     |   0.0 | 43.41
Comm    | 0.55226    | 0.55226    | 0.55226    |   0.0 |  0.70
Output  | 0.00018096 | 0.00018096 | 0.00018096 |   0.0 |  0.00
Modify  | 0.7233     | 0.7233     | 0.7233     |   0.0 |  0.92
Other   |            | 0.2047     |            |       |  0.26

Nlocal:    19652 ave 19652 max 19652 min
Histogram: 1 0 0 0 0 0 0 0 0 0
Nghost:    18098 ave 18098 max 18098 min
Histogram: 1 0 0 0 0 0 0 0 0 0
Neighs:    1.43288e+06 ave 1.43288e+06 max 1.43288e+06 min
Histogram: 1 0 0 0 0 0 0 0 0 0

Total # of neighbors = 1432878
Ave neighs/atom = 72.9126
Neighbor list builds = 495
Dangerous builds not checked
Setting up Verlet run ...
  Unit style    : metal
  Current step  : 80495
  Time step     : 0.001
Per MPI rank memory allocation (min/avg/max) = 18.19 | 18.19 | 18.19 Mbytes
Step Temp Press TotEng PotEng Enthalpy 
   80495     2019.638    13.651074   -63533.517   -68663.582   -63530.576 
   85000    2004.0053   -750.35491   -63580.098   -68670.454   -63741.948 
Loop time of 785.202 on 1 procs for 4505 steps with 19652 atoms

Performance: 0.496 ns/day, 48.415 hours/ns, 5.737 timesteps/s
98.2% CPU use with 1 MPI tasks x no OpenMP threads

MPI task timing breakdown:
Section |  min time  |  avg time  |  max time  |%varavg| %total
---------------------------------------------------------------
Pair    | 434.24     | 434.24     | 434.24     |   0.0 | 55.30
Neigh   | 336.48     | 336.48     | 336.48     |   0.0 | 42.85
Comm    | 5.4793     | 5.4793     | 5.4793     |   0.0 |  0.70
Output  | 0.082151   | 0.082151   | 0.082151   |   0.0 |  0.01
Modify  | 6.971      | 6.971      | 6.971      |   0.0 |  0.89
Other   |            | 1.948      |            |       |  0.25

Nlocal:    19652 ave 19652 max 19652 min
Histogram: 1 0 0 0 0 0 0 0 0 0
Nghost:    18086 ave 18086 max 18086 min
Histogram: 1 0 0 0 0 0 0 0 0 0
Neighs:    1.43146e+06 ave 1.43146e+06 max 1.43146e+06 min
Histogram: 1 0 0 0 0 0 0 0 0 0

Total # of neighbors = 1431463
Ave neighs/atom = 72.8406
Neighbor list builds = 4505
Dangerous builds not checked
Setting up Verlet run ...
  Unit style    : metal
  Current step  : 85000
  Time step     : 0.001
Per MPI rank memory allocation (min/avg/max) = 18.19 | 18.19 | 18.19 Mbytes
Step Temp Press TotEng PotEng Enthalpy 
   85000    2004.0053   -750.35491   -63580.098   -68670.454   -63741.948 
   85495    1962.8331    1039.8816   -63827.122   -68812.897   -63603.818 
Loop time of 78.9948 on 1 procs for 495 steps with 19652 atoms

Performance: 0.541 ns/day, 44.329 hours/ns, 6.266 timesteps/s
98.3% CPU use with 1 MPI tasks x no OpenMP threads

MPI task timing breakdown:
Section |  min time  |  avg time  |  max time  |%varavg| %total
---------------------------------------------------------------
Pair    | 43.29      | 43.29      | 43.29      |   0.0 | 54.80
Neigh   | 34.294     | 34.294     | 34.294     |   0.0 | 43.41
Comm    | 0.52226    | 0.52226    | 0.52226    |   0.0 |  0.66
Output  | 0.00014997 | 0.00014997 | 0.00014997 |   0.0 |  0.00
Modify  | 0.70665    | 0.70665    | 0.70665    |   0.0 |  0.89
Other   |            | 0.1816     |            |       |  0.23

Nlocal:    19652 ave 19652 max 19652 min
Histogram: 1 0 0 0 0 0 0 0 0 0
Nghost:    18051 ave 18051 max 18051 min
Histogram: 1 0 0 0 0 0 0 0 0 0
Neighs:    1.43785e+06 ave 1.43785e+06 max 1.43785e+06 min
Histogram: 1 0 0 0 0 0 0 0 0 0

Total # of neighbors = 1437848
Ave neighs/atom = 73.1655
Neighbor list builds = 495
Dangerous builds not checked
Setting up Verlet run ...
  Unit style    : metal
  Current step  : 85495
  Time step     : 0.001
Per MPI rank memory allocation (min/avg/max) = 18.19 | 18.19 | 18.19 Mbytes
Step Temp Press TotEng PotEng Enthalpy 
   85495    1962.8331    1039.8816   -63827.122   -68812.897   -63603.818 
   90000    1944.1453   -313.55862   -63936.545   -68874.852   -64003.857 
Loop time of 702.857 on 1 procs for 4505 steps with 19652 atoms

Performance: 0.554 ns/day, 43.338 hours/ns, 6.410 timesteps/s
99.0% CPU use with 1 MPI tasks x no OpenMP threads

MPI task timing breakdown:
Section |  min time  |  avg time  |  max time  |%varavg| %total
---------------------------------------------------------------
Pair    | 382.68     | 382.68     | 382.68     |   0.0 | 54.45
Neigh   | 307.47     | 307.47     | 307.47     |   0.0 | 43.75
Comm    | 4.7997     | 4.7997     | 4.7997     |   0.0 |  0.68
Output  | 0.076388   | 0.076388   | 0.076388   |   0.0 |  0.01
Modify  | 6.1911     | 6.1911     | 6.1911     |   0.0 |  0.88
Other   |            | 1.637      |            |       |  0.23

Nlocal:    19652 ave 19652 max 19652 min
Histogram: 1 0 0 0 0 0 0 0 0 0
Nghost:    18129 ave 18129 max 18129 min
Histogram: 1 0 0 0 0 0 0 0 0 0
Neighs:    1.43769e+06 ave 1.43769e+06 max 1.43769e+06 min
Histogram: 1 0 0 0 0 0 0 0 0 0

Total # of neighbors = 1437686
Ave neighs/atom = 73.1572
Neighbor list builds = 4505
Dangerous builds not checked
Setting up Verlet run ...
  Unit style    : metal
  Current step  : 90000
  Time step     : 0.001
Per MPI rank memory allocation (min/avg/max) = 18.19 | 18.19 | 18.19 Mbytes
Step Temp Press TotEng PotEng Enthalpy 
   90000    1944.1453   -313.55862   -63936.545   -68874.852   -64003.857 
   90495    1906.3466   -143.25023   -64174.488   -69016.782   -64205.128 
Loop time of 74.9954 on 1 procs for 495 steps with 19652 atoms

Performance: 0.570 ns/day, 42.085 hours/ns, 6.600 timesteps/s
97.5% CPU use with 1 MPI tasks x no OpenMP threads

MPI task timing breakdown:
Section |  min time  |  avg time  |  max time  |%varavg| %total
---------------------------------------------------------------
Pair    | 40.921     | 40.921     | 40.921     |   0.0 | 54.56
Neigh   | 32.705     | 32.705     | 32.705     |   0.0 | 43.61
Comm    | 0.51978    | 0.51978    | 0.51978    |   0.0 |  0.69
Output  | 0.00012302 | 0.00012302 | 0.00012302 |   0.0 |  0.00
Modify  | 0.66851    | 0.66851    | 0.66851    |   0.0 |  0.89
Other   |            | 0.1814     |            |       |  0.24

Nlocal:    19652 ave 19652 max 19652 min
Histogram: 1 0 0 0 0 0 0 0 0 0
Nghost:    18064 ave 18064 max 18064 min
Histogram: 1 0 0 0 0 0 0 0 0 0
Neighs:    1.44306e+06 ave 1.44306e+06 max 1.44306e+06 min
Histogram: 1 0 0 0 0 0 0 0 0 0

Total # of neighbors = 1443065
Ave neighs/atom = 73.4309
Neighbor list builds = 495
Dangerous builds not checked
Setting up Verlet run ...
  Unit style    : metal
  Current step  : 90495
  Time step     : 0.001
Per MPI rank memory allocation (min/avg/max) = 18.19 | 18.19 | 18.19 Mbytes
Step Temp Press TotEng PotEng Enthalpy 
   90495    1906.3466   -143.25023   -64174.488   -69016.782   -64205.128 
   95000    1884.5831      681.615   -64340.118    -69127.13   -64194.665 
Loop time of 701.827 on 1 procs for 4505 steps with 19652 atoms

Performance: 0.555 ns/day, 43.275 hours/ns, 6.419 timesteps/s
98.5% CPU use with 1 MPI tasks x no OpenMP threads

MPI task timing breakdown:
Section |  min time  |  avg time  |  max time  |%varavg| %total
---------------------------------------------------------------
Pair    | 380.1      | 380.1      | 380.1      |   0.0 | 54.16
Neigh   | 308.85     | 308.85     | 308.85     |   0.0 | 44.01
Comm    | 4.7979     | 4.7979     | 4.7979     |   0.0 |  0.68
Output  | 0.077085   | 0.077085   | 0.077085   |   0.0 |  0.01
Modify  | 6.3404     | 6.3404     | 6.3404     |   0.0 |  0.90
Other   |            | 1.654      |            |       |  0.24

Nlocal:    19652 ave 19652 max 19652 min
Histogram: 1 0 0 0 0 0 0 0 0 0
Nghost:    18142 ave 18142 max 18142 min
Histogram: 1 0 0 0 0 0 0 0 0 0
Neighs:    1.44652e+06 ave 1.44652e+06 max 1.44652e+06 min
Histogram: 1 0 0 0 0 0 0 0 0 0

Total # of neighbors = 1446523
Ave neighs/atom = 73.6069
Neighbor list builds = 4505
Dangerous builds not checked
Setting up Verlet run ...
  Unit style    : metal
  Current step  : 95000
  Time step     : 0.001
Per MPI rank memory allocation (min/avg/max) = 18.19 | 18.19 | 18.19 Mbytes
Step Temp Press TotEng PotEng Enthalpy 
   95000    1884.5831      681.615   -64340.118    -69127.13   -64194.665 
   95495    1873.9254     1057.674   -64519.102   -69279.043   -64294.208 
Loop time of 81.0809 on 1 procs for 495 steps with 19652 atoms

Performance: 0.527 ns/day, 45.500 hours/ns, 6.105 timesteps/s
99.5% CPU use with 1 MPI tasks x no OpenMP threads

MPI task timing breakdown:
Section |  min time  |  avg time  |  max time  |%varavg| %total
---------------------------------------------------------------
Pair    | 44.491     | 44.491     | 44.491     |   0.0 | 54.87
Neigh   | 35.038     | 35.038     | 35.038     |   0.0 | 43.21
Comm    | 0.58251    | 0.58251    | 0.58251    |   0.0 |  0.72
Output  | 0.00016212 | 0.00016212 | 0.00016212 |   0.0 |  0.00
Modify  | 0.75776    | 0.75776    | 0.75776    |   0.0 |  0.93
Other   |            | 0.2119     |            |       |  0.26

Nlocal:    19652 ave 19652 max 19652 min
Histogram: 1 0 0 0 0 0 0 0 0 0
Nghost:    18134 ave 18134 max 18134 min
Histogram: 1 0 0 0 0 0 0 0 0 0
Neighs:    1.45194e+06 ave 1.45194e+06 max 1.45194e+06 min
Histogram: 1 0 0 0 0 0 0 0 0 0

Total # of neighbors = 1451937
Ave neighs/atom = 73.8824
Neighbor list builds = 495
Dangerous builds not checked
Setting up Verlet run ...
  Unit style    : metal
  Current step  : 95495
  Time step     : 0.001
Per MPI rank memory allocation (min/avg/max) = 18.19 | 18.19 | 18.19 Mbytes
Step Temp Press TotEng PotEng Enthalpy 
   95495    1873.9254     1057.674   -64519.102   -69279.043   -64294.208 
  100000    1822.7316   -1712.8814   -64702.306    -69332.21   -65066.872 
Loop time of 791.26 on 1 procs for 4505 steps with 19652 atoms

Performance: 0.492 ns/day, 48.789 hours/ns, 5.693 timesteps/s
99.3% CPU use with 1 MPI tasks x no OpenMP threads

MPI task timing breakdown:
Section |  min time  |  avg time  |  max time  |%varavg| %total
---------------------------------------------------------------
Pair    | 438.33     | 438.33     | 438.33     |   0.0 | 55.40
Neigh   | 338.2      | 338.2      | 338.2      |   0.0 | 42.74
Comm    | 5.5856     | 5.5856     | 5.5856     |   0.0 |  0.71
Output  | 0.083894   | 0.083894   | 0.083894   |   0.0 |  0.01
Modify  | 7.085      | 7.085      | 7.085      |   0.0 |  0.90
Other   |            | 1.976      |            |       |  0.25

Nlocal:    19652 ave 19652 max 19652 min
Histogram: 1 0 0 0 0 0 0 0 0 0
Nghost:    18125 ave 18125 max 18125 min
Histogram: 1 0 0 0 0 0 0 0 0 0
Neighs:    1.45094e+06 ave 1.45094e+06 max 1.45094e+06 min
Histogram: 1 0 0 0 0 0 0 0 0 0

Total # of neighbors = 1450935
Ave neighs/atom = 73.8314
Neighbor list builds = 4505
Dangerous builds not checked
Setting up Verlet run ...
  Unit style    : metal
  Current step  : 100000
  Time step     : 0.001
Per MPI rank memory allocation (min/avg/max) = 18.19 | 18.19 | 18.19 Mbytes
Step Temp Press TotEng PotEng Enthalpy 
  100000    1822.7316   -1712.8814   -64702.306    -69332.21   -65066.872 
  100495    1817.5559    37.850737   -64797.551   -69414.309   -64789.516 
Loop time of 86.0032 on 1 procs for 495 steps with 19652 atoms

Performance: 0.497 ns/day, 48.262 hours/ns, 5.756 timesteps/s
98.6% CPU use with 1 MPI tasks x no OpenMP threads

MPI task timing breakdown:
Section |  min time  |  avg time  |  max time  |%varavg| %total
---------------------------------------------------------------
Pair    | 47.342     | 47.342     | 47.342     |   0.0 | 55.05
Neigh   | 37.062     | 37.062     | 37.062     |   0.0 | 43.09
Comm    | 0.60032    | 0.60032    | 0.60032    |   0.0 |  0.70
Output  | 0.00018692 | 0.00018692 | 0.00018692 |   0.0 |  0.00
Modify  | 0.78202    | 0.78202    | 0.78202    |   0.0 |  0.91
Other   |            | 0.2163     |            |       |  0.25

Nlocal:    19652 ave 19652 max 19652 min
Histogram: 1 0 0 0 0 0 0 0 0 0
Nghost:    18128 ave 18128 max 18128 min
Histogram: 1 0 0 0 0 0 0 0 0 0
Neighs:    1.45388e+06 ave 1.45388e+06 max 1.45388e+06 min
Histogram: 1 0 0 0 0 0 0 0 0 0

Total # of neighbors = 1453884
Ave neighs/atom = 73.9815
Neighbor list builds = 495
Dangerous builds not checked
Setting up Verlet run ...
  Unit style    : metal
  Current step  : 100495
  Time step     : 0.001
Per MPI rank memory allocation (min/avg/max) = 18.19 | 18.19 | 18.19 Mbytes
Step Temp Press TotEng PotEng Enthalpy 
  100495    1817.5559    37.850737   -64797.551   -69414.309   -64789.516 
  105000    1804.6553    1888.4393   -64948.105   -69532.094   -64548.806 
Loop time of 751.625 on 1 procs for 4505 steps with 19652 atoms

Performance: 0.518 ns/day, 46.345 hours/ns, 5.994 timesteps/s
99.2% CPU use with 1 MPI tasks x no OpenMP threads

MPI task timing breakdown:
Section |  min time  |  avg time  |  max time  |%varavg| %total
---------------------------------------------------------------
Pair    | 409.97     | 409.97     | 409.97     |   0.0 | 54.54
Neigh   | 327.75     | 327.75     | 327.75     |   0.0 | 43.61
Comm    | 5.1459     | 5.1459     | 5.1459     |   0.0 |  0.68
Output  | 0.084685   | 0.084685   | 0.084685   |   0.0 |  0.01
Modify  | 6.8195     | 6.8195     | 6.8195     |   0.0 |  0.91
Other   |            | 1.851      |            |       |  0.25

Nlocal:    19652 ave 19652 max 19652 min
Histogram: 1 0 0 0 0 0 0 0 0 0
Nghost:    18175 ave 18175 max 18175 min
Histogram: 1 0 0 0 0 0 0 0 0 0
Neighs:    1.45931e+06 ave 1.45931e+06 max 1.45931e+06 min
Histogram: 1 0 0 0 0 0 0 0 0 0

Total # of neighbors = 1459306
Ave neighs/atom = 74.2574
Neighbor list builds = 4505
Dangerous builds not checked
Setting up Verlet run ...
  Unit style    : metal
  Current step  : 105000
  Time step     : 0.001
Per MPI rank memory allocation (min/avg/max) = 18.19 | 18.19 | 18.19 Mbytes
Step Temp Press TotEng PotEng Enthalpy 
  105000    1804.6553    1888.4393   -64948.105   -69532.094   -64548.806 
  105495    1758.3175   -85.690073   -65188.565   -69654.852   -65206.665 
Loop time of 83.8651 on 1 procs for 495 steps with 19652 atoms

Performance: 0.510 ns/day, 47.062 hours/ns, 5.902 timesteps/s
98.7% CPU use with 1 MPI tasks x no OpenMP threads

MPI task timing breakdown:
Section |  min time  |  avg time  |  max time  |%varavg| %total
---------------------------------------------------------------
Pair    | 46.293     | 46.293     | 46.293     |   0.0 | 55.20
Neigh   | 35.949     | 35.949     | 35.949     |   0.0 | 42.87
Comm    | 0.60745    | 0.60745    | 0.60745    |   0.0 |  0.72
Output  | 0.000144   | 0.000144   | 0.000144   |   0.0 |  0.00
Modify  | 0.78609    | 0.78609    | 0.78609    |   0.0 |  0.94
Other   |            | 0.2287     |            |       |  0.27

Nlocal:    19652 ave 19652 max 19652 min
Histogram: 1 0 0 0 0 0 0 0 0 0
Nghost:    18219 ave 18219 max 18219 min
Histogram: 1 0 0 0 0 0 0 0 0 0
Neighs:    1.46095e+06 ave 1.46095e+06 max 1.46095e+06 min
Histogram: 1 0 0 0 0 0 0 0 0 0

Total # of neighbors = 1460951
Ave neighs/atom = 74.3411
Neighbor list builds = 495
Dangerous builds not checked
Setting up Verlet run ...
  Unit style    : metal
  Current step  : 105495
  Time step     : 0.001
Per MPI rank memory allocation (min/avg/max) = 18.19 | 18.19 | 18.19 Mbytes
Step Temp Press TotEng PotEng Enthalpy 
  105495    1758.3175   -85.690073   -65188.565   -69654.852   -65206.665 
  110000    1747.9753   -580.63405   -65275.818   -69715.835   -65398.363 
Loop time of 767.118 on 1 procs for 4505 steps with 19652 atoms

Performance: 0.507 ns/day, 47.300 hours/ns, 5.873 timesteps/s
97.7% CPU use with 1 MPI tasks x no OpenMP threads

MPI task timing breakdown:
Section |  min time  |  avg time  |  max time  |%varavg| %total
---------------------------------------------------------------
Pair    | 422.67     | 422.67     | 422.67     |   0.0 | 55.10
Neigh   | 330.1      | 330.1      | 330.1      |   0.0 | 43.03
Comm    | 5.4142     | 5.4142     | 5.4142     |   0.0 |  0.71
Output  | 0.081018   | 0.081018   | 0.081018   |   0.0 |  0.01
Modify  | 6.8783     | 6.8783     | 6.8783     |   0.0 |  0.90
Other   |            | 1.968      |            |       |  0.26

Nlocal:    19652 ave 19652 max 19652 min
Histogram: 1 0 0 0 0 0 0 0 0 0
Nghost:    18162 ave 18162 max 18162 min
Histogram: 1 0 0 0 0 0 0 0 0 0
Neighs:    1.46338e+06 ave 1.46338e+06 max 1.46338e+06 min
Histogram: 1 0 0 0 0 0 0 0 0 0

Total # of neighbors = 1463377
Ave neighs/atom = 74.4645
Neighbor list builds = 4505
Dangerous builds not checked
Setting up Verlet run ...
  Unit style    : metal
  Current step  : 110000
  Time step     : 0.001
Per MPI rank memory allocation (min/avg/max) = 18.19 | 18.19 | 18.19 Mbytes
Step Temp Press TotEng PotEng Enthalpy 
  110000    1747.9753   -580.63405   -65275.818   -69715.835   -65398.363 
  110495     1720.764     65.93623   -65560.915   -69931.813   -65547.063 
Loop time of 92.0133 on 1 procs for 495 steps with 19652 atoms

Performance: 0.465 ns/day, 51.635 hours/ns, 5.380 timesteps/s
95.2% CPU use with 1 MPI tasks x no OpenMP threads

MPI task timing breakdown:
Section |  min time  |  avg time  |  max time  |%varavg| %total
---------------------------------------------------------------
Pair    | 50.629     | 50.629     | 50.629     |   0.0 | 55.02
Neigh   | 39.666     | 39.666     | 39.666     |   0.0 | 43.11
Comm    | 0.64588    | 0.64588    | 0.64588    |   0.0 |  0.70
Output  | 0.00017381 | 0.00017381 | 0.00017381 |   0.0 |  0.00
Modify  | 0.84121    | 0.84121    | 0.84121    |   0.0 |  0.91
Other   |            | 0.2309     |            |       |  0.25

Nlocal:    19652 ave 19652 max 19652 min
Histogram: 1 0 0 0 0 0 0 0 0 0
Nghost:    18178 ave 18178 max 18178 min
Histogram: 1 0 0 0 0 0 0 0 0 0
Neighs:    1.46954e+06 ave 1.46954e+06 max 1.46954e+06 min
Histogram: 1 0 0 0 0 0 0 0 0 0

Total # of neighbors = 1469542
Ave neighs/atom = 74.7782
Neighbor list builds = 495
Dangerous builds not checked
Setting up Verlet run ...
  Unit style    : metal
  Current step  : 110495
  Time step     : 0.001
Per MPI rank memory allocation (min/avg/max) = 18.19 | 18.19 | 18.19 Mbytes
Step Temp Press TotEng PotEng Enthalpy 
  110495     1720.764     65.93623   -65560.915   -69931.813   -65547.063 
  115000    1701.2636    675.06246   -65667.192   -69988.557   -65525.607 
Loop time of 716.854 on 1 procs for 4505 steps with 19652 atoms

Performance: 0.543 ns/day, 44.201 hours/ns, 6.284 timesteps/s
98.6% CPU use with 1 MPI tasks x no OpenMP threads

MPI task timing breakdown:
Section |  min time  |  avg time  |  max time  |%varavg| %total
---------------------------------------------------------------
Pair    | 391.39     | 391.39     | 391.39     |   0.0 | 54.60
Neigh   | 312.05     | 312.05     | 312.05     |   0.0 | 43.53
Comm    | 5.0237     | 5.0237     | 5.0237     |   0.0 |  0.70
Output  | 0.169      | 0.169      | 0.169      |   0.0 |  0.02
Modify  | 6.4362     | 6.4362     | 6.4362     |   0.0 |  0.90
Other   |            | 1.786      |            |       |  0.25

Nlocal:    19652 ave 19652 max 19652 min
Histogram: 1 0 0 0 0 0 0 0 0 0
Nghost:    18236 ave 18236 max 18236 min
Histogram: 1 0 0 0 0 0 0 0 0 0
Neighs:    1.47168e+06 ave 1.47168e+06 max 1.47168e+06 min
Histogram: 1 0 0 0 0 0 0 0 0 0

Total # of neighbors = 1471681
Ave neighs/atom = 74.8871
Neighbor list builds = 4505
Dangerous builds not checked
Setting up Verlet run ...
  Unit style    : metal
  Current step  : 115000
  Time step     : 0.001
Per MPI rank memory allocation (min/avg/max) = 18.19 | 18.19 | 18.19 Mbytes
Step Temp Press TotEng PotEng Enthalpy 
  115000    1701.2636    675.06246   -65667.192   -69988.557   -65525.607 
  115495    1668.1408    69.763887   -65875.683   -70112.912   -65861.078 
Loop time of 76.8085 on 1 procs for 495 steps with 19652 atoms

Performance: 0.557 ns/day, 43.102 hours/ns, 6.445 timesteps/s
99.3% CPU use with 1 MPI tasks x no OpenMP threads

MPI task timing breakdown:
Section |  min time  |  avg time  |  max time  |%varavg| %total
---------------------------------------------------------------
Pair    | 41.79      | 41.79      | 41.79      |   0.0 | 54.41
Neigh   | 33.603     | 33.603     | 33.603     |   0.0 | 43.75
Comm    | 0.53136    | 0.53136    | 0.53136    |   0.0 |  0.69
Output  | 0.00016499 | 0.00016499 | 0.00016499 |   0.0 |  0.00
Modify  | 0.69791    | 0.69791    | 0.69791    |   0.0 |  0.91
Other   |            | 0.1868     |            |       |  0.24

Nlocal:    19652 ave 19652 max 19652 min
Histogram: 1 0 0 0 0 0 0 0 0 0
Nghost:    18231 ave 18231 max 18231 min
Histogram: 1 0 0 0 0 0 0 0 0 0
Neighs:    1.47429e+06 ave 1.47429e+06 max 1.47429e+06 min
Histogram: 1 0 0 0 0 0 0 0 0 0

Total # of neighbors = 1474286
Ave neighs/atom = 75.0196
Neighbor list builds = 495
Dangerous builds not checked
Setting up Verlet run ...
  Unit style    : metal
  Current step  : 115495
  Time step     : 0.001
Per MPI rank memory allocation (min/avg/max) = 18.19 | 18.19 | 18.19 Mbytes
Step Temp Press TotEng PotEng Enthalpy 
  115495    1668.1408    69.763887   -65875.683   -70112.912   -65861.078 
  120000    1647.1978   -1823.9417   -66000.871   -70184.903   -66382.798 
Loop time of 728.202 on 1 procs for 4505 steps with 19652 atoms

Performance: 0.535 ns/day, 44.901 hours/ns, 6.186 timesteps/s
98.5% CPU use with 1 MPI tasks x no OpenMP threads

MPI task timing breakdown:
Section |  min time  |  avg time  |  max time  |%varavg| %total
---------------------------------------------------------------
Pair    | 398.87     | 398.87     | 398.87     |   0.0 | 54.77
Neigh   | 315.85     | 315.85     | 315.85     |   0.0 | 43.37
Comm    | 5.0737     | 5.0737     | 5.0737     |   0.0 |  0.70
Output  | 0.058613   | 0.058613   | 0.058613   |   0.0 |  0.01
Modify  | 6.5479     | 6.5479     | 6.5479     |   0.0 |  0.90
Other   |            | 1.803      |            |       |  0.25

Nlocal:    19652 ave 19652 max 19652 min
Histogram: 1 0 0 0 0 0 0 0 0 0
Nghost:    18260 ave 18260 max 18260 min
Histogram: 1 0 0 0 0 0 0 0 0 0
Neighs:    1.47391e+06 ave 1.47391e+06 max 1.47391e+06 min
Histogram: 1 0 0 0 0 0 0 0 0 0

Total # of neighbors = 1473914
Ave neighs/atom = 75.0007
Neighbor list builds = 4505
Dangerous builds not checked
Setting up Verlet run ...
  Unit style    : metal
  Current step  : 120000
  Time step     : 0.001
Per MPI rank memory allocation (min/avg/max) = 18.19 | 18.19 | 18.19 Mbytes
Step Temp Press TotEng PotEng Enthalpy 
  120000    1647.1978   -1823.9417   -66000.871   -70184.903   -66382.798 
  120495    1616.5508   -235.78797   -66194.727   -70300.913   -66243.927 
Loop time of 73.0995 on 1 procs for 495 steps with 19652 atoms

Performance: 0.585 ns/day, 41.021 hours/ns, 6.772 timesteps/s
99.8% CPU use with 1 MPI tasks x no OpenMP threads

MPI task timing breakdown:
Section |  min time  |  avg time  |  max time  |%varavg| %total
---------------------------------------------------------------
Pair    | 39.234     | 39.234     | 39.234     |   0.0 | 53.67
Neigh   | 32.515     | 32.515     | 32.515     |   0.0 | 44.48
Comm    | 0.49707    | 0.49707    | 0.49707    |   0.0 |  0.68
Output  | 0.00012302 | 0.00012302 | 0.00012302 |   0.0 |  0.00
Modify  | 0.67177    | 0.67177    | 0.67177    |   0.0 |  0.92
Other   |            | 0.1814     |            |       |  0.25

Nlocal:    19652 ave 19652 max 19652 min
Histogram: 1 0 0 0 0 0 0 0 0 0
Nghost:    18295 ave 18295 max 18295 min
Histogram: 1 0 0 0 0 0 0 0 0 0
Neighs:    1.47915e+06 ave 1.47915e+06 max 1.47915e+06 min
Histogram: 1 0 0 0 0 0 0 0 0 0

Total # of neighbors = 1479146
Ave neighs/atom = 75.2669
Neighbor list builds = 495
Dangerous builds not checked
Setting up Verlet run ...
  Unit style    : metal
  Current step  : 120495
  Time step     : 0.001
Per MPI rank memory allocation (min/avg/max) = 18.19 | 18.19 | 18.19 Mbytes
Step Temp Press TotEng PotEng Enthalpy 
  120495    1616.5508   -235.78797   -66194.727   -70300.913   -66243.927 
  125000    1603.0829    -1491.623   -66318.105   -70390.082   -66629.164 
Loop time of 658.598 on 1 procs for 4505 steps with 19652 atoms

Performance: 0.591 ns/day, 40.609 hours/ns, 6.840 timesteps/s
99.5% CPU use with 1 MPI tasks x no OpenMP threads

MPI task timing breakdown:
Section |  min time  |  avg time  |  max time  |%varavg| %total
---------------------------------------------------------------
Pair    | 356.48     | 356.48     | 356.48     |   0.0 | 54.13
Neigh   | 289.98     | 289.98     | 289.98     |   0.0 | 44.03
Comm    | 4.5352     | 4.5352     | 4.5352     |   0.0 |  0.69
Output  | 0.079069   | 0.079069   | 0.079069   |   0.0 |  0.01
Modify  | 5.9116     | 5.9116     | 5.9116     |   0.0 |  0.90
Other   |            | 1.616      |            |       |  0.25

Nlocal:    19652 ave 19652 max 19652 min
Histogram: 1 0 0 0 0 0 0 0 0 0
Nghost:    18297 ave 18297 max 18297 min
Histogram: 1 0 0 0 0 0 0 0 0 0
Neighs:    1.48018e+06 ave 1.48018e+06 max 1.48018e+06 min
Histogram: 1 0 0 0 0 0 0 0 0 0

Total # of neighbors = 1480175
Ave neighs/atom = 75.3193
Neighbor list builds = 4505
Dangerous builds not checked
Setting up Verlet run ...
  Unit style    : metal
  Current step  : 125000
  Time step     : 0.001
Per MPI rank memory allocation (min/avg/max) = 18.19 | 18.19 | 18.19 Mbytes
Step Temp Press TotEng PotEng Enthalpy 
  125000    1603.0829    -1491.623   -66318.105   -70390.082   -66629.164 
  125495     1561.995     242.0685   -66570.692   -70538.301   -66520.432 
Loop time of 69.0155 on 1 procs for 495 steps with 19652 atoms

Performance: 0.620 ns/day, 38.729 hours/ns, 7.172 timesteps/s
99.4% CPU use with 1 MPI tasks x no OpenMP threads

MPI task timing breakdown:
Section |  min time  |  avg time  |  max time  |%varavg| %total
---------------------------------------------------------------
Pair    | 37.094     | 37.094     | 37.094     |   0.0 | 53.75
Neigh   | 30.662     | 30.662     | 30.662     |   0.0 | 44.43
Comm    | 0.46875    | 0.46875    | 0.46875    |   0.0 |  0.68
Output  | 0.00015211 | 0.00015211 | 0.00015211 |   0.0 |  0.00
Modify  | 0.6243     | 0.6243     | 0.6243     |   0.0 |  0.90
Other   |            | 0.1668     |            |       |  0.24

Nlocal:    19652 ave 19652 max 19652 min
Histogram: 1 0 0 0 0 0 0 0 0 0
Nghost:    18280 ave 18280 max 18280 min
Histogram: 1 0 0 0 0 0 0 0 0 0
Neighs:    1.48604e+06 ave 1.48604e+06 max 1.48604e+06 min
Histogram: 1 0 0 0 0 0 0 0 0 0

Total # of neighbors = 1486037
Ave neighs/atom = 75.6176
Neighbor list builds = 495
Dangerous builds not checked
Setting up Verlet run ...
  Unit style    : metal
  Current step  : 125495
  Time step     : 0.001
Per MPI rank memory allocation (min/avg/max) = 18.19 | 18.19 | 18.19 Mbytes
Step Temp Press TotEng PotEng Enthalpy 
  125495     1561.995     242.0685   -66570.692   -70538.301   -66520.432 
  130000    1544.0835   -28.058026   -66712.577    -70634.69   -66718.394 
Loop time of 656.861 on 1 procs for 4505 steps with 19652 atoms

Performance: 0.593 ns/day, 40.502 hours/ns, 6.858 timesteps/s
99.0% CPU use with 1 MPI tasks x no OpenMP threads

MPI task timing breakdown:
Section |  min time  |  avg time  |  max time  |%varavg| %total
---------------------------------------------------------------
Pair    | 354.3      | 354.3      | 354.3      |   0.0 | 53.94
Neigh   | 290.49     | 290.49     | 290.49     |   0.0 | 44.22
Comm    | 4.478      | 4.478      | 4.478      |   0.0 |  0.68
Output  | 0.10193    | 0.10193    | 0.10193    |   0.0 |  0.02
Modify  | 5.9044     | 5.9044     | 5.9044     |   0.0 |  0.90
Other   |            | 1.582      |            |       |  0.24

Nlocal:    19652 ave 19652 max 19652 min
Histogram: 1 0 0 0 0 0 0 0 0 0
Nghost:    18290 ave 18290 max 18290 min
Histogram: 1 0 0 0 0 0 0 0 0 0
Neighs:    1.4883e+06 ave 1.4883e+06 max 1.4883e+06 min
Histogram: 1 0 0 0 0 0 0 0 0 0

Total # of neighbors = 1488301
Ave neighs/atom = 75.7328
Neighbor list builds = 4505
Dangerous builds not checked
Setting up Verlet run ...
  Unit style    : metal
  Current step  : 130000
  Time step     : 0.001
Per MPI rank memory allocation (min/avg/max) = 18.19 | 18.19 | 18.19 Mbytes
Step Temp Press TotEng PotEng Enthalpy 
  130000    1544.0835   -28.058026   -66712.577    -70634.69   -66718.394 
  130495    1507.0213   -919.38729   -66904.322   -70732.294   -67094.702 
Loop time of 75.3225 on 1 procs for 495 steps with 19652 atoms

Performance: 0.568 ns/day, 42.269 hours/ns, 6.572 timesteps/s
99.4% CPU use with 1 MPI tasks x no OpenMP threads

MPI task timing breakdown:
Section |  min time  |  avg time  |  max time  |%varavg| %total
---------------------------------------------------------------
Pair    | 40.844     | 40.844     | 40.844     |   0.0 | 54.22
Neigh   | 33.083     | 33.083     | 33.083     |   0.0 | 43.92
Comm    | 0.51899    | 0.51899    | 0.51899    |   0.0 |  0.69
Output  | 0.00012898 | 0.00012898 | 0.00012898 |   0.0 |  0.00
Modify  | 0.69768    | 0.69768    | 0.69768    |   0.0 |  0.93
Other   |            | 0.1793     |            |       |  0.24

Nlocal:    19652 ave 19652 max 19652 min
Histogram: 1 0 0 0 0 0 0 0 0 0
Nghost:    18307 ave 18307 max 18307 min
Histogram: 1 0 0 0 0 0 0 0 0 0
Neighs:    1.49007e+06 ave 1.49007e+06 max 1.49007e+06 min
Histogram: 1 0 0 0 0 0 0 0 0 0

Total # of neighbors = 1490072
Ave neighs/atom = 75.8229
Neighbor list builds = 495
Dangerous builds not checked
Setting up Verlet run ...
  Unit style    : metal
  Current step  : 130495
  Time step     : 0.001
Per MPI rank memory allocation (min/avg/max) = 18.19 | 18.19 | 18.19 Mbytes
Step Temp Press TotEng PotEng Enthalpy 
  130495    1507.0213   -919.38729   -66904.322   -70732.294   -67094.702 
  135000    1479.1276   -1133.5917   -66986.556   -70743.675   -67221.321 
Loop time of 728.455 on 1 procs for 4505 steps with 19652 atoms

Performance: 0.534 ns/day, 44.916 hours/ns, 6.184 timesteps/s
98.6% CPU use with 1 MPI tasks x no OpenMP threads

MPI task timing breakdown:
Section |  min time  |  avg time  |  max time  |%varavg| %total
---------------------------------------------------------------
Pair    | 400.73     | 400.73     | 400.73     |   0.0 | 55.01
Neigh   | 314.1      | 314.1      | 314.1      |   0.0 | 43.12
Comm    | 5.0506     | 5.0506     | 5.0506     |   0.0 |  0.69
Output  | 0.26364    | 0.26364    | 0.26364    |   0.0 |  0.04
Modify  | 6.4951     | 6.4951     | 6.4951     |   0.0 |  0.89
Other   |            | 1.823      |            |       |  0.25

Nlocal:    19652 ave 19652 max 19652 min
Histogram: 1 0 0 0 0 0 0 0 0 0
Nghost:    18274 ave 18274 max 18274 min
Histogram: 1 0 0 0 0 0 0 0 0 0
Neighs:    1.4898e+06 ave 1.4898e+06 max 1.4898e+06 min
Histogram: 1 0 0 0 0 0 0 0 0 0

Total # of neighbors = 1489798
Ave neighs/atom = 75.809
Neighbor list builds = 4505
Dangerous builds not checked
Setting up Verlet run ...
  Unit style    : metal
  Current step  : 135000
  Time step     : 0.001
Per MPI rank memory allocation (min/avg/max) = 18.19 | 18.19 | 18.19 Mbytes
Step Temp Press TotEng PotEng Enthalpy 
  135000    1479.1276   -1133.5917   -66986.556   -70743.675   -67221.321 
  135495    1470.5348     202.1875   -67232.441   -70967.734   -67190.783 
Loop time of 88.1909 on 1 procs for 495 steps with 19652 atoms

Performance: 0.485 ns/day, 49.490 hours/ns, 5.613 timesteps/s
97.3% CPU use with 1 MPI tasks x no OpenMP threads

MPI task timing breakdown:
Section |  min time  |  avg time  |  max time  |%varavg| %total
---------------------------------------------------------------
Pair    | 48.531     | 48.531     | 48.531     |   0.0 | 55.03
Neigh   | 38.016     | 38.016     | 38.016     |   0.0 | 43.11
Comm    | 0.60034    | 0.60034    | 0.60034    |   0.0 |  0.68
Output  | 0.00016904 | 0.00016904 | 0.00016904 |   0.0 |  0.00
Modify  | 0.82459    | 0.82459    | 0.82459    |   0.0 |  0.94
Other   |            | 0.2187     |            |       |  0.25

Nlocal:    19652 ave 19652 max 19652 min
Histogram: 1 0 0 0 0 0 0 0 0 0
Nghost:    18366 ave 18366 max 18366 min
Histogram: 1 0 0 0 0 0 0 0 0 0
Neighs:    1.49731e+06 ave 1.49731e+06 max 1.49731e+06 min
Histogram: 1 0 0 0 0 0 0 0 0 0

Total # of neighbors = 1497311
Ave neighs/atom = 76.1913
Neighbor list builds = 495
Dangerous builds not checked
Setting up Verlet run ...
  Unit style    : metal
  Current step  : 135495
  Time step     : 0.001
Per MPI rank memory allocation (min/avg/max) = 18.19 | 18.19 | 18.19 Mbytes
Step Temp Press TotEng PotEng Enthalpy 
  135495    1470.5348     202.1875   -67232.441   -70967.734   -67190.783 
  140000    1457.5486     1622.421   -67372.901   -71075.207   -67039.775 
Loop time of 759.425 on 1 procs for 4505 steps with 19652 atoms

Performance: 0.513 ns/day, 46.826 hours/ns, 5.932 timesteps/s
98.7% CPU use with 1 MPI tasks x no OpenMP threads

MPI task timing breakdown:
Section |  min time  |  avg time  |  max time  |%varavg| %total
---------------------------------------------------------------
Pair    | 421.78     | 421.78     | 421.78     |   0.0 | 55.54
Neigh   | 323.61     | 323.61     | 323.61     |   0.0 | 42.61
Comm    | 5.3324     | 5.3324     | 5.3324     |   0.0 |  0.70
Output  | 0.082749   | 0.082749   | 0.082749   |   0.0 |  0.01
Modify  | 6.7142     | 6.7142     | 6.7142     |   0.0 |  0.88
Other   |            | 1.896      |            |       |  0.25

Nlocal:    19652 ave 19652 max 19652 min
Histogram: 1 0 0 0 0 0 0 0 0 0
Nghost:    18395 ave 18395 max 18395 min
Histogram: 1 0 0 0 0 0 0 0 0 0
Neighs:    1.50224e+06 ave 1.50224e+06 max 1.50224e+06 min
Histogram: 1 0 0 0 0 0 0 0 0 0

Total # of neighbors = 1502240
Ave neighs/atom = 76.4421
Neighbor list builds = 4505
Dangerous builds not checked
Setting up Verlet run ...
  Unit style    : metal
  Current step  : 140000
  Time step     : 0.001
Per MPI rank memory allocation (min/avg/max) = 18.19 | 18.19 | 18.19 Mbytes
Step Temp Press TotEng PotEng Enthalpy 
  140000    1457.5486     1622.421   -67372.901   -71075.207   -67039.775 
  140495    1414.7231   -273.77991   -67634.198   -71227.724   -67690.329 
Loop time of 85.7231 on 1 procs for 495 steps with 19652 atoms

Performance: 0.499 ns/day, 48.105 hours/ns, 5.774 timesteps/s
99.1% CPU use with 1 MPI tasks x no OpenMP threads

MPI task timing breakdown:
Section |  min time  |  avg time  |  max time  |%varavg| %total
---------------------------------------------------------------
Pair    | 47.55      | 47.55      | 47.55      |   0.0 | 55.47
Neigh   | 36.58      | 36.58      | 36.58      |   0.0 | 42.67
Comm    | 0.60036    | 0.60036    | 0.60036    |   0.0 |  0.70
Output  | 0.00016594 | 0.00016594 | 0.00016594 |   0.0 |  0.00
Modify  | 0.7742     | 0.7742     | 0.7742     |   0.0 |  0.90
Other   |            | 0.2179     |            |       |  0.25

Nlocal:    19652 ave 19652 max 19652 min
Histogram: 1 0 0 0 0 0 0 0 0 0
Nghost:    18435 ave 18435 max 18435 min
Histogram: 1 0 0 0 0 0 0 0 0 0
Neighs:    1.50442e+06 ave 1.50442e+06 max 1.50442e+06 min
Histogram: 1 0 0 0 0 0 0 0 0 0

Total # of neighbors = 1504424
Ave neighs/atom = 76.5532
Neighbor list builds = 495
Dangerous builds not checked
Setting up Verlet run ...
  Unit style    : metal
  Current step  : 140495
  Time step     : 0.001
Per MPI rank memory allocation (min/avg/max) = 18.19 | 18.19 | 18.19 Mbytes
Step Temp Press TotEng PotEng Enthalpy 
  140495    1414.7231   -273.77991   -67634.198   -71227.724   -67690.329 
  145000    1386.0297   -758.59407   -67828.758     -71349.4   -67984.052 
Loop time of 740.226 on 1 procs for 4505 steps with 19652 atoms

Performance: 0.526 ns/day, 45.642 hours/ns, 6.086 timesteps/s
99.2% CPU use with 1 MPI tasks x no OpenMP threads

MPI task timing breakdown:
Section |  min time  |  avg time  |  max time  |%varavg| %total
---------------------------------------------------------------
Pair    | 408.87     | 408.87     | 408.87     |   0.0 | 55.24
Neigh   | 317.77     | 317.77     | 317.77     |   0.0 | 42.93
Comm    | 5.1365     | 5.1365     | 5.1365     |   0.0 |  0.69
Output  | 0.060294   | 0.060294   | 0.060294   |   0.0 |  0.01
Modify  | 6.5521     | 6.5521     | 6.5521     |   0.0 |  0.89
Other   |            | 1.838      |            |       |  0.25

Nlocal:    19652 ave 19652 max 19652 min
Histogram: 1 0 0 0 0 0 0 0 0 0
Nghost:    18400 ave 18400 max 18400 min
Histogram: 1 0 0 0 0 0 0 0 0 0
Neighs:    1.50683e+06 ave 1.50683e+06 max 1.50683e+06 min
Histogram: 1 0 0 0 0 0 0 0 0 0

Total # of neighbors = 1506829
Ave neighs/atom = 76.6756
Neighbor list builds = 4505
Dangerous builds not checked
Setting up Verlet run ...
  Unit style    : metal
  Current step  : 145000
  Time step     : 0.001
Per MPI rank memory allocation (min/avg/max) = 18.19 | 18.19 | 18.19 Mbytes
Step Temp Press TotEng PotEng Enthalpy 
  145000    1386.0297   -758.59407   -67828.758     -71349.4   -67984.052 
  145495    1373.4288    435.81714   -67963.242   -71451.876   -67874.279 
Loop time of 82.325 on 1 procs for 495 steps with 19652 atoms

Performance: 0.520 ns/day, 46.198 hours/ns, 6.013 timesteps/s
100.0% CPU use with 1 MPI tasks x no OpenMP threads

MPI task timing breakdown:
Section |  min time  |  avg time  |  max time  |%varavg| %total
---------------------------------------------------------------
Pair    | 45.328     | 45.328     | 45.328     |   0.0 | 55.06
Neigh   | 35.49      | 35.49      | 35.49      |   0.0 | 43.11
Comm    | 0.57394    | 0.57394    | 0.57394    |   0.0 |  0.70
Output  | 0.0002048  | 0.0002048  | 0.0002048  |   0.0 |  0.00
Modify  | 0.72163    | 0.72163    | 0.72163    |   0.0 |  0.88
Other   |            | 0.2109     |            |       |  0.26

Nlocal:    19652 ave 19652 max 19652 min
Histogram: 1 0 0 0 0 0 0 0 0 0
Nghost:    18440 ave 18440 max 18440 min
Histogram: 1 0 0 0 0 0 0 0 0 0
Neighs:    1.51098e+06 ave 1.51098e+06 max 1.51098e+06 min
Histogram: 1 0 0 0 0 0 0 0 0 0

Total # of neighbors = 1510979
Ave neighs/atom = 76.8868
Neighbor list builds = 495
Dangerous builds not checked
Setting up Verlet run ...
  Unit style    : metal
  Current step  : 145495
  Time step     : 0.001
Per MPI rank memory allocation (min/avg/max) = 18.19 | 18.19 | 18.19 Mbytes
Step Temp Press TotEng PotEng Enthalpy 
  145495    1373.4288    435.81714   -67963.242   -71451.876   -67874.279 
  150000    1345.0455    -1226.787   -68102.265   -71518.803   -68352.714 
Loop time of 702.925 on 1 procs for 4505 steps with 19652 atoms

Performance: 0.554 ns/day, 43.342 hours/ns, 6.409 timesteps/s
99.0% CPU use with 1 MPI tasks x no OpenMP threads

MPI task timing breakdown:
Section |  min time  |  avg time  |  max time  |%varavg| %total
---------------------------------------------------------------
Pair    | 386.3      | 386.3      | 386.3      |   0.0 | 54.96
Neigh   | 303.71     | 303.71     | 303.71     |   0.0 | 43.21
Comm    | 4.8382     | 4.8382     | 4.8382     |   0.0 |  0.69
Output  | 0.0644     | 0.0644     | 0.0644     |   0.0 |  0.01
Modify  | 6.2876     | 6.2876     | 6.2876     |   0.0 |  0.89
Other   |            | 1.72       |            |       |  0.24

Nlocal:    19652 ave 19652 max 19652 min
Histogram: 1 0 0 0 0 0 0 0 0 0
Nghost:    18474 ave 18474 max 18474 min
Histogram: 1 0 0 0 0 0 0 0 0 0
Neighs:    1.51013e+06 ave 1.51013e+06 max 1.51013e+06 min
Histogram: 1 0 0 0 0 0 0 0 0 0

Total # of neighbors = 1510130
Ave neighs/atom = 76.8436
Neighbor list builds = 4505
Dangerous builds not checked
Setting up Verlet run ...
  Unit style    : metal
  Current step  : 150000
  Time step     : 0.001
Per MPI rank memory allocation (min/avg/max) = 18.19 | 18.19 | 18.19 Mbytes
Step Temp Press TotEng PotEng Enthalpy 
  150000    1345.0455    -1226.787   -68102.265   -71518.803   -68352.714 
  150495    1315.7564    61.043219   -68300.495   -71642.637   -68288.074 
Loop time of 72.5554 on 1 procs for 495 steps with 19652 atoms

Performance: 0.589 ns/day, 40.716 hours/ns, 6.822 timesteps/s
99.8% CPU use with 1 MPI tasks x no OpenMP threads

MPI task timing breakdown:
Section |  min time  |  avg time  |  max time  |%varavg| %total
---------------------------------------------------------------
Pair    | 39.784     | 39.784     | 39.784     |   0.0 | 54.83
Neigh   | 31.446     | 31.446     | 31.446     |   0.0 | 43.34
Comm    | 0.49576    | 0.49576    | 0.49576    |   0.0 |  0.68
Output  | 0.00012803 | 0.00012803 | 0.00012803 |   0.0 |  0.00
Modify  | 0.655      | 0.655      | 0.655      |   0.0 |  0.90
Other   |            | 0.1745     |            |       |  0.24

Nlocal:    19652 ave 19652 max 19652 min
Histogram: 1 0 0 0 0 0 0 0 0 0
Nghost:    18471 ave 18471 max 18471 min
Histogram: 1 0 0 0 0 0 0 0 0 0
Neighs:    1.51451e+06 ave 1.51451e+06 max 1.51451e+06 min
Histogram: 1 0 0 0 0 0 0 0 0 0

Total # of neighbors = 1514510
Ave neighs/atom = 77.0665
Neighbor list builds = 495
Dangerous builds not checked
Setting up Verlet run ...
  Unit style    : metal
  Current step  : 150495
  Time step     : 0.001
Per MPI rank memory allocation (min/avg/max) = 18.19 | 18.19 | 18.19 Mbytes
Step Temp Press TotEng PotEng Enthalpy 
  150495    1315.7564    61.043219   -68300.495   -71642.637   -68288.074 
  155000    1296.0487   -2405.7565   -68471.807   -71763.889   -68961.271 
Loop time of 689.558 on 1 procs for 4505 steps with 19652 atoms

Performance: 0.564 ns/day, 42.518 hours/ns, 6.533 timesteps/s
98.9% CPU use with 1 MPI tasks x no OpenMP threads

MPI task timing breakdown:
Section |  min time  |  avg time  |  max time  |%varavg| %total
---------------------------------------------------------------
Pair    | 380.67     | 380.67     | 380.67     |   0.0 | 55.21
Neigh   | 296.25     | 296.25     | 296.25     |   0.0 | 42.96
Comm    | 4.7243     | 4.7243     | 4.7243     |   0.0 |  0.69
Output  | 0.083951   | 0.083951   | 0.083951   |   0.0 |  0.01
Modify  | 6.2057     | 6.2057     | 6.2057     |   0.0 |  0.90
Other   |            | 1.623      |            |       |  0.24

Nlocal:    19652 ave 19652 max 19652 min
Histogram: 1 0 0 0 0 0 0 0 0 0
Nghost:    18416 ave 18416 max 18416 min
Histogram: 1 0 0 0 0 0 0 0 0 0
Neighs:    1.51541e+06 ave 1.51541e+06 max 1.51541e+06 min
Histogram: 1 0 0 0 0 0 0 0 0 0

Total # of neighbors = 1515411
Ave neighs/atom = 77.1123
Neighbor list builds = 4505
Dangerous builds not checked
Setting up Verlet run ...
  Unit style    : metal
  Current step  : 155000
  Time step     : 0.001
Per MPI rank memory allocation (min/avg/max) = 18.19 | 18.19 | 18.19 Mbytes
Step Temp Press TotEng PotEng Enthalpy 
  155000    1296.0487   -2405.7565   -68471.807   -71763.889   -68961.271 
  155495    1276.7158    987.92991   -68690.682   -71933.656   -68490.747 
Loop time of 69.1581 on 1 procs for 495 steps with 19652 atoms

Performance: 0.618 ns/day, 38.809 hours/ns, 7.158 timesteps/s
99.2% CPU use with 1 MPI tasks x no OpenMP threads

MPI task timing breakdown:
Section |  min time  |  avg time  |  max time  |%varavg| %total
---------------------------------------------------------------
Pair    | 37.809     | 37.809     | 37.809     |   0.0 | 54.67
Neigh   | 30.096     | 30.096     | 30.096     |   0.0 | 43.52
Comm    | 0.4762     | 0.4762     | 0.4762     |   0.0 |  0.69
Output  | 0.0001359  | 0.0001359  | 0.0001359  |   0.0 |  0.00
Modify  | 0.6138     | 0.6138     | 0.6138     |   0.0 |  0.89
Other   |            | 0.1631     |            |       |  0.24

Nlocal:    19652 ave 19652 max 19652 min
Histogram: 1 0 0 0 0 0 0 0 0 0
Nghost:    18494 ave 18494 max 18494 min
Histogram: 1 0 0 0 0 0 0 0 0 0
Neighs:    1.52248e+06 ave 1.52248e+06 max 1.52248e+06 min
Histogram: 1 0 0 0 0 0 0 0 0 0

Total # of neighbors = 1522482
Ave neighs/atom = 77.4721
Neighbor list builds = 495
Dangerous builds not checked
Setting up Verlet run ...
  Unit style    : metal
  Current step  : 155495
  Time step     : 0.001
Per MPI rank memory allocation (min/avg/max) = 18.19 | 18.19 | 18.19 Mbytes
Step Temp Press TotEng PotEng Enthalpy 
  155495    1276.7158    987.92991   -68690.682   -71933.656   -68490.747 
  160000    1250.4999    1030.2273   -68846.042   -72022.426   -68637.909 
Loop time of 694.226 on 1 procs for 4505 steps with 19652 atoms

Performance: 0.561 ns/day, 42.806 hours/ns, 6.489 timesteps/s
98.8% CPU use with 1 MPI tasks x no OpenMP threads

MPI task timing breakdown:
Section |  min time  |  avg time  |  max time  |%varavg| %total
---------------------------------------------------------------
Pair    | 382.68     | 382.68     | 382.68     |   0.0 | 55.12
Neigh   | 298.73     | 298.73     | 298.73     |   0.0 | 43.03
Comm    | 4.7821     | 4.7821     | 4.7821     |   0.0 |  0.69
Output  | 0.16216    | 0.16216    | 0.16216    |   0.0 |  0.02
Modify  | 6.2068     | 6.2068     | 6.2068     |   0.0 |  0.89
Other   |            | 1.659      |            |       |  0.24

Nlocal:    19652 ave 19652 max 19652 min
Histogram: 1 0 0 0 0 0 0 0 0 0
Nghost:    18553 ave 18553 max 18553 min
Histogram: 1 0 0 0 0 0 0 0 0 0
Neighs:    1.52526e+06 ave 1.52526e+06 max 1.52526e+06 min
Histogram: 1 0 0 0 0 0 0 0 0 0

Total # of neighbors = 1525260
Ave neighs/atom = 77.6135
Neighbor list builds = 4505
Dangerous builds not checked
Setting up Verlet run ...
  Unit style    : metal
  Current step  : 160000
  Time step     : 0.001
Per MPI rank memory allocation (min/avg/max) = 18.19 | 18.19 | 18.19 Mbytes
Step Temp Press TotEng PotEng Enthalpy 
  160000    1250.4999    1030.2273   -68846.042   -72022.426   -68637.909 
  160495    1208.9354    177.15881   -69024.289   -72095.095   -68988.526 
Loop time of 83.2661 on 1 procs for 495 steps with 19652 atoms

Performance: 0.514 ns/day, 46.726 hours/ns, 5.945 timesteps/s
99.9% CPU use with 1 MPI tasks x no OpenMP threads

MPI task timing breakdown:
Section |  min time  |  avg time  |  max time  |%varavg| %total
---------------------------------------------------------------
Pair    | 46.559     | 46.559     | 46.559     |   0.0 | 55.92
Neigh   | 35.153     | 35.153     | 35.153     |   0.0 | 42.22
Comm    | 0.59759    | 0.59759    | 0.59759    |   0.0 |  0.72
Output  | 0.000211   | 0.000211   | 0.000211   |   0.0 |  0.00
Modify  | 0.74615    | 0.74615    | 0.74615    |   0.0 |  0.90
Other   |            | 0.211      |            |       |  0.25

Nlocal:    19652 ave 19652 max 19652 min
Histogram: 1 0 0 0 0 0 0 0 0 0
Nghost:    18514 ave 18514 max 18514 min
Histogram: 1 0 0 0 0 0 0 0 0 0
Neighs:    1.52627e+06 ave 1.52627e+06 max 1.52627e+06 min
Histogram: 1 0 0 0 0 0 0 0 0 0

Total # of neighbors = 1526266
Ave neighs/atom = 77.6647
Neighbor list builds = 495
Dangerous builds not checked
Setting up Verlet run ...
  Unit style    : metal
  Current step  : 160495
  Time step     : 0.001
Per MPI rank memory allocation (min/avg/max) = 18.19 | 18.19 | 18.19 Mbytes
Step Temp Press TotEng PotEng Enthalpy 
  160495    1208.9354    177.15881   -69024.289   -72095.095   -68988.526 
  165000    1196.8805    10.914814   -69197.023   -72237.209   -69194.825 
Loop time of 741.473 on 1 procs for 4505 steps with 19652 atoms

Performance: 0.525 ns/day, 45.719 hours/ns, 6.076 timesteps/s
98.8% CPU use with 1 MPI tasks x no OpenMP threads

MPI task timing breakdown:
Section |  min time  |  avg time  |  max time  |%varavg| %total
---------------------------------------------------------------
Pair    | 413.78     | 413.78     | 413.78     |   0.0 | 55.80
Neigh   | 314.07     | 314.07     | 314.07     |   0.0 | 42.36
Comm    | 5.1822     | 5.1822     | 5.1822     |   0.0 |  0.70
Output  | 0.066029   | 0.066029   | 0.066029   |   0.0 |  0.01
Modify  | 6.5243     | 6.5243     | 6.5243     |   0.0 |  0.88
Other   |            | 1.857      |            |       |  0.25

Nlocal:    19652 ave 19652 max 19652 min
Histogram: 1 0 0 0 0 0 0 0 0 0
Nghost:    18526 ave 18526 max 18526 min
Histogram: 1 0 0 0 0 0 0 0 0 0
Neighs:    1.52992e+06 ave 1.52992e+06 max 1.52992e+06 min
Histogram: 1 0 0 0 0 0 0 0 0 0

Total # of neighbors = 1529925
Ave neighs/atom = 77.8509
Neighbor list builds = 4505
Dangerous builds not checked
Setting up Verlet run ...
  Unit style    : metal
  Current step  : 165000
  Time step     : 0.001
Per MPI rank memory allocation (min/avg/max) = 18.19 | 18.19 | 18.19 Mbytes
Step Temp Press TotEng PotEng Enthalpy 
  165000    1196.8805    10.914814   -69197.023   -72237.209   -69194.825 
  165495    1172.3478   -772.96013   -69394.315   -72372.185   -69549.719 
Loop time of 82.9668 on 1 procs for 495 steps with 19652 atoms

Performance: 0.515 ns/day, 46.558 hours/ns, 5.966 timesteps/s
97.5% CPU use with 1 MPI tasks x no OpenMP threads

MPI task timing breakdown:
Section |  min time  |  avg time  |  max time  |%varavg| %total
---------------------------------------------------------------
Pair    | 46.184     | 46.184     | 46.184     |   0.0 | 55.67
Neigh   | 35.221     | 35.221     | 35.221     |   0.0 | 42.45
Comm    | 0.60312    | 0.60312    | 0.60312    |   0.0 |  0.73
Output  | 0.00022793 | 0.00022793 | 0.00022793 |   0.0 |  0.00
Modify  | 0.7494     | 0.7494     | 0.7494     |   0.0 |  0.90
Other   |            | 0.209      |            |       |  0.25

Nlocal:    19652 ave 19652 max 19652 min
Histogram: 1 0 0 0 0 0 0 0 0 0
Nghost:    18552 ave 18552 max 18552 min
Histogram: 1 0 0 0 0 0 0 0 0 0
Neighs:    1.53196e+06 ave 1.53196e+06 max 1.53196e+06 min
Histogram: 1 0 0 0 0 0 0 0 0 0

Total # of neighbors = 1531963
Ave neighs/atom = 77.9546
Neighbor list builds = 495
Dangerous builds not checked
Setting up Verlet run ...
  Unit style    : metal
  Current step  : 165495
  Time step     : 0.001
Per MPI rank memory allocation (min/avg/max) = 18.19 | 18.19 | 18.19 Mbytes
Step Temp Press TotEng PotEng Enthalpy 
  165495    1172.3478   -772.96013   -69394.315   -72372.185   -69549.719 
  170000    1150.7032    1532.3055    -69533.47   -72456.361   -69226.398 
Loop time of 726.494 on 1 procs for 4505 steps with 19652 atoms

Performance: 0.536 ns/day, 44.796 hours/ns, 6.201 timesteps/s
[...]
Setting up Verlet run ...
  Unit style    : metal
  Current step  : 240000
  Time step     : 0.001
Per MPI rank memory allocation (min/avg/max) = 18.19 | 18.19 | 18.19 Mbytes
Step Temp Press TotEng PotEng Enthalpy 
  240000    443.66013    550.42391   -74231.616   -75358.553    -74126.24 
  240495    420.27381   -278.62535   -74371.075   -75438.609   -74424.388 
Loop time of 81.1801 on 1 procs for 495 steps with 19652 atoms

Performance: 0.527 ns/day, 45.556 hours/ns, 6.098 timesteps/s
99.2% CPU use with 1 MPI tasks x no OpenMP threads

MPI task timing breakdown:
Section |  min time  |  avg time  |  max time  |%varavg| %total
---------------------------------------------------------------
Pair    | 43.48      | 43.48      | 43.48      |   0.0 | 53.56
Neigh   | 36.247     | 36.247     | 36.247     |   0.0 | 44.65
Comm    | 0.54291    | 0.54291    | 0.54291    |   0.0 |  0.67
Output  | 0.00011897 | 0.00011897 | 0.00011897 |   0.0 |  0.00
Modify  | 0.7165     | 0.7165     | 0.7165     |   0.0 |  0.88
Other   |            | 0.1933     |            |       |  0.24

Nlocal:    19652 ave 19652 max 19652 min
Histogram: 1 0 0 0 0 0 0 0 0 0
Nghost:    18989 ave 18989 max 18989 min
Histogram: 1 0 0 0 0 0 0 0 0 0
Neighs:    1.59752e+06 ave 1.59752e+06 max 1.59752e+06 min
Histogram: 1 0 0 0 0 0 0 0 0 0

Total # of neighbors = 1597522
Ave neighs/atom = 81.2906
Neighbor list builds = 495
Dangerous builds not checked
Setting up Verlet run ...
  Unit style    : metal
  Current step  : 240495
  Time step     : 0.001
Per MPI rank memory allocation (min/avg/max) = 18.19 | 18.19 | 18.19 Mbytes
Step Temp Press TotEng PotEng Enthalpy 
  240495    420.27381   -278.62535   -74371.075   -75438.609   -74424.388 
  245000    396.69467    44.772323   -74495.341   -75502.982   -74486.785 
Loop time of 785.754 on 1 procs for 4505 steps with 19652 atoms

Performance: 0.495 ns/day, 48.450 hours/ns, 5.733 timesteps/s
98.1% CPU use with 1 MPI tasks x no OpenMP threads

MPI task timing breakdown:
Section |  min time  |  avg time  |  max time  |%varavg| %total
---------------------------------------------------------------
Pair    | 424.22     | 424.22     | 424.22     |   0.0 | 53.99
Neigh   | 347.17     | 347.17     | 347.17     |   0.0 | 44.18
Comm    | 5.4073     | 5.4073     | 5.4073     |   0.0 |  0.69
Output  | 0.10466    | 0.10466    | 0.10466    |   0.0 |  0.01
Modify  | 6.9221     | 6.9221     | 6.9221     |   0.0 |  0.88
Other   |            | 1.928      |            |       |  0.25

Nlocal:    19652 ave 19652 max 19652 min
Histogram: 1 0 0 0 0 0 0 0 0 0
Nghost:    18997 ave 18997 max 18997 min
Histogram: 1 0 0 0 0 0 0 0 0 0
Neighs:    1.59866e+06 ave 1.59866e+06 max 1.59866e+06 min
Histogram: 1 0 0 0 0 0 0 0 0 0

Total # of neighbors = 1598665
Ave neighs/atom = 81.3487
Neighbor list builds = 4505
Dangerous builds not checked
Setting up Verlet run ...
  Unit style    : metal
  Current step  : 245000
  Time step     : 0.001
Per MPI rank memory allocation (min/avg/max) = 18.19 | 18.19 | 18.19 Mbytes
Step Temp Press TotEng PotEng Enthalpy 
  245000    396.69467    44.772323   -74495.341   -75502.982   -74486.785 
  245495    370.73833   -562.03291   -74639.704   -75581.413   -74747.021 
Loop time of 80.2068 on 1 procs for 495 steps with 19652 atoms

Performance: 0.533 ns/day, 45.009 hours/ns, 6.172 timesteps/s
97.8% CPU use with 1 MPI tasks x no OpenMP threads

MPI task timing breakdown:
Section |  min time  |  avg time  |  max time  |%varavg| %total
---------------------------------------------------------------
Pair    | 42.815     | 42.815     | 42.815     |   0.0 | 53.38
Neigh   | 35.933     | 35.933     | 35.933     |   0.0 | 44.80
Comm    | 0.5574     | 0.5574     | 0.5574     |   0.0 |  0.69
Output  | 0.00013018 | 0.00013018 | 0.00013018 |   0.0 |  0.00
Modify  | 0.71171    | 0.71171    | 0.71171    |   0.0 |  0.89
Other   |            | 0.189      |            |       |  0.24

Nlocal:    19652 ave 19652 max 19652 min
Histogram: 1 0 0 0 0 0 0 0 0 0
Nghost:    18982 ave 18982 max 18982 min
Histogram: 1 0 0 0 0 0 0 0 0 0
Neighs:    1.60037e+06 ave 1.60037e+06 max 1.60037e+06 min
Histogram: 1 0 0 0 0 0 0 0 0 0

Total # of neighbors = 1600371
Ave neighs/atom = 81.4355
Neighbor list builds = 495
Dangerous builds not checked
Setting up Verlet run ...
  Unit style    : metal
  Current step  : 245495
  Time step     : 0.001
Per MPI rank memory allocation (min/avg/max) = 18.19 | 18.19 | 18.19 Mbytes
Step Temp Press TotEng PotEng Enthalpy 
  245495    370.73833   -562.03291   -74639.704   -75581.413   -74747.021 
  250000    353.17746    407.46162   -74753.817    -75650.92   -74676.138 
Loop time of 781.442 on 1 procs for 4505 steps with 19652 atoms

Performance: 0.498 ns/day, 48.184 hours/ns, 5.765 timesteps/s
89.8% CPU use with 1 MPI tasks x no OpenMP threads

MPI task timing breakdown:
Section |  min time  |  avg time  |  max time  |%varavg| %total
---------------------------------------------------------------
Pair    | 419.61     | 419.61     | 419.61     |   0.0 | 53.70
Neigh   | 347.73     | 347.73     | 347.73     |   0.0 | 44.50
Comm    | 5.3002     | 5.3002     | 5.3002     |   0.0 |  0.68
Output  | 0.17329    | 0.17329    | 0.17329    |   0.0 |  0.02
Modify  | 6.7678     | 6.7678     | 6.7678     |   0.0 |  0.87
Other   |            | 1.861      |            |       |  0.24

Nlocal:    19652 ave 19652 max 19652 min
Histogram: 1 0 0 0 0 0 0 0 0 0
Nghost:    18975 ave 18975 max 18975 min
Histogram: 1 0 0 0 0 0 0 0 0 0
Neighs:    1.60209e+06 ave 1.60209e+06 max 1.60209e+06 min
Histogram: 1 0 0 0 0 0 0 0 0 0

Total # of neighbors = 1602092
Ave neighs/atom = 81.5231
Neighbor list builds = 4505
Dangerous builds not checked
Setting up Verlet run ...
  Unit style    : metal
  Current step  : 250000
  Time step     : 0.001
Per MPI rank memory allocation (min/avg/max) = 18.19 | 18.19 | 18.19 Mbytes
Step Temp Press TotEng PotEng Enthalpy 
  250000    353.17746    407.46162   -74753.817    -75650.92   -74676.138 
  250495    323.46654    330.44469   -74907.546    -75729.18   -74844.627 
Loop time of 115.575 on 1 procs for 495 steps with 19652 atoms

Performance: 0.370 ns/day, 64.857 hours/ns, 4.283 timesteps/s
75.0% CPU use with 1 MPI tasks x no OpenMP threads

MPI task timing breakdown:
Section |  min time  |  avg time  |  max time  |%varavg| %total
---------------------------------------------------------------
Pair    | 62.687     | 62.687     | 62.687     |   0.0 | 54.24
Neigh   | 50.772     | 50.772     | 50.772     |   0.0 | 43.93
Comm    | 0.81535    | 0.81535    | 0.81535    |   0.0 |  0.71
Output  | 0.00012016 | 0.00012016 | 0.00012016 |   0.0 |  0.00
Modify  | 1.0006     | 1.0006     | 1.0006     |   0.0 |  0.87
Other   |            | 0.3002     |            |       |  0.26

Nlocal:    19652 ave 19652 max 19652 min
Histogram: 1 0 0 0 0 0 0 0 0 0
Nghost:    19013 ave 19013 max 19013 min
Histogram: 1 0 0 0 0 0 0 0 0 0
Neighs:    1.60399e+06 ave 1.60399e+06 max 1.60399e+06 min
Histogram: 1 0 0 0 0 0 0 0 0 0

Total # of neighbors = 1603987
Ave neighs/atom = 81.6195
Neighbor list builds = 495
Dangerous builds not checked
Setting up Verlet run ...
  Unit style    : metal
  Current step  : 250495
  Time step     : 0.001
Per MPI rank memory allocation (min/avg/max) = 18.19 | 18.19 | 18.19 Mbytes
Step Temp Press TotEng PotEng Enthalpy 
  250495    323.46654    330.44469   -74907.546    -75729.18   -74844.627 
  255000    301.45471   0.55810287   -75031.882   -75797.604   -75031.775 
Loop time of 845.141 on 1 procs for 4505 steps with 19652 atoms

Performance: 0.461 ns/day, 52.111 hours/ns, 5.330 timesteps/s
87.7% CPU use with 1 MPI tasks x no OpenMP threads

MPI task timing breakdown:
Section |  min time  |  avg time  |  max time  |%varavg| %total
---------------------------------------------------------------
Pair    | 456.2      | 456.2      | 456.2      |   0.0 | 53.98
Neigh   | 373.76     | 373.76     | 373.76     |   0.0 | 44.22
Comm    | 5.6273     | 5.6273     | 5.6273     |   0.0 |  0.67
Output  | 0.13446    | 0.13446    | 0.13446    |   0.0 |  0.02
Modify  | 7.3609     | 7.3609     | 7.3609     |   0.0 |  0.87
Other   |            | 2.057      |            |       |  0.24

Nlocal:    19652 ave 19652 max 19652 min
Histogram: 1 0 0 0 0 0 0 0 0 0
Nghost:    19005 ave 19005 max 19005 min
Histogram: 1 0 0 0 0 0 0 0 0 0
Neighs:    1.60439e+06 ave 1.60439e+06 max 1.60439e+06 min
Histogram: 1 0 0 0 0 0 0 0 0 0

Total # of neighbors = 1604394
Ave neighs/atom = 81.6402
Neighbor list builds = 4505
Dangerous builds not checked
Setting up Verlet run ...
  Unit style    : metal
  Current step  : 255000
  Time step     : 0.001
Per MPI rank memory allocation (min/avg/max) = 18.19 | 18.19 | 18.19 Mbytes
Step Temp Press TotEng PotEng Enthalpy 
  255000    301.45471   0.55810287   -75031.882   -75797.604   -75031.775 
  255495    273.05544    336.58345   -75169.523   -75863.108   -75105.558 
Loop time of 104.513 on 1 procs for 495 steps with 19652 atoms

Performance: 0.409 ns/day, 58.649 hours/ns, 4.736 timesteps/s
83.6% CPU use with 1 MPI tasks x no OpenMP threads

MPI task timing breakdown:
Section |  min time  |  avg time  |  max time  |%varavg| %total
---------------------------------------------------------------
Pair    | 56.755     | 56.755     | 56.755     |   0.0 | 54.30
Neigh   | 45.808     | 45.808     | 45.808     |   0.0 | 43.83
Comm    | 0.73365    | 0.73365    | 0.73365    |   0.0 |  0.70
Output  | 0.00010896 | 0.00010896 | 0.00010896 |   0.0 |  0.00
Modify  | 0.9533     | 0.9533     | 0.9533     |   0.0 |  0.91
Other   |            | 0.263      |            |       |  0.25

Nlocal:    19652 ave 19652 max 19652 min
Histogram: 1 0 0 0 0 0 0 0 0 0
Nghost:    19047 ave 19047 max 19047 min
Histogram: 1 0 0 0 0 0 0 0 0 0
Neighs:    1.60627e+06 ave 1.60627e+06 max 1.60627e+06 min
Histogram: 1 0 0 0 0 0 0 0 0 0

Total # of neighbors = 1606273
Ave neighs/atom = 81.7359
Neighbor list builds = 495
Dangerous builds not checked
Setting up Verlet run ...
  Unit style    : metal
  Current step  : 255495
  Time step     : 0.001
Per MPI rank memory allocation (min/avg/max) = 18.19 | 18.19 | 18.19 Mbytes
Step Temp Press TotEng PotEng Enthalpy 
  255495    273.05544    336.58345   -75169.523   -75863.108   -75105.558 
  260000    250.29773   -750.41181   -75296.296   -75932.075   -75438.852 
Loop time of 760.244 on 1 procs for 4505 steps with 19652 atoms

Performance: 0.512 ns/day, 46.877 hours/ns, 5.926 timesteps/s
90.7% CPU use with 1 MPI tasks x no OpenMP threads

MPI task timing breakdown:
Section |  min time  |  avg time  |  max time  |%varavg| %total
---------------------------------------------------------------
Pair    | 409.54     | 409.54     | 409.54     |   0.0 | 53.87
Neigh   | 336.92     | 336.92     | 336.92     |   0.0 | 44.32
Comm    | 5.1033     | 5.1033     | 5.1033     |   0.0 |  0.67
Output  | 0.13944    | 0.13944    | 0.13944    |   0.0 |  0.02
Modify  | 6.6516     | 6.6516     | 6.6516     |   0.0 |  0.87
Other   |            | 1.887      |            |       |  0.25

Nlocal:    19652 ave 19652 max 19652 min
Histogram: 1 0 0 0 0 0 0 0 0 0
Nghost:    19030 ave 19030 max 19030 min
Histogram: 1 0 0 0 0 0 0 0 0 0
Neighs:    1.60658e+06 ave 1.60658e+06 max 1.60658e+06 min
Histogram: 1 0 0 0 0 0 0 0 0 0

Total # of neighbors = 1606579
Ave neighs/atom = 81.7514
Neighbor list builds = 4505
Dangerous builds not checked
Setting up Verlet run ...
  Unit style    : metal
  Current step  : 260000
  Time step     : 0.001
Per MPI rank memory allocation (min/avg/max) = 18.19 | 18.19 | 18.19 Mbytes
Step Temp Press TotEng PotEng Enthalpy 
  260000    250.29773   -750.41181   -75296.296   -75932.075   -75438.852 
  260495    223.84792   -66.638891   -75430.417   -75999.012    -75443.06 
Loop time of 68.5173 on 1 procs for 495 steps with 19652 atoms

Performance: 0.624 ns/day, 38.450 hours/ns, 7.224 timesteps/s
90.7% CPU use with 1 MPI tasks x no OpenMP threads

MPI task timing breakdown:
Section |  min time  |  avg time  |  max time  |%varavg| %total
---------------------------------------------------------------
Pair    | 36.259     | 36.259     | 36.259     |   0.0 | 52.92
Neigh   | 31.065     | 31.065     | 31.065     |   0.0 | 45.34
Comm    | 0.44114    | 0.44114    | 0.44114    |   0.0 |  0.64
Output  | 0.00012302 | 0.00012302 | 0.00012302 |   0.0 |  0.00
Modify  | 0.59657    | 0.59657    | 0.59657    |   0.0 |  0.87
Other   |            | 0.1553     |            |       |  0.23

Nlocal:    19652 ave 19652 max 19652 min
Histogram: 1 0 0 0 0 0 0 0 0 0
Nghost:    19065 ave 19065 max 19065 min
Histogram: 1 0 0 0 0 0 0 0 0 0
Neighs:    1.60822e+06 ave 1.60822e+06 max 1.60822e+06 min
Histogram: 1 0 0 0 0 0 0 0 0 0

Total # of neighbors = 1608216
Ave neighs/atom = 81.8347
Neighbor list builds = 495
Dangerous builds not checked
Setting up Verlet run ...
  Unit style    : metal
  Current step  : 260495
  Time step     : 0.001
Per MPI rank memory allocation (min/avg/max) = 18.19 | 18.19 | 18.19 Mbytes
Step Temp Press TotEng PotEng Enthalpy 
  260495    223.84792   -66.638891   -75430.417   -75999.012    -75443.06 
  265000    199.14774    1195.0819   -75564.268   -76070.121   -75337.945 
Loop time of 848.341 on 1 procs for 4505 steps with 19652 atoms

Performance: 0.459 ns/day, 52.309 hours/ns, 5.310 timesteps/s
79.6% CPU use with 1 MPI tasks x no OpenMP threads

MPI task timing breakdown:
Section |  min time  |  avg time  |  max time  |%varavg| %total
---------------------------------------------------------------
Pair    | 452.31     | 452.31     | 452.31     |   0.0 | 53.32
Neigh   | 374.79     | 374.79     | 374.79     |   0.0 | 44.18
Comm    | 5.7084     | 5.7084     | 5.7084     |   0.0 |  0.67
Output  | 6.2346     | 6.2346     | 6.2346     |   0.0 |  0.73
Modify  | 7.2552     | 7.2552     | 7.2552     |   0.0 |  0.86
Other   |            | 2.051      |            |       |  0.24

Nlocal:    19652 ave 19652 max 19652 min
Histogram: 1 0 0 0 0 0 0 0 0 0
Nghost:    19110 ave 19110 max 19110 min
Histogram: 1 0 0 0 0 0 0 0 0 0
Neighs:    1.61046e+06 ave 1.61046e+06 max 1.61046e+06 min
Histogram: 1 0 0 0 0 0 0 0 0 0

Total # of neighbors = 1610461
Ave neighs/atom = 81.949
Neighbor list builds = 4505
Dangerous builds not checked
Setting up Verlet run ...
  Unit style    : metal
  Current step  : 265000
  Time step     : 0.001
Per MPI rank memory allocation (min/avg/max) = 18.19 | 18.19 | 18.19 Mbytes
Step Temp Press TotEng PotEng Enthalpy 
  265000    199.14774    1195.0819   -75564.268   -76070.121   -75337.945 
  265495    175.73984    546.57725    -75687.08   -76133.475    -75583.62 
Loop time of 81.468 on 1 procs for 495 steps with 19652 atoms

Performance: 0.525 ns/day, 45.717 hours/ns, 6.076 timesteps/s
88.8% CPU use with 1 MPI tasks x no OpenMP threads

MPI task timing breakdown:
Section |  min time  |  avg time  |  max time  |%varavg| %total
---------------------------------------------------------------
Pair    | 43.889     | 43.889     | 43.889     |   0.0 | 53.87
Neigh   | 36.16      | 36.16      | 36.16      |   0.0 | 44.38
Comm    | 0.537      | 0.537      | 0.537      |   0.0 |  0.66
Output  | 0.00011396 | 0.00011396 | 0.00011396 |   0.0 |  0.00
Modify  | 0.68979    | 0.68979    | 0.68979    |   0.0 |  0.85
Other   |            | 0.1928     |            |       |  0.24

Nlocal:    19652 ave 19652 max 19652 min
Histogram: 1 0 0 0 0 0 0 0 0 0
Nghost:    19083 ave 19083 max 19083 min
Histogram: 1 0 0 0 0 0 0 0 0 0
Neighs:    1.61098e+06 ave 1.61098e+06 max 1.61098e+06 min
Histogram: 1 0 0 0 0 0 0 0 0 0

Total # of neighbors = 1610979
Ave neighs/atom = 81.9753
Neighbor list builds = 495
Dangerous builds not checked
Setting up Verlet run ...
  Unit style    : metal
  Current step  : 265495
  Time step     : 0.001
Per MPI rank memory allocation (min/avg/max) = 18.19 | 18.19 | 18.19 Mbytes
Step Temp Press TotEng PotEng Enthalpy 
  265495    175.73984    546.57725    -75687.08   -76133.475    -75583.62 
  270000    149.94439   -23.174379   -75816.532   -76197.404   -75820.916 
Loop time of 833.232 on 1 procs for 4505 steps with 19652 atoms

Performance: 0.467 ns/day, 51.377 hours/ns, 5.407 timesteps/s
92.1% CPU use with 1 MPI tasks x no OpenMP threads

MPI task timing breakdown:
Section |  min time  |  avg time  |  max time  |%varavg| %total
---------------------------------------------------------------
Pair    | 451.7      | 451.7      | 451.7      |   0.0 | 54.21
Neigh   | 366.11     | 366.11     | 366.11     |   0.0 | 43.94
Comm    | 5.6902     | 5.6902     | 5.6902     |   0.0 |  0.68
Output  | 0.2884     | 0.2884     | 0.2884     |   0.0 |  0.03
Modify  | 7.3553     | 7.3553     | 7.3553     |   0.0 |  0.88
Other   |            | 2.085      |            |       |  0.25

Nlocal:    19652 ave 19652 max 19652 min
Histogram: 1 0 0 0 0 0 0 0 0 0
Nghost:    19039 ave 19039 max 19039 min
Histogram: 1 0 0 0 0 0 0 0 0 0
Neighs:    1.61153e+06 ave 1.61153e+06 max 1.61153e+06 min
Histogram: 1 0 0 0 0 0 0 0 0 0

Total # of neighbors = 1611526
Ave neighs/atom = 82.0032
Neighbor list builds = 4505
Dangerous builds not checked
Setting up Verlet run ...
  Unit style    : metal
  Current step  : 270000
  Time step     : 0.001
Per MPI rank memory allocation (min/avg/max) = 18.19 | 18.19 | 18.19 Mbytes
Step Temp Press TotEng PotEng Enthalpy 
  270000    149.94439   -23.174379   -75816.532   -76197.404   -75820.916 
  270495    125.93179    14.343082   -75937.138   -76257.017   -75934.427 
Loop time of 97.7575 on 1 procs for 495 steps with 19652 atoms

Performance: 0.437 ns/day, 54.858 hours/ns, 5.064 timesteps/s
80.4% CPU use with 1 MPI tasks x no OpenMP threads

MPI task timing breakdown:
Section |  min time  |  avg time  |  max time  |%varavg| %total
---------------------------------------------------------------
Pair    | 52.737     | 52.737     | 52.737     |   0.0 | 53.95
Neigh   | 43.262     | 43.262     | 43.262     |   0.0 | 44.25
Comm    | 0.66136    | 0.66136    | 0.66136    |   0.0 |  0.68
Output  | 0.00011206 | 0.00011206 | 0.00011206 |   0.0 |  0.00
Modify  | 0.85217    | 0.85217    | 0.85217    |   0.0 |  0.87
Other   |            | 0.2455     |            |       |  0.25

Nlocal:    19652 ave 19652 max 19652 min
Histogram: 1 0 0 0 0 0 0 0 0 0
Nghost:    19095 ave 19095 max 19095 min
Histogram: 1 0 0 0 0 0 0 0 0 0
Neighs:    1.61297e+06 ave 1.61297e+06 max 1.61297e+06 min
Histogram: 1 0 0 0 0 0 0 0 0 0

Total # of neighbors = 1612968
Ave neighs/atom = 82.0765
Neighbor list builds = 495
Dangerous builds not checked
Setting up Verlet run ...
  Unit style    : metal
  Current step  : 270495
  Time step     : 0.001
Per MPI rank memory allocation (min/avg/max) = 18.19 | 18.19 | 18.19 Mbytes
Step Temp Press TotEng PotEng Enthalpy 
  270495    125.93179    14.343082   -75937.138   -76257.017   -75934.427 
  275000    99.807473    889.94903    -76078.82    -76332.34   -75910.879 
Loop time of 792.846 on 1 procs for 4505 steps with 19652 atoms

Performance: 0.491 ns/day, 48.887 hours/ns, 5.682 timesteps/s
87.6% CPU use with 1 MPI tasks x no OpenMP threads

MPI task timing breakdown:
Section |  min time  |  avg time  |  max time  |%varavg| %total
---------------------------------------------------------------
Pair    | 426.11     | 426.11     | 426.11     |   0.0 | 53.74
Neigh   | 352.39     | 352.39     | 352.39     |   0.0 | 44.45
Comm    | 5.3526     | 5.3526     | 5.3526     |   0.0 |  0.68
Output  | 0.082251   | 0.082251   | 0.082251   |   0.0 |  0.01
Modify  | 6.8937     | 6.8937     | 6.8937     |   0.0 |  0.87
Other   |            | 2.017      |            |       |  0.25

Nlocal:    19652 ave 19652 max 19652 min
Histogram: 1 0 0 0 0 0 0 0 0 0
Nghost:    19101 ave 19101 max 19101 min
Histogram: 1 0 0 0 0 0 0 0 0 0
Neighs:    1.61505e+06 ave 1.61505e+06 max 1.61505e+06 min
Histogram: 1 0 0 0 0 0 0 0 0 0

Total # of neighbors = 1615054
Ave neighs/atom = 82.1827
Neighbor list builds = 4505
Dangerous builds not checked
Total wall time: 12:45:46
