LAMMPS (12 Dec 2018)
Lattice spacing in x,y,z = 4 4 4
Created orthogonal box = (0 0 0) to (68 68 68)
  1 by 1 by 1 MPI processor grid
Created 19652 atoms
  Time spent = 0.0105052 secs
Setting atom values ...
  19652 settings made for type/fraction
Neighbor list info ...
  update every 1 steps, delay 0 steps, check no
  max neighbors/atom: 2000, page size: 100000
  master list distance cutoff = 8.5
  ghost atom cutoff = 8.5
  binsize = 4.25, bins = 16 16 16
  1 neighbor lists, perpetual/occasional/extra = 1 0 0
  (1) pair eam/alloy, perpetual
      attributes: half, newton on
      pair build: half/bin/atomonly/newton
      stencil: half/bin/3d/newton
      bin: standard
Setting up Verlet run ...
  Unit style    : metal
  Current step  : 0
  Time step     : 0.001
Per MPI rank memory allocation (min/avg/max) = 18.19 | 18.19 | 18.19 Mbytes
Step Temp Press TotEng PotEng Enthalpy 
       0          300   -174102.16   -61540.291   -62302.318   -95708.368 
    1000    408.71768   -87087.686   -61540.293   -62578.473   -78631.516 
Loop time of 219.385 on 1 procs for 1000 steps with 19652 atoms

Performance: 0.394 ns/day, 60.940 hours/ns, 4.558 timesteps/s
99.5% CPU use with 1 MPI tasks x no OpenMP threads

MPI task timing breakdown:
Section |  min time  |  avg time  |  max time  |%varavg| %total
---------------------------------------------------------------
Pair    | 132.67     | 132.67     | 132.67     |   0.0 | 60.47
Neigh   | 77.26      | 77.26      | 77.26      |   0.0 | 35.22
Comm    | 4.965      | 4.965      | 4.965      |   0.0 |  2.26
Output  | 0.00073695 | 0.00073695 | 0.00073695 |   0.0 |  0.00
Modify  | 2.4863     | 2.4863     | 2.4863     |   0.0 |  1.13
Other   |            | 2.007      |            |       |  0.92

Nlocal:    19652 ave 19652 max 19652 min
Histogram: 1 0 0 0 0 0 0 0 0 0
Nghost:    18996 ave 18996 max 18996 min
Histogram: 1 0 0 0 0 0 0 0 0 0
Neighs:    1.56987e+06 ave 1.56987e+06 max 1.56987e+06 min
Histogram: 1 0 0 0 0 0 0 0 0 0

Total # of neighbors = 1569871
Ave neighs/atom = 79.8835
Neighbor list builds = 1000
Dangerous builds not checked
Setting up Verlet run ...
  Unit style    : metal
  Current step  : 1000
  Time step     : 0.001
Per MPI rank memory allocation (min/avg/max) = 18.19 | 18.19 | 18.19 Mbytes
Step Temp Press TotEng PotEng Enthalpy 
    1000    408.71768   -87087.686   -61540.293   -62578.473   -78631.516 
    2000     414.0262   -1829.8848   -65960.101   -67011.766   -66236.043 
Loop time of 288.767 on 1 procs for 1000 steps with 19652 atoms

Performance: 0.299 ns/day, 80.213 hours/ns, 3.463 timesteps/s
99.1% CPU use with 1 MPI tasks x no OpenMP threads

MPI task timing breakdown:
Section |  min time  |  avg time  |  max time  |%varavg| %total
---------------------------------------------------------------
Pair    | 166.64     | 166.64     | 166.64     |   0.0 | 57.71
Neigh   | 111.28     | 111.28     | 111.28     |   0.0 | 38.54
Comm    | 4.4595     | 4.4595     | 4.4595     |   0.0 |  1.54
Output  | 0.00048995 | 0.00048995 | 0.00048995 |   0.0 |  0.00
Modify  | 4.5891     | 4.5891     | 4.5891     |   0.0 |  1.59
Other   |            | 1.804      |            |       |  0.62

Nlocal:    19652 ave 19652 max 19652 min
Histogram: 1 0 0 0 0 0 0 0 0 0
Nghost:    20226 ave 20226 max 20226 min
Histogram: 1 0 0 0 0 0 0 0 0 0
Neighs:    2.02962e+06 ave 2.02962e+06 max 2.02962e+06 min
Histogram: 1 0 0 0 0 0 0 0 0 0

Total # of neighbors = 2029616
Ave neighs/atom = 103.278
Neighbor list builds = 1000
Dangerous builds not checked
Setting up Verlet run ...
  Unit style    : metal
  Current step  : 2000
  Time step     : 0.001
Per MPI rank memory allocation (min/avg/max) = 19.33 | 19.33 | 19.33 Mbytes
Step Temp Press TotEng PotEng Enthalpy 
    2000     414.0262   -1829.8848   -65960.101   -67011.766   -66236.043 
    6667    1491.2679    122.06007   -59929.956   -63717.913   -59910.256 
   10000    2447.7933   -1195.1185   -53136.631   -59354.249    -53355.25 
Loop time of 2272.15 on 1 procs for 8000 steps with 19652 atoms

Performance: 0.304 ns/day, 78.894 hours/ns, 3.521 timesteps/s
98.9% CPU use with 1 MPI tasks x no OpenMP threads

MPI task timing breakdown:
Section |  min time  |  avg time  |  max time  |%varavg| %total
---------------------------------------------------------------
Pair    | 1322.7     | 1322.7     | 1322.7     |   0.0 | 58.22
Neigh   | 857.94     | 857.94     | 857.94     |   0.0 | 37.76
Comm    | 37.005     | 37.005     | 37.005     |   0.0 |  1.63
Output  | 0.08257    | 0.08257    | 0.08257    |   0.0 |  0.00
Modify  | 39.145     | 39.145     | 39.145     |   0.0 |  1.72
Other   |            | 15.24      |            |       |  0.67

Nlocal:    19652 ave 19652 max 19652 min
Histogram: 1 0 0 0 0 0 0 0 0 0
Nghost:    19218 ave 19218 max 19218 min
Histogram: 1 0 0 0 0 0 0 0 0 0
Neighs:    1.68112e+06 ave 1.68112e+06 max 1.68112e+06 min
Histogram: 1 0 0 0 0 0 0 0 0 0

Total # of neighbors = 1681122
Ave neighs/atom = 85.5446
Neighbor list builds = 8000
Dangerous builds not checked
Setting up Verlet run ...
  Unit style    : metal
  Current step  : 10000
  Time step     : 0.001
Per MPI rank memory allocation (min/avg/max) = 19.72 | 19.72 | 19.72 Mbytes
Step Temp Press TotEng PotEng Enthalpy 
   10000    2447.7933   -1195.1185   -53136.631   -59354.249    -53355.25 
   13334     2456.526    483.13933    -53150.37    -59390.17   -53062.209 
   20001    2456.1121    1125.6488   -53067.461    -59306.21    -52861.68 
   26668    2441.4234    212.44155    -53118.58   -59320.018   -53079.729 
   33335    2453.3624     1269.277   -53106.703   -59338.467   -52875.158 
   40000    2449.4921     -352.399   -53114.738   -59336.671   -53179.186 
Loop time of 8417.05 on 1 procs for 30000 steps with 19652 atoms

Performance: 0.308 ns/day, 77.936 hours/ns, 3.564 timesteps/s
99.0% CPU use with 1 MPI tasks x no OpenMP threads

MPI task timing breakdown:
Section |  min time  |  avg time  |  max time  |%varavg| %total
---------------------------------------------------------------
Pair    | 4815.4     | 4815.4     | 4815.4     |   0.0 | 57.21
Neigh   | 3266.5     | 3266.5     | 3266.5     |   0.0 | 38.81
Comm    | 134.27     | 134.27     | 134.27     |   0.0 |  1.60
Output  | 0.25024    | 0.25024    | 0.25024    |   0.0 |  0.00
Modify  | 144.95     | 144.95     | 144.95     |   0.0 |  1.72
Other   |            | 55.7       |            |       |  0.66

Nlocal:    19652 ave 19652 max 19652 min
Histogram: 1 0 0 0 0 0 0 0 0 0
Nghost:    19345 ave 19345 max 19345 min
Histogram: 1 0 0 0 0 0 0 0 0 0
Neighs:    1.68142e+06 ave 1.68142e+06 max 1.68142e+06 min
Histogram: 1 0 0 0 0 0 0 0 0 0

Total # of neighbors = 1681421
Ave neighs/atom = 85.5598
Neighbor list builds = 30000
Dangerous builds not checked
Setting up Verlet run ...
  Unit style    : metal
  Current step  : 40000
  Time step     : 0.001
Per MPI rank memory allocation (min/avg/max) = 19.72 | 19.72 | 19.72 Mbytes
Step Temp Press TotEng PotEng Enthalpy 
   40000    2449.4921     -352.399   -53114.738   -59336.671   -53179.186 
   40002    2449.8706   -378.39993   -53114.735    -59337.63   -53183.938 
   40495    2403.9012    727.98207   -53371.406   -59477.534    -53239.04 
Loop time of 133.425 on 1 procs for 495 steps with 19652 atoms

Performance: 0.321 ns/day, 74.874 hours/ns, 3.710 timesteps/s
99.3% CPU use with 1 MPI tasks x no OpenMP threads

MPI task timing breakdown:
Section |  min time  |  avg time  |  max time  |%varavg| %total
---------------------------------------------------------------
Pair    | 76.874     | 76.874     | 76.874     |   0.0 | 57.62
Neigh   | 50.876     | 50.876     | 50.876     |   0.0 | 38.13
Comm    | 2.2295     | 2.2295     | 2.2295     |   0.0 |  1.67
Output  | 0.062946   | 0.062946   | 0.062946   |   0.0 |  0.05
Modify  | 2.4527     | 2.4527     | 2.4527     |   0.0 |  1.84
Other   |            | 0.9301     |            |       |  0.70

Nlocal:    19652 ave 19652 max 19652 min
Histogram: 1 0 0 0 0 0 0 0 0 0
Nghost:    19358 ave 19358 max 19358 min
Histogram: 1 0 0 0 0 0 0 0 0 0
Neighs:    1.69101e+06 ave 1.69101e+06 max 1.69101e+06 min
Histogram: 1 0 0 0 0 0 0 0 0 0

Total # of neighbors = 1691007
Ave neighs/atom = 86.0476
Neighbor list builds = 495
Dangerous builds not checked
Setting up Verlet run ...
  Unit style    : metal
  Current step  : 40495
  Time step     : 0.001
Per MPI rank memory allocation (min/avg/max) = 19.72 | 19.72 | 19.72 Mbytes
Step Temp Press TotEng PotEng Enthalpy 
   40495    2403.9012    727.98207   -53371.406   -59477.534    -53239.04 
   46667    2391.3902   -1705.4903   -53343.342   -59417.691   -53654.638 
Loop time of 1674.4 on 1 procs for 6172 steps with 19652 atoms

Performance: 0.318 ns/day, 75.358 hours/ns, 3.686 timesteps/s
99.1% CPU use with 1 MPI tasks x no OpenMP threads

MPI task timing breakdown:
Section |  min time  |  avg time  |  max time  |%varavg| %total
---------------------------------------------------------------
Pair    | 960.68     | 960.68     | 960.68     |   0.0 | 57.37
Neigh   | 649.59     | 649.59     | 649.59     |   0.0 | 38.80
Comm    | 25.619     | 25.619     | 25.619     |   0.0 |  1.53
Output  | 0.00044703 | 0.00044703 | 0.00044703 |   0.0 |  0.00
Modify  | 27.738     | 27.738     | 27.738     |   0.0 |  1.66
Other   |            | 10.77      |            |       |  0.64

Nlocal:    19652 ave 19652 max 19652 min
Histogram: 1 0 0 0 0 0 0 0 0 0
Nghost:    19271 ave 19271 max 19271 min
Histogram: 1 0 0 0 0 0 0 0 0 0
Neighs:    1.68499e+06 ave 1.68499e+06 max 1.68499e+06 min
Histogram: 1 0 0 0 0 0 0 0 0 0

Total # of neighbors = 1684993
Ave neighs/atom = 85.7416
Neighbor list builds = 6172
Dangerous builds not checked
Setting up Verlet run ...
  Unit style    : metal
  Current step  : 46667
  Time step     : 0.001
Per MPI rank memory allocation (min/avg/max) = 19.72 | 19.72 | 19.72 Mbytes
Step Temp Press TotEng PotEng Enthalpy 
   46667    2391.3902   -1705.4903   -53343.342   -59417.691   -53654.638 
   46669    2389.3653   -1574.1099   -53343.326   -59412.532   -53630.642 
   47162    2360.6996    1053.0745   -53603.331   -59599.722   -53412.426 
Loop time of 121.976 on 1 procs for 495 steps with 19652 atoms

Performance: 0.351 ns/day, 68.449 hours/ns, 4.058 timesteps/s
99.3% CPU use with 1 MPI tasks x no OpenMP threads

MPI task timing breakdown:
Section |  min time  |  avg time  |  max time  |%varavg| %total
---------------------------------------------------------------
Pair    | 71.078     | 71.078     | 71.078     |   0.0 | 58.27
Neigh   | 46.155     | 46.155     | 46.155     |   0.0 | 37.84
Comm    | 1.8314     | 1.8314     | 1.8314     |   0.0 |  1.50
Output  | 0.068077   | 0.068077   | 0.068077   |   0.0 |  0.06
Modify  | 2.0289     | 2.0289     | 2.0289     |   0.0 |  1.66
Other   |            | 0.8147     |            |       |  0.67

Nlocal:    19652 ave 19652 max 19652 min
Histogram: 1 0 0 0 0 0 0 0 0 0
Nghost:    19384 ave 19384 max 19384 min
Histogram: 1 0 0 0 0 0 0 0 0 0
Neighs:    1.69569e+06 ave 1.69569e+06 max 1.69569e+06 min
Histogram: 1 0 0 0 0 0 0 0 0 0

Total # of neighbors = 1695693
Ave neighs/atom = 86.286
Neighbor list builds = 495
Dangerous builds not checked
Setting up Verlet run ...
  Unit style    : metal
  Current step  : 47162
  Time step     : 0.001
Per MPI rank memory allocation (min/avg/max) = 19.72 | 19.72 | 19.72 Mbytes
Step Temp Press TotEng PotEng Enthalpy 
   47162    2360.6996    1053.0745   -53603.331   -59599.722   -53412.426 
   53334     2346.536   -250.09681    -53704.97   -59665.385    -53750.23 
Loop time of 1667.28 on 1 procs for 6172 steps with 19652 atoms

Performance: 0.320 ns/day, 75.038 hours/ns, 3.702 timesteps/s
99.3% CPU use with 1 MPI tasks x no OpenMP threads

MPI task timing breakdown:
Section |  min time  |  avg time  |  max time  |%varavg| %total
---------------------------------------------------------------
Pair    | 958.6      | 958.6      | 958.6      |   0.0 | 57.50
Neigh   | 644.76     | 644.76     | 644.76     |   0.0 | 38.67
Comm    | 25.371     | 25.371     | 25.371     |   0.0 |  1.52
Output  | 0.00056505 | 0.00056505 | 0.00056505 |   0.0 |  0.00
Modify  | 27.808     | 27.808     | 27.808     |   0.0 |  1.67
Other   |            | 10.74      |            |       |  0.64

Nlocal:    19652 ave 19652 max 19652 min
Histogram: 1 0 0 0 0 0 0 0 0 0
Nghost:    19342 ave 19342 max 19342 min
Histogram: 1 0 0 0 0 0 0 0 0 0
Neighs:    1.69855e+06 ave 1.69855e+06 max 1.69855e+06 min
Histogram: 1 0 0 0 0 0 0 0 0 0

Total # of neighbors = 1698551
Ave neighs/atom = 86.4315
Neighbor list builds = 6172
Dangerous builds not checked
Setting up Verlet run ...
  Unit style    : metal
  Current step  : 53334
  Time step     : 0.001
Per MPI rank memory allocation (min/avg/max) = 19.72 | 19.72 | 19.72 Mbytes
Step Temp Press TotEng PotEng Enthalpy 
   53334     2346.536   -250.09681    -53704.97   -59665.385    -53750.23 
   53336     2345.132   -149.81319   -53704.963   -59661.812   -53732.074 
   53829    2300.9523     700.0856   -53913.621   -59758.249   -53787.314 
Loop time of 131.633 on 1 procs for 495 steps with 19652 atoms

Performance: 0.325 ns/day, 73.868 hours/ns, 3.760 timesteps/s
99.1% CPU use with 1 MPI tasks x no OpenMP threads

MPI task timing breakdown:
Section |  min time  |  avg time  |  max time  |%varavg| %total
---------------------------------------------------------------
Pair    | 76.027     | 76.027     | 76.027     |   0.0 | 57.76
Neigh   | 50.317     | 50.317     | 50.317     |   0.0 | 38.23
Comm    | 2.0697     | 2.0697     | 2.0697     |   0.0 |  1.57
Output  | 0.073235   | 0.073235   | 0.073235   |   0.0 |  0.06
Modify  | 2.2725     | 2.2725     | 2.2725     |   0.0 |  1.73
Other   |            | 0.8735     |            |       |  0.66

Nlocal:    19652 ave 19652 max 19652 min
Histogram: 1 0 0 0 0 0 0 0 0 0
Nghost:    19336 ave 19336 max 19336 min
Histogram: 1 0 0 0 0 0 0 0 0 0
Neighs:    1.70444e+06 ave 1.70444e+06 max 1.70444e+06 min
Histogram: 1 0 0 0 0 0 0 0 0 0

Total # of neighbors = 1704439
Ave neighs/atom = 86.7311
Neighbor list builds = 495
Dangerous builds not checked
Setting up Verlet run ...
  Unit style    : metal
  Current step  : 53829
  Time step     : 0.001
Per MPI rank memory allocation (min/avg/max) = 19.72 | 19.72 | 19.72 Mbytes
Step Temp Press TotEng PotEng Enthalpy 
   53829    2300.9523     700.0856   -53913.621   -59758.249   -53787.314 
   60001    2335.3261    132.81847   -53861.326   -59793.267   -53837.374 
Loop time of 1689.43 on 1 procs for 6172 steps with 19652 atoms

Performance: 0.316 ns/day, 76.035 hours/ns, 3.653 timesteps/s
99.0% CPU use with 1 MPI tasks x no OpenMP threads

MPI task timing breakdown:
Section |  min time  |  avg time  |  max time  |%varavg| %total
---------------------------------------------------------------
Pair    | 970.05     | 970.05     | 970.05     |   0.0 | 57.42
Neigh   | 655.35     | 655.35     | 655.35     |   0.0 | 38.79
Comm    | 25.559     | 25.559     | 25.559     |   0.0 |  1.51
Output  | 0.00085497 | 0.00085497 | 0.00085497 |   0.0 |  0.00
Modify  | 27.736     | 27.736     | 27.736     |   0.0 |  1.64
Other   |            | 10.73      |            |       |  0.63

Nlocal:    19652 ave 19652 max 19652 min
Histogram: 1 0 0 0 0 0 0 0 0 0
Nghost:    19418 ave 19418 max 19418 min
Histogram: 1 0 0 0 0 0 0 0 0 0
Neighs:    1.70457e+06 ave 1.70457e+06 max 1.70457e+06 min
Histogram: 1 0 0 0 0 0 0 0 0 0

Total # of neighbors = 1704570
Ave neighs/atom = 86.7377
Neighbor list builds = 6172
Dangerous builds not checked
Setting up Verlet run ...
  Unit style    : metal
  Current step  : 60001
  Time step     : 0.001
Per MPI rank memory allocation (min/avg/max) = 19.72 | 19.72 | 19.72 Mbytes
Step Temp Press TotEng PotEng Enthalpy 
   60001    2335.3261    132.81847   -53861.326   -59793.267   -53837.374 
   60003     2337.144     17.80729   -53861.366   -59797.924   -53858.154 
   60496     2267.443    594.80246   -54140.434   -59899.946   -54033.597 
Loop time of 139.101 on 1 procs for 495 steps with 19652 atoms

Performance: 0.307 ns/day, 78.059 hours/ns, 3.559 timesteps/s
99.1% CPU use with 1 MPI tasks x no OpenMP threads

MPI task timing breakdown:
Section |  min time  |  avg time  |  max time  |%varavg| %total
---------------------------------------------------------------
Pair    | 80.679     | 80.679     | 80.679     |   0.0 | 58.00
Neigh   | 52.205     | 52.205     | 52.205     |   0.0 | 37.53
Comm    | 2.4685     | 2.4685     | 2.4685     |   0.0 |  1.77
Output  | 0.064297   | 0.064297   | 0.064297   |   0.0 |  0.05
Modify  | 2.6639     | 2.6639     | 2.6639     |   0.0 |  1.92
Other   |            | 1.02       |            |       |  0.73

Nlocal:    19652 ave 19652 max 19652 min
Histogram: 1 0 0 0 0 0 0 0 0 0
Nghost:    19420 ave 19420 max 19420 min
Histogram: 1 0 0 0 0 0 0 0 0 0
Neighs:    1.71174e+06 ave 1.71174e+06 max 1.71174e+06 min
Histogram: 1 0 0 0 0 0 0 0 0 0

Total # of neighbors = 1711737
Ave neighs/atom = 87.1024
Neighbor list builds = 495
Dangerous builds not checked
Setting up Verlet run ...
  Unit style    : metal
  Current step  : 60496
  Time step     : 0.001
Per MPI rank memory allocation (min/avg/max) = 19.72 | 19.72 | 19.72 Mbytes
Step Temp Press TotEng PotEng Enthalpy 
   60496     2267.443    594.80246   -54140.434   -59899.946   -54033.597 
   66668    2232.4469   -1378.4551   -54272.163   -59942.781    -54519.85 
Loop time of 1673.7 on 1 procs for 6172 steps with 19652 atoms

Performance: 0.319 ns/day, 75.327 hours/ns, 3.688 timesteps/s
98.3% CPU use with 1 MPI tasks x no OpenMP threads

MPI task timing breakdown:
Section |  min time  |  avg time  |  max time  |%varavg| %total
---------------------------------------------------------------
Pair    | 966.28     | 966.28     | 966.28     |   0.0 | 57.73
Neigh   | 644.65     | 644.65     | 644.65     |   0.0 | 38.52
Comm    | 25.024     | 25.024     | 25.024     |   0.0 |  1.50
Output  | 0.00052691 | 0.00052691 | 0.00052691 |   0.0 |  0.00
Modify  | 27.19      | 27.19      | 27.19      |   0.0 |  1.62
Other   |            | 10.56      |            |       |  0.63

Nlocal:    19652 ave 19652 max 19652 min
Histogram: 1 0 0 0 0 0 0 0 0 0
Nghost:    19459 ave 19459 max 19459 min
Histogram: 1 0 0 0 0 0 0 0 0 0
Neighs:    1.71076e+06 ave 1.71076e+06 max 1.71076e+06 min
Histogram: 1 0 0 0 0 0 0 0 0 0

Total # of neighbors = 1710763
Ave neighs/atom = 87.0529
Neighbor list builds = 6172
Dangerous builds not checked
Setting up Verlet run ...
  Unit style    : metal
  Current step  : 66668
  Time step     : 0.001
Per MPI rank memory allocation (min/avg/max) = 19.72 | 19.72 | 19.72 Mbytes
Step Temp Press TotEng PotEng Enthalpy 
   66668    2232.4469   -1378.4551   -54272.163   -59942.781    -54519.85 
   66670    2231.4561   -1340.0315   -54272.141   -59940.243   -54512.925 
   67163    2231.6256   -2074.9252   -54417.127   -60085.659   -54788.871 
Loop time of 120.21 on 1 procs for 495 steps with 19652 atoms

Performance: 0.356 ns/day, 67.458 hours/ns, 4.118 timesteps/s
99.4% CPU use with 1 MPI tasks x no OpenMP threads

MPI task timing breakdown:
Section |  min time  |  avg time  |  max time  |%varavg| %total
---------------------------------------------------------------
Pair    | 70.417     | 70.417     | 70.417     |   0.0 | 58.58
Neigh   | 45.04      | 45.04      | 45.04      |   0.0 | 37.47
Comm    | 1.8042     | 1.8042     | 1.8042     |   0.0 |  1.50
Output  | 0.066644   | 0.066644   | 0.066644   |   0.0 |  0.06
Modify  | 2.0336     | 2.0336     | 2.0336     |   0.0 |  1.69
Other   |            | 0.8494     |            |       |  0.71

Nlocal:    19652 ave 19652 max 19652 min
Histogram: 1 0 0 0 0 0 0 0 0 0
Nghost:    19444 ave 19444 max 19444 min
Histogram: 1 0 0 0 0 0 0 0 0 0
Neighs:    1.71547e+06 ave 1.71547e+06 max 1.71547e+06 min
Histogram: 1 0 0 0 0 0 0 0 0 0

Total # of neighbors = 1715470
Ave neighs/atom = 87.2924
Neighbor list builds = 495
Dangerous builds not checked
Setting up Verlet run ...
  Unit style    : metal
  Current step  : 67163
  Time step     : 0.001
Per MPI rank memory allocation (min/avg/max) = 19.72 | 19.72 | 19.72 Mbytes
Step Temp Press TotEng PotEng Enthalpy 
   67163    2231.6256   -2074.9252   -54417.127   -60085.659   -54788.871 
   73335    2194.6826    4.3222618   -54511.812   -60086.506   -54511.039 
Loop time of 1640.71 on 1 procs for 6172 steps with 19652 atoms

Performance: 0.325 ns/day, 73.842 hours/ns, 3.762 timesteps/s
98.9% CPU use with 1 MPI tasks x no OpenMP threads

MPI task timing breakdown:
Section |  min time  |  avg time  |  max time  |%varavg| %total
---------------------------------------------------------------
Pair    | 948.6      | 948.6      | 948.6      |   0.0 | 57.82
Neigh   | 630.73     | 630.73     | 630.73     |   0.0 | 38.44
Comm    | 24.093     | 24.093     | 24.093     |   0.0 |  1.47
Output  | 0.00048113 | 0.00048113 | 0.00048113 |   0.0 |  0.00
Modify  | 26.587     | 26.587     | 26.587     |   0.0 |  1.62
Other   |            | 10.7       |            |       |  0.65

Nlocal:    19652 ave 19652 max 19652 min
Histogram: 1 0 0 0 0 0 0 0 0 0
Nghost:    19511 ave 19511 max 19511 min
Histogram: 1 0 0 0 0 0 0 0 0 0
Neighs:    1.71927e+06 ave 1.71927e+06 max 1.71927e+06 min
Histogram: 1 0 0 0 0 0 0 0 0 0

Total # of neighbors = 1719273
Ave neighs/atom = 87.4859
Neighbor list builds = 6172
Dangerous builds not checked
Setting up Verlet run ...
  Unit style    : metal
  Current step  : 73335
  Time step     : 0.001
Per MPI rank memory allocation (min/avg/max) = 19.72 | 19.72 | 19.72 Mbytes
Step Temp Press TotEng PotEng Enthalpy 
   73335    2194.6826    4.3222618   -54511.812   -60086.506   -54511.039 
   73337    2195.6688    -40.76792   -54511.819   -60089.018   -54519.108 
   73830     2151.802   -33.107645   -54714.268   -60180.041   -54720.169 
Loop time of 127.197 on 1 procs for 495 steps with 19652 atoms

Performance: 0.336 ns/day, 71.379 hours/ns, 3.892 timesteps/s
99.1% CPU use with 1 MPI tasks x no OpenMP threads

MPI task timing breakdown:
Section |  min time  |  avg time  |  max time  |%varavg| %total
---------------------------------------------------------------
Pair    | 74.164     | 74.164     | 74.164     |   0.0 | 58.31
Neigh   | 47.876     | 47.876     | 47.876     |   0.0 | 37.64
Comm    | 1.9973     | 1.9973     | 1.9973     |   0.0 |  1.57
Output  | 0.076443   | 0.076443   | 0.076443   |   0.0 |  0.06
Modify  | 2.2009     | 2.2009     | 2.2009     |   0.0 |  1.73
Other   |            | 0.8822     |            |       |  0.69

Nlocal:    19652 ave 19652 max 19652 min
Histogram: 1 0 0 0 0 0 0 0 0 0
Nghost:    19486 ave 19486 max 19486 min
Histogram: 1 0 0 0 0 0 0 0 0 0
Neighs:    1.72507e+06 ave 1.72507e+06 max 1.72507e+06 min
Histogram: 1 0 0 0 0 0 0 0 0 0

Total # of neighbors = 1725070
Ave neighs/atom = 87.7809
Neighbor list builds = 495
Dangerous builds not checked
Setting up Verlet run ...
  Unit style    : metal
  Current step  : 73830
  Time step     : 0.001
Per MPI rank memory allocation (min/avg/max) = 19.72 | 19.72 | 19.72 Mbytes
Step Temp Press TotEng PotEng Enthalpy 
   73830     2151.802   -33.107645   -54714.268   -60180.041   -54720.169 
   80002    2144.7838    1157.6128   -54862.942   -60310.888   -54657.532 
Loop time of 1664.53 on 1 procs for 6172 steps with 19652 atoms

Performance: 0.320 ns/day, 74.914 hours/ns, 3.708 timesteps/s
98.8% CPU use with 1 MPI tasks x no OpenMP threads

MPI task timing breakdown:
Section |  min time  |  avg time  |  max time  |%varavg| %total
---------------------------------------------------------------
Pair    | 964.2      | 964.2      | 964.2      |   0.0 | 57.93
Neigh   | 636.96     | 636.96     | 636.96     |   0.0 | 38.27
Comm    | 24.975     | 24.975     | 24.975     |   0.0 |  1.50
Output  | 0.00050092 | 0.00050092 | 0.00050092 |   0.0 |  0.00
Modify  | 27.312     | 27.312     | 27.312     |   0.0 |  1.64
Other   |            | 11.08      |            |       |  0.67

Nlocal:    19652 ave 19652 max 19652 min
Histogram: 1 0 0 0 0 0 0 0 0 0
Nghost:    19457 ave 19457 max 19457 min
Histogram: 1 0 0 0 0 0 0 0 0 0
Neighs:    1.73204e+06 ave 1.73204e+06 max 1.73204e+06 min
Histogram: 1 0 0 0 0 0 0 0 0 0

Total # of neighbors = 1732036
Ave neighs/atom = 88.1354
Neighbor list builds = 6172
Dangerous builds not checked
Setting up Verlet run ...
  Unit style    : metal
  Current step  : 80002
  Time step     : 0.001
Per MPI rank memory allocation (min/avg/max) = 19.72 | 19.72 | 19.72 Mbytes
Step Temp Press TotEng PotEng Enthalpy 
   80002    2144.7838    1157.6128   -54862.942   -60310.888   -54657.532 
   80004    2144.4044    1167.0797   -54862.935   -60309.918   -54655.846 
   80497    2111.2765    1027.4196   -55001.901   -60364.736    -54819.96 
Loop time of 133.512 on 1 procs for 495 steps with 19652 atoms

Performance: 0.320 ns/day, 74.922 hours/ns, 3.708 timesteps/s
99.1% CPU use with 1 MPI tasks x no OpenMP threads

MPI task timing breakdown:
Section |  min time  |  avg time  |  max time  |%varavg| %total
---------------------------------------------------------------
Pair    | 77.803     | 77.803     | 77.803     |   0.0 | 58.27
Neigh   | 49.938     | 49.938     | 49.938     |   0.0 | 37.40
Comm    | 2.2624     | 2.2624     | 2.2624     |   0.0 |  1.69
Output  | 0.071462   | 0.071462   | 0.071462   |   0.0 |  0.05
Modify  | 2.4441     | 2.4441     | 2.4441     |   0.0 |  1.83
Other   |            | 0.9924     |            |       |  0.74

Nlocal:    19652 ave 19652 max 19652 min
Histogram: 1 0 0 0 0 0 0 0 0 0
Nghost:    19490 ave 19490 max 19490 min
Histogram: 1 0 0 0 0 0 0 0 0 0
Neighs:    1.73495e+06 ave 1.73495e+06 max 1.73495e+06 min
Histogram: 1 0 0 0 0 0 0 0 0 0

Total # of neighbors = 1734954
Ave neighs/atom = 88.2838
Neighbor list builds = 495
Dangerous builds not checked
Setting up Verlet run ...
  Unit style    : metal
  Current step  : 80497
  Time step     : 0.001
Per MPI rank memory allocation (min/avg/max) = 19.72 | 19.72 | 19.72 Mbytes
Step Temp Press TotEng PotEng Enthalpy 
   80497    2111.2765    1027.4196   -55001.901   -60364.736    -54819.96 
   86669    2103.9938    460.39133    -55074.53   -60418.866   -54993.096 
Loop time of 1659.11 on 1 procs for 6172 steps with 19652 atoms

Performance: 0.321 ns/day, 74.670 hours/ns, 3.720 timesteps/s
99.3% CPU use with 1 MPI tasks x no OpenMP threads

MPI task timing breakdown:
Section |  min time  |  avg time  |  max time  |%varavg| %total
---------------------------------------------------------------
Pair    | 963.04     | 963.04     | 963.04     |   0.0 | 58.05
Neigh   | 632.43     | 632.43     | 632.43     |   0.0 | 38.12
Comm    | 24.938     | 24.938     | 24.938     |   0.0 |  1.50
Output  | 0.00044489 | 0.00044489 | 0.00044489 |   0.0 |  0.00
Modify  | 27.461     | 27.461     | 27.461     |   0.0 |  1.66
Other   |            | 11.24      |            |       |  0.68

Nlocal:    19652 ave 19652 max 19652 min
Histogram: 1 0 0 0 0 0 0 0 0 0
Nghost:    19555 ave 19555 max 19555 min
Histogram: 1 0 0 0 0 0 0 0 0 0
Neighs:    1.73766e+06 ave 1.73766e+06 max 1.73766e+06 min
Histogram: 1 0 0 0 0 0 0 0 0 0

Total # of neighbors = 1737664
Ave neighs/atom = 88.4217
Neighbor list builds = 6172
Dangerous builds not checked
Setting up Verlet run ...
  Unit style    : metal
  Current step  : 86669
  Time step     : 0.001
Per MPI rank memory allocation (min/avg/max) = 19.72 | 19.72 | 19.72 Mbytes
Step Temp Press TotEng PotEng Enthalpy 
   86669    2103.9938    460.39133    -55074.53   -60418.866   -54993.096 
   86671    2104.1263    469.02109    -55074.54   -60419.213    -54991.58 
   87164    2054.1057     441.8171   -55302.403   -60520.019   -55224.546 
Loop time of 129.192 on 1 procs for 495 steps with 19652 atoms

Performance: 0.331 ns/day, 72.498 hours/ns, 3.831 timesteps/s
97.0% CPU use with 1 MPI tasks x no OpenMP threads

MPI task timing breakdown:
Section |  min time  |  avg time  |  max time  |%varavg| %total
---------------------------------------------------------------
Pair    | 76.18      | 76.18      | 76.18      |   0.0 | 58.97
Neigh   | 47.35      | 47.35      | 47.35      |   0.0 | 36.65
Comm    | 2.1566     | 2.1566     | 2.1566     |   0.0 |  1.67
Output  | 0.17854    | 0.17854    | 0.17854    |   0.0 |  0.14
Modify  | 2.3794     | 2.3794     | 2.3794     |   0.0 |  1.84
Other   |            | 0.9475     |            |       |  0.73

Nlocal:    19652 ave 19652 max 19652 min
Histogram: 1 0 0 0 0 0 0 0 0 0
Nghost:    19580 ave 19580 max 19580 min
Histogram: 1 0 0 0 0 0 0 0 0 0
Neighs:    1.74362e+06 ave 1.74362e+06 max 1.74362e+06 min
Histogram: 1 0 0 0 0 0 0 0 0 0

Total # of neighbors = 1743617
Ave neighs/atom = 88.7247
Neighbor list builds = 495
Dangerous builds not checked
Setting up Verlet run ...
  Unit style    : metal
  Current step  : 87164
  Time step     : 0.001
Per MPI rank memory allocation (min/avg/max) = 19.72 | 19.72 | 19.72 Mbytes
Step Temp Press TotEng PotEng Enthalpy 
   87164    2054.1057     441.8171   -55302.403   -60520.019   -55224.546 
   93336    2059.0606    656.57718   -55343.798   -60573.999   -55228.265 
Loop time of 1705.45 on 1 procs for 6172 steps with 19652 atoms

Performance: 0.313 ns/day, 76.756 hours/ns, 3.619 timesteps/s
97.7% CPU use with 1 MPI tasks x no OpenMP threads

MPI task timing breakdown:
Section |  min time  |  avg time  |  max time  |%varavg| %total
---------------------------------------------------------------
Pair    | 991.56     | 991.56     | 991.56     |   0.0 | 58.14
Neigh   | 646.34     | 646.34     | 646.34     |   0.0 | 37.90
Comm    | 26.696     | 26.696     | 26.696     |   0.0 |  1.57
Output  | 0.00036597 | 0.00036597 | 0.00036597 |   0.0 |  0.00
Modify  | 29.126     | 29.126     | 29.126     |   0.0 |  1.71
Other   |            | 11.72      |            |       |  0.69

Nlocal:    19652 ave 19652 max 19652 min
Histogram: 1 0 0 0 0 0 0 0 0 0
Nghost:    19580 ave 19580 max 19580 min
Histogram: 1 0 0 0 0 0 0 0 0 0
Neighs:    1.7458e+06 ave 1.7458e+06 max 1.7458e+06 min
Histogram: 1 0 0 0 0 0 0 0 0 0

Total # of neighbors = 1745799
Ave neighs/atom = 88.8357
Neighbor list builds = 6172
Dangerous builds not checked
Setting up Verlet run ...
  Unit style    : metal
  Current step  : 93336
  Time step     : 0.001
Per MPI rank memory allocation (min/avg/max) = 19.72 | 19.72 | 19.72 Mbytes
Step Temp Press TotEng PotEng Enthalpy 
   93336    2059.0606    656.57718   -55343.798   -60573.999   -55228.265 
   93338    2059.3302    661.70245   -55343.811   -60574.697   -55227.376 
   93831    2006.6558    504.67608   -55602.229   -60699.318   -55513.716 
Loop time of 119.776 on 1 procs for 495 steps with 19652 atoms

Performance: 0.357 ns/day, 67.215 hours/ns, 4.133 timesteps/s
99.4% CPU use with 1 MPI tasks x no OpenMP threads

MPI task timing breakdown:
Section |  min time  |  avg time  |  max time  |%varavg| %total
---------------------------------------------------------------
Pair    | 70.055     | 70.055     | 70.055     |   0.0 | 58.49
Neigh   | 45.605     | 45.605     | 45.605     |   0.0 | 38.07
Comm    | 1.5303     | 1.5303     | 1.5303     |   0.0 |  1.28
Output  | 0.057865   | 0.057865   | 0.057865   |   0.0 |  0.05
Modify  | 1.7608     | 1.7608     | 1.7608     |   0.0 |  1.47
Other   |            | 0.7676     |            |       |  0.64

Nlocal:    19652 ave 19652 max 19652 min
Histogram: 1 0 0 0 0 0 0 0 0 0
Nghost:    19670 ave 19670 max 19670 min
Histogram: 1 0 0 0 0 0 0 0 0 0
Neighs:    1.75126e+06 ave 1.75126e+06 max 1.75126e+06 min
Histogram: 1 0 0 0 0 0 0 0 0 0

Total # of neighbors = 1751264
Ave neighs/atom = 89.1138
Neighbor list builds = 495
Dangerous builds not checked
Setting up Verlet run ...
  Unit style    : metal
  Current step  : 93831
  Time step     : 0.001
Per MPI rank memory allocation (min/avg/max) = 19.72 | 19.72 | 19.72 Mbytes
Step Temp Press TotEng PotEng Enthalpy 
   93831    2006.6558    504.67608   -55602.229   -60699.318   -55513.716 
  100003    1996.6099   -833.99634   -55670.204   -60741.775   -55816.513 
Loop time of 1702.84 on 1 procs for 6172 steps with 19652 atoms

Performance: 0.313 ns/day, 76.638 hours/ns, 3.625 timesteps/s
98.5% CPU use with 1 MPI tasks x no OpenMP threads

MPI task timing breakdown:
Section |  min time  |  avg time  |  max time  |%varavg| %total
---------------------------------------------------------------
Pair    | 991.87     | 991.87     | 991.87     |   0.0 | 58.25
Neigh   | 643.2      | 643.2      | 643.2      |   0.0 | 37.77
Comm    | 26.902     | 26.902     | 26.902     |   0.0 |  1.58
Output  | 0.00060487 | 0.00060487 | 0.00060487 |   0.0 |  0.00
Modify  | 29.018     | 29.018     | 29.018     |   0.0 |  1.70
Other   |            | 11.84      |            |       |  0.70

Nlocal:    19652 ave 19652 max 19652 min
Histogram: 1 0 0 0 0 0 0 0 0 0
Nghost:    19617 ave 19617 max 19617 min
Histogram: 1 0 0 0 0 0 0 0 0 0
Neighs:    1.75104e+06 ave 1.75104e+06 max 1.75104e+06 min
Histogram: 1 0 0 0 0 0 0 0 0 0

Total # of neighbors = 1751036
Ave neighs/atom = 89.1022
Neighbor list builds = 6172
Dangerous builds not checked
Setting up Verlet run ...
  Unit style    : metal
  Current step  : 100003
  Time step     : 0.001
Per MPI rank memory allocation (min/avg/max) = 19.72 | 19.72 | 19.72 Mbytes
Step Temp Press TotEng PotEng Enthalpy 
  100003    1996.6099   -833.99634   -55670.204   -60741.775   -55816.513 
  100005    1997.8272   -903.64008   -55670.201   -60744.864   -55828.728 
  100498    1945.1043   -3.7861581   -55894.623   -60835.365   -55895.284 
Loop time of 131.986 on 1 procs for 495 steps with 19652 atoms

Performance: 0.324 ns/day, 74.066 hours/ns, 3.750 timesteps/s
99.8% CPU use with 1 MPI tasks x no OpenMP threads

MPI task timing breakdown:
Section |  min time  |  avg time  |  max time  |%varavg| %total
---------------------------------------------------------------
Pair    | 77.68      | 77.68      | 77.68      |   0.0 | 58.85
Neigh   | 48.493     | 48.493     | 48.493     |   0.0 | 36.74
Comm    | 2.2623     | 2.2623     | 2.2623     |   0.0 |  1.71
Output  | 0.070991   | 0.070991   | 0.070991   |   0.0 |  0.05
Modify  | 2.494      | 2.494      | 2.494      |   0.0 |  1.89
Other   |            | 0.9864     |            |       |  0.75

Nlocal:    19652 ave 19652 max 19652 min
Histogram: 1 0 0 0 0 0 0 0 0 0
Nghost:    19666 ave 19666 max 19666 min
Histogram: 1 0 0 0 0 0 0 0 0 0
Neighs:    1.75826e+06 ave 1.75826e+06 max 1.75826e+06 min
Histogram: 1 0 0 0 0 0 0 0 0 0

Total # of neighbors = 1758264
Ave neighs/atom = 89.47
Neighbor list builds = 495
Dangerous builds not checked
Setting up Verlet run ...
  Unit style    : metal
  Current step  : 100498
  Time step     : 0.001
Per MPI rank memory allocation (min/avg/max) = 19.72 | 19.72 | 19.72 Mbytes
Step Temp Press TotEng PotEng Enthalpy 
  100498    1945.1043   -3.7861581   -55894.623   -60835.365   -55895.284 
  106670    1925.1256   -989.89127   -56033.047   -60923.042   -56205.743 
Loop time of 1713.41 on 1 procs for 6172 steps with 19652 atoms

Performance: 0.311 ns/day, 77.114 hours/ns, 3.602 timesteps/s
96.9% CPU use with 1 MPI tasks x no OpenMP threads

MPI task timing breakdown:
Section |  min time  |  avg time  |  max time  |%varavg| %total
---------------------------------------------------------------
Pair    | 999.81     | 999.81     | 999.81     |   0.0 | 58.35
Neigh   | 645.66     | 645.66     | 645.66     |   0.0 | 37.68
Comm    | 27.157     | 27.157     | 27.157     |   0.0 |  1.58
Output  | 0.00047994 | 0.00047994 | 0.00047994 |   0.0 |  0.00
Modify  | 29.107     | 29.107     | 29.107     |   0.0 |  1.70
Other   |            | 11.68      |            |       |  0.68

Nlocal:    19652 ave 19652 max 19652 min
Histogram: 1 0 0 0 0 0 0 0 0 0
Nghost:    19687 ave 19687 max 19687 min
Histogram: 1 0 0 0 0 0 0 0 0 0
Neighs:    1.76003e+06 ave 1.76003e+06 max 1.76003e+06 min
Histogram: 1 0 0 0 0 0 0 0 0 0

Total # of neighbors = 1760027
Ave neighs/atom = 89.5597
Neighbor list builds = 6172
Dangerous builds not checked
Setting up Verlet run ...
  Unit style    : metal
  Current step  : 106670
  Time step     : 0.001
Per MPI rank memory allocation (min/avg/max) = 19.72 | 19.72 | 19.72 Mbytes
Step Temp Press TotEng PotEng Enthalpy 
  106670    1925.1256   -989.89127   -56033.047   -60923.042   -56205.743 
  106672     1923.951   -921.76321   -56033.022   -60920.032   -56193.832 
  107165     1913.036   -815.13999   -56144.772   -61004.058   -56286.637 
Loop time of 138.222 on 1 procs for 495 steps with 19652 atoms

Performance: 0.309 ns/day, 77.566 hours/ns, 3.581 timesteps/s
97.6% CPU use with 1 MPI tasks x no OpenMP threads

MPI task timing breakdown:
Section |  min time  |  avg time  |  max time  |%varavg| %total
---------------------------------------------------------------
Pair    | 81.42      | 81.42      | 81.42      |   0.0 | 58.91
Neigh   | 49.923     | 49.923     | 49.923     |   0.0 | 36.12
Comm    | 2.7274     | 2.7274     | 2.7274     |   0.0 |  1.97
Output  | 0.071094   | 0.071094   | 0.071094   |   0.0 |  0.05
Modify  | 2.9546     | 2.9546     | 2.9546     |   0.0 |  2.14
Other   |            | 1.125      |            |       |  0.81

Nlocal:    19652 ave 19652 max 19652 min
Histogram: 1 0 0 0 0 0 0 0 0 0
Nghost:    19654 ave 19654 max 19654 min
Histogram: 1 0 0 0 0 0 0 0 0 0
Neighs:    1.76492e+06 ave 1.76492e+06 max 1.76492e+06 min
Histogram: 1 0 0 0 0 0 0 0 0 0

Total # of neighbors = 1764920
Ave neighs/atom = 89.8087
Neighbor list builds = 495
Dangerous builds not checked
Setting up Verlet run ...
  Unit style    : metal
  Current step  : 107165
  Time step     : 0.001
Per MPI rank memory allocation (min/avg/max) = 19.72 | 19.72 | 19.72 Mbytes
Step Temp Press TotEng PotEng Enthalpy 
  107165     1913.036   -815.13999   -56144.772   -61004.058   -56286.637 
  113337    1919.0208    2038.3027   -56189.437   -61063.924   -55836.203 
Loop time of 1798.27 on 1 procs for 6172 steps with 19652 atoms

Performance: 0.297 ns/day, 80.933 hours/ns, 3.432 timesteps/s
92.1% CPU use with 1 MPI tasks x no OpenMP threads

MPI task timing breakdown:
Section |  min time  |  avg time  |  max time  |%varavg| %total
---------------------------------------------------------------
Pair    | 1054.3     | 1054.3     | 1054.3     |   0.0 | 58.63
Neigh   | 672.19     | 672.19     | 672.19     |   0.0 | 37.38
Comm    | 28.917     | 28.917     | 28.917     |   0.0 |  1.61
Output  | 0.00048614 | 0.00048614 | 0.00048614 |   0.0 |  0.00
Modify  | 30.782     | 30.782     | 30.782     |   0.0 |  1.71
Other   |            | 12.13      |            |       |  0.67

Nlocal:    19652 ave 19652 max 19652 min
Histogram: 1 0 0 0 0 0 0 0 0 0
Nghost:    19722 ave 19722 max 19722 min
Histogram: 1 0 0 0 0 0 0 0 0 0
Neighs:    1.77177e+06 ave 1.77177e+06 max 1.77177e+06 min
Histogram: 1 0 0 0 0 0 0 0 0 0

Total # of neighbors = 1771772
Ave neighs/atom = 90.1573
Neighbor list builds = 6172
Dangerous builds not checked
Setting up Verlet run ...
  Unit style    : metal
  Current step  : 113337
  Time step     : 0.001
Per MPI rank memory allocation (min/avg/max) = 19.72 | 19.72 | 19.72 Mbytes
Step Temp Press TotEng PotEng Enthalpy 
  113337    1919.0208    2038.3027   -56189.437   -61063.924   -55836.203 
  113339    1918.5888    2062.9596   -56189.453   -61062.843   -55831.945 
  113832    1882.7465    1697.8661   -56421.047   -61203.395    -56127.88 
Loop time of 149.763 on 1 procs for 495 steps with 19652 atoms

Performance: 0.286 ns/day, 84.042 hours/ns, 3.305 timesteps/s
86.5% CPU use with 1 MPI tasks x no OpenMP threads

MPI task timing breakdown:
Section |  min time  |  avg time  |  max time  |%varavg| %total
---------------------------------------------------------------
Pair    | 88.405     | 88.405     | 88.405     |   0.0 | 59.03
Neigh   | 55.183     | 55.183     | 55.183     |   0.0 | 36.85
Comm    | 2.4508     | 2.4508     | 2.4508     |   0.0 |  1.64
Output  | 0.070151   | 0.070151   | 0.070151   |   0.0 |  0.05
Modify  | 2.5989     | 2.5989     | 2.5989     |   0.0 |  1.74
Other   |            | 1.056      |            |       |  0.70

Nlocal:    19652 ave 19652 max 19652 min
Histogram: 1 0 0 0 0 0 0 0 0 0
Nghost:    19766 ave 19766 max 19766 min
Histogram: 1 0 0 0 0 0 0 0 0 0
Neighs:    1.77806e+06 ave 1.77806e+06 max 1.77806e+06 min
Histogram: 1 0 0 0 0 0 0 0 0 0

Total # of neighbors = 1778060
Ave neighs/atom = 90.4773
Neighbor list builds = 495
Dangerous builds not checked
Setting up Verlet run ...
  Unit style    : metal
  Current step  : 113832
  Time step     : 0.001
Per MPI rank memory allocation (min/avg/max) = 19.72 | 19.72 | 19.72 Mbytes
Step Temp Press TotEng PotEng Enthalpy 
  113832    1882.7465    1697.8661   -56421.047   -61203.395    -56127.88 
  120004    1858.9762    1086.3111   -56532.566   -61254.535   -56345.135 
Loop time of 1799.06 on 1 procs for 6172 steps with 19652 atoms

Performance: 0.296 ns/day, 80.969 hours/ns, 3.431 timesteps/s
93.7% CPU use with 1 MPI tasks x no OpenMP threads

MPI task timing breakdown:
Section |  min time  |  avg time  |  max time  |%varavg| %total
---------------------------------------------------------------
Pair    | 1056.7     | 1056.7     | 1056.7     |   0.0 | 58.74
Neigh   | 669.92     | 669.92     | 669.92     |   0.0 | 37.24
Comm    | 28.954     | 28.954     | 28.954     |   0.0 |  1.61
Output  | 0.00040412 | 0.00040412 | 0.00040412 |   0.0 |  0.00
Modify  | 31.014     | 31.014     | 31.014     |   0.0 |  1.72
Other   |            | 12.49      |            |       |  0.69

Nlocal:    19652 ave 19652 max 19652 min
Histogram: 1 0 0 0 0 0 0 0 0 0
Nghost:    19782 ave 19782 max 19782 min
Histogram: 1 0 0 0 0 0 0 0 0 0
Neighs:    1.78003e+06 ave 1.78003e+06 max 1.78003e+06 min
Histogram: 1 0 0 0 0 0 0 0 0 0

Total # of neighbors = 1780028
Ave neighs/atom = 90.5774
Neighbor list builds = 6172
Dangerous builds not checked
Setting up Verlet run ...
  Unit style    : metal
  Current step  : 120004
  Time step     : 0.001
Per MPI rank memory allocation (min/avg/max) = 19.72 | 19.72 | 19.72 Mbytes
Step Temp Press TotEng PotEng Enthalpy 
  120004    1858.9762    1086.3111   -56532.566   -61254.535   -56345.135 
  120006     1860.076    1041.9305   -56532.577   -61257.339   -56352.804 
  120499    1809.9656    2361.1482   -56756.629   -61354.106   -56350.936 
Loop time of 136.306 on 1 procs for 495 steps with 19652 atoms

Performance: 0.314 ns/day, 76.490 hours/ns, 3.632 timesteps/s
97.4% CPU use with 1 MPI tasks x no OpenMP threads

MPI task timing breakdown:
Section |  min time  |  avg time  |  max time  |%varavg| %total
---------------------------------------------------------------
Pair    | 80.531     | 80.531     | 80.531     |   0.0 | 59.08
Neigh   | 49.878     | 49.878     | 49.878     |   0.0 | 36.59
Comm    | 2.3494     | 2.3494     | 2.3494     |   0.0 |  1.72
Output  | 0.074017   | 0.074017   | 0.074017   |   0.0 |  0.05
Modify  | 2.4729     | 2.4729     | 2.4729     |   0.0 |  1.81
Other   |            | 1.001      |            |       |  0.73

Nlocal:    19652 ave 19652 max 19652 min
Histogram: 1 0 0 0 0 0 0 0 0 0
Nghost:    19789 ave 19789 max 19789 min
Histogram: 1 0 0 0 0 0 0 0 0 0
Neighs:    1.78684e+06 ave 1.78684e+06 max 1.78684e+06 min
Histogram: 1 0 0 0 0 0 0 0 0 0

Total # of neighbors = 1786844
Ave neighs/atom = 90.9243
Neighbor list builds = 495
Dangerous builds not checked
Setting up Verlet run ...
  Unit style    : metal
  Current step  : 120499
  Time step     : 0.001
Per MPI rank memory allocation (min/avg/max) = 19.72 | 19.72 | 19.72 Mbytes
Step Temp Press TotEng PotEng Enthalpy 
  120499    1809.9656    2361.1482   -56756.629   -61354.106   -56350.936 
  126671    1797.6038    -343.5456   -56865.013   -61431.091   -56924.078 
Loop time of 1702.94 on 1 procs for 6172 steps with 19652 atoms

Performance: 0.313 ns/day, 76.643 hours/ns, 3.624 timesteps/s
98.5% CPU use with 1 MPI tasks x no OpenMP threads

MPI task timing breakdown:
Section |  min time  |  avg time  |  max time  |%varavg| %total
---------------------------------------------------------------
Pair    | 998.39     | 998.39     | 998.39     |   0.0 | 58.63
Neigh   | 635.96     | 635.96     | 635.96     |   0.0 | 37.35
Comm    | 27.454     | 27.454     | 27.454     |   0.0 |  1.61
Output  | 0.0006609  | 0.0006609  | 0.0006609  |   0.0 |  0.00
Modify  | 29.319     | 29.319     | 29.319     |   0.0 |  1.72
Other   |            | 11.81      |            |       |  0.69

Nlocal:    19652 ave 19652 max 19652 min
Histogram: 1 0 0 0 0 0 0 0 0 0
Nghost:    19795 ave 19795 max 19795 min
Histogram: 1 0 0 0 0 0 0 0 0 0
Neighs:    1.78571e+06 ave 1.78571e+06 max 1.78571e+06 min
Histogram: 1 0 0 0 0 0 0 0 0 0

Total # of neighbors = 1785706
Ave neighs/atom = 90.8664
Neighbor list builds = 6172
Dangerous builds not checked
Setting up Verlet run ...
  Unit style    : metal
  Current step  : 126671
  Time step     : 0.001
Per MPI rank memory allocation (min/avg/max) = 19.72 | 19.72 | 19.72 Mbytes
Step Temp Press TotEng PotEng Enthalpy 
  126671    1797.6038    -343.5456   -56865.013   -61431.091   -56924.078 
  126673     1797.328   -325.57597   -56865.009   -61430.386   -56920.984 
  127166    1763.9335   -96.534266   -57030.965   -61511.517   -57047.511 
Loop time of 126.874 on 1 procs for 495 steps with 19652 atoms

Performance: 0.337 ns/day, 71.197 hours/ns, 3.902 timesteps/s
97.5% CPU use with 1 MPI tasks x no OpenMP threads

MPI task timing breakdown:
Section |  min time  |  avg time  |  max time  |%varavg| %total
---------------------------------------------------------------
Pair    | 75.301     | 75.301     | 75.301     |   0.0 | 59.35
Neigh   | 46.303     | 46.303     | 46.303     |   0.0 | 36.50
Comm    | 2.0672     | 2.0672     | 2.0672     |   0.0 |  1.63
Output  | 0.072537   | 0.072537   | 0.072537   |   0.0 |  0.06
Modify  | 2.232      | 2.232      | 2.232      |   0.0 |  1.76
Other   |            | 0.8988     |            |       |  0.71

Nlocal:    19652 ave 19652 max 19652 min
Histogram: 1 0 0 0 0 0 0 0 0 0
Nghost:    19764 ave 19764 max 19764 min
Histogram: 1 0 0 0 0 0 0 0 0 0
Neighs:    1.79148e+06 ave 1.79148e+06 max 1.79148e+06 min
Histogram: 1 0 0 0 0 0 0 0 0 0

Total # of neighbors = 1791480
Ave neighs/atom = 91.1602
Neighbor list builds = 495
Dangerous builds not checked
Setting up Verlet run ...
  Unit style    : metal
  Current step  : 127166
  Time step     : 0.001
Per MPI rank memory allocation (min/avg/max) = 19.72 | 19.72 | 19.72 Mbytes
Step Temp Press TotEng PotEng Enthalpy 
  127166    1763.9335   -96.534266   -57030.965   -61511.517   -57047.511 
  133338    1773.2625    896.03339   -57083.952     -61588.2   -56930.714 
Loop time of 1756.75 on 1 procs for 6172 steps with 19652 atoms

Performance: 0.304 ns/day, 79.065 hours/ns, 3.513 timesteps/s
94.5% CPU use with 1 MPI tasks x no OpenMP threads

MPI task timing breakdown:
Section |  min time  |  avg time  |  max time  |%varavg| %total
---------------------------------------------------------------
Pair    | 1032.1     | 1032.1     | 1032.1     |   0.0 | 58.75
Neigh   | 655.17     | 655.17     | 655.17     |   0.0 | 37.29
Comm    | 27.837     | 27.837     | 27.837     |   0.0 |  1.58
Output  | 0.00073504 | 0.00073504 | 0.00073504 |   0.0 |  0.00
Modify  | 29.762     | 29.762     | 29.762     |   0.0 |  1.69
Other   |            | 11.89      |            |       |  0.68

Nlocal:    19652 ave 19652 max 19652 min
Histogram: 1 0 0 0 0 0 0 0 0 0
Nghost:    19795 ave 19795 max 19795 min
Histogram: 1 0 0 0 0 0 0 0 0 0
Neighs:    1.7945e+06 ave 1.7945e+06 max 1.7945e+06 min
Histogram: 1 0 0 0 0 0 0 0 0 0

Total # of neighbors = 1794499
Ave neighs/atom = 91.3138
Neighbor list builds = 6172
Dangerous builds not checked
Setting up Verlet run ...
  Unit style    : metal
  Current step  : 133338
  Time step     : 0.001
Per MPI rank memory allocation (min/avg/max) = 19.72 | 19.72 | 19.72 Mbytes
Step Temp Press TotEng PotEng Enthalpy 
  133338    1773.2625    896.03339   -57083.952     -61588.2   -56930.714 
  133340    1773.1654    896.99094   -57083.973   -61587.975   -56930.571 
  133833    1718.5015    1472.4482   -57312.392   -61677.543   -57061.568 
Loop time of 133.334 on 1 procs for 495 steps with 19652 atoms

Performance: 0.321 ns/day, 74.823 hours/ns, 3.712 timesteps/s
99.4% CPU use with 1 MPI tasks x no OpenMP threads

MPI task timing breakdown:
Section |  min time  |  avg time  |  max time  |%varavg| %total
---------------------------------------------------------------
Pair    | 78.922     | 78.922     | 78.922     |   0.0 | 59.19
Neigh   | 48.541     | 48.541     | 48.541     |   0.0 | 36.41
Comm    | 2.3132     | 2.3132     | 2.3132     |   0.0 |  1.73
Output  | 0.060426   | 0.060426   | 0.060426   |   0.0 |  0.05
Modify  | 2.4982     | 2.4982     | 2.4982     |   0.0 |  1.87
Other   |            | 0.9995     |            |       |  0.75

Nlocal:    19652 ave 19652 max 19652 min
Histogram: 1 0 0 0 0 0 0 0 0 0
Nghost:    19822 ave 19822 max 19822 min
Histogram: 1 0 0 0 0 0 0 0 0 0
Neighs:    1.80191e+06 ave 1.80191e+06 max 1.80191e+06 min
Histogram: 1 0 0 0 0 0 0 0 0 0

Total # of neighbors = 1801906
Ave neighs/atom = 91.6907
Neighbor list builds = 495
Dangerous builds not checked
Setting up Verlet run ...
  Unit style    : metal
  Current step  : 133833
  Time step     : 0.001
Per MPI rank memory allocation (min/avg/max) = 19.72 | 19.72 | 19.72 Mbytes
Step Temp Press TotEng PotEng Enthalpy 
  133833    1718.5015    1472.4482   -57312.392   -61677.543   -57061.568 
  140005    1689.8889   -3057.7229   -57417.676   -61710.148   -57940.346 
Loop time of 1792.69 on 1 procs for 6172 steps with 19652 atoms

Performance: 0.297 ns/day, 80.682 hours/ns, 3.443 timesteps/s
95.4% CPU use with 1 MPI tasks x no OpenMP threads

MPI task timing breakdown:
Section |  min time  |  avg time  |  max time  |%varavg| %total
---------------------------------------------------------------
Pair    | 1057.9     | 1057.9     | 1057.9     |   0.0 | 59.01
Neigh   | 659.26     | 659.26     | 659.26     |   0.0 | 36.77
Comm    | 30.466     | 30.466     | 30.466     |   0.0 |  1.70
Output  | 0.0004878  | 0.0004878  | 0.0004878  |   0.0 |  0.00
Modify  | 32.184     | 32.184     | 32.184     |   0.0 |  1.80
Other   |            | 12.83      |            |       |  0.72

Nlocal:    19652 ave 19652 max 19652 min
Histogram: 1 0 0 0 0 0 0 0 0 0
Nghost:    19859 ave 19859 max 19859 min
Histogram: 1 0 0 0 0 0 0 0 0 0
Neighs:    1.79462e+06 ave 1.79462e+06 max 1.79462e+06 min
Histogram: 1 0 0 0 0 0 0 0 0 0

Total # of neighbors = 1794625
Ave neighs/atom = 91.3202
Neighbor list builds = 6172
Dangerous builds not checked
Setting up Verlet run ...
  Unit style    : metal
  Current step  : 140005
  Time step     : 0.001
Per MPI rank memory allocation (min/avg/max) = 19.72 | 19.72 | 19.72 Mbytes
Step Temp Press TotEng PotEng Enthalpy 
  140005    1689.8889   -3057.7229   -57417.676   -61710.148   -57940.346 
  140007    1689.0933   -3013.6481   -57417.668   -61708.119   -57932.803 
  140500    1646.0485   -2182.6097   -57631.128   -61812.241   -58002.666 
Loop time of 130.473 on 1 procs for 495 steps with 19652 atoms

Performance: 0.328 ns/day, 73.217 hours/ns, 3.794 timesteps/s
99.7% CPU use with 1 MPI tasks x no OpenMP threads

MPI task timing breakdown:
Section |  min time  |  avg time  |  max time  |%varavg| %total
---------------------------------------------------------------
Pair    | 77.258     | 77.258     | 77.258     |   0.0 | 59.21
Neigh   | 47.643     | 47.643     | 47.643     |   0.0 | 36.52
Comm    | 2.1993     | 2.1993     | 2.1993     |   0.0 |  1.69
Output  | 0.074206   | 0.074206   | 0.074206   |   0.0 |  0.06
Modify  | 2.3271     | 2.3271     | 2.3271     |   0.0 |  1.78
Other   |            | 0.9717     |            |       |  0.74

Nlocal:    19652 ave 19652 max 19652 min
Histogram: 1 0 0 0 0 0 0 0 0 0
Nghost:    19895 ave 19895 max 19895 min
Histogram: 1 0 0 0 0 0 0 0 0 0
Neighs:    1.80324e+06 ave 1.80324e+06 max 1.80324e+06 min
Histogram: 1 0 0 0 0 0 0 0 0 0

Total # of neighbors = 1803239
Ave neighs/atom = 91.7585
Neighbor list builds = 495
Dangerous builds not checked
Setting up Verlet run ...
  Unit style    : metal
  Current step  : 140500
  Time step     : 0.001
Per MPI rank memory allocation (min/avg/max) = 19.72 | 19.72 | 19.72 Mbytes
Step Temp Press TotEng PotEng Enthalpy 
  140500    1646.0485   -2182.6097   -57631.128   -61812.241   -58002.666 
  146672    1629.5239   -1786.1344   -57823.831   -61962.971   -58126.589 
Loop time of 1776.38 on 1 procs for 6172 steps with 19652 atoms

Performance: 0.300 ns/day, 79.948 hours/ns, 3.474 timesteps/s
94.3% CPU use with 1 MPI tasks x no OpenMP threads

MPI task timing breakdown:
Section |  min time  |  avg time  |  max time  |%varavg| %total
---------------------------------------------------------------
Pair    | 1049.3     | 1049.3     | 1049.3     |   0.0 | 59.07
Neigh   | 656.02     | 656.02     | 656.02     |   0.0 | 36.93
Comm    | 28.611     | 28.611     | 28.611     |   0.0 |  1.61
Output  | 0.00058103 | 0.00058103 | 0.00058103 |   0.0 |  0.00
Modify  | 30.151     | 30.151     | 30.151     |   0.0 |  1.70
Other   |            | 12.31      |            |       |  0.69

Nlocal:    19652 ave 19652 max 19652 min
Histogram: 1 0 0 0 0 0 0 0 0 0
Nghost:    19814 ave 19814 max 19814 min
Histogram: 1 0 0 0 0 0 0 0 0 0
Neighs:    1.81e+06 ave 1.81e+06 max 1.81e+06 min
Histogram: 1 0 0 0 0 0 0 0 0 0

Total # of neighbors = 1809997
Ave neighs/atom = 92.1024
Neighbor list builds = 6172
Dangerous builds not checked
Setting up Verlet run ...
  Unit style    : metal
  Current step  : 146672
  Time step     : 0.001
Per MPI rank memory allocation (min/avg/max) = 19.72 | 19.72 | 19.72 Mbytes
Step Temp Press TotEng PotEng Enthalpy 
  146672    1629.5239   -1786.1344   -57823.831   -61962.971   -58126.589 
  146674    1627.9397   -1704.4085   -57823.806   -61958.922   -58112.711 
  147167    1611.2589   -256.42133   -57918.612   -62011.356   -57961.974 
Loop time of 126.417 on 1 procs for 495 steps with 19652 atoms

Performance: 0.338 ns/day, 70.941 hours/ns, 3.916 timesteps/s
98.7% CPU use with 1 MPI tasks x no OpenMP threads

MPI task timing breakdown:
Section |  min time  |  avg time  |  max time  |%varavg| %total
---------------------------------------------------------------
Pair    | 75.023     | 75.023     | 75.023     |   0.0 | 59.35
Neigh   | 45.606     | 45.606     | 45.606     |   0.0 | 36.08
Comm    | 2.0428     | 2.0428     | 2.0428     |   0.0 |  1.62
Output  | 0.66763    | 0.66763    | 0.66763    |   0.0 |  0.53
Modify  | 2.1742     | 2.1742     | 2.1742     |   0.0 |  1.72
Other   |            | 0.904      |            |       |  0.72

Nlocal:    19652 ave 19652 max 19652 min
Histogram: 1 0 0 0 0 0 0 0 0 0
Nghost:    19937 ave 19937 max 19937 min
Histogram: 1 0 0 0 0 0 0 0 0 0
Neighs:    1.81347e+06 ave 1.81347e+06 max 1.81347e+06 min
Histogram: 1 0 0 0 0 0 0 0 0 0

Total # of neighbors = 1813473
Ave neighs/atom = 92.2793
Neighbor list builds = 495
Dangerous builds not checked
Setting up Verlet run ...
  Unit style    : metal
  Current step  : 147167
  Time step     : 0.001
Per MPI rank memory allocation (min/avg/max) = 19.72 | 19.72 | 19.72 Mbytes
Step Temp Press TotEng PotEng Enthalpy 
  147167    1611.2589   -256.42133   -57918.612   -62011.356   -57961.974 
  153339    1595.3881   -1366.5365   -57977.226   -62029.657   -58208.372 
Loop time of 1767.36 on 1 procs for 6172 steps with 19652 atoms

Performance: 0.302 ns/day, 79.542 hours/ns, 3.492 timesteps/s
96.6% CPU use with 1 MPI tasks x no OpenMP threads

MPI task timing breakdown:
Section |  min time  |  avg time  |  max time  |%varavg| %total
---------------------------------------------------------------
Pair    | 1043       | 1043       | 1043       |   0.0 | 59.01
Neigh   | 650.33     | 650.33     | 650.33     |   0.0 | 36.80
Comm    | 29.652     | 29.652     | 29.652     |   0.0 |  1.68
Output  | 0.00050688 | 0.00050688 | 0.00050688 |   0.0 |  0.00
Modify  | 31.604     | 31.604     | 31.604     |   0.0 |  1.79
Other   |            | 12.79      |            |       |  0.72

Nlocal:    19652 ave 19652 max 19652 min
Histogram: 1 0 0 0 0 0 0 0 0 0
Nghost:    19962 ave 19962 max 19962 min
Histogram: 1 0 0 0 0 0 0 0 0 0
Neighs:    1.81434e+06 ave 1.81434e+06 max 1.81434e+06 min
Histogram: 1 0 0 0 0 0 0 0 0 0

Total # of neighbors = 1814335
Ave neighs/atom = 92.3232
Neighbor list builds = 6172
Dangerous builds not checked
Setting up Verlet run ...
  Unit style    : metal
  Current step  : 153339
  Time step     : 0.001
Per MPI rank memory allocation (min/avg/max) = 19.72 | 19.72 | 19.72 Mbytes
Step Temp Press TotEng PotEng Enthalpy 
  153339    1595.3881   -1366.5365   -57977.226   -62029.657   -58208.372 
  153341    1594.5246   -1324.9351    -57977.22   -62027.458    -58201.33 
  153834    1555.7268   -725.72194   -58260.632    -62212.32   -58382.684 
Loop time of 129.818 on 1 procs for 495 steps with 19652 atoms

Performance: 0.329 ns/day, 72.850 hours/ns, 3.813 timesteps/s
98.0% CPU use with 1 MPI tasks x no OpenMP threads

MPI task timing breakdown:
Section |  min time  |  avg time  |  max time  |%varavg| %total
---------------------------------------------------------------
Pair    | 77.187     | 77.187     | 77.187     |   0.0 | 59.46
Neigh   | 47.31      | 47.31      | 47.31      |   0.0 | 36.44
Comm    | 2.1141     | 2.1141     | 2.1141     |   0.0 |  1.63
Output  | 0.074984   | 0.074984   | 0.074984   |   0.0 |  0.06
Modify  | 2.1911     | 2.1911     | 2.1911     |   0.0 |  1.69
Other   |            | 0.9413     |            |       |  0.73

Nlocal:    19652 ave 19652 max 19652 min
Histogram: 1 0 0 0 0 0 0 0 0 0
Nghost:    20002 ave 20002 max 20002 min
Histogram: 1 0 0 0 0 0 0 0 0 0
Neighs:    1.82336e+06 ave 1.82336e+06 max 1.82336e+06 min
Histogram: 1 0 0 0 0 0 0 0 0 0

Total # of neighbors = 1823355
Ave neighs/atom = 92.7822
Neighbor list builds = 495
Dangerous builds not checked
Setting up Verlet run ...
  Unit style    : metal
  Current step  : 153834
  Time step     : 0.001
Per MPI rank memory allocation (min/avg/max) = 19.72 | 19.72 | 19.72 Mbytes
Step Temp Press TotEng PotEng Enthalpy 
  153834    1555.7268   -725.72194   -58260.632    -62212.32   -58382.684 
  160006    1559.3133    882.00547   -58290.289   -62251.087   -58142.324 
Loop time of 1795.64 on 1 procs for 6172 steps with 19652 atoms

Performance: 0.297 ns/day, 80.815 hours/ns, 3.437 timesteps/s
95.2% CPU use with 1 MPI tasks x no OpenMP threads

MPI task timing breakdown:
Section |  min time  |  avg time  |  max time  |%varavg| %total
---------------------------------------------------------------
Pair    | 1062.2     | 1062.2     | 1062.2     |   0.0 | 59.15
Neigh   | 658.92     | 658.92     | 658.92     |   0.0 | 36.70
Comm    | 30.19      | 30.19      | 30.19      |   0.0 |  1.68
Output  | 0.00053    | 0.00053    | 0.00053    |   0.0 |  0.00
Modify  | 31.544     | 31.544     | 31.544     |   0.0 |  1.76
Other   |            | 12.81      |            |       |  0.71

Nlocal:    19652 ave 19652 max 19652 min
Histogram: 1 0 0 0 0 0 0 0 0 0
Nghost:    20016 ave 20016 max 20016 min
Histogram: 1 0 0 0 0 0 0 0 0 0
Neighs:    1.8279e+06 ave 1.8279e+06 max 1.8279e+06 min
Histogram: 1 0 0 0 0 0 0 0 0 0

Total # of neighbors = 1827902
Ave neighs/atom = 93.0135
Neighbor list builds = 6172
Dangerous builds not checked
Setting up Verlet run ...
  Unit style    : metal
  Current step  : 160006
  Time step     : 0.001
Per MPI rank memory allocation (min/avg/max) = 19.72 | 19.72 | 19.72 Mbytes
Step Temp Press TotEng PotEng Enthalpy 
  160006    1559.3133    882.00547   -58290.289   -62251.087   -58142.324 
  160008    1558.8892    928.92275     -58290.3   -62250.021   -58134.464 
  160501     1525.294    297.36736   -58522.231   -62396.616   -58472.509 
Loop time of 124.331 on 1 procs for 495 steps with 19652 atoms

Performance: 0.344 ns/day, 69.771 hours/ns, 3.981 timesteps/s
97.1% CPU use with 1 MPI tasks x no OpenMP threads

MPI task timing breakdown:
Section |  min time  |  avg time  |  max time  |%varavg| %total
---------------------------------------------------------------
Pair    | 74.081     | 74.081     | 74.081     |   0.0 | 59.58
Neigh   | 45.848     | 45.848     | 45.848     |   0.0 | 36.88
Comm    | 1.686      | 1.686      | 1.686      |   0.0 |  1.36
Output  | 0.076594   | 0.076594   | 0.076594   |   0.0 |  0.06
Modify  | 1.8522     | 1.8522     | 1.8522     |   0.0 |  1.49
Other   |            | 0.7868     |            |       |  0.63

Nlocal:    19652 ave 19652 max 19652 min
Histogram: 1 0 0 0 0 0 0 0 0 0
Nghost:    19995 ave 19995 max 19995 min
Histogram: 1 0 0 0 0 0 0 0 0 0
Neighs:    1.83446e+06 ave 1.83446e+06 max 1.83446e+06 min
Histogram: 1 0 0 0 0 0 0 0 0 0

Total # of neighbors = 1834462
Ave neighs/atom = 93.3473
Neighbor list builds = 495
Dangerous builds not checked
Setting up Verlet run ...
  Unit style    : metal
  Current step  : 160501
  Time step     : 0.001
Per MPI rank memory allocation (min/avg/max) = 19.72 | 19.72 | 19.72 Mbytes
Step Temp Press TotEng PotEng Enthalpy 
  160501     1525.294    297.36736   -58522.231   -62396.616   -58472.509 
  166673    1492.7268    231.72414   -58700.159   -62491.821   -58661.506 
Loop time of 1750.56 on 1 procs for 6172 steps with 19652 atoms

Performance: 0.305 ns/day, 78.786 hours/ns, 3.526 timesteps/s
95.5% CPU use with 1 MPI tasks x no OpenMP threads

MPI task timing breakdown:
Section |  min time  |  avg time  |  max time  |%varavg| %total
---------------------------------------------------------------
Pair    | 1038.4     | 1038.4     | 1038.4     |   0.0 | 59.32
Neigh   | 641.04     | 641.04     | 641.04     |   0.0 | 36.62
Comm    | 28.753     | 28.753     | 28.753     |   0.0 |  1.64
Output  | 0.00050998 | 0.00050998 | 0.00050998 |   0.0 |  0.00
Modify  | 30.128     | 30.128     | 30.128     |   0.0 |  1.72
Other   |            | 12.22      |            |       |  0.70

Nlocal:    19652 ave 19652 max 19652 min
Histogram: 1 0 0 0 0 0 0 0 0 0
Nghost:    20055 ave 20055 max 20055 min
Histogram: 1 0 0 0 0 0 0 0 0 0
Neighs:    1.8378e+06 ave 1.8378e+06 max 1.8378e+06 min
Histogram: 1 0 0 0 0 0 0 0 0 0

Total # of neighbors = 1837797
Ave neighs/atom = 93.517
Neighbor list builds = 6172
Dangerous builds not checked
Setting up Verlet run ...
  Unit style    : metal
  Current step  : 166673
  Time step     : 0.001
Per MPI rank memory allocation (min/avg/max) = 19.72 | 19.72 | 19.72 Mbytes
Step Temp Press TotEng PotEng Enthalpy 
  166673    1492.7268    231.72414   -58700.159   -62491.821   -58661.506 
  166675    1493.3067     200.5898   -58700.154   -62493.289   -58666.694 
  167168    1471.9736    588.99352   -58846.031   -62584.978   -58748.048 
Loop time of 136.685 on 1 procs for 495 steps with 19652 atoms

Performance: 0.313 ns/day, 76.703 hours/ns, 3.621 timesteps/s
97.5% CPU use with 1 MPI tasks x no OpenMP threads

MPI task timing breakdown:
Section |  min time  |  avg time  |  max time  |%varavg| %total
---------------------------------------------------------------
Pair    | 81.809     | 81.809     | 81.809     |   0.0 | 59.85
Neigh   | 48.453     | 48.453     | 48.453     |   0.0 | 35.45
Comm    | 2.5414     | 2.5414     | 2.5414     |   0.0 |  1.86
Output  | 0.069603   | 0.069603   | 0.069603   |   0.0 |  0.05
Modify  | 2.7264     | 2.7264     | 2.7264     |   0.0 |  1.99
Other   |            | 1.085      |            |       |  0.79

Nlocal:    19652 ave 19652 max 19652 min
Histogram: 1 0 0 0 0 0 0 0 0 0
Nghost:    20007 ave 20007 max 20007 min
Histogram: 1 0 0 0 0 0 0 0 0 0
Neighs:    1.8431e+06 ave 1.8431e+06 max 1.8431e+06 min
Histogram: 1 0 0 0 0 0 0 0 0 0

Total # of neighbors = 1843100
Ave neighs/atom = 93.7869
Neighbor list builds = 495
Dangerous builds not checked
Setting up Verlet run ...
  Unit style    : metal
  Current step  : 167168
  Time step     : 0.001
Per MPI rank memory allocation (min/avg/max) = 19.72 | 19.72 | 19.72 Mbytes
Step Temp Press TotEng PotEng Enthalpy 
  167168    1471.9736    588.99352   -58846.031   -62584.978   -58748.048 
  173340    1461.2997   -712.67007   -58921.408   -62633.242    -59039.95 
Loop time of 1765.82 on 1 procs for 6172 steps with 19652 atoms

Performance: 0.302 ns/day, 79.473 hours/ns, 3.495 timesteps/s
95.6% CPU use with 1 MPI tasks x no OpenMP threads

MPI task timing breakdown:
Section |  min time  |  avg time  |  max time  |%varavg| %total
---------------------------------------------------------------
Pair    | 1048.8     | 1048.8     | 1048.8     |   0.0 | 59.39
Neigh   | 644.13     | 644.13     | 644.13     |   0.0 | 36.48
Comm    | 29.373     | 29.373     | 29.373     |   0.0 |  1.66
Output  | 0.00079489 | 0.00079489 | 0.00079489 |   0.0 |  0.00
Modify  | 31.016     | 31.016     | 31.016     |   0.0 |  1.76
Other   |            | 12.51      |            |       |  0.71

Nlocal:    19652 ave 19652 max 19652 min
Histogram: 1 0 0 0 0 0 0 0 0 0
Nghost:    19973 ave 19973 max 19973 min
Histogram: 1 0 0 0 0 0 0 0 0 0
Neighs:    1.84292e+06 ave 1.84292e+06 max 1.84292e+06 min
Histogram: 1 0 0 0 0 0 0 0 0 0

Total # of neighbors = 1842918
Ave neighs/atom = 93.7776
Neighbor list builds = 6172
Dangerous builds not checked
Setting up Verlet run ...
  Unit style    : metal
  Current step  : 173340
  Time step     : 0.001
Per MPI rank memory allocation (min/avg/max) = 19.72 | 19.72 | 19.72 Mbytes
Step Temp Press TotEng PotEng Enthalpy 
  173340    1461.2997   -712.67007   -58921.408   -62633.242    -59039.95 
  173342    1460.7733   -653.19907   -58921.421   -62631.918   -59030.071 
  173835     1407.829      620.592   -59180.262   -62756.276   -59077.521 
Loop time of 125.675 on 1 procs for 495 steps with 19652 atoms

Performance: 0.340 ns/day, 70.525 hours/ns, 3.939 timesteps/s
99.1% CPU use with 1 MPI tasks x no OpenMP threads

MPI task timing breakdown:
Section |  min time  |  avg time  |  max time  |%varavg| %total
---------------------------------------------------------------
Pair    | 75.289     | 75.289     | 75.289     |   0.0 | 59.91
Neigh   | 45.484     | 45.484     | 45.484     |   0.0 | 36.19
Comm    | 1.9358     | 1.9358     | 1.9358     |   0.0 |  1.54
Output  | 0.070935   | 0.070935   | 0.070935   |   0.0 |  0.06
Modify  | 2.0212     | 2.0212     | 2.0212     |   0.0 |  1.61
Other   |            | 0.874      |            |       |  0.70

Nlocal:    19652 ave 19652 max 19652 min
Histogram: 1 0 0 0 0 0 0 0 0 0
Nghost:    20104 ave 20104 max 20104 min
Histogram: 1 0 0 0 0 0 0 0 0 0
Neighs:    1.85129e+06 ave 1.85129e+06 max 1.85129e+06 min
Histogram: 1 0 0 0 0 0 0 0 0 0

Total # of neighbors = 1851294
Ave neighs/atom = 94.2038
Neighbor list builds = 495
Dangerous builds not checked
Setting up Verlet run ...
  Unit style    : metal
  Current step  : 173835
  Time step     : 0.001
Per MPI rank memory allocation (min/avg/max) = 19.72 | 19.72 | 19.72 Mbytes
Step Temp Press TotEng PotEng Enthalpy 
  173835     1407.829      620.592   -59180.262   -62756.276   -59077.521 
  180007    1392.7532    1181.6163   -59266.374   -62804.094   -59071.081 
Loop time of 1744.41 on 1 procs for 6172 steps with 19652 atoms

Performance: 0.306 ns/day, 78.509 hours/ns, 3.538 timesteps/s
98.3% CPU use with 1 MPI tasks x no OpenMP threads

MPI task timing breakdown:
Section |  min time  |  avg time  |  max time  |%varavg| %total
---------------------------------------------------------------
Pair    | 1038.3     | 1038.3     | 1038.3     |   0.0 | 59.52
Neigh   | 631.86     | 631.86     | 631.86     |   0.0 | 36.22
Comm    | 29.838     | 29.838     | 29.838     |   0.0 |  1.71
Output  | 0.00054193 | 0.00054193 | 0.00054193 |   0.0 |  0.00
Modify  | 31.564     | 31.564     | 31.564     |   0.0 |  1.81
Other   |            | 12.81      |            |       |  0.73

Nlocal:    19652 ave 19652 max 19652 min
Histogram: 1 0 0 0 0 0 0 0 0 0
Nghost:    20074 ave 20074 max 20074 min
Histogram: 1 0 0 0 0 0 0 0 0 0
Neighs:    1.8544e+06 ave 1.8544e+06 max 1.8544e+06 min
Histogram: 1 0 0 0 0 0 0 0 0 0

Total # of neighbors = 1854395
Ave neighs/atom = 94.3616
Neighbor list builds = 6172
Dangerous builds not checked
Setting up Verlet run ...
  Unit style    : metal
  Current step  : 180007
  Time step     : 0.001
Per MPI rank memory allocation (min/avg/max) = 19.72 | 19.72 | 19.72 Mbytes
Step Temp Press TotEng PotEng Enthalpy 
  180007    1392.7532    1181.6163   -59266.374   -62804.094   -59071.081 
  180009    1391.2689    1220.8807   -59266.363   -62800.313   -59064.581 
  180502    1362.6691    140.81244   -59452.407   -62913.711   -59429.186 
Loop time of 132.063 on 1 procs for 495 steps with 19652 atoms

Performance: 0.324 ns/day, 74.110 hours/ns, 3.748 timesteps/s
98.9% CPU use with 1 MPI tasks x no OpenMP threads

MPI task timing breakdown:
Section |  min time  |  avg time  |  max time  |%varavg| %total
---------------------------------------------------------------
Pair    | 79.18      | 79.18      | 79.18      |   0.0 | 59.96
Neigh   | 47.186     | 47.186     | 47.186     |   0.0 | 35.73
Comm    | 2.249      | 2.249      | 2.249      |   0.0 |  1.70
Output  | 0.076121   | 0.076121   | 0.076121   |   0.0 |  0.06
Modify  | 2.4238     | 2.4238     | 2.4238     |   0.0 |  1.84
Other   |            | 0.9486     |            |       |  0.72

Nlocal:    19652 ave 19652 max 19652 min
Histogram: 1 0 0 0 0 0 0 0 0 0
Nghost:    20141 ave 20141 max 20141 min
Histogram: 1 0 0 0 0 0 0 0 0 0
Neighs:    1.85859e+06 ave 1.85859e+06 max 1.85859e+06 min
Histogram: 1 0 0 0 0 0 0 0 0 0

Total # of neighbors = 1858590
Ave neighs/atom = 94.5751
Neighbor list builds = 495
Dangerous builds not checked
Setting up Verlet run ...
  Unit style    : metal
  Current step  : 180502
  Time step     : 0.001
Per MPI rank memory allocation (min/avg/max) = 19.72 | 19.72 | 19.72 Mbytes
Step Temp Press TotEng PotEng Enthalpy 
  180502    1362.6691    140.81244   -59452.407   -62913.711   -59429.186 
  186674     1357.968   -330.16924   -59573.568    -63022.93   -59627.895 
Loop time of 1760.17 on 1 procs for 6172 steps with 19652 atoms

Performance: 0.303 ns/day, 79.218 hours/ns, 3.506 timesteps/s
97.1% CPU use with 1 MPI tasks x no OpenMP threads

MPI task timing breakdown:
Section |  min time  |  avg time  |  max time  |%varavg| %total
---------------------------------------------------------------
Pair    | 1049.7     | 1049.7     | 1049.7     |   0.0 | 59.64
Neigh   | 635.79     | 635.79     | 635.79     |   0.0 | 36.12
Comm    | 30.299     | 30.299     | 30.299     |   0.0 |  1.72
Output  | 0.00080919 | 0.00080919 | 0.00080919 |   0.0 |  0.00
Modify  | 31.491     | 31.491     | 31.491     |   0.0 |  1.79
Other   |            | 12.89      |            |       |  0.73

Nlocal:    19652 ave 19652 max 19652 min
Histogram: 1 0 0 0 0 0 0 0 0 0
Nghost:    20144 ave 20144 max 20144 min
Histogram: 1 0 0 0 0 0 0 0 0 0
Neighs:    1.86184e+06 ave 1.86184e+06 max 1.86184e+06 min
Histogram: 1 0 0 0 0 0 0 0 0 0

Total # of neighbors = 1861842
Ave neighs/atom = 94.7406
Neighbor list builds = 6172
Dangerous builds not checked
Setting up Verlet run ...
  Unit style    : metal
  Current step  : 186674
  Time step     : 0.001
Per MPI rank memory allocation (min/avg/max) = 19.72 | 19.72 | 19.72 Mbytes
Step Temp Press TotEng PotEng Enthalpy 
  186674     1357.968   -330.16924   -59573.568    -63022.93   -59627.895 
  186676    1357.4204   -300.64903   -59573.573   -63021.544   -59623.042 
  187169    1309.4134    966.08203   -59802.433   -63128.463   -59644.104 
Loop time of 132.212 on 1 procs for 495 steps with 19652 atoms

Performance: 0.323 ns/day, 74.193 hours/ns, 3.744 timesteps/s
98.2% CPU use with 1 MPI tasks x no OpenMP threads

MPI task timing breakdown:
Section |  min time  |  avg time  |  max time  |%varavg| %total
---------------------------------------------------------------
Pair    | 79.738     | 79.738     | 79.738     |   0.0 | 60.31
Neigh   | 46.65      | 46.65      | 46.65      |   0.0 | 35.28
Comm    | 2.2606     | 2.2606     | 2.2606     |   0.0 |  1.71
Output  | 0.060257   | 0.060257   | 0.060257   |   0.0 |  0.05
Modify  | 2.4979     | 2.4979     | 2.4979     |   0.0 |  1.89
Other   |            | 1.006      |            |       |  0.76

Nlocal:    19652 ave 19652 max 19652 min
Histogram: 1 0 0 0 0 0 0 0 0 0
Nghost:    20125 ave 20125 max 20125 min
Histogram: 1 0 0 0 0 0 0 0 0 0
Neighs:    1.86963e+06 ave 1.86963e+06 max 1.86963e+06 min
Histogram: 1 0 0 0 0 0 0 0 0 0

Total # of neighbors = 1869627
Ave neighs/atom = 95.1367
Neighbor list builds = 495
Dangerous builds not checked
Setting up Verlet run ...
  Unit style    : metal
  Current step  : 187169
  Time step     : 0.001
Per MPI rank memory allocation (min/avg/max) = 19.72 | 19.72 | 19.72 Mbytes
Step Temp Press TotEng PotEng Enthalpy 
  187169    1309.4134    966.08203   -59802.433   -63128.463   -59644.104 
  193341    1285.7969    89.808758   -59955.161   -63221.203   -59940.465 
Loop time of 1792.78 on 1 procs for 6172 steps with 19652 atoms

Performance: 0.297 ns/day, 80.686 hours/ns, 3.443 timesteps/s
96.2% CPU use with 1 MPI tasks x no OpenMP threads

MPI task timing breakdown:
Section |  min time  |  avg time  |  max time  |%varavg| %total
---------------------------------------------------------------
Pair    | 1071.2     | 1071.2     | 1071.2     |   0.0 | 59.75
Neigh   | 644.52     | 644.52     | 644.52     |   0.0 | 35.95
Comm    | 31.326     | 31.326     | 31.326     |   0.0 |  1.75
Output  | 0.00026703 | 0.00026703 | 0.00026703 |   0.0 |  0.00
Modify  | 32.613     | 32.613     | 32.613     |   0.0 |  1.82
Other   |            | 13.1       |            |       |  0.73

Nlocal:    19652 ave 19652 max 19652 min
Histogram: 1 0 0 0 0 0 0 0 0 0
Nghost:    20221 ave 20221 max 20221 min
Histogram: 1 0 0 0 0 0 0 0 0 0
Neighs:    1.87185e+06 ave 1.87185e+06 max 1.87185e+06 min
Histogram: 1 0 0 0 0 0 0 0 0 0

Total # of neighbors = 1871850
Ave neighs/atom = 95.2498
Neighbor list builds = 6172
Dangerous builds not checked
Setting up Verlet run ...
  Unit style    : metal
  Current step  : 193341
  Time step     : 0.001
Per MPI rank memory allocation (min/avg/max) = 19.72 | 19.72 | 19.72 Mbytes
Step Temp Press TotEng PotEng Enthalpy 
  193341    1285.7969    89.808758   -59955.161   -63221.203   -59940.465 
  193343    1285.8392    83.200803   -59955.149   -63221.297   -59941.534 
  193836    1271.9843    468.18258   -60086.805   -63317.761   -60010.427 
Loop time of 153.383 on 1 procs for 495 steps with 19652 atoms

Performance: 0.279 ns/day, 86.073 hours/ns, 3.227 timesteps/s
86.1% CPU use with 1 MPI tasks x no OpenMP threads

MPI task timing breakdown:
Section |  min time  |  avg time  |  max time  |%varavg| %total
---------------------------------------------------------------
Pair    | 92.791     | 92.791     | 92.791     |   0.0 | 60.50
Neigh   | 54.255     | 54.255     | 54.255     |   0.0 | 35.37
Comm    | 2.4785     | 2.4785     | 2.4785     |   0.0 |  1.62
Output  | 0.1041     | 0.1041     | 0.1041     |   0.0 |  0.07
Modify  | 2.6986     | 2.6986     | 2.6986     |   0.0 |  1.76
Other   |            | 1.056      |            |       |  0.69

Nlocal:    19652 ave 19652 max 19652 min
Histogram: 1 0 0 0 0 0 0 0 0 0
Nghost:    20210 ave 20210 max 20210 min
Histogram: 1 0 0 0 0 0 0 0 0 0
Neighs:    1.87719e+06 ave 1.87719e+06 max 1.87719e+06 min
Histogram: 1 0 0 0 0 0 0 0 0 0

Total # of neighbors = 1877190
Ave neighs/atom = 95.5216
Neighbor list builds = 495
Dangerous builds not checked
Setting up Verlet run ...
  Unit style    : metal
  Current step  : 193836
  Time step     : 0.001
Per MPI rank memory allocation (min/avg/max) = 19.72 | 19.72 | 19.72 Mbytes
Step Temp Press TotEng PotEng Enthalpy 
  193836    1271.9843    468.18258   -60086.805   -63317.761   -60010.427 
  200008     1253.672   -476.65049   -60266.634   -63451.075   -60344.228 
Loop time of 1785.36 on 1 procs for 6172 steps with 19652 atoms

Performance: 0.299 ns/day, 80.352 hours/ns, 3.457 timesteps/s
94.1% CPU use with 1 MPI tasks x no OpenMP threads

MPI task timing breakdown:
Section |  min time  |  avg time  |  max time  |%varavg| %total
---------------------------------------------------------------
Pair    | 1069       | 1069       | 1069       |   0.0 | 59.87
Neigh   | 643.81     | 643.81     | 643.81     |   0.0 | 36.06
Comm    | 29.463     | 29.463     | 29.463     |   0.0 |  1.65
Output  | 0.00078797 | 0.00078797 | 0.00078797 |   0.0 |  0.00
Modify  | 30.76      | 30.76      | 30.76      |   0.0 |  1.72
Other   |            | 12.35      |            |       |  0.69

Nlocal:    19652 ave 19652 max 19652 min
Histogram: 1 0 0 0 0 0 0 0 0 0
Nghost:    20194 ave 20194 max 20194 min
Histogram: 1 0 0 0 0 0 0 0 0 0
Neighs:    1.88127e+06 ave 1.88127e+06 max 1.88127e+06 min
Histogram: 1 0 0 0 0 0 0 0 0 0

Total # of neighbors = 1881273
Ave neighs/atom = 95.7293
Neighbor list builds = 6172
Dangerous builds not checked
Setting up Verlet run ...
  Unit style    : metal
  Current step  : 200008
  Time step     : 0.001
Per MPI rank memory allocation (min/avg/max) = 19.72 | 19.72 | 19.72 Mbytes
Step Temp Press TotEng PotEng Enthalpy 
  200008     1253.672   -476.65049   -60266.634   -63451.075   -60344.228 
  200010    1254.5425   -522.02173    -60266.64   -63453.292    -60351.62 
  200503    1212.2492   -238.16047   -60437.751   -63516.974   -60476.423 
Loop time of 161.004 on 1 procs for 495 steps with 19652 atoms

Performance: 0.266 ns/day, 90.350 hours/ns, 3.074 timesteps/s
82.9% CPU use with 1 MPI tasks x no OpenMP threads

MPI task timing breakdown:
Section |  min time  |  avg time  |  max time  |%varavg| %total
---------------------------------------------------------------
Pair    | 97.039     | 97.039     | 97.039     |   0.0 | 60.27
Neigh   | 56.879     | 56.879     | 56.879     |   0.0 | 35.33
Comm    | 2.77       | 2.77       | 2.77       |   0.0 |  1.72
Output  | 0.070525   | 0.070525   | 0.070525   |   0.0 |  0.04
Modify  | 3.0095     | 3.0095     | 3.0095     |   0.0 |  1.87
Other   |            | 1.235      |            |       |  0.77

Nlocal:    19652 ave 19652 max 19652 min
Histogram: 1 0 0 0 0 0 0 0 0 0
Nghost:    20232 ave 20232 max 20232 min
Histogram: 1 0 0 0 0 0 0 0 0 0
Neighs:    1.8862e+06 ave 1.8862e+06 max 1.8862e+06 min
Histogram: 1 0 0 0 0 0 0 0 0 0

Total # of neighbors = 1886202
Ave neighs/atom = 95.9802
Neighbor list builds = 495
Dangerous builds not checked
Setting up Verlet run ...
  Unit style    : metal
  Current step  : 200503
  Time step     : 0.001
Per MPI rank memory allocation (min/avg/max) = 19.72 | 19.72 | 19.72 Mbytes
Step Temp Press TotEng PotEng Enthalpy 
  200503    1212.2492   -238.16047   -60437.751   -63516.974   -60476.423 
  206675    1205.7599    1448.7763   -60563.757   -63626.497   -60329.413 
Loop time of 1750.76 on 1 procs for 6172 steps with 19652 atoms

Performance: 0.305 ns/day, 78.795 hours/ns, 3.525 timesteps/s
96.7% CPU use with 1 MPI tasks x no OpenMP threads

MPI task timing breakdown:
Section |  min time  |  avg time  |  max time  |%varavg| %total
---------------------------------------------------------------
Pair    | 1046.5     | 1046.5     | 1046.5     |   0.0 | 59.78
Neigh   | 631.46     | 631.46     | 631.46     |   0.0 | 36.07
Comm    | 29.499     | 29.499     | 29.499     |   0.0 |  1.68
Output  | 0.00028992 | 0.00028992 | 0.00028992 |   0.0 |  0.00
Modify  | 30.752     | 30.752     | 30.752     |   0.0 |  1.76
Other   |            | 12.52      |            |       |  0.71

Nlocal:    19652 ave 19652 max 19652 min
Histogram: 1 0 0 0 0 0 0 0 0 0
Nghost:    20301 ave 20301 max 20301 min
Histogram: 1 0 0 0 0 0 0 0 0 0
Neighs:    1.89292e+06 ave 1.89292e+06 max 1.89292e+06 min
Histogram: 1 0 0 0 0 0 0 0 0 0

Total # of neighbors = 1892921
Ave neighs/atom = 96.3221
Neighbor list builds = 6172
Dangerous builds not checked
Setting up Verlet run ...
  Unit style    : metal
  Current step  : 206675
  Time step     : 0.001
[...]
98.5% CPU use with 1 MPI tasks x no OpenMP threads

MPI task timing breakdown:
Section |  min time  |  avg time  |  max time  |%varavg| %total
---------------------------------------------------------------
Pair    | 87.539     | 87.539     | 87.539     |   0.0 | 59.80
Neigh   | 52.101     | 52.101     | 52.101     |   0.0 | 35.59
Comm    | 2.7326     | 2.7326     | 2.7326     |   0.0 |  1.87
Output  | 0.064552   | 0.064552   | 0.064552   |   0.0 |  0.04
Modify  | 2.8054     | 2.8054     | 2.8054     |   0.0 |  1.92
Other   |            | 1.143      |            |       |  0.78

Nlocal:    19652 ave 19652 max 19652 min
Histogram: 1 0 0 0 0 0 0 0 0 0
Nghost:    20963 ave 20963 max 20963 min
Histogram: 1 0 0 0 0 0 0 0 0 0
Neighs:    2.03762e+06 ave 2.03762e+06 max 2.03762e+06 min
Histogram: 1 0 0 0 0 0 0 0 0 0

Total # of neighbors = 2037620
Ave neighs/atom = 103.685
Neighbor list builds = 495
Dangerous builds not checked
Setting up Verlet run ...
  Unit style    : metal
  Current step  : 307175
  Time step     : 0.001
Per MPI rank memory allocation (min/avg/max) = 19.73 | 19.73 | 19.73 Mbytes
Step Temp Press TotEng PotEng Enthalpy 
  307175    422.06757     71.26176   -65856.432   -66928.522   -65845.754 
  313347    401.27307   -705.57272   -65988.771   -67008.041   -66094.406 
Loop time of 1743.03 on 1 procs for 6172 steps with 19652 atoms

Performance: 0.306 ns/day, 78.447 hours/ns, 3.541 timesteps/s
98.5% CPU use with 1 MPI tasks x no OpenMP threads

MPI task timing breakdown:
Section |  min time  |  avg time  |  max time  |%varavg| %total
---------------------------------------------------------------
Pair    | 1045.2     | 1045.2     | 1045.2     |   0.0 | 59.96
Neigh   | 626.4      | 626.4      | 626.4      |   0.0 | 35.94
Comm    | 29.031     | 29.031     | 29.031     |   0.0 |  1.67
Output  | 0.00061297 | 0.00061297 | 0.00061297 |   0.0 |  0.00
Modify  | 29.993     | 29.993     | 29.993     |   0.0 |  1.72
Other   |            | 12.46      |            |       |  0.71

Nlocal:    19652 ave 19652 max 19652 min
Histogram: 1 0 0 0 0 0 0 0 0 0
Nghost:    20957 ave 20957 max 20957 min
Histogram: 1 0 0 0 0 0 0 0 0 0
Neighs:    2.03984e+06 ave 2.03984e+06 max 2.03984e+06 min
Histogram: 1 0 0 0 0 0 0 0 0 0

Total # of neighbors = 2039838
Ave neighs/atom = 103.798
Neighbor list builds = 6172
Dangerous builds not checked
Setting up Verlet run ...
  Unit style    : metal
  Current step  : 313347
  Time step     : 0.001
Per MPI rank memory allocation (min/avg/max) = 19.73 | 19.73 | 19.73 Mbytes
Step Temp Press TotEng PotEng Enthalpy 
  313347    401.27307   -705.57272   -65988.771   -67008.041   -66094.406 
  313349    401.22564   -704.13964   -65988.772   -67007.922   -66094.193 
  313842    369.93966    137.47677    -66143.68   -67083.361   -66123.148 
Loop time of 139.634 on 1 procs for 495 steps with 19652 atoms

Performance: 0.306 ns/day, 78.358 hours/ns, 3.545 timesteps/s
98.3% CPU use with 1 MPI tasks x no OpenMP threads

MPI task timing breakdown:
Section |  min time  |  avg time  |  max time  |%varavg| %total
---------------------------------------------------------------
Pair    | 83.915     | 83.915     | 83.915     |   0.0 | 60.10
Neigh   | 49.848     | 49.848     | 49.848     |   0.0 | 35.70
Comm    | 2.3595     | 2.3595     | 2.3595     |   0.0 |  1.69
Output  | 0.075447   | 0.075447   | 0.075447   |   0.0 |  0.05
Modify  | 2.4221     | 2.4221     | 2.4221     |   0.0 |  1.73
Other   |            | 1.015      |            |       |  0.73

Nlocal:    19652 ave 19652 max 19652 min
Histogram: 1 0 0 0 0 0 0 0 0 0
Nghost:    20985 ave 20985 max 20985 min
Histogram: 1 0 0 0 0 0 0 0 0 0
Neighs:    2.0461e+06 ave 2.0461e+06 max 2.0461e+06 min
Histogram: 1 0 0 0 0 0 0 0 0 0

Total # of neighbors = 2046105
Ave neighs/atom = 104.117
Neighbor list builds = 495
Dangerous builds not checked
Setting up Verlet run ...
  Unit style    : metal
  Current step  : 313842
  Time step     : 0.001
Per MPI rank memory allocation (min/avg/max) = 19.73 | 19.73 | 19.73 Mbytes
Step Temp Press TotEng PotEng Enthalpy 
  313842    369.93966    137.47677    -66143.68   -67083.361   -66123.148 
  320014    351.25379   -1330.8729   -66273.936   -67166.152   -66472.602 
Loop time of 1739.2 on 1 procs for 6172 steps with 19652 atoms

Performance: 0.307 ns/day, 78.275 hours/ns, 3.549 timesteps/s
99.2% CPU use with 1 MPI tasks x no OpenMP threads

MPI task timing breakdown:
Section |  min time  |  avg time  |  max time  |%varavg| %total
---------------------------------------------------------------
Pair    | 1044.7     | 1044.7     | 1044.7     |   0.0 | 60.07
Neigh   | 622.58     | 622.58     | 622.58     |   0.0 | 35.80
Comm    | 28.987     | 28.987     | 28.987     |   0.0 |  1.67
Output  | 0.00051212 | 0.00051212 | 0.00051212 |   0.0 |  0.00
Modify  | 30.273     | 30.273     | 30.273     |   0.0 |  1.74
Other   |            | 12.68      |            |       |  0.73

Nlocal:    19652 ave 19652 max 19652 min
Histogram: 1 0 0 0 0 0 0 0 0 0
Nghost:    20973 ave 20973 max 20973 min
Histogram: 1 0 0 0 0 0 0 0 0 0
Neighs:    2.04697e+06 ave 2.04697e+06 max 2.04697e+06 min
Histogram: 1 0 0 0 0 0 0 0 0 0

Total # of neighbors = 2046972
Ave neighs/atom = 104.161
Neighbor list builds = 6172
Dangerous builds not checked
Setting up Verlet run ...
  Unit style    : metal
  Current step  : 320014
  Time step     : 0.001
Per MPI rank memory allocation (min/avg/max) = 19.73 | 19.73 | 19.73 Mbytes
Step Temp Press TotEng PotEng Enthalpy 
  320014    351.25379   -1330.8729   -66273.936   -67166.152   -66472.602 
  320016    350.88363   -1312.8593   -66273.937   -67165.213   -66469.914 
  320509    322.46058     664.3316   -66425.265   -67244.345   -66326.414 
Loop time of 134.998 on 1 procs for 495 steps with 19652 atoms

Performance: 0.317 ns/day, 75.757 hours/ns, 3.667 timesteps/s
99.2% CPU use with 1 MPI tasks x no OpenMP threads

MPI task timing breakdown:
Section |  min time  |  avg time  |  max time  |%varavg| %total
---------------------------------------------------------------
Pair    | 81.368     | 81.368     | 81.368     |   0.0 | 60.27
Neigh   | 48.331     | 48.331     | 48.331     |   0.0 | 35.80
Comm    | 2.0822     | 2.0822     | 2.0822     |   0.0 |  1.54
Output  | 0.060293   | 0.060293   | 0.060293   |   0.0 |  0.04
Modify  | 2.1949     | 2.1949     | 2.1949     |   0.0 |  1.63
Other   |            | 0.9623     |            |       |  0.71

Nlocal:    19652 ave 19652 max 19652 min
Histogram: 1 0 0 0 0 0 0 0 0 0
Nghost:    21007 ave 21007 max 21007 min
Histogram: 1 0 0 0 0 0 0 0 0 0
Neighs:    2.05444e+06 ave 2.05444e+06 max 2.05444e+06 min
Histogram: 1 0 0 0 0 0 0 0 0 0

Total # of neighbors = 2054438
Ave neighs/atom = 104.541
Neighbor list builds = 495
Dangerous builds not checked
Setting up Verlet run ...
  Unit style    : metal
  Current step  : 320509
  Time step     : 0.001
Per MPI rank memory allocation (min/avg/max) = 19.73 | 19.73 | 19.73 Mbytes
Step Temp Press TotEng PotEng Enthalpy 
  320509    322.46058     664.3316   -66425.265   -67244.345   -66326.414 
  326681    299.18173   -451.15856   -66559.186   -67319.135   -66626.274 
Loop time of 1790.47 on 1 procs for 6172 steps with 19652 atoms

Performance: 0.298 ns/day, 80.582 hours/ns, 3.447 timesteps/s
93.9% CPU use with 1 MPI tasks x no OpenMP threads

MPI task timing breakdown:
Section |  min time  |  avg time  |  max time  |%varavg| %total
---------------------------------------------------------------
Pair    | 1080.6     | 1080.6     | 1080.6     |   0.0 | 60.35
Neigh   | 640.31     | 640.31     | 640.31     |   0.0 | 35.76
Comm    | 28.154     | 28.154     | 28.154     |   0.0 |  1.57
Output  | 0.00029612 | 0.00029612 | 0.00029612 |   0.0 |  0.00
Modify  | 29.446     | 29.446     | 29.446     |   0.0 |  1.64
Other   |            | 11.93      |            |       |  0.67

Nlocal:    19652 ave 19652 max 19652 min
Histogram: 1 0 0 0 0 0 0 0 0 0
Nghost:    20986 ave 20986 max 20986 min
Histogram: 1 0 0 0 0 0 0 0 0 0
Neighs:    2.05586e+06 ave 2.05586e+06 max 2.05586e+06 min
Histogram: 1 0 0 0 0 0 0 0 0 0

Total # of neighbors = 2055862
Ave neighs/atom = 104.613
Neighbor list builds = 6172
Dangerous builds not checked
Setting up Verlet run ...
  Unit style    : metal
  Current step  : 326681
  Time step     : 0.001
Per MPI rank memory allocation (min/avg/max) = 19.73 | 19.73 | 19.73 Mbytes
Step Temp Press TotEng PotEng Enthalpy 
  326681    299.18173   -451.15856   -66559.186   -67319.135   -66626.274 
  326683    299.27611   -450.98241   -66559.186   -67319.374   -66626.248 
  327176    273.24523    705.27759   -66700.569   -67394.636   -66595.951 
Loop time of 157.05 on 1 procs for 495 steps with 19652 atoms

Performance: 0.272 ns/day, 88.131 hours/ns, 3.152 timesteps/s
85.2% CPU use with 1 MPI tasks x no OpenMP threads

MPI task timing breakdown:
Section |  min time  |  avg time  |  max time  |%varavg| %total
---------------------------------------------------------------
Pair    | 95.958     | 95.958     | 95.958     |   0.0 | 61.10
Neigh   | 54.93      | 54.93      | 54.93      |   0.0 | 34.98
Comm    | 2.4416     | 2.4416     | 2.4416     |   0.0 |  1.55
Output  | 0.072678   | 0.072678   | 0.072678   |   0.0 |  0.05
Modify  | 2.625      | 2.625      | 2.625      |   0.0 |  1.67
Other   |            | 1.022      |            |       |  0.65

Nlocal:    19652 ave 19652 max 19652 min
Histogram: 1 0 0 0 0 0 0 0 0 0
Nghost:    21033 ave 21033 max 21033 min
Histogram: 1 0 0 0 0 0 0 0 0 0
Neighs:    2.0618e+06 ave 2.0618e+06 max 2.0618e+06 min
Histogram: 1 0 0 0 0 0 0 0 0 0

Total # of neighbors = 2061799
Ave neighs/atom = 104.915
Neighbor list builds = 495
Dangerous builds not checked
Setting up Verlet run ...
  Unit style    : metal
  Current step  : 327176
  Time step     : 0.001
Per MPI rank memory allocation (min/avg/max) = 19.73 | 19.73 | 19.73 Mbytes
Step Temp Press TotEng PotEng Enthalpy 
  327176    273.24523    705.27759   -66700.569   -67394.636   -66595.951 
  333348    249.71884   -96.642908   -66836.088   -67470.397    -66850.41 
Loop time of 1871.18 on 1 procs for 6172 steps with 19652 atoms

Performance: 0.285 ns/day, 84.215 hours/ns, 3.298 timesteps/s
90.2% CPU use with 1 MPI tasks x no OpenMP threads

MPI task timing breakdown:
Section |  min time  |  avg time  |  max time  |%varavg| %total
---------------------------------------------------------------
Pair    | 1131.9     | 1131.9     | 1131.9     |   0.0 | 60.49
Neigh   | 665.79     | 665.79     | 665.79     |   0.0 | 35.58
Comm    | 30.054     | 30.054     | 30.054     |   0.0 |  1.61
Output  | 0.00092697 | 0.00092697 | 0.00092697 |   0.0 |  0.00
Modify  | 31.016     | 31.016     | 31.016     |   0.0 |  1.66
Other   |            | 12.46      |            |       |  0.67

Nlocal:    19652 ave 19652 max 19652 min
Histogram: 1 0 0 0 0 0 0 0 0 0
Nghost:    21039 ave 21039 max 21039 min
Histogram: 1 0 0 0 0 0 0 0 0 0
Neighs:    2.06397e+06 ave 2.06397e+06 max 2.06397e+06 min
Histogram: 1 0 0 0 0 0 0 0 0 0

Total # of neighbors = 2063971
Ave neighs/atom = 105.026
Neighbor list builds = 6172
Dangerous builds not checked
Setting up Verlet run ...
  Unit style    : metal
  Current step  : 333348
  Time step     : 0.001
Per MPI rank memory allocation (min/avg/max) = 19.73 | 19.73 | 19.73 Mbytes
Step Temp Press TotEng PotEng Enthalpy 
  333348    249.71884   -96.642908   -66836.088   -67470.397    -66850.41 
  333350    249.74241   -100.52887   -66836.088   -67470.456   -66850.986 
  333843    224.73905   -253.25051    -66969.93   -67540.788   -67007.414 
Loop time of 158.539 on 1 procs for 495 steps with 19652 atoms

Performance: 0.270 ns/day, 88.967 hours/ns, 3.122 timesteps/s
83.6% CPU use with 1 MPI tasks x no OpenMP threads

MPI task timing breakdown:
Section |  min time  |  avg time  |  max time  |%varavg| %total
---------------------------------------------------------------
Pair    | 97.053     | 97.053     | 97.053     |   0.0 | 61.22
Neigh   | 55.716     | 55.716     | 55.716     |   0.0 | 35.14
Comm    | 2.3293     | 2.3293     | 2.3293     |   0.0 |  1.47
Output  | 0.07103    | 0.07103    | 0.07103    |   0.0 |  0.04
Modify  | 2.3979     | 2.3979     | 2.3979     |   0.0 |  1.51
Other   |            | 0.9716     |            |       |  0.61

Nlocal:    19652 ave 19652 max 19652 min
Histogram: 1 0 0 0 0 0 0 0 0 0
Nghost:    21053 ave 21053 max 21053 min
Histogram: 1 0 0 0 0 0 0 0 0 0
Neighs:    2.06726e+06 ave 2.06726e+06 max 2.06726e+06 min
Histogram: 1 0 0 0 0 0 0 0 0 0

Total # of neighbors = 2067265
Ave neighs/atom = 105.194
Neighbor list builds = 495
Dangerous builds not checked
Setting up Verlet run ...
  Unit style    : metal
  Current step  : 333843
  Time step     : 0.001
Per MPI rank memory allocation (min/avg/max) = 19.73 | 19.73 | 19.73 Mbytes
Step Temp Press TotEng PotEng Enthalpy 
  333843    224.73905   -253.25051    -66969.93   -67540.788   -67007.414 
  340015    199.35713   -269.74447   -67102.152   -67608.538   -67142.022 
Loop time of 1714.69 on 1 procs for 6172 steps with 19652 atoms

Performance: 0.311 ns/day, 77.171 hours/ns, 3.599 timesteps/s
97.4% CPU use with 1 MPI tasks x no OpenMP threads

MPI task timing breakdown:
Section |  min time  |  avg time  |  max time  |%varavg| %total
---------------------------------------------------------------
Pair    | 1039       | 1039       | 1039       |   0.0 | 60.59
Neigh   | 609.7      | 609.7      | 609.7      |   0.0 | 35.56
Comm    | 26.622     | 26.622     | 26.622     |   0.0 |  1.55
Output  | 0.00061798 | 0.00061798 | 0.00061798 |   0.0 |  0.00
Modify  | 27.862     | 27.862     | 27.862     |   0.0 |  1.62
Other   |            | 11.55      |            |       |  0.67

Nlocal:    19652 ave 19652 max 19652 min
Histogram: 1 0 0 0 0 0 0 0 0 0
Nghost:    21075 ave 21075 max 21075 min
Histogram: 1 0 0 0 0 0 0 0 0 0
Neighs:    2.07049e+06 ave 2.07049e+06 max 2.07049e+06 min
Histogram: 1 0 0 0 0 0 0 0 0 0

Total # of neighbors = 2070493
Ave neighs/atom = 105.358
Neighbor list builds = 6172
Dangerous builds not checked
Setting up Verlet run ...
  Unit style    : metal
  Current step  : 340015
  Time step     : 0.001
Per MPI rank memory allocation (min/avg/max) = 19.73 | 19.73 | 19.73 Mbytes
Step Temp Press TotEng PotEng Enthalpy 
  340015    199.35713   -269.74447   -67102.152   -67608.538   -67142.022 
  340017     199.6052    -283.7003   -67102.152   -67609.168   -67144.085 
  340510    174.53813   -70.893414   -67229.834   -67673.177   -67240.297 
Loop time of 141.282 on 1 procs for 495 steps with 19652 atoms

Performance: 0.303 ns/day, 79.283 hours/ns, 3.504 timesteps/s
99.6% CPU use with 1 MPI tasks x no OpenMP threads

MPI task timing breakdown:
Section |  min time  |  avg time  |  max time  |%varavg| %total
---------------------------------------------------------------
Pair    | 85.35      | 85.35      | 85.35      |   0.0 | 60.41
Neigh   | 49.646     | 49.646     | 49.646     |   0.0 | 35.14
Comm    | 2.5233     | 2.5233     | 2.5233     |   0.0 |  1.79
Output  | 0.066565   | 0.066565   | 0.066565   |   0.0 |  0.05
Modify  | 2.6464     | 2.6464     | 2.6464     |   0.0 |  1.87
Other   |            | 1.05       |            |       |  0.74

Nlocal:    19652 ave 19652 max 19652 min
Histogram: 1 0 0 0 0 0 0 0 0 0
Nghost:    21091 ave 21091 max 21091 min
Histogram: 1 0 0 0 0 0 0 0 0 0
Neighs:    2.07382e+06 ave 2.07382e+06 max 2.07382e+06 min
Histogram: 1 0 0 0 0 0 0 0 0 0

Total # of neighbors = 2073825
Ave neighs/atom = 105.527
Neighbor list builds = 495
Dangerous builds not checked
Setting up Verlet run ...
  Unit style    : metal
  Current step  : 340510
  Time step     : 0.001
Per MPI rank memory allocation (min/avg/max) = 19.73 | 19.73 | 19.73 Mbytes
Step Temp Press TotEng PotEng Enthalpy 
  340510    174.53813   -70.893414   -67229.834   -67673.177   -67240.297 
  346682    150.01325    495.83248   -67363.914   -67744.962   -67290.874 
Loop time of 1768.39 on 1 procs for 6172 steps with 19652 atoms

Performance: 0.302 ns/day, 79.588 hours/ns, 3.490 timesteps/s
96.5% CPU use with 1 MPI tasks x no OpenMP threads

MPI task timing breakdown:
Section |  min time  |  avg time  |  max time  |%varavg| %total
---------------------------------------------------------------
Pair    | 1070.7     | 1070.7     | 1070.7     |   0.0 | 60.55
Neigh   | 624.75     | 624.75     | 624.75     |   0.0 | 35.33
Comm    | 29.755     | 29.755     | 29.755     |   0.0 |  1.68
Output  | 0.00046802 | 0.00046802 | 0.00046802 |   0.0 |  0.00
Modify  | 30.624     | 30.624     | 30.624     |   0.0 |  1.73
Other   |            | 12.58      |            |       |  0.71

Nlocal:    19652 ave 19652 max 19652 min
Histogram: 1 0 0 0 0 0 0 0 0 0
Nghost:    21067 ave 21067 max 21067 min
Histogram: 1 0 0 0 0 0 0 0 0 0
Neighs:    2.0789e+06 ave 2.0789e+06 max 2.0789e+06 min
Histogram: 1 0 0 0 0 0 0 0 0 0

Total # of neighbors = 2078902
Ave neighs/atom = 105.786
Neighbor list builds = 6172
Dangerous builds not checked
Setting up Verlet run ...
  Unit style    : metal
  Current step  : 346682
  Time step     : 0.001
Per MPI rank memory allocation (min/avg/max) = 19.73 | 19.73 | 19.73 Mbytes
Step Temp Press TotEng PotEng Enthalpy 
  346682    150.01325    495.83248   -67363.914   -67744.962   -67290.874 
  346684    149.98161    496.02068   -67363.915   -67744.882   -67290.847 
  347177    127.01925    79.979654   -67485.647   -67808.288   -67473.878 
Loop time of 133.426 on 1 procs for 495 steps with 19652 atoms

Performance: 0.321 ns/day, 74.874 hours/ns, 3.710 timesteps/s
99.6% CPU use with 1 MPI tasks x no OpenMP threads

MPI task timing breakdown:
Section |  min time  |  avg time  |  max time  |%varavg| %total
---------------------------------------------------------------
Pair    | 81.077     | 81.077     | 81.077     |   0.0 | 60.77
Neigh   | 47.066     | 47.066     | 47.066     |   0.0 | 35.27
Comm    | 2.1016     | 2.1016     | 2.1016     |   0.0 |  1.58
Output  | 0.070495   | 0.070495   | 0.070495   |   0.0 |  0.05
Modify  | 2.1915     | 2.1915     | 2.1915     |   0.0 |  1.64
Other   |            | 0.9193     |            |       |  0.69

Nlocal:    19652 ave 19652 max 19652 min
Histogram: 1 0 0 0 0 0 0 0 0 0
Nghost:    21078 ave 21078 max 21078 min
Histogram: 1 0 0 0 0 0 0 0 0 0
Neighs:    2.08162e+06 ave 2.08162e+06 max 2.08162e+06 min
Histogram: 1 0 0 0 0 0 0 0 0 0

Total # of neighbors = 2081617
Ave neighs/atom = 105.924
Neighbor list builds = 495
Dangerous builds not checked
Setting up Verlet run ...
  Unit style    : metal
  Current step  : 347177
  Time step     : 0.001
Per MPI rank memory allocation (min/avg/max) = 19.73 | 19.73 | 19.73 Mbytes
Step Temp Press TotEng PotEng Enthalpy 
  347177    127.01925    79.979654   -67485.647   -67808.288   -67473.878 
  353349    99.243701    57.518943   -67630.636   -67882.724   -67622.184 
Loop time of 1626.74 on 1 procs for 6172 steps with 19652 atoms

Performance: 0.328 ns/day, 73.213 hours/ns, 3.794 timesteps/s
97.7% CPU use with 1 MPI tasks x no OpenMP threads

MPI task timing breakdown:
Section |  min time  |  avg time  |  max time  |%varavg| %total
---------------------------------------------------------------
Pair    | 994.39     | 994.39     | 994.39     |   0.0 | 61.13
Neigh   | 577.18     | 577.18     | 577.18     |   0.0 | 35.48
Comm    | 21.811     | 21.811     | 21.811     |   0.0 |  1.34
Output  | 0.00021601 | 0.00021601 | 0.00021601 |   0.0 |  0.00
Modify  | 23.403     | 23.403     | 23.403     |   0.0 |  1.44
Other   |            | 9.955      |            |       |  0.61

Nlocal:    19652 ave 19652 max 19652 min
Histogram: 1 0 0 0 0 0 0 0 0 0
Nghost:    21151 ave 21151 max 21151 min
Histogram: 1 0 0 0 0 0 0 0 0 0
Neighs:    2.08525e+06 ave 2.08525e+06 max 2.08525e+06 min
Histogram: 1 0 0 0 0 0 0 0 0 0

Total # of neighbors = 2085249
Ave neighs/atom = 106.109
Neighbor list builds = 6172
Dangerous builds not checked
Total wall time: 28:10:47
