LAMMPS (12 Dec 2018)
Lattice spacing in x,y,z = 4 4 4
Created orthogonal box = (0 0 0) to (68 68 68)
  1 by 2 by 3 MPI processor grid
Created 19652 atoms
  Time spent = 0.0700009 secs
Setting atom values ...
  19480 settings made for type/fraction
Neighbor list info ...
  update every 1 steps, delay 0 steps, check no
  max neighbors/atom: 2000, page size: 100000
  master list distance cutoff = 8.5
  ghost atom cutoff = 8.5
  binsize = 4.25, bins = 16 16 16
  1 neighbor lists, perpetual/occasional/extra = 1 0 0
  (1) pair eam/alloy, perpetual
      attributes: half, newton on
      pair build: half/bin/atomonly/newton
      stencil: half/bin/3d/newton
      bin: standard
Setting up Verlet run ...
  Unit style    : metal
  Current step  : 0
  Time step     : 0.001
Per MPI rank memory allocation (min/avg/max) = 5.546 | 5.705 | 5.983 Mbytes
Step Temp Press TotEng PotEng Enthalpy 
       0          300    24374.552   -65178.202    -65940.23   -60394.622 
    1000    211.24428     34834.03   -65178.135   -65714.714   -58341.851 
Loop time of 37.8567 on 6 procs for 1000 steps with 19652 atoms

Performance: 2.282 ns/day, 10.516 hours/ns, 26.415 timesteps/s
93.6% CPU use with 6 MPI tasks x no OpenMP threads

MPI task timing breakdown:
Section |  min time  |  avg time  |  max time  |%varavg| %total
---------------------------------------------------------------
Pair    | 20.409     | 20.817     | 21.751     |   9.9 | 54.99
Neigh   | 10.979     | 12.348     | 13.556     |  23.3 | 32.62
Comm    | 2.3363     | 4.5158     | 5.9041     |  52.1 | 11.93
Output  | 9.0837e-05 | 0.00012028 | 0.00016809 |   0.0 |  0.00
Modify  | 0.080444   | 0.085763   | 0.096879   |   2.0 |  0.23
Other   |            | 0.09031    |            |       |  0.24

Nlocal:    3275.33 ave 3353 max 3171 min
Histogram: 2 0 0 0 0 0 0 2 1 1
Nghost:    7734 ave 7877 max 7479 min
Histogram: 2 0 0 0 0 0 0 0 1 3
Neighs:    261494 ave 271602 max 253732 min
Histogram: 2 0 1 0 1 0 0 0 1 1

Total # of neighbors = 1568963
Ave neighs/atom = 79.8373
Neighbor list builds = 1000
Dangerous builds not checked
Setting up Verlet run ...
  Unit style    : metal
  Current step  : 1000
  Time step     : 0.001
Per MPI rank memory allocation (min/avg/max) = 5.549 | 5.838 | 5.987 Mbytes
Step Temp Press TotEng PotEng Enthalpy 
    1000    211.24428     34834.03   -65178.135   -65714.714   -58341.851 
    2000    305.63086   -15.639251    -64707.46    -65483.79   -64710.688 
Loop time of 40.5788 on 6 procs for 1000 steps with 19652 atoms

Performance: 2.129 ns/day, 11.272 hours/ns, 24.643 timesteps/s
94.1% CPU use with 6 MPI tasks x no OpenMP threads

MPI task timing breakdown:
Section |  min time  |  avg time  |  max time  |%varavg| %total
---------------------------------------------------------------
Pair    | 21.279     | 21.928     | 23.938     |  19.7 | 54.04
Neigh   | 10.4       | 12.382     | 14.559     |  36.0 | 30.51
Comm    | 1.4096     | 5.6351     | 7.6821     |  84.7 | 13.89
Output  | 5.4121e-05 | 6.1671e-05 | 8.7023e-05 |   0.0 |  0.00
Modify  | 0.51293    | 0.53744    | 0.55173    |   1.9 |  1.32
Other   |            | 0.09608    |            |       |  0.24

Nlocal:    3275.33 ave 3368 max 3155 min
Histogram: 1 0 1 0 0 1 1 0 0 2
Nghost:    7713.5 ave 7901 max 7422 min
Histogram: 1 1 0 0 0 0 0 2 0 2
Neighs:    242752 ave 253615 max 233766 min
Histogram: 1 2 0 0 0 1 0 1 0 1

Total # of neighbors = 1456515
Ave neighs/atom = 74.1154
Neighbor list builds = 1000
Dangerous builds not checked
Setting up Verlet run ...
  Unit style    : metal
  Current step  : 2000
  Time step     : 0.001
Per MPI rank memory allocation (min/avg/max) = 5.549 | 5.838 | 5.987 Mbytes
Step Temp Press TotEng PotEng Enthalpy 
    2000    305.63086   -15.639251    -64707.46    -65483.79   -64710.688 
   10000    2452.6202    115.76693   -51002.235   -57232.114   -50969.416 
Loop time of 263.077 on 6 procs for 8000 steps with 19652 atoms

Performance: 2.627 ns/day, 9.135 hours/ns, 30.409 timesteps/s
94.9% CPU use with 6 MPI tasks x no OpenMP threads

MPI task timing breakdown:
Section |  min time  |  avg time  |  max time  |%varavg| %total
---------------------------------------------------------------
Pair    | 137.87     | 140.01     | 147.04     |  26.9 | 53.22
Neigh   | 89.326     | 93.028     | 96.323     |  30.5 | 35.36
Comm    | 15.338     | 25.452     | 30.022     | 103.6 |  9.67
Output  | 4.8161e-05 | 5.6386e-05 | 8.7023e-05 |   0.0 |  0.00
Modify  | 3.6051     | 3.8603     | 4.1144     |   9.9 |  1.47
Other   |            | 0.7273     |            |       |  0.28

Nlocal:    3275.33 ave 3297 max 3233 min
Histogram: 1 0 0 0 1 0 0 2 0 2
Nghost:    6300 ave 6321 max 6276 min
Histogram: 2 0 0 1 0 0 0 0 1 2
Neighs:    181020 ave 183801 max 177127 min
Histogram: 1 0 0 0 1 2 0 0 0 2

Total # of neighbors = 1086119
Ave neighs/atom = 55.2676
Neighbor list builds = 8000
Dangerous builds not checked
Setting up Verlet run ...
  Unit style    : metal
  Current step  : 10000
  Time step     : 0.001
Per MPI rank memory allocation (min/avg/max) = 5.555 | 5.843 | 5.992 Mbytes
Step Temp Press TotEng PotEng Enthalpy 
   10000    2452.6202    115.76693   -51002.235   -57232.114   -50969.416 
   40000     2441.829   -431.66963   -50879.706   -57082.175   -51002.805 
Loop time of 956.99 on 6 procs for 30000 steps with 19652 atoms

Performance: 2.708 ns/day, 8.861 hours/ns, 31.348 timesteps/s
94.4% CPU use with 6 MPI tasks x no OpenMP threads

MPI task timing breakdown:
Section |  min time  |  avg time  |  max time  |%varavg| %total
---------------------------------------------------------------
Pair    | 498.82     | 508.89     | 534.4      |  53.0 | 53.18
Neigh   | 312.43     | 323.93     | 334.96     |  37.5 | 33.85
Comm    | 70.582     | 107.23     | 126.84     | 173.4 | 11.21
Output  | 5.6982e-05 | 6.3181e-05 | 8.4162e-05 |   0.0 |  0.00
Modify  | 13.832     | 14.163     | 14.449     |   5.6 |  1.48
Other   |            | 2.773      |            |       |  0.29

Nlocal:    3275.33 ave 3300 max 3230 min
Histogram: 1 0 0 0 0 0 2 0 2 1
Nghost:    6325.17 ave 6357 max 6289 min
Histogram: 1 1 0 1 0 0 0 1 1 1
Neighs:    179944 ave 182382 max 176625 min
Histogram: 1 0 1 0 0 0 2 0 1 1

Total # of neighbors = 1079664
Ave neighs/atom = 54.9391
Neighbor list builds = 30000
Dangerous builds not checked
Setting up Verlet run ...
  Unit style    : metal
  Current step  : 40000
  Time step     : 0.001
Per MPI rank memory allocation (min/avg/max) = 5.555 | 5.843 | 5.992 Mbytes
Step Temp Press TotEng PotEng Enthalpy 
   40000     2441.829   -431.66963   -50879.706   -57082.175   -51002.805 
   40495    2414.5999    765.06109   -51192.624   -57325.928   -50977.232 
Loop time of 14.6142 on 6 procs for 495 steps with 19652 atoms

Performance: 2.926 ns/day, 8.201 hours/ns, 33.871 timesteps/s
94.8% CPU use with 6 MPI tasks x no OpenMP threads

MPI task timing breakdown:
Section |  min time  |  avg time  |  max time  |%varavg| %total
---------------------------------------------------------------
Pair    | 7.58       | 7.7955     | 7.9032     |   3.8 | 53.34
Neigh   | 4.6926     | 5.0734     | 5.7677     |  18.6 | 34.72
Comm    | 0.68895    | 1.4499     | 1.8357     |  32.8 |  9.92
Output  | 5.8174e-05 | 6.5883e-05 | 9.7036e-05 |   0.0 |  0.00
Modify  | 0.23647    | 0.24747    | 0.25905    |   1.4 |  1.69
Other   |            | 0.04788    |            |       |  0.33

Nlocal:    3275.33 ave 3302 max 3255 min
Histogram: 1 1 0 0 2 0 1 0 0 1
Nghost:    6354.17 ave 6378 max 6309 min
Histogram: 1 0 0 0 1 0 1 0 1 2
Neighs:    182340 ave 185626 max 180591 min
Histogram: 2 1 0 0 2 0 0 0 0 1

Total # of neighbors = 1094041
Ave neighs/atom = 55.6707
Neighbor list builds = 495
Dangerous builds not checked
Setting up Verlet run ...
  Unit style    : metal
  Current step  : 40495
  Time step     : 0.001
Per MPI rank memory allocation (min/avg/max) = 5.555 | 5.843 | 5.992 Mbytes
Step Temp Press TotEng PotEng Enthalpy 
   40495    2414.5999    765.06109   -51192.624   -57325.928   -50977.232 
   66667    2412.1565    434.60658   -51321.452   -57448.549   -51199.498 
  106667    2407.0875      847.974   -51307.157   -57421.378   -51069.113 
Loop time of 2126.74 on 6 procs for 66172 steps with 19652 atoms

Performance: 2.688 ns/day, 8.928 hours/ns, 31.114 timesteps/s
94.7% CPU use with 6 MPI tasks x no OpenMP threads

MPI task timing breakdown:
Section |  min time  |  avg time  |  max time  |%varavg| %total
---------------------------------------------------------------
Pair    | 1095.1     | 1137.2     | 1169.2     |  83.2 | 53.47
Neigh   | 699.03     | 716.4      | 737.69     |  57.5 | 33.69
Comm    | 180.71     | 234.74     | 287.17     | 273.4 | 11.04
Output  | 0.11499    | 0.11501    | 0.11508    |   0.0 |  0.01
Modify  | 31.863     | 32.126     | 32.415     |   3.5 |  1.51
Other   |            | 6.145      |            |       |  0.29

Nlocal:    3275.33 ave 3300 max 3251 min
Histogram: 1 0 0 1 2 0 0 1 0 1
Nghost:    6354.33 ave 6385 max 6322 min
Histogram: 2 0 0 0 0 1 1 0 1 1
Neighs:    182917 ave 184567 max 181276 min
Histogram: 2 0 0 1 0 1 0 0 0 2

Total # of neighbors = 1097502
Ave neighs/atom = 55.8468
Neighbor list builds = 66172
Dangerous builds not checked
Setting up Verlet run ...
  Unit style    : metal
  Current step  : 106667
  Time step     : 0.001
Per MPI rank memory allocation (min/avg/max) = 5.574 | 5.862 | 6.007 Mbytes
Step Temp Press TotEng PotEng Enthalpy 
  106667    2407.0875      847.974   -51307.157   -57421.378   -51069.113 
  107162    2372.9443    152.38561   -51418.052   -57445.546   -51375.262 
Loop time of 16.0771 on 6 procs for 495 steps with 19652 atoms

Performance: 2.660 ns/day, 9.022 hours/ns, 30.789 timesteps/s
94.4% CPU use with 6 MPI tasks x no OpenMP threads

MPI task timing breakdown:
Section |  min time  |  avg time  |  max time  |%varavg| %total
---------------------------------------------------------------
Pair    | 8.107      | 8.5386     | 9.154      |  12.6 | 53.11
Neigh   | 4.3478     | 5.3698     | 5.8453     |  21.8 | 33.40
Comm    | 0.76913    | 1.8612     | 3.3088     |  61.2 | 11.58
Output  | 6.1989e-05 | 7.3989e-05 | 0.00012207 |   0.0 |  0.00
Modify  | 0.24754    | 0.2583     | 0.27666    |   1.9 |  1.61
Other   |            | 0.0491     |            |       |  0.31

Nlocal:    3275.33 ave 3294 max 3251 min
Histogram: 1 0 1 0 1 0 1 0 0 2
Nghost:    6362 ave 6391 max 6337 min
Histogram: 1 0 1 1 0 1 1 0 0 1
Neighs:    182780 ave 185273 max 181090 min
Histogram: 1 1 1 1 0 0 1 0 0 1

Total # of neighbors = 1096682
Ave neighs/atom = 55.8051
Neighbor list builds = 495
Dangerous builds not checked
Setting up Verlet run ...
  Unit style    : metal
  Current step  : 107162
  Time step     : 0.001
Per MPI rank memory allocation (min/avg/max) = 5.574 | 5.862 | 6.007 Mbytes
Step Temp Press TotEng PotEng Enthalpy 
  107162    2372.9443    152.38561   -51418.052   -57445.546   -51375.262 
  133334    2374.8261    329.04946   -51418.455    -57450.73   -51326.069 
  173334    2357.8316   -220.98947    -51573.13   -57562.237   -51634.953 
Loop time of 2095.09 on 6 procs for 66172 steps with 19652 atoms

Performance: 2.729 ns/day, 8.795 hours/ns, 31.584 timesteps/s
94.7% CPU use with 6 MPI tasks x no OpenMP threads

MPI task timing breakdown:
Section |  min time  |  avg time  |  max time  |%varavg| %total
---------------------------------------------------------------
Pair    | 1085.2     | 1114.3     | 1139.8     |  54.0 | 53.18
Neigh   | 673.51     | 705.55     | 748.14     |  91.2 | 33.68
Comm    | 170.39     | 239.22     | 283.22     | 261.9 | 11.42
Output  | 0.035404   | 0.035423   | 0.035504   |   0.0 |  0.00
Modify  | 29.438     | 30.075     | 30.468     |   5.7 |  1.44
Other   |            | 5.956      |            |       |  0.28

Nlocal:    3275.33 ave 3293 max 3254 min
Histogram: 1 0 2 0 0 0 0 0 1 2
Nghost:    6348.5 ave 6382 max 6306 min
Histogram: 1 0 0 1 1 0 1 0 1 1
Neighs:    183544 ave 185130 max 181852 min
Histogram: 1 0 2 0 0 0 1 0 0 2

Total # of neighbors = 1101263
Ave neighs/atom = 56.0382
Neighbor list builds = 66172
Dangerous builds not checked
Setting up Verlet run ...
  Unit style    : metal
  Current step  : 173334
  Time step     : 0.001
Per MPI rank memory allocation (min/avg/max) = 5.574 | 5.862 | 6.007 Mbytes
Step Temp Press TotEng PotEng Enthalpy 
  173334    2357.8316   -220.98947    -51573.13   -57562.237   -51634.953 
  173829    2324.8471   -533.84388   -51681.833   -57587.157    -51830.93 
Loop time of 15.5495 on 6 procs for 495 steps with 19652 atoms

Performance: 2.750 ns/day, 8.726 hours/ns, 31.834 timesteps/s
94.5% CPU use with 6 MPI tasks x no OpenMP threads

MPI task timing breakdown:
Section |  min time  |  avg time  |  max time  |%varavg| %total
---------------------------------------------------------------
Pair    | 8.0556     | 8.3115     | 8.4688     |   6.0 | 53.45
Neigh   | 4.6925     | 5.3766     | 5.8925     |  15.5 | 34.58
Comm    | 0.91205    | 1.58       | 2.4925     |  40.4 | 10.16
Output  | 5.4121e-05 | 6.7274e-05 | 0.00012112 |   0.0 |  0.00
Modify  | 0.22457    | 0.23405    | 0.24635    |   1.6 |  1.51
Other   |            | 0.04723    |            |       |  0.30

Nlocal:    3275.33 ave 3298 max 3252 min
Histogram: 2 0 0 0 1 0 1 0 1 1
Nghost:    6348.33 ave 6383 max 6306 min
Histogram: 1 1 0 0 0 1 1 0 0 2
Neighs:    183828 ave 185840 max 180423 min
Histogram: 1 0 0 0 0 1 2 0 1 1

Total # of neighbors = 1102967
Ave neighs/atom = 56.1249
Neighbor list builds = 495
Dangerous builds not checked
Setting up Verlet run ...
  Unit style    : metal
  Current step  : 173829
  Time step     : 0.001
Per MPI rank memory allocation (min/avg/max) = 5.574 | 5.862 | 6.007 Mbytes
Step Temp Press TotEng PotEng Enthalpy 
  173829    2324.8471   -533.84388   -51681.833   -57587.157    -51830.93 
  200001    2319.3588   -572.24762   -51683.787    -57575.17   -51843.913 
  240001    2291.7384   -27.420936   -51849.139   -57670.363   -51856.764 
Loop time of 2240.67 on 6 procs for 66172 steps with 19652 atoms

Performance: 2.552 ns/day, 9.406 hours/ns, 29.532 timesteps/s
94.2% CPU use with 6 MPI tasks x no OpenMP threads

MPI task timing breakdown:
Section |  min time  |  avg time  |  max time  |%varavg| %total
---------------------------------------------------------------
Pair    | 1137.4     | 1174.1     | 1222.4     |  88.3 | 52.40
Neigh   | 730.85     | 770.17     | 822.8      | 120.0 | 34.37
Comm    | 177.81     | 257.48     | 327.91     | 382.3 | 11.49
Output  | 0.047761   | 0.047791   | 0.04787    |   0.0 |  0.00
Modify  | 32.182     | 32.873     | 33.663     |  10.6 |  1.47
Other   |            | 5.984      |            |       |  0.27

Nlocal:    3275.33 ave 3306 max 3250 min
Histogram: 1 1 1 0 0 0 1 1 0 1
Nghost:    6374.17 ave 6408 max 6341 min
Histogram: 2 0 1 0 0 0 1 0 0 2
Neighs:    184630 ave 187217 max 180415 min
Histogram: 1 0 0 0 1 1 0 0 2 1

Total # of neighbors = 1107779
Ave neighs/atom = 56.3698
Neighbor list builds = 66172
Dangerous builds not checked
Setting up Verlet run ...
  Unit style    : metal
  Current step  : 240001
  Time step     : 0.001
Per MPI rank memory allocation (min/avg/max) = 5.574 | 5.862 | 6.007 Mbytes
Step Temp Press TotEng PotEng Enthalpy 
  240001    2291.7384   -27.420936   -51849.139   -57670.363   -51856.764 
  240496    2254.6891   -84.865116   -51975.573   -57702.689   -51999.139 
Loop time of 15.6644 on 6 procs for 495 steps with 19652 atoms

Performance: 2.730 ns/day, 8.790 hours/ns, 31.600 timesteps/s
93.2% CPU use with 6 MPI tasks x no OpenMP threads

MPI task timing breakdown:
Section |  min time  |  avg time  |  max time  |%varavg| %total
---------------------------------------------------------------
Pair    | 8.0533     | 8.2227     | 8.4355     |   4.5 | 52.49
Neigh   | 4.2968     | 5.8156     | 6.4102     |  29.1 | 37.13
Comm    | 0.79315    | 1.3572     | 2.707      |  54.4 |  8.66
Output  | 4.4823e-05 | 5.73e-05   | 0.00010395 |   0.0 |  0.00
Modify  | 0.18923    | 0.22466    | 0.24208    |   3.7 |  1.43
Other   |            | 0.0442     |            |       |  0.28

Nlocal:    3275.33 ave 3317 max 3238 min
Histogram: 1 0 1 1 1 0 0 1 0 1
Nghost:    6369 ave 6417 max 6338 min
Histogram: 1 1 1 1 0 0 1 0 0 1
Neighs:    184946 ave 189091 max 180882 min
Histogram: 2 0 0 0 1 1 0 0 0 2

Total # of neighbors = 1109677
Ave neighs/atom = 56.4664
Neighbor list builds = 495
Dangerous builds not checked
Setting up Verlet run ...
  Unit style    : metal
  Current step  : 240496
  Time step     : 0.001
Per MPI rank memory allocation (min/avg/max) = 5.574 | 5.862 | 6.007 Mbytes
Step Temp Press TotEng PotEng Enthalpy 
  240496    2254.6891   -84.865116   -51975.573   -57702.689   -51999.139 
  266668      2240.72    538.09142   -52124.795   -57816.428   -51976.195 
  306668    2250.9816   -730.85497   -52064.125   -57781.823   -52266.796 
Loop time of 2223.24 on 6 procs for 66172 steps with 19652 atoms

Performance: 2.572 ns/day, 9.333 hours/ns, 29.764 timesteps/s
94.3% CPU use with 6 MPI tasks x no OpenMP threads

MPI task timing breakdown:
Section |  min time  |  avg time  |  max time  |%varavg| %total
---------------------------------------------------------------
Pair    | 1144.8     | 1170.2     | 1203.3     |  63.6 | 52.63
Neigh   | 745.9      | 778.89     | 817.94     |  77.4 | 35.03
Comm    | 172.55     | 236.01     | 295.94     | 260.3 | 10.62
Output  | 0.044395   | 0.04442    | 0.044477   |   0.0 |  0.00
Modify  | 30.855     | 32.094     | 32.776     |  11.5 |  1.44
Other   |            | 6.052      |            |       |  0.27

Nlocal:    3275.33 ave 3299 max 3253 min
Histogram: 1 0 0 1 2 0 1 0 0 1
Nghost:    6389 ave 6408 max 6347 min
Histogram: 1 0 0 0 1 0 0 1 0 3
Neighs:    185204 ave 190464 max 180482 min
Histogram: 1 1 0 0 2 0 1 0 0 1

Total # of neighbors = 1111224
Ave neighs/atom = 56.5451
Neighbor list builds = 66172
Dangerous builds not checked
Setting up Verlet run ...
  Unit style    : metal
  Current step  : 306668
  Time step     : 0.001
Per MPI rank memory allocation (min/avg/max) = 5.574 | 5.863 | 6.007 Mbytes
Step Temp Press TotEng PotEng Enthalpy 
  306668    2250.9816   -730.85497   -52064.125   -57781.823   -52266.796 
  307163    2212.6733    387.70497   -52296.257   -57916.649   -52189.557 
Loop time of 16.7964 on 6 procs for 495 steps with 19652 atoms

Performance: 2.546 ns/day, 9.426 hours/ns, 29.471 timesteps/s
94.2% CPU use with 6 MPI tasks x no OpenMP threads

MPI task timing breakdown:
Section |  min time  |  avg time  |  max time  |%varavg| %total
---------------------------------------------------------------
Pair    | 8.6457     | 8.8278     | 9.2114     |   6.9 | 52.56
Neigh   | 5.2164     | 5.7328     | 6.3201     |  18.5 | 34.13
Comm    | 0.96156    | 1.9333     | 2.6141     |  43.5 | 11.51
Output  | 5.6982e-05 | 7.0612e-05 | 0.00012803 |   0.0 |  0.00
Modify  | 0.24669    | 0.2534     | 0.26136    |   1.1 |  1.51
Other   |            | 0.049      |            |       |  0.29

Nlocal:    3275.33 ave 3282 max 3257 min
Histogram: 1 0 0 0 0 0 1 0 1 3
Nghost:    6390.83 ave 6420 max 6358 min
Histogram: 2 0 1 0 0 0 0 0 0 3
Neighs:    186640 ave 190325 max 183885 min
Histogram: 1 1 1 1 0 0 0 1 0 1

Total # of neighbors = 1119837
Ave neighs/atom = 56.9834
Neighbor list builds = 495
Dangerous builds not checked
Setting up Verlet run ...
  Unit style    : metal
  Current step  : 307163
  Time step     : 0.001
Per MPI rank memory allocation (min/avg/max) = 5.574 | 5.863 | 6.007 Mbytes
Step Temp Press TotEng PotEng Enthalpy 
  307163    2212.6733    387.70497   -52296.257   -57916.649   -52189.557 
  333335    2178.8572    -715.6719   -52412.933   -57947.429   -52609.936 
  373335    2174.0611     67.47289   -52423.816   -57946.129   -52405.259 
Loop time of 2187.53 on 6 procs for 66172 steps with 19652 atoms

Performance: 2.614 ns/day, 9.183 hours/ns, 30.250 timesteps/s
94.5% CPU use with 6 MPI tasks x no OpenMP threads

MPI task timing breakdown:
Section |  min time  |  avg time  |  max time  |%varavg| %total
---------------------------------------------------------------
Pair    | 1138.3     | 1155.9     | 1176.5     |  38.0 | 52.84
Neigh   | 751.05     | 772.81     | 791.21     |  52.3 | 35.33
Comm    | 202.96     | 221.75     | 257.95     | 125.0 | 10.14
Output  | 0.045449   | 0.045594   | 0.045756   |   0.1 |  0.00
Modify  | 30.415     | 31.058     | 31.91      |   9.6 |  1.42
Other   |            | 5.968      |            |       |  0.27

Nlocal:    3275.33 ave 3310 max 3249 min
Histogram: 2 0 0 1 0 1 0 1 0 1
Nghost:    6413.17 ave 6446 max 6373 min
Histogram: 1 0 0 0 1 2 0 1 0 1
Neighs:    186812 ave 188816 max 181631 min
Histogram: 1 0 0 0 0 0 1 0 2 2

Total # of neighbors = 1120871
Ave neighs/atom = 57.036
Neighbor list builds = 66172
Dangerous builds not checked
Setting up Verlet run ...
  Unit style    : metal
  Current step  : 373335
  Time step     : 0.001
Per MPI rank memory allocation (min/avg/max) = 5.574 | 5.863 | 6.007 Mbytes
Step Temp Press TotEng PotEng Enthalpy 
  373335    2174.0611     67.47289   -52423.816   -57946.129   -52405.259 
  373830    2156.6644   -206.95235   -52512.493   -57990.617   -52569.321 
Loop time of 14.8993 on 6 procs for 495 steps with 19652 atoms

Performance: 2.870 ns/day, 8.361 hours/ns, 33.223 timesteps/s
94.0% CPU use with 6 MPI tasks x no OpenMP threads

MPI task timing breakdown:
Section |  min time  |  avg time  |  max time  |%varavg| %total
---------------------------------------------------------------
Pair    | 7.5834     | 7.8452     | 8.0335     |   6.1 | 52.65
Neigh   | 4.3115     | 5.2616     | 6.0371     |  30.4 | 35.31
Comm    | 0.85999    | 1.5401     | 2.4        |  52.2 | 10.34
Output  | 5.1022e-05 | 5.9525e-05 | 9.203e-05  |   0.0 |  0.00
Modify  | 0.19313    | 0.2075     | 0.2306     |   2.8 |  1.39
Other   |            | 0.04479    |            |       |  0.30

Nlocal:    3275.33 ave 3306 max 3251 min
Histogram: 1 1 1 0 0 0 1 1 0 1
Nghost:    6434.33 ave 6467 max 6400 min
Histogram: 2 0 0 0 0 1 1 0 1 1
Neighs:    187120 ave 189176 max 184337 min
Histogram: 1 0 0 0 1 2 0 0 0 2

Total # of neighbors = 1122722
Ave neighs/atom = 57.1302
Neighbor list builds = 495
Dangerous builds not checked
Setting up Verlet run ...
  Unit style    : metal
  Current step  : 373830
  Time step     : 0.001
Per MPI rank memory allocation (min/avg/max) = 5.574 | 5.863 | 6.007 Mbytes
Step Temp Press TotEng PotEng Enthalpy 
  373830    2156.6644   -206.95235   -52512.493   -57990.617   -52569.321 
  400002    2144.1067    826.23098   -52576.019   -58022.245    -52350.01 
  440002     2138.372    918.45066   -52657.409   -58089.069    -52406.77 
Loop time of 2163.54 on 6 procs for 66172 steps with 19652 atoms

Performance: 2.643 ns/day, 9.082 hours/ns, 30.585 timesteps/s
94.6% CPU use with 6 MPI tasks x no OpenMP threads

MPI task timing breakdown:
Section |  min time  |  avg time  |  max time  |%varavg| %total
---------------------------------------------------------------
Pair    | 1123       | 1144.2     | 1167.9     |  47.6 | 52.89
Neigh   | 741.08     | 759.84     | 775.02     |  36.6 | 35.12
Comm    | 183.88     | 223.18     | 263.69     | 166.0 | 10.32
Output  | 0.15016    | 0.15018    | 0.15026    |   0.0 |  0.01
Modify  | 29.956     | 30.119     | 30.348     |   2.7 |  1.39
Other   |            | 6.062      |            |       |  0.28

Nlocal:    3275.33 ave 3290 max 3259 min
Histogram: 2 0 0 0 0 0 2 0 1 1
Nghost:    6455.83 ave 6492 max 6427 min
Histogram: 2 1 0 0 1 0 0 0 0 2
Neighs:    188242 ave 193090 max 185394 min
Histogram: 2 0 1 0 1 1 0 0 0 1

Total # of neighbors = 1129452
Ave neighs/atom = 57.4726
Neighbor list builds = 66172
Dangerous builds not checked
Setting up Verlet run ...
  Unit style    : metal
  Current step  : 440002
  Time step     : 0.001
Per MPI rank memory allocation (min/avg/max) = 5.574 | 5.863 | 6.007 Mbytes
Step Temp Press TotEng PotEng Enthalpy 
  440002     2138.372    918.45066   -52657.409   -58089.069    -52406.77 
  440497    2107.4935   -206.33803   -52843.046   -58196.271    -52899.26 
Loop time of 15.666 on 6 procs for 495 steps with 19652 atoms

Performance: 2.730 ns/day, 8.791 hours/ns, 31.597 timesteps/s
93.9% CPU use with 6 MPI tasks x no OpenMP threads

MPI task timing breakdown:
Section |  min time  |  avg time  |  max time  |%varavg| %total
---------------------------------------------------------------
Pair    | 8.0807     | 8.2901     | 8.5106     |   4.8 | 52.92
Neigh   | 5.0899     | 5.6141     | 5.9652     |  12.5 | 35.84
Comm    | 1.1333     | 1.4951     | 1.7941     |  18.8 |  9.54
Output  | 5.0068e-05 | 5.9565e-05 | 9.203e-05  |   0.0 |  0.00
Modify  | 0.2162     | 0.22167    | 0.22439    |   0.6 |  1.41
Other   |            | 0.04492    |            |       |  0.29

Nlocal:    3275.33 ave 3293 max 3257 min
Histogram: 1 1 0 0 0 1 2 0 0 1
Nghost:    6445.83 ave 6506 max 6386 min
Histogram: 1 1 0 1 0 0 0 1 1 1
Neighs:    188525 ave 193193 max 185586 min
Histogram: 2 0 1 0 1 1 0 0 0 1

Total # of neighbors = 1131148
Ave neighs/atom = 57.5589
Neighbor list builds = 495
Dangerous builds not checked
Setting up Verlet run ...
  Unit style    : metal
  Current step  : 440497
  Time step     : 0.001
Per MPI rank memory allocation (min/avg/max) = 5.574 | 5.863 | 6.007 Mbytes
Step Temp Press TotEng PotEng Enthalpy 
  440497    2107.4935   -206.33803   -52843.046   -58196.271    -52899.26 
  466669    2106.8625     43.30043    -52830.56   -58182.183   -52818.768 
  506669    2096.7899    952.14763   -52937.928   -58263.965   -52680.004 
Loop time of 2236.09 on 6 procs for 66172 steps with 19652 atoms

Performance: 2.557 ns/day, 9.387 hours/ns, 29.593 timesteps/s
94.3% CPU use with 6 MPI tasks x no OpenMP threads

MPI task timing breakdown:
Section |  min time  |  avg time  |  max time  |%varavg| %total
---------------------------------------------------------------
Pair    | 1151.7     | 1186.8     | 1221.6     |  71.4 | 53.07
Neigh   | 727.28     | 763.8      | 787.04     |  88.3 | 34.16
Comm    | 189.59     | 244.4      | 316.18     | 298.1 | 10.93
Output  | 0.048761   | 0.048782   | 0.048867   |   0.0 |  0.00
Modify  | 34.586     | 34.937     | 35.471     |   5.7 |  1.56
Other   |            | 6.114      |            |       |  0.27

Nlocal:    3275.33 ave 3293 max 3250 min
Histogram: 1 0 0 0 0 2 1 0 1 1
Nghost:    6459.67 ave 6483 max 6446 min
Histogram: 3 0 0 1 0 0 0 1 0 1
Neighs:    189740 ave 192360 max 187670 min
Histogram: 2 0 0 1 0 0 2 0 0 1

Total # of neighbors = 1138438
Ave neighs/atom = 57.9299
Neighbor list builds = 66172
Dangerous builds not checked
Setting up Verlet run ...
  Unit style    : metal
  Current step  : 506669
  Time step     : 0.001
Per MPI rank memory allocation (min/avg/max) = 5.574 | 5.863 | 6.007 Mbytes
Step Temp Press TotEng PotEng Enthalpy 
  506669    2096.7899    952.14763   -52937.928   -58263.965   -52680.004 
  507164    2077.6354    1.0026668   -53066.384   -58343.767   -53066.113 
Loop time of 15.2998 on 6 procs for 495 steps with 19652 atoms

Performance: 2.795 ns/day, 8.586 hours/ns, 32.353 timesteps/s
94.0% CPU use with 6 MPI tasks x no OpenMP threads

MPI task timing breakdown:
Section |  min time  |  avg time  |  max time  |%varavg| %total
---------------------------------------------------------------
Pair    | 7.7389     | 8.039      | 8.3494     |   7.2 | 52.54
Neigh   | 4.8811     | 5.3128     | 5.7645     |  11.8 | 34.72
Comm    | 1.0841     | 1.6596     | 2.3065     |  34.1 | 10.85
Output  | 6.6042e-05 | 8.3367e-05 | 0.00011611 |   0.0 |  0.00
Modify  | 0.22515    | 0.24392    | 0.25498    |   2.0 |  1.59
Other   |            | 0.04433    |            |       |  0.29

Nlocal:    3275.33 ave 3295 max 3258 min
Histogram: 1 1 1 0 0 0 1 1 0 1
Nghost:    6454 ave 6471 max 6433 min
Histogram: 1 0 0 1 0 1 1 1 0 1
Neighs:    189672 ave 192838 max 184863 min
Histogram: 1 1 0 0 0 0 1 0 2 1

Total # of neighbors = 1138030
Ave neighs/atom = 57.9091
Neighbor list builds = 495
Dangerous builds not checked
Setting up Verlet run ...
  Unit style    : metal
  Current step  : 507164
  Time step     : 0.001
Per MPI rank memory allocation (min/avg/max) = 5.574 | 5.863 | 6.007 Mbytes
Step Temp Press TotEng PotEng Enthalpy 
  507164    2077.6354    1.0026668   -53066.384   -58343.767   -53066.113 
  533336    2041.9765      963.756   -53216.189   -58402.995   -52956.748 
  573336    2048.2874   -1100.0273   -53141.906   -58344.743   -53440.486 
Loop time of 2078.3 on 6 procs for 66172 steps with 19652 atoms

Performance: 2.751 ns/day, 8.724 hours/ns, 31.839 timesteps/s
94.3% CPU use with 6 MPI tasks x no OpenMP threads

MPI task timing breakdown:
Section |  min time  |  avg time  |  max time  |%varavg| %total
---------------------------------------------------------------
Pair    | 1053.4     | 1082.1     | 1111.2     |  68.3 | 52.07
Neigh   | 689.34     | 722.57     | 767.59     |  92.0 | 34.77
Comm    | 176.27     | 239.13     | 286.66     | 282.4 | 11.51
Output  | 0.13546    | 0.13548    | 0.13554    |   0.0 |  0.01
Modify  | 27.981     | 28.834     | 29.455     |   8.4 |  1.39
Other   |            | 5.534      |            |       |  0.27

Nlocal:    3275.33 ave 3311 max 3242 min
Histogram: 1 1 0 0 1 0 2 0 0 1
Nghost:    6449.67 ave 6482 max 6430 min
Histogram: 2 0 2 0 0 0 1 0 0 1
Neighs:    189300 ave 194940 max 184693 min
Histogram: 2 1 0 0 0 0 1 0 1 1

Total # of neighbors = 1135797
Ave neighs/atom = 57.7955
Neighbor list builds = 66172
Dangerous builds not checked
Setting up Verlet run ...
  Unit style    : metal
  Current step  : 573336
  Time step     : 0.001
Per MPI rank memory allocation (min/avg/max) = 5.574 | 5.863 | 6.007 Mbytes
Step Temp Press TotEng PotEng Enthalpy 
  573336    2048.2874   -1100.0273   -53141.906   -58344.743   -53440.486 
  573831    2023.1485    207.77765   -53344.925   -58483.906    -53289.04 
Loop time of 14.5663 on 6 procs for 495 steps with 19652 atoms

Performance: 2.936 ns/day, 8.174 hours/ns, 33.983 timesteps/s
93.9% CPU use with 6 MPI tasks x no OpenMP threads

MPI task timing breakdown:
Section |  min time  |  avg time  |  max time  |%varavg| %total
---------------------------------------------------------------
Pair    | 7.2499     | 7.5818     | 8.1248     |  12.0 | 52.05
Neigh   | 4.372      | 5.4388     | 5.8673     |  22.9 | 37.34
Comm    | 0.74459    | 1.2943     | 2.2691     |  41.4 |  8.89
Output  | 4.6968e-05 | 5.8015e-05 | 0.00010109 |   0.0 |  0.00
Modify  | 0.1916     | 0.20947    | 0.23251    |   3.4 |  1.44
Other   |            | 0.04194    |            |       |  0.29

Nlocal:    3275.33 ave 3293 max 3253 min
Histogram: 2 0 0 0 0 1 0 1 0 2
Nghost:    6461.5 ave 6483 max 6434 min
Histogram: 1 0 0 0 2 0 1 0 1 1
Neighs:    190970 ave 195293 max 187176 min
Histogram: 1 1 0 1 1 0 0 0 1 1

Total # of neighbors = 1145822
Ave neighs/atom = 58.3056
Neighbor list builds = 495
Dangerous builds not checked
Setting up Verlet run ...
  Unit style    : metal
  Current step  : 573831
  Time step     : 0.001
Per MPI rank memory allocation (min/avg/max) = 5.574 | 5.863 | 6.007 Mbytes
Step Temp Press TotEng PotEng Enthalpy 
  573831    2023.1485    207.77765   -53344.925   -58483.906    -53289.04 
  600003    2000.9006    586.84307   -53509.425   -58591.895   -53352.406 
  640003    2008.5482     350.4225   -53436.111   -58538.006   -53342.076 
Loop time of 2115.04 on 6 procs for 66172 steps with 19652 atoms

Performance: 2.703 ns/day, 8.879 hours/ns, 31.286 timesteps/s
94.3% CPU use with 6 MPI tasks x no OpenMP threads

MPI task timing breakdown:
Section |  min time  |  avg time  |  max time  |%varavg| %total
---------------------------------------------------------------
Pair    | 1094.8     | 1111.9     | 1130.3     |  36.5 | 52.57
Neigh   | 718.56     | 738.51     | 754.04     |  43.2 | 34.92
Comm    | 200.44     | 227.85     | 252.03     | 139.2 | 10.77
Output  | 0.040285   | 0.0403     | 0.040361   |   0.0 |  0.00
Modify  | 30.536     | 30.933     | 31.457     |   6.0 |  1.46
Other   |            | 5.767      |            |       |  0.27

Nlocal:    3275.33 ave 3300 max 3248 min
Histogram: 1 0 0 2 0 1 0 0 0 2
Nghost:    6463.33 ave 6512 max 6435 min
Histogram: 1 1 1 1 1 0 0 0 0 1
Neighs:    191547 ave 193795 max 187978 min
Histogram: 1 0 0 0 1 0 2 0 0 2

Total # of neighbors = 1149282
Ave neighs/atom = 58.4817
Neighbor list builds = 66172
Dangerous builds not checked
Setting up Verlet run ...
  Unit style    : metal
  Current step  : 640003
  Time step     : 0.001
Per MPI rank memory allocation (min/avg/max) = 5.574 | 5.863 | 6.007 Mbytes
Step Temp Press TotEng PotEng Enthalpy 
  640003    2008.5482     350.4225   -53436.111   -58538.006   -53342.076 
  640498    1960.5327    423.38268    -53624.44   -58604.372    -53511.18 
Loop time of 15.42 on 6 procs for 495 steps with 19652 atoms

Performance: 2.774 ns/day, 8.653 hours/ns, 32.101 timesteps/s
94.4% CPU use with 6 MPI tasks x no OpenMP threads

MPI task timing breakdown:
Section |  min time  |  avg time  |  max time  |%varavg| %total
---------------------------------------------------------------
Pair    | 7.8831     | 8.1019     | 8.4299     |   6.6 | 52.54
Neigh   | 4.9024     | 5.4369     | 6.0315     |  16.9 | 35.26
Comm    | 1.0539     | 1.6161     | 2.3189     |  31.2 | 10.48
Output  | 5.1022e-05 | 6.024e-05  | 9.5844e-05 |   0.0 |  0.00
Modify  | 0.20745    | 0.22083    | 0.24669    |   2.8 |  1.43
Other   |            | 0.04418    |            |       |  0.29

Nlocal:    3275.33 ave 3289 max 3250 min
Histogram: 1 0 0 0 0 1 1 1 1 1
Nghost:    6490.5 ave 6510 max 6455 min
Histogram: 1 0 0 0 0 1 0 2 1 1
Neighs:    192097 ave 195115 max 189447 min
Histogram: 1 0 1 1 0 1 1 0 0 1

Total # of neighbors = 1152584
Ave neighs/atom = 58.6497
Neighbor list builds = 495
Dangerous builds not checked
Setting up Verlet run ...
  Unit style    : metal
  Current step  : 640498
  Time step     : 0.001
Per MPI rank memory allocation (min/avg/max) = 5.574 | 5.863 | 6.007 Mbytes
Step Temp Press TotEng PotEng Enthalpy 
  640498    1960.5327    423.38268    -53624.44   -58604.372    -53511.18 
  666670    1929.4326    602.27864   -53811.495    -58712.43   -53651.165 
  706670     1947.209   -1641.6518   -53690.559   -58636.647    -54131.35 
Loop time of 2163.62 on 6 procs for 66172 steps with 19652 atoms

Performance: 2.642 ns/day, 9.082 hours/ns, 30.584 timesteps/s
94.3% CPU use with 6 MPI tasks x no OpenMP threads

MPI task timing breakdown:
Section |  min time  |  avg time  |  max time  |%varavg| %total
---------------------------------------------------------------
Pair    | 1110.6     | 1142.6     | 1179       |  75.1 | 52.81
Neigh   | 706.16     | 742.72     | 782.25     | 125.1 | 34.33
Comm    | 177.28     | 241.65     | 309.74     | 380.6 | 11.17
Output  | 0.042204   | 0.042221   | 0.042283   |   0.0 |  0.00
Modify  | 30.052     | 30.674     | 31.199     |   7.0 |  1.42
Other   |            | 5.917      |            |       |  0.27

Nlocal:    3275.33 ave 3297 max 3237 min
Histogram: 1 0 0 0 1 0 1 0 1 2
Nghost:    6470.5 ave 6526 max 6399 min
Histogram: 1 0 0 1 1 0 0 2 0 1
Neighs:    191443 ave 195694 max 188122 min
Histogram: 1 1 0 0 2 0 1 0 0 1

Total # of neighbors = 1148660
Ave neighs/atom = 58.45
Neighbor list builds = 66172
Dangerous builds not checked
Setting up Verlet run ...
  Unit style    : metal
  Current step  : 706670
  Time step     : 0.001
Per MPI rank memory allocation (min/avg/max) = 5.574 | 5.863 | 6.007 Mbytes
Step Temp Press TotEng PotEng Enthalpy 
  706670     1947.209   -1641.6518   -53690.559   -58636.647    -54131.35 
  707165    1900.9574    124.05394   -53941.104   -58769.709    -53908.14 
Loop time of 15.6947 on 6 procs for 495 steps with 19652 atoms

Performance: 2.725 ns/day, 8.807 hours/ns, 31.539 timesteps/s
93.4% CPU use with 6 MPI tasks x no OpenMP threads

MPI task timing breakdown:
Section |  min time  |  avg time  |  max time  |%varavg| %total
---------------------------------------------------------------
Pair    | 7.9038     | 8.1835     | 8.4188     |   6.1 | 52.14
Neigh   | 5.5488     | 5.8309     | 6.0769     |   9.0 | 37.15
Comm    | 0.90092    | 1.3791     | 1.9482     |  29.2 |  8.79
Output  | 5.6028e-05 | 6.6479e-05 | 0.00011492 |   0.0 |  0.00
Modify  | 0.24362    | 0.2523     | 0.26532    |   1.5 |  1.61
Other   |            | 0.04878    |            |       |  0.31

Nlocal:    3275.33 ave 3307 max 3253 min
Histogram: 1 0 2 1 0 1 0 0 0 1
Nghost:    6512.5 ave 6560 max 6497 min
Histogram: 4 0 0 1 0 0 0 0 0 1
Neighs:    193503 ave 195025 max 190531 min
Histogram: 1 0 0 0 1 1 0 0 0 3

Total # of neighbors = 1161017
Ave neighs/atom = 59.0788
Neighbor list builds = 495
Dangerous builds not checked
Setting up Verlet run ...
  Unit style    : metal
  Current step  : 707165
  Time step     : 0.001
Per MPI rank memory allocation (min/avg/max) = 5.574 | 5.863 | 6.007 Mbytes
Step Temp Press TotEng PotEng Enthalpy 
  707165    1900.9574    124.05394   -53941.104   -58769.709    -53908.14 
  733337    1918.1825   -3.3430018   -53907.101   -58779.459    -53907.99 
  773337    1916.0359    368.16172   -53965.374    -58832.28   -53867.808 
Loop time of 2163.72 on 6 procs for 66172 steps with 19652 atoms

Performance: 2.642 ns/day, 9.083 hours/ns, 30.583 timesteps/s
93.8% CPU use with 6 MPI tasks x no OpenMP threads

MPI task timing breakdown:
Section |  min time  |  avg time  |  max time  |%varavg| %total
---------------------------------------------------------------
Pair    | 1106       | 1134       | 1176.7     |  83.3 | 52.41
Neigh   | 734.69     | 752.33     | 789.16     |  68.9 | 34.77
Comm    | 159.59     | 239.5      | 279.12     | 294.7 | 11.07
Output  | 0.034964   | 0.034978   | 0.035024   |   0.0 |  0.00
Modify  | 31.471     | 31.913     | 32.363     |   5.7 |  1.47
Other   |            | 5.976      |            |       |  0.28

Nlocal:    3275.33 ave 3298 max 3261 min
Histogram: 1 2 1 0 0 0 0 0 1 1
Nghost:    6518.33 ave 6528 max 6513 min
Histogram: 1 1 1 1 1 0 0 0 0 1
Neighs:    194005 ave 195837 max 192560 min
Histogram: 2 0 0 1 0 1 0 1 0 1

Total # of neighbors = 1164028
Ave neighs/atom = 59.232
Neighbor list builds = 66172
Dangerous builds not checked
Setting up Verlet run ...
  Unit style    : metal
  Current step  : 773337
  Time step     : 0.001
Per MPI rank memory allocation (min/avg/max) = 5.574 | 5.863 | 6.007 Mbytes
Step Temp Press TotEng PotEng Enthalpy 
  773337    1916.0359    368.16172   -53965.374    -58832.28   -53867.808 
  773832    1865.2977   -144.73052   -54175.189   -58913.215   -54213.469 
Loop time of 15.62 on 6 procs for 495 steps with 19652 atoms

Performance: 2.738 ns/day, 8.765 hours/ns, 31.690 timesteps/s
94.1% CPU use with 6 MPI tasks x no OpenMP threads

MPI task timing breakdown:
Section |  min time  |  avg time  |  max time  |%varavg| %total
---------------------------------------------------------------
Pair    | 8.0133     | 8.2106     | 8.3569     |   4.3 | 52.56
Neigh   | 5.4486     | 5.7458     | 6.073      |   9.0 | 36.78
Comm    | 1.0562     | 1.3588     | 1.7519     |  22.1 |  8.70
Output  | 4.6015e-05 | 5.3724e-05 | 8.2016e-05 |   0.0 |  0.00
Modify  | 0.24404    | 0.25649    | 0.26673    |   1.5 |  1.64
Other   |            | 0.0482     |            |       |  0.31

Nlocal:    3275.33 ave 3307 max 3237 min
Histogram: 1 0 0 0 3 0 0 0 1 1
Nghost:    6526.33 ave 6578 max 6459 min
Histogram: 1 1 0 0 0 1 0 1 0 2
Neighs:    194317 ave 199341 max 189850 min
Histogram: 1 0 0 1 3 0 0 0 0 1

Total # of neighbors = 1165900
Ave neighs/atom = 59.3273
Neighbor list builds = 495
Dangerous builds not checked
Setting up Verlet run ...
  Unit style    : metal
  Current step  : 773832
  Time step     : 0.001
Per MPI rank memory allocation (min/avg/max) = 5.574 | 5.863 | 6.007 Mbytes
Step Temp Press TotEng PotEng Enthalpy 
  773832    1865.2977   -144.73052   -54175.189   -58913.215   -54213.469 
  800004    1855.2679    573.13193   -54314.755   -59027.305   -54164.147 
  840004    1841.8456    852.54792   -54276.178   -58954.634   -54051.617 
Loop time of 2114.88 on 6 procs for 66172 steps with 19652 atoms

Performance: 2.703 ns/day, 8.878 hours/ns, 31.289 timesteps/s
94.3% CPU use with 6 MPI tasks x no OpenMP threads

MPI task timing breakdown:
Section |  min time  |  avg time  |  max time  |%varavg| %total
---------------------------------------------------------------
Pair    | 1100.2     | 1118.1     | 1140.2     |  39.7 | 52.87
Neigh   | 727.73     | 751.13     | 763.68     |  43.0 | 35.52
Comm    | 175.79     | 208.76     | 232.46     | 142.5 |  9.87
Output  | 0.099937   | 0.099959   | 0.10002    |   0.0 |  0.00
Modify  | 30.334     | 30.627     | 31.173     |   5.0 |  1.45
Other   |            | 6.134      |            |       |  0.29

Nlocal:    3275.33 ave 3291 max 3266 min
Histogram: 1 0 2 1 1 0 0 0 0 1
Nghost:    6524.33 ave 6553 max 6490 min
Histogram: 1 0 0 1 0 1 2 0 0 1
Neighs:    195177 ave 199785 max 190592 min
Histogram: 1 0 0 1 1 1 1 0 0 1

Total # of neighbors = 1171064
Ave neighs/atom = 59.5901
Neighbor list builds = 66172
Dangerous builds not checked
Setting up Verlet run ...
  Unit style    : metal
  Current step  : 840004
  Time step     : 0.001
Per MPI rank memory allocation (min/avg/max) = 5.574 | 5.863 | 6.007 Mbytes
Step Temp Press TotEng PotEng Enthalpy 
  840004    1841.8456    852.54792   -54276.178   -58954.634   -54051.617 
  840499    1818.8279    255.85975   -54455.575   -59075.563   -54388.457 
Loop time of 15.534 on 6 procs for 495 steps with 19652 atoms

Performance: 2.753 ns/day, 8.717 hours/ns, 31.866 timesteps/s
93.6% CPU use with 6 MPI tasks x no OpenMP threads

MPI task timing breakdown:
Section |  min time  |  avg time  |  max time  |%varavg| %total
---------------------------------------------------------------
Pair    | 7.97       | 8.202      | 8.3719     |   4.5 | 52.80
Neigh   | 4.9616     | 5.4992     | 5.7898     |  12.8 | 35.40
Comm    | 1.1542     | 1.5683     | 1.95       |  22.6 | 10.10
Output  | 4.7922e-05 | 5.9128e-05 | 9.8944e-05 |   0.0 |  0.00
Modify  | 0.20521    | 0.21822    | 0.23191    |   1.7 |  1.40
Other   |            | 0.04619    |            |       |  0.30

Nlocal:    3275.33 ave 3294 max 3252 min
Histogram: 1 0 0 2 0 0 1 0 0 2
Nghost:    6553.67 ave 6618 max 6500 min
Histogram: 1 0 0 2 1 1 0 0 0 1
Neighs:    196054 ave 202034 max 190989 min
Histogram: 1 0 0 2 1 1 0 0 0 1

Total # of neighbors = 1176326
Ave neighs/atom = 59.8578
Neighbor list builds = 495
Dangerous builds not checked
Setting up Verlet run ...
  Unit style    : metal
  Current step  : 840499
  Time step     : 0.001
Per MPI rank memory allocation (min/avg/max) = 5.574 | 5.863 | 6.007 Mbytes
Step Temp Press TotEng PotEng Enthalpy 
  840499    1818.8279    255.85975   -54455.575   -59075.563   -54388.457 
  866671    1804.5213   -896.43414   -54546.623   -59130.271   -54781.949 
  906671    1805.8448    -117.8785   -54547.853   -59134.863   -54578.757 
Loop time of 2177.19 on 6 procs for 66172 steps with 19652 atoms

Performance: 2.626 ns/day, 9.139 hours/ns, 30.393 timesteps/s
94.6% CPU use with 6 MPI tasks x no OpenMP threads

MPI task timing breakdown:
Section |  min time  |  avg time  |  max time  |%varavg| %total
---------------------------------------------------------------
Pair    | 1114.2     | 1157       | 1181       |  64.9 | 53.14
Neigh   | 707.61     | 747.18     | 776.12     |  76.6 | 34.32
Comm    | 182.72     | 236.55     | 320.09     | 271.4 | 10.87
Output  | 0.040502   | 0.040514   | 0.040565   |   0.0 |  0.00
Modify  | 29.647     | 30.296     | 30.82      |   6.3 |  1.39
Other   |            | 6.147      |            |       |  0.28

Nlocal:    3275.33 ave 3284 max 3264 min
Histogram: 1 0 0 0 1 2 0 0 0 2
Nghost:    6530.83 ave 6549 max 6513 min
Histogram: 1 0 0 1 1 1 0 1 0 1
Neighs:    196072 ave 199208 max 192171 min
Histogram: 1 0 0 2 0 0 0 1 1 1

Total # of neighbors = 1176432
Ave neighs/atom = 59.8632
Neighbor list builds = 66172
Dangerous builds not checked
Setting up Verlet run ...
  Unit style    : metal
  Current step  : 906671
  Time step     : 0.001
Per MPI rank memory allocation (min/avg/max) = 5.574 | 5.863 | 6.007 Mbytes
Step Temp Press TotEng PotEng Enthalpy 
  906671    1805.8448    -117.8785   -54547.853   -59134.863   -54578.757 
  907166    1767.6103   -181.35731   -54771.649    -59261.54   -54818.942 
Loop time of 16.5082 on 6 procs for 495 steps with 19652 atoms

Performance: 2.591 ns/day, 9.264 hours/ns, 29.985 timesteps/s
94.4% CPU use with 6 MPI tasks x no OpenMP threads

MPI task timing breakdown:
Section |  min time  |  avg time  |  max time  |%varavg| %total
---------------------------------------------------------------
Pair    | 8.2611     | 8.6745     | 9.0653     |   8.8 | 52.55
Neigh   | 4.8999     | 5.4585     | 6.2708     |  22.3 | 33.07
Comm    | 0.8846     | 2.1023     | 2.9284     |  51.3 | 12.73
Output  | 6.0797e-05 | 6.7115e-05 | 9.203e-05  |   0.0 |  0.00
Modify  | 0.21895    | 0.22803    | 0.23977    |   1.7 |  1.38
Other   |            | 0.04481    |            |       |  0.27

Nlocal:    3275.33 ave 3306 max 3255 min
Histogram: 2 1 0 0 1 0 0 1 0 1
Nghost:    6529.17 ave 6551 max 6497 min
Histogram: 2 0 0 0 0 0 0 1 1 2
Neighs:    197281 ave 199087 max 194610 min
Histogram: 1 0 0 1 0 0 2 0 0 2

Total # of neighbors = 1183686
Ave neighs/atom = 60.2323
Neighbor list builds = 495
Dangerous builds not checked
Setting up Verlet run ...
  Unit style    : metal
  Current step  : 907166
  Time step     : 0.001
Per MPI rank memory allocation (min/avg/max) = 5.574 | 5.863 | 6.007 Mbytes
Step Temp Press TotEng PotEng Enthalpy 
  907166    1767.6103   -181.35731   -54771.649    -59261.54   -54818.942 
  933338    1746.1302   -478.45868   -54866.593   -59301.923   -54991.141 
  973338    1749.3237   -1001.3567   -54762.681   -59206.122   -55024.619 
Loop time of 2160.29 on 6 procs for 66172 steps with 19652 atoms

Performance: 2.647 ns/day, 9.069 hours/ns, 30.631 timesteps/s
94.6% CPU use with 6 MPI tasks x no OpenMP threads

MPI task timing breakdown:
Section |  min time  |  avg time  |  max time  |%varavg| %total
---------------------------------------------------------------
Pair    | 1138.1     | 1150.9     | 1175.5     |  35.2 | 53.28
Neigh   | 720.46     | 740.24     | 766.01     |  56.2 | 34.27
Comm    | 198.44     | 232.29     | 255.76     | 150.2 | 10.75
Output  | 0.079288   | 0.079304   | 0.079366   |   0.0 |  0.00
Modify  | 30.327     | 30.575     | 30.77      |   3.0 |  1.42
Other   |            | 6.163      |            |       |  0.29

Nlocal:    3275.33 ave 3301 max 3254 min
Histogram: 1 0 1 0 2 1 0 0 0 1
Nghost:    6556.33 ave 6572 max 6542 min
Histogram: 1 0 1 0 1 1 1 0 0 1
Neighs:    196566 ave 199746 max 191834 min
Histogram: 1 0 0 0 1 1 1 0 1 1

Total # of neighbors = 1179393
Ave neighs/atom = 60.0139
Neighbor list builds = 66172
Dangerous builds not checked
Setting up Verlet run ...
  Unit style    : metal
  Current step  : 973338
  Time step     : 0.001
Per MPI rank memory allocation (min/avg/max) = 5.574 | 5.863 | 6.007 Mbytes
Step Temp Press TotEng PotEng Enthalpy 
  973338    1749.3237   -1001.3567   -54762.681   -59206.122   -55024.619 
  973833    1721.7792   -470.31491   -55076.927   -59450.403   -55198.745 
Loop time of 15.3981 on 6 procs for 495 steps with 19652 atoms

Performance: 2.777 ns/day, 8.641 hours/ns, 32.147 timesteps/s
94.7% CPU use with 6 MPI tasks x no OpenMP threads

MPI task timing breakdown:
Section |  min time  |  avg time  |  max time  |%varavg| %total
---------------------------------------------------------------
Pair    | 7.9314     | 8.1231     | 8.2882     |   4.3 | 52.75
Neigh   | 4.6504     | 5.3612     | 6.1109     |  24.5 | 34.82
Comm    | 0.69098    | 1.6239     | 2.3704     |  47.5 | 10.55
Output  | 5.1975e-05 | 6.2823e-05 | 0.00010896 |   0.0 |  0.00
Modify  | 0.23105    | 0.24582    | 0.25846    |   2.0 |  1.60
Other   |            | 0.04398    |            |       |  0.29

Nlocal:    3275.33 ave 3286 max 3263 min
Histogram: 2 0 0 0 0 0 1 2 0 1
Nghost:    6585.67 ave 6633 max 6560 min
Histogram: 2 1 0 0 1 1 0 0 0 1
Neighs:    198615 ave 202830 max 196156 min
Histogram: 1 1 2 0 0 0 1 0 0 1

Total # of neighbors = 1191692
Ave neighs/atom = 60.6397
Neighbor list builds = 495
Dangerous builds not checked
Setting up Verlet run ...
  Unit style    : metal
  Current step  : 973833
  Time step     : 0.001
Per MPI rank memory allocation (min/avg/max) = 5.574 | 5.863 | 6.007 Mbytes
Step Temp Press TotEng PotEng Enthalpy 
  973833    1721.7792   -470.31491   -55076.927   -59450.403   -55198.745 
 1000005    1699.4868    -342.5438    -55131.88   -59448.731   -55220.572 
 1040005    1703.9824   -417.76527   -55198.351   -59526.622   -55306.212 
Loop time of 2018.67 on 6 procs for 66172 steps with 19652 atoms

Performance: 2.832 ns/day, 8.474 hours/ns, 32.780 timesteps/s
94.4% CPU use with 6 MPI tasks x no OpenMP threads

MPI task timing breakdown:
Section |  min time  |  avg time  |  max time  |%varavg| %total
---------------------------------------------------------------
Pair    | 1046.6     | 1064.7     | 1104.4     |  58.9 | 52.74
Neigh   | 698.76     | 711.09     | 735.85     |  46.5 | 35.23
Comm    | 141.66     | 206.03     | 229.08     | 213.8 | 10.21
Output  | 0.035946   | 0.03596    | 0.036017   |   0.0 |  0.00
Modify  | 30.367     | 31.174     | 31.89      |  10.3 |  1.54
Other   |            | 5.698      |            |       |  0.28

Nlocal:    3275.33 ave 3296 max 3234 min
Histogram: 1 0 0 0 0 1 1 0 0 3
Nghost:    6586.17 ave 6630 max 6556 min
Histogram: 1 1 0 1 1 1 0 0 0 1
Neighs:    199275 ave 201631 max 197331 min
Histogram: 2 1 0 0 0 0 1 0 0 2

Total # of neighbors = 1195649
Ave neighs/atom = 60.8411
Neighbor list builds = 66172
Dangerous builds not checked
Setting up Verlet run ...
  Unit style    : metal
  Current step  : 1040005
  Time step     : 0.001
Per MPI rank memory allocation (min/avg/max) = 5.574 | 5.863 | 6.007 Mbytes
Step Temp Press TotEng PotEng Enthalpy 
 1040005    1703.9824   -417.76527   -55198.351   -59526.622   -55306.212 
 1040500    1663.9768   -402.74971   -55341.697    -59568.35   -55445.459 
Loop time of 14.524 on 6 procs for 495 steps with 19652 atoms

Performance: 2.945 ns/day, 8.150 hours/ns, 34.081 timesteps/s
94.4% CPU use with 6 MPI tasks x no OpenMP threads

MPI task timing breakdown:
Section |  min time  |  avg time  |  max time  |%varavg| %total
---------------------------------------------------------------
Pair    | 7.5015     | 7.806      | 8.2844     |   8.7 | 53.75
Neigh   | 4.6684     | 5.1726     | 6.1332     |  24.4 | 35.61
Comm    | 0.64808    | 1.3092     | 1.738      |  36.1 |  9.01
Output  | 4.7922e-05 | 5.5313e-05 | 8.297e-05  |   0.0 |  0.00
Modify  | 0.17677    | 0.19449    | 0.20682    |   2.1 |  1.34
Other   |            | 0.04161    |            |       |  0.29

Nlocal:    3275.33 ave 3308 max 3253 min
Histogram: 2 1 0 0 1 0 0 1 0 1
Nghost:    6608.67 ave 6655 max 6572 min
Histogram: 2 1 0 0 0 0 1 1 0 1
Neighs:    199670 ave 203554 max 195820 min
Histogram: 1 1 1 0 0 0 1 0 0 2

Total # of neighbors = 1198021
Ave neighs/atom = 60.9618
Neighbor list builds = 495
Dangerous builds not checked
Setting up Verlet run ...
  Unit style    : metal
  Current step  : 1040500
  Time step     : 0.001
Per MPI rank memory allocation (min/avg/max) = 5.574 | 5.863 | 6.007 Mbytes
Step Temp Press TotEng PotEng Enthalpy 
 1040500    1663.9768   -402.74971   -55341.697    -59568.35   -55445.459 
 1066672    1657.0836   -28.400514   -55417.391   -59626.535   -55424.687 
 1106672    1633.1905     -196.659   -55473.761   -59622.214   -55524.288 
Loop time of 2092.56 on 6 procs for 66172 steps with 19652 atoms

Performance: 2.732 ns/day, 8.784 hours/ns, 31.622 timesteps/s
94.0% CPU use with 6 MPI tasks x no OpenMP threads

MPI task timing breakdown:
Section |  min time  |  avg time  |  max time  |%varavg| %total
---------------------------------------------------------------
Pair    | 1088.4     | 1104.2     | 1129.5     |  43.1 | 52.77
Neigh   | 693.48     | 714.78     | 740.93     |  79.5 | 34.16
Comm    | 184.03     | 230.96     | 266.64     | 224.9 | 11.04
Output  | 0.035272   | 0.035285   | 0.035338   |   0.0 |  0.00
Modify  | 35.405     | 36.759     | 38.741     |  22.8 |  1.76
Other   |            | 5.799      |            |       |  0.28

Nlocal:    3275.33 ave 3307 max 3262 min
Histogram: 3 0 0 2 0 0 0 0 0 1
Nghost:    6589 ave 6624 max 6549 min
Histogram: 1 0 0 1 2 0 0 0 0 2
Neighs:    200150 ave 203193 max 196099 min
Histogram: 1 0 1 0 0 1 1 0 0 2

Total # of neighbors = 1200897
Ave neighs/atom = 61.1081
Neighbor list builds = 66172
Dangerous builds not checked
Setting up Verlet run ...
  Unit style    : metal
  Current step  : 1106672
  Time step     : 0.001
Per MPI rank memory allocation (min/avg/max) = 5.574 | 5.863 | 6.007 Mbytes
Step Temp Press TotEng PotEng Enthalpy 
 1106672    1633.1905     -196.659   -55473.761   -59622.214   -55524.288 
 1107167    1610.1384   -173.87459   -55629.459   -59719.358   -55673.965 
Loop time of 15.0778 on 6 procs for 495 steps with 19652 atoms

Performance: 2.836 ns/day, 8.461 hours/ns, 32.830 timesteps/s
93.4% CPU use with 6 MPI tasks x no OpenMP threads

MPI task timing breakdown:
Section |  min time  |  avg time  |  max time  |%varavg| %total
---------------------------------------------------------------
Pair    | 7.7251     | 7.9313     | 8.0364     |   3.8 | 52.60
Neigh   | 4.9774     | 5.4342     | 5.9123     |  15.5 | 36.04
Comm    | 0.95982    | 1.4476     | 1.8171     |  26.1 |  9.60
Output  | 5.1975e-05 | 6.187e-05  | 0.0001049  |   0.0 |  0.00
Modify  | 0.21388    | 0.21885    | 0.22837    |   1.0 |  1.45
Other   |            | 0.04572    |            |       |  0.30

Nlocal:    3275.33 ave 3299 max 3255 min
Histogram: 1 1 0 0 2 0 0 1 0 1
Nghost:    6606.33 ave 6638 max 6580 min
Histogram: 2 0 0 1 0 0 2 0 0 1
Neighs:    200981 ave 203918 max 195339 min
Histogram: 1 0 0 0 0 0 1 3 0 1

Total # of neighbors = 1205886
Ave neighs/atom = 61.362
Neighbor list builds = 495
Dangerous builds not checked
Setting up Verlet run ...
  Unit style    : metal
  Current step  : 1107167
  Time step     : 0.001
Per MPI rank memory allocation (min/avg/max) = 5.574 | 5.863 | 6.007 Mbytes
Step Temp Press TotEng PotEng Enthalpy 
 1107167    1610.1384   -173.87459   -55629.459   -59719.358   -55673.965 
 1133339    1588.6888   -436.78417   -55737.289   -59772.703   -55848.915 
 1173339    1616.4515    643.66953   -55661.053   -59766.988   -55496.854 
Loop time of 2031.65 on 6 procs for 66172 steps with 19652 atoms

Performance: 2.814 ns/day, 8.529 hours/ns, 32.571 timesteps/s
93.5% CPU use with 6 MPI tasks x no OpenMP threads

MPI task timing breakdown:
Section |  min time  |  avg time  |  max time  |%varavg| %total
---------------------------------------------------------------
Pair    | 1050.3     | 1059.9     | 1072.2     |  22.9 | 52.17
Neigh   | 703.64     | 710.62     | 721.81     |  25.0 | 34.98
Comm    | 198.75     | 221.4      | 236.49     |  77.1 | 10.90
Output  | 0.14623    | 0.14625    | 0.1463     |   0.0 |  0.01
Modify  | 32.396     | 33.505     | 34.312     |  12.5 |  1.65
Other   |            | 6.131      |            |       |  0.30

Nlocal:    3275.33 ave 3294 max 3256 min
Histogram: 1 0 1 0 0 2 0 1 0 1
Nghost:    6627.33 ave 6686 max 6601 min
Histogram: 2 1 1 0 1 0 0 0 0 1
Neighs:    201732 ave 205931 max 197515 min
Histogram: 1 0 0 0 3 0 0 1 0 1

Total # of neighbors = 1210392
Ave neighs/atom = 61.5913
Neighbor list builds = 66172
Dangerous builds not checked
Setting up Verlet run ...
  Unit style    : metal
  Current step  : 1173339
  Time step     : 0.001
Per MPI rank memory allocation (min/avg/max) = 5.574 | 5.863 | 6.007 Mbytes
Step Temp Press TotEng PotEng Enthalpy 
 1173339    1616.4515    643.66953   -55661.053   -59766.988   -55496.854 
 1173834    1576.5283    534.41048   -55911.059   -59915.584   -55775.526 
Loop time of 14.8458 on 6 procs for 495 steps with 19652 atoms

Performance: 2.881 ns/day, 8.331 hours/ns, 33.343 timesteps/s
94.1% CPU use with 6 MPI tasks x no OpenMP threads

MPI task timing breakdown:
Section |  min time  |  avg time  |  max time  |%varavg| %total
---------------------------------------------------------------
Pair    | 7.598      | 7.7675     | 7.9077     |   3.5 | 52.32
Neigh   | 5.1413     | 5.4811     | 5.7792     |   9.7 | 36.92
Comm    | 1.0152     | 1.3037     | 1.5902     |  15.1 |  8.78
Output  | 5.0783e-05 | 6.0916e-05 | 9.8944e-05 |   0.0 |  0.00
Modify  | 0.23672    | 0.24586    | 0.25461    |   1.3 |  1.66
Other   |            | 0.04757    |            |       |  0.32

Nlocal:    3275.33 ave 3304 max 3264 min
Histogram: 1 3 1 0 0 0 0 0 0 1
Nghost:    6653.5 ave 6667 max 6631 min
Histogram: 1 0 0 0 0 2 1 0 0 2
Neighs:    202944 ave 208805 max 199742 min
Histogram: 1 2 0 1 0 1 0 0 0 1

Total # of neighbors = 1217663
Ave neighs/atom = 61.9613
Neighbor list builds = 495
Dangerous builds not checked
Setting up Verlet run ...
  Unit style    : metal
  Current step  : 1173834
  Time step     : 0.001
Per MPI rank memory allocation (min/avg/max) = 5.574 | 5.863 | 6.007 Mbytes
Step Temp Press TotEng PotEng Enthalpy 
 1173834    1576.5283    534.41048   -55911.059   -59915.584   -55775.526 
 1200006    1539.5674    116.27789     -56022.1   -59932.741   -55992.607 
 1240006    1555.3697    727.89094   -56027.398   -59978.179   -55843.302 
Loop time of 2073.9 on 6 procs for 66172 steps with 19652 atoms

Performance: 2.757 ns/day, 8.706 hours/ns, 31.907 timesteps/s
93.6% CPU use with 6 MPI tasks x no OpenMP threads

MPI task timing breakdown:
Section |  min time  |  avg time  |  max time  |%varavg| %total
---------------------------------------------------------------
Pair    | 1079.4     | 1090.6     | 1098.3     |  18.8 | 52.59
Neigh   | 708.14     | 724.56     | 735.49     |  37.7 | 34.94
Comm    | 185.41     | 206.54     | 234.27     | 135.5 |  9.96
Output  | 0.10969    | 0.1097     | 0.10976    |   0.0 |  0.01
Modify  | 40.88      | 46.288     | 48.978     |  53.6 |  2.23
Other   |            | 5.813      |            |       |  0.28

Nlocal:    3275.33 ave 3292 max 3267 min
Histogram: 3 0 0 1 0 1 0 0 0 1
Nghost:    6657.33 ave 6672 max 6634 min
Histogram: 1 0 0 1 0 0 0 2 1 1
Neighs:    203490 ave 207256 max 199717 min
Histogram: 1 1 0 0 0 2 0 1 0 1

Total # of neighbors = 1220938
Ave neighs/atom = 62.1279
Neighbor list builds = 66172
Dangerous builds not checked
Setting up Verlet run ...
  Unit style    : metal
  Current step  : 1240006
  Time step     : 0.001
Per MPI rank memory allocation (min/avg/max) = 5.574 | 5.863 | 6.007 Mbytes
Step Temp Press TotEng PotEng Enthalpy 
 1240006    1555.3697    727.89094   -56027.398   -59978.179   -55843.302 
 1240501    1527.6576    307.45361   -56181.117   -60061.507   -56103.516 
Loop time of 14.6315 on 6 procs for 495 steps with 19652 atoms

Performance: 2.923 ns/day, 8.211 hours/ns, 33.831 timesteps/s
94.5% CPU use with 6 MPI tasks x no OpenMP threads

MPI task timing breakdown:
Section |  min time  |  avg time  |  max time  |%varavg| %total
---------------------------------------------------------------
Pair    | 7.4821     | 7.7443     | 7.9907     |   5.9 | 52.93
Neigh   | 4.8453     | 5.3455     | 5.9903     |  20.2 | 36.53
Comm    | 0.75033    | 1.2779     | 1.6106     |  29.8 |  8.73
Output  | 5.6982e-05 | 6.9022e-05 | 0.000108   |   0.0 |  0.00
Modify  | 0.20642    | 0.21989    | 0.23052    |   1.6 |  1.50
Other   |            | 0.04376    |            |       |  0.30

Nlocal:    3275.33 ave 3289 max 3261 min
Histogram: 1 0 0 2 0 1 0 1 0 1
Nghost:    6664 ave 6685 max 6639 min
Histogram: 2 0 0 0 0 0 1 1 1 1
Neighs:    203902 ave 206017 max 201238 min
Histogram: 2 0 0 0 0 0 1 1 1 1

Total # of neighbors = 1223411
Ave neighs/atom = 62.2538
Neighbor list builds = 495
Dangerous builds not checked
Setting up Verlet run ...
  Unit style    : metal
  Current step  : 1240501
  Time step     : 0.001
Per MPI rank memory allocation (min/avg/max) = 5.574 | 5.863 | 6.007 Mbytes
Step Temp Press TotEng PotEng Enthalpy 
 1240501    1527.6576    307.45361   -56181.117   -60061.507   -56103.516 
 1266673     1506.314   -93.900415   -56310.885    -60137.06   -56334.517 
 1306673     1501.391    786.48324   -56308.016   -60121.686   -56110.302 
Loop time of 1987.51 on 6 procs for 66172 steps with 19652 atoms

Performance: 2.877 ns/day, 8.343 hours/ns, 33.294 timesteps/s
93.8% CPU use with 6 MPI tasks x no OpenMP threads

MPI task timing breakdown:
Section |  min time  |  avg time  |  max time  |%varavg| %total
---------------------------------------------------------------
Pair    | 1035.8     | 1045.4     | 1058.7     |  26.5 | 52.60
Neigh   | 714.04     | 724.5      | 739.8      |  33.0 | 36.45
Comm    | 153.58     | 182.35     | 202.64     | 128.5 |  9.17
Output  | 0.044359   | 0.044375   | 0.044437   |   0.0 |  0.00
Modify  | 29.086     | 29.462     | 30.142     |   7.9 |  1.48
Other   |            | 5.718      |            |       |  0.29

Nlocal:    3275.33 ave 3284 max 3265 min
Histogram: 1 0 0 1 2 0 0 0 0 2
Nghost:    6671.17 ave 6692 max 6636 min
Histogram: 1 0 0 0 1 0 0 2 1 1
Neighs:    204732 ave 209177 max 200481 min
Histogram: 1 0 1 1 0 1 0 1 0 1

Total # of neighbors = 1228395
Ave neighs/atom = 62.5074
Neighbor list builds = 66172
Dangerous builds not checked
Setting up Verlet run ...
  Unit style    : metal
  Current step  : 1306673
  Time step     : 0.001
Per MPI rank memory allocation (min/avg/max) = 5.574 | 5.863 | 6.007 Mbytes
Step Temp Press TotEng PotEng Enthalpy 
 1306673     1501.391    786.48324   -56308.016   -60121.686   -56110.302 
 1307168    1468.2114     445.7714    -56479.11   -60208.501   -56367.375 
Loop time of 13.4346 on 6 procs for 495 steps with 19652 atoms

Performance: 3.183 ns/day, 7.539 hours/ns, 36.845 timesteps/s
95.5% CPU use with 6 MPI tasks x no OpenMP threads

MPI task timing breakdown:
Section |  min time  |  avg time  |  max time  |%varavg| %total
---------------------------------------------------------------
Pair    | 6.9985     | 7.0881     | 7.1843     |   2.6 | 52.76
Neigh   | 4.8202     | 5.0971     | 5.44       |   8.6 | 37.94
Comm    | 0.76443    | 1.0196     | 1.2166     |  14.2 |  7.59
Output  | 4.7922e-05 | 5.7062e-05 | 8.9169e-05 |   0.0 |  0.00
Modify  | 0.17831    | 0.18776    | 0.1962     |   1.4 |  1.40
Other   |            | 0.04203    |            |       |  0.31

Nlocal:    3275.33 ave 3299 max 3239 min
Histogram: 1 1 0 0 0 0 1 0 0 3
Nghost:    6677 ave 6707 max 6623 min
Histogram: 1 0 0 0 0 1 1 1 1 1
Neighs:    205307 ave 209274 max 199204 min
Histogram: 1 0 0 0 0 2 1 1 0 1

Total # of neighbors = 1231844
Ave neighs/atom = 62.6829
Neighbor list builds = 495
Dangerous builds not checked
Setting up Verlet run ...
  Unit style    : metal
  Current step  : 1307168
  Time step     : 0.001
Per MPI rank memory allocation (min/avg/max) = 5.574 | 5.863 | 6.007 Mbytes
Step Temp Press TotEng PotEng Enthalpy 
 1307168    1468.2114     445.7714    -56479.11   -60208.501   -56367.375 
 1333340    1455.3268    392.84399    -56507.97   -60204.632   -56409.497 
 1373340    1444.6067   -697.74215   -56573.099   -60242.532   -56748.169 
Loop time of 1995.83 on 6 procs for 66172 steps with 19652 atoms

Performance: 2.865 ns/day, 8.378 hours/ns, 33.155 timesteps/s
94.6% CPU use with 6 MPI tasks x no OpenMP threads

MPI task timing breakdown:
Section |  min time  |  avg time  |  max time  |%varavg| %total
---------------------------------------------------------------
Pair    | 1056.9     | 1064.9     | 1070.9     |  17.5 | 53.35
Neigh   | 707.8      | 725.88     | 753.81     |  58.3 | 36.37
Comm    | 134.58     | 168.03     | 194.55     | 152.1 |  8.42
Output  | 0.073175   | 0.073192   | 0.073252   |   0.0 |  0.00
Modify  | 30.552     | 31.175     | 31.638     |   6.8 |  1.56
Other   |            | 5.827      |            |       |  0.29

Nlocal:    3275.33 ave 3299 max 3255 min
Histogram: 2 0 0 0 0 2 1 0 0 1
Nghost:    6661.33 ave 6689 max 6627 min
Histogram: 2 0 0 0 1 0 0 0 1 2
Neighs:    205194 ave 208769 max 200712 min
Histogram: 1 0 1 0 0 0 1 1 1 1

Total # of neighbors = 1231167
Ave neighs/atom = 62.6484
Neighbor list builds = 66172
Dangerous builds not checked
Setting up Verlet run ...
  Unit style    : metal
  Current step  : 1373340
  Time step     : 0.001
Per MPI rank memory allocation (min/avg/max) = 5.574 | 5.863 | 6.007 Mbytes
Step Temp Press TotEng PotEng Enthalpy 
 1373340    1444.6067   -697.74215   -56573.099   -60242.532   -56748.169 
 1373835    1412.2026    177.76238   -56807.419   -60394.542   -56763.156 
Loop time of 14.8921 on 6 procs for 495 steps with 19652 atoms

Performance: 2.872 ns/day, 8.357 hours/ns, 33.239 timesteps/s
93.7% CPU use with 6 MPI tasks x no OpenMP threads

MPI task timing breakdown:
Section |  min time  |  avg time  |  max time  |%varavg| %total
---------------------------------------------------------------
Pair    | 7.7649     | 7.9064     | 8.05       |   3.5 | 53.09
Neigh   | 4.9482     | 5.4489     | 5.703      |  11.2 | 36.59
Comm    | 1.0173     | 1.2846     | 1.7743     |  22.9 |  8.63
Output  | 9.0122e-05 | 0.00010137 | 0.00014305 |   0.0 |  0.00
Modify  | 0.2009     | 0.20636    | 0.21428    |   1.1 |  1.39
Other   |            | 0.0458     |            |       |  0.31

Nlocal:    3275.33 ave 3297 max 3249 min
Histogram: 1 0 0 1 0 1 1 1 0 1
Nghost:    6719.33 ave 6738 max 6695 min
Histogram: 1 0 0 0 2 0 1 0 1 1
Neighs:    206752 ave 211096 max 203411 min
Histogram: 3 0 0 0 1 0 0 0 0 2

Total # of neighbors = 1240515
Ave neighs/atom = 63.1241
Neighbor list builds = 495
Dangerous builds not checked
Setting up Verlet run ...
  Unit style    : metal
  Current step  : 1373835
  Time step     : 0.001
Per MPI rank memory allocation (min/avg/max) = 5.574 | 5.863 | 6.007 Mbytes
Step Temp Press TotEng PotEng Enthalpy 
 1373835    1412.2026    177.76238   -56807.419   -60394.542   -56763.156 
 1400007    1396.8175   -518.95504   -56892.959   -60441.003   -57022.104 
 1440007    1408.4442   -505.16456   -56838.838   -60416.414   -56964.675 
Loop time of 2046.67 on 6 procs for 66172 steps with 19652 atoms

Performance: 2.793 ns/day, 8.592 hours/ns, 32.331 timesteps/s
93.1% CPU use with 6 MPI tasks x no OpenMP threads

MPI task timing breakdown:
Section |  min time  |  avg time  |  max time  |%varavg| %total
---------------------------------------------------------------
Pair    | 1083.5     | 1087.1     | 1092.9     |  10.3 | 53.12
Neigh   | 712.63     | 724.32     | 734.95     |  26.8 | 35.39
Comm    | 174.58     | 187.84     | 199.73     |  63.9 |  9.18
Output  | 0.12598    | 0.12599    | 0.12604    |   0.0 |  0.01
Modify  | 40.85      | 41.412     | 42.348     |   7.5 |  2.02
Other   |            | 5.83       |            |       |  0.28

Nlocal:    3275.33 ave 3298 max 3245 min
Histogram: 1 0 0 1 1 0 0 1 1 1
Nghost:    6716.67 ave 6767 max 6691 min
Histogram: 2 1 1 0 0 1 0 0 0 1
Neighs:    206662 ave 210986 max 203752 min
Histogram: 1 1 1 0 1 1 0 0 0 1

Total # of neighbors = 1239970
Ave neighs/atom = 63.0964
Neighbor list builds = 66172
Dangerous builds not checked
Setting up Verlet run ...
  Unit style    : metal
  Current step  : 1440007
  Time step     : 0.001
Per MPI rank memory allocation (min/avg/max) = 5.574 | 5.863 | 6.007 Mbytes
Step Temp Press TotEng PotEng Enthalpy 
 1440007    1408.4442   -505.16456   -56838.838   -60416.414   -56964.675 
 1440502    1366.6044     141.1697   -57080.539   -60551.839   -57045.609 
Loop time of 14.9939 on 6 procs for 495 steps with 19652 atoms

Performance: 2.852 ns/day, 8.414 hours/ns, 33.013 timesteps/s
93.8% CPU use with 6 MPI tasks x no OpenMP threads

MPI task timing breakdown:
Section |  min time  |  avg time  |  max time  |%varavg| %total
---------------------------------------------------------------
Pair    | 7.8031     | 7.9028     | 8.0253     |   2.7 | 52.71
Neigh   | 4.8938     | 5.5241     | 6.0249     |  16.1 | 36.84
Comm    | 0.87693    | 1.3103     | 1.8308     |  31.4 |  8.74
Output  | 4.6968e-05 | 5.5472e-05 | 7.8917e-05 |   0.0 |  0.00
Modify  | 0.20537    | 0.21285    | 0.22079    |   1.0 |  1.42
Other   |            | 0.04388    |            |       |  0.29

Nlocal:    3275.33 ave 3291 max 3257 min
Histogram: 1 0 0 1 1 1 0 0 1 1
Nghost:    6723 ave 6737 max 6695 min
Histogram: 1 0 0 0 1 0 1 0 0 3
Neighs:    208204 ave 209607 max 206305 min
Histogram: 1 0 0 0 1 1 1 0 1 1

Total # of neighbors = 1249224
Ave neighs/atom = 63.5673
Neighbor list builds = 495
Dangerous builds not checked
Setting up Verlet run ...
  Unit style    : metal
  Current step  : 1440502
  Time step     : 0.001
Per MPI rank memory allocation (min/avg/max) = 5.574 | 5.863 | 6.007 Mbytes
Step Temp Press TotEng PotEng Enthalpy 
 1440502    1366.6044     141.1697   -57080.539   -60551.839   -57045.609 
 1466674    1354.9015     913.4975   -57152.299   -60593.873   -56926.901 
 1506674     1344.946   -706.99038   -57196.652   -60612.937   -57371.415 
Loop time of 2022.95 on 6 procs for 66172 steps with 19652 atoms

Performance: 2.826 ns/day, 8.492 hours/ns, 32.711 timesteps/s
94.1% CPU use with 6 MPI tasks x no OpenMP threads

MPI task timing breakdown:
Section |  min time  |  avg time  |  max time  |%varavg| %total
---------------------------------------------------------------
Pair    | 1051.7     | 1072.1     | 1085.8     |  35.2 | 53.00
Neigh   | 708.57     | 734.49     | 759.39     |  59.4 | 36.31
Comm    | 141.88     | 180.78     | 228        | 204.9 |  8.94
Output  | 0.041996   | 0.042013   | 0.042061   |   0.0 |  0.00
Modify  | 29.16      | 29.614     | 30.035     |   5.5 |  1.46
Other   |            | 5.921      |            |       |  0.29

Nlocal:    3275.33 ave 3311 max 3261 min
Histogram: 2 1 1 1 0 0 0 0 0 1
Nghost:    6714.83 ave 6736 max 6690 min
Histogram: 1 1 0 0 0 0 2 1 0 1
Neighs:    208348 ave 211206 max 204008 min
Histogram: 1 0 1 0 0 0 1 0 1 2

Total # of neighbors = 1250085
Ave neighs/atom = 63.6111
Neighbor list builds = 66172
Dangerous builds not checked
Setting up Verlet run ...
  Unit style    : metal
  Current step  : 1506674
  Time step     : 0.001
Per MPI rank memory allocation (min/avg/max) = 5.574 | 5.863 | 6.007 Mbytes
Step Temp Press TotEng PotEng Enthalpy 
 1506674     1344.946   -706.99038   -57196.652   -60612.937   -57371.415 
 1507169     1304.106   -46.189369   -57412.165   -60724.713   -57423.519 
Loop time of 14.9254 on 6 procs for 495 steps with 19652 atoms

Performance: 2.865 ns/day, 8.376 hours/ns, 33.165 timesteps/s
94.3% CPU use with 6 MPI tasks x no OpenMP threads

MPI task timing breakdown:
Section |  min time  |  avg time  |  max time  |%varavg| %total
---------------------------------------------------------------
Pair    | 7.8865     | 7.9686     | 8.0453     |   2.2 | 53.39
Neigh   | 4.7573     | 5.3146     | 5.8056     |  18.5 | 35.61
Comm    | 0.8296     | 1.3996     | 2.0324     |  40.5 |  9.38
Output  | 5.6028e-05 | 6.4135e-05 | 0.0001018  |   0.0 |  0.00
Modify  | 0.18934    | 0.19701    | 0.20624    |   1.1 |  1.32
Other   |            | 0.04549    |            |       |  0.30

Nlocal:    3275.33 ave 3302 max 3246 min
Histogram: 1 0 0 2 0 0 1 1 0 1
Nghost:    6731.5 ave 6757 max 6695 min
Histogram: 1 0 0 1 1 0 0 1 0 2
Neighs:    209584 ave 216089 max 204382 min
Histogram: 1 0 1 1 0 2 0 0 0 1

Total # of neighbors = 1257504
Ave neighs/atom = 63.9886
Neighbor list builds = 495
Dangerous builds not checked
Setting up Verlet run ...
  Unit style    : metal
  Current step  : 1507169
  Time step     : 0.001
Per MPI rank memory allocation (min/avg/max) = 5.574 | 5.863 | 6.007 Mbytes
Step Temp Press TotEng PotEng Enthalpy 
 1507169     1304.106   -46.189369   -57412.165   -60724.713   -57423.519 
 1533341     1314.221    235.18602   -57437.326   -60775.567   -57379.641 
 1573341    1296.0185    174.60506   -57512.987   -60804.992   -57470.191 
Loop time of 2004.19 on 6 procs for 66172 steps with 19652 atoms

Performance: 2.853 ns/day, 8.413 hours/ns, 33.017 timesteps/s
94.2% CPU use with 6 MPI tasks x no OpenMP threads

MPI task timing breakdown:
Section |  min time  |  avg time  |  max time  |%varavg| %total
---------------------------------------------------------------
Pair    | 1042.2     | 1067.2     | 1085.4     |  45.6 | 53.25
Neigh   | 717.65     | 725.51     | 736.96     |  26.1 | 36.20
Comm    | 152.32     | 176.84     | 210.02     | 147.7 |  8.82
Output  | 0.043932   | 0.043943   | 0.043984   |   0.0 |  0.00
Modify  | 28.321     | 28.614     | 28.861     |   3.3 |  1.43
Other   |            | 5.957      |            |       |  0.30

Nlocal:    3275.33 ave 3292 max 3262 min
Histogram: 2 0 0 0 1 1 0 1 0 1
Nghost:    6763.5 ave 6796 max 6739 min
Histogram: 2 0 1 0 1 0 0 1 0 1
Neighs:    210234 ave 214844 max 208125 min
Histogram: 2 0 2 0 1 0 0 0 0 1

Total # of neighbors = 1261404
Ave neighs/atom = 64.1871
Neighbor list builds = 66172
Dangerous builds not checked
Setting up Verlet run ...
  Unit style    : metal
  Current step  : 1573341
  Time step     : 0.001
Per MPI rank memory allocation (min/avg/max) = 5.574 | 5.863 | 6.007 Mbytes
Step Temp Press TotEng PotEng Enthalpy 
 1573341    1296.0185    174.60506   -57512.987   -60804.992   -57470.191 
 1573836    1271.0926    255.48901   -57685.979    -60914.67    -57623.61 
Loop time of 14.4024 on 6 procs for 495 steps with 19652 atoms

Performance: 2.970 ns/day, 8.082 hours/ns, 34.369 timesteps/s
94.0% CPU use with 6 MPI tasks x no OpenMP threads

MPI task timing breakdown:
Section |  min time  |  avg time  |  max time  |%varavg| %total
---------------------------------------------------------------
Pair    | 7.4098     | 7.8419     | 8.075      |   8.7 | 54.45
Neigh   | 4.26       | 5.1594     | 5.9928     |  24.9 | 35.82
Comm    | 0.72534    | 1.163      | 1.858      |  35.9 |  8.07
Output  | 5.2929e-05 | 6.1472e-05 | 9.4891e-05 |   0.0 |  0.00
Modify  | 0.1708     | 0.19532    | 0.20842    |   2.8 |  1.36
Other   |            | 0.04269    |            |       |  0.30

Nlocal:    3275.33 ave 3300 max 3257 min
Histogram: 1 1 1 0 0 1 1 0 0 1
Nghost:    6781.17 ave 6831 max 6745 min
Histogram: 1 1 0 2 0 0 1 0 0 1
Neighs:    211074 ave 216850 max 205814 min
Histogram: 1 0 1 0 0 3 0 0 0 1

Total # of neighbors = 1266446
Ave neighs/atom = 64.4436
Neighbor list builds = 495
Dangerous builds not checked
Setting up Verlet run ...
  Unit style    : metal
  Current step  : 1573836
  Time step     : 0.001
Per MPI rank memory allocation (min/avg/max) = 5.574 | 5.863 | 6.007 Mbytes
Step Temp Press TotEng PotEng Enthalpy 
 1573836    1271.0926    255.48901   -57685.979    -60914.67    -57623.61 
 1600008    1247.4067   -588.31106   -57753.596   -60922.122   -57897.322 
 1640008    1267.6292    502.77423    -57780.46   -61000.353   -57658.165 
Loop time of 2052.53 on 6 procs for 66172 steps with 19652 atoms

Performance: 2.785 ns/day, 8.616 hours/ns, 32.239 timesteps/s
93.9% CPU use with 6 MPI tasks x no OpenMP threads

MPI task timing breakdown:
Section |  min time  |  avg time  |  max time  |%varavg| %total
---------------------------------------------------------------
Pair    | 1079.7     | 1097.2     | 1109.5     |  31.9 | 53.46
Neigh   | 724.84     | 742.54     | 749.62     |  31.9 | 36.18
Comm    | 155.89     | 175.65     | 211.67     | 145.6 |  8.56
Output  | 0.10492    | 0.10494    | 0.105      |   0.0 |  0.01
Modify  | 29.83      | 30.789     | 31.554     |  11.1 |  1.50
Other   |            | 6.253      |            |       |  0.30

Nlocal:    3275.33 ave 3294 max 3247 min
Histogram: 1 0 0 1 1 0 0 0 1 2
Nghost:    6782.33 ave 6818 max 6754 min
Histogram: 1 0 3 0 0 0 0 0 0 2
Neighs:    211868 ave 215716 max 207206 min
Histogram: 1 0 0 1 0 1 2 0 0 1

Total # of neighbors = 1271206
Ave neighs/atom = 64.6858
Neighbor list builds = 66172
Dangerous builds not checked
Setting up Verlet run ...
  Unit style    : metal
  Current step  : 1640008
  Time step     : 0.001
Per MPI rank memory allocation (min/avg/max) = 5.574 | 5.863 | 6.007 Mbytes
Step Temp Press TotEng PotEng Enthalpy 
 1640008    1267.6292    502.77423    -57780.46   -61000.353   -57658.165 
 1640503    1213.9714    478.78773   -57975.733   -61059.331   -57859.626 
Loop time of 15.1732 on 6 procs for 495 steps with 19652 atoms

Performance: 2.819 ns/day, 8.515 hours/ns, 32.623 timesteps/s
94.0% CPU use with 6 MPI tasks x no OpenMP threads

MPI task timing breakdown:
Section |  min time  |  avg time  |  max time  |%varavg| %total
---------------------------------------------------------------
Pair    | 7.8296     | 8.1488     | 8.2879     |   5.6 | 53.71
Neigh   | 4.8529     | 5.5741     | 6.1868     |  22.9 | 36.74
Comm    | 0.69428    | 1.195      | 1.8246     |  40.0 |  7.88
Output  | 5.0068e-05 | 5.7419e-05 | 8.893e-05  |   0.0 |  0.00
Modify  | 0.19066    | 0.2066     | 0.21766    |   2.0 |  1.36
Other   |            | 0.04868    |            |       |  0.32

Nlocal:    3275.33 ave 3307 max 3265 min
Histogram: 3 2 0 0 0 0 0 0 0 1
Nghost:    6765.67 ave 6800 max 6736 min
Histogram: 1 1 0 1 0 0 1 1 0 1
Neighs:    212475 ave 214272 max 208729 min
Histogram: 1 0 0 0 1 0 0 1 0 3

Total # of neighbors = 1274851
Ave neighs/atom = 64.8713
Neighbor list builds = 495
Dangerous builds not checked
Setting up Verlet run ...
  Unit style    : metal
  Current step  : 1640503
  Time step     : 0.001
Per MPI rank memory allocation (min/avg/max) = 5.574 | 5.863 | 6.007 Mbytes
Step Temp Press TotEng PotEng Enthalpy 
 1640503    1213.9714    478.78773   -57975.733   -61059.331   -57859.626 
 1666675    1206.6905     147.1659   -58052.861   -61117.965   -58017.232 
 1706675    1212.0232   -934.72153   -58059.138   -61137.787   -58285.801 
Loop time of 2071.08 on 6 procs for 66172 steps with 19652 atoms

Performance: 2.761 ns/day, 8.694 hours/ns, 31.950 timesteps/s
94.0% CPU use with 6 MPI tasks x no OpenMP threads

MPI task timing breakdown:
Section |  min time  |  avg time  |  max time  |%varavg| %total
---------------------------------------------------------------
Pair    | 1095.5     | 1107.9     | 1118       |  22.1 | 53.49
Neigh   | 740.85     | 757.18     | 773.27     |  38.0 | 36.56
Comm    | 154.24     | 169.96     | 191.27     |  85.0 |  8.21
Output  | 0.037531   | 0.037545   | 0.037599   |   0.0 |  0.00
Modify  | 29.09      | 29.556     | 30.041     |   6.9 |  1.43
Other   |            | 6.446      |            |       |  0.31

Nlocal:    3275.33 ave 3292 max 3253 min
Histogram: 1 0 0 1 1 0 0 1 1 1
Nghost:    6786.67 ave 6812 max 6739 min
Histogram: 1 0 0 0 0 1 0 2 1 1
Neighs:    212539 ave 217231 max 209752 min
Histogram: 3 0 0 0 1 0 1 0 0 1

Total # of neighbors = 1275232
Ave neighs/atom = 64.8907
Neighbor list builds = 66172
Dangerous builds not checked
Setting up Verlet run ...
  Unit style    : metal
  Current step  : 1706675
  Time step     : 0.001
Per MPI rank memory allocation (min/avg/max) = 5.574 | 5.863 | 6.007 Mbytes
Step Temp Press TotEng PotEng Enthalpy 
 1706675    1212.0232   -934.72153   -58059.138   -61137.787   -58285.801 
 1707170    1165.9521   -641.84411   -58273.149   -61234.774   -58428.083 
Loop time of 14.9123 on 6 procs for 495 steps with 19652 atoms

Performance: 2.868 ns/day, 8.368 hours/ns, 33.194 timesteps/s
93.8% CPU use with 6 MPI tasks x no OpenMP threads

MPI task timing breakdown:
Section |  min time  |  avg time  |  max time  |%varavg| %total
---------------------------------------------------------------
Pair    | 7.8298     | 7.9362     | 8.0558     |   3.0 | 53.22
Neigh   | 5.0355     | 5.4358     | 5.9203     |  13.8 | 36.45
Comm    | 0.83893    | 1.2689     | 1.5779     |  25.5 |  8.51
Output  | 5.1022e-05 | 6.0439e-05 | 9.7036e-05 |   0.0 |  0.00
Modify  | 0.21239    | 0.22437    | 0.24346    |   2.2 |  1.50
Other   |            | 0.04699    |            |       |  0.32

Nlocal:    3275.33 ave 3293 max 3263 min
Histogram: 1 0 1 1 1 1 0 0 0 1
Nghost:    6770.67 ave 6804 max 6729 min
Histogram: 1 0 0 1 0 1 1 1 0 1
[...]
Loop time of 15.0359 on 6 procs for 495 steps with 19652 atoms

Performance: 2.844 ns/day, 8.438 hours/ns, 32.921 timesteps/s
94.5% CPU use with 6 MPI tasks x no OpenMP threads

MPI task timing breakdown:
Section |  min time  |  avg time  |  max time  |%varavg| %total
---------------------------------------------------------------
Pair    | 7.8035     | 7.9417     | 8.0376     |   3.0 | 52.82
Neigh   | 5.6113     | 5.827      | 6.1044     |   7.2 | 38.75
Comm    | 0.79495    | 1.0302     | 1.1561     |  11.6 |  6.85
Output  | 5.3883e-05 | 6.2505e-05 | 9.6083e-05 |   0.0 |  0.00
Modify  | 0.19035    | 0.19185    | 0.19609    |   0.5 |  1.28
Other   |            | 0.04516    |            |       |  0.30

Nlocal:    3275.33 ave 3284 max 3266 min
Histogram: 2 1 0 0 0 0 0 0 0 3
Nghost:    7140.67 ave 7168 max 7110 min
Histogram: 1 0 0 1 1 0 1 1 0 1
Neighs:    238590 ave 242583 max 234830 min
Histogram: 1 1 0 0 1 1 0 1 0 1

Total # of neighbors = 1431541
Ave neighs/atom = 72.8445
Neighbor list builds = 495
Dangerous builds not checked
Setting up Verlet run ...
  Unit style    : metal
  Current step  : 2707175
  Time step     : 0.001
Per MPI rank memory allocation (min/avg/max) = 5.575 | 5.863 | 6.007 Mbytes
Step Temp Press TotEng PotEng Enthalpy 
 2707175    423.43606    597.10341   -63131.744   -64207.311     -63002.5 
 2733347    405.97462    528.60957   -63313.701   -64344.913   -63199.845 
 2773347    398.21866    89.312292   -63379.283   -64390.795   -63360.064 
Loop time of 2096.89 on 6 procs for 66172 steps with 19652 atoms

Performance: 2.727 ns/day, 8.802 hours/ns, 31.557 timesteps/s
94.0% CPU use with 6 MPI tasks x no OpenMP threads

MPI task timing breakdown:
Section |  min time  |  avg time  |  max time  |%varavg| %total
---------------------------------------------------------------
Pair    | 1098.6     | 1111.1     | 1121.3     |  22.0 | 52.99
Neigh   | 758.67     | 785.87     | 811.84     |  56.3 | 37.48
Comm    | 132.19     | 164.79     | 190.9      | 148.8 |  7.86
Output  | 0.076651   | 0.076675   | 0.076772   |   0.0 |  0.00
Modify  | 28.664     | 28.941     | 29.285     |   3.5 |  1.38
Other   |            | 6.1        |            |       |  0.29

Nlocal:    3275.33 ave 3281 max 3271 min
Histogram: 1 1 0 1 1 0 0 0 1 1
Nghost:    7159.17 ave 7180 max 7136 min
Histogram: 1 0 0 1 1 1 0 1 0 1
Neighs:    239974 ave 243153 max 236264 min
Histogram: 1 0 1 0 0 2 0 0 0 2

Total # of neighbors = 1439842
Ave neighs/atom = 73.2669
Neighbor list builds = 66172
Dangerous builds not checked
Setting up Verlet run ...
  Unit style    : metal
  Current step  : 2773347
  Time step     : 0.001
Per MPI rank memory allocation (min/avg/max) = 5.575 | 5.863 | 6.007 Mbytes
Step Temp Press TotEng PotEng Enthalpy 
 2773347    398.21866    89.312292   -63379.283   -64390.795   -63360.064 
 2773842    373.82507   -198.43941   -63529.025   -64478.574   -63571.624 
Loop time of 15.6248 on 6 procs for 495 steps with 19652 atoms

Performance: 2.737 ns/day, 8.768 hours/ns, 31.680 timesteps/s
93.4% CPU use with 6 MPI tasks x no OpenMP threads

MPI task timing breakdown:
Section |  min time  |  avg time  |  max time  |%varavg| %total
---------------------------------------------------------------
Pair    | 8.1331     | 8.3157     | 8.436      |   3.9 | 53.22
Neigh   | 5.2714     | 5.803      | 6.1421     |  11.3 | 37.14
Comm    | 1.0411     | 1.2336     | 1.7585     |  21.7 |  7.90
Output  | 4.7207e-05 | 5.7737e-05 | 9.7036e-05 |   0.0 |  0.00
Modify  | 0.21808    | 0.22756    | 0.24104    |   1.9 |  1.46
Other   |            | 0.04484    |            |       |  0.29

Nlocal:    3275.33 ave 3292 max 3266 min
Histogram: 2 0 1 1 1 0 0 0 0 1
Nghost:    7168.83 ave 7190 max 7148 min
Histogram: 1 1 0 0 0 1 2 0 0 1
Neighs:    240392 ave 243774 max 236289 min
Histogram: 1 0 0 1 2 0 0 0 0 2

Total # of neighbors = 1442351
Ave neighs/atom = 73.3946
Neighbor list builds = 495
Dangerous builds not checked
Setting up Verlet run ...
  Unit style    : metal
  Current step  : 2773842
  Time step     : 0.001
Per MPI rank memory allocation (min/avg/max) = 5.575 | 5.863 | 6.007 Mbytes
Step Temp Press TotEng PotEng Enthalpy 
 2773842    373.82507   -198.43941   -63529.025   -64478.574   -63571.624 
 2800014    348.66588   -87.140638   -63700.303   -64585.946   -63718.939 
 2840014    351.51701   -515.22186   -63727.852   -64620.737   -63837.982 
Loop time of 2073.58 on 6 procs for 66172 steps with 19652 atoms

Performance: 2.757 ns/day, 8.705 hours/ns, 31.912 timesteps/s
93.8% CPU use with 6 MPI tasks x no OpenMP threads

MPI task timing breakdown:
Section |  min time  |  avg time  |  max time  |%varavg| %total
---------------------------------------------------------------
Pair    | 1086.7     | 1098.4     | 1109.6     |  25.5 | 52.97
Neigh   | 765.86     | 777.3      | 786.8      |  23.0 | 37.49
Comm    | 151.78     | 162.86     | 172.54     |  50.6 |  7.85
Output  | 0.046011   | 0.046024   | 0.04608    |   0.0 |  0.00
Modify  | 28.427     | 29.03      | 29.79      |   9.3 |  1.40
Other   |            | 5.911      |            |       |  0.29

Nlocal:    3275.33 ave 3294 max 3257 min
Histogram: 1 1 0 0 1 0 1 1 0 1
Nghost:    7179.33 ave 7195 max 7157 min
Histogram: 1 0 0 0 0 1 3 0 0 1
Neighs:    241343 ave 243234 max 238923 min
Histogram: 1 0 1 0 0 1 0 1 1 1

Total # of neighbors = 1448060
Ave neighs/atom = 73.6851
Neighbor list builds = 66172
Dangerous builds not checked
Setting up Verlet run ...
  Unit style    : metal
  Current step  : 2840014
  Time step     : 0.001
Per MPI rank memory allocation (min/avg/max) = 5.579 | 5.864 | 6.007 Mbytes
Step Temp Press TotEng PotEng Enthalpy 
 2840014    351.51701   -515.22186   -63727.852   -64620.737   -63837.982 
 2840509    321.09381   -114.88381   -63876.689   -64692.296   -63901.178 
Loop time of 15.7449 on 6 procs for 495 steps with 19652 atoms

Performance: 2.716 ns/day, 8.836 hours/ns, 31.439 timesteps/s
93.9% CPU use with 6 MPI tasks x no OpenMP threads

MPI task timing breakdown:
Section |  min time  |  avg time  |  max time  |%varavg| %total
---------------------------------------------------------------
Pair    | 8.198      | 8.3546     | 8.5027     |   3.6 | 53.06
Neigh   | 5.4005     | 5.9479     | 6.4427     |  14.5 | 37.78
Comm    | 0.85021    | 1.1905     | 1.6267     |  27.4 |  7.56
Output  | 5.1975e-05 | 6.0836e-05 | 9.8944e-05 |   0.0 |  0.00
Modify  | 0.19683    | 0.20698    | 0.21919    |   1.6 |  1.31
Other   |            | 0.04488    |            |       |  0.29

Nlocal:    3275.33 ave 3282 max 3264 min
Histogram: 1 0 0 0 1 0 0 2 1 1
Nghost:    7203 ave 7238 max 7168 min
Histogram: 1 0 0 2 0 0 2 0 0 1
Neighs:    241961 ave 245848 max 238844 min
Histogram: 2 0 1 0 1 0 0 0 0 2

Total # of neighbors = 1451767
Ave neighs/atom = 73.8738
Neighbor list builds = 495
Dangerous builds not checked
Setting up Verlet run ...
  Unit style    : metal
  Current step  : 2840509
  Time step     : 0.001
Per MPI rank memory allocation (min/avg/max) = 5.579 | 5.864 | 6.007 Mbytes
Step Temp Press TotEng PotEng Enthalpy 
 2840509    321.09381   -114.88381   -63876.689   -64692.296   -63901.178 
 2866681     298.7967    160.93332   -64028.304   -64787.275   -63994.116 
 2906681     302.0634   -615.06926   -64033.141    -64800.41   -64163.907 
Loop time of 2058.84 on 6 procs for 66172 steps with 19652 atoms

Performance: 2.777 ns/day, 8.643 hours/ns, 32.140 timesteps/s
93.9% CPU use with 6 MPI tasks x no OpenMP threads

MPI task timing breakdown:
Section |  min time  |  avg time  |  max time  |%varavg| %total
---------------------------------------------------------------
Pair    | 1082.8     | 1091.9     | 1106.4     |  24.4 | 53.03
Neigh   | 761.57     | 773.98     | 792.34     |  33.9 | 37.59
Comm    | 141.7      | 159.65     | 181.65     |  97.3 |  7.75
Output  | 0.036284   | 0.036302   | 0.036372   |   0.0 |  0.00
Modify  | 26.868     | 27.491     | 28.602     |  14.0 |  1.34
Other   |            | 5.787      |            |       |  0.28

Nlocal:    3275.33 ave 3287 max 3266 min
Histogram: 1 1 1 0 0 1 0 1 0 1
Nghost:    7187 ave 7225 max 7153 min
Histogram: 1 0 1 2 0 0 0 0 0 2
Neighs:    242520 ave 245211 max 239686 min
Histogram: 2 0 0 0 1 0 1 0 0 2

Total # of neighbors = 1455120
Ave neighs/atom = 74.0444
Neighbor list builds = 66172
Dangerous builds not checked
Setting up Verlet run ...
  Unit style    : metal
  Current step  : 2906681
  Time step     : 0.001
Per MPI rank memory allocation (min/avg/max) = 5.579 | 5.865 | 6.007 Mbytes
Step Temp Press TotEng PotEng Enthalpy 
 2906681     302.0634   -615.06926   -64033.141    -64800.41   -64163.907 
 2907176    274.81971      316.105   -64182.285   -64880.352   -64115.333 
Loop time of 15.0131 on 6 procs for 495 steps with 19652 atoms

Performance: 2.849 ns/day, 8.425 hours/ns, 32.971 timesteps/s
94.1% CPU use with 6 MPI tasks x no OpenMP threads

MPI task timing breakdown:
Section |  min time  |  avg time  |  max time  |%varavg| %total
---------------------------------------------------------------
Pair    | 7.805      | 7.9253     | 8.0221     |   2.7 | 52.79
Neigh   | 5.5264     | 5.7223     | 6.005      |   6.2 | 38.12
Comm    | 0.76171    | 1.1355     | 1.3249     |  18.4 |  7.56
Output  | 5.5075e-05 | 6.5327e-05 | 0.00010586 |   0.0 |  0.00
Modify  | 0.17442    | 0.18606    | 0.19752    |   2.1 |  1.24
Other   |            | 0.04387    |            |       |  0.29

Nlocal:    3275.33 ave 3293 max 3262 min
Histogram: 1 0 1 1 1 1 0 0 0 1
Nghost:    7205.17 ave 7235 max 7171 min
Histogram: 2 0 0 0 1 0 0 1 1 1
Neighs:    243351 ave 246611 max 240920 min
Histogram: 2 0 0 2 0 0 0 0 1 1

Total # of neighbors = 1460108
Ave neighs/atom = 74.2982
Neighbor list builds = 495
Dangerous builds not checked
Setting up Verlet run ...
  Unit style    : metal
  Current step  : 2907176
  Time step     : 0.001
Per MPI rank memory allocation (min/avg/max) = 5.579 | 5.865 | 6.007 Mbytes
Step Temp Press TotEng PotEng Enthalpy 
 2907176    274.81971      316.105   -64182.285   -64880.352   -64115.333 
 2933348    250.02166   -531.46538   -64329.727   -64964.805   -64442.124 
 2973348    249.88896   -620.67308   -64332.148   -64966.889   -64463.438 
Loop time of 2056.55 on 6 procs for 66172 steps with 19652 atoms

Performance: 2.780 ns/day, 8.633 hours/ns, 32.176 timesteps/s
93.9% CPU use with 6 MPI tasks x no OpenMP threads

MPI task timing breakdown:
Section |  min time  |  avg time  |  max time  |%varavg| %total
---------------------------------------------------------------
Pair    | 1080.6     | 1091.6     | 1109.5     |  29.4 | 53.08
Neigh   | 745.27     | 767.77     | 781.94     |  46.6 | 37.33
Comm    | 146.68     | 163.19     | 181.11     |  94.9 |  7.94
Output  | 0.03812    | 0.038137   | 0.038186   |   0.0 |  0.00
Modify  | 27.53      | 28.167     | 29.047     |  11.7 |  1.37
Other   |            | 5.783      |            |       |  0.28

Nlocal:    3275.33 ave 3287 max 3256 min
Histogram: 1 0 1 0 0 1 0 0 0 3
Nghost:    7213.67 ave 7235 max 7193 min
Histogram: 1 0 0 0 3 0 1 0 0 1
Neighs:    243573 ave 246052 max 240917 min
Histogram: 1 1 0 1 0 0 0 1 1 1

Total # of neighbors = 1461440
Ave neighs/atom = 74.366
Neighbor list builds = 66172
Dangerous builds not checked
Setting up Verlet run ...
  Unit style    : metal
  Current step  : 2973348
  Time step     : 0.001
Per MPI rank memory allocation (min/avg/max) = 5.583 | 5.866 | 6.007 Mbytes
Step Temp Press TotEng PotEng Enthalpy 
 2973348    249.88896   -620.67308   -64332.148   -64966.889   -64463.438 
 2973843    226.30516    267.79416   -64468.364     -65043.2   -64411.923 
Loop time of 14.9801 on 6 procs for 495 steps with 19652 atoms

Performance: 2.855 ns/day, 8.406 hours/ns, 33.044 timesteps/s
94.3% CPU use with 6 MPI tasks x no OpenMP threads

MPI task timing breakdown:
Section |  min time  |  avg time  |  max time  |%varavg| %total
---------------------------------------------------------------
Pair    | 7.7537     | 7.9489     | 8.203      |   4.9 | 53.06
Neigh   | 5.2959     | 5.69       | 5.9293     |   9.3 | 37.98
Comm    | 0.87511    | 1.1048     | 1.3649     |  16.8 |  7.38
Output  | 5.1975e-05 | 5.9525e-05 | 9.0122e-05 |   0.0 |  0.00
Modify  | 0.18088    | 0.19075    | 0.20213    |   1.6 |  1.27
Other   |            | 0.04557    |            |       |  0.30

Nlocal:    3275.33 ave 3288 max 3247 min
Histogram: 1 0 0 0 0 0 1 0 2 2
Nghost:    7214.83 ave 7254 max 7167 min
Histogram: 1 0 0 1 0 1 1 1 0 1
Neighs:    244321 ave 248269 max 241881 min
Histogram: 2 0 1 0 0 2 0 0 0 1

Total # of neighbors = 1465924
Ave neighs/atom = 74.5941
Neighbor list builds = 495
Dangerous builds not checked
Setting up Verlet run ...
  Unit style    : metal
  Current step  : 2973843
  Time step     : 0.001
Per MPI rank memory allocation (min/avg/max) = 5.583 | 5.866 | 6.007 Mbytes
Step Temp Press TotEng PotEng Enthalpy 
 2973843    226.30516    267.79416   -64468.364     -65043.2   -64411.923 
 3000015    200.32124   -131.23667   -64610.551   -65119.386   -64638.165 
 3040015    201.16863   -13.020906   -64612.388   -65123.375   -64615.127 
Loop time of 2057.93 on 6 procs for 66172 steps with 19652 atoms

Performance: 2.778 ns/day, 8.639 hours/ns, 32.155 timesteps/s
94.1% CPU use with 6 MPI tasks x no OpenMP threads

MPI task timing breakdown:
Section |  min time  |  avg time  |  max time  |%varavg| %total
---------------------------------------------------------------
Pair    | 1083.6     | 1096       | 1109.4     |  24.4 | 53.26
Neigh   | 758.77     | 769.42     | 780.56     |  30.3 | 37.39
Comm    | 148.15     | 158.72     | 168.15     |  55.6 |  7.71
Output  | 0.038933   | 0.038948   | 0.039011   |   0.0 |  0.00
Modify  | 27.262     | 27.742     | 28.176     |   6.2 |  1.35
Other   |            | 5.957      |            |       |  0.29

Nlocal:    3275.33 ave 3285 max 3262 min
Histogram: 1 0 0 2 0 0 0 1 0 2
Nghost:    7227.67 ave 7262 max 7204 min
Histogram: 1 1 0 1 2 0 0 0 0 1
Neighs:    244705 ave 247926 max 242012 min
Histogram: 1 1 0 0 2 0 0 1 0 1

Total # of neighbors = 1468229
Ave neighs/atom = 74.7114
Neighbor list builds = 66172
Dangerous builds not checked
Setting up Verlet run ...
  Unit style    : metal
  Current step  : 3040015
  Time step     : 0.001
Per MPI rank memory allocation (min/avg/max) = 5.583 | 5.866 | 6.007 Mbytes
Step Temp Press TotEng PotEng Enthalpy 
 3040015    201.16863   -13.020906   -64612.388   -65123.375   -64615.127 
 3040510    175.40617    42.189099   -64740.943   -65186.491   -64732.086 
Loop time of 15.1744 on 6 procs for 495 steps with 19652 atoms

Performance: 2.818 ns/day, 8.515 hours/ns, 32.621 timesteps/s
94.0% CPU use with 6 MPI tasks x no OpenMP threads

MPI task timing breakdown:
Section |  min time  |  avg time  |  max time  |%varavg| %total
---------------------------------------------------------------
Pair    | 7.9168     | 8.0523     | 8.1999     |   3.1 | 53.07
Neigh   | 5.2291     | 5.7547     | 5.961      |  10.4 | 37.92
Comm    | 0.86804    | 1.1203     | 1.503      |  19.4 |  7.38
Output  | 5.1022e-05 | 6.179e-05  | 9.6083e-05 |   0.0 |  0.00
Modify  | 0.19795    | 0.20057    | 0.2036     |   0.5 |  1.32
Other   |            | 0.04637    |            |       |  0.31

Nlocal:    3275.33 ave 3287 max 3257 min
Histogram: 1 1 0 0 0 0 0 2 0 2
Nghost:    7237.83 ave 7265 max 7212 min
Histogram: 1 0 0 1 1 2 0 0 0 1
Neighs:    245169 ave 247860 max 242463 min
Histogram: 1 0 1 0 1 1 0 1 0 1

Total # of neighbors = 1471016
Ave neighs/atom = 74.8532
Neighbor list builds = 495
Dangerous builds not checked
Setting up Verlet run ...
  Unit style    : metal
  Current step  : 3040510
  Time step     : 0.001
Per MPI rank memory allocation (min/avg/max) = 5.583 | 5.866 | 6.007 Mbytes
Step Temp Press TotEng PotEng Enthalpy 
 3040510    175.40617    42.189099   -64740.943   -65186.491   -64732.086 
 3066682    150.99164     80.32124   -64878.917    -65262.45   -64862.091 
 3106682    151.07313   -351.93723   -64878.515   -65262.255   -64952.279 
Loop time of 2115.81 on 6 procs for 66172 steps with 19652 atoms

Performance: 2.702 ns/day, 8.882 hours/ns, 31.275 timesteps/s
92.9% CPU use with 6 MPI tasks x no OpenMP threads

MPI task timing breakdown:
Section |  min time  |  avg time  |  max time  |%varavg| %total
---------------------------------------------------------------
Pair    | 1118.8     | 1132.8     | 1138.8     |  21.6 | 53.54
Neigh   | 766.77     | 778.17     | 799.14     |  37.6 | 36.78
Comm    | 141.81     | 168.28     | 188.02     | 110.5 |  7.95
Output  | 0.1633     | 0.16332    | 0.16338    |   0.0 |  0.01
Modify  | 30.016     | 30.282     | 30.531     |   3.6 |  1.43
Other   |            | 6.074      |            |       |  0.29

Nlocal:    3275.33 ave 3286 max 3264 min
Histogram: 2 0 0 0 0 1 1 0 1 1
Nghost:    7250.83 ave 7263 max 7235 min
Histogram: 1 0 0 1 0 1 0 2 0 1
Neighs:    245536 ave 248163 max 242710 min
Histogram: 1 1 0 1 0 0 1 0 0 2

Total # of neighbors = 1473215
Ave neighs/atom = 74.9651
Neighbor list builds = 66172
Dangerous builds not checked
Setting up Verlet run ...
  Unit style    : metal
  Current step  : 3106682
  Time step     : 0.001
Per MPI rank memory allocation (min/avg/max) = 5.583 | 5.866 | 6.007 Mbytes
Step Temp Press TotEng PotEng Enthalpy 
 3106682    151.07313   -351.93723   -64878.515   -65262.255   -64952.279 
 3107177    127.73182    274.86856   -65001.509   -65325.959   -64944.053 
Loop time of 14.8518 on 6 procs for 495 steps with 19652 atoms

Performance: 2.880 ns/day, 8.334 hours/ns, 33.329 timesteps/s
94.3% CPU use with 6 MPI tasks x no OpenMP threads

MPI task timing breakdown:
Section |  min time  |  avg time  |  max time  |%varavg| %total
---------------------------------------------------------------
Pair    | 7.8403     | 7.967      | 8.0783     |   2.6 | 53.64
Neigh   | 5.2991     | 5.5971     | 5.8294     |   8.3 | 37.69
Comm    | 0.80633    | 1.0593     | 1.2576     |  17.9 |  7.13
Output  | 4.8161e-05 | 5.9048e-05 | 0.00010705 |   0.0 |  0.00
Modify  | 0.17485    | 0.18581    | 0.19305    |   1.3 |  1.25
Other   |            | 0.0426     |            |       |  0.29

Nlocal:    3275.33 ave 3293 max 3255 min
Histogram: 1 0 1 0 0 1 0 2 0 1
Nghost:    7254.5 ave 7266 max 7232 min
Histogram: 1 0 0 0 0 0 2 1 1 1
Neighs:    246102 ave 248546 max 243763 min
Histogram: 2 0 0 1 0 0 0 1 1 1

Total # of neighbors = 1476613
Ave neighs/atom = 75.1381
Neighbor list builds = 495
Dangerous builds not checked
Setting up Verlet run ...
  Unit style    : metal
  Current step  : 3107177
  Time step     : 0.001
Per MPI rank memory allocation (min/avg/max) = 5.583 | 5.866 | 6.007 Mbytes
Step Temp Press TotEng PotEng Enthalpy 
 3107177    127.73182    274.86856   -65001.509   -65325.959   -64944.053 
 3133349    99.485661    -319.4298   -65147.575   -65400.277   -65214.247 
 3173349    98.586283    52.716305   -65147.183   -65397.601   -65136.184 
Loop time of 2199.58 on 6 procs for 66172 steps with 19652 atoms

Performance: 2.599 ns/day, 9.233 hours/ns, 30.084 timesteps/s
92.5% CPU use with 6 MPI tasks x no OpenMP threads

MPI task timing breakdown:
Section |  min time  |  avg time  |  max time  |%varavg| %total
---------------------------------------------------------------
Pair    | 1154.6     | 1170.4     | 1181.6     |  31.5 | 53.21
Neigh   | 778.55     | 795.01     | 827.56     |  62.2 | 36.14
Comm    | 161.45     | 186.04     | 215.36     | 133.9 |  8.46
Output  | 0.087596   | 0.087608   | 0.087663   |   0.0 |  0.00
Modify  | 41.413     | 41.87      | 42.679     |   6.4 |  1.90
Other   |            | 6.16       |            |       |  0.28

Nlocal:    3275.33 ave 3292 max 3264 min
Histogram: 1 1 1 1 0 0 1 0 0 1
Nghost:    7252.83 ave 7275 max 7232 min
Histogram: 1 2 0 0 0 0 0 2 0 1
Neighs:    246471 ave 249495 max 244301 min
Histogram: 2 0 1 0 1 0 0 1 0 1

Total # of neighbors = 1478828
Ave neighs/atom = 75.2508
Neighbor list builds = 66172
Dangerous builds not checked
Total wall time: 27:54:48
