LAMMPS (12 Dec 2018)
Lattice spacing in x,y,z = 4 4 4
Created orthogonal box = (0 0 0) to (68 68 68)
  1 by 1 by 1 MPI processor grid
Created 19652 atoms
  Time spent = 0.00303102 secs
Setting atom values ...
  19652 settings made for type/fraction
Neighbor list info ...
  update every 1 steps, delay 0 steps, check no
  max neighbors/atom: 2000, page size: 100000
  master list distance cutoff = 8.5
  ghost atom cutoff = 8.5
  binsize = 4.25, bins = 16 16 16
  1 neighbor lists, perpetual/occasional/extra = 1 0 0
  (1) pair eam/alloy, perpetual
      attributes: half, newton on
      pair build: half/bin/atomonly/newton
      stencil: half/bin/3d/newton
      bin: standard
Setting up Verlet run ...
  Unit style    : metal
  Current step  : 0
  Time step     : 0.001
Per MPI rank memory allocation (min/avg/max) = 18.19 | 18.19 | 18.19 Mbytes
Step Temp Press TotEng PotEng Enthalpy 
       0          300   -174102.16   -61540.291   -62302.318   -95708.368 
    1000    399.77449   -86987.645   -61540.291   -62555.755    -78611.88 
Loop time of 165.668 on 1 procs for 1000 steps with 19652 atoms

Performance: 0.522 ns/day, 46.019 hours/ns, 6.036 timesteps/s
96.3% CPU use with 1 MPI tasks x no OpenMP threads

MPI task timing breakdown:
Section |  min time  |  avg time  |  max time  |%varavg| %total
---------------------------------------------------------------
Pair    | 91.85      | 91.85      | 91.85      |   0.0 | 55.44
Neigh   | 71.766     | 71.766     | 71.766     |   0.0 | 43.32
Comm    | 1.2079     | 1.2079     | 1.2079     |   0.0 |  0.73
Output  | 0.00019693 | 0.00019693 | 0.00019693 |   0.0 |  0.00
Modify  | 0.43589    | 0.43589    | 0.43589    |   0.0 |  0.26
Other   |            | 0.4085     |            |       |  0.25

Nlocal:    19652 ave 19652 max 19652 min
Histogram: 1 0 0 0 0 0 0 0 0 0
Nghost:    19280 ave 19280 max 19280 min
Histogram: 1 0 0 0 0 0 0 0 0 0
Neighs:    1.56901e+06 ave 1.56901e+06 max 1.56901e+06 min
Histogram: 1 0 0 0 0 0 0 0 0 0

Total # of neighbors = 1569008
Ave neighs/atom = 79.8396
Neighbor list builds = 1000
Dangerous builds not checked
Setting up Verlet run ...
  Unit style    : metal
  Current step  : 1000
  Time step     : 0.001
Per MPI rank memory allocation (min/avg/max) = 18.19 | 18.19 | 18.19 Mbytes
Step Temp Press TotEng PotEng Enthalpy 
    1000    399.77449   -86987.645   -61540.291   -62555.755    -78611.88 
    2000    412.10133   -1910.2793   -65967.776   -67014.551   -66255.552 
Loop time of 209.132 on 1 procs for 1000 steps with 19652 atoms

Performance: 0.413 ns/day, 58.092 hours/ns, 4.782 timesteps/s
96.6% CPU use with 1 MPI tasks x no OpenMP threads

MPI task timing breakdown:
Section |  min time  |  avg time  |  max time  |%varavg| %total
---------------------------------------------------------------
Pair    | 111.7      | 111.7      | 111.7      |   0.0 | 53.41
Neigh   | 94.289     | 94.289     | 94.289     |   0.0 | 45.09
Comm    | 1.1742     | 1.1742     | 1.1742     |   0.0 |  0.56
Output  | 0.0002749  | 0.0002749  | 0.0002749  |   0.0 |  0.00
Modify  | 1.5575     | 1.5575     | 1.5575     |   0.0 |  0.74
Other   |            | 0.4132     |            |       |  0.20

Nlocal:    19652 ave 19652 max 19652 min
Histogram: 1 0 0 0 0 0 0 0 0 0
Nghost:    20406 ave 20406 max 20406 min
Histogram: 1 0 0 0 0 0 0 0 0 0
Neighs:    2.03084e+06 ave 2.03084e+06 max 2.03084e+06 min
Histogram: 1 0 0 0 0 0 0 0 0 0

Total # of neighbors = 2030842
Ave neighs/atom = 103.34
Neighbor list builds = 1000
Dangerous builds not checked
Setting up Verlet run ...
  Unit style    : metal
  Current step  : 2000
  Time step     : 0.001
Per MPI rank memory allocation (min/avg/max) = 19.34 | 19.34 | 19.34 Mbytes
Step Temp Press TotEng PotEng Enthalpy 
    2000    412.10133   -1910.2793   -65967.776   -67014.551   -66255.552 
    6667     1487.634   -108.49633   -59947.613   -63726.339   -59965.125 
   10000    2454.3684   -1522.1448   -53149.558   -59383.878   -53427.772 
Loop time of 1476.94 on 1 procs for 8000 steps with 19652 atoms

Performance: 0.468 ns/day, 51.283 hours/ns, 5.417 timesteps/s
99.9% CPU use with 1 MPI tasks x no OpenMP threads

MPI task timing breakdown:
Section |  min time  |  avg time  |  max time  |%varavg| %total
---------------------------------------------------------------
Pair    | 790.49     | 790.49     | 790.49     |   0.0 | 53.52
Neigh   | 664.03     | 664.03     | 664.03     |   0.0 | 44.96
Comm    | 8.2808     | 8.2808     | 8.2808     |   0.0 |  0.56
Output  | 0.055162   | 0.055162   | 0.055162   |   0.0 |  0.00
Modify  | 11.143     | 11.143     | 11.143     |   0.0 |  0.75
Other   |            | 2.942      |            |       |  0.20

Nlocal:    19652 ave 19652 max 19652 min
Histogram: 1 0 0 0 0 0 0 0 0 0
Nghost:    19166 ave 19166 max 19166 min
Histogram: 1 0 0 0 0 0 0 0 0 0
Neighs:    1.68245e+06 ave 1.68245e+06 max 1.68245e+06 min
Histogram: 1 0 0 0 0 0 0 0 0 0

Total # of neighbors = 1682449
Ave neighs/atom = 85.6121
Neighbor list builds = 8000
Dangerous builds not checked
Setting up Verlet run ...
  Unit style    : metal
  Current step  : 10000
  Time step     : 0.001
Per MPI rank memory allocation (min/avg/max) = 19.72 | 19.72 | 19.72 Mbytes
Step Temp Press TotEng PotEng Enthalpy 
   10000    2454.3684   -1522.1448   -53149.558   -59383.878   -53427.772 
   13334    2457.6906   -239.26178   -53094.545   -59337.303   -53138.306 
   20001    2462.2012    1563.2311   -53083.841   -59338.056   -52798.397 
   26668    2431.3095    1738.8134   -53177.066   -59352.814   -52859.826 
   33335    2458.8401    421.86174   -53184.438   -59430.116   -53107.557 
   40000    2447.8241   -589.74131   -53110.658   -59328.355   -53218.571 
Loop time of 5286.37 on 1 procs for 30000 steps with 19652 atoms

Performance: 0.490 ns/day, 48.948 hours/ns, 5.675 timesteps/s
99.5% CPU use with 1 MPI tasks x no OpenMP threads

MPI task timing breakdown:
Section |  min time  |  avg time  |  max time  |%varavg| %total
---------------------------------------------------------------
Pair    | 2810.1     | 2810.1     | 2810.1     |   0.0 | 53.16
Neigh   | 2390       | 2390       | 2390       |   0.0 | 45.21
Comm    | 31.726     | 31.726     | 31.726     |   0.0 |  0.60
Output  | 0.24593    | 0.24593    | 0.24593    |   0.0 |  0.00
Modify  | 43.075     | 43.075     | 43.075     |   0.0 |  0.81
Other   |            | 11.23      |            |       |  0.21

Nlocal:    19652 ave 19652 max 19652 min
Histogram: 1 0 0 0 0 0 0 0 0 0
Nghost:    19289 ave 19289 max 19289 min
Histogram: 1 0 0 0 0 0 0 0 0 0
Neighs:    1.68071e+06 ave 1.68071e+06 max 1.68071e+06 min
Histogram: 1 0 0 0 0 0 0 0 0 0

Total # of neighbors = 1680712
Ave neighs/atom = 85.5237
Neighbor list builds = 30000
Dangerous builds not checked
Setting up Verlet run ...
  Unit style    : metal
  Current step  : 40000
  Time step     : 0.001
Per MPI rank memory allocation (min/avg/max) = 19.72 | 19.72 | 19.72 Mbytes
Step Temp Press TotEng PotEng Enthalpy 
   40000    2447.8241   -589.74131   -53110.658   -59328.355   -53218.571 
   40002    2447.7281   -599.56998   -53110.654   -59328.106   -53220.366 
   40495    2409.1176     106.8534   -53319.058   -59438.436   -53299.588 
Loop time of 91.9978 on 1 procs for 495 steps with 19652 atoms

Performance: 0.465 ns/day, 51.626 hours/ns, 5.381 timesteps/s
99.7% CPU use with 1 MPI tasks x no OpenMP threads

MPI task timing breakdown:
Section |  min time  |  avg time  |  max time  |%varavg| %total
---------------------------------------------------------------
Pair    | 49.718     | 49.718     | 49.718     |   0.0 | 54.04
Neigh   | 40.744     | 40.744     | 40.744     |   0.0 | 44.29
Comm    | 0.54894    | 0.54894    | 0.54894    |   0.0 |  0.60
Output  | 0.065553   | 0.065553   | 0.065553   |   0.0 |  0.07
Modify  | 0.7283     | 0.7283     | 0.7283     |   0.0 |  0.79
Other   |            | 0.1928     |            |       |  0.21

Nlocal:    19652 ave 19652 max 19652 min
Histogram: 1 0 0 0 0 0 0 0 0 0
Nghost:    19333 ave 19333 max 19333 min
Histogram: 1 0 0 0 0 0 0 0 0 0
Neighs:    1.68743e+06 ave 1.68743e+06 max 1.68743e+06 min
Histogram: 1 0 0 0 0 0 0 0 0 0

Total # of neighbors = 1687429
Ave neighs/atom = 85.8655
Neighbor list builds = 495
Dangerous builds not checked
Setting up Verlet run ...
  Unit style    : metal
  Current step  : 40495
  Time step     : 0.001
Per MPI rank memory allocation (min/avg/max) = 19.72 | 19.72 | 19.72 Mbytes
Step Temp Press TotEng PotEng Enthalpy 
   40495    2409.1176     106.8534   -53319.058   -59438.436   -53299.588 
   46667    2396.4712    122.31144   -53375.081   -59462.336   -53352.814 
Loop time of 1219.6 on 1 procs for 6172 steps with 19652 atoms

Performance: 0.437 ns/day, 54.889 hours/ns, 5.061 timesteps/s
99.5% CPU use with 1 MPI tasks x no OpenMP threads

MPI task timing breakdown:
Section |  min time  |  avg time  |  max time  |%varavg| %total
---------------------------------------------------------------
Pair    | 664.34     | 664.34     | 664.34     |   0.0 | 54.47
Neigh   | 536.05     | 536.05     | 536.05     |   0.0 | 43.95
Comm    | 7.3134     | 7.3134     | 7.3134     |   0.0 |  0.60
Output  | 0.00020194 | 0.00020194 | 0.00020194 |   0.0 |  0.00
Modify  | 9.393      | 9.393      | 9.393      |   0.0 |  0.77
Other   |            | 2.495      |            |       |  0.20

Nlocal:    19652 ave 19652 max 19652 min
Histogram: 1 0 0 0 0 0 0 0 0 0
Nghost:    19246 ave 19246 max 19246 min
Histogram: 1 0 0 0 0 0 0 0 0 0
Neighs:    1.68882e+06 ave 1.68882e+06 max 1.68882e+06 min
Histogram: 1 0 0 0 0 0 0 0 0 0

Total # of neighbors = 1688821
Ave neighs/atom = 85.9363
Neighbor list builds = 6172
Dangerous builds not checked
Setting up Verlet run ...
  Unit style    : metal
  Current step  : 46667
  Time step     : 0.001
Per MPI rank memory allocation (min/avg/max) = 19.72 | 19.72 | 19.72 Mbytes
Step Temp Press TotEng PotEng Enthalpy 
   46667    2396.4712    122.31144   -53375.081   -59462.336   -53352.814 
   46669    2396.0871    102.33585   -53375.072   -59461.351   -53356.441 
   47162    2366.7846   -3.7697743   -53647.202    -59659.05   -53647.884 
Loop time of 93.4592 on 1 procs for 495 steps with 19652 atoms

Performance: 0.458 ns/day, 52.446 hours/ns, 5.296 timesteps/s
99.2% CPU use with 1 MPI tasks x no OpenMP threads

MPI task timing breakdown:
Section |  min time  |  avg time  |  max time  |%varavg| %total
---------------------------------------------------------------
Pair    | 50.682     | 50.682     | 50.682     |   0.0 | 54.23
Neigh   | 41.102     | 41.102     | 41.102     |   0.0 | 43.98
Comm    | 0.60676    | 0.60676    | 0.60676    |   0.0 |  0.65
Output  | 0.066878   | 0.066878   | 0.066878   |   0.0 |  0.07
Modify  | 0.78864    | 0.78864    | 0.78864    |   0.0 |  0.84
Other   |            | 0.2127     |            |       |  0.23

Nlocal:    19652 ave 19652 max 19652 min
Histogram: 1 0 0 0 0 0 0 0 0 0
Nghost:    19350 ave 19350 max 19350 min
Histogram: 1 0 0 0 0 0 0 0 0 0
Neighs:    1.69805e+06 ave 1.69805e+06 max 1.69805e+06 min
Histogram: 1 0 0 0 0 0 0 0 0 0

Total # of neighbors = 1698050
Ave neighs/atom = 86.406
Neighbor list builds = 495
Dangerous builds not checked
Setting up Verlet run ...
  Unit style    : metal
  Current step  : 47162
  Time step     : 0.001
Per MPI rank memory allocation (min/avg/max) = 19.72 | 19.72 | 19.72 Mbytes
Step Temp Press TotEng PotEng Enthalpy 
   47162    2366.7846   -3.7697743   -53647.202    -59659.05   -53647.884 
   53334    2337.5403   -1678.6075    -53598.74   -59536.305   -53904.263 
Loop time of 1253.49 on 1 procs for 6172 steps with 19652 atoms

Performance: 0.425 ns/day, 56.415 hours/ns, 4.924 timesteps/s
96.9% CPU use with 1 MPI tasks x no OpenMP threads

MPI task timing breakdown:
Section |  min time  |  avg time  |  max time  |%varavg| %total
---------------------------------------------------------------
Pair    | 681.9      | 681.9      | 681.9      |   0.0 | 54.40
Neigh   | 551.5      | 551.5      | 551.5      |   0.0 | 44.00
Comm    | 7.6573     | 7.6573     | 7.6573     |   0.0 |  0.61
Output  | 0.000664   | 0.000664   | 0.000664   |   0.0 |  0.00
Modify  | 9.799      | 9.799      | 9.799      |   0.0 |  0.78
Other   |            | 2.632      |            |       |  0.21

Nlocal:    19652 ave 19652 max 19652 min
Histogram: 1 0 0 0 0 0 0 0 0 0
Nghost:    19228 ave 19228 max 19228 min
Histogram: 1 0 0 0 0 0 0 0 0 0
Neighs:    1.68917e+06 ave 1.68917e+06 max 1.68917e+06 min
Histogram: 1 0 0 0 0 0 0 0 0 0

Total # of neighbors = 1689171
Ave neighs/atom = 85.9542
Neighbor list builds = 6172
Dangerous builds not checked
Setting up Verlet run ...
  Unit style    : metal
  Current step  : 53334
  Time step     : 0.001
Per MPI rank memory allocation (min/avg/max) = 19.72 | 19.72 | 19.72 Mbytes
Step Temp Press TotEng PotEng Enthalpy 
   53334    2337.5403   -1678.6075    -53598.74   -59536.305   -53904.263 
   53336    2337.7742   -1699.0605   -53598.726   -59536.886   -53907.972 
   53829     2307.856   -324.84425    -53907.89   -59770.055   -53966.524 
Loop time of 97.0869 on 1 procs for 495 steps with 19652 atoms

Performance: 0.441 ns/day, 54.482 hours/ns, 5.099 timesteps/s
98.0% CPU use with 1 MPI tasks x no OpenMP threads

MPI task timing breakdown:
Section |  min time  |  avg time  |  max time  |%varavg| %total
---------------------------------------------------------------
Pair    | 52.918     | 52.918     | 52.918     |   0.0 | 54.51
Neigh   | 42.536     | 42.536     | 42.536     |   0.0 | 43.81
Comm    | 0.59685    | 0.59685    | 0.59685    |   0.0 |  0.61
Output  | 0.067419   | 0.067419   | 0.067419   |   0.0 |  0.07
Modify  | 0.76587    | 0.76587    | 0.76587    |   0.0 |  0.79
Other   |            | 0.2024     |            |       |  0.21

Nlocal:    19652 ave 19652 max 19652 min
Histogram: 1 0 0 0 0 0 0 0 0 0
Nghost:    19277 ave 19277 max 19277 min
Histogram: 1 0 0 0 0 0 0 0 0 0
Neighs:    1.70372e+06 ave 1.70372e+06 max 1.70372e+06 min
Histogram: 1 0 0 0 0 0 0 0 0 0

Total # of neighbors = 1703725
Ave neighs/atom = 86.6947
Neighbor list builds = 495
Dangerous builds not checked
Setting up Verlet run ...
  Unit style    : metal
  Current step  : 53829
  Time step     : 0.001
Per MPI rank memory allocation (min/avg/max) = 19.72 | 19.72 | 19.72 Mbytes
Step Temp Press TotEng PotEng Enthalpy 
   53829     2307.856   -324.84425    -53907.89   -59770.055   -53966.524 
   60001    2304.7998    -664.6053   -53960.525   -59814.926   -54080.357 
Loop time of 1269.21 on 1 procs for 6172 steps with 19652 atoms

Performance: 0.420 ns/day, 57.122 hours/ns, 4.863 timesteps/s
97.3% CPU use with 1 MPI tasks x no OpenMP threads

MPI task timing breakdown:
Section |  min time  |  avg time  |  max time  |%varavg| %total
---------------------------------------------------------------
Pair    | 697.36     | 697.36     | 697.36     |   0.0 | 54.94
Neigh   | 551.69     | 551.69     | 551.69     |   0.0 | 43.47
Comm    | 7.7677     | 7.7677     | 7.7677     |   0.0 |  0.61
Output  | 0.00032687 | 0.00032687 | 0.00032687 |   0.0 |  0.00
Modify  | 9.7509     | 9.7509     | 9.7509     |   0.0 |  0.77
Other   |            | 2.646      |            |       |  0.21

Nlocal:    19652 ave 19652 max 19652 min
Histogram: 1 0 0 0 0 0 0 0 0 0
Nghost:    19374 ave 19374 max 19374 min
Histogram: 1 0 0 0 0 0 0 0 0 0
Neighs:    1.70435e+06 ave 1.70435e+06 max 1.70435e+06 min
Histogram: 1 0 0 0 0 0 0 0 0 0

Total # of neighbors = 1704350
Ave neighs/atom = 86.7265
Neighbor list builds = 6172
Dangerous builds not checked
Setting up Verlet run ...
  Unit style    : metal
  Current step  : 60001
  Time step     : 0.001
Per MPI rank memory allocation (min/avg/max) = 19.72 | 19.72 | 19.72 Mbytes
Step Temp Press TotEng PotEng Enthalpy 
   60001    2304.7998    -664.6053   -53960.525   -59814.926   -54080.357 
   60003    2304.2012   -674.97885   -53960.528   -59813.408   -54082.231 
   60496    2253.7121   -110.52428    -54134.21   -59858.845   -54154.087 
Loop time of 90.2744 on 1 procs for 495 steps with 19652 atoms

Performance: 0.474 ns/day, 50.659 hours/ns, 5.483 timesteps/s
99.9% CPU use with 1 MPI tasks x no OpenMP threads

MPI task timing breakdown:
Section |  min time  |  avg time  |  max time  |%varavg| %total
---------------------------------------------------------------
Pair    | 49.322     | 49.322     | 49.322     |   0.0 | 54.64
Neigh   | 39.418     | 39.418     | 39.418     |   0.0 | 43.66
Comm    | 0.55705    | 0.55705    | 0.55705    |   0.0 |  0.62
Output  | 0.066404   | 0.066404   | 0.066404   |   0.0 |  0.07
Modify  | 0.7141     | 0.7141     | 0.7141     |   0.0 |  0.79
Other   |            | 0.197      |            |       |  0.22

Nlocal:    19652 ave 19652 max 19652 min
Histogram: 1 0 0 0 0 0 0 0 0 0
Nghost:    19455 ave 19455 max 19455 min
Histogram: 1 0 0 0 0 0 0 0 0 0
Neighs:    1.70973e+06 ave 1.70973e+06 max 1.70973e+06 min
Histogram: 1 0 0 0 0 0 0 0 0 0

Total # of neighbors = 1709730
Ave neighs/atom = 87.0003
Neighbor list builds = 495
Dangerous builds not checked
Setting up Verlet run ...
  Unit style    : metal
  Current step  : 60496
  Time step     : 0.001
Per MPI rank memory allocation (min/avg/max) = 19.72 | 19.72 | 19.72 Mbytes
Step Temp Press TotEng PotEng Enthalpy 
   60496    2253.7121   -110.52428    -54134.21   -59858.845   -54154.087 
   66668    2240.5681   -386.59319   -54280.681   -59971.928   -54350.011 
Loop time of 1155.54 on 1 procs for 6172 steps with 19652 atoms

Performance: 0.461 ns/day, 52.006 hours/ns, 5.341 timesteps/s
99.9% CPU use with 1 MPI tasks x no OpenMP threads

MPI task timing breakdown:
Section |  min time  |  avg time  |  max time  |%varavg| %total
---------------------------------------------------------------
Pair    | 630.65     | 630.65     | 630.65     |   0.0 | 54.58
Neigh   | 506.53     | 506.53     | 506.53     |   0.0 | 43.84
Comm    | 7.0454     | 7.0454     | 7.0454     |   0.0 |  0.61
Output  | 0.00020194 | 0.00020194 | 0.00020194 |   0.0 |  0.00
Modify  | 8.9079     | 8.9079     | 8.9079     |   0.0 |  0.77
Other   |            | 2.399      |            |       |  0.21

Nlocal:    19652 ave 19652 max 19652 min
Histogram: 1 0 0 0 0 0 0 0 0 0
Nghost:    19453 ave 19453 max 19453 min
Histogram: 1 0 0 0 0 0 0 0 0 0
Neighs:    1.71362e+06 ave 1.71362e+06 max 1.71362e+06 min
Histogram: 1 0 0 0 0 0 0 0 0 0

Total # of neighbors = 1713620
Ave neighs/atom = 87.1982
Neighbor list builds = 6172
Dangerous builds not checked
Setting up Verlet run ...
  Unit style    : metal
  Current step  : 66668
  Time step     : 0.001
Per MPI rank memory allocation (min/avg/max) = 19.72 | 19.72 | 19.72 Mbytes
Step Temp Press TotEng PotEng Enthalpy 
   66668    2240.5681   -386.59319   -54280.681   -59971.928   -54350.011 
   66670    2241.4008   -423.11245   -54280.676   -59974.038   -54356.555 
   67163    2197.0332    718.21551   -54461.926    -60042.59   -54333.541 
Loop time of 90.2643 on 1 procs for 495 steps with 19652 atoms

Performance: 0.474 ns/day, 50.653 hours/ns, 5.484 timesteps/s
99.6% CPU use with 1 MPI tasks x no OpenMP threads

MPI task timing breakdown:
Section |  min time  |  avg time  |  max time  |%varavg| %total
---------------------------------------------------------------
Pair    | 49.329     | 49.329     | 49.329     |   0.0 | 54.65
Neigh   | 39.397     | 39.397     | 39.397     |   0.0 | 43.65
Comm    | 0.55177    | 0.55177    | 0.55177    |   0.0 |  0.61
Output  | 0.066688   | 0.066688   | 0.066688   |   0.0 |  0.07
Modify  | 0.72364    | 0.72364    | 0.72364    |   0.0 |  0.80
Other   |            | 0.196      |            |       |  0.22

Nlocal:    19652 ave 19652 max 19652 min
Histogram: 1 0 0 0 0 0 0 0 0 0
Nghost:    19465 ave 19465 max 19465 min
Histogram: 1 0 0 0 0 0 0 0 0 0
Neighs:    1.7197e+06 ave 1.7197e+06 max 1.7197e+06 min
Histogram: 1 0 0 0 0 0 0 0 0 0

Total # of neighbors = 1719695
Ave neighs/atom = 87.5074
Neighbor list builds = 495
Dangerous builds not checked
Setting up Verlet run ...
  Unit style    : metal
  Current step  : 67163
  Time step     : 0.001
Per MPI rank memory allocation (min/avg/max) = 19.72 | 19.72 | 19.72 Mbytes
Step Temp Press TotEng PotEng Enthalpy 
   67163    2197.0332    718.21551   -54461.926    -60042.59   -54333.541 
   73335    2197.0732   -565.87692   -54464.939   -60045.705   -54566.203 
Loop time of 1137.37 on 1 procs for 6172 steps with 19652 atoms

Performance: 0.469 ns/day, 51.189 hours/ns, 5.427 timesteps/s
99.9% CPU use with 1 MPI tasks x no OpenMP threads

MPI task timing breakdown:
Section |  min time  |  avg time  |  max time  |%varavg| %total
---------------------------------------------------------------
Pair    | 620.73     | 620.73     | 620.73     |   0.0 | 54.58
Neigh   | 498.6      | 498.6      | 498.6      |   0.0 | 43.84
Comm    | 6.9113     | 6.9113     | 6.9113     |   0.0 |  0.61
Output  | 0.00029302 | 0.00029302 | 0.00029302 |   0.0 |  0.00
Modify  | 8.7769     | 8.7769     | 8.7769     |   0.0 |  0.77
Other   |            | 2.349      |            |       |  0.21

Nlocal:    19652 ave 19652 max 19652 min
Histogram: 1 0 0 0 0 0 0 0 0 0
Nghost:    19430 ave 19430 max 19430 min
Histogram: 1 0 0 0 0 0 0 0 0 0
Neighs:    1.71688e+06 ave 1.71688e+06 max 1.71688e+06 min
Histogram: 1 0 0 0 0 0 0 0 0 0

Total # of neighbors = 1716875
Ave neighs/atom = 87.3639
Neighbor list builds = 6172
Dangerous builds not checked
Setting up Verlet run ...
  Unit style    : metal
  Current step  : 73335
  Time step     : 0.001
Per MPI rank memory allocation (min/avg/max) = 19.72 | 19.72 | 19.72 Mbytes
Step Temp Press TotEng PotEng Enthalpy 
   73335    2197.0732   -565.87692   -54464.939   -60045.705   -54566.203 
   73337     2198.479   -614.88564   -54464.943   -60049.279   -54574.977 
   73830    2166.3884   -7.7194751   -54749.466    -60252.29   -54750.838 
Loop time of 94.0816 on 1 procs for 495 steps with 19652 atoms

Performance: 0.455 ns/day, 52.796 hours/ns, 5.261 timesteps/s
99.9% CPU use with 1 MPI tasks x no OpenMP threads

MPI task timing breakdown:
Section |  min time  |  avg time  |  max time  |%varavg| %total
---------------------------------------------------------------
Pair    | 51.435     | 51.435     | 51.435     |   0.0 | 54.67
Neigh   | 41.068     | 41.068     | 41.068     |   0.0 | 43.65
Comm    | 0.57407    | 0.57407    | 0.57407    |   0.0 |  0.61
Output  | 0.05028    | 0.05028    | 0.05028    |   0.0 |  0.05
Modify  | 0.75308    | 0.75308    | 0.75308    |   0.0 |  0.80
Other   |            | 0.2011     |            |       |  0.21

Nlocal:    19652 ave 19652 max 19652 min
Histogram: 1 0 0 0 0 0 0 0 0 0
Nghost:    19549 ave 19549 max 19549 min
Histogram: 1 0 0 0 0 0 0 0 0 0
Neighs:    1.72893e+06 ave 1.72893e+06 max 1.72893e+06 min
Histogram: 1 0 0 0 0 0 0 0 0 0

Total # of neighbors = 1728930
Ave neighs/atom = 87.9773
Neighbor list builds = 495
Dangerous builds not checked
Setting up Verlet run ...
  Unit style    : metal
  Current step  : 73830
  Time step     : 0.001
Per MPI rank memory allocation (min/avg/max) = 19.72 | 19.72 | 19.72 Mbytes
Step Temp Press TotEng PotEng Enthalpy 
   73830    2166.3884   -7.7194751   -54749.466    -60252.29   -54750.838 
   80002    2150.6237    1097.1164   -54816.853   -60279.633   -54622.063 
Loop time of 1155.04 on 1 procs for 6172 steps with 19652 atoms

Performance: 0.462 ns/day, 51.984 hours/ns, 5.344 timesteps/s
99.9% CPU use with 1 MPI tasks x no OpenMP threads

MPI task timing breakdown:
Section |  min time  |  avg time  |  max time  |%varavg| %total
---------------------------------------------------------------
Pair    | 632.25     | 632.25     | 632.25     |   0.0 | 54.74
Neigh   | 504.57     | 504.57     | 504.57     |   0.0 | 43.68
Comm    | 6.9688     | 6.9688     | 6.9688     |   0.0 |  0.60
Output  | 0.00018501 | 0.00018501 | 0.00018501 |   0.0 |  0.00
Modify  | 8.8648     | 8.8648     | 8.8648     |   0.0 |  0.77
Other   |            | 2.384      |            |       |  0.21

Nlocal:    19652 ave 19652 max 19652 min
Histogram: 1 0 0 0 0 0 0 0 0 0
Nghost:    19396 ave 19396 max 19396 min
Histogram: 1 0 0 0 0 0 0 0 0 0
Neighs:    1.73036e+06 ave 1.73036e+06 max 1.73036e+06 min
Histogram: 1 0 0 0 0 0 0 0 0 0

Total # of neighbors = 1730356
Ave neighs/atom = 88.0499
Neighbor list builds = 6172
Dangerous builds not checked
Setting up Verlet run ...
  Unit style    : metal
  Current step  : 80002
  Time step     : 0.001
Per MPI rank memory allocation (min/avg/max) = 19.72 | 19.72 | 19.72 Mbytes
Step Temp Press TotEng PotEng Enthalpy 
   80002    2150.6237    1097.1164   -54816.853   -60279.633   -54622.063 
   80004    2149.8457    1132.9213   -54816.848   -60277.652     -54615.7 
   80497    2103.2581    1866.0651   -54974.821   -60317.288   -54644.346 
Loop time of 90.2958 on 1 procs for 495 steps with 19652 atoms

Performance: 0.474 ns/day, 50.671 hours/ns, 5.482 timesteps/s
99.9% CPU use with 1 MPI tasks x no OpenMP threads

MPI task timing breakdown:
Section |  min time  |  avg time  |  max time  |%varavg| %total
---------------------------------------------------------------
Pair    | 49.491     | 49.491     | 49.491     |   0.0 | 54.81
Neigh   | 39.293     | 39.293     | 39.293     |   0.0 | 43.52
Comm    | 0.5466     | 0.5466     | 0.5466     |   0.0 |  0.61
Output  | 0.066781   | 0.066781   | 0.066781   |   0.0 |  0.07
Modify  | 0.70854    | 0.70854    | 0.70854    |   0.0 |  0.78
Other   |            | 0.1894     |            |       |  0.21

Nlocal:    19652 ave 19652 max 19652 min
Histogram: 1 0 0 0 0 0 0 0 0 0
Nghost:    19540 ave 19540 max 19540 min
Histogram: 1 0 0 0 0 0 0 0 0 0
Neighs:    1.73563e+06 ave 1.73563e+06 max 1.73563e+06 min
Histogram: 1 0 0 0 0 0 0 0 0 0

Total # of neighbors = 1735634
Ave neighs/atom = 88.3184
Neighbor list builds = 495
Dangerous builds not checked
Setting up Verlet run ...
  Unit style    : metal
  Current step  : 80497
  Time step     : 0.001
Per MPI rank memory allocation (min/avg/max) = 19.72 | 19.72 | 19.72 Mbytes
Step Temp Press TotEng PotEng Enthalpy 
   80497    2103.2581    1866.0651   -54974.821   -60317.288   -54644.346 
   86669    2105.4625   -1070.3266   -55097.682   -60445.749   -55287.107 
Loop time of 1174.42 on 1 procs for 6172 steps with 19652 atoms

Performance: 0.454 ns/day, 52.856 hours/ns, 5.255 timesteps/s
99.8% CPU use with 1 MPI tasks x no OpenMP threads

MPI task timing breakdown:
Section |  min time  |  avg time  |  max time  |%varavg| %total
---------------------------------------------------------------
Pair    | 645.21     | 645.21     | 645.21     |   0.0 | 54.94
Neigh   | 510.62     | 510.62     | 510.62     |   0.0 | 43.48
Comm    | 7.1106     | 7.1106     | 7.1106     |   0.0 |  0.61
Output  | 0.00018001 | 0.00018001 | 0.00018001 |   0.0 |  0.00
Modify  | 9.0444     | 9.0444     | 9.0444     |   0.0 |  0.77
Other   |            | 2.435      |            |       |  0.21

Nlocal:    19652 ave 19652 max 19652 min
Histogram: 1 0 0 0 0 0 0 0 0 0
Nghost:    19474 ave 19474 max 19474 min
Histogram: 1 0 0 0 0 0 0 0 0 0
Neighs:    1.73567e+06 ave 1.73567e+06 max 1.73567e+06 min
Histogram: 1 0 0 0 0 0 0 0 0 0

Total # of neighbors = 1735667
Ave neighs/atom = 88.3201
Neighbor list builds = 6172
Dangerous builds not checked
Setting up Verlet run ...
  Unit style    : metal
  Current step  : 86669
  Time step     : 0.001
Per MPI rank memory allocation (min/avg/max) = 19.72 | 19.72 | 19.72 Mbytes
Step Temp Press TotEng PotEng Enthalpy 
   86669    2105.4625   -1070.3266   -55097.682   -60445.749   -55287.107 
   86671    2104.2039   -968.89886   -55097.687   -60442.556   -55269.161 
   87164    2059.4589    28.792223   -55287.322   -60518.535   -55282.244 
Loop time of 88.8788 on 1 procs for 495 steps with 19652 atoms

Performance: 0.481 ns/day, 49.876 hours/ns, 5.569 timesteps/s
99.9% CPU use with 1 MPI tasks x no OpenMP threads

MPI task timing breakdown:
Section |  min time  |  avg time  |  max time  |%varavg| %total
---------------------------------------------------------------
Pair    | 48.814     | 48.814     | 48.814     |   0.0 | 54.92
Neigh   | 38.551     | 38.551     | 38.551     |   0.0 | 43.37
Comm    | 0.54615    | 0.54615    | 0.54615    |   0.0 |  0.61
Output  | 0.065384   | 0.065384   | 0.065384   |   0.0 |  0.07
Modify  | 0.71232    | 0.71232    | 0.71232    |   0.0 |  0.80
Other   |            | 0.1901     |            |       |  0.21

Nlocal:    19652 ave 19652 max 19652 min
Histogram: 1 0 0 0 0 0 0 0 0 0
Nghost:    19536 ave 19536 max 19536 min
Histogram: 1 0 0 0 0 0 0 0 0 0
Neighs:    1.7417e+06 ave 1.7417e+06 max 1.7417e+06 min
Histogram: 1 0 0 0 0 0 0 0 0 0

Total # of neighbors = 1741700
Ave neighs/atom = 88.6271
Neighbor list builds = 495
Dangerous builds not checked
Setting up Verlet run ...
  Unit style    : metal
  Current step  : 87164
  Time step     : 0.001
Per MPI rank memory allocation (min/avg/max) = 19.72 | 19.72 | 19.72 Mbytes
Step Temp Press TotEng PotEng Enthalpy 
   87164    2059.4589    28.792223   -55287.322   -60518.535   -55282.244 
   93336    2048.4016    1481.8672   -55428.251   -60631.377   -55168.066 
Loop time of 1176.65 on 1 procs for 6172 steps with 19652 atoms

Performance: 0.453 ns/day, 52.956 hours/ns, 5.245 timesteps/s
99.9% CPU use with 1 MPI tasks x no OpenMP threads

MPI task timing breakdown:
Section |  min time  |  avg time  |  max time  |%varavg| %total
---------------------------------------------------------------
Pair    | 645.85     | 645.85     | 645.85     |   0.0 | 54.89
Neigh   | 512.24     | 512.24     | 512.24     |   0.0 | 43.53
Comm    | 7.1018     | 7.1018     | 7.1018     |   0.0 |  0.60
Output  | 0.00030804 | 0.00030804 | 0.00030804 |   0.0 |  0.00
Modify  | 9.0231     | 9.0231     | 9.0231     |   0.0 |  0.77
Other   |            | 2.427      |            |       |  0.21

Nlocal:    19652 ave 19652 max 19652 min
Histogram: 1 0 0 0 0 0 0 0 0 0
Nghost:    19602 ave 19602 max 19602 min
Histogram: 1 0 0 0 0 0 0 0 0 0
Neighs:    1.74962e+06 ave 1.74962e+06 max 1.74962e+06 min
Histogram: 1 0 0 0 0 0 0 0 0 0

Total # of neighbors = 1749619
Ave neighs/atom = 89.0301
Neighbor list builds = 6172
Dangerous builds not checked
Setting up Verlet run ...
  Unit style    : metal
  Current step  : 93336
  Time step     : 0.001
Per MPI rank memory allocation (min/avg/max) = 19.72 | 19.72 | 19.72 Mbytes
Step Temp Press TotEng PotEng Enthalpy 
   93336    2048.4016    1481.8672   -55428.251   -60631.377   -55168.066 
   93338    2050.0103     1380.913   -55428.256   -60635.469   -55185.797 
   93831    2014.7668    88.122279   -55618.319    -60736.01   -55602.877 
Loop time of 91.6948 on 1 procs for 495 steps with 19652 atoms

Performance: 0.466 ns/day, 51.456 hours/ns, 5.398 timesteps/s
99.9% CPU use with 1 MPI tasks x no OpenMP threads

MPI task timing breakdown:
Section |  min time  |  avg time  |  max time  |%varavg| %total
---------------------------------------------------------------
Pair    | 50.418     | 50.418     | 50.418     |   0.0 | 54.98
Neigh   | 39.754     | 39.754     | 39.754     |   0.0 | 43.35
Comm    | 0.55665    | 0.55665    | 0.55665    |   0.0 |  0.61
Output  | 0.059751   | 0.059751   | 0.059751   |   0.0 |  0.07
Modify  | 0.71461    | 0.71461    | 0.71461    |   0.0 |  0.78
Other   |            | 0.1927     |            |       |  0.21

Nlocal:    19652 ave 19652 max 19652 min
Histogram: 1 0 0 0 0 0 0 0 0 0
Nghost:    19638 ave 19638 max 19638 min
Histogram: 1 0 0 0 0 0 0 0 0 0
Neighs:    1.75276e+06 ave 1.75276e+06 max 1.75276e+06 min
Histogram: 1 0 0 0 0 0 0 0 0 0

Total # of neighbors = 1752756
Ave neighs/atom = 89.1897
Neighbor list builds = 495
Dangerous builds not checked
Setting up Verlet run ...
  Unit style    : metal
  Current step  : 93831
  Time step     : 0.001
Per MPI rank memory allocation (min/avg/max) = 19.72 | 19.72 | 19.72 Mbytes
Step Temp Press TotEng PotEng Enthalpy 
   93831    2014.7668    88.122279   -55618.319    -60736.01   -55602.877 
  100003    1988.0307   -623.29374   -55707.789   -60757.568   -55817.045 
Loop time of 1123.37 on 1 procs for 6172 steps with 19652 atoms

Performance: 0.475 ns/day, 50.559 hours/ns, 5.494 timesteps/s
99.9% CPU use with 1 MPI tasks x no OpenMP threads

MPI task timing breakdown:
Section |  min time  |  avg time  |  max time  |%varavg| %total
---------------------------------------------------------------
Pair    | 612.36     | 612.36     | 612.36     |   0.0 | 54.51
Neigh   | 493.3      | 493.3      | 493.3      |   0.0 | 43.91
Comm    | 6.7213     | 6.7213     | 6.7213     |   0.0 |  0.60
Output  | 0.00018907 | 0.00018907 | 0.00018907 |   0.0 |  0.00
Modify  | 8.6735     | 8.6735     | 8.6735     |   0.0 |  0.77
Other   |            | 2.323      |            |       |  0.21

Nlocal:    19652 ave 19652 max 19652 min
Histogram: 1 0 0 0 0 0 0 0 0 0
Nghost:    19625 ave 19625 max 19625 min
Histogram: 1 0 0 0 0 0 0 0 0 0
Neighs:    1.75204e+06 ave 1.75204e+06 max 1.75204e+06 min
Histogram: 1 0 0 0 0 0 0 0 0 0

Total # of neighbors = 1752040
Ave neighs/atom = 89.1533
Neighbor list builds = 6172
Dangerous builds not checked
Setting up Verlet run ...
  Unit style    : metal
  Current step  : 100003
  Time step     : 0.001
Per MPI rank memory allocation (min/avg/max) = 19.72 | 19.72 | 19.72 Mbytes
Step Temp Press TotEng PotEng Enthalpy 
  100003    1988.0307   -623.29374   -55707.789   -60757.568   -55817.045 
  100005    1987.8733   -644.17031   -55707.776   -60757.155   -55820.691 
  100498      1955.16   -467.70724   -55915.482   -60881.766   -55997.174 
Loop time of 86.8248 on 1 procs for 495 steps with 19652 atoms

Performance: 0.493 ns/day, 48.723 hours/ns, 5.701 timesteps/s
99.9% CPU use with 1 MPI tasks x no OpenMP threads

MPI task timing breakdown:
Section |  min time  |  avg time  |  max time  |%varavg| %total
---------------------------------------------------------------
Pair    | 47.346     | 47.346     | 47.346     |   0.0 | 54.53
Neigh   | 38.047     | 38.047     | 38.047     |   0.0 | 43.82
Comm    | 0.51389    | 0.51389    | 0.51389    |   0.0 |  0.59
Output  | 0.061856   | 0.061856   | 0.061856   |   0.0 |  0.07
Modify  | 0.67594    | 0.67594    | 0.67594    |   0.0 |  0.78
Other   |            | 0.1801     |            |       |  0.21

Nlocal:    19652 ave 19652 max 19652 min
Histogram: 1 0 0 0 0 0 0 0 0 0
Nghost:    19622 ave 19622 max 19622 min
Histogram: 1 0 0 0 0 0 0 0 0 0
Neighs:    1.75838e+06 ave 1.75838e+06 max 1.75838e+06 min
Histogram: 1 0 0 0 0 0 0 0 0 0

Total # of neighbors = 1758382
Ave neighs/atom = 89.476
Neighbor list builds = 495
Dangerous builds not checked
Setting up Verlet run ...
  Unit style    : metal
  Current step  : 100498
  Time step     : 0.001
Per MPI rank memory allocation (min/avg/max) = 19.72 | 19.72 | 19.72 Mbytes
Step Temp Press TotEng PotEng Enthalpy 
  100498      1955.16   -467.70724   -55915.482   -60881.766   -55997.174 
  106670    1959.9606    2410.5565   -55932.564   -60911.043     -55513.2 
Loop time of 1131.18 on 1 procs for 6172 steps with 19652 atoms

Performance: 0.471 ns/day, 50.910 hours/ns, 5.456 timesteps/s
99.9% CPU use with 1 MPI tasks x no OpenMP threads

MPI task timing breakdown:
Section |  min time  |  avg time  |  max time  |%varavg| %total
---------------------------------------------------------------
Pair    | 617.1      | 617.1      | 617.1      |   0.0 | 54.55
Neigh   | 496.19     | 496.19     | 496.19     |   0.0 | 43.86
Comm    | 6.7393     | 6.7393     | 6.7393     |   0.0 |  0.60
Output  | 0.00020099 | 0.00020099 | 0.00020099 |   0.0 |  0.00
Modify  | 8.8005     | 8.8005     | 8.8005     |   0.0 |  0.78
Other   |            | 2.35       |            |       |  0.21

Nlocal:    19652 ave 19652 max 19652 min
Histogram: 1 0 0 0 0 0 0 0 0 0
Nghost:    19621 ave 19621 max 19621 min
Histogram: 1 0 0 0 0 0 0 0 0 0
Neighs:    1.76544e+06 ave 1.76544e+06 max 1.76544e+06 min
Histogram: 1 0 0 0 0 0 0 0 0 0

Total # of neighbors = 1765436
Ave neighs/atom = 89.8349
Neighbor list builds = 6172
Dangerous builds not checked
Setting up Verlet run ...
  Unit style    : metal
  Current step  : 106670
  Time step     : 0.001
Per MPI rank memory allocation (min/avg/max) = 19.72 | 19.72 | 19.72 Mbytes
Step Temp Press TotEng PotEng Enthalpy 
  106670    1959.9606    2410.5565   -55932.564   -60911.043     -55513.2 
  106672    1960.6037    2387.1961   -55932.576   -60912.688   -55517.276 
  107165    1911.5759     1799.589   -56151.466   -61007.043    -55838.84 
Loop time of 84.2698 on 1 procs for 495 steps with 19652 atoms

Performance: 0.508 ns/day, 47.289 hours/ns, 5.874 timesteps/s
99.7% CPU use with 1 MPI tasks x no OpenMP threads

MPI task timing breakdown:
Section |  min time  |  avg time  |  max time  |%varavg| %total
---------------------------------------------------------------
Pair    | 45.797     | 45.797     | 45.797     |   0.0 | 54.35
Neigh   | 36.834     | 36.834     | 36.834     |   0.0 | 43.71
Comm    | 0.50154    | 0.50154    | 0.50154    |   0.0 |  0.60
Output  | 0.29376    | 0.29376    | 0.29376    |   0.0 |  0.35
Modify  | 0.66535    | 0.66535    | 0.66535    |   0.0 |  0.79
Other   |            | 0.1779     |            |       |  0.21

Nlocal:    19652 ave 19652 max 19652 min
Histogram: 1 0 0 0 0 0 0 0 0 0
Nghost:    19703 ave 19703 max 19703 min
Histogram: 1 0 0 0 0 0 0 0 0 0
Neighs:    1.76787e+06 ave 1.76787e+06 max 1.76787e+06 min
Histogram: 1 0 0 0 0 0 0 0 0 0

Total # of neighbors = 1767872
Ave neighs/atom = 89.9589
Neighbor list builds = 495
Dangerous builds not checked
Setting up Verlet run ...
  Unit style    : metal
  Current step  : 107165
  Time step     : 0.001
Per MPI rank memory allocation (min/avg/max) = 19.72 | 19.72 | 19.72 Mbytes
Step Temp Press TotEng PotEng Enthalpy 
  107165    1911.5759     1799.589   -56151.466   -61007.043    -55838.84 
  113337    1918.4108    1711.6383   -56208.267   -61081.205   -55911.545 
Loop time of 1123.52 on 1 procs for 6172 steps with 19652 atoms

Performance: 0.475 ns/day, 50.565 hours/ns, 5.493 timesteps/s
99.9% CPU use with 1 MPI tasks x no OpenMP threads

MPI task timing breakdown:
Section |  min time  |  avg time  |  max time  |%varavg| %total
---------------------------------------------------------------
Pair    | 614.03     | 614.03     | 614.03     |   0.0 | 54.65
Neigh   | 491.87     | 491.87     | 491.87     |   0.0 | 43.78
Comm    | 6.6449     | 6.6449     | 6.6449     |   0.0 |  0.59
Output  | 0.0001812  | 0.0001812  | 0.0001812  |   0.0 |  0.00
Modify  | 8.6618     | 8.6618     | 8.6618     |   0.0 |  0.77
Other   |            | 2.313      |            |       |  0.21

Nlocal:    19652 ave 19652 max 19652 min
Histogram: 1 0 0 0 0 0 0 0 0 0
Nghost:    19670 ave 19670 max 19670 min
Histogram: 1 0 0 0 0 0 0 0 0 0
Neighs:    1.77123e+06 ave 1.77123e+06 max 1.77123e+06 min
Histogram: 1 0 0 0 0 0 0 0 0 0

Total # of neighbors = 1771226
Ave neighs/atom = 90.1296
Neighbor list builds = 6172
Dangerous builds not checked
Setting up Verlet run ...
  Unit style    : metal
  Current step  : 113337
  Time step     : 0.001
Per MPI rank memory allocation (min/avg/max) = 19.72 | 19.72 | 19.72 Mbytes
Step Temp Press TotEng PotEng Enthalpy 
  113337    1918.4108    1711.6383   -56208.267   -61081.205   -55911.545 
  113339    1918.0188    1750.9319   -56208.284   -61080.226   -55904.751 
  113832    1874.5477    1183.4428   -56426.411   -61187.932   -56221.826 
Loop time of 91.3431 on 1 procs for 495 steps with 19652 atoms

Performance: 0.468 ns/day, 51.259 hours/ns, 5.419 timesteps/s
99.9% CPU use with 1 MPI tasks x no OpenMP threads

MPI task timing breakdown:
Section |  min time  |  avg time  |  max time  |%varavg| %total
---------------------------------------------------------------
Pair    | 50.026     | 50.026     | 50.026     |   0.0 | 54.77
Neigh   | 39.798     | 39.798     | 39.798     |   0.0 | 43.57
Comm    | 0.5405     | 0.5405     | 0.5405     |   0.0 |  0.59
Output  | 0.065945   | 0.065945   | 0.065945   |   0.0 |  0.07
Modify  | 0.71929    | 0.71929    | 0.71929    |   0.0 |  0.79
Other   |            | 0.1936     |            |       |  0.21

Nlocal:    19652 ave 19652 max 19652 min
Histogram: 1 0 0 0 0 0 0 0 0 0
Nghost:    19785 ave 19785 max 19785 min
Histogram: 1 0 0 0 0 0 0 0 0 0
Neighs:    1.77589e+06 ave 1.77589e+06 max 1.77589e+06 min
Histogram: 1 0 0 0 0 0 0 0 0 0

Total # of neighbors = 1775889
Ave neighs/atom = 90.3668
Neighbor list builds = 495
Dangerous builds not checked
Setting up Verlet run ...
  Unit style    : metal
  Current step  : 113832
  Time step     : 0.001
Per MPI rank memory allocation (min/avg/max) = 19.72 | 19.72 | 19.72 Mbytes
Step Temp Press TotEng PotEng Enthalpy 
  113832    1874.5477    1183.4428   -56426.411   -61187.932   -56221.826 
  120004     1862.009     1547.931    -56549.22   -61278.892   -56282.287 
Loop time of 1126.41 on 1 procs for 6172 steps with 19652 atoms

Performance: 0.473 ns/day, 50.695 hours/ns, 5.479 timesteps/s
99.9% CPU use with 1 MPI tasks x no OpenMP threads

MPI task timing breakdown:
Section |  min time  |  avg time  |  max time  |%varavg| %total
---------------------------------------------------------------
Pair    | 616.2      | 616.2      | 616.2      |   0.0 | 54.70
Neigh   | 492.61     | 492.61     | 492.61     |   0.0 | 43.73
Comm    | 6.6517     | 6.6517     | 6.6517     |   0.0 |  0.59
Output  | 0.00019717 | 0.00019717 | 0.00019717 |   0.0 |  0.00
Modify  | 8.6356     | 8.6356     | 8.6356     |   0.0 |  0.77
Other   |            | 2.311      |            |       |  0.21

Nlocal:    19652 ave 19652 max 19652 min
Histogram: 1 0 0 0 0 0 0 0 0 0
Nghost:    19719 ave 19719 max 19719 min
Histogram: 1 0 0 0 0 0 0 0 0 0
Neighs:    1.77963e+06 ave 1.77963e+06 max 1.77963e+06 min
Histogram: 1 0 0 0 0 0 0 0 0 0

Total # of neighbors = 1779631
Ave neighs/atom = 90.5572
Neighbor list builds = 6172
Dangerous builds not checked
Setting up Verlet run ...
  Unit style    : metal
  Current step  : 120004
  Time step     : 0.001
Per MPI rank memory allocation (min/avg/max) = 19.72 | 19.72 | 19.72 Mbytes
Step Temp Press TotEng PotEng Enthalpy 
  120004     1862.009     1547.931    -56549.22   -61278.892   -56282.287 
  120006    1862.2744    1537.7728   -56549.234    -61279.58   -56284.052 
  120499    1811.8694    2185.9626   -56748.763   -61351.077   -56373.109 
Loop time of 87.7603 on 1 procs for 495 steps with 19652 atoms

Performance: 0.487 ns/day, 49.248 hours/ns, 5.640 timesteps/s
99.9% CPU use with 1 MPI tasks x no OpenMP threads

MPI task timing breakdown:
Section |  min time  |  avg time  |  max time  |%varavg| %total
---------------------------------------------------------------
Pair    | 48.022     | 48.022     | 48.022     |   0.0 | 54.72
Neigh   | 38.296     | 38.296     | 38.296     |   0.0 | 43.64
Comm    | 0.51559    | 0.51559    | 0.51559    |   0.0 |  0.59
Output  | 0.065562   | 0.065562   | 0.065562   |   0.0 |  0.07
Modify  | 0.6796     | 0.6796     | 0.6796     |   0.0 |  0.77
Other   |            | 0.1818     |            |       |  0.21

Nlocal:    19652 ave 19652 max 19652 min
Histogram: 1 0 0 0 0 0 0 0 0 0
Nghost:    19833 ave 19833 max 19833 min
Histogram: 1 0 0 0 0 0 0 0 0 0
Neighs:    1.7865e+06 ave 1.7865e+06 max 1.7865e+06 min
Histogram: 1 0 0 0 0 0 0 0 0 0

Total # of neighbors = 1786502
Ave neighs/atom = 90.9069
Neighbor list builds = 495
Dangerous builds not checked
Setting up Verlet run ...
  Unit style    : metal
  Current step  : 120499
  Time step     : 0.001
Per MPI rank memory allocation (min/avg/max) = 19.72 | 19.72 | 19.72 Mbytes
Step Temp Press TotEng PotEng Enthalpy 
  120499    1811.8694    2185.9626   -56748.763   -61351.077   -56373.109 
  126671    1790.4033   -2155.5545   -56852.654   -61400.441   -57224.187 
Loop time of 1118.39 on 1 procs for 6172 steps with 19652 atoms

Performance: 0.477 ns/day, 50.334 hours/ns, 5.519 timesteps/s
99.9% CPU use with 1 MPI tasks x no OpenMP threads

MPI task timing breakdown:
Section |  min time  |  avg time  |  max time  |%varavg| %total
---------------------------------------------------------------
Pair    | 612.95     | 612.95     | 612.95     |   0.0 | 54.81
Neigh   | 487.9      | 487.9      | 487.9      |   0.0 | 43.63
Comm    | 6.6182     | 6.6182     | 6.6182     |   0.0 |  0.59
Output  | 0.00016499 | 0.00016499 | 0.00016499 |   0.0 |  0.00
Modify  | 8.6086     | 8.6086     | 8.6086     |   0.0 |  0.77
Other   |            | 2.311      |            |       |  0.21

Nlocal:    19652 ave 19652 max 19652 min
Histogram: 1 0 0 0 0 0 0 0 0 0
Nghost:    19856 ave 19856 max 19856 min
Histogram: 1 0 0 0 0 0 0 0 0 0
Neighs:    1.7803e+06 ave 1.7803e+06 max 1.7803e+06 min
Histogram: 1 0 0 0 0 0 0 0 0 0

Total # of neighbors = 1780300
Ave neighs/atom = 90.5913
Neighbor list builds = 6172
Dangerous builds not checked
Setting up Verlet run ...
  Unit style    : metal
  Current step  : 126671
  Time step     : 0.001
Per MPI rank memory allocation (min/avg/max) = 19.72 | 19.72 | 19.72 Mbytes
Step Temp Press TotEng PotEng Enthalpy 
  126671    1790.4033   -2155.5545   -56852.654   -61400.441   -57224.187 
  126673    1790.6372   -2166.5337   -56852.646   -61401.027   -57226.071 
  127166    1754.8663   -1714.6973   -57061.578   -61519.099   -57355.934 
Loop time of 88.1058 on 1 procs for 495 steps with 19652 atoms

Performance: 0.485 ns/day, 49.442 hours/ns, 5.618 timesteps/s
98.6% CPU use with 1 MPI tasks x no OpenMP threads

MPI task timing breakdown:
Section |  min time  |  avg time  |  max time  |%varavg| %total
---------------------------------------------------------------
Pair    | 47.844     | 47.844     | 47.844     |   0.0 | 54.30
Neigh   | 37.988     | 37.988     | 37.988     |   0.0 | 43.12
Comm    | 0.51554    | 0.51554    | 0.51554    |   0.0 |  0.59
Output  | 0.88645    | 0.88645    | 0.88645    |   0.0 |  1.01
Modify  | 0.68736    | 0.68736    | 0.68736    |   0.0 |  0.78
Other   |            | 0.1839     |            |       |  0.21

Nlocal:    19652 ave 19652 max 19652 min
Histogram: 1 0 0 0 0 0 0 0 0 0
Nghost:    19807 ave 19807 max 19807 min
Histogram: 1 0 0 0 0 0 0 0 0 0
Neighs:    1.78794e+06 ave 1.78794e+06 max 1.78794e+06 min
Histogram: 1 0 0 0 0 0 0 0 0 0

Total # of neighbors = 1787935
Ave neighs/atom = 90.9798
Neighbor list builds = 495
Dangerous builds not checked
Setting up Verlet run ...
  Unit style    : metal
  Current step  : 127166
  Time step     : 0.001
Per MPI rank memory allocation (min/avg/max) = 19.72 | 19.72 | 19.72 Mbytes
Step Temp Press TotEng PotEng Enthalpy 
  127166    1754.8663   -1714.6973   -57061.578   -61519.099   -57355.934 
  133338    1756.7648    688.70352   -57092.737    -61555.08   -56974.907 
Loop time of 1123.37 on 1 procs for 6172 steps with 19652 atoms

Performance: 0.475 ns/day, 50.559 hours/ns, 5.494 timesteps/s
99.8% CPU use with 1 MPI tasks x no OpenMP threads

MPI task timing breakdown:
Section |  min time  |  avg time  |  max time  |%varavg| %total
---------------------------------------------------------------
Pair    | 616.64     | 616.64     | 616.64     |   0.0 | 54.89
Neigh   | 489.16     | 489.16     | 489.16     |   0.0 | 43.54
Comm    | 6.6327     | 6.6327     | 6.6327     |   0.0 |  0.59
Output  | 0.017193   | 0.017193   | 0.017193   |   0.0 |  0.00
Modify  | 8.6011     | 8.6011     | 8.6011     |   0.0 |  0.77
Other   |            | 2.319      |            |       |  0.21

Nlocal:    19652 ave 19652 max 19652 min
Histogram: 1 0 0 0 0 0 0 0 0 0
Nghost:    19853 ave 19853 max 19853 min
Histogram: 1 0 0 0 0 0 0 0 0 0
Neighs:    1.79439e+06 ave 1.79439e+06 max 1.79439e+06 min
Histogram: 1 0 0 0 0 0 0 0 0 0

Total # of neighbors = 1794392
Ave neighs/atom = 91.3084
Neighbor list builds = 6172
Dangerous builds not checked
Setting up Verlet run ...
  Unit style    : metal
  Current step  : 133338
  Time step     : 0.001
Per MPI rank memory allocation (min/avg/max) = 19.72 | 19.72 | 19.72 Mbytes
Step Temp Press TotEng PotEng Enthalpy 
  133338    1756.7648    688.70352   -57092.737    -61555.08   -56974.907 
  133340    1757.3777     693.0845   -57092.749   -61556.648   -56974.169 
  133833    1720.3933    929.03599   -57344.646   -61714.601   -57186.445 
Loop time of 88.8882 on 1 procs for 495 steps with 19652 atoms

Performance: 0.481 ns/day, 49.881 hours/ns, 5.569 timesteps/s
99.7% CPU use with 1 MPI tasks x no OpenMP threads

MPI task timing breakdown:
Section |  min time  |  avg time  |  max time  |%varavg| %total
---------------------------------------------------------------
Pair    | 48.785     | 48.785     | 48.785     |   0.0 | 54.88
Neigh   | 38.597     | 38.597     | 38.597     |   0.0 | 43.42
Comm    | 0.52898    | 0.52898    | 0.52898    |   0.0 |  0.60
Output  | 0.085243   | 0.085243   | 0.085243   |   0.0 |  0.10
Modify  | 0.70371    | 0.70371    | 0.70371    |   0.0 |  0.79
Other   |            | 0.1879     |            |       |  0.21

Nlocal:    19652 ave 19652 max 19652 min
Histogram: 1 0 0 0 0 0 0 0 0 0
Nghost:    19824 ave 19824 max 19824 min
Histogram: 1 0 0 0 0 0 0 0 0 0
Neighs:    1.80208e+06 ave 1.80208e+06 max 1.80208e+06 min
Histogram: 1 0 0 0 0 0 0 0 0 0

Total # of neighbors = 1802085
Ave neighs/atom = 91.6998
Neighbor list builds = 495
Dangerous builds not checked
Setting up Verlet run ...
  Unit style    : metal
  Current step  : 133833
  Time step     : 0.001
Per MPI rank memory allocation (min/avg/max) = 19.72 | 19.72 | 19.72 Mbytes
Step Temp Press TotEng PotEng Enthalpy 
  133833    1720.3933    929.03599   -57344.646   -61714.601   -57186.445 
  140005    1693.1288   -1056.7843   -57411.057   -61711.758   -57591.366 
Loop time of 1117.3 on 1 procs for 6172 steps with 19652 atoms

Performance: 0.477 ns/day, 50.286 hours/ns, 5.524 timesteps/s
99.9% CPU use with 1 MPI tasks x no OpenMP threads

MPI task timing breakdown:
Section |  min time  |  avg time  |  max time  |%varavg| %total
---------------------------------------------------------------
Pair    | 614.1      | 614.1      | 614.1      |   0.0 | 54.96
Neigh   | 485.77     | 485.77     | 485.77     |   0.0 | 43.48
Comm    | 6.5889     | 6.5889     | 6.5889     |   0.0 |  0.59
Output  | 0.00016904 | 0.00016904 | 0.00016904 |   0.0 |  0.00
Modify  | 8.5574     | 8.5574     | 8.5574     |   0.0 |  0.77
Other   |            | 2.287      |            |       |  0.20

Nlocal:    19652 ave 19652 max 19652 min
Histogram: 1 0 0 0 0 0 0 0 0 0
Nghost:    19853 ave 19853 max 19853 min
Histogram: 1 0 0 0 0 0 0 0 0 0
Neighs:    1.79854e+06 ave 1.79854e+06 max 1.79854e+06 min
Histogram: 1 0 0 0 0 0 0 0 0 0

Total # of neighbors = 1798536
Ave neighs/atom = 91.5192
Neighbor list builds = 6172
Dangerous builds not checked
Setting up Verlet run ...
  Unit style    : metal
  Current step  : 140005
  Time step     : 0.001
Per MPI rank memory allocation (min/avg/max) = 19.72 | 19.72 | 19.72 Mbytes
Step Temp Press TotEng PotEng Enthalpy 
  140005    1693.1288   -1056.7843   -57411.057   -61711.758   -57591.366 
  140007     1693.261   -1075.8537   -57411.052   -61712.089   -57594.615 
  140500    1666.9156   -646.41534   -57653.356   -61887.473   -57763.106 
Loop time of 90.5393 on 1 procs for 495 steps with 19652 atoms

Performance: 0.472 ns/day, 50.808 hours/ns, 5.467 timesteps/s
99.8% CPU use with 1 MPI tasks x no OpenMP threads

MPI task timing breakdown:
Section |  min time  |  avg time  |  max time  |%varavg| %total
---------------------------------------------------------------
Pair    | 49.762     | 49.762     | 49.762     |   0.0 | 54.96
Neigh   | 39.236     | 39.236     | 39.236     |   0.0 | 43.34
Comm    | 0.5344     | 0.5344     | 0.5344     |   0.0 |  0.59
Output  | 0.12024    | 0.12024    | 0.12024    |   0.0 |  0.13
Modify  | 0.69911    | 0.69911    | 0.69911    |   0.0 |  0.77
Other   |            | 0.188      |            |       |  0.21

Nlocal:    19652 ave 19652 max 19652 min
Histogram: 1 0 0 0 0 0 0 0 0 0
Nghost:    19903 ave 19903 max 19903 min
Histogram: 1 0 0 0 0 0 0 0 0 0
Neighs:    1.80709e+06 ave 1.80709e+06 max 1.80709e+06 min
Histogram: 1 0 0 0 0 0 0 0 0 0

Total # of neighbors = 1807092
Ave neighs/atom = 91.9546
Neighbor list builds = 495
Dangerous builds not checked
Setting up Verlet run ...
  Unit style    : metal
  Current step  : 140500
  Time step     : 0.001
Per MPI rank memory allocation (min/avg/max) = 19.72 | 19.72 | 19.72 Mbytes
Step Temp Press TotEng PotEng Enthalpy 
  140500    1666.9156   -646.41534   -57653.356   -61887.473   -57763.106 
  146672    1665.7835    713.14942   -57687.374   -61918.616   -57566.586 
Loop time of 1130.26 on 1 procs for 6172 steps with 19652 atoms

Performance: 0.472 ns/day, 50.868 hours/ns, 5.461 timesteps/s
99.9% CPU use with 1 MPI tasks x no OpenMP threads

MPI task timing breakdown:
Section |  min time  |  avg time  |  max time  |%varavg| %total
---------------------------------------------------------------
Pair    | 621.53     | 621.53     | 621.53     |   0.0 | 54.99
Neigh   | 491.05     | 491.05     | 491.05     |   0.0 | 43.45
Comm    | 6.669      | 6.669      | 6.669      |   0.0 |  0.59
Output  | 0.00016403 | 0.00016403 | 0.00016403 |   0.0 |  0.00
Modify  | 8.6837     | 8.6837     | 8.6837     |   0.0 |  0.77
Other   |            | 2.326      |            |       |  0.21

Nlocal:    19652 ave 19652 max 19652 min
Histogram: 1 0 0 0 0 0 0 0 0 0
Nghost:    19939 ave 19939 max 19939 min
Histogram: 1 0 0 0 0 0 0 0 0 0
Neighs:    1.81154e+06 ave 1.81154e+06 max 1.81154e+06 min
Histogram: 1 0 0 0 0 0 0 0 0 0

Total # of neighbors = 1811536
Ave neighs/atom = 92.1807
Neighbor list builds = 6172
Dangerous builds not checked
Setting up Verlet run ...
  Unit style    : metal
  Current step  : 146672
  Time step     : 0.001
Per MPI rank memory allocation (min/avg/max) = 19.72 | 19.72 | 19.72 Mbytes
Step Temp Press TotEng PotEng Enthalpy 
  146672    1665.7835    713.14942   -57687.374   -61918.616   -57566.586 
  146674    1666.4082     669.2241   -57687.391    -61920.22   -57574.043 
  147167    1613.5354    1485.2072   -57915.735   -62014.261   -57665.036 
Loop time of 85.6665 on 1 procs for 495 steps with 19652 atoms

Performance: 0.499 ns/day, 48.073 hours/ns, 5.778 timesteps/s
99.6% CPU use with 1 MPI tasks x no OpenMP threads

MPI task timing breakdown:
Section |  min time  |  avg time  |  max time  |%varavg| %total
---------------------------------------------------------------
Pair    | 47.199     | 47.199     | 47.199     |   0.0 | 55.10
Neigh   | 37.067     | 37.067     | 37.067     |   0.0 | 43.27
Comm    | 0.5028     | 0.5028     | 0.5028     |   0.0 |  0.59
Output  | 0.04157    | 0.04157    | 0.04157    |   0.0 |  0.05
Modify  | 0.67703    | 0.67703    | 0.67703    |   0.0 |  0.79
Other   |            | 0.1795     |            |       |  0.21

Nlocal:    19652 ave 19652 max 19652 min
Histogram: 1 0 0 0 0 0 0 0 0 0
Nghost:    19942 ave 19942 max 19942 min
Histogram: 1 0 0 0 0 0 0 0 0 0
Neighs:    1.81738e+06 ave 1.81738e+06 max 1.81738e+06 min
Histogram: 1 0 0 0 0 0 0 0 0 0

Total # of neighbors = 1817378
Ave neighs/atom = 92.478
Neighbor list builds = 495
Dangerous builds not checked
Setting up Verlet run ...
  Unit style    : metal
  Current step  : 147167
  Time step     : 0.001
Per MPI rank memory allocation (min/avg/max) = 19.72 | 19.72 | 19.72 Mbytes
Step Temp Press TotEng PotEng Enthalpy 
  147167    1613.5354    1485.2072   -57915.735   -62014.261   -57665.036 
  153339    1589.9824   -1624.5734   -58039.836   -62078.536   -58314.402 
Loop time of 1095.2 on 1 procs for 6172 steps with 19652 atoms

Performance: 0.487 ns/day, 49.291 hours/ns, 5.636 timesteps/s
99.9% CPU use with 1 MPI tasks x no OpenMP threads

MPI task timing breakdown:
Section |  min time  |  avg time  |  max time  |%varavg| %total
---------------------------------------------------------------
Pair    | 604.53     | 604.53     | 604.53     |   0.0 | 55.20
Neigh   | 473.66     | 473.66     | 473.66     |   0.0 | 43.25
Comm    | 6.4091     | 6.4091     | 6.4091     |   0.0 |  0.59
Output  | 0.00018406 | 0.00018406 | 0.00018406 |   0.0 |  0.00
Modify  | 8.3541     | 8.3541     | 8.3541     |   0.0 |  0.76
Other   |            | 2.247      |            |       |  0.21

Nlocal:    19652 ave 19652 max 19652 min
Histogram: 1 0 0 0 0 0 0 0 0 0
Nghost:    19943 ave 19943 max 19943 min
Histogram: 1 0 0 0 0 0 0 0 0 0
Neighs:    1.81502e+06 ave 1.81502e+06 max 1.81502e+06 min
Histogram: 1 0 0 0 0 0 0 0 0 0

Total # of neighbors = 1815020
Ave neighs/atom = 92.358
Neighbor list builds = 6172
Dangerous builds not checked
Setting up Verlet run ...
  Unit style    : metal
  Current step  : 153339
  Time step     : 0.001
Per MPI rank memory allocation (min/avg/max) = 19.72 | 19.72 | 19.72 Mbytes
Step Temp Press TotEng PotEng Enthalpy 
  153339    1589.9824   -1624.5734   -58039.836   -62078.536   -58314.402 
  153341    1589.9652   -1638.1238   -58039.824    -62078.48    -58316.68 
  153834    1552.1747   -745.54288    -58223.31   -62165.976   -58348.892 
Loop time of 86.0534 on 1 procs for 495 steps with 19652 atoms

Performance: 0.497 ns/day, 48.290 hours/ns, 5.752 timesteps/s
99.9% CPU use with 1 MPI tasks x no OpenMP threads

MPI task timing breakdown:
Section |  min time  |  avg time  |  max time  |%varavg| %total
---------------------------------------------------------------
Pair    | 47.388     | 47.388     | 47.388     |   0.0 | 55.07
Neigh   | 37.26      | 37.26      | 37.26      |   0.0 | 43.30
Comm    | 0.50302    | 0.50302    | 0.50302    |   0.0 |  0.58
Output  | 0.067578   | 0.067578   | 0.067578   |   0.0 |  0.08
Modify  | 0.65827    | 0.65827    | 0.65827    |   0.0 |  0.76
Other   |            | 0.1771     |            |       |  0.21

Nlocal:    19652 ave 19652 max 19652 min
Histogram: 1 0 0 0 0 0 0 0 0 0
Nghost:    19940 ave 19940 max 19940 min
Histogram: 1 0 0 0 0 0 0 0 0 0
Neighs:    1.82091e+06 ave 1.82091e+06 max 1.82091e+06 min
Histogram: 1 0 0 0 0 0 0 0 0 0

Total # of neighbors = 1820907
Ave neighs/atom = 92.6576
Neighbor list builds = 495
Dangerous builds not checked
Setting up Verlet run ...
  Unit style    : metal
  Current step  : 153834
  Time step     : 0.001
Per MPI rank memory allocation (min/avg/max) = 19.72 | 19.72 | 19.72 Mbytes
Step Temp Press TotEng PotEng Enthalpy 
  153834    1552.1747   -745.54288    -58223.31   -62165.976   -58348.892 
  160006    1531.3033   -1540.4797   -58366.868   -62256.518   -58625.703 
Loop time of 1263.48 on 1 procs for 6172 steps with 19652 atoms

Performance: 0.422 ns/day, 56.864 hours/ns, 4.885 timesteps/s
96.6% CPU use with 1 MPI tasks x no OpenMP threads

MPI task timing breakdown:
Section |  min time  |  avg time  |  max time  |%varavg| %total
---------------------------------------------------------------
Pair    | 706.42     | 706.42     | 706.42     |   0.0 | 55.91
Neigh   | 537.26     | 537.26     | 537.26     |   0.0 | 42.52
Comm    | 7.6167     | 7.6167     | 7.6167     |   0.0 |  0.60
Output  | 0.00021887 | 0.00021887 | 0.00021887 |   0.0 |  0.00
Modify  | 9.6043     | 9.6043     | 9.6043     |   0.0 |  0.76
Other   |            | 2.583      |            |       |  0.20

Nlocal:    19652 ave 19652 max 19652 min
Histogram: 1 0 0 0 0 0 0 0 0 0
Nghost:    19932 ave 19932 max 19932 min
Histogram: 1 0 0 0 0 0 0 0 0 0
Neighs:    1.82554e+06 ave 1.82554e+06 max 1.82554e+06 min
Histogram: 1 0 0 0 0 0 0 0 0 0

Total # of neighbors = 1825540
Ave neighs/atom = 92.8933
Neighbor list builds = 6172
Dangerous builds not checked
Setting up Verlet run ...
  Unit style    : metal
  Current step  : 160006
  Time step     : 0.001
Per MPI rank memory allocation (min/avg/max) = 19.72 | 19.72 | 19.72 Mbytes
Step Temp Press TotEng PotEng Enthalpy 
  160006    1531.3033   -1540.4797   -58366.868   -62256.518   -58625.703 
  160008    1532.9473   -1608.8879   -58366.852   -62260.678    -58637.18 
  160501    1516.1237   -1466.5652   -58545.828    -62396.92   -58791.561 
Loop time of 109.656 on 1 procs for 495 steps with 19652 atoms

Performance: 0.390 ns/day, 61.536 hours/ns, 4.514 timesteps/s
90.3% CPU use with 1 MPI tasks x no OpenMP threads

MPI task timing breakdown:
Section |  min time  |  avg time  |  max time  |%varavg| %total
---------------------------------------------------------------
Pair    | 61.395     | 61.395     | 61.395     |   0.0 | 55.99
Neigh   | 46.418     | 46.418     | 46.418     |   0.0 | 42.33
Comm    | 0.66782    | 0.66782    | 0.66782    |   0.0 |  0.61
Output  | 0.067964   | 0.067964   | 0.067964   |   0.0 |  0.06
Modify  | 0.87429    | 0.87429    | 0.87429    |   0.0 |  0.80
Other   |            | 0.2326     |            |       |  0.21

Nlocal:    19652 ave 19652 max 19652 min
Histogram: 1 0 0 0 0 0 0 0 0 0
Nghost:    19990 ave 19990 max 19990 min
Histogram: 1 0 0 0 0 0 0 0 0 0
Neighs:    1.83002e+06 ave 1.83002e+06 max 1.83002e+06 min
Histogram: 1 0 0 0 0 0 0 0 0 0

Total # of neighbors = 1830023
Ave neighs/atom = 93.1215
Neighbor list builds = 495
Dangerous builds not checked
Setting up Verlet run ...
  Unit style    : metal
  Current step  : 160501
  Time step     : 0.001
Per MPI rank memory allocation (min/avg/max) = 19.72 | 19.72 | 19.72 Mbytes
Step Temp Press TotEng PotEng Enthalpy 
  160501    1516.1237   -1466.5652   -58545.828    -62396.92   -58791.561 
  166673    1491.6828    499.44919   -58694.613   -62483.624   -58611.303 
Loop time of 1309.57 on 1 procs for 6172 steps with 19652 atoms

Performance: 0.407 ns/day, 58.939 hours/ns, 4.713 timesteps/s
98.6% CPU use with 1 MPI tasks x no OpenMP threads

MPI task timing breakdown:
Section |  min time  |  avg time  |  max time  |%varavg| %total
---------------------------------------------------------------
Pair    | 738.71     | 738.71     | 738.71     |   0.0 | 56.41
Neigh   | 550.09     | 550.09     | 550.09     |   0.0 | 42.01
Comm    | 7.9844     | 7.9844     | 7.9844     |   0.0 |  0.61
Output  | 0.00022101 | 0.00022101 | 0.00022101 |   0.0 |  0.00
Modify  | 10.105     | 10.105     | 10.105     |   0.0 |  0.77
Other   |            | 2.674      |            |       |  0.20

Nlocal:    19652 ave 19652 max 19652 min
Histogram: 1 0 0 0 0 0 0 0 0 0
Nghost:    20045 ave 20045 max 20045 min
Histogram: 1 0 0 0 0 0 0 0 0 0
Neighs:    1.83753e+06 ave 1.83753e+06 max 1.83753e+06 min
Histogram: 1 0 0 0 0 0 0 0 0 0

Total # of neighbors = 1837531
Ave neighs/atom = 93.5035
Neighbor list builds = 6172
Dangerous builds not checked
Setting up Verlet run ...
  Unit style    : metal
  Current step  : 166673
  Time step     : 0.001
Per MPI rank memory allocation (min/avg/max) = 19.72 | 19.72 | 19.72 Mbytes
Step Temp Press TotEng PotEng Enthalpy 
  166673    1491.6828    499.44919   -58694.613   -62483.624   -58611.303 
  166675    1491.3243    503.41968   -58694.607   -62482.707   -58610.635 
  167168     1458.025    552.45306   -58865.749   -62569.266   -58773.839 
Loop time of 96.3224 on 1 procs for 495 steps with 19652 atoms

Performance: 0.444 ns/day, 54.053 hours/ns, 5.139 timesteps/s
100.0% CPU use with 1 MPI tasks x no OpenMP threads

MPI task timing breakdown:
Section |  min time  |  avg time  |  max time  |%varavg| %total
---------------------------------------------------------------
Pair    | 53.446     | 53.446     | 53.446     |   0.0 | 55.49
Neigh   | 41.186     | 41.186     | 41.186     |   0.0 | 42.76
Comm    | 0.59533    | 0.59533    | 0.59533    |   0.0 |  0.62
Output  | 0.071261   | 0.071261   | 0.071261   |   0.0 |  0.07
Modify  | 0.80803    | 0.80803    | 0.80803    |   0.0 |  0.84
Other   |            | 0.2161     |            |       |  0.22

Nlocal:    19652 ave 19652 max 19652 min
Histogram: 1 0 0 0 0 0 0 0 0 0
Nghost:    20008 ave 20008 max 20008 min
Histogram: 1 0 0 0 0 0 0 0 0 0
Neighs:    1.84282e+06 ave 1.84282e+06 max 1.84282e+06 min
Histogram: 1 0 0 0 0 0 0 0 0 0

Total # of neighbors = 1842820
Ave neighs/atom = 93.7726
Neighbor list builds = 495
Dangerous builds not checked
Setting up Verlet run ...
  Unit style    : metal
  Current step  : 167168
  Time step     : 0.001
Per MPI rank memory allocation (min/avg/max) = 19.72 | 19.72 | 19.72 Mbytes
Step Temp Press TotEng PotEng Enthalpy 
  167168     1458.025    552.45306   -58865.749   -62569.266   -58773.839 
  173340    1452.8762   -1876.9262   -58953.788   -62644.226   -59266.235 
Loop time of 1267.08 on 1 procs for 6172 steps with 19652 atoms

Performance: 0.421 ns/day, 57.026 hours/ns, 4.871 timesteps/s
98.9% CPU use with 1 MPI tasks x no OpenMP threads

MPI task timing breakdown:
Section |  min time  |  avg time  |  max time  |%varavg| %total
---------------------------------------------------------------
Pair    | 709.25     | 709.25     | 709.25     |   0.0 | 55.98
Neigh   | 537.65     | 537.65     | 537.65     |   0.0 | 42.43
Comm    | 7.6689     | 7.6689     | 7.6689     |   0.0 |  0.61
Output  | 0.00020695 | 0.00020695 | 0.00020695 |   0.0 |  0.00
Modify  | 9.8564     | 9.8564     | 9.8564     |   0.0 |  0.78
Other   |            | 2.65       |            |       |  0.21

Nlocal:    19652 ave 19652 max 19652 min
Histogram: 1 0 0 0 0 0 0 0 0 0
Nghost:    19995 ave 19995 max 19995 min
Histogram: 1 0 0 0 0 0 0 0 0 0
Neighs:    1.84148e+06 ave 1.84148e+06 max 1.84148e+06 min
Histogram: 1 0 0 0 0 0 0 0 0 0

Total # of neighbors = 1841482
Ave neighs/atom = 93.7046
Neighbor list builds = 6172
Dangerous builds not checked
Setting up Verlet run ...
  Unit style    : metal
  Current step  : 173340
  Time step     : 0.001
Per MPI rank memory allocation (min/avg/max) = 19.72 | 19.72 | 19.72 Mbytes
Step Temp Press TotEng PotEng Enthalpy 
  173340    1452.8762   -1876.9262   -58953.788   -62644.226   -59266.235 
  173342    1451.8958   -1825.4255    -58953.79   -62641.738   -59257.663 
  173835    1414.5484    -792.9641   -59164.819     -62757.9   -59296.327 
Loop time of 106.371 on 1 procs for 495 steps with 19652 atoms

Performance: 0.402 ns/day, 59.692 hours/ns, 4.654 timesteps/s
93.7% CPU use with 1 MPI tasks x no OpenMP threads

MPI task timing breakdown:
Section |  min time  |  avg time  |  max time  |%varavg| %total
---------------------------------------------------------------
Pair    | 59.4       | 59.4       | 59.4       |   0.0 | 55.84
Neigh   | 44.877     | 44.877     | 44.877     |   0.0 | 42.19
Comm    | 0.62765    | 0.62765    | 0.62765    |   0.0 |  0.59
Output  | 0.40054    | 0.40054    | 0.40054    |   0.0 |  0.38
Modify  | 0.82848    | 0.82848    | 0.82848    |   0.0 |  0.78
Other   |            | 0.2371     |            |       |  0.22

Nlocal:    19652 ave 19652 max 19652 min
Histogram: 1 0 0 0 0 0 0 0 0 0
Nghost:    20052 ave 20052 max 20052 min
Histogram: 1 0 0 0 0 0 0 0 0 0
Neighs:    1.848e+06 ave 1.848e+06 max 1.848e+06 min
Histogram: 1 0 0 0 0 0 0 0 0 0

Total # of neighbors = 1847999
Ave neighs/atom = 94.0362
Neighbor list builds = 495
Dangerous builds not checked
Setting up Verlet run ...
  Unit style    : metal
  Current step  : 173835
  Time step     : 0.001
Per MPI rank memory allocation (min/avg/max) = 19.72 | 19.72 | 19.72 Mbytes
Step Temp Press TotEng PotEng Enthalpy 
  173835    1414.5484    -792.9641   -59164.819     -62757.9   -59296.327 
  180007    1394.7323   -2771.5691   -59274.887   -62817.634   -59734.478 
Loop time of 1224.96 on 1 procs for 6172 steps with 19652 atoms

Performance: 0.435 ns/day, 55.131 hours/ns, 5.039 timesteps/s
99.2% CPU use with 1 MPI tasks x no OpenMP threads

MPI task timing breakdown:
Section |  min time  |  avg time  |  max time  |%varavg| %total
---------------------------------------------------------------
Pair    | 688.46     | 688.46     | 688.46     |   0.0 | 56.20
Neigh   | 517.12     | 517.12     | 517.12     |   0.0 | 42.22
Comm    | 7.4486     | 7.4486     | 7.4486     |   0.0 |  0.61
Output  | 0.00024009 | 0.00024009 | 0.00024009 |   0.0 |  0.00
Modify  | 9.3482     | 9.3482     | 9.3482     |   0.0 |  0.76
Other   |            | 2.576      |            |       |  0.21

Nlocal:    19652 ave 19652 max 19652 min
Histogram: 1 0 0 0 0 0 0 0 0 0
Nghost:    20047 ave 20047 max 20047 min
Histogram: 1 0 0 0 0 0 0 0 0 0
Neighs:    1.84796e+06 ave 1.84796e+06 max 1.84796e+06 min
Histogram: 1 0 0 0 0 0 0 0 0 0

Total # of neighbors = 1847959
Ave neighs/atom = 94.0341
Neighbor list builds = 6172
Dangerous builds not checked
Setting up Verlet run ...
  Unit style    : metal
  Current step  : 180007
  Time step     : 0.001
Per MPI rank memory allocation (min/avg/max) = 19.72 | 19.72 | 19.72 Mbytes
Step Temp Press TotEng PotEng Enthalpy 
  180007    1394.7323   -2771.5691   -59274.887   -62817.634   -59734.478 
  180009    1394.1979   -2749.3325   -59274.881   -62816.271   -59730.784 
  180502     1355.989   -1110.9522   -59450.359   -62894.695    -59633.92 
Loop time of 99.2668 on 1 procs for 495 steps with 19652 atoms

Performance: 0.431 ns/day, 55.705 hours/ns, 4.987 timesteps/s
97.0% CPU use with 1 MPI tasks x no OpenMP threads

MPI task timing breakdown:
Section |  min time  |  avg time  |  max time  |%varavg| %total
---------------------------------------------------------------
Pair    | 54.341     | 54.341     | 54.341     |   0.0 | 54.74
Neigh   | 40.544     | 40.544     | 40.544     |   0.0 | 40.84
Comm    | 0.57933    | 0.57933    | 0.57933    |   0.0 |  0.58
Output  | 2.8646     | 2.8646     | 2.8646     |   0.0 |  2.89
Modify  | 0.73555    | 0.73555    | 0.73555    |   0.0 |  0.74
Other   |            | 0.202      |            |       |  0.20

Nlocal:    19652 ave 19652 max 19652 min
Histogram: 1 0 0 0 0 0 0 0 0 0
Nghost:    20045 ave 20045 max 20045 min
Histogram: 1 0 0 0 0 0 0 0 0 0
Neighs:    1.85468e+06 ave 1.85468e+06 max 1.85468e+06 min
Histogram: 1 0 0 0 0 0 0 0 0 0

Total # of neighbors = 1854685
Ave neighs/atom = 94.3764
Neighbor list builds = 495
Dangerous builds not checked
Setting up Verlet run ...
  Unit style    : metal
  Current step  : 180502
  Time step     : 0.001
Per MPI rank memory allocation (min/avg/max) = 19.72 | 19.72 | 19.72 Mbytes
Step Temp Press TotEng PotEng Enthalpy 
  180502     1355.989   -1110.9522   -59450.359   -62894.695    -59633.92 
  186674    1348.1763   -314.27952   -59610.857   -63035.348   -59662.576 
Loop time of 1179.34 on 1 procs for 6172 steps with 19652 atoms

Performance: 0.452 ns/day, 53.078 hours/ns, 5.233 timesteps/s
99.9% CPU use with 1 MPI tasks x no OpenMP threads

MPI task timing breakdown:
Section |  min time  |  avg time  |  max time  |%varavg| %total
---------------------------------------------------------------
Pair    | 666.03     | 666.03     | 666.03     |   0.0 | 56.47
Neigh   | 494.86     | 494.86     | 494.86     |   0.0 | 41.96
Comm    | 7.1011     | 7.1011     | 7.1011     |   0.0 |  0.60
Output  | 0.00021696 | 0.00021696 | 0.00021696 |   0.0 |  0.00
Modify  | 8.9155     | 8.9155     | 8.9155     |   0.0 |  0.76
Other   |            | 2.441      |            |       |  0.21

Nlocal:    19652 ave 19652 max 19652 min
Histogram: 1 0 0 0 0 0 0 0 0 0
Nghost:    20167 ave 20167 max 20167 min
Histogram: 1 0 0 0 0 0 0 0 0 0
Neighs:    1.86207e+06 ave 1.86207e+06 max 1.86207e+06 min
Histogram: 1 0 0 0 0 0 0 0 0 0

Total # of neighbors = 1862072
Ave neighs/atom = 94.7523
Neighbor list builds = 6172
Dangerous builds not checked
Setting up Verlet run ...
  Unit style    : metal
  Current step  : 186674
  Time step     : 0.001
Per MPI rank memory allocation (min/avg/max) = 19.72 | 19.72 | 19.72 Mbytes
Step Temp Press TotEng PotEng Enthalpy 
  186674    1348.1763   -314.27952   -59610.857   -63035.348   -59662.576 
  186676    1347.4467   -281.69351   -59610.852   -63033.489   -59657.209 
  187169    1313.3519     181.2784   -59802.432   -63138.465   -59772.705 
Loop time of 91.4155 on 1 procs for 495 steps with 19652 atoms

Performance: 0.468 ns/day, 51.299 hours/ns, 5.415 timesteps/s
100.0% CPU use with 1 MPI tasks x no OpenMP threads

MPI task timing breakdown:
Section |  min time  |  avg time  |  max time  |%varavg| %total
---------------------------------------------------------------
Pair    | 51.373     | 51.373     | 51.373     |   0.0 | 56.20
Neigh   | 38.496     | 38.496     | 38.496     |   0.0 | 42.11
Comm    | 0.56216    | 0.56216    | 0.56216    |   0.0 |  0.61
Output  | 0.067207   | 0.067207   | 0.067207   |   0.0 |  0.07
Modify  | 0.72163    | 0.72163    | 0.72163    |   0.0 |  0.79
Other   |            | 0.1959     |            |       |  0.21

Nlocal:    19652 ave 19652 max 19652 min
Histogram: 1 0 0 0 0 0 0 0 0 0
Nghost:    20196 ave 20196 max 20196 min
Histogram: 1 0 0 0 0 0 0 0 0 0
Neighs:    1.86833e+06 ave 1.86833e+06 max 1.86833e+06 min
Histogram: 1 0 0 0 0 0 0 0 0 0

Total # of neighbors = 1868334
Ave neighs/atom = 95.0709
Neighbor list builds = 495
Dangerous builds not checked
Setting up Verlet run ...
  Unit style    : metal
  Current step  : 187169
  Time step     : 0.001
Per MPI rank memory allocation (min/avg/max) = 19.72 | 19.72 | 19.72 Mbytes
Step Temp Press TotEng PotEng Enthalpy 
  187169    1313.3519     181.2784   -59802.432   -63138.465   -59772.705 
  193341    1289.0376   -1875.4835   -59955.458   -63229.731   -60262.802 
Loop time of 1175.93 on 1 procs for 6172 steps with 19652 atoms

Performance: 0.453 ns/day, 52.924 hours/ns, 5.249 timesteps/s
100.0% CPU use with 1 MPI tasks x no OpenMP threads

MPI task timing breakdown:
Section |  min time  |  avg time  |  max time  |%varavg| %total
---------------------------------------------------------------
Pair    | 662.13     | 662.13     | 662.13     |   0.0 | 56.31
Neigh   | 495.38     | 495.38     | 495.38     |   0.0 | 42.13
Comm    | 7.0651     | 7.0651     | 7.0651     |   0.0 |  0.60
Output  | 0.000283   | 0.000283   | 0.000283   |   0.0 |  0.00
Modify  | 8.9192     | 8.9192     | 8.9192     |   0.0 |  0.76
Other   |            | 2.437      |            |       |  0.21

Nlocal:    19652 ave 19652 max 19652 min
Histogram: 1 0 0 0 0 0 0 0 0 0
Nghost:    20198 ave 20198 max 20198 min
Histogram: 1 0 0 0 0 0 0 0 0 0
Neighs:    1.86916e+06 ave 1.86916e+06 max 1.86916e+06 min
Histogram: 1 0 0 0 0 0 0 0 0 0

Total # of neighbors = 1869163
Ave neighs/atom = 95.1131
Neighbor list builds = 6172
Dangerous builds not checked
Setting up Verlet run ...
  Unit style    : metal
  Current step  : 193341
  Time step     : 0.001
Per MPI rank memory allocation (min/avg/max) = 19.72 | 19.72 | 19.72 Mbytes
Step Temp Press TotEng PotEng Enthalpy 
  193341    1289.0376   -1875.4835   -59955.458   -63229.731   -60262.802 
  193343    1288.3807   -1819.6189   -59955.446   -63228.051   -60253.635 
  193836    1264.3533   -1251.7696   -60085.761   -63297.333   -60290.424 
Loop time of 93.186 on 1 procs for 495 steps with 19652 atoms

Performance: 0.459 ns/day, 52.293 hours/ns, 5.312 timesteps/s
100.0% CPU use with 1 MPI tasks x no OpenMP threads

MPI task timing breakdown:
Section |  min time  |  avg time  |  max time  |%varavg| %total
---------------------------------------------------------------
Pair    | 52.569     | 52.569     | 52.569     |   0.0 | 56.41
Neigh   | 39.069     | 39.069     | 39.069     |   0.0 | 41.93
Comm    | 0.56432    | 0.56432    | 0.56432    |   0.0 |  0.61
Output  | 0.06631    | 0.06631    | 0.06631    |   0.0 |  0.07
Modify  | 0.72081    | 0.72081    | 0.72081    |   0.0 |  0.77
Other   |            | 0.1961     |            |       |  0.21

Nlocal:    19652 ave 19652 max 19652 min
Histogram: 1 0 0 0 0 0 0 0 0 0
Nghost:    20234 ave 20234 max 20234 min
Histogram: 1 0 0 0 0 0 0 0 0 0
Neighs:    1.87338e+06 ave 1.87338e+06 max 1.87338e+06 min
Histogram: 1 0 0 0 0 0 0 0 0 0

Total # of neighbors = 1873377
Ave neighs/atom = 95.3275
Neighbor list builds = 495
Dangerous builds not checked
Setting up Verlet run ...
  Unit style    : metal
  Current step  : 193836
  Time step     : 0.001
Per MPI rank memory allocation (min/avg/max) = 19.72 | 19.72 | 19.72 Mbytes
Step Temp Press TotEng PotEng Enthalpy 
  193836    1264.3533   -1251.7696   -60085.761   -63297.333   -60290.424 
  200008    1239.3932   -509.65814   -60252.062   -63400.234   -60335.111 
Loop time of 1169.88 on 1 procs for 6172 steps with 19652 atoms

Performance: 0.456 ns/day, 52.652 hours/ns, 5.276 timesteps/s
100.0% CPU use with 1 MPI tasks x no OpenMP threads

MPI task timing breakdown:
Section |  min time  |  avg time  |  max time  |%varavg| %total
---------------------------------------------------------------
Pair    | 660.45     | 660.45     | 660.45     |   0.0 | 56.45
Neigh   | 491.18     | 491.18     | 491.18     |   0.0 | 41.99
Comm    | 7.0156     | 7.0156     | 7.0156     |   0.0 |  0.60
Output  | 0.00022388 | 0.00022388 | 0.00022388 |   0.0 |  0.00
Modify  | 8.8163     | 8.8163     | 8.8163     |   0.0 |  0.75
Other   |            | 2.412      |            |       |  0.21

Nlocal:    19652 ave 19652 max 19652 min
Histogram: 1 0 0 0 0 0 0 0 0 0
Nghost:    20203 ave 20203 max 20203 min
Histogram: 1 0 0 0 0 0 0 0 0 0
Neighs:    1.87908e+06 ave 1.87908e+06 max 1.87908e+06 min
Histogram: 1 0 0 0 0 0 0 0 0 0

Total # of neighbors = 1879085
Ave neighs/atom = 95.618
Neighbor list builds = 6172
Dangerous builds not checked
Setting up Verlet run ...
  Unit style    : metal
  Current step  : 200008
  Time step     : 0.001
Per MPI rank memory allocation (min/avg/max) = 19.72 | 19.72 | 19.72 Mbytes
Step Temp Press TotEng PotEng Enthalpy 
  200008    1239.3932   -509.65814   -60252.062   -63400.234   -60335.111 
  200010    1240.3092   -568.21383   -60252.053   -63402.551   -60344.643 
  200503    1227.8211    38.645145   -60430.472   -63549.249   -60424.198 
Loop time of 93.172 on 1 procs for 495 steps with 19652 atoms

Performance: 0.459 ns/day, 52.285 hours/ns, 5.313 timesteps/s
100.0% CPU use with 1 MPI tasks x no OpenMP threads

MPI task timing breakdown:
Section |  min time  |  avg time  |  max time  |%varavg| %total
---------------------------------------------------------------
Pair    | 52.892     | 52.892     | 52.892     |   0.0 | 56.77
Neigh   | 38.775     | 38.775     | 38.775     |   0.0 | 41.62
Comm    | 0.55983    | 0.55983    | 0.55983    |   0.0 |  0.60
Output  | 0.042332   | 0.042332   | 0.042332   |   0.0 |  0.05
Modify  | 0.70938    | 0.70938    | 0.70938    |   0.0 |  0.76
Other   |            | 0.1933     |            |       |  0.21

Nlocal:    19652 ave 19652 max 19652 min
Histogram: 1 0 0 0 0 0 0 0 0 0
Nghost:    20204 ave 20204 max 20204 min
Histogram: 1 0 0 0 0 0 0 0 0 0
Neighs:    1.88593e+06 ave 1.88593e+06 max 1.88593e+06 min
Histogram: 1 0 0 0 0 0 0 0 0 0

Total # of neighbors = 1885926
Ave neighs/atom = 95.9661
Neighbor list builds = 495
Dangerous builds not checked
Setting up Verlet run ...
  Unit style    : metal
  Current step  : 200503
  Time step     : 0.001
Per MPI rank memory allocation (min/avg/max) = 19.72 | 19.72 | 19.72 Mbytes
Step Temp Press TotEng PotEng Enthalpy 
  200503    1227.8211    38.645145   -60430.472   -63549.249   -60424.198 
  206675    1189.8157   -884.85598   -60575.792   -63598.032   -60719.225 
Loop time of 1183.65 on 1 procs for 6172 steps with 19652 atoms

Performance: 0.451 ns/day, 53.271 hours/ns, 5.214 timesteps/s
100.0% CPU use with 1 MPI tasks x no OpenMP threads

MPI task timing breakdown:
Section |  min time  |  avg time  |  max time  |%varavg| %total
---------------------------------------------------------------
Pair    | 665.7      | 665.7      | 665.7      |   0.0 | 56.24
Neigh   | 499.46     | 499.46     | 499.46     |   0.0 | 42.20
Comm    | 7.107      | 7.107      | 7.107      |   0.0 |  0.60
Output  | 0.00018406 | 0.00018406 | 0.00018406 |   0.0 |  0.00
Modify  | 8.9326     | 8.9326     | 8.9326     |   0.0 |  0.75
Other   |            | 2.443      |            |       |  0.21

Nlocal:    19652 ave 19652 max 19652 min
Histogram: 1 0 0 0 0 0 0 0 0 0
Nghost:    20308 ave 20308 max 20308 min
Histogram: 1 0 0 0 0 0 0 0 0 0
Neighs:    1.88844e+06 ave 1.88844e+06 max 1.88844e+06 min
Histogram: 1 0 0 0 0 0 0 0 0 0

Total # of neighbors = 1888436
Ave neighs/atom = 96.0938
Neighbor list builds = 6172
Dangerous builds not checked
Setting up Verlet run ...
  Unit style    : metal
  Current step  : 206675
  Time step     : 0.001
[...]
99.8% CPU use with 1 MPI tasks x no OpenMP threads

MPI task timing breakdown:
Section |  min time  |  avg time  |  max time  |%varavg| %total
---------------------------------------------------------------
Pair    | 58.726     | 58.726     | 58.726     |   0.0 | 55.06
Neigh   | 46.218     | 46.218     | 46.218     |   0.0 | 43.34
Comm    | 0.62242    | 0.62242    | 0.62242    |   0.0 |  0.58
Output  | 0.067455   | 0.067455   | 0.067455   |   0.0 |  0.06
Modify  | 0.795      | 0.795      | 0.795      |   0.0 |  0.75
Other   |            | 0.222      |            |       |  0.21

Nlocal:    19652 ave 19652 max 19652 min
Histogram: 1 0 0 0 0 0 0 0 0 0
Nghost:    20959 ave 20959 max 20959 min
Histogram: 1 0 0 0 0 0 0 0 0 0
Neighs:    2.03522e+06 ave 2.03522e+06 max 2.03522e+06 min
Histogram: 1 0 0 0 0 0 0 0 0 0

Total # of neighbors = 2035224
Ave neighs/atom = 103.563
Neighbor list builds = 495
Dangerous builds not checked
Setting up Verlet run ...
  Unit style    : metal
  Current step  : 307175
  Time step     : 0.001
Per MPI rank memory allocation (min/avg/max) = 19.73 | 19.73 | 19.73 Mbytes
Step Temp Press TotEng PotEng Enthalpy 
  307175    419.23593   -727.90207   -65832.225   -66897.122   -65941.434 
  313347     397.1008   -689.38763    -65963.22   -66971.892   -66066.474 
Loop time of 1306.9 on 1 procs for 6172 steps with 19652 atoms

Performance: 0.408 ns/day, 58.819 hours/ns, 4.723 timesteps/s
99.7% CPU use with 1 MPI tasks x no OpenMP threads

MPI task timing breakdown:
Section |  min time  |  avg time  |  max time  |%varavg| %total
---------------------------------------------------------------
Pair    | 719.66     | 719.66     | 719.66     |   0.0 | 55.07
Neigh   | 567.69     | 567.69     | 567.69     |   0.0 | 43.44
Comm    | 7.4061     | 7.4061     | 7.4061     |   0.0 |  0.57
Output  | 0.00029397 | 0.00029397 | 0.00029397 |   0.0 |  0.00
Modify  | 9.5437     | 9.5437     | 9.5437     |   0.0 |  0.73
Other   |            | 2.609      |            |       |  0.20

Nlocal:    19652 ave 19652 max 19652 min
Histogram: 1 0 0 0 0 0 0 0 0 0
Nghost:    21004 ave 21004 max 21004 min
Histogram: 1 0 0 0 0 0 0 0 0 0
Neighs:    2.03918e+06 ave 2.03918e+06 max 2.03918e+06 min
Histogram: 1 0 0 0 0 0 0 0 0 0

Total # of neighbors = 2039182
Ave neighs/atom = 103.765
Neighbor list builds = 6172
Dangerous builds not checked
Setting up Verlet run ...
  Unit style    : metal
  Current step  : 313347
  Time step     : 0.001
Per MPI rank memory allocation (min/avg/max) = 19.73 | 19.73 | 19.73 Mbytes
Step Temp Press TotEng PotEng Enthalpy 
  313347     397.1008   -689.38763    -65963.22   -66971.892   -66066.474 
  313349    397.29454   -692.17527   -65963.217   -66972.382   -66066.889 
  313842    371.28489   -207.14951    -66117.09   -67060.188   -66148.047 
Loop time of 104.583 on 1 procs for 495 steps with 19652 atoms

Performance: 0.409 ns/day, 58.689 hours/ns, 4.733 timesteps/s
99.8% CPU use with 1 MPI tasks x no OpenMP threads

MPI task timing breakdown:
Section |  min time  |  avg time  |  max time  |%varavg| %total
---------------------------------------------------------------
Pair    | 57.432     | 57.432     | 57.432     |   0.0 | 54.92
Neigh   | 45.517     | 45.517     | 45.517     |   0.0 | 43.52
Comm    | 0.59073    | 0.59073    | 0.59073    |   0.0 |  0.56
Output  | 0.066434   | 0.066434   | 0.066434   |   0.0 |  0.06
Modify  | 0.76769    | 0.76769    | 0.76769    |   0.0 |  0.73
Other   |            | 0.2096     |            |       |  0.20

Nlocal:    19652 ave 19652 max 19652 min
Histogram: 1 0 0 0 0 0 0 0 0 0
Nghost:    21029 ave 21029 max 21029 min
Histogram: 1 0 0 0 0 0 0 0 0 0
Neighs:    2.0442e+06 ave 2.0442e+06 max 2.0442e+06 min
Histogram: 1 0 0 0 0 0 0 0 0 0

Total # of neighbors = 2044200
Ave neighs/atom = 104.02
Neighbor list builds = 495
Dangerous builds not checked
Setting up Verlet run ...
  Unit style    : metal
  Current step  : 313842
  Time step     : 0.001
Per MPI rank memory allocation (min/avg/max) = 19.73 | 19.73 | 19.73 Mbytes
Step Temp Press TotEng PotEng Enthalpy 
  313842    371.28489   -207.14951    -66117.09   -67060.188   -66148.047 
  320014    351.47387    1299.7567   -66253.525     -67146.3   -66059.806 
Loop time of 1294.04 on 1 procs for 6172 steps with 19652 atoms

Performance: 0.412 ns/day, 58.240 hours/ns, 4.770 timesteps/s
99.8% CPU use with 1 MPI tasks x no OpenMP threads

MPI task timing breakdown:
Section |  min time  |  avg time  |  max time  |%varavg| %total
---------------------------------------------------------------
Pair    | 710.27     | 710.27     | 710.27     |   0.0 | 54.89
Neigh   | 564.39     | 564.39     | 564.39     |   0.0 | 43.61
Comm    | 7.3178     | 7.3178     | 7.3178     |   0.0 |  0.57
Output  | 0.000175   | 0.000175   | 0.000175   |   0.0 |  0.00
Modify  | 9.4703     | 9.4703     | 9.4703     |   0.0 |  0.73
Other   |            | 2.59       |            |       |  0.20

Nlocal:    19652 ave 19652 max 19652 min
Histogram: 1 0 0 0 0 0 0 0 0 0
Nghost:    21056 ave 21056 max 21056 min
Histogram: 1 0 0 0 0 0 0 0 0 0
Neighs:    2.05075e+06 ave 2.05075e+06 max 2.05075e+06 min
Histogram: 1 0 0 0 0 0 0 0 0 0

Total # of neighbors = 2050752
Ave neighs/atom = 104.353
Neighbor list builds = 6172
Dangerous builds not checked
Setting up Verlet run ...
  Unit style    : metal
  Current step  : 320014
  Time step     : 0.001
Per MPI rank memory allocation (min/avg/max) = 19.73 | 19.73 | 19.73 Mbytes
Step Temp Press TotEng PotEng Enthalpy 
  320014    351.47387    1299.7567   -66253.525     -67146.3   -66059.806 
  320016    351.48899    1287.7303   -66253.527   -67146.341     -66061.6 
  320509    324.72405   -764.80398   -66404.251    -67229.08   -66518.216 
Loop time of 103.258 on 1 procs for 495 steps with 19652 atoms

Performance: 0.414 ns/day, 57.945 hours/ns, 4.794 timesteps/s
99.6% CPU use with 1 MPI tasks x no OpenMP threads

MPI task timing breakdown:
Section |  min time  |  avg time  |  max time  |%varavg| %total
---------------------------------------------------------------
Pair    | 56.594     | 56.594     | 56.594     |   0.0 | 54.81
Neigh   | 45.045     | 45.045     | 45.045     |   0.0 | 43.62
Comm    | 0.58863    | 0.58863    | 0.58863    |   0.0 |  0.57
Output  | 0.065209   | 0.065209   | 0.065209   |   0.0 |  0.06
Modify  | 0.75751    | 0.75751    | 0.75751    |   0.0 |  0.73
Other   |            | 0.2082     |            |       |  0.20

Nlocal:    19652 ave 19652 max 19652 min
Histogram: 1 0 0 0 0 0 0 0 0 0
Nghost:    21028 ave 21028 max 21028 min
Histogram: 1 0 0 0 0 0 0 0 0 0
Neighs:    2.05108e+06 ave 2.05108e+06 max 2.05108e+06 min
Histogram: 1 0 0 0 0 0 0 0 0 0

Total # of neighbors = 2051079
Ave neighs/atom = 104.37
Neighbor list builds = 495
Dangerous builds not checked
Setting up Verlet run ...
  Unit style    : metal
  Current step  : 320509
  Time step     : 0.001
Per MPI rank memory allocation (min/avg/max) = 19.73 | 19.73 | 19.73 Mbytes
Step Temp Press TotEng PotEng Enthalpy 
  320509    324.72405   -764.80398   -66404.251    -67229.08   -66518.216 
  326681    299.28758   -51.970941   -66546.375   -67306.593   -66554.102 
Loop time of 1288.82 on 1 procs for 6172 steps with 19652 atoms

Performance: 0.414 ns/day, 58.005 hours/ns, 4.789 timesteps/s
99.8% CPU use with 1 MPI tasks x no OpenMP threads

MPI task timing breakdown:
Section |  min time  |  avg time  |  max time  |%varavg| %total
---------------------------------------------------------------
Pair    | 710.28     | 710.28     | 710.28     |   0.0 | 55.11
Neigh   | 559.21     | 559.21     | 559.21     |   0.0 | 43.39
Comm    | 7.3218     | 7.3218     | 7.3218     |   0.0 |  0.57
Output  | 0.013684   | 0.013684   | 0.013684   |   0.0 |  0.00
Modify  | 9.407      | 9.407      | 9.407      |   0.0 |  0.73
Other   |            | 2.585      |            |       |  0.20

Nlocal:    19652 ave 19652 max 19652 min
Histogram: 1 0 0 0 0 0 0 0 0 0
Nghost:    21132 ave 21132 max 21132 min
Histogram: 1 0 0 0 0 0 0 0 0 0
Neighs:    2.05586e+06 ave 2.05586e+06 max 2.05586e+06 min
Histogram: 1 0 0 0 0 0 0 0 0 0

Total # of neighbors = 2055860
Ave neighs/atom = 104.613
Neighbor list builds = 6172
Dangerous builds not checked
Setting up Verlet run ...
  Unit style    : metal
  Current step  : 326681
  Time step     : 0.001
Per MPI rank memory allocation (min/avg/max) = 19.73 | 19.73 | 19.73 Mbytes
Step Temp Press TotEng PotEng Enthalpy 
  326681    299.28758   -51.970941   -66546.375   -67306.593   -66554.102 
  326683    299.16318   -39.174501   -66546.375   -67306.276   -66552.199 
  327176    273.16657   -179.24153   -66683.146   -67377.014   -66709.758 
Loop time of 104.131 on 1 procs for 495 steps with 19652 atoms

Performance: 0.411 ns/day, 58.435 hours/ns, 4.754 timesteps/s
99.9% CPU use with 1 MPI tasks x no OpenMP threads

MPI task timing breakdown:
Section |  min time  |  avg time  |  max time  |%varavg| %total
---------------------------------------------------------------
Pair    | 57.533     | 57.533     | 57.533     |   0.0 | 55.25
Neigh   | 44.959     | 44.959     | 44.959     |   0.0 | 43.18
Comm    | 0.59524    | 0.59524    | 0.59524    |   0.0 |  0.57
Output  | 0.067131   | 0.067131   | 0.067131   |   0.0 |  0.06
Modify  | 0.76445    | 0.76445    | 0.76445    |   0.0 |  0.73
Other   |            | 0.2121     |            |       |  0.20

Nlocal:    19652 ave 19652 max 19652 min
Histogram: 1 0 0 0 0 0 0 0 0 0
Nghost:    21104 ave 21104 max 21104 min
Histogram: 1 0 0 0 0 0 0 0 0 0
Neighs:    2.06003e+06 ave 2.06003e+06 max 2.06003e+06 min
Histogram: 1 0 0 0 0 0 0 0 0 0

Total # of neighbors = 2060033
Ave neighs/atom = 104.826
Neighbor list builds = 495
Dangerous builds not checked
Setting up Verlet run ...
  Unit style    : metal
  Current step  : 327176
  Time step     : 0.001
Per MPI rank memory allocation (min/avg/max) = 19.73 | 19.73 | 19.73 Mbytes
Step Temp Press TotEng PotEng Enthalpy 
  327176    273.16657   -179.24153   -66683.146   -67377.014   -66709.758 
  333348    249.05545   -900.01873   -66817.864   -67450.488    -66951.37 
Loop time of 1337.09 on 1 procs for 6172 steps with 19652 atoms

Performance: 0.399 ns/day, 60.177 hours/ns, 4.616 timesteps/s
99.7% CPU use with 1 MPI tasks x no OpenMP threads

MPI task timing breakdown:
Section |  min time  |  avg time  |  max time  |%varavg| %total
---------------------------------------------------------------
Pair    | 742.14     | 742.14     | 742.14     |   0.0 | 55.50
Neigh   | 574.32     | 574.32     | 574.32     |   0.0 | 42.95
Comm    | 7.9202     | 7.9202     | 7.9202     |   0.0 |  0.59
Output  | 0.00033021 | 0.00033021 | 0.00033021 |   0.0 |  0.00
Modify  | 9.9272     | 9.9272     | 9.9272     |   0.0 |  0.74
Other   |            | 2.78       |            |       |  0.21

Nlocal:    19652 ave 19652 max 19652 min
Histogram: 1 0 0 0 0 0 0 0 0 0
Nghost:    21105 ave 21105 max 21105 min
Histogram: 1 0 0 0 0 0 0 0 0 0
Neighs:    2.06158e+06 ave 2.06158e+06 max 2.06158e+06 min
Histogram: 1 0 0 0 0 0 0 0 0 0

Total # of neighbors = 2061576
Ave neighs/atom = 104.904
Neighbor list builds = 6172
Dangerous builds not checked
Setting up Verlet run ...
  Unit style    : metal
  Current step  : 333348
  Time step     : 0.001
Per MPI rank memory allocation (min/avg/max) = 19.73 | 19.73 | 19.73 Mbytes
Step Temp Press TotEng PotEng Enthalpy 
  333348    249.05545   -900.01873   -66817.864   -67450.488    -66951.37 
  333350    249.00097   -892.88472   -66817.864   -67450.349   -66950.311 
  333843    225.86877   -500.08512   -66953.214   -67526.941   -67027.247 
Loop time of 106.364 on 1 procs for 495 steps with 19652 atoms

Performance: 0.402 ns/day, 59.688 hours/ns, 4.654 timesteps/s
99.8% CPU use with 1 MPI tasks x no OpenMP threads

MPI task timing breakdown:
Section |  min time  |  avg time  |  max time  |%varavg| %total
---------------------------------------------------------------
Pair    | 58.876     | 58.876     | 58.876     |   0.0 | 55.35
Neigh   | 45.811     | 45.811     | 45.811     |   0.0 | 43.07
Comm    | 0.62053    | 0.62053    | 0.62053    |   0.0 |  0.58
Output  | 0.061201   | 0.061201   | 0.061201   |   0.0 |  0.06
Modify  | 0.77442    | 0.77442    | 0.77442    |   0.0 |  0.73
Other   |            | 0.2207     |            |       |  0.21

Nlocal:    19652 ave 19652 max 19652 min
Histogram: 1 0 0 0 0 0 0 0 0 0
Nghost:    21110 ave 21110 max 21110 min
Histogram: 1 0 0 0 0 0 0 0 0 0
Neighs:    2.06675e+06 ave 2.06675e+06 max 2.06675e+06 min
Histogram: 1 0 0 0 0 0 0 0 0 0

Total # of neighbors = 2066750
Ave neighs/atom = 105.167
Neighbor list builds = 495
Dangerous builds not checked
Setting up Verlet run ...
  Unit style    : metal
  Current step  : 333843
  Time step     : 0.001
Per MPI rank memory allocation (min/avg/max) = 19.73 | 19.73 | 19.73 Mbytes
Step Temp Press TotEng PotEng Enthalpy 
  333843    225.86877   -500.08512   -66953.214   -67526.941   -67027.247 
  340015    199.28606     30.82272   -67094.724   -67600.929   -67090.169 
Loop time of 1365.44 on 1 procs for 6172 steps with 19652 atoms

Performance: 0.391 ns/day, 61.453 hours/ns, 4.520 timesteps/s
99.5% CPU use with 1 MPI tasks x no OpenMP threads

MPI task timing breakdown:
Section |  min time  |  avg time  |  max time  |%varavg| %total
---------------------------------------------------------------
Pair    | 760.59     | 760.59     | 760.59     |   0.0 | 55.70
Neigh   | 583.58     | 583.58     | 583.58     |   0.0 | 42.74
Comm    | 8.2011     | 8.2011     | 8.2011     |   0.0 |  0.60
Output  | 0.00022602 | 0.00022602 | 0.00022602 |   0.0 |  0.00
Modify  | 10.206     | 10.206     | 10.206     |   0.0 |  0.75
Other   |            | 2.858      |            |       |  0.21

Nlocal:    19652 ave 19652 max 19652 min
Histogram: 1 0 0 0 0 0 0 0 0 0
Nghost:    21189 ave 21189 max 21189 min
Histogram: 1 0 0 0 0 0 0 0 0 0
Neighs:    2.07122e+06 ave 2.07122e+06 max 2.07122e+06 min
Histogram: 1 0 0 0 0 0 0 0 0 0

Total # of neighbors = 2071216
Ave neighs/atom = 105.395
Neighbor list builds = 6172
Dangerous builds not checked
Setting up Verlet run ...
  Unit style    : metal
  Current step  : 340015
  Time step     : 0.001
Per MPI rank memory allocation (min/avg/max) = 19.73 | 19.73 | 19.73 Mbytes
Step Temp Press TotEng PotEng Enthalpy 
  340015    199.28606     30.82272   -67094.724   -67600.929   -67090.169 
  340017    199.25882    25.647121   -67094.724   -67600.859   -67090.934 
  340510    176.27371    121.34861   -67219.264   -67667.015   -67201.358 
Loop time of 106.15 on 1 procs for 495 steps with 19652 atoms

Performance: 0.403 ns/day, 59.568 hours/ns, 4.663 timesteps/s
99.0% CPU use with 1 MPI tasks x no OpenMP threads

MPI task timing breakdown:
Section |  min time  |  avg time  |  max time  |%varavg| %total
---------------------------------------------------------------
Pair    | 58.536     | 58.536     | 58.536     |   0.0 | 55.14
Neigh   | 45.946     | 45.946     | 45.946     |   0.0 | 43.28
Comm    | 0.6025     | 0.6025     | 0.6025     |   0.0 |  0.57
Output  | 0.064812   | 0.064812   | 0.064812   |   0.0 |  0.06
Modify  | 0.78775    | 0.78775    | 0.78775    |   0.0 |  0.74
Other   |            | 0.2138     |            |       |  0.20

Nlocal:    19652 ave 19652 max 19652 min
Histogram: 1 0 0 0 0 0 0 0 0 0
Nghost:    21134 ave 21134 max 21134 min
Histogram: 1 0 0 0 0 0 0 0 0 0
Neighs:    2.07493e+06 ave 2.07493e+06 max 2.07493e+06 min
Histogram: 1 0 0 0 0 0 0 0 0 0

Total # of neighbors = 2074931
Ave neighs/atom = 105.584
Neighbor list builds = 495
Dangerous builds not checked
Setting up Verlet run ...
  Unit style    : metal
  Current step  : 340510
  Time step     : 0.001
Per MPI rank memory allocation (min/avg/max) = 19.73 | 19.73 | 19.73 Mbytes
Step Temp Press TotEng PotEng Enthalpy 
  340510    176.27371    121.34861   -67219.264   -67667.015   -67201.358 
  346682    149.70817    -527.8266   -67358.071   -67738.343   -67435.885 
Loop time of 1341.47 on 1 procs for 6172 steps with 19652 atoms

Performance: 0.398 ns/day, 60.374 hours/ns, 4.601 timesteps/s
99.5% CPU use with 1 MPI tasks x no OpenMP threads

MPI task timing breakdown:
Section |  min time  |  avg time  |  max time  |%varavg| %total
---------------------------------------------------------------
Pair    | 746.71     | 746.71     | 746.71     |   0.0 | 55.66
Neigh   | 573.91     | 573.91     | 573.91     |   0.0 | 42.78
Comm    | 8.0193     | 8.0193     | 8.0193     |   0.0 |  0.60
Output  | 0.00017905 | 0.00017905 | 0.00017905 |   0.0 |  0.00
Modify  | 10.063     | 10.063     | 10.063     |   0.0 |  0.75
Other   |            | 2.768      |            |       |  0.21

Nlocal:    19652 ave 19652 max 19652 min
Histogram: 1 0 0 0 0 0 0 0 0 0
Nghost:    21138 ave 21138 max 21138 min
Histogram: 1 0 0 0 0 0 0 0 0 0
Neighs:    2.07731e+06 ave 2.07731e+06 max 2.07731e+06 min
Histogram: 1 0 0 0 0 0 0 0 0 0

Total # of neighbors = 2077311
Ave neighs/atom = 105.705
Neighbor list builds = 6172
Dangerous builds not checked
Setting up Verlet run ...
  Unit style    : metal
  Current step  : 346682
  Time step     : 0.001
Per MPI rank memory allocation (min/avg/max) = 19.73 | 19.73 | 19.73 Mbytes
Step Temp Press TotEng PotEng Enthalpy 
  346682    149.70817    -527.8266   -67358.071   -67738.343   -67435.885 
  346684    149.59257   -521.90395   -67358.071   -67738.049   -67435.012 
  347177    127.39093    31.161043   -67476.915     -67800.5   -67472.329 
Loop time of 105.133 on 1 procs for 495 steps with 19652 atoms

Performance: 0.407 ns/day, 58.997 hours/ns, 4.708 timesteps/s
99.9% CPU use with 1 MPI tasks x no OpenMP threads

MPI task timing breakdown:
Section |  min time  |  avg time  |  max time  |%varavg| %total
---------------------------------------------------------------
Pair    | 58.618     | 58.618     | 58.618     |   0.0 | 55.76
Neigh   | 44.827     | 44.827     | 44.827     |   0.0 | 42.64
Comm    | 0.6269     | 0.6269     | 0.6269     |   0.0 |  0.60
Output  | 0.052001   | 0.052001   | 0.052001   |   0.0 |  0.05
Modify  | 0.79166    | 0.79166    | 0.79166    |   0.0 |  0.75
Other   |            | 0.2178     |            |       |  0.21

Nlocal:    19652 ave 19652 max 19652 min
Histogram: 1 0 0 0 0 0 0 0 0 0
Nghost:    21189 ave 21189 max 21189 min
Histogram: 1 0 0 0 0 0 0 0 0 0
Neighs:    2.08085e+06 ave 2.08085e+06 max 2.08085e+06 min
Histogram: 1 0 0 0 0 0 0 0 0 0

Total # of neighbors = 2080854
Ave neighs/atom = 105.885
Neighbor list builds = 495
Dangerous builds not checked
Setting up Verlet run ...
  Unit style    : metal
  Current step  : 347177
  Time step     : 0.001
Per MPI rank memory allocation (min/avg/max) = 19.73 | 19.73 | 19.73 Mbytes
Step Temp Press TotEng PotEng Enthalpy 
  347177    127.39093    31.161043   -67476.915     -67800.5   -67472.329 
  353349    99.946921   -294.31673   -67620.122   -67873.997   -67663.385 
Loop time of 1345.03 on 1 procs for 6172 steps with 19652 atoms

Performance: 0.396 ns/day, 60.534 hours/ns, 4.589 timesteps/s
99.5% CPU use with 1 MPI tasks x no OpenMP threads

MPI task timing breakdown:
Section |  min time  |  avg time  |  max time  |%varavg| %total
---------------------------------------------------------------
Pair    | 750.78     | 750.78     | 750.78     |   0.0 | 55.82
Neigh   | 573.08     | 573.08     | 573.08     |   0.0 | 42.61
Comm    | 8.1481     | 8.1481     | 8.1481     |   0.0 |  0.61
Output  | 0.00020695 | 0.00020695 | 0.00020695 |   0.0 |  0.00
Modify  | 10.201     | 10.201     | 10.201     |   0.0 |  0.76
Other   |            | 2.817      |            |       |  0.21

Nlocal:    19652 ave 19652 max 19652 min
Histogram: 1 0 0 0 0 0 0 0 0 0
Nghost:    21170 ave 21170 max 21170 min
Histogram: 1 0 0 0 0 0 0 0 0 0
Neighs:    2.08456e+06 ave 2.08456e+06 max 2.08456e+06 min
Histogram: 1 0 0 0 0 0 0 0 0 0

Total # of neighbors = 2084557
Ave neighs/atom = 106.074
Neighbor list builds = 6172
Dangerous builds not checked
Total wall time: 19:28:32
