LAMMPS (12 Dec 2018)
Lattice spacing in x,y,z = 4 4 4
Created orthogonal box = (0 0 0) to (68 68 68)
  1 by 1 by 1 MPI processor grid
Created 19652 atoms
  Time spent = 0.00317717 secs
Setting atom values ...
  19480 settings made for type/fraction
Neighbor list info ...
  update every 1 steps, delay 0 steps, check no
  max neighbors/atom: 2000, page size: 100000
  master list distance cutoff = 8.5
  ghost atom cutoff = 8.5
  binsize = 4.25, bins = 16 16 16
  1 neighbor lists, perpetual/occasional/extra = 1 0 0
  (1) pair eam/alloy, perpetual
      attributes: half, newton on
      pair build: half/bin/atomonly/newton
      stencil: half/bin/3d/newton
      bin: standard
Setting up Verlet run ...
  Unit style    : metal
  Current step  : 0
  Time step     : 0.001
Per MPI rank memory allocation (min/avg/max) = 18.19 | 18.19 | 18.19 Mbytes
Step Temp Press TotEng PotEng Enthalpy Volume 
       0          300    33431.605    -65131.79   -65893.818   -58570.736       314432 
    1000      162.409    39072.722   -65131.644   -65544.178   -57463.504       314432 
Loop time of 176.781 on 1 procs for 1000 steps with 19652 atoms

Performance: 0.489 ns/day, 49.106 hours/ns, 5.657 timesteps/s
99.7% CPU use with 1 MPI tasks x no OpenMP threads

MPI task timing breakdown:
Section |  min time  |  avg time  |  max time  |%varavg| %total
---------------------------------------------------------------
Pair    | 102.37     | 102.37     | 102.37     |   0.0 | 57.91
Neigh   | 71.817     | 71.817     | 71.817     |   0.0 | 40.62
Comm    | 1.5071     | 1.5071     | 1.5071     |   0.0 |  0.85
Output  | 0.067312   | 0.067312   | 0.067312   |   0.0 |  0.04
Modify  | 0.54528    | 0.54528    | 0.54528    |   0.0 |  0.31
Other   |            | 0.4708     |            |       |  0.27

Nlocal:    19652 ave 19652 max 19652 min
Histogram: 1 0 0 0 0 0 0 0 0 0
Nghost:    20102 ave 20102 max 20102 min
Histogram: 1 0 0 0 0 0 0 0 0 0
Neighs:    1.56999e+06 ave 1.56999e+06 max 1.56999e+06 min
Histogram: 1 0 0 0 0 0 0 0 0 0

Total # of neighbors = 1569992
Ave neighs/atom = 79.8897
Neighbor list builds = 1000
Dangerous builds not checked
Setting up Verlet run ...
  Unit style    : metal
  Current step  : 1000
  Time step     : 0.001
Per MPI rank memory allocation (min/avg/max) = 18.19 | 18.19 | 18.19 Mbytes
Step Temp Press TotEng PotEng Enthalpy Volume 
    1000      162.409    39072.722   -65131.644   -65544.178   -57463.504       314432 
    2000    301.06431   -215.50198   -64494.305   -65259.036    -64539.04    332589.96 
Loop time of 168.222 on 1 procs for 1000 steps with 19652 atoms

Performance: 0.514 ns/day, 46.728 hours/ns, 5.945 timesteps/s
99.7% CPU use with 1 MPI tasks x no OpenMP threads

MPI task timing breakdown:
Section |  min time  |  avg time  |  max time  |%varavg| %total
---------------------------------------------------------------
Pair    | 94.648     | 94.648     | 94.648     |   0.0 | 56.26
Neigh   | 70.041     | 70.041     | 70.041     |   0.0 | 41.64
Comm    | 1.3618     | 1.3618     | 1.3618     |   0.0 |  0.81
Output  | 0.065688   | 0.065688   | 0.065688   |   0.0 |  0.04
Modify  | 1.6456     | 1.6456     | 1.6456     |   0.0 |  0.98
Other   |            | 0.4601     |            |       |  0.27

Nlocal:    19652 ave 19652 max 19652 min
Histogram: 1 0 0 0 0 0 0 0 0 0
Nghost:    20088 ave 20088 max 20088 min
Histogram: 1 0 0 0 0 0 0 0 0 0
Neighs:    1.43969e+06 ave 1.43969e+06 max 1.43969e+06 min
Histogram: 1 0 0 0 0 0 0 0 0 0

Total # of neighbors = 1439688
Ave neighs/atom = 73.2591
Neighbor list builds = 1000
Dangerous builds not checked
Setting up Verlet run ...
  Unit style    : metal
  Current step  : 2000
  Time step     : 0.001
Per MPI rank memory allocation (min/avg/max) = 18.19 | 18.19 | 18.19 Mbytes
Step Temp Press TotEng PotEng Enthalpy Volume 
    2000    301.06431   -215.50198   -64494.305   -65259.036    -64539.04    332589.96 
    3000    469.18158   -437.21435   -63576.779   -64768.543   -63668.795    337192.47 
    4000    796.04399    575.64231   -61738.714   -63760.738    -61614.16    346667.88 
    5000    1070.7765    94.839853   -59807.669   -62527.539   -59786.298    361033.69 
    6000    1337.0001    316.22754   -57150.461   -60546.563   -57073.476    390044.61 
    7000    1646.8188   -229.54263   -55372.058   -59555.128   -55430.051    404783.03 
    8000    1914.9894    820.49749   -53847.886   -58712.134   -53634.917    415861.88 
    9000    2197.0914    488.97446   -52312.762   -57893.574   -52181.689    429474.19 
   10000    2443.3534   -303.08106   -50935.221   -57141.562   -51019.174    443797.29 
Loop time of 1317.99 on 1 procs for 8000 steps with 19652 atoms

Performance: 0.524 ns/day, 45.764 hours/ns, 6.070 timesteps/s
99.7% CPU use with 1 MPI tasks x no OpenMP threads

MPI task timing breakdown:
Section |  min time  |  avg time  |  max time  |%varavg| %total
---------------------------------------------------------------
Pair    | 716.94     | 716.94     | 716.94     |   0.0 | 54.40
Neigh   | 571.98     | 571.98     | 571.98     |   0.0 | 43.40
Comm    | 10.422     | 10.422     | 10.422     |   0.0 |  0.79
Output  | 1.8749     | 1.8749     | 1.8749     |   0.0 |  0.14
Modify  | 13.17      | 13.17      | 13.17      |   0.0 |  1.00
Other   |            | 3.602      |            |       |  0.27

Nlocal:    19652 ave 19652 max 19652 min
Histogram: 1 0 0 0 0 0 0 0 0 0
Nghost:    16332 ave 16332 max 16332 min
Histogram: 1 0 0 0 0 0 0 0 0 0
Neighs:    1.11023e+06 ave 1.11023e+06 max 1.11023e+06 min
Histogram: 1 0 0 0 0 0 0 0 0 0

Total # of neighbors = 1110228
Ave neighs/atom = 56.4944
Neighbor list builds = 8000
Dangerous builds not checked
Setting up Verlet run ...
  Unit style    : metal
  Current step  : 10000
  Time step     : 0.001
Per MPI rank memory allocation (min/avg/max) = 18.19 | 18.19 | 18.19 Mbytes
Step Temp Press TotEng PotEng Enthalpy Volume 
   10000    2443.3534   -303.08106   -50935.221   -57141.562   -51019.174    443797.29 
   11000    2450.1722    723.53276   -50900.317   -57123.977   -50700.377     442742.3 
   12000    2457.7278    2110.1946   -50938.393   -57181.246   -50358.735    440108.72 
   13000    2454.4872    747.03062    -50890.54   -57125.161   -50684.249    442438.17 
   14000    2437.7045    618.26809   -50851.153   -57043.144   -50679.891     443805.1 
   15000    2437.9009    598.21539   -50930.602   -57123.093   -50765.331    442640.23 
   16000     2456.215   -101.83471   -50890.984   -57129.993   -50919.109    442499.39 
   17000    2449.0267    935.92493   -50843.838   -57064.589   -50584.725    443566.39 
   18000    2426.0756    58.785153   -50874.693   -57037.146   -50858.399    444101.49 
   19000    2435.3312    958.64203   -50941.041   -57127.005   -50676.632    441906.42 
   20000     2451.524    629.52799    -50895.92   -57123.015   -50722.049    442510.61 
   21000    2454.0991    1131.8167   -50835.868   -57069.504   -50523.044    442828.32 
   22000    2454.8186    76.750866   -50853.991   -57089.454   -50832.723    443970.34 
   23000    2458.0007   -921.84796   -50765.177   -57008.722   -51021.934    446246.58 
   24000    2446.1987   -1145.6355    -50797.78   -57011.348   -51116.834    446197.89 
   25000    2439.5514    -189.3215   -50828.902   -57025.585   -50881.464    444821.78 
   26000    2440.0398   -427.55001    -50786.99   -56984.913   -50905.928    445703.47 
   27000    2441.5346    178.58096   -50910.923   -57112.643   -50861.556    442903.74 
   28000    2472.2947    501.40267   -50846.598   -57126.452   -50707.957    443012.47 
   29000    2464.8236    99.899525   -50771.718   -57032.594   -50743.978    444897.25 
   30000    2460.5785    131.94545   -50876.912   -57127.006   -50840.469    442524.81 
   31000    2444.8637   -471.65113   -50808.449   -57018.625   -50939.634    445629.02 
   32000    2427.4717   -626.44635   -50802.199   -56968.198   -50977.015    447103.84 
   33000    2453.0235   -1080.3944   -50839.587    -57070.49   -51139.926    445389.86 
   34000    2448.9701   -1003.5247   -50845.104   -57065.711    -51124.23    445638.11 
   35000    2476.7387    350.12616   -50838.908   -57130.049   -50742.129    442858.51 
   36000    2476.9804   -258.24048   -50813.128   -57104.884   -50884.703    444065.78 
   37000    2437.1928    539.37939    -50895.11   -57085.801   -50745.806    443491.93 
   38000    2434.8657   -115.38474   -50936.252   -57121.033   -50968.225    443956.13 
   39000    2436.5923    594.89257   -50881.698   -57070.865   -50717.022    443510.11 
   40000    2442.5191    398.82168   -50862.992   -57067.213   -50752.404     444259.5 
Loop time of 4770.42 on 1 procs for 30000 steps with 19652 atoms

Performance: 0.543 ns/day, 44.171 hours/ns, 6.289 timesteps/s
99.7% CPU use with 1 MPI tasks x no OpenMP threads

MPI task timing breakdown:
Section |  min time  |  avg time  |  max time  |%varavg| %total
---------------------------------------------------------------
Pair    | 2518.7     | 2518.7     | 2518.7     |   0.0 | 52.80
Neigh   | 2148.6     | 2148.6     | 2148.6     |   0.0 | 45.04
Comm    | 38.199     | 38.199     | 38.199     |   0.0 |  0.80
Output  | 2.4306     | 2.4306     | 2.4306     |   0.0 |  0.05
Modify  | 49.389     | 49.389     | 49.389     |   0.0 |  1.04
Other   |            | 13.16      |            |       |  0.28

Nlocal:    19652 ave 19652 max 19652 min
Histogram: 1 0 0 0 0 0 0 0 0 0
Nghost:    16344 ave 16344 max 16344 min
Histogram: 1 0 0 0 0 0 0 0 0 0
Neighs:    1.10885e+06 ave 1.10885e+06 max 1.10885e+06 min
Histogram: 1 0 0 0 0 0 0 0 0 0

Total # of neighbors = 1108852
Ave neighs/atom = 56.4244
Neighbor list builds = 30000
Dangerous builds not checked
Setting up Verlet run ...
  Unit style    : metal
  Current step  : 40000
  Time step     : 0.001
Per MPI rank memory allocation (min/avg/max) = 18.19 | 18.19 | 18.19 Mbytes
Step Temp Press TotEng PotEng Enthalpy Volume 
   40000    2442.5191    398.82168   -50862.992   -57067.213   -50752.404     444259.5 
   40495    2408.0899    1298.4784   -51088.095   -57204.863   -50731.035    440571.99 
Loop time of 73.7892 on 1 procs for 495 steps with 19652 atoms

Performance: 0.580 ns/day, 41.408 hours/ns, 6.708 timesteps/s
99.8% CPU use with 1 MPI tasks x no OpenMP threads

MPI task timing breakdown:
Section |  min time  |  avg time  |  max time  |%varavg| %total
---------------------------------------------------------------
Pair    | 38.696     | 38.696     | 38.696     |   0.0 | 52.44
Neigh   | 33.48      | 33.48      | 33.48      |   0.0 | 45.37
Comm    | 0.60341    | 0.60341    | 0.60341    |   0.0 |  0.82
Output  | 0.00018191 | 0.00018191 | 0.00018191 |   0.0 |  0.00
Modify  | 0.79758    | 0.79758    | 0.79758    |   0.0 |  1.08
Other   |            | 0.2116     |            |       |  0.29

Nlocal:    19652 ave 19652 max 19652 min
Histogram: 1 0 0 0 0 0 0 0 0 0
Nghost:    16406 ave 16406 max 16406 min
Histogram: 1 0 0 0 0 0 0 0 0 0
Neighs:    1.11801e+06 ave 1.11801e+06 max 1.11801e+06 min
Histogram: 1 0 0 0 0 0 0 0 0 0

Total # of neighbors = 1118010
Ave neighs/atom = 56.8904
Neighbor list builds = 495
Dangerous builds not checked
Setting up Verlet run ...
  Unit style    : metal
  Current step  : 40495
  Time step     : 0.001
Per MPI rank memory allocation (min/avg/max) = 18.19 | 18.19 | 18.19 Mbytes
Step Temp Press TotEng PotEng Enthalpy Volume 
   40495    2408.0899    1298.4784   -51088.095   -57204.863   -50731.035    440571.99 
   41000    2400.4913    195.67117   -51130.109   -57227.576   -51076.211    441325.77 
Loop time of 76.4244 on 1 procs for 505 steps with 19652 atoms

Performance: 0.571 ns/day, 42.038 hours/ns, 6.608 timesteps/s
99.9% CPU use with 1 MPI tasks x no OpenMP threads

MPI task timing breakdown:
Section |  min time  |  avg time  |  max time  |%varavg| %total
---------------------------------------------------------------
Pair    | 40.081     | 40.081     | 40.081     |   0.0 | 52.45
Neigh   | 34.59      | 34.59      | 34.59      |   0.0 | 45.26
Comm    | 0.62969    | 0.62969    | 0.62969    |   0.0 |  0.82
Output  | 0.06637    | 0.06637    | 0.06637    |   0.0 |  0.09
Modify  | 0.83179    | 0.83179    | 0.83179    |   0.0 |  1.09
Other   |            | 0.225      |            |       |  0.29

Nlocal:    19652 ave 19652 max 19652 min
Histogram: 1 0 0 0 0 0 0 0 0 0
Nghost:    16243 ave 16243 max 16243 min
Histogram: 1 0 0 0 0 0 0 0 0 0
Neighs:    1.11638e+06 ave 1.11638e+06 max 1.11638e+06 min
Histogram: 1 0 0 0 0 0 0 0 0 0

Total # of neighbors = 1116378
Ave neighs/atom = 56.8073
Neighbor list builds = 505
Dangerous builds not checked
Setting up Verlet run ...
  Unit style    : metal
  Current step  : 41000
  Time step     : 0.001
Per MPI rank memory allocation (min/avg/max) = 18.19 | 18.19 | 18.19 Mbytes
Step Temp Press TotEng PotEng Enthalpy Volume 
   41000    2400.4913    195.67117   -51130.109   -57227.576   -51076.211    441325.77 
   41495    2350.7078    -73.30065   -51290.268    -57261.28    -51310.43    440686.12 
Loop time of 73.5937 on 1 procs for 495 steps with 19652 atoms

Performance: 0.581 ns/day, 41.298 hours/ns, 6.726 timesteps/s
99.8% CPU use with 1 MPI tasks x no OpenMP threads

MPI task timing breakdown:
Section |  min time  |  avg time  |  max time  |%varavg| %total
---------------------------------------------------------------
Pair    | 38.57      | 38.57      | 38.57      |   0.0 | 52.41
Neigh   | 33.442     | 33.442     | 33.442     |   0.0 | 45.44
Comm    | 0.59423    | 0.59423    | 0.59423    |   0.0 |  0.81
Output  | 0.00021482 | 0.00021482 | 0.00021482 |   0.0 |  0.00
Modify  | 0.77469    | 0.77469    | 0.77469    |   0.0 |  1.05
Other   |            | 0.2123     |            |       |  0.29

Nlocal:    19652 ave 19652 max 19652 min
Histogram: 1 0 0 0 0 0 0 0 0 0
Nghost:    16301 ave 16301 max 16301 min
Histogram: 1 0 0 0 0 0 0 0 0 0
Neighs:    1.11798e+06 ave 1.11798e+06 max 1.11798e+06 min
Histogram: 1 0 0 0 0 0 0 0 0 0

Total # of neighbors = 1117975
Ave neighs/atom = 56.8886
Neighbor list builds = 495
Dangerous builds not checked
Setting up Verlet run ...
  Unit style    : metal
  Current step  : 41495
  Time step     : 0.001
Per MPI rank memory allocation (min/avg/max) = 18.19 | 18.19 | 18.19 Mbytes
Step Temp Press TotEng PotEng Enthalpy Volume 
   41495    2350.7078    -73.30065   -51290.268    -57261.28    -51310.43    440686.12 
   42000    2339.6275    1188.6574   -51442.663   -57385.529   -51118.503    436930.15 
Loop time of 74.3295 on 1 procs for 505 steps with 19652 atoms

Performance: 0.587 ns/day, 40.885 hours/ns, 6.794 timesteps/s
99.9% CPU use with 1 MPI tasks x no OpenMP threads

MPI task timing breakdown:
Section |  min time  |  avg time  |  max time  |%varavg| %total
---------------------------------------------------------------
Pair    | 38.804     | 38.804     | 38.804     |   0.0 | 52.21
Neigh   | 33.859     | 33.859     | 33.859     |   0.0 | 45.55
Comm    | 0.6025     | 0.6025     | 0.6025     |   0.0 |  0.81
Output  | 0.044572   | 0.044572   | 0.044572   |   0.0 |  0.06
Modify  | 0.80571    | 0.80571    | 0.80571    |   0.0 |  1.08
Other   |            | 0.2139     |            |       |  0.29

Nlocal:    19652 ave 19652 max 19652 min
Histogram: 1 0 0 0 0 0 0 0 0 0
Nghost:    16410 ave 16410 max 16410 min
Histogram: 1 0 0 0 0 0 0 0 0 0
Neighs:    1.12798e+06 ave 1.12798e+06 max 1.12798e+06 min
Histogram: 1 0 0 0 0 0 0 0 0 0

Total # of neighbors = 1127983
Ave neighs/atom = 57.3979
Neighbor list builds = 505
Dangerous builds not checked
Setting up Verlet run ...
  Unit style    : metal
  Current step  : 42000
  Time step     : 0.001
Per MPI rank memory allocation (min/avg/max) = 18.19 | 18.19 | 18.19 Mbytes
Step Temp Press TotEng PotEng Enthalpy Volume 
   42000    2339.6275    1188.6574   -51442.663   -57385.529   -51118.503    436930.15 
   42495    2309.7835   -122.53403   -51525.379    -57392.44   -51558.916    438503.91 
Loop time of 76.7327 on 1 procs for 495 steps with 19652 atoms

Performance: 0.557 ns/day, 43.060 hours/ns, 6.451 timesteps/s
99.6% CPU use with 1 MPI tasks x no OpenMP threads

MPI task timing breakdown:
Section |  min time  |  avg time  |  max time  |%varavg| %total
---------------------------------------------------------------
Pair    | 40.356     | 40.356     | 40.356     |   0.0 | 52.59
Neigh   | 34.697     | 34.697     | 34.697     |   0.0 | 45.22
Comm    | 0.62828    | 0.62828    | 0.62828    |   0.0 |  0.82
Output  | 0.00022316 | 0.00022316 | 0.00022316 |   0.0 |  0.00
Modify  | 0.83314    | 0.83314    | 0.83314    |   0.0 |  1.09
Other   |            | 0.2184     |            |       |  0.28

Nlocal:    19652 ave 19652 max 19652 min
Histogram: 1 0 0 0 0 0 0 0 0 0
Nghost:    16365 ave 16365 max 16365 min
Histogram: 1 0 0 0 0 0 0 0 0 0
Neighs:    1.12381e+06 ave 1.12381e+06 max 1.12381e+06 min
Histogram: 1 0 0 0 0 0 0 0 0 0

Total # of neighbors = 1123813
Ave neighs/atom = 57.1857
Neighbor list builds = 495
Dangerous builds not checked
Setting up Verlet run ...
  Unit style    : metal
  Current step  : 42495
  Time step     : 0.001
Per MPI rank memory allocation (min/avg/max) = 18.19 | 18.19 | 18.19 Mbytes
Step Temp Press TotEng PotEng Enthalpy Volume 
   42495    2309.7835   -122.53403   -51525.379    -57392.44   -51558.916    438503.91 
   43000    2296.8599    260.96436   -51752.304   -57586.537   -51681.541    434442.88 
Loop time of 79.813 on 1 procs for 505 steps with 19652 atoms

Performance: 0.547 ns/day, 43.902 hours/ns, 6.327 timesteps/s
99.8% CPU use with 1 MPI tasks x no OpenMP threads

MPI task timing breakdown:
Section |  min time  |  avg time  |  max time  |%varavg| %total
---------------------------------------------------------------
Pair    | 42.444     | 42.444     | 42.444     |   0.0 | 53.18
Neigh   | 35.57      | 35.57      | 35.57      |   0.0 | 44.57
Comm    | 0.65507    | 0.65507    | 0.65507    |   0.0 |  0.82
Output  | 0.067237   | 0.067237   | 0.067237   |   0.0 |  0.08
Modify  | 0.84568    | 0.84568    | 0.84568    |   0.0 |  1.06
Other   |            | 0.231      |            |       |  0.29

Nlocal:    19652 ave 19652 max 19652 min
Histogram: 1 0 0 0 0 0 0 0 0 0
Nghost:    16407 ave 16407 max 16407 min
Histogram: 1 0 0 0 0 0 0 0 0 0
Neighs:    1.13385e+06 ave 1.13385e+06 max 1.13385e+06 min
Histogram: 1 0 0 0 0 0 0 0 0 0

Total # of neighbors = 1133854
Ave neighs/atom = 57.6966
Neighbor list builds = 505
Dangerous builds not checked
Setting up Verlet run ...
  Unit style    : metal
  Current step  : 43000
  Time step     : 0.001
Per MPI rank memory allocation (min/avg/max) = 18.19 | 18.19 | 18.19 Mbytes
Step Temp Press TotEng PotEng Enthalpy Volume 
   43000    2296.8599    260.96436   -51752.304   -57586.537   -51681.541    434442.88 
   43495     2260.307   -845.35366   -51848.754   -57590.139   -52078.712    435833.88 
Loop time of 80.668 on 1 procs for 495 steps with 19652 atoms

Performance: 0.530 ns/day, 45.268 hours/ns, 6.136 timesteps/s
99.8% CPU use with 1 MPI tasks x no OpenMP threads

MPI task timing breakdown:
Section |  min time  |  avg time  |  max time  |%varavg| %total
---------------------------------------------------------------
Pair    | 43.087     | 43.087     | 43.087     |   0.0 | 53.41
Neigh   | 35.805     | 35.805     | 35.805     |   0.0 | 44.39
Comm    | 0.66961    | 0.66961    | 0.66961    |   0.0 |  0.83
Output  | 0.00019503 | 0.00019503 | 0.00019503 |   0.0 |  0.00
Modify  | 0.87153    | 0.87153    | 0.87153    |   0.0 |  1.08
Other   |            | 0.2345     |            |       |  0.29

Nlocal:    19652 ave 19652 max 19652 min
Histogram: 1 0 0 0 0 0 0 0 0 0
Nghost:    16427 ave 16427 max 16427 min
Histogram: 1 0 0 0 0 0 0 0 0 0
Neighs:    1.1308e+06 ave 1.1308e+06 max 1.1308e+06 min
Histogram: 1 0 0 0 0 0 0 0 0 0

Total # of neighbors = 1130803
Ave neighs/atom = 57.5414
Neighbor list builds = 495
Dangerous builds not checked
Setting up Verlet run ...
  Unit style    : metal
  Current step  : 43495
  Time step     : 0.001
Per MPI rank memory allocation (min/avg/max) = 18.19 | 18.19 | 18.19 Mbytes
Step Temp Press TotEng PotEng Enthalpy Volume 
   43495     2260.307   -845.35366   -51848.754   -57590.139   -52078.712    435833.88 
   44000    2266.1137    353.72603   -52027.524   -57783.659   -51932.184    431835.66 
Loop time of 83.9899 on 1 procs for 505 steps with 19652 atoms

Performance: 0.519 ns/day, 46.199 hours/ns, 6.013 timesteps/s
99.9% CPU use with 1 MPI tasks x no OpenMP threads

MPI task timing breakdown:
Section |  min time  |  avg time  |  max time  |%varavg| %total
---------------------------------------------------------------
Pair    | 45.022     | 45.022     | 45.022     |   0.0 | 53.60
Neigh   | 37.038     | 37.038     | 37.038     |   0.0 | 44.10
Comm    | 0.70589    | 0.70589    | 0.70589    |   0.0 |  0.84
Output  | 0.067237   | 0.067237   | 0.067237   |   0.0 |  0.08
Modify  | 0.91363    | 0.91363    | 0.91363    |   0.0 |  1.09
Other   |            | 0.2434     |            |       |  0.29

Nlocal:    19652 ave 19652 max 19652 min
Histogram: 1 0 0 0 0 0 0 0 0 0
Nghost:    16569 ave 16569 max 16569 min
Histogram: 1 0 0 0 0 0 0 0 0 0
Neighs:    1.14141e+06 ave 1.14141e+06 max 1.14141e+06 min
Histogram: 1 0 0 0 0 0 0 0 0 0

Total # of neighbors = 1141411
Ave neighs/atom = 58.0812
Neighbor list builds = 505
Dangerous builds not checked
Setting up Verlet run ...
  Unit style    : metal
  Current step  : 44000
  Time step     : 0.001
Per MPI rank memory allocation (min/avg/max) = 18.19 | 18.19 | 18.19 Mbytes
Step Temp Press TotEng PotEng Enthalpy Volume 
   44000    2266.1137    353.72603   -52027.524   -57783.659   -51932.184    431835.66 
   44495    2229.2541     139.2579   -52114.134   -57776.642   -52076.579    432072.33 
Loop time of 80.775 on 1 procs for 495 steps with 19652 atoms

Performance: 0.529 ns/day, 45.328 hours/ns, 6.128 timesteps/s
99.7% CPU use with 1 MPI tasks x no OpenMP threads

MPI task timing breakdown:
Section |  min time  |  avg time  |  max time  |%varavg| %total
---------------------------------------------------------------
Pair    | 43.163     | 43.163     | 43.163     |   0.0 | 53.44
Neigh   | 35.846     | 35.846     | 35.846     |   0.0 | 44.38
Comm    | 0.658      | 0.658      | 0.658      |   0.0 |  0.81
Output  | 0.00021696 | 0.00021696 | 0.00021696 |   0.0 |  0.00
Modify  | 0.87246    | 0.87246    | 0.87246    |   0.0 |  1.08
Other   |            | 0.2355     |            |       |  0.29

Nlocal:    19652 ave 19652 max 19652 min
Histogram: 1 0 0 0 0 0 0 0 0 0
Nghost:    16456 ave 16456 max 16456 min
Histogram: 1 0 0 0 0 0 0 0 0 0
Neighs:    1.1405e+06 ave 1.1405e+06 max 1.1405e+06 min
Histogram: 1 0 0 0 0 0 0 0 0 0

Total # of neighbors = 1140505
Ave neighs/atom = 58.0351
Neighbor list builds = 495
Dangerous builds not checked
Setting up Verlet run ...
  Unit style    : metal
  Current step  : 44495
  Time step     : 0.001
Per MPI rank memory allocation (min/avg/max) = 18.19 | 18.19 | 18.19 Mbytes
Step Temp Press TotEng PotEng Enthalpy Volume 
   44495    2229.2541     139.2579   -52114.134   -57776.642   -52076.579    432072.33 
   45000    2214.5444    162.49633   -52215.881   -57841.025   -52172.168    430992.97 
Loop time of 82.1201 on 1 procs for 505 steps with 19652 atoms

Performance: 0.531 ns/day, 45.171 hours/ns, 6.150 timesteps/s
99.9% CPU use with 1 MPI tasks x no OpenMP threads

MPI task timing breakdown:
Section |  min time  |  avg time  |  max time  |%varavg| %total
---------------------------------------------------------------
Pair    | 43.904     | 43.904     | 43.904     |   0.0 | 53.46
Neigh   | 36.347     | 36.347     | 36.347     |   0.0 | 44.26
Comm    | 0.67069    | 0.67069    | 0.67069    |   0.0 |  0.82
Output  | 0.069595   | 0.069595   | 0.069595   |   0.0 |  0.08
Modify  | 0.88874    | 0.88874    | 0.88874    |   0.0 |  1.08
Other   |            | 0.2394     |            |       |  0.29

Nlocal:    19652 ave 19652 max 19652 min
Histogram: 1 0 0 0 0 0 0 0 0 0
Nghost:    16462 ave 16462 max 16462 min
Histogram: 1 0 0 0 0 0 0 0 0 0
Neighs:    1.14375e+06 ave 1.14375e+06 max 1.14375e+06 min
Histogram: 1 0 0 0 0 0 0 0 0 0

Total # of neighbors = 1143747
Ave neighs/atom = 58.2
Neighbor list builds = 505
Dangerous builds not checked
Setting up Verlet run ...
  Unit style    : metal
  Current step  : 45000
  Time step     : 0.001
Per MPI rank memory allocation (min/avg/max) = 18.19 | 18.19 | 18.19 Mbytes
Step Temp Press TotEng PotEng Enthalpy Volume 
   45000    2214.5444    162.49633   -52215.881   -57841.025   -52172.168    430992.97 
   45495    2151.3848    753.31081   -52435.874   -57900.587    -52234.15    429035.58 
Loop time of 81.9607 on 1 procs for 495 steps with 19652 atoms

Performance: 0.522 ns/day, 45.994 hours/ns, 6.039 timesteps/s
99.9% CPU use with 1 MPI tasks x no OpenMP threads

MPI task timing breakdown:
Section |  min time  |  avg time  |  max time  |%varavg| %total
---------------------------------------------------------------
Pair    | 44.001     | 44.001     | 44.001     |   0.0 | 53.69
Neigh   | 36.156     | 36.156     | 36.156     |   0.0 | 44.11
Comm    | 0.68185    | 0.68185    | 0.68185    |   0.0 |  0.83
Output  | 0.00033808 | 0.00033808 | 0.00033808 |   0.0 |  0.00
Modify  | 0.88427    | 0.88427    | 0.88427    |   0.0 |  1.08
Other   |            | 0.2374     |            |       |  0.29

Nlocal:    19652 ave 19652 max 19652 min
Histogram: 1 0 0 0 0 0 0 0 0 0
Nghost:    16524 ave 16524 max 16524 min
Histogram: 1 0 0 0 0 0 0 0 0 0
Neighs:    1.14845e+06 ave 1.14845e+06 max 1.14845e+06 min
Histogram: 1 0 0 0 0 0 0 0 0 0

Total # of neighbors = 1148450
Ave neighs/atom = 58.4393
Neighbor list builds = 495
Dangerous builds not checked
Setting up Verlet run ...
  Unit style    : metal
  Current step  : 45495
  Time step     : 0.001
Per MPI rank memory allocation (min/avg/max) = 18.19 | 18.19 | 18.19 Mbytes
Step Temp Press TotEng PotEng Enthalpy Volume 
   45495    2151.3848    753.31081   -52435.874   -57900.587    -52234.15    429035.58 
   46000    2151.7513     387.9078   -52492.408   -57958.052   -52388.614    428698.81 
Loop time of 81.943 on 1 procs for 505 steps with 19652 atoms

Performance: 0.532 ns/day, 45.073 hours/ns, 6.163 timesteps/s
99.8% CPU use with 1 MPI tasks x no OpenMP threads

MPI task timing breakdown:
Section |  min time  |  avg time  |  max time  |%varavg| %total
---------------------------------------------------------------
Pair    | 44.06      | 44.06      | 44.06      |   0.0 | 53.77
Neigh   | 36.006     | 36.006     | 36.006     |   0.0 | 43.94
Comm    | 0.67716    | 0.67716    | 0.67716    |   0.0 |  0.83
Output  | 0.067333   | 0.067333   | 0.067333   |   0.0 |  0.08
Modify  | 0.88934    | 0.88934    | 0.88934    |   0.0 |  1.09
Other   |            | 0.2434     |            |       |  0.30

Nlocal:    19652 ave 19652 max 19652 min
Histogram: 1 0 0 0 0 0 0 0 0 0
Nghost:    16571 ave 16571 max 16571 min
Histogram: 1 0 0 0 0 0 0 0 0 0
Neighs:    1.14922e+06 ave 1.14922e+06 max 1.14922e+06 min
Histogram: 1 0 0 0 0 0 0 0 0 0

Total # of neighbors = 1149219
Ave neighs/atom = 58.4785
Neighbor list builds = 505
Dangerous builds not checked
Setting up Verlet run ...
  Unit style    : metal
  Current step  : 46000
  Time step     : 0.001
Per MPI rank memory allocation (min/avg/max) = 18.19 | 18.19 | 18.19 Mbytes
Step Temp Press TotEng PotEng Enthalpy Volume 
   46000    2151.7513     387.9078   -52492.408   -57958.052   -52388.614    428698.81 
   46495    2106.5126    429.11656   -52722.047   -58072.781   -52607.807    426535.91 
Loop time of 81.9602 on 1 procs for 495 steps with 19652 atoms

Performance: 0.522 ns/day, 45.993 hours/ns, 6.040 timesteps/s
99.7% CPU use with 1 MPI tasks x no OpenMP threads

MPI task timing breakdown:
Section |  min time  |  avg time  |  max time  |%varavg| %total
---------------------------------------------------------------
Pair    | 44.133     | 44.133     | 44.133     |   0.0 | 53.85
Neigh   | 36.014     | 36.014     | 36.014     |   0.0 | 43.94
Comm    | 0.68853    | 0.68853    | 0.68853    |   0.0 |  0.84
Output  | 0.00023484 | 0.00023484 | 0.00023484 |   0.0 |  0.00
Modify  | 0.88637    | 0.88637    | 0.88637    |   0.0 |  1.08
Other   |            | 0.2379     |            |       |  0.29

Nlocal:    19652 ave 19652 max 19652 min
Histogram: 1 0 0 0 0 0 0 0 0 0
Nghost:    16567 ave 16567 max 16567 min
Histogram: 1 0 0 0 0 0 0 0 0 0
Neighs:    1.15574e+06 ave 1.15574e+06 max 1.15574e+06 min
Histogram: 1 0 0 0 0 0 0 0 0 0

Total # of neighbors = 1155736
Ave neighs/atom = 58.8101
Neighbor list builds = 495
Dangerous builds not checked
Setting up Verlet run ...
  Unit style    : metal
  Current step  : 46495
  Time step     : 0.001
Per MPI rank memory allocation (min/avg/max) = 18.19 | 18.19 | 18.19 Mbytes
Step Temp Press TotEng PotEng Enthalpy Volume 
   46495    2106.5126    429.11656   -52722.047   -58072.781   -52607.807    426535.91 
   47000    2100.7703    379.26841   -52787.185   -58123.333   -52686.393    425784.91 
Loop time of 83.3652 on 1 procs for 505 steps with 19652 atoms

Performance: 0.523 ns/day, 45.855 hours/ns, 6.058 timesteps/s
99.9% CPU use with 1 MPI tasks x no OpenMP threads

MPI task timing breakdown:
Section |  min time  |  avg time  |  max time  |%varavg| %total
---------------------------------------------------------------
Pair    | 44.691     | 44.691     | 44.691     |   0.0 | 53.61
Neigh   | 36.752     | 36.752     | 36.752     |   0.0 | 44.09
Comm    | 0.70044    | 0.70044    | 0.70044    |   0.0 |  0.84
Output  | 0.069682   | 0.069682   | 0.069682   |   0.0 |  0.08
Modify  | 0.90697    | 0.90697    | 0.90697    |   0.0 |  1.09
Other   |            | 0.2448     |            |       |  0.29

Nlocal:    19652 ave 19652 max 19652 min
Histogram: 1 0 0 0 0 0 0 0 0 0
Nghost:    16468 ave 16468 max 16468 min
Histogram: 1 0 0 0 0 0 0 0 0 0
Neighs:    1.15796e+06 ave 1.15796e+06 max 1.15796e+06 min
Histogram: 1 0 0 0 0 0 0 0 0 0

Total # of neighbors = 1157965
Ave neighs/atom = 58.9235
Neighbor list builds = 505
Dangerous builds not checked
Setting up Verlet run ...
  Unit style    : metal
  Current step  : 47000
  Time step     : 0.001
Per MPI rank memory allocation (min/avg/max) = 18.19 | 18.19 | 18.19 Mbytes
Step Temp Press TotEng PotEng Enthalpy Volume 
   47000    2100.7703    379.26841   -52787.185   -58123.333   -52686.393    425784.91 
   47495    2071.6093   -35.393676   -52980.892   -58242.968   -52990.268    424435.12 
Loop time of 78.8268 on 1 procs for 495 steps with 19652 atoms

Performance: 0.543 ns/day, 44.235 hours/ns, 6.280 timesteps/s
99.8% CPU use with 1 MPI tasks x no OpenMP threads

MPI task timing breakdown:
Section |  min time  |  avg time  |  max time  |%varavg| %total
---------------------------------------------------------------
Pair    | 42.363     | 42.363     | 42.363     |   0.0 | 53.74
Neigh   | 34.79      | 34.79      | 34.79      |   0.0 | 44.13
Comm    | 0.62812    | 0.62812    | 0.62812    |   0.0 |  0.80
Output  | 0.00036788 | 0.00036788 | 0.00036788 |   0.0 |  0.00
Modify  | 0.82258    | 0.82258    | 0.82258    |   0.0 |  1.04
Other   |            | 0.2226     |            |       |  0.28

Nlocal:    19652 ave 19652 max 19652 min
Histogram: 1 0 0 0 0 0 0 0 0 0
Nghost:    16605 ave 16605 max 16605 min
Histogram: 1 0 0 0 0 0 0 0 0 0
Neighs:    1.16186e+06 ave 1.16186e+06 max 1.16186e+06 min
Histogram: 1 0 0 0 0 0 0 0 0 0

Total # of neighbors = 1161863
Ave neighs/atom = 59.1219
Neighbor list builds = 495
Dangerous builds not checked
Setting up Verlet run ...
  Unit style    : metal
  Current step  : 47495
  Time step     : 0.001
Per MPI rank memory allocation (min/avg/max) = 18.19 | 18.19 | 18.19 Mbytes
Step Temp Press TotEng PotEng Enthalpy Volume 
   47495    2071.6093   -35.393676   -52980.892   -58242.968   -52990.268    424435.12 
   48000    2068.3939   -449.66986   -53073.558   -58327.467   -53192.415    423488.68 
Loop time of 83.4061 on 1 procs for 505 steps with 19652 atoms

Performance: 0.523 ns/day, 45.878 hours/ns, 6.055 timesteps/s
99.8% CPU use with 1 MPI tasks x no OpenMP threads

MPI task timing breakdown:
Section |  min time  |  avg time  |  max time  |%varavg| %total
---------------------------------------------------------------
Pair    | 44.827     | 44.827     | 44.827     |   0.0 | 53.75
Neigh   | 36.684     | 36.684     | 36.684     |   0.0 | 43.98
Comm    | 0.68821    | 0.68821    | 0.68821    |   0.0 |  0.83
Output  | 0.069843   | 0.069843   | 0.069843   |   0.0 |  0.08
Modify  | 0.89682    | 0.89682    | 0.89682    |   0.0 |  1.08
Other   |            | 0.2405     |            |       |  0.29

Nlocal:    19652 ave 19652 max 19652 min
Histogram: 1 0 0 0 0 0 0 0 0 0
Nghost:    16572 ave 16572 max 16572 min
Histogram: 1 0 0 0 0 0 0 0 0 0
Neighs:    1.16431e+06 ave 1.16431e+06 max 1.16431e+06 min
Histogram: 1 0 0 0 0 0 0 0 0 0

Total # of neighbors = 1164313
Ave neighs/atom = 59.2465
Neighbor list builds = 505
Dangerous builds not checked
Setting up Verlet run ...
  Unit style    : metal
  Current step  : 48000
  Time step     : 0.001
Per MPI rank memory allocation (min/avg/max) = 18.19 | 18.19 | 18.19 Mbytes
Step Temp Press TotEng PotEng Enthalpy Volume 
   48000    2068.3939   -449.66986   -53073.558   -58327.467   -53192.415    423488.68 
   48495    2015.1871   -521.34268   -53267.801    -58386.56   -53405.249    422401.27 
Loop time of 80.9343 on 1 procs for 495 steps with 19652 atoms

Performance: 0.528 ns/day, 45.418 hours/ns, 6.116 timesteps/s
99.8% CPU use with 1 MPI tasks x no OpenMP threads

MPI task timing breakdown:
Section |  min time  |  avg time  |  max time  |%varavg| %total
---------------------------------------------------------------
Pair    | 43.624     | 43.624     | 43.624     |   0.0 | 53.90
Neigh   | 35.546     | 35.546     | 35.546     |   0.0 | 43.92
Comm    | 0.66323    | 0.66323    | 0.66323    |   0.0 |  0.82
Output  | 0.00021219 | 0.00021219 | 0.00021219 |   0.0 |  0.00
Modify  | 0.86574    | 0.86574    | 0.86574    |   0.0 |  1.07
Other   |            | 0.2349     |            |       |  0.29

Nlocal:    19652 ave 19652 max 19652 min
Histogram: 1 0 0 0 0 0 0 0 0 0
Nghost:    16668 ave 16668 max 16668 min
Histogram: 1 0 0 0 0 0 0 0 0 0
Neighs:    1.16771e+06 ave 1.16771e+06 max 1.16771e+06 min
Histogram: 1 0 0 0 0 0 0 0 0 0

Total # of neighbors = 1167706
Ave neighs/atom = 59.4192
Neighbor list builds = 495
Dangerous builds not checked
Setting up Verlet run ...
  Unit style    : metal
  Current step  : 48495
  Time step     : 0.001
Per MPI rank memory allocation (min/avg/max) = 18.19 | 18.19 | 18.19 Mbytes
Step Temp Press TotEng PotEng Enthalpy Volume 
   48495    2015.1871   -521.34268   -53267.801    -58386.56   -53405.249    422401.27 
   49000     2026.613    1523.4593   -53291.304   -58439.086   -52891.702    420249.94 
Loop time of 82.461 on 1 procs for 505 steps with 19652 atoms

Performance: 0.529 ns/day, 45.358 hours/ns, 6.124 timesteps/s
99.7% CPU use with 1 MPI tasks x no OpenMP threads

MPI task timing breakdown:
Section |  min time  |  avg time  |  max time  |%varavg| %total
---------------------------------------------------------------
Pair    | 44.493     | 44.493     | 44.493     |   0.0 | 53.96
Neigh   | 36.125     | 36.125     | 36.125     |   0.0 | 43.81
Comm    | 0.67329    | 0.67329    | 0.67329    |   0.0 |  0.82
Output  | 0.068204   | 0.068204   | 0.068204   |   0.0 |  0.08
Modify  | 0.86575    | 0.86575    | 0.86575    |   0.0 |  1.05
Other   |            | 0.2353     |            |       |  0.29

Nlocal:    19652 ave 19652 max 19652 min
Histogram: 1 0 0 0 0 0 0 0 0 0
Nghost:    16589 ave 16589 max 16589 min
Histogram: 1 0 0 0 0 0 0 0 0 0
Neighs:    1.17284e+06 ave 1.17284e+06 max 1.17284e+06 min
Histogram: 1 0 0 0 0 0 0 0 0 0

Total # of neighbors = 1172842
Ave neighs/atom = 59.6805
Neighbor list builds = 505
Dangerous builds not checked
Setting up Verlet run ...
  Unit style    : metal
  Current step  : 49000
  Time step     : 0.001
Per MPI rank memory allocation (min/avg/max) = 18.19 | 18.19 | 18.19 Mbytes
Step Temp Press TotEng PotEng Enthalpy Volume 
   49000     2026.613    1523.4593   -53291.304   -58439.086   -52891.702    420249.94 
   49495    1965.6715   -210.58884    -53513.91   -58506.895   -53569.205    420686.41 
Loop time of 78.9448 on 1 procs for 495 steps with 19652 atoms

Performance: 0.542 ns/day, 44.301 hours/ns, 6.270 timesteps/s
99.7% CPU use with 1 MPI tasks x no OpenMP threads

MPI task timing breakdown:
Section |  min time  |  avg time  |  max time  |%varavg| %total
---------------------------------------------------------------
Pair    | 42.503     | 42.503     | 42.503     |   0.0 | 53.84
Neigh   | 34.76      | 34.76      | 34.76      |   0.0 | 44.03
Comm    | 0.63261    | 0.63261    | 0.63261    |   0.0 |  0.80
Output  | 0.00023293 | 0.00023293 | 0.00023293 |   0.0 |  0.00
Modify  | 0.82116    | 0.82116    | 0.82116    |   0.0 |  1.04
Other   |            | 0.2286     |            |       |  0.29

Nlocal:    19652 ave 19652 max 19652 min
Histogram: 1 0 0 0 0 0 0 0 0 0
Nghost:    16630 ave 16630 max 16630 min
Histogram: 1 0 0 0 0 0 0 0 0 0
Neighs:    1.17191e+06 ave 1.17191e+06 max 1.17191e+06 min
Histogram: 1 0 0 0 0 0 0 0 0 0

Total # of neighbors = 1171908
Ave neighs/atom = 59.633
Neighbor list builds = 495
Dangerous builds not checked
Setting up Verlet run ...
  Unit style    : metal
  Current step  : 49495
  Time step     : 0.001
Per MPI rank memory allocation (min/avg/max) = 18.19 | 18.19 | 18.19 Mbytes
Step Temp Press TotEng PotEng Enthalpy Volume 
   49495    1965.6715   -210.58884    -53513.91   -58506.895   -53569.205    420686.41 
   50000    1951.2094    501.18201    -53611.67    -58567.92   -53480.674    418766.39 
Loop time of 83.718 on 1 procs for 505 steps with 19652 atoms

Performance: 0.521 ns/day, 46.049 hours/ns, 6.032 timesteps/s
99.7% CPU use with 1 MPI tasks x no OpenMP threads

MPI task timing breakdown:
Section |  min time  |  avg time  |  max time  |%varavg| %total
---------------------------------------------------------------
Pair    | 45.28      | 45.28      | 45.28      |   0.0 | 54.09
Neigh   | 36.539     | 36.539     | 36.539     |   0.0 | 43.65
Comm    | 0.69993    | 0.69993    | 0.69993    |   0.0 |  0.84
Output  | 0.070218   | 0.070218   | 0.070218   |   0.0 |  0.08
Modify  | 0.89023    | 0.89023    | 0.89023    |   0.0 |  1.06
Other   |            | 0.2386     |            |       |  0.28

Nlocal:    19652 ave 19652 max 19652 min
Histogram: 1 0 0 0 0 0 0 0 0 0
Nghost:    16715 ave 16715 max 16715 min
Histogram: 1 0 0 0 0 0 0 0 0 0
Neighs:    1.17718e+06 ave 1.17718e+06 max 1.17718e+06 min
Histogram: 1 0 0 0 0 0 0 0 0 0

Total # of neighbors = 1177178
Ave neighs/atom = 59.9012
Neighbor list builds = 505
Dangerous builds not checked
Setting up Verlet run ...
  Unit style    : metal
  Current step  : 50000
  Time step     : 0.001
Per MPI rank memory allocation (min/avg/max) = 18.19 | 18.19 | 18.19 Mbytes
Step Temp Press TotEng PotEng Enthalpy Volume 
   50000    1951.2094    501.18201    -53611.67    -58567.92   -53480.674    418766.39 
   50495    1916.6142    -242.8597   -53813.274   -58681.648   -53876.586    417681.07 
Loop time of 80.508 on 1 procs for 495 steps with 19652 atoms

Performance: 0.531 ns/day, 45.178 hours/ns, 6.148 timesteps/s
99.9% CPU use with 1 MPI tasks x no OpenMP threads

MPI task timing breakdown:
Section |  min time  |  avg time  |  max time  |%varavg| %total
---------------------------------------------------------------
Pair    | 43.43      | 43.43      | 43.43      |   0.0 | 53.94
Neigh   | 35.341     | 35.341     | 35.341     |   0.0 | 43.90
Comm    | 0.65172    | 0.65172    | 0.65172    |   0.0 |  0.81
Output  | 0.00023794 | 0.00023794 | 0.00023794 |   0.0 |  0.00
Modify  | 0.85342    | 0.85342    | 0.85342    |   0.0 |  1.06
Other   |            | 0.2324     |            |       |  0.29

Nlocal:    19652 ave 19652 max 19652 min
Histogram: 1 0 0 0 0 0 0 0 0 0
Nghost:    16668 ave 16668 max 16668 min
Histogram: 1 0 0 0 0 0 0 0 0 0
Neighs:    1.18032e+06 ave 1.18032e+06 max 1.18032e+06 min
Histogram: 1 0 0 0 0 0 0 0 0 0

Total # of neighbors = 1180318
Ave neighs/atom = 60.061
Neighbor list builds = 495
Dangerous builds not checked
Setting up Verlet run ...
  Unit style    : metal
  Current step  : 50495
  Time step     : 0.001
Per MPI rank memory allocation (min/avg/max) = 18.19 | 18.19 | 18.19 Mbytes
Step Temp Press TotEng PotEng Enthalpy Volume 
   50495    1916.6142    -242.8597   -53813.274   -58681.648   -53876.586    417681.07 
   51000    1896.3893    756.20117   -53939.201   -58756.203   -53743.106       415471 
Loop time of 83.1251 on 1 procs for 505 steps with 19652 atoms

Performance: 0.525 ns/day, 45.723 hours/ns, 6.075 timesteps/s
99.7% CPU use with 1 MPI tasks x no OpenMP threads

MPI task timing breakdown:
Section |  min time  |  avg time  |  max time  |%varavg| %total
---------------------------------------------------------------
Pair    | 44.698     | 44.698     | 44.698     |   0.0 | 53.77
Neigh   | 36.397     | 36.397     | 36.397     |   0.0 | 43.79
Comm    | 0.67399    | 0.67399    | 0.67399    |   0.0 |  0.81
Output  | 0.23478    | 0.23478    | 0.23478    |   0.0 |  0.28
Modify  | 0.88217    | 0.88217    | 0.88217    |   0.0 |  1.06
Other   |            | 0.2396     |            |       |  0.29

Nlocal:    19652 ave 19652 max 19652 min
Histogram: 1 0 0 0 0 0 0 0 0 0
Nghost:    16692 ave 16692 max 16692 min
Histogram: 1 0 0 0 0 0 0 0 0 0
Neighs:    1.18691e+06 ave 1.18691e+06 max 1.18691e+06 min
Histogram: 1 0 0 0 0 0 0 0 0 0

Total # of neighbors = 1186907
Ave neighs/atom = 60.3962
Neighbor list builds = 505
Dangerous builds not checked
Setting up Verlet run ...
  Unit style    : metal
  Current step  : 51000
  Time step     : 0.001
Per MPI rank memory allocation (min/avg/max) = 18.19 | 18.19 | 18.19 Mbytes
Step Temp Press TotEng PotEng Enthalpy Volume 
   51000    1896.3893    756.20117   -53939.201   -58756.203   -53743.106       415471 
   51495    1855.6212    236.73134   -54087.499   -58800.946   -54026.179    415009.49 
Loop time of 83.3976 on 1 procs for 495 steps with 19652 atoms

Performance: 0.513 ns/day, 46.800 hours/ns, 5.935 timesteps/s
99.9% CPU use with 1 MPI tasks x no OpenMP threads

MPI task timing breakdown:
Section |  min time  |  avg time  |  max time  |%varavg| %total
---------------------------------------------------------------
Pair    | 45.419     | 45.419     | 45.419     |   0.0 | 54.46
Neigh   | 36.165     | 36.165     | 36.165     |   0.0 | 43.37
Comm    | 0.69954    | 0.69954    | 0.69954    |   0.0 |  0.84
Output  | 0.00027299 | 0.00027299 | 0.00027299 |   0.0 |  0.00
Modify  | 0.87832    | 0.87832    | 0.87832    |   0.0 |  1.05
Other   |            | 0.2351     |            |       |  0.28

Nlocal:    19652 ave 19652 max 19652 min
Histogram: 1 0 0 0 0 0 0 0 0 0
Nghost:    16742 ave 16742 max 16742 min
Histogram: 1 0 0 0 0 0 0 0 0 0
Neighs:    1.18807e+06 ave 1.18807e+06 max 1.18807e+06 min
Histogram: 1 0 0 0 0 0 0 0 0 0

Total # of neighbors = 1188072
Ave neighs/atom = 60.4555
Neighbor list builds = 495
Dangerous builds not checked
Setting up Verlet run ...
  Unit style    : metal
  Current step  : 51495
  Time step     : 0.001
Per MPI rank memory allocation (min/avg/max) = 18.19 | 18.19 | 18.19 Mbytes
Step Temp Press TotEng PotEng Enthalpy Volume 
   51495    1855.6212    236.73134   -54087.499   -58800.946   -54026.179    415009.49 
   52000      1834.67    427.99493   -54199.449   -58859.678   -54088.865    413963.63 
Loop time of 86.0355 on 1 procs for 505 steps with 19652 atoms

Performance: 0.507 ns/day, 47.324 hours/ns, 5.870 timesteps/s
98.2% CPU use with 1 MPI tasks x no OpenMP threads

MPI task timing breakdown:
Section |  min time  |  avg time  |  max time  |%varavg| %total
---------------------------------------------------------------
Pair    | 46.113     | 46.113     | 46.113     |   0.0 | 53.60
Neigh   | 36.629     | 36.629     | 36.629     |   0.0 | 42.57
Comm    | 0.69172    | 0.69172    | 0.69172    |   0.0 |  0.80
Output  | 1.4765     | 1.4765     | 1.4765     |   0.0 |  1.72
Modify  | 0.88276    | 0.88276    | 0.88276    |   0.0 |  1.03
Other   |            | 0.2425     |            |       |  0.28

Nlocal:    19652 ave 19652 max 19652 min
Histogram: 1 0 0 0 0 0 0 0 0 0
Nghost:    16745 ave 16745 max 16745 min
Histogram: 1 0 0 0 0 0 0 0 0 0
Neighs:    1.19127e+06 ave 1.19127e+06 max 1.19127e+06 min
Histogram: 1 0 0 0 0 0 0 0 0 0

Total # of neighbors = 1191274
Ave neighs/atom = 60.6185
Neighbor list builds = 505
Dangerous builds not checked
Setting up Verlet run ...
  Unit style    : metal
  Current step  : 52000
  Time step     : 0.001
Per MPI rank memory allocation (min/avg/max) = 18.19 | 18.19 | 18.19 Mbytes
Step Temp Press TotEng PotEng Enthalpy Volume 
   52000      1834.67    427.99493   -54199.449   -58859.678   -54088.865    413963.63 
   52495    1820.1928    567.58859   -54379.819   -59003.275   -54233.817    412130.31 
Loop time of 82.7456 on 1 procs for 495 steps with 19652 atoms

Performance: 0.517 ns/day, 46.434 hours/ns, 5.982 timesteps/s
99.9% CPU use with 1 MPI tasks x no OpenMP threads

MPI task timing breakdown:
Section |  min time  |  avg time  |  max time  |%varavg| %total
---------------------------------------------------------------
Pair    | 45.056     | 45.056     | 45.056     |   0.0 | 54.45
Neigh   | 35.908     | 35.908     | 35.908     |   0.0 | 43.40
Comm    | 0.67226    | 0.67226    | 0.67226    |   0.0 |  0.81
Output  | 0.00040913 | 0.00040913 | 0.00040913 |   0.0 |  0.00
Modify  | 0.87288    | 0.87288    | 0.87288    |   0.0 |  1.05
Other   |            | 0.2358     |            |       |  0.29

Nlocal:    19652 ave 19652 max 19652 min
Histogram: 1 0 0 0 0 0 0 0 0 0
Nghost:    16829 ave 16829 max 16829 min
Histogram: 1 0 0 0 0 0 0 0 0 0
Neighs:    1.1966e+06 ave 1.1966e+06 max 1.1966e+06 min
Histogram: 1 0 0 0 0 0 0 0 0 0

Total # of neighbors = 1196600
Ave neighs/atom = 60.8895
Neighbor list builds = 495
Dangerous builds not checked
Setting up Verlet run ...
  Unit style    : metal
  Current step  : 52495
  Time step     : 0.001
Per MPI rank memory allocation (min/avg/max) = 18.19 | 18.19 | 18.19 Mbytes
Step Temp Press TotEng PotEng Enthalpy Volume 
   52495    1820.1928    567.58859   -54379.819   -59003.275   -54233.817    412130.31 
   53000     1789.432    644.78077   -54473.472   -59018.792   -54307.969    411248.04 
Loop time of 85.6067 on 1 procs for 505 steps with 19652 atoms

Performance: 0.510 ns/day, 47.088 hours/ns, 5.899 timesteps/s
99.8% CPU use with 1 MPI tasks x no OpenMP threads

MPI task timing breakdown:
Section |  min time  |  avg time  |  max time  |%varavg| %total
---------------------------------------------------------------
Pair    | 46.541     | 46.541     | 46.541     |   0.0 | 54.37
Neigh   | 37.101     | 37.101     | 37.101     |   0.0 | 43.34
Comm    | 0.72592    | 0.72592    | 0.72592    |   0.0 |  0.85
Output  | 0.068901   | 0.068901   | 0.068901   |   0.0 |  0.08
Modify  | 0.92234    | 0.92234    | 0.92234    |   0.0 |  1.08
Other   |            | 0.2469     |            |       |  0.29

Nlocal:    19652 ave 19652 max 19652 min
Histogram: 1 0 0 0 0 0 0 0 0 0
Nghost:    16776 ave 16776 max 16776 min
Histogram: 1 0 0 0 0 0 0 0 0 0
Neighs:    1.19916e+06 ave 1.19916e+06 max 1.19916e+06 min
Histogram: 1 0 0 0 0 0 0 0 0 0

Total # of neighbors = 1199156
Ave neighs/atom = 61.0195
Neighbor list builds = 505
Dangerous builds not checked
Setting up Verlet run ...
  Unit style    : metal
  Current step  : 53000
  Time step     : 0.001
Per MPI rank memory allocation (min/avg/max) = 18.19 | 18.19 | 18.19 Mbytes
Step Temp Press TotEng PotEng Enthalpy Volume 
   53000     1789.432    644.78077   -54473.472   -59018.792   -54307.969    411248.04 
   53495    1754.3919    509.86758   -54646.941   -59103.256   -54516.241    410704.98 
Loop time of 81.5072 on 1 procs for 495 steps with 19652 atoms

Performance: 0.525 ns/day, 45.739 hours/ns, 6.073 timesteps/s
99.9% CPU use with 1 MPI tasks x no OpenMP threads

MPI task timing breakdown:
Section |  min time  |  avg time  |  max time  |%varavg| %total
---------------------------------------------------------------
Pair    | 44.382     | 44.382     | 44.382     |   0.0 | 54.45
Neigh   | 35.372     | 35.372     | 35.372     |   0.0 | 43.40
Comm    | 0.65764    | 0.65764    | 0.65764    |   0.0 |  0.81
Output  | 0.00019598 | 0.00019598 | 0.00019598 |   0.0 |  0.00
Modify  | 0.86377    | 0.86377    | 0.86377    |   0.0 |  1.06
Other   |            | 0.2313     |            |       |  0.28

Nlocal:    19652 ave 19652 max 19652 min
Histogram: 1 0 0 0 0 0 0 0 0 0
Nghost:    16839 ave 16839 max 16839 min
Histogram: 1 0 0 0 0 0 0 0 0 0
Neighs:    1.20063e+06 ave 1.20063e+06 max 1.20063e+06 min
Histogram: 1 0 0 0 0 0 0 0 0 0

Total # of neighbors = 1200627
Ave neighs/atom = 61.0944
Neighbor list builds = 495
Dangerous builds not checked
Setting up Verlet run ...
  Unit style    : metal
  Current step  : 53495
  Time step     : 0.001
Per MPI rank memory allocation (min/avg/max) = 18.19 | 18.19 | 18.19 Mbytes
Step Temp Press TotEng PotEng Enthalpy Volume 
   53495    1754.3919    509.86758   -54646.941   -59103.256   -54516.241    410704.98 
   54000    1742.6685    132.25025   -54747.999   -59174.536    -54714.17    409835.26 
Loop time of 84.8683 on 1 procs for 505 steps with 19652 atoms

Performance: 0.514 ns/day, 46.682 hours/ns, 5.950 timesteps/s
99.9% CPU use with 1 MPI tasks x no OpenMP threads

MPI task timing breakdown:
Section |  min time  |  avg time  |  max time  |%varavg| %total
---------------------------------------------------------------
Pair    | 46.211     | 46.211     | 46.211     |   0.0 | 54.45
Neigh   | 36.738     | 36.738     | 36.738     |   0.0 | 43.29
Comm    | 0.69956    | 0.69956    | 0.69956    |   0.0 |  0.82
Output  | 0.070498   | 0.070498   | 0.070498   |   0.0 |  0.08
Modify  | 0.90565    | 0.90565    | 0.90565    |   0.0 |  1.07
Other   |            | 0.2433     |            |       |  0.29

Nlocal:    19652 ave 19652 max 19652 min
Histogram: 1 0 0 0 0 0 0 0 0 0
Nghost:    16835 ave 16835 max 16835 min
Histogram: 1 0 0 0 0 0 0 0 0 0
Neighs:    1.20329e+06 ave 1.20329e+06 max 1.20329e+06 min
Histogram: 1 0 0 0 0 0 0 0 0 0

Total # of neighbors = 1203294
Ave neighs/atom = 61.2301
Neighbor list builds = 505
Dangerous builds not checked
Setting up Verlet run ...
  Unit style    : metal
  Current step  : 54000
  Time step     : 0.001
Per MPI rank memory allocation (min/avg/max) = 18.19 | 18.19 | 18.19 Mbytes
Step Temp Press TotEng PotEng Enthalpy Volume 
   54000    1742.6685    132.25025   -54747.999   -59174.536    -54714.17    409835.26 
   54495     1717.603     219.2332    -54927.99   -59290.858   -54872.122    408288.02 
Loop time of 82.2804 on 1 procs for 495 steps with 19652 atoms

Performance: 0.520 ns/day, 46.173 hours/ns, 6.016 timesteps/s
99.9% CPU use with 1 MPI tasks x no OpenMP threads

MPI task timing breakdown:
Section |  min time  |  avg time  |  max time  |%varavg| %total
---------------------------------------------------------------
Pair    | 44.742     | 44.742     | 44.742     |   0.0 | 54.38
Neigh   | 35.736     | 35.736     | 35.736     |   0.0 | 43.43
Comm    | 0.67258    | 0.67258    | 0.67258    |   0.0 |  0.82
Output  | 0.00028396 | 0.00028396 | 0.00028396 |   0.0 |  0.00
Modify  | 0.88869    | 0.88869    | 0.88869    |   0.0 |  1.08
Other   |            | 0.2403     |            |       |  0.29

Nlocal:    19652 ave 19652 max 19652 min
Histogram: 1 0 0 0 0 0 0 0 0 0
Nghost:    16859 ave 16859 max 16859 min
Histogram: 1 0 0 0 0 0 0 0 0 0
Neighs:    1.20801e+06 ave 1.20801e+06 max 1.20801e+06 min
Histogram: 1 0 0 0 0 0 0 0 0 0

Total # of neighbors = 1208008
Ave neighs/atom = 61.47
Neighbor list builds = 495
Dangerous builds not checked
Setting up Verlet run ...
  Unit style    : metal
  Current step  : 54495
  Time step     : 0.001
Per MPI rank memory allocation (min/avg/max) = 18.19 | 18.19 | 18.19 Mbytes
Step Temp Press TotEng PotEng Enthalpy Volume 
   54495     1717.603     219.2332    -54927.99   -59290.858   -54872.122    408288.02 
   55000    1706.9251    20.323344   -54995.182   -59330.927   -54990.012     407519.2 
Loop time of 84.7402 on 1 procs for 505 steps with 19652 atoms

Performance: 0.515 ns/day, 46.612 hours/ns, 5.959 timesteps/s
99.9% CPU use with 1 MPI tasks x no OpenMP threads

MPI task timing breakdown:
Section |  min time  |  avg time  |  max time  |%varavg| %total
---------------------------------------------------------------
Pair    | 46.209     | 46.209     | 46.209     |   0.0 | 54.53
Neigh   | 36.627     | 36.627     | 36.627     |   0.0 | 43.22
Comm    | 0.69008    | 0.69008    | 0.69008    |   0.0 |  0.81
Output  | 0.070098   | 0.070098   | 0.070098   |   0.0 |  0.08
Modify  | 0.90362    | 0.90362    | 0.90362    |   0.0 |  1.07
Other   |            | 0.2401     |            |       |  0.28

Nlocal:    19652 ave 19652 max 19652 min
Histogram: 1 0 0 0 0 0 0 0 0 0
Nghost:    16865 ave 16865 max 16865 min
Histogram: 1 0 0 0 0 0 0 0 0 0
Neighs:    1.20976e+06 ave 1.20976e+06 max 1.20976e+06 min
Histogram: 1 0 0 0 0 0 0 0 0 0

Total # of neighbors = 1209759
Ave neighs/atom = 61.5591
Neighbor list builds = 505
Dangerous builds not checked
Setting up Verlet run ...
  Unit style    : metal
  Current step  : 55000
  Time step     : 0.001
Per MPI rank memory allocation (min/avg/max) = 18.19 | 18.19 | 18.19 Mbytes
Step Temp Press TotEng PotEng Enthalpy Volume 
   55000    1706.9251    20.323344   -54995.182   -59330.927   -54990.012     407519.2 
   55495    1676.8411   -52.587537   -55191.086   -59450.415   -55204.411    405969.36 
Loop time of 78.0873 on 1 procs for 495 steps with 19652 atoms

Performance: 0.548 ns/day, 43.820 hours/ns, 6.339 timesteps/s
99.7% CPU use with 1 MPI tasks x no OpenMP threads

MPI task timing breakdown:
Section |  min time  |  avg time  |  max time  |%varavg| %total
---------------------------------------------------------------
Pair    | 42.568     | 42.568     | 42.568     |   0.0 | 54.51
Neigh   | 33.885     | 33.885     | 33.885     |   0.0 | 43.39
Comm    | 0.62966    | 0.62966    | 0.62966    |   0.0 |  0.81
Output  | 0.00034189 | 0.00034189 | 0.00034189 |   0.0 |  0.00
Modify  | 0.77836    | 0.77836    | 0.77836    |   0.0 |  1.00
Other   |            | 0.2258     |            |       |  0.29

Nlocal:    19652 ave 19652 max 19652 min
Histogram: 1 0 0 0 0 0 0 0 0 0
Nghost:    16899 ave 16899 max 16899 min
Histogram: 1 0 0 0 0 0 0 0 0 0
Neighs:    1.21506e+06 ave 1.21506e+06 max 1.21506e+06 min
Histogram: 1 0 0 0 0 0 0 0 0 0

Total # of neighbors = 1215055
Ave neighs/atom = 61.8286
Neighbor list builds = 495
Dangerous builds not checked
Setting up Verlet run ...
  Unit style    : metal
  Current step  : 55495
  Time step     : 0.001
Per MPI rank memory allocation (min/avg/max) = 18.19 | 18.19 | 18.19 Mbytes
Step Temp Press TotEng PotEng Enthalpy Volume 
   55495    1676.8411   -52.587537   -55191.086   -59450.415   -55204.411    405969.36 
   56000    1665.7438    297.09087   -55259.709    -59490.85   -55184.604    405035.09 
Loop time of 84.6186 on 1 procs for 505 steps with 19652 atoms

Performance: 0.516 ns/day, 46.545 hours/ns, 5.968 timesteps/s
99.6% CPU use with 1 MPI tasks x no OpenMP threads

MPI task timing breakdown:
Section |  min time  |  avg time  |  max time  |%varavg| %total
---------------------------------------------------------------
Pair    | 46.293     | 46.293     | 46.293     |   0.0 | 54.71
Neigh   | 36.414     | 36.414     | 36.414     |   0.0 | 43.03
Comm    | 0.71213    | 0.71213    | 0.71213    |   0.0 |  0.84
Output  | 0.068785   | 0.068785   | 0.068785   |   0.0 |  0.08
Modify  | 0.88534    | 0.88534    | 0.88534    |   0.0 |  1.05
Other   |            | 0.2458     |            |       |  0.29

Nlocal:    19652 ave 19652 max 19652 min
Histogram: 1 0 0 0 0 0 0 0 0 0
Nghost:    16894 ave 16894 max 16894 min
Histogram: 1 0 0 0 0 0 0 0 0 0
Neighs:    1.2179e+06 ave 1.2179e+06 max 1.2179e+06 min
Histogram: 1 0 0 0 0 0 0 0 0 0

Total # of neighbors = 1217901
Ave neighs/atom = 61.9734
Neighbor list builds = 505
Dangerous builds not checked
Setting up Verlet run ...
  Unit style    : metal
  Current step  : 56000
  Time step     : 0.001
Per MPI rank memory allocation (min/avg/max) = 18.19 | 18.19 | 18.19 Mbytes
Step Temp Press TotEng PotEng Enthalpy Volume 
   56000    1665.7438    297.09087   -55259.709    -59490.85   -55184.604    405035.09 
   56495    1629.7548    449.54605   -55478.185   -59617.911   -55365.042    403239.86 
Loop time of 84.9024 on 1 procs for 495 steps with 19652 atoms

Performance: 0.504 ns/day, 47.644 hours/ns, 5.830 timesteps/s
99.7% CPU use with 1 MPI tasks x no OpenMP threads

MPI task timing breakdown:
Section |  min time  |  avg time  |  max time  |%varavg| %total
---------------------------------------------------------------
Pair    | 46.438     | 46.438     | 46.438     |   0.0 | 54.70
Neigh   | 36.609     | 36.609     | 36.609     |   0.0 | 43.12
Comm    | 0.70495    | 0.70495    | 0.70495    |   0.0 |  0.83
Output  | 0.00033998 | 0.00033998 | 0.00033998 |   0.0 |  0.00
Modify  | 0.90628    | 0.90628    | 0.90628    |   0.0 |  1.07
Other   |            | 0.2439     |            |       |  0.29

Nlocal:    19652 ave 19652 max 19652 min
Histogram: 1 0 0 0 0 0 0 0 0 0
Nghost:    16946 ave 16946 max 16946 min
Histogram: 1 0 0 0 0 0 0 0 0 0
Neighs:    1.22333e+06 ave 1.22333e+06 max 1.22333e+06 min
Histogram: 1 0 0 0 0 0 0 0 0 0

Total # of neighbors = 1223329
Ave neighs/atom = 62.2496
Neighbor list builds = 495
Dangerous builds not checked
Setting up Verlet run ...
  Unit style    : metal
  Current step  : 56495
  Time step     : 0.001
Per MPI rank memory allocation (min/avg/max) = 18.19 | 18.19 | 18.19 Mbytes
Step Temp Press TotEng PotEng Enthalpy Volume 
   56495    1629.7548    449.54605   -55478.185   -59617.911   -55365.042    403239.86 
   57000    1610.0005    480.96514   -55544.602    -59634.15   -55423.707    402724.03 
Loop time of 84.6685 on 1 procs for 505 steps with 19652 atoms

Performance: 0.515 ns/day, 46.572 hours/ns, 5.964 timesteps/s
99.9% CPU use with 1 MPI tasks x no OpenMP threads

MPI task timing breakdown:
Section |  min time  |  avg time  |  max time  |%varavg| %total
---------------------------------------------------------------
Pair    | 46.338     | 46.338     | 46.338     |   0.0 | 54.73
Neigh   | 36.449     | 36.449     | 36.449     |   0.0 | 43.05
Comm    | 0.70231    | 0.70231    | 0.70231    |   0.0 |  0.83
Output  | 0.069744   | 0.069744   | 0.069744   |   0.0 |  0.08
Modify  | 0.8686     | 0.8686     | 0.8686     |   0.0 |  1.03
Other   |            | 0.2403     |            |       |  0.28

Nlocal:    19652 ave 19652 max 19652 min
Histogram: 1 0 0 0 0 0 0 0 0 0
Nghost:    16932 ave 16932 max 16932 min
Histogram: 1 0 0 0 0 0 0 0 0 0
Neighs:    1.2248e+06 ave 1.2248e+06 max 1.2248e+06 min
Histogram: 1 0 0 0 0 0 0 0 0 0

Total # of neighbors = 1224801
Ave neighs/atom = 62.3245
Neighbor list builds = 505
Dangerous builds not checked
Setting up Verlet run ...
  Unit style    : metal
  Current step  : 57000
  Time step     : 0.001
Per MPI rank memory allocation (min/avg/max) = 18.19 | 18.19 | 18.19 Mbytes
Step Temp Press TotEng PotEng Enthalpy Volume 
   57000    1610.0005    480.96514   -55544.602    -59634.15   -55423.707    402724.03 
   57495    1572.0586    63.131382   -55755.507   -59748.679   -55739.688       401446 
Loop time of 86.6962 on 1 procs for 495 steps with 19652 atoms

Performance: 0.493 ns/day, 48.651 hours/ns, 5.710 timesteps/s
99.9% CPU use with 1 MPI tasks x no OpenMP threads

MPI task timing breakdown:
Section |  min time  |  avg time  |  max time  |%varavg| %total
---------------------------------------------------------------
Pair    | 47.772     | 47.772     | 47.772     |   0.0 | 55.10
Neigh   | 36.997     | 36.997     | 36.997     |   0.0 | 42.67
Comm    | 0.7395     | 0.7395     | 0.7395     |   0.0 |  0.85
Output  | 0.0002048  | 0.0002048  | 0.0002048  |   0.0 |  0.00
Modify  | 0.93585    | 0.93585    | 0.93585    |   0.0 |  1.08
Other   |            | 0.2523     |            |       |  0.29

Nlocal:    19652 ave 19652 max 19652 min
Histogram: 1 0 0 0 0 0 0 0 0 0
Nghost:    16874 ave 16874 max 16874 min
Histogram: 1 0 0 0 0 0 0 0 0 0
Neighs:    1.22893e+06 ave 1.22893e+06 max 1.22893e+06 min
Histogram: 1 0 0 0 0 0 0 0 0 0

Total # of neighbors = 1228932
Ave neighs/atom = 62.5347
Neighbor list builds = 495
Dangerous builds not checked
Setting up Verlet run ...
  Unit style    : metal
  Current step  : 57495
  Time step     : 0.001
Per MPI rank memory allocation (min/avg/max) = 18.19 | 18.19 | 18.19 Mbytes
Step Temp Press TotEng PotEng Enthalpy Volume 
   57495    1572.0586    63.131382   -55755.507   -59748.679   -55739.688       401446 
   58000    1556.6377   -9.8185464   -55850.925   -59804.927   -55853.383    401024.81 
Loop time of 83.2341 on 1 procs for 505 steps with 19652 atoms

Performance: 0.524 ns/day, 45.783 hours/ns, 6.067 timesteps/s
99.7% CPU use with 1 MPI tasks x no OpenMP threads

MPI task timing breakdown:
Section |  min time  |  avg time  |  max time  |%varavg| %total
---------------------------------------------------------------
Pair    | 45.354     | 45.354     | 45.354     |   0.0 | 54.49
Neigh   | 35.905     | 35.905     | 35.905     |   0.0 | 43.14
Comm    | 0.65623    | 0.65623    | 0.65623    |   0.0 |  0.79
Output  | 0.21613    | 0.21613    | 0.21613    |   0.0 |  0.26
Modify  | 0.8657     | 0.8657     | 0.8657     |   0.0 |  1.04
Other   |            | 0.237      |            |       |  0.28

Nlocal:    19652 ave 19652 max 19652 min
Histogram: 1 0 0 0 0 0 0 0 0 0
Nghost:    16941 ave 16941 max 16941 min
Histogram: 1 0 0 0 0 0 0 0 0 0
Neighs:    1.23051e+06 ave 1.23051e+06 max 1.23051e+06 min
Histogram: 1 0 0 0 0 0 0 0 0 0

Total # of neighbors = 1230511
Ave neighs/atom = 62.6151
Neighbor list builds = 505
Dangerous builds not checked
Setting up Verlet run ...
  Unit style    : metal
  Current step  : 58000
  Time step     : 0.001
Per MPI rank memory allocation (min/avg/max) = 18.19 | 18.19 | 18.19 Mbytes
Step Temp Press TotEng PotEng Enthalpy Volume 
   58000    1556.6377   -9.8185464   -55850.925   -59804.927   -55853.383    401024.81 
   58495    1512.5382    404.32357   -56065.202   -59907.186   -55964.561    398799.91 
Loop time of 86.3963 on 1 procs for 495 steps with 19652 atoms

Performance: 0.495 ns/day, 48.483 hours/ns, 5.729 timesteps/s
99.9% CPU use with 1 MPI tasks x no OpenMP threads

MPI task timing breakdown:
Section |  min time  |  avg time  |  max time  |%varavg| %total
---------------------------------------------------------------
Pair    | 47.444     | 47.444     | 47.444     |   0.0 | 54.91
Neigh   | 37.034     | 37.034     | 37.034     |   0.0 | 42.87
Comm    | 0.73482    | 0.73482    | 0.73482    |   0.0 |  0.85
Output  | 0.00018501 | 0.00018501 | 0.00018501 |   0.0 |  0.00
Modify  | 0.93181    | 0.93181    | 0.93181    |   0.0 |  1.08
Other   |            | 0.2518     |            |       |  0.29

Nlocal:    19652 ave 19652 max 19652 min
Histogram: 1 0 0 0 0 0 0 0 0 0
Nghost:    17006 ave 17006 max 17006 min
Histogram: 1 0 0 0 0 0 0 0 0 0
Neighs:    1.23728e+06 ave 1.23728e+06 max 1.23728e+06 min
Histogram: 1 0 0 0 0 0 0 0 0 0

Total # of neighbors = 1237276
Ave neighs/atom = 62.9593
Neighbor list builds = 495
Dangerous builds not checked
Setting up Verlet run ...
  Unit style    : metal
  Current step  : 58495
  Time step     : 0.001
Per MPI rank memory allocation (min/avg/max) = 18.19 | 18.19 | 18.19 Mbytes
Step Temp Press TotEng PotEng Enthalpy Volume 
   58495    1512.5382    404.32357   -56065.202   -59907.186   -55964.561    398799.91 
   59000    1510.3302    835.61924   -56095.241   -59931.618   -55887.532     398251.7 
Loop time of 83.0746 on 1 procs for 505 steps with 19652 atoms

Performance: 0.525 ns/day, 45.696 hours/ns, 6.079 timesteps/s
100.0% CPU use with 1 MPI tasks x no OpenMP threads

MPI task timing breakdown:
Section |  min time  |  avg time  |  max time  |%varavg| %total
---------------------------------------------------------------
Pair    | 45.312     | 45.312     | 45.312     |   0.0 | 54.54
Neigh   | 35.896     | 35.896     | 35.896     |   0.0 | 43.21
Comm    | 0.68741    | 0.68741    | 0.68741    |   0.0 |  0.83
Output  | 0.067029   | 0.067029   | 0.067029   |   0.0 |  0.08
Modify  | 0.87491    | 0.87491    | 0.87491    |   0.0 |  1.05
Other   |            | 0.2368     |            |       |  0.29

Nlocal:    19652 ave 19652 max 19652 min
Histogram: 1 0 0 0 0 0 0 0 0 0
Nghost:    16948 ave 16948 max 16948 min
Histogram: 1 0 0 0 0 0 0 0 0 0
Neighs:    1.23928e+06 ave 1.23928e+06 max 1.23928e+06 min
Histogram: 1 0 0 0 0 0 0 0 0 0

Total # of neighbors = 1239278
Ave neighs/atom = 63.0612
Neighbor list builds = 505
Dangerous builds not checked
Setting up Verlet run ...
  Unit style    : metal
  Current step  : 59000
  Time step     : 0.001
Per MPI rank memory allocation (min/avg/max) = 18.19 | 18.19 | 18.19 Mbytes
Step Temp Press TotEng PotEng Enthalpy Volume 
   59000    1510.3302    835.61924   -56095.241   -59931.618   -55887.532     398251.7 
   59495    1468.2837    628.36221   -56329.195   -60058.769   -56173.536    396892.32 
Loop time of 80.7088 on 1 procs for 495 steps with 19652 atoms

Performance: 0.530 ns/day, 45.291 hours/ns, 6.133 timesteps/s
100.0% CPU use with 1 MPI tasks x no OpenMP threads

MPI task timing breakdown:
Section |  min time  |  avg time  |  max time  |%varavg| %total
---------------------------------------------------------------
Pair    | 44.116     | 44.116     | 44.116     |   0.0 | 54.66
Neigh   | 34.861     | 34.861     | 34.861     |   0.0 | 43.19
Comm    | 0.65924    | 0.65924    | 0.65924    |   0.0 |  0.82
Output  | 0.00019598 | 0.00019598 | 0.00019598 |   0.0 |  0.00
Modify  | 0.84157    | 0.84157    | 0.84157    |   0.0 |  1.04
Other   |            | 0.2311     |            |       |  0.29

Nlocal:    19652 ave 19652 max 19652 min
Histogram: 1 0 0 0 0 0 0 0 0 0
Nghost:    16989 ave 16989 max 16989 min
Histogram: 1 0 0 0 0 0 0 0 0 0
Neighs:    1.24332e+06 ave 1.24332e+06 max 1.24332e+06 min
Histogram: 1 0 0 0 0 0 0 0 0 0

Total # of neighbors = 1243324
Ave neighs/atom = 63.267
Neighbor list builds = 495
Dangerous builds not checked
Setting up Verlet run ...
  Unit style    : metal
  Current step  : 59495
  Time step     : 0.001
Per MPI rank memory allocation (min/avg/max) = 18.19 | 18.19 | 18.19 Mbytes
Step Temp Press TotEng PotEng Enthalpy Volume 
   59495    1468.2837    628.36221   -56329.195   -60058.769   -56173.536    396892.32 
   60000    1449.0553    192.62314   -56442.138    -60122.87   -56394.504     396201.3 
Loop time of 86.8441 on 1 procs for 505 steps with 19652 atoms

Performance: 0.502 ns/day, 47.769 hours/ns, 5.815 timesteps/s
99.3% CPU use with 1 MPI tasks x no OpenMP threads

MPI task timing breakdown:
Section |  min time  |  avg time  |  max time  |%varavg| %total
---------------------------------------------------------------
Pair    | 47.462     | 47.462     | 47.462     |   0.0 | 54.65
Neigh   | 37.036     | 37.036     | 37.036     |   0.0 | 42.65
Comm    | 0.72261    | 0.72261    | 0.72261    |   0.0 |  0.83
Output  | 0.45015    | 0.45015    | 0.45015    |   0.0 |  0.52
Modify  | 0.92589    | 0.92589    | 0.92589    |   0.0 |  1.07
Other   |            | 0.2473     |            |       |  0.28

Nlocal:    19652 ave 19652 max 19652 min
Histogram: 1 0 0 0 0 0 0 0 0 0
Nghost:    17100 ave 17100 max 17100 min
Histogram: 1 0 0 0 0 0 0 0 0 0
Neighs:    1.24563e+06 ave 1.24563e+06 max 1.24563e+06 min
Histogram: 1 0 0 0 0 0 0 0 0 0

Total # of neighbors = 1245628
Ave neighs/atom = 63.3843
Neighbor list builds = 505
Dangerous builds not checked
Setting up Verlet run ...
  Unit style    : metal
  Current step  : 60000
  Time step     : 0.001
Per MPI rank memory allocation (min/avg/max) = 18.19 | 18.19 | 18.19 Mbytes
Step Temp Press TotEng PotEng Enthalpy Volume 
   60000    1449.0553    192.62314   -56442.138    -60122.87   -56394.504     396201.3 
   60495    1415.9143   -470.28839   -56607.651   -60204.202   -56723.734    395472.37 
Loop time of 82.0227 on 1 procs for 495 steps with 19652 atoms

Performance: 0.521 ns/day, 46.028 hours/ns, 6.035 timesteps/s
99.9% CPU use with 1 MPI tasks x no OpenMP threads

MPI task timing breakdown:
Section |  min time  |  avg time  |  max time  |%varavg| %total
---------------------------------------------------------------
Pair    | 44.94      | 44.94      | 44.94      |   0.0 | 54.79
Neigh   | 35.307     | 35.307     | 35.307     |   0.0 | 43.05
Comm    | 0.67609    | 0.67609    | 0.67609    |   0.0 |  0.82
Output  | 0.00021911 | 0.00021911 | 0.00021911 |   0.0 |  0.00
Modify  | 0.86182    | 0.86182    | 0.86182    |   0.0 |  1.05
Other   |            | 0.2371     |            |       |  0.29

Nlocal:    19652 ave 19652 max 19652 min
Histogram: 1 0 0 0 0 0 0 0 0 0
Nghost:    17068 ave 17068 max 17068 min
Histogram: 1 0 0 0 0 0 0 0 0 0
Neighs:    1.24806e+06 ave 1.24806e+06 max 1.24806e+06 min
Histogram: 1 0 0 0 0 0 0 0 0 0

Total # of neighbors = 1248059
Ave neighs/atom = 63.508
Neighbor list builds = 495
Dangerous builds not checked
Setting up Verlet run ...
  Unit style    : metal
  Current step  : 60495
  Time step     : 0.001
Per MPI rank memory allocation (min/avg/max) = 18.19 | 18.19 | 18.19 Mbytes
Step Temp Press TotEng PotEng Enthalpy Volume 
   60495    1415.9143   -470.28839   -56607.651   -60204.202   -56723.734    395472.37 
   61000     1385.923    495.10377   -56731.573   -60251.944   -56609.859    393871.42 
Loop time of 82.4647 on 1 procs for 505 steps with 19652 atoms

Performance: 0.529 ns/day, 45.360 hours/ns, 6.124 timesteps/s
99.7% CPU use with 1 MPI tasks x no OpenMP threads

MPI task timing breakdown:
Section |  min time  |  avg time  |  max time  |%varavg| %total
---------------------------------------------------------------
Pair    | 45.094     | 45.094     | 45.094     |   0.0 | 54.68
Neigh   | 35.372     | 35.372     | 35.372     |   0.0 | 42.89
Comm    | 0.67577    | 0.67577    | 0.67577    |   0.0 |  0.82
Output  | 0.24252    | 0.24252    | 0.24252    |   0.0 |  0.29
Modify  | 0.84323    | 0.84323    | 0.84323    |   0.0 |  1.02
Other   |            | 0.2378     |            |       |  0.29

Nlocal:    19652 ave 19652 max 19652 min
Histogram: 1 0 0 0 0 0 0 0 0 0
Nghost:    17132 ave 17132 max 17132 min
Histogram: 1 0 0 0 0 0 0 0 0 0
Neighs:    1.25339e+06 ave 1.25339e+06 max 1.25339e+06 min
Histogram: 1 0 0 0 0 0 0 0 0 0

Total # of neighbors = 1253389
Ave neighs/atom = 63.7792
Neighbor list builds = 505
Dangerous builds not checked
Setting up Verlet run ...
  Unit style    : metal
  Current step  : 61000
  Time step     : 0.001
Per MPI rank memory allocation (min/avg/max) = 18.19 | 18.19 | 18.19 Mbytes
Step Temp Press TotEng PotEng Enthalpy Volume 
   61000     1385.923    495.10377   -56731.573   -60251.944   -56609.859    393871.42 
   61495    1367.4131    573.45544   -56916.008   -60389.362   -56775.574    392356.84 
Loop time of 82.3977 on 1 procs for 495 steps with 19652 atoms

Performance: 0.519 ns/day, 46.239 hours/ns, 6.007 timesteps/s
99.7% CPU use with 1 MPI tasks x no OpenMP threads

MPI task timing breakdown:
Section |  min time  |  avg time  |  max time  |%varavg| %total
---------------------------------------------------------------
Pair    | 45.342     | 45.342     | 45.342     |   0.0 | 55.03
Neigh   | 35.322     | 35.322     | 35.322     |   0.0 | 42.87
Comm    | 0.64781    | 0.64781    | 0.64781    |   0.0 |  0.79
Output  | 0.0002501  | 0.0002501  | 0.0002501  |   0.0 |  0.00
Modify  | 0.8542     | 0.8542     | 0.8542     |   0.0 |  1.04
Other   |            | 0.2315     |            |       |  0.28

Nlocal:    19652 ave 19652 max 19652 min
Histogram: 1 0 0 0 0 0 0 0 0 0
Nghost:    17044 ave 17044 max 17044 min
Histogram: 1 0 0 0 0 0 0 0 0 0
Neighs:    1.25839e+06 ave 1.25839e+06 max 1.25839e+06 min
Histogram: 1 0 0 0 0 0 0 0 0 0

Total # of neighbors = 1258390
Ave neighs/atom = 64.0337
Neighbor list builds = 495
Dangerous builds not checked
Setting up Verlet run ...
  Unit style    : metal
  Current step  : 61495
  Time step     : 0.001
Per MPI rank memory allocation (min/avg/max) = 18.19 | 18.19 | 18.19 Mbytes
Step Temp Press TotEng PotEng Enthalpy Volume 
   61495    1367.4131    573.45544   -56916.008   -60389.362   -56775.574    392356.84 
   62000     1355.504    700.44479     -56991.2   -60434.303   -56820.053     391474.8 
Loop time of 83.6299 on 1 procs for 505 steps with 19652 atoms

Performance: 0.522 ns/day, 46.001 hours/ns, 6.039 timesteps/s
99.8% CPU use with 1 MPI tasks x no OpenMP threads

MPI task timing breakdown:
Section |  min time  |  avg time  |  max time  |%varavg| %total
---------------------------------------------------------------
Pair    | 45.471     | 45.471     | 45.471     |   0.0 | 54.37
Neigh   | 36.313     | 36.313     | 36.313     |   0.0 | 43.42
Comm    | 0.65951    | 0.65951    | 0.65951    |   0.0 |  0.79
Output  | 0.06979    | 0.06979    | 0.06979    |   0.0 |  0.08
Modify  | 0.87713    | 0.87713    | 0.87713    |   0.0 |  1.05
Other   |            | 0.2396     |            |       |  0.29

Nlocal:    19652 ave 19652 max 19652 min
Histogram: 1 0 0 0 0 0 0 0 0 0
Nghost:    17101 ave 17101 max 17101 min
Histogram: 1 0 0 0 0 0 0 0 0 0
Neighs:    1.26087e+06 ave 1.26087e+06 max 1.26087e+06 min
Histogram: 1 0 0 0 0 0 0 0 0 0

Total # of neighbors = 1260869
Ave neighs/atom = 64.1598
Neighbor list builds = 505
Dangerous builds not checked
Setting up Verlet run ...
  Unit style    : metal
  Current step  : 62000
  Time step     : 0.001
Per MPI rank memory allocation (min/avg/max) = 18.19 | 18.19 | 18.19 Mbytes
Step Temp Press TotEng PotEng Enthalpy Volume 
   62000     1355.504    700.44479     -56991.2   -60434.303   -56820.053     391474.8 
   62495    1323.7554    1296.6788   -57188.448   -60550.907   -56873.036     389722.4 
Loop time of 84.0366 on 1 procs for 495 steps with 19652 atoms

Performance: 0.509 ns/day, 47.159 hours/ns, 5.890 timesteps/s
99.9% CPU use with 1 MPI tasks x no OpenMP threads

MPI task timing breakdown:
Section |  min time  |  avg time  |  max time  |%varavg| %total
---------------------------------------------------------------
Pair    | 46.493     | 46.493     | 46.493     |   0.0 | 55.33
Neigh   | 35.777     | 35.777     | 35.777     |   0.0 | 42.57
Comm    | 0.65347    | 0.65347    | 0.65347    |   0.0 |  0.78
Output  | 0.00020599 | 0.00020599 | 0.00020599 |   0.0 |  0.00
Modify  | 0.87457    | 0.87457    | 0.87457    |   0.0 |  1.04
Other   |            | 0.238      |            |       |  0.28

Nlocal:    19652 ave 19652 max 19652 min
Histogram: 1 0 0 0 0 0 0 0 0 0
Nghost:    17214 ave 17214 max 17214 min
Histogram: 1 0 0 0 0 0 0 0 0 0
Neighs:    1.26726e+06 ave 1.26726e+06 max 1.26726e+06 min
Histogram: 1 0 0 0 0 0 0 0 0 0

Total # of neighbors = 1267258
Ave neighs/atom = 64.4849
Neighbor list builds = 495
Dangerous builds not checked
Setting up Verlet run ...
  Unit style    : metal
  Current step  : 62495
  Time step     : 0.001
Per MPI rank memory allocation (min/avg/max) = 18.19 | 18.19 | 18.19 Mbytes
Step Temp Press TotEng PotEng Enthalpy Volume 
   62495    1323.7554    1296.6788   -57188.448   -60550.907   -56873.036     389722.4 
   63000    1300.8302    889.34343   -57326.194   -60630.421   -57110.308    388924.37 
Loop time of 88.5126 on 1 procs for 505 steps with 19652 atoms

Performance: 0.493 ns/day, 48.687 hours/ns, 5.705 timesteps/s
99.7% CPU use with 1 MPI tasks x no OpenMP threads

MPI task timing breakdown:
Section |  min time  |  avg time  |  max time  |%varavg| %total
---------------------------------------------------------------
Pair    | 48.665     | 48.665     | 48.665     |   0.0 | 54.98
Neigh   | 37.816     | 37.816     | 37.816     |   0.0 | 42.72
Comm    | 0.74996    | 0.74996    | 0.74996    |   0.0 |  0.85
Output  | 0.069672   | 0.069672   | 0.069672   |   0.0 |  0.08
Modify  | 0.95782    | 0.95782    | 0.95782    |   0.0 |  1.08
Other   |            | 0.2545     |            |       |  0.29

Nlocal:    19652 ave 19652 max 19652 min
Histogram: 1 0 0 0 0 0 0 0 0 0
Nghost:    17191 ave 17191 max 17191 min
Histogram: 1 0 0 0 0 0 0 0 0 0
Neighs:    1.2697e+06 ave 1.2697e+06 max 1.2697e+06 min
Histogram: 1 0 0 0 0 0 0 0 0 0

Total # of neighbors = 1269701
Ave neighs/atom = 64.6093
Neighbor list builds = 505
Dangerous builds not checked
Setting up Verlet run ...
  Unit style    : metal
  Current step  : 63000
  Time step     : 0.001
Per MPI rank memory allocation (min/avg/max) = 18.19 | 18.19 | 18.19 Mbytes
Step Temp Press TotEng PotEng Enthalpy Volume 
   63000    1300.8302    889.34343   -57326.194   -60630.421   -57110.308    388924.37 
   63495      1269.49    671.99751   -57479.881   -60704.501    -57317.14    388007.17 
Loop time of 85.4655 on 1 procs for 495 steps with 19652 atoms

Performance: 0.500 ns/day, 47.960 hours/ns, 5.792 timesteps/s
99.9% CPU use with 1 MPI tasks x no OpenMP threads

MPI task timing breakdown:
Section |  min time  |  avg time  |  max time  |%varavg| %total
---------------------------------------------------------------
Pair    | 47.165     | 47.165     | 47.165     |   0.0 | 55.19
Neigh   | 36.43      | 36.43      | 36.43      |   0.0 | 42.63
Comm    | 0.70825    | 0.70825    | 0.70825    |   0.0 |  0.83
Output  | 0.00022292 | 0.00022292 | 0.00022292 |   0.0 |  0.00
Modify  | 0.91451    | 0.91451    | 0.91451    |   0.0 |  1.07
Other   |            | 0.2477     |            |       |  0.29

Nlocal:    19652 ave 19652 max 19652 min
Histogram: 1 0 0 0 0 0 0 0 0 0
Nghost:    17203 ave 17203 max 17203 min
Histogram: 1 0 0 0 0 0 0 0 0 0
Neighs:    1.27279e+06 ave 1.27279e+06 max 1.27279e+06 min
Histogram: 1 0 0 0 0 0 0 0 0 0

Total # of neighbors = 1272792
Ave neighs/atom = 64.7665
Neighbor list builds = 495
Dangerous builds not checked
Setting up Verlet run ...
  Unit style    : metal
  Current step  : 63495
  Time step     : 0.001
Per MPI rank memory allocation (min/avg/max) = 18.19 | 18.19 | 18.19 Mbytes
Step Temp Press TotEng PotEng Enthalpy Volume 
   63495      1269.49    671.99751   -57479.881   -60704.501    -57317.14    388007.17 
   64000    1247.6903    1154.1455    -57596.26   -60765.507   -57317.664    386744.29 
Loop time of 84.3346 on 1 procs for 505 steps with 19652 atoms

Performance: 0.517 ns/day, 46.389 hours/ns, 5.988 timesteps/s
99.7% CPU use with 1 MPI tasks x no OpenMP threads

MPI task timing breakdown:
Section |  min time  |  avg time  |  max time  |%varavg| %total
---------------------------------------------------------------
Pair    | 46.403     | 46.403     | 46.403     |   0.0 | 55.02
Neigh   | 36.019     | 36.019     | 36.019     |   0.0 | 42.71
Comm    | 0.68724    | 0.68724    | 0.68724    |   0.0 |  0.81
Output  | 0.070047   | 0.070047   | 0.070047   |   0.0 |  0.08
Modify  | 0.8995     | 0.8995     | 0.8995     |   0.0 |  1.07
Other   |            | 0.2564     |            |       |  0.30

Nlocal:    19652 ave 19652 max 19652 min
Histogram: 1 0 0 0 0 0 0 0 0 0
Nghost:    17272 ave 17272 max 17272 min
Histogram: 1 0 0 0 0 0 0 0 0 0
Neighs:    1.27737e+06 ave 1.27737e+06 max 1.27737e+06 min
Histogram: 1 0 0 0 0 0 0 0 0 0

Total # of neighbors = 1277368
Ave neighs/atom = 64.9994
Neighbor list builds = 505
Dangerous builds not checked
Setting up Verlet run ...
  Unit style    : metal
  Current step  : 64000
  Time step     : 0.001
Per MPI rank memory allocation (min/avg/max) = 18.19 | 18.19 | 18.19 Mbytes
Step Temp Press TotEng PotEng Enthalpy Volume 
   64000    1247.6903    1154.1455    -57596.26   -60765.507   -57317.664    386744.29 
   64495    1219.0253    949.20055   -57766.682   -60863.117   -57538.115    385801.98 
[...]
Loop time of 83.0607 on 1 procs for 495 steps with 19652 atoms

Performance: 0.515 ns/day, 46.611 hours/ns, 5.959 timesteps/s
99.3% CPU use with 1 MPI tasks x no OpenMP threads

MPI task timing breakdown:
Section |  min time  |  avg time  |  max time  |%varavg| %total
---------------------------------------------------------------
Pair    | 45.056     | 45.056     | 45.056     |   0.0 | 54.24
Neigh   | 36.274     | 36.274     | 36.274     |   0.0 | 43.67
Comm    | 0.65602    | 0.65602    | 0.65602    |   0.0 |  0.79
Output  | 0.00019407 | 0.00019407 | 0.00019407 |   0.0 |  0.00
Modify  | 0.84048    | 0.84048    | 0.84048    |   0.0 |  1.01
Other   |            | 0.2339     |            |       |  0.28

Nlocal:    19652 ave 19652 max 19652 min
Histogram: 1 0 0 0 0 0 0 0 0 0
Nghost:    17874 ave 17874 max 17874 min
Histogram: 1 0 0 0 0 0 0 0 0 0
Neighs:    1.40363e+06 ave 1.40363e+06 max 1.40363e+06 min
Histogram: 1 0 0 0 0 0 0 0 0 0

Total # of neighbors = 1403631
Ave neighs/atom = 71.4243
Neighbor list builds = 495
Dangerous builds not checked
Setting up Verlet run ...
  Unit style    : metal
  Current step  : 80495
  Time step     : 0.001
Per MPI rank memory allocation (min/avg/max) = 18.2 | 18.2 | 18.2 Mbytes
Step Temp Press TotEng PotEng Enthalpy Volume 
   80495    421.68042    57.229099   -62746.234   -63817.341   -62733.654     352198.7 
   81000    400.19442   -196.80865   -62900.561   -63917.092   -62943.723    351372.41 
Loop time of 86.0649 on 1 procs for 505 steps with 19652 atoms

Performance: 0.507 ns/day, 47.340 hours/ns, 5.868 timesteps/s
99.9% CPU use with 1 MPI tasks x no OpenMP threads

MPI task timing breakdown:
Section |  min time  |  avg time  |  max time  |%varavg| %total
---------------------------------------------------------------
Pair    | 46.42      | 46.42      | 46.42      |   0.0 | 53.94
Neigh   | 37.769     | 37.769     | 37.769     |   0.0 | 43.88
Comm    | 0.66947    | 0.66947    | 0.66947    |   0.0 |  0.78
Output  | 0.063821   | 0.063821   | 0.063821   |   0.0 |  0.07
Modify  | 0.8986     | 0.8986     | 0.8986     |   0.0 |  1.04
Other   |            | 0.2438     |            |       |  0.28

Nlocal:    19652 ave 19652 max 19652 min
Histogram: 1 0 0 0 0 0 0 0 0 0
Nghost:    17951 ave 17951 max 17951 min
Histogram: 1 0 0 0 0 0 0 0 0 0
Neighs:    1.40728e+06 ave 1.40728e+06 max 1.40728e+06 min
Histogram: 1 0 0 0 0 0 0 0 0 0

Total # of neighbors = 1407280
Ave neighs/atom = 71.61
Neighbor list builds = 505
Dangerous builds not checked
Setting up Verlet run ...
  Unit style    : metal
  Current step  : 81000
  Time step     : 0.001
Per MPI rank memory allocation (min/avg/max) = 18.2 | 18.2 | 18.2 Mbytes
Step Temp Press TotEng PotEng Enthalpy Volume 
   81000    400.19442   -196.80865   -62900.561   -63917.092   -62943.723    351372.41 
   81495     374.5603   -374.46954   -63055.107   -64006.524   -63137.059    350633.87 
Loop time of 85.5987 on 1 procs for 495 steps with 19652 atoms

Performance: 0.500 ns/day, 48.035 hours/ns, 5.783 timesteps/s
99.9% CPU use with 1 MPI tasks x no OpenMP threads

MPI task timing breakdown:
Section |  min time  |  avg time  |  max time  |%varavg| %total
---------------------------------------------------------------
Pair    | 46.475     | 46.475     | 46.475     |   0.0 | 54.29
Neigh   | 37.294     | 37.294     | 37.294     |   0.0 | 43.57
Comm    | 0.68794    | 0.68794    | 0.68794    |   0.0 |  0.80
Output  | 0.00021601 | 0.00021601 | 0.00021601 |   0.0 |  0.00
Modify  | 0.90036    | 0.90036    | 0.90036    |   0.0 |  1.05
Other   |            | 0.2416     |            |       |  0.28

Nlocal:    19652 ave 19652 max 19652 min
Histogram: 1 0 0 0 0 0 0 0 0 0
Nghost:    17918 ave 17918 max 17918 min
Histogram: 1 0 0 0 0 0 0 0 0 0
Neighs:    1.41077e+06 ave 1.41077e+06 max 1.41077e+06 min
Histogram: 1 0 0 0 0 0 0 0 0 0

Total # of neighbors = 1410770
Ave neighs/atom = 71.7876
Neighbor list builds = 495
Dangerous builds not checked
Setting up Verlet run ...
  Unit style    : metal
  Current step  : 81495
  Time step     : 0.001
Per MPI rank memory allocation (min/avg/max) = 18.2 | 18.2 | 18.2 Mbytes
Step Temp Press TotEng PotEng Enthalpy Volume 
   81495     374.5603   -374.46954   -63055.107   -64006.524   -63137.059    350633.87 
   82000    349.03808    147.36573   -63205.146   -64091.735   -63172.994    349562.58 
Loop time of 87.6491 on 1 procs for 505 steps with 19652 atoms

Performance: 0.498 ns/day, 48.212 hours/ns, 5.762 timesteps/s
100.0% CPU use with 1 MPI tasks x no OpenMP threads

MPI task timing breakdown:
Section |  min time  |  avg time  |  max time  |%varavg| %total
---------------------------------------------------------------
Pair    | 47.583     | 47.583     | 47.583     |   0.0 | 54.29
Neigh   | 38.151     | 38.151     | 38.151     |   0.0 | 43.53
Comm    | 0.70694    | 0.70694    | 0.70694    |   0.0 |  0.81
Output  | 0.069307   | 0.069307   | 0.069307   |   0.0 |  0.08
Modify  | 0.89569    | 0.89569    | 0.89569    |   0.0 |  1.02
Other   |            | 0.2438     |            |       |  0.28

Nlocal:    19652 ave 19652 max 19652 min
Histogram: 1 0 0 0 0 0 0 0 0 0
Nghost:    17967 ave 17967 max 17967 min
Histogram: 1 0 0 0 0 0 0 0 0 0
Neighs:    1.41457e+06 ave 1.41457e+06 max 1.41457e+06 min
Histogram: 1 0 0 0 0 0 0 0 0 0

Total # of neighbors = 1414569
Ave neighs/atom = 71.9809
Neighbor list builds = 505
Dangerous builds not checked
Setting up Verlet run ...
  Unit style    : metal
  Current step  : 82000
  Time step     : 0.001
Per MPI rank memory allocation (min/avg/max) = 18.2 | 18.2 | 18.2 Mbytes
Step Temp Press TotEng PotEng Enthalpy Volume 
   82000    349.03808    147.36573   -63205.146   -64091.735   -63172.994    349562.58 
   82495    323.48805    288.42481   -63352.896   -64174.586   -63290.126    348682.66 
Loop time of 83.8162 on 1 procs for 495 steps with 19652 atoms

Performance: 0.510 ns/day, 47.035 hours/ns, 5.906 timesteps/s
99.4% CPU use with 1 MPI tasks x no OpenMP threads

MPI task timing breakdown:
Section |  min time  |  avg time  |  max time  |%varavg| %total
---------------------------------------------------------------
Pair    | 45.569     | 45.569     | 45.569     |   0.0 | 54.37
Neigh   | 36.455     | 36.455     | 36.455     |   0.0 | 43.49
Comm    | 0.672      | 0.672      | 0.672      |   0.0 |  0.80
Output  | 0.00023913 | 0.00023913 | 0.00023913 |   0.0 |  0.00
Modify  | 0.87499    | 0.87499    | 0.87499    |   0.0 |  1.04
Other   |            | 0.2451     |            |       |  0.29

Nlocal:    19652 ave 19652 max 19652 min
Histogram: 1 0 0 0 0 0 0 0 0 0
Nghost:    17981 ave 17981 max 17981 min
Histogram: 1 0 0 0 0 0 0 0 0 0
Neighs:    1.41866e+06 ave 1.41866e+06 max 1.41866e+06 min
Histogram: 1 0 0 0 0 0 0 0 0 0

Total # of neighbors = 1418659
Ave neighs/atom = 72.189
Neighbor list builds = 495
Dangerous builds not checked
Setting up Verlet run ...
  Unit style    : metal
  Current step  : 82495
  Time step     : 0.001
Per MPI rank memory allocation (min/avg/max) = 18.2 | 18.2 | 18.2 Mbytes
Step Temp Press TotEng PotEng Enthalpy Volume 
   82495    323.48805    288.42481   -63352.896   -64174.586   -63290.126    348682.66 
   83000    301.65078   -154.16759   -63497.033   -64263.253   -63530.542    348243.99 
Loop time of 86.8767 on 1 procs for 505 steps with 19652 atoms

Performance: 0.502 ns/day, 47.787 hours/ns, 5.813 timesteps/s
99.9% CPU use with 1 MPI tasks x no OpenMP threads

MPI task timing breakdown:
Section |  min time  |  avg time  |  max time  |%varavg| %total
---------------------------------------------------------------
Pair    | 47.053     | 47.053     | 47.053     |   0.0 | 54.16
Neigh   | 37.872     | 37.872     | 37.872     |   0.0 | 43.59
Comm    | 0.71384    | 0.71384    | 0.71384    |   0.0 |  0.82
Output  | 0.069789   | 0.069789   | 0.069789   |   0.0 |  0.08
Modify  | 0.91305    | 0.91305    | 0.91305    |   0.0 |  1.05
Other   |            | 0.2548     |            |       |  0.29

Nlocal:    19652 ave 19652 max 19652 min
Histogram: 1 0 0 0 0 0 0 0 0 0
Nghost:    17949 ave 17949 max 17949 min
Histogram: 1 0 0 0 0 0 0 0 0 0
Neighs:    1.41985e+06 ave 1.41985e+06 max 1.41985e+06 min
Histogram: 1 0 0 0 0 0 0 0 0 0

Total # of neighbors = 1419850
Ave neighs/atom = 72.2496
Neighbor list builds = 505
Dangerous builds not checked
Setting up Verlet run ...
  Unit style    : metal
  Current step  : 83000
  Time step     : 0.001
Per MPI rank memory allocation (min/avg/max) = 18.2 | 18.2 | 18.2 Mbytes
Step Temp Press TotEng PotEng Enthalpy Volume 
   83000    301.65078   -154.16759   -63497.033   -64263.253   -63530.542    348243.99 
   83495    275.09462    35.486642   -63640.454   -64339.219   -63632.756    347543.01 
Loop time of 84.0984 on 1 procs for 495 steps with 19652 atoms

Performance: 0.509 ns/day, 47.193 hours/ns, 5.886 timesteps/s
99.9% CPU use with 1 MPI tasks x no OpenMP threads

MPI task timing breakdown:
Section |  min time  |  avg time  |  max time  |%varavg| %total
---------------------------------------------------------------
Pair    | 45.765     | 45.765     | 45.765     |   0.0 | 54.42
Neigh   | 36.533     | 36.533     | 36.533     |   0.0 | 43.44
Comm    | 0.67912    | 0.67912    | 0.67912    |   0.0 |  0.81
Output  | 0.0002172  | 0.0002172  | 0.0002172  |   0.0 |  0.00
Modify  | 0.87735    | 0.87735    | 0.87735    |   0.0 |  1.04
Other   |            | 0.2434     |            |       |  0.29

Nlocal:    19652 ave 19652 max 19652 min
Histogram: 1 0 0 0 0 0 0 0 0 0
Nghost:    18034 ave 18034 max 18034 min
Histogram: 1 0 0 0 0 0 0 0 0 0
Neighs:    1.42239e+06 ave 1.42239e+06 max 1.42239e+06 min
Histogram: 1 0 0 0 0 0 0 0 0 0

Total # of neighbors = 1422389
Ave neighs/atom = 72.3788
Neighbor list builds = 495
Dangerous builds not checked
Setting up Verlet run ...
  Unit style    : metal
  Current step  : 83495
  Time step     : 0.001
Per MPI rank memory allocation (min/avg/max) = 18.2 | 18.2 | 18.2 Mbytes
Step Temp Press TotEng PotEng Enthalpy Volume 
   83495    275.09462    35.486642   -63640.454   -64339.219   -63632.756    347543.01 
   84000    250.32341   -219.17776   -63784.057   -64419.902   -63831.538    347080.17 
Loop time of 89.2229 on 1 procs for 505 steps with 19652 atoms

Performance: 0.489 ns/day, 49.077 hours/ns, 5.660 timesteps/s
99.6% CPU use with 1 MPI tasks x no OpenMP threads

MPI task timing breakdown:
Section |  min time  |  avg time  |  max time  |%varavg| %total
---------------------------------------------------------------
Pair    | 48.536     | 48.536     | 48.536     |   0.0 | 54.40
Neigh   | 38.682     | 38.682     | 38.682     |   0.0 | 43.35
Comm    | 0.74006    | 0.74006    | 0.74006    |   0.0 |  0.83
Output  | 0.06855    | 0.06855    | 0.06855    |   0.0 |  0.08
Modify  | 0.93886    | 0.93886    | 0.93886    |   0.0 |  1.05
Other   |            | 0.2577     |            |       |  0.29

Nlocal:    19652 ave 19652 max 19652 min
Histogram: 1 0 0 0 0 0 0 0 0 0
Nghost:    17984 ave 17984 max 17984 min
Histogram: 1 0 0 0 0 0 0 0 0 0
Neighs:    1.42415e+06 ave 1.42415e+06 max 1.42415e+06 min
Histogram: 1 0 0 0 0 0 0 0 0 0

Total # of neighbors = 1424153
Ave neighs/atom = 72.4686
Neighbor list builds = 505
Dangerous builds not checked
Setting up Verlet run ...
  Unit style    : metal
  Current step  : 84000
  Time step     : 0.001
Per MPI rank memory allocation (min/avg/max) = 18.2 | 18.2 | 18.2 Mbytes
Step Temp Press TotEng PotEng Enthalpy Volume 
   84000    250.32341   -219.17776   -63784.057   -64419.902   -63831.538    347080.17 
   84495    226.66839    -80.37238   -63923.551    -64499.31   -63940.921    346249.84 
Loop time of 86.7624 on 1 procs for 495 steps with 19652 atoms

Performance: 0.493 ns/day, 48.688 hours/ns, 5.705 timesteps/s
99.2% CPU use with 1 MPI tasks x no OpenMP threads

MPI task timing breakdown:
Section |  min time  |  avg time  |  max time  |%varavg| %total
---------------------------------------------------------------
Pair    | 47.345     | 47.345     | 47.345     |   0.0 | 54.57
Neigh   | 37.569     | 37.569     | 37.569     |   0.0 | 43.30
Comm    | 0.69622    | 0.69622    | 0.69622    |   0.0 |  0.80
Output  | 0.00019288 | 0.00019288 | 0.00019288 |   0.0 |  0.00
Modify  | 0.90193    | 0.90193    | 0.90193    |   0.0 |  1.04
Other   |            | 0.2497     |            |       |  0.29

Nlocal:    19652 ave 19652 max 19652 min
Histogram: 1 0 0 0 0 0 0 0 0 0
Nghost:    18036 ave 18036 max 18036 min
Histogram: 1 0 0 0 0 0 0 0 0 0
Neighs:    1.4276e+06 ave 1.4276e+06 max 1.4276e+06 min
Histogram: 1 0 0 0 0 0 0 0 0 0

Total # of neighbors = 1427602
Ave neighs/atom = 72.6441
Neighbor list builds = 495
Dangerous builds not checked
Setting up Verlet run ...
  Unit style    : metal
  Current step  : 84495
  Time step     : 0.001
Per MPI rank memory allocation (min/avg/max) = 18.2 | 18.2 | 18.2 Mbytes
Step Temp Press TotEng PotEng Enthalpy Volume 
   84495    226.66839    -80.37238   -63923.551    -64499.31   -63940.921    346249.84 
   85000    199.64632   -144.85841   -64062.182   -64569.302   -64093.447    345799.68 
Loop time of 89.7611 on 1 procs for 505 steps with 19652 atoms

Performance: 0.486 ns/day, 49.374 hours/ns, 5.626 timesteps/s
99.8% CPU use with 1 MPI tasks x no OpenMP threads

MPI task timing breakdown:
Section |  min time  |  avg time  |  max time  |%varavg| %total
---------------------------------------------------------------
Pair    | 48.977     | 48.977     | 48.977     |   0.0 | 54.56
Neigh   | 38.722     | 38.722     | 38.722     |   0.0 | 43.14
Comm    | 0.74694    | 0.74694    | 0.74694    |   0.0 |  0.83
Output  | 0.063357   | 0.063357   | 0.063357   |   0.0 |  0.07
Modify  | 0.99055    | 0.99055    | 0.99055    |   0.0 |  1.10
Other   |            | 0.261      |            |       |  0.29

Nlocal:    19652 ave 19652 max 19652 min
Histogram: 1 0 0 0 0 0 0 0 0 0
Nghost:    18013 ave 18013 max 18013 min
Histogram: 1 0 0 0 0 0 0 0 0 0
Neighs:    1.42992e+06 ave 1.42992e+06 max 1.42992e+06 min
Histogram: 1 0 0 0 0 0 0 0 0 0

Total # of neighbors = 1429925
Ave neighs/atom = 72.7623
Neighbor list builds = 505
Dangerous builds not checked
Setting up Verlet run ...
  Unit style    : metal
  Current step  : 85000
  Time step     : 0.001
Per MPI rank memory allocation (min/avg/max) = 18.2 | 18.2 | 18.2 Mbytes
Step Temp Press TotEng PotEng Enthalpy Volume 
   85000    199.64632   -144.85841   -64062.182   -64569.302   -64093.447    345799.68 
   85495    176.15459   -434.46771   -64193.034   -64640.482   -64286.693    345383.87 
Loop time of 84.9283 on 1 procs for 495 steps with 19652 atoms

Performance: 0.504 ns/day, 47.659 hours/ns, 5.828 timesteps/s
99.9% CPU use with 1 MPI tasks x no OpenMP threads

MPI task timing breakdown:
Section |  min time  |  avg time  |  max time  |%varavg| %total
---------------------------------------------------------------
Pair    | 46.337     | 46.337     | 46.337     |   0.0 | 54.56
Neigh   | 36.79      | 36.79      | 36.79      |   0.0 | 43.32
Comm    | 0.66923    | 0.66923    | 0.66923    |   0.0 |  0.79
Output  | 0.00026608 | 0.00026608 | 0.00026608 |   0.0 |  0.00
Modify  | 0.88881    | 0.88881    | 0.88881    |   0.0 |  1.05
Other   |            | 0.2427     |            |       |  0.29

Nlocal:    19652 ave 19652 max 19652 min
Histogram: 1 0 0 0 0 0 0 0 0 0
Nghost:    18030 ave 18030 max 18030 min
Histogram: 1 0 0 0 0 0 0 0 0 0
Neighs:    1.4318e+06 ave 1.4318e+06 max 1.4318e+06 min
Histogram: 1 0 0 0 0 0 0 0 0 0

Total # of neighbors = 1431798
Ave neighs/atom = 72.8576
Neighbor list builds = 495
Dangerous builds not checked
Setting up Verlet run ...
  Unit style    : metal
  Current step  : 85495
  Time step     : 0.001
Per MPI rank memory allocation (min/avg/max) = 18.2 | 18.2 | 18.2 Mbytes
Step Temp Press TotEng PotEng Enthalpy Volume 
   85495    176.15459   -434.46771   -64193.034   -64640.482   -64286.693    345383.87 
   86000    151.87415     185.2065   -64329.064   -64714.838   -64289.236    344542.59 
Loop time of 86.1497 on 1 procs for 505 steps with 19652 atoms

Performance: 0.506 ns/day, 47.387 hours/ns, 5.862 timesteps/s
99.7% CPU use with 1 MPI tasks x no OpenMP threads

MPI task timing breakdown:
Section |  min time  |  avg time  |  max time  |%varavg| %total
---------------------------------------------------------------
Pair    | 46.729     | 46.729     | 46.729     |   0.0 | 54.24
Neigh   | 37.483     | 37.483     | 37.483     |   0.0 | 43.51
Comm    | 0.70006    | 0.70006    | 0.70006    |   0.0 |  0.81
Output  | 0.066877   | 0.066877   | 0.066877   |   0.0 |  0.08
Modify  | 0.91729    | 0.91729    | 0.91729    |   0.0 |  1.06
Other   |            | 0.2533     |            |       |  0.29

Nlocal:    19652 ave 19652 max 19652 min
Histogram: 1 0 0 0 0 0 0 0 0 0
Nghost:    18054 ave 18054 max 18054 min
Histogram: 1 0 0 0 0 0 0 0 0 0
Neighs:    1.43495e+06 ave 1.43495e+06 max 1.43495e+06 min
Histogram: 1 0 0 0 0 0 0 0 0 0

Total # of neighbors = 1434953
Ave neighs/atom = 73.0182
Neighbor list builds = 505
Dangerous builds not checked
Setting up Verlet run ...
  Unit style    : metal
  Current step  : 86000
  Time step     : 0.001
Per MPI rank memory allocation (min/avg/max) = 18.2 | 18.2 | 18.2 Mbytes
Step Temp Press TotEng PotEng Enthalpy Volume 
   86000    151.87415     185.2065   -64329.064   -64714.838   -64289.236    344542.59 
   86495    126.43512   -66.969833   -64456.549   -64777.706   -64470.934    344153.14 
Loop time of 84.5684 on 1 procs for 495 steps with 19652 atoms

Performance: 0.506 ns/day, 47.457 hours/ns, 5.853 timesteps/s
99.8% CPU use with 1 MPI tasks x no OpenMP threads

MPI task timing breakdown:
Section |  min time  |  avg time  |  max time  |%varavg| %total
---------------------------------------------------------------
Pair    | 46.317     | 46.317     | 46.317     |   0.0 | 54.77
Neigh   | 36.455     | 36.455     | 36.455     |   0.0 | 43.11
Comm    | 0.67626    | 0.67626    | 0.67626    |   0.0 |  0.80
Output  | 0.00031996 | 0.00031996 | 0.00031996 |   0.0 |  0.00
Modify  | 0.87766    | 0.87766    | 0.87766    |   0.0 |  1.04
Other   |            | 0.2425     |            |       |  0.29

Nlocal:    19652 ave 19652 max 19652 min
Histogram: 1 0 0 0 0 0 0 0 0 0
Nghost:    18077 ave 18077 max 18077 min
Histogram: 1 0 0 0 0 0 0 0 0 0
Neighs:    1.43623e+06 ave 1.43623e+06 max 1.43623e+06 min
Histogram: 1 0 0 0 0 0 0 0 0 0

Total # of neighbors = 1436231
Ave neighs/atom = 73.0832
Neighbor list builds = 495
Dangerous builds not checked
Setting up Verlet run ...
  Unit style    : metal
  Current step  : 86495
  Time step     : 0.001
Per MPI rank memory allocation (min/avg/max) = 18.2 | 18.2 | 18.2 Mbytes
Step Temp Press TotEng PotEng Enthalpy Volume 
   86495    126.43512   -66.969833   -64456.549   -64777.706   -64470.934    344153.14 
   87000    103.20313     189.3648   -64586.991   -64849.137   -64546.382    343585.78 
Loop time of 85.1556 on 1 procs for 505 steps with 19652 atoms

Performance: 0.512 ns/day, 46.840 hours/ns, 5.930 timesteps/s
99.6% CPU use with 1 MPI tasks x no OpenMP threads

MPI task timing breakdown:
Section |  min time  |  avg time  |  max time  |%varavg| %total
---------------------------------------------------------------
Pair    | 46.855     | 46.855     | 46.855     |   0.0 | 55.02
Neigh   | 36.433     | 36.433     | 36.433     |   0.0 | 42.78
Comm    | 0.68323    | 0.68323    | 0.68323    |   0.0 |  0.80
Output  | 0.0676     | 0.0676     | 0.0676     |   0.0 |  0.08
Modify  | 0.87587    | 0.87587    | 0.87587    |   0.0 |  1.03
Other   |            | 0.2405     |            |       |  0.28

Nlocal:    19652 ave 19652 max 19652 min
Histogram: 1 0 0 0 0 0 0 0 0 0
Nghost:    18064 ave 18064 max 18064 min
Histogram: 1 0 0 0 0 0 0 0 0 0
Neighs:    1.43873e+06 ave 1.43873e+06 max 1.43873e+06 min
Histogram: 1 0 0 0 0 0 0 0 0 0

Total # of neighbors = 1438733
Ave neighs/atom = 73.2105
Neighbor list builds = 505
Dangerous builds not checked
Total wall time: 3:58:50
