LAMMPS (12 Dec 2018)
Lattice spacing in x,y,z = 4 4 4
Created orthogonal box = (0 0 0) to (68 68 68)
  1 by 1 by 1 MPI processor grid
Created 19652 atoms
  Time spent = 0.00439191 secs
Setting atom values ...
  19480 settings made for type/fraction
Neighbor list info ...
  update every 1 steps, delay 0 steps, check no
  max neighbors/atom: 2000, page size: 100000
  master list distance cutoff = 8.5
  ghost atom cutoff = 8.5
  binsize = 4.25, bins = 16 16 16
  1 neighbor lists, perpetual/occasional/extra = 1 0 0
  (1) pair eam/alloy, perpetual
      attributes: half, newton on
      pair build: half/bin/atomonly/newton
      stencil: half/bin/3d/newton
      bin: standard
Setting up Verlet run ...
  Unit style    : metal
  Current step  : 0
  Time step     : 0.001
Per MPI rank memory allocation (min/avg/max) = 18.19 | 18.19 | 18.19 Mbytes
Step Temp Press TotEng PotEng Enthalpy 
       0          300    -170687.3   -61451.857   -62213.884   -94949.757 
    1000    417.68492    -80593.42   -61451.859   -62512.817   -77268.562 
Loop time of 162.006 on 1 procs for 1000 steps with 19652 atoms

Performance: 0.533 ns/day, 45.002 hours/ns, 6.173 timesteps/s
99.1% CPU use with 1 MPI tasks x no OpenMP threads

MPI task timing breakdown:
Section |  min time  |  avg time  |  max time  |%varavg| %total
---------------------------------------------------------------
Pair    | 91.676     | 91.676     | 91.676     |   0.0 | 56.59
Neigh   | 68.307     | 68.307     | 68.307     |   0.0 | 42.16
Comm    | 1.2287     | 1.2287     | 1.2287     |   0.0 |  0.76
Output  | 0.00018597 | 0.00018597 | 0.00018597 |   0.0 |  0.00
Modify  | 0.41711    | 0.41711    | 0.41711    |   0.0 |  0.26
Other   |            | 0.3769     |            |       |  0.23

Nlocal:    19652 ave 19652 max 19652 min
Histogram: 1 0 0 0 0 0 0 0 0 0
Nghost:    19101 ave 19101 max 19101 min
Histogram: 1 0 0 0 0 0 0 0 0 0
Neighs:    1.57752e+06 ave 1.57752e+06 max 1.57752e+06 min
Histogram: 1 0 0 0 0 0 0 0 0 0

Total # of neighbors = 1577524
Ave neighs/atom = 80.2729
Neighbor list builds = 1000
Dangerous builds not checked
Setting up Verlet run ...
  Unit style    : metal
  Current step  : 1000
  Time step     : 0.001
Per MPI rank memory allocation (min/avg/max) = 18.19 | 18.19 | 18.19 Mbytes
Step Temp Press TotEng PotEng Enthalpy 
    1000    417.68492    -80593.42   -61451.859   -62512.817   -77268.562 
    2000    402.73648    -1562.412   -65640.447   -66663.434   -65877.704 
Loop time of 209.299 on 1 procs for 1000 steps with 19652 atoms

Performance: 0.413 ns/day, 58.139 hours/ns, 4.778 timesteps/s
98.2% CPU use with 1 MPI tasks x no OpenMP threads

MPI task timing breakdown:
Section |  min time  |  avg time  |  max time  |%varavg| %total
---------------------------------------------------------------
Pair    | 115.4      | 115.4      | 115.4      |   0.0 | 55.14
Neigh   | 90.756     | 90.756     | 90.756     |   0.0 | 43.36
Comm    | 1.1918     | 1.1918     | 1.1918     |   0.0 |  0.57
Output  | 0.071517   | 0.071517   | 0.071517   |   0.0 |  0.03
Modify  | 1.489      | 1.489      | 1.489      |   0.0 |  0.71
Other   |            | 0.3889     |            |       |  0.19

Nlocal:    19652 ave 19652 max 19652 min
Histogram: 1 0 0 0 0 0 0 0 0 0
Nghost:    20394 ave 20394 max 20394 min
Histogram: 1 0 0 0 0 0 0 0 0 0
Neighs:    2.01561e+06 ave 2.01561e+06 max 2.01561e+06 min
Histogram: 1 0 0 0 0 0 0 0 0 0

Total # of neighbors = 2015611
Ave neighs/atom = 102.565
Neighbor list builds = 1000
Dangerous builds not checked
Setting up Verlet run ...
  Unit style    : metal
  Current step  : 2000
  Time step     : 0.001
Per MPI rank memory allocation (min/avg/max) = 19.34 | 19.34 | 19.34 Mbytes
Step Temp Press TotEng PotEng Enthalpy 
    2000    402.73648    -1562.412   -65640.447   -66663.434   -65877.704 
    4000    802.85333    1698.1755   -64646.135   -66685.456   -64390.846 
    6000    1338.7284    1863.9426   -61102.928    -64503.42    -60808.86 
    8000    1896.5617    305.85281   -55982.547   -60799.986   -55929.126 
   10000    2445.9154    775.25561   -52877.818   -59090.666   -52735.307 
Loop time of 1607.6 on 1 procs for 8000 steps with 19652 atoms

Performance: 0.430 ns/day, 55.820 hours/ns, 4.976 timesteps/s
99.2% CPU use with 1 MPI tasks x no OpenMP threads

MPI task timing breakdown:
Section |  min time  |  avg time  |  max time  |%varavg| %total
---------------------------------------------------------------
Pair    | 896.1      | 896.1      | 896.1      |   0.0 | 55.74
Neigh   | 686.73     | 686.73     | 686.73     |   0.0 | 42.72
Comm    | 9.591      | 9.591      | 9.591      |   0.0 |  0.60
Output  | 0.3346     | 0.3346     | 0.3346     |   0.0 |  0.02
Modify  | 11.624     | 11.624     | 11.624     |   0.0 |  0.72
Other   |            | 3.223      |            |       |  0.20

Nlocal:    19652 ave 19652 max 19652 min
Histogram: 1 0 0 0 0 0 0 0 0 0
Nghost:    19231 ave 19231 max 19231 min
Histogram: 1 0 0 0 0 0 0 0 0 0
Neighs:    1.67266e+06 ave 1.67266e+06 max 1.67266e+06 min
Histogram: 1 0 0 0 0 0 0 0 0 0

Total # of neighbors = 1672662
Ave neighs/atom = 85.1141
Neighbor list builds = 8000
Dangerous builds not checked
Setting up Verlet run ...
  Unit style    : metal
  Current step  : 10000
  Time step     : 0.001
Per MPI rank memory allocation (min/avg/max) = 19.34 | 19.34 | 19.34 Mbytes
Step Temp Press TotEng PotEng Enthalpy 
   10000    2445.9154    775.25561   -52877.818   -59090.666   -52735.307 
   12000    2443.6971    215.50736   -52755.676   -58962.889   -52715.862 
   14000    2468.7676    -798.4648   -52691.093   -58961.987   -52838.741 
   16000    2441.2203    643.05062   -52849.916   -59050.838   -52731.619 
   18000    2453.5075   -815.78123   -52761.313   -58993.446   -52912.048 
   20000     2437.557     53.49767   -52766.198   -58957.815   -52756.312 
   22000    2455.7201    339.30468   -52788.012   -59025.765   -52725.461 
   24000     2461.913    1321.4264   -52737.772   -58991.255   -52494.121 
   26000    2439.3648   -1285.6699   -52810.594   -59006.803   -53048.037 
   28000    2462.2831   -2437.8642   -52787.359   -59041.782   -53237.822 
   30000    2461.6947   -139.40744   -52763.636   -59016.564   -52789.334 
   32000    2455.9372    721.84753    -52800.67   -59038.974   -52667.736 
   34000    2457.3668   -223.64948   -52870.318   -59112.254   -52911.446 
   36000    2435.0117   -861.62573   -52816.627   -59001.779   -52975.737 
   38000    2438.3929   -890.61805   -52845.525   -59039.265   -53009.852 
   40000    2458.6004    963.45495   -52769.352   -59014.421   -52591.975 
Loop time of 5337.8 on 1 procs for 30000 steps with 19652 atoms

Performance: 0.486 ns/day, 49.424 hours/ns, 5.620 timesteps/s
99.3% CPU use with 1 MPI tasks x no OpenMP threads

MPI task timing breakdown:
Section |  min time  |  avg time  |  max time  |%varavg| %total
---------------------------------------------------------------
Pair    | 2946.3     | 2946.3     | 2946.3     |   0.0 | 55.20
Neigh   | 2298.3     | 2298.3     | 2298.3     |   0.0 | 43.06
Comm    | 33.199     | 33.199     | 33.199     |   0.0 |  0.62
Output  | 8.6888     | 8.6888     | 8.6888     |   0.0 |  0.16
Modify  | 40.026     | 40.026     | 40.026     |   0.0 |  0.75
Other   |            | 11.33      |            |       |  0.21

Nlocal:    19652 ave 19652 max 19652 min
Histogram: 1 0 0 0 0 0 0 0 0 0
Nghost:    19238 ave 19238 max 19238 min
Histogram: 1 0 0 0 0 0 0 0 0 0
Neighs:    1.6705e+06 ave 1.6705e+06 max 1.6705e+06 min
Histogram: 1 0 0 0 0 0 0 0 0 0

Total # of neighbors = 1670496
Ave neighs/atom = 85.0039
Neighbor list builds = 30000
Dangerous builds not checked
Setting up Verlet run ...
  Unit style    : metal
  Current step  : 40000
  Time step     : 0.001
Per MPI rank memory allocation (min/avg/max) = 19.34 | 19.34 | 19.34 Mbytes
Step Temp Press TotEng PotEng Enthalpy 
   40000    2458.6004    963.45495   -52769.352   -59014.421   -52591.975 
   40495    2399.8254   -932.09365   -52990.553   -59086.329   -53162.235 
Loop time of 93.456 on 1 procs for 495 steps with 19652 atoms

Performance: 0.458 ns/day, 52.444 hours/ns, 5.297 timesteps/s
99.0% CPU use with 1 MPI tasks x no OpenMP threads

MPI task timing breakdown:
Section |  min time  |  avg time  |  max time  |%varavg| %total
---------------------------------------------------------------
Pair    | 51.871     | 51.871     | 51.871     |   0.0 | 55.50
Neigh   | 40.082     | 40.082     | 40.082     |   0.0 | 42.89
Comm    | 0.57448    | 0.57448    | 0.57448    |   0.0 |  0.61
Output  | 0.00018597 | 0.00018597 | 0.00018597 |   0.0 |  0.00
Modify  | 0.72484    | 0.72484    | 0.72484    |   0.0 |  0.78
Other   |            | 0.2032     |            |       |  0.22

Nlocal:    19652 ave 19652 max 19652 min
Histogram: 1 0 0 0 0 0 0 0 0 0
Nghost:    19169 ave 19169 max 19169 min
Histogram: 1 0 0 0 0 0 0 0 0 0
Neighs:    1.66972e+06 ave 1.66972e+06 max 1.66972e+06 min
Histogram: 1 0 0 0 0 0 0 0 0 0

Total # of neighbors = 1669724
Ave neighs/atom = 84.9646
Neighbor list builds = 495
Dangerous builds not checked
Setting up Verlet run ...
  Unit style    : metal
  Current step  : 40495
  Time step     : 0.001
Per MPI rank memory allocation (min/avg/max) = 19.34 | 19.34 | 19.34 Mbytes
Step Temp Press TotEng PotEng Enthalpy 
   40495    2399.8254   -932.09365   -52990.553   -59086.329   -53162.235 
   42000    2401.6424    800.75379   -53062.003   -59162.393   -52915.184 
Loop time of 302.412 on 1 procs for 1505 steps with 19652 atoms

Performance: 0.430 ns/day, 55.816 hours/ns, 4.977 timesteps/s
97.4% CPU use with 1 MPI tasks x no OpenMP threads

MPI task timing breakdown:
Section |  min time  |  avg time  |  max time  |%varavg| %total
---------------------------------------------------------------
Pair    | 167.51     | 167.51     | 167.51     |   0.0 | 55.39
Neigh   | 129.52     | 129.52     | 129.52     |   0.0 | 42.83
Comm    | 1.8766     | 1.8766     | 1.8766     |   0.0 |  0.62
Output  | 0.47858    | 0.47858    | 0.47858    |   0.0 |  0.16
Modify  | 2.3846     | 2.3846     | 2.3846     |   0.0 |  0.79
Other   |            | 0.6432     |            |       |  0.21

Nlocal:    19652 ave 19652 max 19652 min
Histogram: 1 0 0 0 0 0 0 0 0 0
Nghost:    19257 ave 19257 max 19257 min
Histogram: 1 0 0 0 0 0 0 0 0 0
Neighs:    1.67714e+06 ave 1.67714e+06 max 1.67714e+06 min
Histogram: 1 0 0 0 0 0 0 0 0 0

Total # of neighbors = 1677139
Ave neighs/atom = 85.3419
Neighbor list builds = 1505
Dangerous builds not checked
Setting up Verlet run ...
  Unit style    : metal
  Current step  : 42000
  Time step     : 0.001
Per MPI rank memory allocation (min/avg/max) = 19.34 | 19.34 | 19.34 Mbytes
Step Temp Press TotEng PotEng Enthalpy 
   42000    2401.6424    800.75379   -53062.003   -59162.393   -52915.184 
   42495    2357.9877    1166.6929   -53274.328   -59263.832   -53061.087 
Loop time of 97.7441 on 1 procs for 495 steps with 19652 atoms

Performance: 0.438 ns/day, 54.851 hours/ns, 5.064 timesteps/s
98.9% CPU use with 1 MPI tasks x no OpenMP threads

MPI task timing breakdown:
Section |  min time  |  avg time  |  max time  |%varavg| %total
---------------------------------------------------------------
Pair    | 54.375     | 54.375     | 54.375     |   0.0 | 55.63
Neigh   | 41.774     | 41.774     | 41.774     |   0.0 | 42.74
Comm    | 0.60886    | 0.60886    | 0.60886    |   0.0 |  0.62
Output  | 0.00017691 | 0.00017691 | 0.00017691 |   0.0 |  0.00
Modify  | 0.77771    | 0.77771    | 0.77771    |   0.0 |  0.80
Other   |            | 0.2084     |            |       |  0.21

Nlocal:    19652 ave 19652 max 19652 min
Histogram: 1 0 0 0 0 0 0 0 0 0
Nghost:    19274 ave 19274 max 19274 min
Histogram: 1 0 0 0 0 0 0 0 0 0
Neighs:    1.68203e+06 ave 1.68203e+06 max 1.68203e+06 min
Histogram: 1 0 0 0 0 0 0 0 0 0

Total # of neighbors = 1682027
Ave neighs/atom = 85.5906
Neighbor list builds = 495
Dangerous builds not checked
Setting up Verlet run ...
  Unit style    : metal
  Current step  : 42495
  Time step     : 0.001
Per MPI rank memory allocation (min/avg/max) = 19.34 | 19.34 | 19.34 Mbytes
Step Temp Press TotEng PotEng Enthalpy 
   42495    2357.9877    1166.6929   -53274.328   -59263.832   -53061.087 
   44000    2328.5209   -835.22017   -53351.147   -59265.802   -53504.046 
Loop time of 306.316 on 1 procs for 1505 steps with 19652 atoms

Performance: 0.425 ns/day, 56.537 hours/ns, 4.913 timesteps/s
99.2% CPU use with 1 MPI tasks x no OpenMP threads

MPI task timing breakdown:
Section |  min time  |  avg time  |  max time  |%varavg| %total
---------------------------------------------------------------
Pair    | 171.13     | 171.13     | 171.13     |   0.0 | 55.87
Neigh   | 130.12     | 130.12     | 130.12     |   0.0 | 42.48
Comm    | 1.9257     | 1.9257     | 1.9257     |   0.0 |  0.63
Output  | 0.14627    | 0.14627    | 0.14627    |   0.0 |  0.05
Modify  | 2.3607     | 2.3607     | 2.3607     |   0.0 |  0.77
Other   |            | 0.6378     |            |       |  0.21

Nlocal:    19652 ave 19652 max 19652 min
Histogram: 1 0 0 0 0 0 0 0 0 0
Nghost:    19286 ave 19286 max 19286 min
Histogram: 1 0 0 0 0 0 0 0 0 0
Neighs:    1.67953e+06 ave 1.67953e+06 max 1.67953e+06 min
Histogram: 1 0 0 0 0 0 0 0 0 0

Total # of neighbors = 1679527
Ave neighs/atom = 85.4634
Neighbor list builds = 1505
Dangerous builds not checked
Setting up Verlet run ...
  Unit style    : metal
  Current step  : 44000
  Time step     : 0.001
Per MPI rank memory allocation (min/avg/max) = 19.34 | 19.34 | 19.34 Mbytes
Step Temp Press TotEng PotEng Enthalpy 
   44000    2328.5209   -835.22017   -53351.147   -59265.802   -53504.046 
   44495    2295.5017     809.5966   -53624.414   -59455.197   -53477.274 
Loop time of 85.8934 on 1 procs for 495 steps with 19652 atoms

Performance: 0.498 ns/day, 48.201 hours/ns, 5.763 timesteps/s
98.4% CPU use with 1 MPI tasks x no OpenMP threads

MPI task timing breakdown:
Section |  min time  |  avg time  |  max time  |%varavg| %total
---------------------------------------------------------------
Pair    | 46.977     | 46.977     | 46.977     |   0.0 | 54.69
Neigh   | 37.485     | 37.485     | 37.485     |   0.0 | 43.64
Comm    | 0.55481    | 0.55481    | 0.55481    |   0.0 |  0.65
Output  | 0.00011206 | 0.00011206 | 0.00011206 |   0.0 |  0.00
Modify  | 0.68194    | 0.68194    | 0.68194    |   0.0 |  0.79
Other   |            | 0.1948     |            |       |  0.23

Nlocal:    19652 ave 19652 max 19652 min
Histogram: 1 0 0 0 0 0 0 0 0 0
Nghost:    19293 ave 19293 max 19293 min
Histogram: 1 0 0 0 0 0 0 0 0 0
Neighs:    1.69125e+06 ave 1.69125e+06 max 1.69125e+06 min
Histogram: 1 0 0 0 0 0 0 0 0 0

Total # of neighbors = 1691253
Ave neighs/atom = 86.0601
Neighbor list builds = 495
Dangerous builds not checked
Setting up Verlet run ...
  Unit style    : metal
  Current step  : 44495
  Time step     : 0.001
Per MPI rank memory allocation (min/avg/max) = 19.34 | 19.34 | 19.34 Mbytes
Step Temp Press TotEng PotEng Enthalpy 
   44495    2295.5017     809.5966   -53624.414   -59455.197   -53477.274 
   46000    2275.5736    1280.6239   -53733.024   -59513.188   -53500.863 
Loop time of 288.131 on 1 procs for 1505 steps with 19652 atoms

Performance: 0.451 ns/day, 53.180 hours/ns, 5.223 timesteps/s
98.2% CPU use with 1 MPI tasks x no OpenMP threads

MPI task timing breakdown:
Section |  min time  |  avg time  |  max time  |%varavg| %total
---------------------------------------------------------------
Pair    | 159.15     | 159.15     | 159.15     |   0.0 | 55.24
Neigh   | 124.13     | 124.13     | 124.13     |   0.0 | 43.08
Comm    | 1.7965     | 1.7965     | 1.7965     |   0.0 |  0.62
Output  | 0.1889     | 0.1889     | 0.1889     |   0.0 |  0.07
Modify  | 2.2472     | 2.2472     | 2.2472     |   0.0 |  0.78
Other   |            | 0.6183     |            |       |  0.21

Nlocal:    19652 ave 19652 max 19652 min
Histogram: 1 0 0 0 0 0 0 0 0 0
Nghost:    19279 ave 19279 max 19279 min
Histogram: 1 0 0 0 0 0 0 0 0 0
Neighs:    1.69618e+06 ave 1.69618e+06 max 1.69618e+06 min
Histogram: 1 0 0 0 0 0 0 0 0 0

Total # of neighbors = 1696178
Ave neighs/atom = 86.3107
Neighbor list builds = 1505
Dangerous builds not checked
Setting up Verlet run ...
  Unit style    : metal
  Current step  : 46000
  Time step     : 0.001
Per MPI rank memory allocation (min/avg/max) = 19.34 | 19.34 | 19.34 Mbytes
Step Temp Press TotEng PotEng Enthalpy 
   46000    2275.5736    1280.6239   -53733.024   -59513.188   -53500.863 
   46495    2256.0857    959.61229   -53853.607    -59584.27   -53679.923 
Loop time of 90.7598 on 1 procs for 495 steps with 19652 atoms

Performance: 0.471 ns/day, 50.931 hours/ns, 5.454 timesteps/s
98.6% CPU use with 1 MPI tasks x no OpenMP threads

MPI task timing breakdown:
Section |  min time  |  avg time  |  max time  |%varavg| %total
---------------------------------------------------------------
Pair    | 49.889     | 49.889     | 49.889     |   0.0 | 54.97
Neigh   | 39.392     | 39.392     | 39.392     |   0.0 | 43.40
Comm    | 0.56828    | 0.56828    | 0.56828    |   0.0 |  0.63
Output  | 0.00021505 | 0.00021505 | 0.00021505 |   0.0 |  0.00
Modify  | 0.7172     | 0.7172     | 0.7172     |   0.0 |  0.79
Other   |            | 0.1934     |            |       |  0.21

Nlocal:    19652 ave 19652 max 19652 min
Histogram: 1 0 0 0 0 0 0 0 0 0
Nghost:    19291 ave 19291 max 19291 min
Histogram: 1 0 0 0 0 0 0 0 0 0
Neighs:    1.6983e+06 ave 1.6983e+06 max 1.6983e+06 min
Histogram: 1 0 0 0 0 0 0 0 0 0

Total # of neighbors = 1698296
Ave neighs/atom = 86.4185
Neighbor list builds = 495
Dangerous builds not checked
Setting up Verlet run ...
  Unit style    : metal
  Current step  : 46495
  Time step     : 0.001
Per MPI rank memory allocation (min/avg/max) = 19.34 | 19.34 | 19.34 Mbytes
Step Temp Press TotEng PotEng Enthalpy 
   46495    2256.0857    959.61229   -53853.607    -59584.27   -53679.923 
   48000    2259.1641   -76.443653   -53868.738   -59607.221   -53882.587 
Loop time of 265.374 on 1 procs for 1505 steps with 19652 atoms

Performance: 0.490 ns/day, 48.980 hours/ns, 5.671 timesteps/s
98.4% CPU use with 1 MPI tasks x no OpenMP threads

MPI task timing breakdown:
Section |  min time  |  avg time  |  max time  |%varavg| %total
---------------------------------------------------------------
Pair    | 145.15     | 145.15     | 145.15     |   0.0 | 54.70
Neigh   | 115.71     | 115.71     | 115.71     |   0.0 | 43.60
Comm    | 1.6695     | 1.6695     | 1.6695     |   0.0 |  0.63
Output  | 0.19075    | 0.19075    | 0.19075    |   0.0 |  0.07
Modify  | 2.075      | 2.075      | 2.075      |   0.0 |  0.78
Other   |            | 0.5777     |            |       |  0.22

Nlocal:    19652 ave 19652 max 19652 min
Histogram: 1 0 0 0 0 0 0 0 0 0
Nghost:    19322 ave 19322 max 19322 min
Histogram: 1 0 0 0 0 0 0 0 0 0
Neighs:    1.69674e+06 ave 1.69674e+06 max 1.69674e+06 min
Histogram: 1 0 0 0 0 0 0 0 0 0

Total # of neighbors = 1696743
Ave neighs/atom = 86.3395
Neighbor list builds = 1505
Dangerous builds not checked
Setting up Verlet run ...
  Unit style    : metal
  Current step  : 48000
  Time step     : 0.001
Per MPI rank memory allocation (min/avg/max) = 19.34 | 19.34 | 19.34 Mbytes
Step Temp Press TotEng PotEng Enthalpy 
   48000    2259.1641   -76.443653   -53868.738   -59607.221   -53882.587 
   48495    2204.5697    628.26002   -54133.445   -59733.253   -54020.294 
Loop time of 101.391 on 1 procs for 495 steps with 19652 atoms

Performance: 0.422 ns/day, 56.897 hours/ns, 4.882 timesteps/s
93.9% CPU use with 1 MPI tasks x no OpenMP threads

MPI task timing breakdown:
Section |  min time  |  avg time  |  max time  |%varavg| %total
---------------------------------------------------------------
Pair    | 56.455     | 56.455     | 56.455     |   0.0 | 55.68
Neigh   | 43.227     | 43.227     | 43.227     |   0.0 | 42.63
Comm    | 0.6584     | 0.6584     | 0.6584     |   0.0 |  0.65
Output  | 0.00015903 | 0.00015903 | 0.00015903 |   0.0 |  0.00
Modify  | 0.82592    | 0.82592    | 0.82592    |   0.0 |  0.81
Other   |            | 0.2251     |            |       |  0.22

Nlocal:    19652 ave 19652 max 19652 min
Histogram: 1 0 0 0 0 0 0 0 0 0
Nghost:    19396 ave 19396 max 19396 min
Histogram: 1 0 0 0 0 0 0 0 0 0
Neighs:    1.70687e+06 ave 1.70687e+06 max 1.70687e+06 min
Histogram: 1 0 0 0 0 0 0 0 0 0

Total # of neighbors = 1706872
Ave neighs/atom = 86.8549
Neighbor list builds = 495
Dangerous builds not checked
Setting up Verlet run ...
  Unit style    : metal
  Current step  : 48495
  Time step     : 0.001
Per MPI rank memory allocation (min/avg/max) = 19.34 | 19.34 | 19.34 Mbytes
Step Temp Press TotEng PotEng Enthalpy 
   48495    2204.5697    628.26002   -54133.445   -59733.253   -54020.294 
   50000    2210.4977    -125.2673   -54188.042   -59802.907   -54210.599 
Loop time of 269.067 on 1 procs for 1505 steps with 19652 atoms

Performance: 0.483 ns/day, 49.662 hours/ns, 5.593 timesteps/s
99.1% CPU use with 1 MPI tasks x no OpenMP threads

MPI task timing breakdown:
Section |  min time  |  avg time  |  max time  |%varavg| %total
---------------------------------------------------------------
Pair    | 147.68     | 147.68     | 147.68     |   0.0 | 54.88
Neigh   | 116.82     | 116.82     | 116.82     |   0.0 | 43.42
Comm    | 1.7353     | 1.7353     | 1.7353     |   0.0 |  0.64
Output  | 0.12233    | 0.12233    | 0.12233    |   0.0 |  0.05
Modify  | 2.1605     | 2.1605     | 2.1605     |   0.0 |  0.80
Other   |            | 0.5531     |            |       |  0.21

Nlocal:    19652 ave 19652 max 19652 min
Histogram: 1 0 0 0 0 0 0 0 0 0
Nghost:    19410 ave 19410 max 19410 min
Histogram: 1 0 0 0 0 0 0 0 0 0
Neighs:    1.70651e+06 ave 1.70651e+06 max 1.70651e+06 min
Histogram: 1 0 0 0 0 0 0 0 0 0

Total # of neighbors = 1706510
Ave neighs/atom = 86.8365
Neighbor list builds = 1505
Dangerous builds not checked
Setting up Verlet run ...
  Unit style    : metal
  Current step  : 50000
  Time step     : 0.001
Per MPI rank memory allocation (min/avg/max) = 19.34 | 19.34 | 19.34 Mbytes
Step Temp Press TotEng PotEng Enthalpy 
   50000    2210.4977    -125.2673   -54188.042   -59802.907   -54210.599 
   50495    2169.1896   -721.01357   -54427.977   -59937.917   -54557.392 
Loop time of 84.2959 on 1 procs for 495 steps with 19652 atoms

Performance: 0.507 ns/day, 47.304 hours/ns, 5.872 timesteps/s
99.4% CPU use with 1 MPI tasks x no OpenMP threads

MPI task timing breakdown:
Section |  min time  |  avg time  |  max time  |%varavg| %total
---------------------------------------------------------------
Pair    | 46.289     | 46.289     | 46.289     |   0.0 | 54.91
Neigh   | 36.595     | 36.595     | 36.595     |   0.0 | 43.41
Comm    | 0.55674    | 0.55674    | 0.55674    |   0.0 |  0.66
Output  | 0.00019002 | 0.00019002 | 0.00019002 |   0.0 |  0.00
Modify  | 0.68472    | 0.68472    | 0.68472    |   0.0 |  0.81
Other   |            | 0.17       |            |       |  0.20

Nlocal:    19652 ave 19652 max 19652 min
Histogram: 1 0 0 0 0 0 0 0 0 0
Nghost:    19477 ave 19477 max 19477 min
Histogram: 1 0 0 0 0 0 0 0 0 0
Neighs:    1.71247e+06 ave 1.71247e+06 max 1.71247e+06 min
Histogram: 1 0 0 0 0 0 0 0 0 0

Total # of neighbors = 1712467
Ave neighs/atom = 87.1396
Neighbor list builds = 495
Dangerous builds not checked
Setting up Verlet run ...
  Unit style    : metal
  Current step  : 50495
  Time step     : 0.001
Per MPI rank memory allocation (min/avg/max) = 19.34 | 19.34 | 19.34 Mbytes
Step Temp Press TotEng PotEng Enthalpy 
   50495    2169.1896   -721.01357   -54427.977   -59937.917   -54557.392 
   52000    2119.6634     1303.168   -54541.539   -59925.677   -54308.242 
Loop time of 287.79 on 1 procs for 1505 steps with 19652 atoms

Performance: 0.452 ns/day, 53.117 hours/ns, 5.230 timesteps/s
99.3% CPU use with 1 MPI tasks x no OpenMP threads

MPI task timing breakdown:
Section |  min time  |  avg time  |  max time  |%varavg| %total
---------------------------------------------------------------
Pair    | 159.05     | 159.05     | 159.05     |   0.0 | 55.26
Neigh   | 123.79     | 123.79     | 123.79     |   0.0 | 43.01
Comm    | 1.8804     | 1.8804     | 1.8804     |   0.0 |  0.65
Output  | 0.21188    | 0.21188    | 0.21188    |   0.0 |  0.07
Modify  | 2.301      | 2.301      | 2.301      |   0.0 |  0.80
Other   |            | 0.566      |            |       |  0.20

Nlocal:    19652 ave 19652 max 19652 min
Histogram: 1 0 0 0 0 0 0 0 0 0
Nghost:    19409 ave 19409 max 19409 min
Histogram: 1 0 0 0 0 0 0 0 0 0
Neighs:    1.71654e+06 ave 1.71654e+06 max 1.71654e+06 min
Histogram: 1 0 0 0 0 0 0 0 0 0

Total # of neighbors = 1716538
Ave neighs/atom = 87.3467
Neighbor list builds = 1505
Dangerous builds not checked
Setting up Verlet run ...
  Unit style    : metal
  Current step  : 52000
  Time step     : 0.001
Per MPI rank memory allocation (min/avg/max) = 19.34 | 19.34 | 19.34 Mbytes
Step Temp Press TotEng PotEng Enthalpy 
   52000    2119.6634     1303.168   -54541.539   -59925.677   -54308.242 
   52495    2106.3029     257.0054   -54699.231   -60049.432   -54653.334 
Loop time of 78.1663 on 1 procs for 495 steps with 19652 atoms

Performance: 0.547 ns/day, 43.864 hours/ns, 6.333 timesteps/s
99.6% CPU use with 1 MPI tasks x no OpenMP threads

MPI task timing breakdown:
Section |  min time  |  avg time  |  max time  |%varavg| %total
---------------------------------------------------------------
Pair    | 42.562     | 42.562     | 42.562     |   0.0 | 54.45
Neigh   | 34.322     | 34.322     | 34.322     |   0.0 | 43.91
Comm    | 0.50137    | 0.50137    | 0.50137    |   0.0 |  0.64
Output  | 0.000144   | 0.000144   | 0.000144   |   0.0 |  0.00
Modify  | 0.61597    | 0.61597    | 0.61597    |   0.0 |  0.79
Other   |            | 0.1642     |            |       |  0.21

Nlocal:    19652 ave 19652 max 19652 min
Histogram: 1 0 0 0 0 0 0 0 0 0
Nghost:    19382 ave 19382 max 19382 min
Histogram: 1 0 0 0 0 0 0 0 0 0
Neighs:    1.72132e+06 ave 1.72132e+06 max 1.72132e+06 min
Histogram: 1 0 0 0 0 0 0 0 0 0

Total # of neighbors = 1721325
Ave neighs/atom = 87.5903
Neighbor list builds = 495
Dangerous builds not checked
Setting up Verlet run ...
  Unit style    : metal
  Current step  : 52495
  Time step     : 0.001
Per MPI rank memory allocation (min/avg/max) = 19.34 | 19.34 | 19.34 Mbytes
Step Temp Press TotEng PotEng Enthalpy 
   52495    2106.3029     257.0054   -54699.231   -60049.432   -54653.334 
   54000    2094.7962    267.45926   -54787.688   -60108.662   -54739.988 
Loop time of 262.284 on 1 procs for 1505 steps with 19652 atoms

Performance: 0.496 ns/day, 48.410 hours/ns, 5.738 timesteps/s
98.3% CPU use with 1 MPI tasks x no OpenMP threads

MPI task timing breakdown:
Section |  min time  |  avg time  |  max time  |%varavg| %total
---------------------------------------------------------------
Pair    | 143.58     | 143.58     | 143.58     |   0.0 | 54.74
Neigh   | 114.01     | 114.01     | 114.01     |   0.0 | 43.47
Comm    | 1.7001     | 1.7001     | 1.7001     |   0.0 |  0.65
Output  | 0.39057    | 0.39057    | 0.39057    |   0.0 |  0.15
Modify  | 2.0641     | 2.0641     | 2.0641     |   0.0 |  0.79
Other   |            | 0.5436     |            |       |  0.21

Nlocal:    19652 ave 19652 max 19652 min
Histogram: 1 0 0 0 0 0 0 0 0 0
Nghost:    19399 ave 19399 max 19399 min
Histogram: 1 0 0 0 0 0 0 0 0 0
Neighs:    1.72278e+06 ave 1.72278e+06 max 1.72278e+06 min
Histogram: 1 0 0 0 0 0 0 0 0 0

Total # of neighbors = 1722775
Ave neighs/atom = 87.6641
Neighbor list builds = 1505
Dangerous builds not checked
Setting up Verlet run ...
  Unit style    : metal
  Current step  : 54000
  Time step     : 0.001
Per MPI rank memory allocation (min/avg/max) = 19.34 | 19.34 | 19.34 Mbytes
Step Temp Press TotEng PotEng Enthalpy 
   54000    2094.7962    267.45926   -54787.688   -60108.662   -54739.988 
   54495    2060.2865     303.0605   -54986.965   -60220.281   -54933.105 
Loop time of 91.3827 on 1 procs for 495 steps with 19652 atoms

Performance: 0.468 ns/day, 51.281 hours/ns, 5.417 timesteps/s
98.7% CPU use with 1 MPI tasks x no OpenMP threads

MPI task timing breakdown:
Section |  min time  |  avg time  |  max time  |%varavg| %total
---------------------------------------------------------------
Pair    | 50.615     | 50.615     | 50.615     |   0.0 | 55.39
Neigh   | 39.26      | 39.26      | 39.26      |   0.0 | 42.96
Comm    | 0.59748    | 0.59748    | 0.59748    |   0.0 |  0.65
Output  | 0.00011396 | 0.00011396 | 0.00011396 |   0.0 |  0.00
Modify  | 0.72607    | 0.72607    | 0.72607    |   0.0 |  0.79
Other   |            | 0.1847     |            |       |  0.20

Nlocal:    19652 ave 19652 max 19652 min
Histogram: 1 0 0 0 0 0 0 0 0 0
Nghost:    19509 ave 19509 max 19509 min
Histogram: 1 0 0 0 0 0 0 0 0 0
Neighs:    1.72852e+06 ave 1.72852e+06 max 1.72852e+06 min
Histogram: 1 0 0 0 0 0 0 0 0 0

Total # of neighbors = 1728515
Ave neighs/atom = 87.9562
Neighbor list builds = 495
Dangerous builds not checked
Setting up Verlet run ...
  Unit style    : metal
  Current step  : 54495
  Time step     : 0.001
Per MPI rank memory allocation (min/avg/max) = 19.34 | 19.34 | 19.34 Mbytes
Step Temp Press TotEng PotEng Enthalpy 
   54495    2060.2865     303.0605   -54986.965   -60220.281   -54933.105 
   56000    2042.9427   -870.67396   -55078.482   -60267.742   -55233.113 
Loop time of 278.177 on 1 procs for 1505 steps with 19652 atoms

Performance: 0.467 ns/day, 51.343 hours/ns, 5.410 timesteps/s
98.7% CPU use with 1 MPI tasks x no OpenMP threads

MPI task timing breakdown:
Section |  min time  |  avg time  |  max time  |%varavg| %total
---------------------------------------------------------------
Pair    | 153.46     | 153.46     | 153.46     |   0.0 | 55.17
Neigh   | 120.03     | 120.03     | 120.03     |   0.0 | 43.15
Comm    | 1.788      | 1.788      | 1.788      |   0.0 |  0.64
Output  | 0.1437     | 0.1437     | 0.1437     |   0.0 |  0.05
Modify  | 2.1969     | 2.1969     | 2.1969     |   0.0 |  0.79
Other   |            | 0.5551     |            |       |  0.20

Nlocal:    19652 ave 19652 max 19652 min
Histogram: 1 0 0 0 0 0 0 0 0 0
Nghost:    19435 ave 19435 max 19435 min
Histogram: 1 0 0 0 0 0 0 0 0 0
Neighs:    1.73025e+06 ave 1.73025e+06 max 1.73025e+06 min
Histogram: 1 0 0 0 0 0 0 0 0 0

Total # of neighbors = 1730249
Ave neighs/atom = 88.0444
Neighbor list builds = 1505
Dangerous builds not checked
Setting up Verlet run ...
  Unit style    : metal
  Current step  : 56000
  Time step     : 0.001
Per MPI rank memory allocation (min/avg/max) = 19.34 | 19.34 | 19.34 Mbytes
Step Temp Press TotEng PotEng Enthalpy 
   56000    2042.9427   -870.67396   -55078.482   -60267.742   -55233.113 
   56495    2006.6429   -260.74412   -55292.042   -60389.097   -55338.153 
Loop time of 85.3854 on 1 procs for 495 steps with 19652 atoms

Performance: 0.501 ns/day, 47.915 hours/ns, 5.797 timesteps/s
99.4% CPU use with 1 MPI tasks x no OpenMP threads

MPI task timing breakdown:
Section |  min time  |  avg time  |  max time  |%varavg| %total
---------------------------------------------------------------
Pair    | 47         | 47         | 47         |   0.0 | 55.04
Neigh   | 36.987     | 36.987     | 36.987     |   0.0 | 43.32
Comm    | 0.54657    | 0.54657    | 0.54657    |   0.0 |  0.64
Output  | 0.0001502  | 0.0001502  | 0.0001502  |   0.0 |  0.00
Modify  | 0.67415    | 0.67415    | 0.67415    |   0.0 |  0.79
Other   |            | 0.1773     |            |       |  0.21

Nlocal:    19652 ave 19652 max 19652 min
Histogram: 1 0 0 0 0 0 0 0 0 0
Nghost:    19550 ave 19550 max 19550 min
Histogram: 1 0 0 0 0 0 0 0 0 0
Neighs:    1.73733e+06 ave 1.73733e+06 max 1.73733e+06 min
Histogram: 1 0 0 0 0 0 0 0 0 0

Total # of neighbors = 1737332
Ave neighs/atom = 88.4048
Neighbor list builds = 495
Dangerous builds not checked
Setting up Verlet run ...
  Unit style    : metal
  Current step  : 56495
  Time step     : 0.001
Per MPI rank memory allocation (min/avg/max) = 19.34 | 19.34 | 19.34 Mbytes
Step Temp Press TotEng PotEng Enthalpy 
   56495    2006.6429   -260.74412   -55292.042   -60389.097   -55338.153 
   58000    1979.2334   -8.5399734   -55413.137    -60440.57   -55414.646 
Loop time of 252.455 on 1 procs for 1505 steps with 19652 atoms

Performance: 0.515 ns/day, 46.596 hours/ns, 5.961 timesteps/s
98.7% CPU use with 1 MPI tasks x no OpenMP threads

MPI task timing breakdown:
Section |  min time  |  avg time  |  max time  |%varavg| %total
---------------------------------------------------------------
Pair    | 138.3      | 138.3      | 138.3      |   0.0 | 54.78
Neigh   | 109.8      | 109.8      | 109.8      |   0.0 | 43.49
Comm    | 1.5874     | 1.5874     | 1.5874     |   0.0 |  0.63
Output  | 0.27619    | 0.27619    | 0.27619    |   0.0 |  0.11
Modify  | 1.958      | 1.958      | 1.958      |   0.0 |  0.78
Other   |            | 0.5314     |            |       |  0.21

Nlocal:    19652 ave 19652 max 19652 min
Histogram: 1 0 0 0 0 0 0 0 0 0
Nghost:    19523 ave 19523 max 19523 min
Histogram: 1 0 0 0 0 0 0 0 0 0
Neighs:    1.73831e+06 ave 1.73831e+06 max 1.73831e+06 min
Histogram: 1 0 0 0 0 0 0 0 0 0

Total # of neighbors = 1738312
Ave neighs/atom = 88.4547
Neighbor list builds = 1505
Dangerous builds not checked
Setting up Verlet run ...
  Unit style    : metal
  Current step  : 58000
  Time step     : 0.001
Per MPI rank memory allocation (min/avg/max) = 19.34 | 19.34 | 19.34 Mbytes
Step Temp Press TotEng PotEng Enthalpy 
   58000    1979.2334   -8.5399734   -55413.137    -60440.57   -55414.646 
   58495    1945.9226    412.59411    -55565.33   -60508.151   -55492.667 
Loop time of 79.0784 on 1 procs for 495 steps with 19652 atoms

Performance: 0.541 ns/day, 44.376 hours/ns, 6.260 timesteps/s
98.5% CPU use with 1 MPI tasks x no OpenMP threads

MPI task timing breakdown:
Section |  min time  |  avg time  |  max time  |%varavg| %total
---------------------------------------------------------------
Pair    | 43.255     | 43.255     | 43.255     |   0.0 | 54.70
Neigh   | 34.51      | 34.51      | 34.51      |   0.0 | 43.64
Comm    | 0.5017     | 0.5017     | 0.5017     |   0.0 |  0.63
Output  | 0.00013518 | 0.00013518 | 0.00013518 |   0.0 |  0.00
Modify  | 0.6274     | 0.6274     | 0.6274     |   0.0 |  0.79
Other   |            | 0.1843     |            |       |  0.23

Nlocal:    19652 ave 19652 max 19652 min
Histogram: 1 0 0 0 0 0 0 0 0 0
Nghost:    19590 ave 19590 max 19590 min
Histogram: 1 0 0 0 0 0 0 0 0 0
Neighs:    1.74407e+06 ave 1.74407e+06 max 1.74407e+06 min
Histogram: 1 0 0 0 0 0 0 0 0 0

Total # of neighbors = 1744069
Ave neighs/atom = 88.7477
Neighbor list builds = 495
Dangerous builds not checked
Setting up Verlet run ...
  Unit style    : metal
  Current step  : 58495
  Time step     : 0.001
Per MPI rank memory allocation (min/avg/max) = 19.34 | 19.34 | 19.34 Mbytes
Step Temp Press TotEng PotEng Enthalpy 
   58495    1945.9226    412.59411    -55565.33   -60508.151   -55492.667 
   60000     1954.337    2179.0416   -55631.427   -60595.621    -55249.24 
Loop time of 269.959 on 1 procs for 1505 steps with 19652 atoms

Performance: 0.482 ns/day, 49.826 hours/ns, 5.575 timesteps/s
97.9% CPU use with 1 MPI tasks x no OpenMP threads

MPI task timing breakdown:
Section |  min time  |  avg time  |  max time  |%varavg| %total
---------------------------------------------------------------
Pair    | 148.74     | 148.74     | 148.74     |   0.0 | 55.10
Neigh   | 116.74     | 116.74     | 116.74     |   0.0 | 43.24
Comm    | 1.7093     | 1.7093     | 1.7093     |   0.0 |  0.63
Output  | 0.088001   | 0.088001   | 0.088001   |   0.0 |  0.03
Modify  | 2.1272     | 2.1272     | 2.1272     |   0.0 |  0.79
Other   |            | 0.5556     |            |       |  0.21

Nlocal:    19652 ave 19652 max 19652 min
Histogram: 1 0 0 0 0 0 0 0 0 0
Nghost:    19548 ave 19548 max 19548 min
Histogram: 1 0 0 0 0 0 0 0 0 0
Neighs:    1.75131e+06 ave 1.75131e+06 max 1.75131e+06 min
Histogram: 1 0 0 0 0 0 0 0 0 0

Total # of neighbors = 1751314
Ave neighs/atom = 89.1163
Neighbor list builds = 1505
Dangerous builds not checked
Setting up Verlet run ...
  Unit style    : metal
  Current step  : 60000
  Time step     : 0.001
Per MPI rank memory allocation (min/avg/max) = 19.34 | 19.34 | 19.34 Mbytes
Step Temp Press TotEng PotEng Enthalpy 
   60000     1954.337    2179.0416   -55631.427   -60595.621    -55249.24 
   60495    1912.0971    1821.3134    -55863.58    -60720.48   -55545.095 
Loop time of 80.588 on 1 procs for 495 steps with 19652 atoms

Performance: 0.531 ns/day, 45.223 hours/ns, 6.142 timesteps/s
99.7% CPU use with 1 MPI tasks x no OpenMP threads

MPI task timing breakdown:
Section |  min time  |  avg time  |  max time  |%varavg| %total
---------------------------------------------------------------
Pair    | 44.378     | 44.378     | 44.378     |   0.0 | 55.07
Neigh   | 34.923     | 34.923     | 34.923     |   0.0 | 43.34
Comm    | 0.49719    | 0.49719    | 0.49719    |   0.0 |  0.62
Output  | 0.00019121 | 0.00019121 | 0.00019121 |   0.0 |  0.00
Modify  | 0.61642    | 0.61642    | 0.61642    |   0.0 |  0.76
Other   |            | 0.1725     |            |       |  0.21

Nlocal:    19652 ave 19652 max 19652 min
Histogram: 1 0 0 0 0 0 0 0 0 0
Nghost:    19689 ave 19689 max 19689 min
Histogram: 1 0 0 0 0 0 0 0 0 0
Neighs:    1.7563e+06 ave 1.7563e+06 max 1.7563e+06 min
Histogram: 1 0 0 0 0 0 0 0 0 0

Total # of neighbors = 1756296
Ave neighs/atom = 89.3698
Neighbor list builds = 495
Dangerous builds not checked
Setting up Verlet run ...
  Unit style    : metal
  Current step  : 60495
  Time step     : 0.001
Per MPI rank memory allocation (min/avg/max) = 19.34 | 19.34 | 19.34 Mbytes
Step Temp Press TotEng PotEng Enthalpy 
   60495    1912.0971    1821.3134    -55863.58    -60720.48   -55545.095 
   62000    1896.7551     2269.418   -55964.296   -60782.227   -55568.452 
Loop time of 287.196 on 1 procs for 1505 steps with 19652 atoms

Performance: 0.453 ns/day, 53.008 hours/ns, 5.240 timesteps/s
98.4% CPU use with 1 MPI tasks x no OpenMP threads

MPI task timing breakdown:
Section |  min time  |  avg time  |  max time  |%varavg| %total
---------------------------------------------------------------
Pair    | 158.55     | 158.55     | 158.55     |   0.0 | 55.20
Neigh   | 123.95     | 123.95     | 123.95     |   0.0 | 43.16
Comm    | 1.8229     | 1.8229     | 1.8229     |   0.0 |  0.63
Output  | 0.057906   | 0.057906   | 0.057906   |   0.0 |  0.02
Modify  | 2.252      | 2.252      | 2.252      |   0.0 |  0.78
Other   |            | 0.5714     |            |       |  0.20

Nlocal:    19652 ave 19652 max 19652 min
Histogram: 1 0 0 0 0 0 0 0 0 0
Nghost:    19516 ave 19516 max 19516 min
Histogram: 1 0 0 0 0 0 0 0 0 0
Neighs:    1.76094e+06 ave 1.76094e+06 max 1.76094e+06 min
Histogram: 1 0 0 0 0 0 0 0 0 0

Total # of neighbors = 1760944
Ave neighs/atom = 89.6064
Neighbor list builds = 1505
Dangerous builds not checked
Setting up Verlet run ...
  Unit style    : metal
  Current step  : 62000
  Time step     : 0.001
Per MPI rank memory allocation (min/avg/max) = 19.34 | 19.34 | 19.34 Mbytes
Step Temp Press TotEng PotEng Enthalpy 
   62000    1896.7551     2269.418   -55964.296   -60782.227   -55568.452 
   62495    1880.4036    804.43898    -56107.93   -60884.326    -55967.78 
Loop time of 93.6838 on 1 procs for 495 steps with 19652 atoms

Performance: 0.457 ns/day, 52.572 hours/ns, 5.284 timesteps/s
97.5% CPU use with 1 MPI tasks x no OpenMP threads

MPI task timing breakdown:
Section |  min time  |  avg time  |  max time  |%varavg| %total
---------------------------------------------------------------
Pair    | 51.371     | 51.371     | 51.371     |   0.0 | 54.83
Neigh   | 40.777     | 40.777     | 40.777     |   0.0 | 43.53
Comm    | 0.58324    | 0.58324    | 0.58324    |   0.0 |  0.62
Output  | 0.00014186 | 0.00014186 | 0.00014186 |   0.0 |  0.00
Modify  | 0.76303    | 0.76303    | 0.76303    |   0.0 |  0.81
Other   |            | 0.1898     |            |       |  0.20

Nlocal:    19652 ave 19652 max 19652 min
Histogram: 1 0 0 0 0 0 0 0 0 0
Nghost:    19675 ave 19675 max 19675 min
Histogram: 1 0 0 0 0 0 0 0 0 0
Neighs:    1.763e+06 ave 1.763e+06 max 1.763e+06 min
Histogram: 1 0 0 0 0 0 0 0 0 0

Total # of neighbors = 1763000
Ave neighs/atom = 89.711
Neighbor list builds = 495
Dangerous builds not checked
Setting up Verlet run ...
  Unit style    : metal
  Current step  : 62495
  Time step     : 0.001
Per MPI rank memory allocation (min/avg/max) = 19.34 | 19.34 | 19.34 Mbytes
Step Temp Press TotEng PotEng Enthalpy 
   62495    1880.4036    804.43898    -56107.93   -60884.326    -55967.78 
   64000    1845.1639    554.35897   -56298.213   -60985.098   -56201.899 
Loop time of 282.426 on 1 procs for 1505 steps with 19652 atoms

Performance: 0.460 ns/day, 52.127 hours/ns, 5.329 timesteps/s
98.0% CPU use with 1 MPI tasks x no OpenMP threads

MPI task timing breakdown:
Section |  min time  |  avg time  |  max time  |%varavg| %total
---------------------------------------------------------------
Pair    | 156.19     | 156.19     | 156.19     |   0.0 | 55.30
Neigh   | 121.56     | 121.56     | 121.56     |   0.0 | 43.04
Comm    | 1.7874     | 1.7874     | 1.7874     |   0.0 |  0.63
Output  | 0.077749   | 0.077749   | 0.077749   |   0.0 |  0.03
Modify  | 2.223      | 2.223      | 2.223      |   0.0 |  0.79
Other   |            | 0.5794     |            |       |  0.21

Nlocal:    19652 ave 19652 max 19652 min
Histogram: 1 0 0 0 0 0 0 0 0 0
Nghost:    19587 ave 19587 max 19587 min
Histogram: 1 0 0 0 0 0 0 0 0 0
Neighs:    1.76684e+06 ave 1.76684e+06 max 1.76684e+06 min
Histogram: 1 0 0 0 0 0 0 0 0 0

Total # of neighbors = 1766842
Ave neighs/atom = 89.9065
Neighbor list builds = 1505
Dangerous builds not checked
Setting up Verlet run ...
  Unit style    : metal
  Current step  : 64000
  Time step     : 0.001
Per MPI rank memory allocation (min/avg/max) = 19.34 | 19.34 | 19.34 Mbytes
Step Temp Press TotEng PotEng Enthalpy 
   64000    1845.1639    554.35897   -56298.213   -60985.098   -56201.899 
   64495    1821.9666    420.64801   -56459.975   -61087.937   -56387.083 
Loop time of 102.687 on 1 procs for 495 steps with 19652 atoms

Performance: 0.416 ns/day, 57.624 hours/ns, 4.820 timesteps/s
97.4% CPU use with 1 MPI tasks x no OpenMP threads

MPI task timing breakdown:
Section |  min time  |  avg time  |  max time  |%varavg| %total
---------------------------------------------------------------
Pair    | 57.579     | 57.579     | 57.579     |   0.0 | 56.07
Neigh   | 43.379     | 43.379     | 43.379     |   0.0 | 42.24
Comm    | 0.67108    | 0.67108    | 0.67108    |   0.0 |  0.65
Output  | 0.00014496 | 0.00014496 | 0.00014496 |   0.0 |  0.00
Modify  | 0.85448    | 0.85448    | 0.85448    |   0.0 |  0.83
Other   |            | 0.2033     |            |       |  0.20

Nlocal:    19652 ave 19652 max 19652 min
Histogram: 1 0 0 0 0 0 0 0 0 0
Nghost:    19713 ave 19713 max 19713 min
Histogram: 1 0 0 0 0 0 0 0 0 0
Neighs:    1.7717e+06 ave 1.7717e+06 max 1.7717e+06 min
Histogram: 1 0 0 0 0 0 0 0 0 0

Total # of neighbors = 1771695
Ave neighs/atom = 90.1534
Neighbor list builds = 495
Dangerous builds not checked
Setting up Verlet run ...
  Unit style    : metal
  Current step  : 64495
  Time step     : 0.001
Per MPI rank memory allocation (min/avg/max) = 19.34 | 19.34 | 19.34 Mbytes
Step Temp Press TotEng PotEng Enthalpy 
   64495    1821.9666    420.64801   -56459.975   -61087.937   -56387.083 
   66000    1811.4622   -2281.2722   -56491.162   -61092.441   -56887.385 
Loop time of 285.223 on 1 procs for 1505 steps with 19652 atoms

Performance: 0.456 ns/day, 52.644 hours/ns, 5.277 timesteps/s
98.3% CPU use with 1 MPI tasks x no OpenMP threads

MPI task timing breakdown:
Section |  min time  |  avg time  |  max time  |%varavg| %total
---------------------------------------------------------------
Pair    | 157.07     | 157.07     | 157.07     |   0.0 | 55.07
Neigh   | 122.47     | 122.47     | 122.47     |   0.0 | 42.94
Comm    | 1.809      | 1.809      | 1.809      |   0.0 |  0.63
Output  | 1.055      | 1.055      | 1.055      |   0.0 |  0.37
Modify  | 2.2422     | 2.2422     | 2.2422     |   0.0 |  0.79
Other   |            | 0.5758     |            |       |  0.20

Nlocal:    19652 ave 19652 max 19652 min
Histogram: 1 0 0 0 0 0 0 0 0 0
Nghost:    19711 ave 19711 max 19711 min
Histogram: 1 0 0 0 0 0 0 0 0 0
Neighs:    1.76733e+06 ave 1.76733e+06 max 1.76733e+06 min
Histogram: 1 0 0 0 0 0 0 0 0 0

Total # of neighbors = 1767326
Ave neighs/atom = 89.9311
Neighbor list builds = 1505
Dangerous builds not checked
Setting up Verlet run ...
  Unit style    : metal
  Current step  : 66000
  Time step     : 0.001
Per MPI rank memory allocation (min/avg/max) = 19.34 | 19.34 | 19.34 Mbytes
Step Temp Press TotEng PotEng Enthalpy 
   66000    1811.4622   -2281.2722   -56491.162   -61092.441   -56887.385 
   66495    1759.2722   -1616.0007   -56761.495   -61230.207   -57040.942 
Loop time of 93.574 on 1 procs for 495 steps with 19652 atoms

Performance: 0.457 ns/day, 52.511 hours/ns, 5.290 timesteps/s
95.5% CPU use with 1 MPI tasks x no OpenMP threads

MPI task timing breakdown:
Section |  min time  |  avg time  |  max time  |%varavg| %total
---------------------------------------------------------------
Pair    | 52.258     | 52.258     | 52.258     |   0.0 | 55.85
Neigh   | 39.802     | 39.802     | 39.802     |   0.0 | 42.54
Comm    | 0.58641    | 0.58641    | 0.58641    |   0.0 |  0.63
Output  | 0.00014997 | 0.00014997 | 0.00014997 |   0.0 |  0.00
Modify  | 0.74159    | 0.74159    | 0.74159    |   0.0 |  0.79
Other   |            | 0.1855     |            |       |  0.20

Nlocal:    19652 ave 19652 max 19652 min
Histogram: 1 0 0 0 0 0 0 0 0 0
Nghost:    19731 ave 19731 max 19731 min
Histogram: 1 0 0 0 0 0 0 0 0 0
Neighs:    1.77484e+06 ave 1.77484e+06 max 1.77484e+06 min
Histogram: 1 0 0 0 0 0 0 0 0 0

Total # of neighbors = 1774841
Ave neighs/atom = 90.3135
Neighbor list builds = 495
Dangerous builds not checked
Setting up Verlet run ...
  Unit style    : metal
  Current step  : 66495
  Time step     : 0.001
Per MPI rank memory allocation (min/avg/max) = 19.34 | 19.34 | 19.34 Mbytes
Step Temp Press TotEng PotEng Enthalpy 
   66495    1759.2722   -1616.0007   -56761.495   -61230.207   -57040.942 
   68000    1743.8478   -654.64136   -56858.908    -61288.44   -56971.772 
Loop time of 260.534 on 1 procs for 1505 steps with 19652 atoms

Performance: 0.499 ns/day, 48.087 hours/ns, 5.777 timesteps/s
98.7% CPU use with 1 MPI tasks x no OpenMP threads

MPI task timing breakdown:
Section |  min time  |  avg time  |  max time  |%varavg| %total
---------------------------------------------------------------
Pair    | 143.28     | 143.28     | 143.28     |   0.0 | 54.99
Neigh   | 113        | 113        | 113        |   0.0 | 43.37
Comm    | 1.6429     | 1.6429     | 1.6429     |   0.0 |  0.63
Output  | 0.075244   | 0.075244   | 0.075244   |   0.0 |  0.03
Modify  | 2.0141     | 2.0141     | 2.0141     |   0.0 |  0.77
Other   |            | 0.5304     |            |       |  0.20

Nlocal:    19652 ave 19652 max 19652 min
Histogram: 1 0 0 0 0 0 0 0 0 0
Nghost:    19738 ave 19738 max 19738 min
Histogram: 1 0 0 0 0 0 0 0 0 0
Neighs:    1.77987e+06 ave 1.77987e+06 max 1.77987e+06 min
Histogram: 1 0 0 0 0 0 0 0 0 0

Total # of neighbors = 1779871
Ave neighs/atom = 90.5695
Neighbor list builds = 1505
Dangerous builds not checked
Setting up Verlet run ...
  Unit style    : metal
  Current step  : 68000
  Time step     : 0.001
Per MPI rank memory allocation (min/avg/max) = 19.34 | 19.34 | 19.34 Mbytes
Step Temp Press TotEng PotEng Enthalpy 
   68000    1743.8478   -654.64136   -56858.908    -61288.44   -56971.772 
   68495    1701.2259   -646.10478   -57073.889   -61395.158   -57184.959 
Loop time of 87.6819 on 1 procs for 495 steps with 19652 atoms

Performance: 0.488 ns/day, 49.204 hours/ns, 5.645 timesteps/s
98.8% CPU use with 1 MPI tasks x no OpenMP threads

MPI task timing breakdown:
Section |  min time  |  avg time  |  max time  |%varavg| %total
---------------------------------------------------------------
Pair    | 49.032     | 49.032     | 49.032     |   0.0 | 55.92
Neigh   | 37.206     | 37.206     | 37.206     |   0.0 | 42.43
Comm    | 0.56396    | 0.56396    | 0.56396    |   0.0 |  0.64
Output  | 0.00015497 | 0.00015497 | 0.00015497 |   0.0 |  0.00
Modify  | 0.70049    | 0.70049    | 0.70049    |   0.0 |  0.80
Other   |            | 0.1797     |            |       |  0.20

Nlocal:    19652 ave 19652 max 19652 min
Histogram: 1 0 0 0 0 0 0 0 0 0
Nghost:    19732 ave 19732 max 19732 min
Histogram: 1 0 0 0 0 0 0 0 0 0
Neighs:    1.78543e+06 ave 1.78543e+06 max 1.78543e+06 min
Histogram: 1 0 0 0 0 0 0 0 0 0

Total # of neighbors = 1785431
Ave neighs/atom = 90.8524
Neighbor list builds = 495
Dangerous builds not checked
Setting up Verlet run ...
  Unit style    : metal
  Current step  : 68495
  Time step     : 0.001
Per MPI rank memory allocation (min/avg/max) = 19.34 | 19.34 | 19.34 Mbytes
Step Temp Press TotEng PotEng Enthalpy 
   68495    1701.2259   -646.10478   -57073.889   -61395.158   -57184.959 
   70000    1700.2414    803.94247   -57110.337   -61429.105   -56972.533 
Loop time of 285.228 on 1 procs for 1505 steps with 19652 atoms

Performance: 0.456 ns/day, 52.644 hours/ns, 5.276 timesteps/s
97.8% CPU use with 1 MPI tasks x no OpenMP threads

MPI task timing breakdown:
Section |  min time  |  avg time  |  max time  |%varavg| %total
---------------------------------------------------------------
Pair    | 159.52     | 159.52     | 159.52     |   0.0 | 55.93
Neigh   | 121.03     | 121.03     | 121.03     |   0.0 | 42.43
Comm    | 1.8005     | 1.8005     | 1.8005     |   0.0 |  0.63
Output  | 0.075877   | 0.075877   | 0.075877   |   0.0 |  0.03
Modify  | 2.2137     | 2.2137     | 2.2137     |   0.0 |  0.78
Other   |            | 0.5868     |            |       |  0.21

Nlocal:    19652 ave 19652 max 19652 min
Histogram: 1 0 0 0 0 0 0 0 0 0
Nghost:    19706 ave 19706 max 19706 min
Histogram: 1 0 0 0 0 0 0 0 0 0
Neighs:    1.79029e+06 ave 1.79029e+06 max 1.79029e+06 min
Histogram: 1 0 0 0 0 0 0 0 0 0

Total # of neighbors = 1790290
Ave neighs/atom = 91.0996
Neighbor list builds = 1505
Dangerous builds not checked
Setting up Verlet run ...
  Unit style    : metal
  Current step  : 70000
  Time step     : 0.001
Per MPI rank memory allocation (min/avg/max) = 19.34 | 19.34 | 19.34 Mbytes
Step Temp Press TotEng PotEng Enthalpy 
   70000    1700.2414    803.94247   -57110.337   -61429.105   -56972.533 
   70495    1657.5998     878.1841   -57327.694   -61538.149   -57177.518 
Loop time of 87.457 on 1 procs for 495 steps with 19652 atoms

Performance: 0.489 ns/day, 49.078 hours/ns, 5.660 timesteps/s
98.8% CPU use with 1 MPI tasks x no OpenMP threads

MPI task timing breakdown:
Section |  min time  |  avg time  |  max time  |%varavg| %total
---------------------------------------------------------------
Pair    | 48.562     | 48.562     | 48.562     |   0.0 | 55.53
Neigh   | 37.475     | 37.475     | 37.475     |   0.0 | 42.85
Comm    | 0.55411    | 0.55411    | 0.55411    |   0.0 |  0.63
Output  | 0.00012589 | 0.00012589 | 0.00012589 |   0.0 |  0.00
Modify  | 0.68505    | 0.68505    | 0.68505    |   0.0 |  0.78
Other   |            | 0.1805     |            |       |  0.21

Nlocal:    19652 ave 19652 max 19652 min
Histogram: 1 0 0 0 0 0 0 0 0 0
Nghost:    19857 ave 19857 max 19857 min
Histogram: 1 0 0 0 0 0 0 0 0 0
Neighs:    1.79423e+06 ave 1.79423e+06 max 1.79423e+06 min
Histogram: 1 0 0 0 0 0 0 0 0 0

Total # of neighbors = 1794230
Ave neighs/atom = 91.3001
Neighbor list builds = 495
Dangerous builds not checked
Setting up Verlet run ...
  Unit style    : metal
  Current step  : 70495
  Time step     : 0.001
Per MPI rank memory allocation (min/avg/max) = 19.34 | 19.34 | 19.34 Mbytes
Step Temp Press TotEng PotEng Enthalpy 
   70495    1657.5998     878.1841   -57327.694   -61538.149   -57177.518 
   72000    1653.7421   -684.91721   -57459.769   -61660.425   -57576.657 
Loop time of 258.679 on 1 procs for 1505 steps with 19652 atoms

Performance: 0.503 ns/day, 47.744 hours/ns, 5.818 timesteps/s
98.2% CPU use with 1 MPI tasks x no OpenMP threads

MPI task timing breakdown:
Section |  min time  |  avg time  |  max time  |%varavg| %total
---------------------------------------------------------------
Pair    | 143.56     | 143.56     | 143.56     |   0.0 | 55.50
Neigh   | 110.8      | 110.8      | 110.8      |   0.0 | 42.83
Comm    | 1.6821     | 1.6821     | 1.6821     |   0.0 |  0.65
Output  | 0.062837   | 0.062837   | 0.062837   |   0.0 |  0.02
Modify  | 2.0343     | 2.0343     | 2.0343     |   0.0 |  0.79
Other   |            | 0.5406     |            |       |  0.21

Nlocal:    19652 ave 19652 max 19652 min
Histogram: 1 0 0 0 0 0 0 0 0 0
Nghost:    19838 ave 19838 max 19838 min
Histogram: 1 0 0 0 0 0 0 0 0 0
Neighs:    1.7978e+06 ave 1.7978e+06 max 1.7978e+06 min
Histogram: 1 0 0 0 0 0 0 0 0 0

Total # of neighbors = 1797798
Ave neighs/atom = 91.4817
Neighbor list builds = 1505
Dangerous builds not checked
Setting up Verlet run ...
  Unit style    : metal
  Current step  : 72000
  Time step     : 0.001
Per MPI rank memory allocation (min/avg/max) = 19.34 | 19.34 | 19.34 Mbytes
Step Temp Press TotEng PotEng Enthalpy 
   72000    1653.7421   -684.91721   -57459.769   -61660.425   -57576.657 
   72495    1619.8204    599.47844   -57652.932   -61767.424   -57551.045 
Loop time of 91.9004 on 1 procs for 495 steps with 19652 atoms

Performance: 0.465 ns/day, 51.572 hours/ns, 5.386 timesteps/s
99.3% CPU use with 1 MPI tasks x no OpenMP threads

MPI task timing breakdown:
Section |  min time  |  avg time  |  max time  |%varavg| %total
---------------------------------------------------------------
Pair    | 51.577     | 51.577     | 51.577     |   0.0 | 56.12
Neigh   | 38.819     | 38.819     | 38.819     |   0.0 | 42.24
Comm    | 0.59523    | 0.59523    | 0.59523    |   0.0 |  0.65
Output  | 0.00015402 | 0.00015402 | 0.00015402 |   0.0 |  0.00
Modify  | 0.72774    | 0.72774    | 0.72774    |   0.0 |  0.79
Other   |            | 0.1811     |            |       |  0.20

Nlocal:    19652 ave 19652 max 19652 min
Histogram: 1 0 0 0 0 0 0 0 0 0
Nghost:    19890 ave 19890 max 19890 min
Histogram: 1 0 0 0 0 0 0 0 0 0
Neighs:    1.80598e+06 ave 1.80598e+06 max 1.80598e+06 min
Histogram: 1 0 0 0 0 0 0 0 0 0

Total # of neighbors = 1805978
Ave neighs/atom = 91.8979
Neighbor list builds = 495
Dangerous builds not checked
Setting up Verlet run ...
  Unit style    : metal
  Current step  : 72495
  Time step     : 0.001
Per MPI rank memory allocation (min/avg/max) = 19.34 | 19.34 | 19.34 Mbytes
Step Temp Press TotEng PotEng Enthalpy 
   72495    1619.8204    599.47844   -57652.932   -61767.424   -57551.045 
   74000    1593.6372   -1883.7301   -57792.052   -61840.036    -58112.28 
Loop time of 262.305 on 1 procs for 1505 steps with 19652 atoms

Performance: 0.496 ns/day, 48.414 hours/ns, 5.738 timesteps/s
97.5% CPU use with 1 MPI tasks x no OpenMP threads

MPI task timing breakdown:
Section |  min time  |  avg time  |  max time  |%varavg| %total
---------------------------------------------------------------
Pair    | 145.65     | 145.65     | 145.65     |   0.0 | 55.53
Neigh   | 112.44     | 112.44     | 112.44     |   0.0 | 42.87
Comm    | 1.6369     | 1.6369     | 1.6369     |   0.0 |  0.62
Output  | 0.059378   | 0.059378   | 0.059378   |   0.0 |  0.02
Modify  | 1.9726     | 1.9726     | 1.9726     |   0.0 |  0.75
Other   |            | 0.5471     |            |       |  0.21

Nlocal:    19652 ave 19652 max 19652 min
Histogram: 1 0 0 0 0 0 0 0 0 0
Nghost:    19864 ave 19864 max 19864 min
Histogram: 1 0 0 0 0 0 0 0 0 0
Neighs:    1.80412e+06 ave 1.80412e+06 max 1.80412e+06 min
Histogram: 1 0 0 0 0 0 0 0 0 0

Total # of neighbors = 1804115
Ave neighs/atom = 91.8031
Neighbor list builds = 1505
Dangerous builds not checked
Setting up Verlet run ...
  Unit style    : metal
  Current step  : 74000
  Time step     : 0.001
Per MPI rank memory allocation (min/avg/max) = 19.34 | 19.34 | 19.34 Mbytes
Step Temp Press TotEng PotEng Enthalpy 
   74000    1593.6372   -1883.7301   -57792.052   -61840.036    -58112.28 
   74495    1559.9541   -815.43771   -57933.995    -61896.42   -58072.277 
Loop time of 78.9858 on 1 procs for 495 steps with 19652 atoms

Performance: 0.541 ns/day, 44.324 hours/ns, 6.267 timesteps/s
96.5% CPU use with 1 MPI tasks x no OpenMP threads

MPI task timing breakdown:
Section |  min time  |  avg time  |  max time  |%varavg| %total
---------------------------------------------------------------
Pair    | 43.618     | 43.618     | 43.618     |   0.0 | 55.22
Neigh   | 34.081     | 34.081     | 34.081     |   0.0 | 43.15
Comm    | 0.49552    | 0.49552    | 0.49552    |   0.0 |  0.63
Output  | 0.0001812  | 0.0001812  | 0.0001812  |   0.0 |  0.00
Modify  | 0.61257    | 0.61257    | 0.61257    |   0.0 |  0.78
Other   |            | 0.1792     |            |       |  0.23

Nlocal:    19652 ave 19652 max 19652 min
Histogram: 1 0 0 0 0 0 0 0 0 0
Nghost:    19889 ave 19889 max 19889 min
Histogram: 1 0 0 0 0 0 0 0 0 0
Neighs:    1.80912e+06 ave 1.80912e+06 max 1.80912e+06 min
Histogram: 1 0 0 0 0 0 0 0 0 0

Total # of neighbors = 1809125
Ave neighs/atom = 92.0581
Neighbor list builds = 495
Dangerous builds not checked
Setting up Verlet run ...
  Unit style    : metal
  Current step  : 74495
  Time step     : 0.001
Per MPI rank memory allocation (min/avg/max) = 19.34 | 19.34 | 19.34 Mbytes
Step Temp Press TotEng PotEng Enthalpy 
   74495    1559.9541   -815.43771   -57933.995    -61896.42   -58072.277 
   76000    1540.3688   -643.90102   -58085.336   -61998.013   -58194.211 
Loop time of 279.961 on 1 procs for 1505 steps with 19652 atoms

Performance: 0.464 ns/day, 51.672 hours/ns, 5.376 timesteps/s
98.5% CPU use with 1 MPI tasks x no OpenMP threads

MPI task timing breakdown:
Section |  min time  |  avg time  |  max time  |%varavg| %total
---------------------------------------------------------------
Pair    | 156.91     | 156.91     | 156.91     |   0.0 | 56.05
Neigh   | 118.45     | 118.45     | 118.45     |   0.0 | 42.31
Comm    | 1.7868     | 1.7868     | 1.7868     |   0.0 |  0.64
Output  | 0.05267    | 0.05267    | 0.05267    |   0.0 |  0.02
Modify  | 2.1877     | 2.1877     | 2.1877     |   0.0 |  0.78
Other   |            | 0.5745     |            |       |  0.21

Nlocal:    19652 ave 19652 max 19652 min
Histogram: 1 0 0 0 0 0 0 0 0 0
Nghost:    19886 ave 19886 max 19886 min
Histogram: 1 0 0 0 0 0 0 0 0 0
Neighs:    1.81331e+06 ave 1.81331e+06 max 1.81331e+06 min
Histogram: 1 0 0 0 0 0 0 0 0 0

Total # of neighbors = 1813310
Ave neighs/atom = 92.271
Neighbor list builds = 1505
Dangerous builds not checked
Setting up Verlet run ...
  Unit style    : metal
  Current step  : 76000
  Time step     : 0.001
Per MPI rank memory allocation (min/avg/max) = 19.34 | 19.34 | 19.34 Mbytes
Step Temp Press TotEng PotEng Enthalpy 
   76000    1540.3688   -643.90102   -58085.336   -61998.013   -58194.211 
   76495    1513.8224    1242.2183   -58264.532   -62109.778   -58055.312 
Loop time of 88.9545 on 1 procs for 495 steps with 19652 atoms

Performance: 0.481 ns/day, 49.918 hours/ns, 5.565 timesteps/s
99.4% CPU use with 1 MPI tasks x no OpenMP threads

MPI task timing breakdown:
Section |  min time  |  avg time  |  max time  |%varavg| %total
---------------------------------------------------------------
Pair    | 49.964     | 49.964     | 49.964     |   0.0 | 56.17
Neigh   | 37.518     | 37.518     | 37.518     |   0.0 | 42.18
Comm    | 0.56998    | 0.56998    | 0.56998    |   0.0 |  0.64
Output  | 0.00013399 | 0.00013399 | 0.00013399 |   0.0 |  0.00
Modify  | 0.71517    | 0.71517    | 0.71517    |   0.0 |  0.80
Other   |            | 0.1871     |            |       |  0.21

Nlocal:    19652 ave 19652 max 19652 min
Histogram: 1 0 0 0 0 0 0 0 0 0
Nghost:    19942 ave 19942 max 19942 min
Histogram: 1 0 0 0 0 0 0 0 0 0
Neighs:    1.8202e+06 ave 1.8202e+06 max 1.8202e+06 min
Histogram: 1 0 0 0 0 0 0 0 0 0

Total # of neighbors = 1820196
Ave neighs/atom = 92.6214
Neighbor list builds = 495
Dangerous builds not checked
Setting up Verlet run ...
  Unit style    : metal
  Current step  : 76495
  Time step     : 0.001
Per MPI rank memory allocation (min/avg/max) = 19.34 | 19.34 | 19.34 Mbytes
Step Temp Press TotEng PotEng Enthalpy 
   76495    1513.8224    1242.2183   -58264.532   -62109.778   -58055.312 
   78000    1486.0208   -765.79005   -58376.035   -62150.664   -58504.968 
Loop time of 240.331 on 1 procs for 1505 steps with 19652 atoms

Performance: 0.541 ns/day, 44.358 hours/ns, 6.262 timesteps/s
99.5% CPU use with 1 MPI tasks x no OpenMP threads

MPI task timing breakdown:
Section |  min time  |  avg time  |  max time  |%varavg| %total
---------------------------------------------------------------
Pair    | 133.43     | 133.43     | 133.43     |   0.0 | 55.52
Neigh   | 103        | 103        | 103        |   0.0 | 42.86
Comm    | 1.5125     | 1.5125     | 1.5125     |   0.0 |  0.63
Output  | 0.058342   | 0.058342   | 0.058342   |   0.0 |  0.02
Modify  | 1.8254     | 1.8254     | 1.8254     |   0.0 |  0.76
Other   |            | 0.5058     |            |       |  0.21

Nlocal:    19652 ave 19652 max 19652 min
Histogram: 1 0 0 0 0 0 0 0 0 0
Nghost:    19905 ave 19905 max 19905 min
Histogram: 1 0 0 0 0 0 0 0 0 0
Neighs:    1.82055e+06 ave 1.82055e+06 max 1.82055e+06 min
Histogram: 1 0 0 0 0 0 0 0 0 0

Total # of neighbors = 1820547
Ave neighs/atom = 92.6393
Neighbor list builds = 1505
Dangerous builds not checked
Setting up Verlet run ...
  Unit style    : metal
  Current step  : 78000
  Time step     : 0.001
Per MPI rank memory allocation (min/avg/max) = 19.34 | 19.34 | 19.34 Mbytes
Step Temp Press TotEng PotEng Enthalpy 
   78000    1486.0208   -765.79005   -58376.035   -62150.664   -58504.968 
   78495    1475.1319   -1541.1704   -58517.916   -62264.885   -58776.884 
Loop time of 91.4983 on 1 procs for 495 steps with 19652 atoms

Performance: 0.467 ns/day, 51.346 hours/ns, 5.410 timesteps/s
98.2% CPU use with 1 MPI tasks x no OpenMP threads

MPI task timing breakdown:
Section |  min time  |  avg time  |  max time  |%varavg| %total
---------------------------------------------------------------
Pair    | 51.665     | 51.665     | 51.665     |   0.0 | 56.47
Neigh   | 38.355     | 38.355     | 38.355     |   0.0 | 41.92
Comm    | 0.57336    | 0.57336    | 0.57336    |   0.0 |  0.63
Output  | 0.00013304 | 0.00013304 | 0.00013304 |   0.0 |  0.00
Modify  | 0.71349    | 0.71349    | 0.71349    |   0.0 |  0.78
Other   |            | 0.1911     |            |       |  0.21

Nlocal:    19652 ave 19652 max 19652 min
Histogram: 1 0 0 0 0 0 0 0 0 0
Nghost:    19870 ave 19870 max 19870 min
Histogram: 1 0 0 0 0 0 0 0 0 0
Neighs:    1.82496e+06 ave 1.82496e+06 max 1.82496e+06 min
Histogram: 1 0 0 0 0 0 0 0 0 0

Total # of neighbors = 1824962
Ave neighs/atom = 92.8639
Neighbor list builds = 495
Dangerous builds not checked
Setting up Verlet run ...
  Unit style    : metal
  Current step  : 78495
  Time step     : 0.001
Per MPI rank memory allocation (min/avg/max) = 19.34 | 19.34 | 19.34 Mbytes
Step Temp Press TotEng PotEng Enthalpy 
   78495    1475.1319   -1541.1704   -58517.916   -62264.885   -58776.884 
   80000    1444.0834    13.668441   -58662.753   -62330.856   -58660.463 
Loop time of 249.225 on 1 procs for 1505 steps with 19652 atoms

Performance: 0.522 ns/day, 45.999 hours/ns, 6.039 timesteps/s
98.2% CPU use with 1 MPI tasks x no OpenMP threads

MPI task timing breakdown:
Section |  min time  |  avg time  |  max time  |%varavg| %total
---------------------------------------------------------------
Pair    | 138.27     | 138.27     | 138.27     |   0.0 | 55.48
Neigh   | 106.51     | 106.51     | 106.51     |   0.0 | 42.74
Comm    | 1.5191     | 1.5191     | 1.5191     |   0.0 |  0.61
Output  | 0.4911     | 0.4911     | 0.4911     |   0.0 |  0.20
Modify  | 1.9077     | 1.9077     | 1.9077     |   0.0 |  0.77
Other   |            | 0.5264     |            |       |  0.21

Nlocal:    19652 ave 19652 max 19652 min
Histogram: 1 0 0 0 0 0 0 0 0 0
Nghost:    20022 ave 20022 max 20022 min
Histogram: 1 0 0 0 0 0 0 0 0 0
Neighs:    1.82966e+06 ave 1.82966e+06 max 1.82966e+06 min
Histogram: 1 0 0 0 0 0 0 0 0 0

Total # of neighbors = 1829660
Ave neighs/atom = 93.103
Neighbor list builds = 1505
Dangerous builds not checked
Setting up Verlet run ...
  Unit style    : metal
  Current step  : 80000
  Time step     : 0.001
Per MPI rank memory allocation (min/avg/max) = 19.34 | 19.34 | 19.34 Mbytes
Step Temp Press TotEng PotEng Enthalpy 
   80000    1444.0834    13.668441   -58662.753   -62330.856   -58660.463 
   80495    1421.0645    759.91024   -58875.302   -62484.935   -58748.651 
Loop time of 87.1882 on 1 procs for 495 steps with 19652 atoms

Performance: 0.491 ns/day, 48.927 hours/ns, 5.677 timesteps/s
98.2% CPU use with 1 MPI tasks x no OpenMP threads

MPI task timing breakdown:
Section |  min time  |  avg time  |  max time  |%varavg| %total
---------------------------------------------------------------
Pair    | 49.021     | 49.021     | 49.021     |   0.0 | 56.22
Neigh   | 36.764     | 36.764     | 36.764     |   0.0 | 42.17
Comm    | 0.53731    | 0.53731    | 0.53731    |   0.0 |  0.62
Output  | 0.00011301 | 0.00011301 | 0.00011301 |   0.0 |  0.00
Modify  | 0.67534    | 0.67534    | 0.67534    |   0.0 |  0.77
Other   |            | 0.1908     |            |       |  0.22

Nlocal:    19652 ave 19652 max 19652 min
Histogram: 1 0 0 0 0 0 0 0 0 0
Nghost:    20036 ave 20036 max 20036 min
Histogram: 1 0 0 0 0 0 0 0 0 0
Neighs:    1.83907e+06 ave 1.83907e+06 max 1.83907e+06 min
Histogram: 1 0 0 0 0 0 0 0 0 0

Total # of neighbors = 1839070
Ave neighs/atom = 93.5818
Neighbor list builds = 495
Dangerous builds not checked
Setting up Verlet run ...
  Unit style    : metal
  Current step  : 80495
  Time step     : 0.001
Per MPI rank memory allocation (min/avg/max) = 19.34 | 19.34 | 19.34 Mbytes
Step Temp Press TotEng PotEng Enthalpy 
   80495    1421.0645    759.91024   -58875.302   -62484.935   -58748.651 
   82000    1407.7569   -1376.8683   -58936.861   -62512.692   -59166.668 
Loop time of 270.203 on 1 procs for 1505 steps with 19652 atoms

Performance: 0.481 ns/day, 49.871 hours/ns, 5.570 timesteps/s
99.1% CPU use with 1 MPI tasks x no OpenMP threads

MPI task timing breakdown:
Section |  min time  |  avg time  |  max time  |%varavg| %total
---------------------------------------------------------------
Pair    | 151.32     | 151.32     | 151.32     |   0.0 | 56.00
Neigh   | 114.52     | 114.52     | 114.52     |   0.0 | 42.38
Comm    | 1.6763     | 1.6763     | 1.6763     |   0.0 |  0.62
Output  | 0.062069   | 0.062069   | 0.062069   |   0.0 |  0.02
Modify  | 2.0722     | 2.0722     | 2.0722     |   0.0 |  0.77
Other   |            | 0.5462     |            |       |  0.20

Nlocal:    19652 ave 19652 max 19652 min
Histogram: 1 0 0 0 0 0 0 0 0 0
Nghost:    19996 ave 19996 max 19996 min
Histogram: 1 0 0 0 0 0 0 0 0 0
Neighs:    1.83585e+06 ave 1.83585e+06 max 1.83585e+06 min
Histogram: 1 0 0 0 0 0 0 0 0 0

Total # of neighbors = 1835848
Ave neighs/atom = 93.4179
Neighbor list builds = 1505
Dangerous builds not checked
Setting up Verlet run ...
  Unit style    : metal
  Current step  : 82000
  Time step     : 0.001
Per MPI rank memory allocation (min/avg/max) = 19.34 | 19.34 | 19.34 Mbytes
Step Temp Press TotEng PotEng Enthalpy 
   82000    1407.7569   -1376.8683   -58936.861   -62512.692   -59166.668 
   82495     1363.317   -601.27168   -59196.841    -62659.79   -59296.705 
Loop time of 87.735 on 1 procs for 495 steps with 19652 atoms

Performance: 0.487 ns/day, 49.234 hours/ns, 5.642 timesteps/s
99.8% CPU use with 1 MPI tasks x no OpenMP threads

MPI task timing breakdown:
Section |  min time  |  avg time  |  max time  |%varavg| %total
---------------------------------------------------------------
Pair    | 49.001     | 49.001     | 49.001     |   0.0 | 55.85
Neigh   | 37.306     | 37.306     | 37.306     |   0.0 | 42.52
Comm    | 0.55824    | 0.55824    | 0.55824    |   0.0 |  0.64
Output  | 0.00015306 | 0.00015306 | 0.00015306 |   0.0 |  0.00
Modify  | 0.69289    | 0.69289    | 0.69289    |   0.0 |  0.79
Other   |            | 0.1766     |            |       |  0.20

Nlocal:    19652 ave 19652 max 19652 min
Histogram: 1 0 0 0 0 0 0 0 0 0
Nghost:    20077 ave 20077 max 20077 min
Histogram: 1 0 0 0 0 0 0 0 0 0
Neighs:    1.84569e+06 ave 1.84569e+06 max 1.84569e+06 min
Histogram: 1 0 0 0 0 0 0 0 0 0

Total # of neighbors = 1845687
Ave neighs/atom = 93.9185
Neighbor list builds = 495
Dangerous builds not checked
Setting up Verlet run ...
  Unit style    : metal
  Current step  : 82495
  Time step     : 0.001
Per MPI rank memory allocation (min/avg/max) = 19.34 | 19.34 | 19.34 Mbytes
Step Temp Press TotEng PotEng Enthalpy 
   82495     1363.317   -601.27168   -59196.841    -62659.79   -59296.705 
   84000    1356.1284   -242.46921   -59281.461    -62726.15   -59321.646 
Loop time of 256.877 on 1 procs for 1505 steps with 19652 atoms

Performance: 0.506 ns/day, 47.412 hours/ns, 5.859 timesteps/s
99.4% CPU use with 1 MPI tasks x no OpenMP threads

MPI task timing breakdown:
Section |  min time  |  avg time  |  max time  |%varavg| %total
---------------------------------------------------------------
Pair    | 142.98     | 142.98     | 142.98     |   0.0 | 55.66
Neigh   | 109.75     | 109.75     | 109.75     |   0.0 | 42.72
Comm    | 1.6027     | 1.6027     | 1.6027     |   0.0 |  0.62
Output  | 0.076409   | 0.076409   | 0.076409   |   0.0 |  0.03
Modify  | 1.9584     | 1.9584     | 1.9584     |   0.0 |  0.76
Other   |            | 0.5112     |            |       |  0.20

Nlocal:    19652 ave 19652 max 19652 min
Histogram: 1 0 0 0 0 0 0 0 0 0
Nghost:    20041 ave 20041 max 20041 min
Histogram: 1 0 0 0 0 0 0 0 0 0
Neighs:    1.84868e+06 ave 1.84868e+06 max 1.84868e+06 min
Histogram: 1 0 0 0 0 0 0 0 0 0

Total # of neighbors = 1848678
Ave neighs/atom = 94.0707
Neighbor list builds = 1505
Dangerous builds not checked
Setting up Verlet run ...
  Unit style    : metal
  Current step  : 84000
  Time step     : 0.001
Per MPI rank memory allocation (min/avg/max) = 19.34 | 19.34 | 19.34 Mbytes
Step Temp Press TotEng PotEng Enthalpy 
   84000    1356.1284   -242.46921   -59281.461    -62726.15   -59321.646 
   84495    1314.1422    911.59001   -59491.869    -62829.91   -59341.379 
Loop time of 79.6498 on 1 procs for 495 steps with 19652 atoms

Performance: 0.537 ns/day, 44.697 hours/ns, 6.215 timesteps/s
97.3% CPU use with 1 MPI tasks x no OpenMP threads

MPI task timing breakdown:
Section |  min time  |  avg time  |  max time  |%varavg| %total
---------------------------------------------------------------
Pair    | 44.246     | 44.246     | 44.246     |   0.0 | 55.55
Neigh   | 34.139     | 34.139     | 34.139     |   0.0 | 42.86
Comm    | 0.49823    | 0.49823    | 0.49823    |   0.0 |  0.63
Output  | 0.00014496 | 0.00014496 | 0.00014496 |   0.0 |  0.00
Modify  | 0.60748    | 0.60748    | 0.60748    |   0.0 |  0.76
Other   |            | 0.1592     |            |       |  0.20

Nlocal:    19652 ave 19652 max 19652 min
Histogram: 1 0 0 0 0 0 0 0 0 0
Nghost:    20046 ave 20046 max 20046 min
Histogram: 1 0 0 0 0 0 0 0 0 0
Neighs:    1.8558e+06 ave 1.8558e+06 max 1.8558e+06 min
Histogram: 1 0 0 0 0 0 0 0 0 0

Total # of neighbors = 1855797
Ave neighs/atom = 94.433
Neighbor list builds = 495
Dangerous builds not checked
Setting up Verlet run ...
  Unit style    : metal
  Current step  : 84495
  Time step     : 0.001
Per MPI rank memory allocation (min/avg/max) = 19.34 | 19.34 | 19.34 Mbytes
Step Temp Press TotEng PotEng Enthalpy 
   84495    1314.1422    911.59001   -59491.869    -62829.91   -59341.379 
   86000    1304.2726    2007.1616   -59642.032   -62955.003   -59311.961 
Loop time of 232.497 on 1 procs for 1505 steps with 19652 atoms

Performance: 0.559 ns/day, 42.912 hours/ns, 6.473 timesteps/s
98.5% CPU use with 1 MPI tasks x no OpenMP threads

MPI task timing breakdown:
Section |  min time  |  avg time  |  max time  |%varavg| %total
---------------------------------------------------------------
Pair    | 127.76     | 127.76     | 127.76     |   0.0 | 54.95
Neigh   | 98.614     | 98.614     | 98.614     |   0.0 | 42.42
Comm    | 1.4296     | 1.4296     | 1.4296     |   0.0 |  0.61
Output  | 2.5195     | 2.5195     | 2.5195     |   0.0 |  1.08
Modify  | 1.715      | 1.715      | 1.715      |   0.0 |  0.74
Other   |            | 0.4584     |            |       |  0.20

Nlocal:    19652 ave 19652 max 19652 min
Histogram: 1 0 0 0 0 0 0 0 0 0
Nghost:    20103 ave 20103 max 20103 min
Histogram: 1 0 0 0 0 0 0 0 0 0
Neighs:    1.86254e+06 ave 1.86254e+06 max 1.86254e+06 min
Histogram: 1 0 0 0 0 0 0 0 0 0

Total # of neighbors = 1862541
Ave neighs/atom = 94.7762
Neighbor list builds = 1505
Dangerous builds not checked
Setting up Verlet run ...
  Unit style    : metal
  Current step  : 86000
  Time step     : 0.001
Per MPI rank memory allocation (min/avg/max) = 19.34 | 19.34 | 19.34 Mbytes
Step Temp Press TotEng PotEng Enthalpy 
   86000    1304.2726    2007.1616   -59642.032   -62955.003   -59311.961 
   86495    1273.2008    140.00566   -59807.868   -63041.914   -59784.865 
Loop time of 80.823 on 1 procs for 495 steps with 19652 atoms

Performance: 0.529 ns/day, 45.355 hours/ns, 6.124 timesteps/s
99.3% CPU use with 1 MPI tasks x no OpenMP threads

MPI task timing breakdown:
Section |  min time  |  avg time  |  max time  |%varavg| %total
---------------------------------------------------------------
Pair    | 45.593     | 45.593     | 45.593     |   0.0 | 56.41
Neigh   | 33.924     | 33.924     | 33.924     |   0.0 | 41.97
Comm    | 0.51753    | 0.51753    | 0.51753    |   0.0 |  0.64
Output  | 0.000144   | 0.000144   | 0.000144   |   0.0 |  0.00
Modify  | 0.61912    | 0.61912    | 0.61912    |   0.0 |  0.77
Other   |            | 0.1695     |            |       |  0.21

Nlocal:    19652 ave 19652 max 19652 min
Histogram: 1 0 0 0 0 0 0 0 0 0
Nghost:    20087 ave 20087 max 20087 min
Histogram: 1 0 0 0 0 0 0 0 0 0
Neighs:    1.86426e+06 ave 1.86426e+06 max 1.86426e+06 min
Histogram: 1 0 0 0 0 0 0 0 0 0

Total # of neighbors = 1864263
Ave neighs/atom = 94.8638
Neighbor list builds = 495
Dangerous builds not checked
Setting up Verlet run ...
  Unit style    : metal
  Current step  : 86495
  Time step     : 0.001
Per MPI rank memory allocation (min/avg/max) = 19.34 | 19.34 | 19.34 Mbytes
Step Temp Press TotEng PotEng Enthalpy 
   86495    1273.2008    140.00566   -59807.868   -63041.914   -59784.865 
   88000     1258.827    2032.4788   -59980.462   -63177.997   -59648.227 
Loop time of 252.526 on 1 procs for 1505 steps with 19652 atoms

Performance: 0.515 ns/day, 46.609 hours/ns, 5.960 timesteps/s
98.3% CPU use with 1 MPI tasks x no OpenMP threads

MPI task timing breakdown:
Section |  min time  |  avg time  |  max time  |%varavg| %total
---------------------------------------------------------------
Pair    | 140.26     | 140.26     | 140.26     |   0.0 | 55.54
Neigh   | 104.56     | 104.56     | 104.56     |   0.0 | 41.40
Comm    | 1.5891     | 1.5891     | 1.5891     |   0.0 |  0.63
Output  | 3.677      | 3.677      | 3.677      |   0.0 |  1.46
Modify  | 1.9183     | 1.9183     | 1.9183     |   0.0 |  0.76
Other   |            | 0.5229     |            |       |  0.21

Nlocal:    19652 ave 19652 max 19652 min
Histogram: 1 0 0 0 0 0 0 0 0 0
Nghost:    20112 ave 20112 max 20112 min
Histogram: 1 0 0 0 0 0 0 0 0 0
Neighs:    1.87268e+06 ave 1.87268e+06 max 1.87268e+06 min
Histogram: 1 0 0 0 0 0 0 0 0 0

Total # of neighbors = 1872675
Ave neighs/atom = 95.2918
Neighbor list builds = 1505
Dangerous builds not checked
Setting up Verlet run ...
  Unit style    : metal
  Current step  : 88000
  Time step     : 0.001
Per MPI rank memory allocation (min/avg/max) = 19.34 | 19.34 | 19.34 Mbytes
Step Temp Press TotEng PotEng Enthalpy 
   88000     1258.827    2032.4788   -59980.462   -63177.997   -59648.227 
   88495    1215.8559    887.82454   -60159.881   -63248.266   -60014.885 
Loop time of 82.4468 on 1 procs for 495 steps with 19652 atoms

Performance: 0.519 ns/day, 46.266 hours/ns, 6.004 timesteps/s
99.1% CPU use with 1 MPI tasks x no OpenMP threads

MPI task timing breakdown:
Section |  min time  |  avg time  |  max time  |%varavg| %total
---------------------------------------------------------------
Pair    | 46.452     | 46.452     | 46.452     |   0.0 | 56.34
Neigh   | 34.659     | 34.659     | 34.659     |   0.0 | 42.04
Comm    | 0.53088    | 0.53088    | 0.53088    |   0.0 |  0.64
Output  | 0.00015998 | 0.00015998 | 0.00015998 |   0.0 |  0.00
Modify  | 0.63754    | 0.63754    | 0.63754    |   0.0 |  0.77
Other   |            | 0.1672     |            |       |  0.20

Nlocal:    19652 ave 19652 max 19652 min
Histogram: 1 0 0 0 0 0 0 0 0 0
Nghost:    20200 ave 20200 max 20200 min
Histogram: 1 0 0 0 0 0 0 0 0 0
Neighs:    1.87479e+06 ave 1.87479e+06 max 1.87479e+06 min
Histogram: 1 0 0 0 0 0 0 0 0 0

Total # of neighbors = 1874786
Ave neighs/atom = 95.3992
Neighbor list builds = 495
Dangerous builds not checked
Setting up Verlet run ...
  Unit style    : metal
  Current step  : 88495
  Time step     : 0.001
Per MPI rank memory allocation (min/avg/max) = 19.34 | 19.34 | 19.34 Mbytes
Step Temp Press TotEng PotEng Enthalpy 
   88495    1215.8559    887.82454   -60159.881   -63248.266   -60014.885 
   90000    1199.3206    184.95221   -60293.831   -63340.214   -60263.676 
Loop time of 241.009 on 1 procs for 1505 steps with 19652 atoms

Performance: 0.540 ns/day, 44.483 hours/ns, 6.245 timesteps/s
99.4% CPU use with 1 MPI tasks x no OpenMP threads

MPI task timing breakdown:
Section |  min time  |  avg time  |  max time  |%varavg| %total
---------------------------------------------------------------
Pair    | 134.28     | 134.28     | 134.28     |   0.0 | 55.71
Neigh   | 102.24     | 102.24     | 102.24     |   0.0 | 42.42
Comm    | 1.4356     | 1.4356     | 1.4356     |   0.0 |  0.60
Output  | 0.71691    | 0.71691    | 0.71691    |   0.0 |  0.30
Modify  | 1.7894     | 1.7894     | 1.7894     |   0.0 |  0.74
Other   |            | 0.5551     |            |       |  0.23

Nlocal:    19652 ave 19652 max 19652 min
Histogram: 1 0 0 0 0 0 0 0 0 0
Nghost:    20181 ave 20181 max 20181 min
Histogram: 1 0 0 0 0 0 0 0 0 0
Neighs:    1.87709e+06 ave 1.87709e+06 max 1.87709e+06 min
Histogram: 1 0 0 0 0 0 0 0 0 0

Total # of neighbors = 1877086
Ave neighs/atom = 95.5163
Neighbor list builds = 1505
Dangerous builds not checked
Setting up Verlet run ...
  Unit style    : metal
  Current step  : 90000
  Time step     : 0.001
Per MPI rank memory allocation (min/avg/max) = 19.34 | 19.34 | 19.34 Mbytes
Step Temp Press TotEng PotEng Enthalpy 
   90000    1199.3206    184.95221   -60293.831   -63340.214   -60263.676 
   90495    1158.6437    140.33657   -60474.091   -63417.151   -60451.255 
Loop time of 82.8353 on 1 procs for 495 steps with 19652 atoms

Performance: 0.516 ns/day, 46.484 hours/ns, 5.976 timesteps/s
99.8% CPU use with 1 MPI tasks x no OpenMP threads

MPI task timing breakdown:
Section |  min time  |  avg time  |  max time  |%varavg| %total
---------------------------------------------------------------
Pair    | 46.392     | 46.392     | 46.392     |   0.0 | 56.00
Neigh   | 35.109     | 35.109     | 35.109     |   0.0 | 42.38
Comm    | 0.50652    | 0.50652    | 0.50652    |   0.0 |  0.61
Output  | 0.00016904 | 0.00016904 | 0.00016904 |   0.0 |  0.00
Modify  | 0.63255    | 0.63255    | 0.63255    |   0.0 |  0.76
Other   |            | 0.1959     |            |       |  0.24

Nlocal:    19652 ave 19652 max 19652 min
[...]
Setting up Verlet run ...
  Unit style    : metal
  Current step  : 120000
  Time step     : 0.001
Per MPI rank memory allocation (min/avg/max) = 19.35 | 19.35 | 19.35 Mbytes
Step Temp Press TotEng PotEng Enthalpy 
  120000    451.13943   -173.85365   -65292.545    -66438.48   -65318.868 
  120495     419.7655    563.23781   -65459.196   -66525.439   -65374.118 
Loop time of 99.4791 on 1 procs for 495 steps with 19652 atoms

Performance: 0.430 ns/day, 55.824 hours/ns, 4.976 timesteps/s
99.9% CPU use with 1 MPI tasks x no OpenMP threads

MPI task timing breakdown:
Section |  min time  |  avg time  |  max time  |%varavg| %total
---------------------------------------------------------------
Pair    | 55.25      | 55.25      | 55.25      |   0.0 | 55.54
Neigh   | 42.716     | 42.716     | 42.716     |   0.0 | 42.94
Comm    | 0.57522    | 0.57522    | 0.57522    |   0.0 |  0.58
Output  | 0.00016713 | 0.00016713 | 0.00016713 |   0.0 |  0.00
Modify  | 0.71158    | 0.71158    | 0.71158    |   0.0 |  0.72
Other   |            | 0.2256     |            |       |  0.23

Nlocal:    19652 ave 19652 max 19652 min
Histogram: 1 0 0 0 0 0 0 0 0 0
Nghost:    20958 ave 20958 max 20958 min
Histogram: 1 0 0 0 0 0 0 0 0 0
Neighs:    2.02084e+06 ave 2.02084e+06 max 2.02084e+06 min
Histogram: 1 0 0 0 0 0 0 0 0 0

Total # of neighbors = 2020838
Ave neighs/atom = 102.831
Neighbor list builds = 495
Dangerous builds not checked
Setting up Verlet run ...
  Unit style    : metal
  Current step  : 120495
  Time step     : 0.001
Per MPI rank memory allocation (min/avg/max) = 19.35 | 19.35 | 19.35 Mbytes
Step Temp Press TotEng PotEng Enthalpy 
  120495     419.7655    563.23781   -65459.196   -66525.439   -65374.118 
  122000    399.47046    443.33464     -65582.4   -66597.091   -65515.539 
Loop time of 317.482 on 1 procs for 1505 steps with 19652 atoms

Performance: 0.410 ns/day, 58.598 hours/ns, 4.740 timesteps/s
95.9% CPU use with 1 MPI tasks x no OpenMP threads

MPI task timing breakdown:
Section |  min time  |  avg time  |  max time  |%varavg| %total
---------------------------------------------------------------
Pair    | 176.96     | 176.96     | 176.96     |   0.0 | 55.74
Neigh   | 135.68     | 135.68     | 135.68     |   0.0 | 42.74
Comm    | 1.7904     | 1.7904     | 1.7904     |   0.0 |  0.56
Output  | 0.081677   | 0.081677   | 0.081677   |   0.0 |  0.03
Modify  | 2.2244     | 2.2244     | 2.2244     |   0.0 |  0.70
Other   |            | 0.7504     |            |       |  0.24

Nlocal:    19652 ave 19652 max 19652 min
Histogram: 1 0 0 0 0 0 0 0 0 0
Nghost:    20958 ave 20958 max 20958 min
Histogram: 1 0 0 0 0 0 0 0 0 0
Neighs:    2.02465e+06 ave 2.02465e+06 max 2.02465e+06 min
Histogram: 1 0 0 0 0 0 0 0 0 0

Total # of neighbors = 2024648
Ave neighs/atom = 103.025
Neighbor list builds = 1505
Dangerous builds not checked
Setting up Verlet run ...
  Unit style    : metal
  Current step  : 122000
  Time step     : 0.001
Per MPI rank memory allocation (min/avg/max) = 19.35 | 19.35 | 19.35 Mbytes
Step Temp Press TotEng PotEng Enthalpy 
  122000    399.47046    443.33464     -65582.4   -66597.091   -65515.539 
  122495    374.61776   -210.66402   -65739.718   -66691.281   -65771.444 
Loop time of 107.628 on 1 procs for 495 steps with 19652 atoms

Performance: 0.397 ns/day, 60.397 hours/ns, 4.599 timesteps/s
98.4% CPU use with 1 MPI tasks x no OpenMP threads

MPI task timing breakdown:
Section |  min time  |  avg time  |  max time  |%varavg| %total
---------------------------------------------------------------
Pair    | 60.143     | 60.143     | 60.143     |   0.0 | 55.88
Neigh   | 45.823     | 45.823     | 45.823     |   0.0 | 42.58
Comm    | 0.63083    | 0.63083    | 0.63083    |   0.0 |  0.59
Output  | 0.00019598 | 0.00019598 | 0.00019598 |   0.0 |  0.00
Modify  | 0.78806    | 0.78806    | 0.78806    |   0.0 |  0.73
Other   |            | 0.2431     |            |       |  0.23

Nlocal:    19652 ave 19652 max 19652 min
Histogram: 1 0 0 0 0 0 0 0 0 0
Nghost:    20926 ave 20926 max 20926 min
Histogram: 1 0 0 0 0 0 0 0 0 0
Neighs:    2.02798e+06 ave 2.02798e+06 max 2.02798e+06 min
Histogram: 1 0 0 0 0 0 0 0 0 0

Total # of neighbors = 2027981
Ave neighs/atom = 103.195
Neighbor list builds = 495
Dangerous builds not checked
Setting up Verlet run ...
  Unit style    : metal
  Current step  : 122495
  Time step     : 0.001
Per MPI rank memory allocation (min/avg/max) = 19.35 | 19.35 | 19.35 Mbytes
Step Temp Press TotEng PotEng Enthalpy 
  122495    374.61776   -210.66402   -65739.718   -66691.281   -65771.444 
  124000    349.71834     760.7616   -65873.299   -66761.615   -65758.989 
Loop time of 315.637 on 1 procs for 1505 steps with 19652 atoms

Performance: 0.412 ns/day, 58.257 hours/ns, 4.768 timesteps/s
99.2% CPU use with 1 MPI tasks x no OpenMP threads

MPI task timing breakdown:
Section |  min time  |  avg time  |  max time  |%varavg| %total
---------------------------------------------------------------
Pair    | 176.56     | 176.56     | 176.56     |   0.0 | 55.94
Neigh   | 134.19     | 134.19     | 134.19     |   0.0 | 42.51
Comm    | 1.8274     | 1.8274     | 1.8274     |   0.0 |  0.58
Output  | 0.08407    | 0.08407    | 0.08407    |   0.0 |  0.03
Modify  | 2.2621     | 2.2621     | 2.2621     |   0.0 |  0.72
Other   |            | 0.713      |            |       |  0.23

Nlocal:    19652 ave 19652 max 19652 min
Histogram: 1 0 0 0 0 0 0 0 0 0
Nghost:    20962 ave 20962 max 20962 min
Histogram: 1 0 0 0 0 0 0 0 0 0
Neighs:    2.0325e+06 ave 2.0325e+06 max 2.0325e+06 min
Histogram: 1 0 0 0 0 0 0 0 0 0

Total # of neighbors = 2032499
Ave neighs/atom = 103.425
Neighbor list builds = 1505
Dangerous builds not checked
Setting up Verlet run ...
  Unit style    : metal
  Current step  : 124000
  Time step     : 0.001
Per MPI rank memory allocation (min/avg/max) = 19.35 | 19.35 | 19.35 Mbytes
Step Temp Press TotEng PotEng Enthalpy 
  124000    349.71834     760.7616   -65873.299   -66761.615   -65758.989 
  124495    324.39918     -302.121   -66025.983   -66849.986   -66071.331 
Loop time of 104.673 on 1 procs for 495 steps with 19652 atoms

Performance: 0.409 ns/day, 58.739 hours/ns, 4.729 timesteps/s
98.6% CPU use with 1 MPI tasks x no OpenMP threads

MPI task timing breakdown:
Section |  min time  |  avg time  |  max time  |%varavg| %total
---------------------------------------------------------------
Pair    | 58.644     | 58.644     | 58.644     |   0.0 | 56.03
Neigh   | 44.466     | 44.466     | 44.466     |   0.0 | 42.48
Comm    | 0.59506    | 0.59506    | 0.59506    |   0.0 |  0.57
Output  | 0.00016308 | 0.00016308 | 0.00016308 |   0.0 |  0.00
Modify  | 0.73175    | 0.73175    | 0.73175    |   0.0 |  0.70
Other   |            | 0.2361     |            |       |  0.23

Nlocal:    19652 ave 19652 max 19652 min
Histogram: 1 0 0 0 0 0 0 0 0 0
Nghost:    20947 ave 20947 max 20947 min
Histogram: 1 0 0 0 0 0 0 0 0 0
Neighs:    2.03515e+06 ave 2.03515e+06 max 2.03515e+06 min
Histogram: 1 0 0 0 0 0 0 0 0 0

Total # of neighbors = 2035153
Ave neighs/atom = 103.56
Neighbor list builds = 495
Dangerous builds not checked
Setting up Verlet run ...
  Unit style    : metal
  Current step  : 124495
  Time step     : 0.001
Per MPI rank memory allocation (min/avg/max) = 19.35 | 19.35 | 19.35 Mbytes
Step Temp Press TotEng PotEng Enthalpy 
  124495    324.39918     -302.121   -66025.983   -66849.986   -66071.331 
  126000    298.03134   -731.11304   -66163.807   -66920.834   -66273.428 
Loop time of 321.741 on 1 procs for 1505 steps with 19652 atoms

Performance: 0.404 ns/day, 59.384 hours/ns, 4.678 timesteps/s
97.7% CPU use with 1 MPI tasks x no OpenMP threads

MPI task timing breakdown:
Section |  min time  |  avg time  |  max time  |%varavg| %total
---------------------------------------------------------------
Pair    | 178.91     | 178.91     | 178.91     |   0.0 | 55.61
Neigh   | 137.77     | 137.77     | 137.77     |   0.0 | 42.82
Comm    | 1.8803     | 1.8803     | 1.8803     |   0.0 |  0.58
Output  | 0.075233   | 0.075233   | 0.075233   |   0.0 |  0.02
Modify  | 2.3541     | 2.3541     | 2.3541     |   0.0 |  0.73
Other   |            | 0.7464     |            |       |  0.23

Nlocal:    19652 ave 19652 max 19652 min
Histogram: 1 0 0 0 0 0 0 0 0 0
Nghost:    21031 ave 21031 max 21031 min
Histogram: 1 0 0 0 0 0 0 0 0 0
Neighs:    2.03779e+06 ave 2.03779e+06 max 2.03779e+06 min
Histogram: 1 0 0 0 0 0 0 0 0 0

Total # of neighbors = 2037790
Ave neighs/atom = 103.694
Neighbor list builds = 1505
Dangerous builds not checked
Setting up Verlet run ...
  Unit style    : metal
  Current step  : 126000
  Time step     : 0.001
Per MPI rank memory allocation (min/avg/max) = 19.35 | 19.35 | 19.35 Mbytes
Step Temp Press TotEng PotEng Enthalpy 
  126000    298.03134   -731.11304   -66163.807   -66920.834   -66273.428 
  126495    273.74185    961.88342   -66303.349   -66998.678   -66159.571 
Loop time of 108.149 on 1 procs for 495 steps with 19652 atoms

Performance: 0.395 ns/day, 60.689 hours/ns, 4.577 timesteps/s
98.1% CPU use with 1 MPI tasks x no OpenMP threads

MPI task timing breakdown:
Section |  min time  |  avg time  |  max time  |%varavg| %total
---------------------------------------------------------------
Pair    | 61.009     | 61.009     | 61.009     |   0.0 | 56.41
Neigh   | 45.471     | 45.471     | 45.471     |   0.0 | 42.05
Comm    | 0.64569    | 0.64569    | 0.64569    |   0.0 |  0.60
Output  | 0.00021195 | 0.00021195 | 0.00021195 |   0.0 |  0.00
Modify  | 0.78612    | 0.78612    | 0.78612    |   0.0 |  0.73
Other   |            | 0.2364     |            |       |  0.22

Nlocal:    19652 ave 19652 max 19652 min
Histogram: 1 0 0 0 0 0 0 0 0 0
Nghost:    20996 ave 20996 max 20996 min
Histogram: 1 0 0 0 0 0 0 0 0 0
Neighs:    2.04437e+06 ave 2.04437e+06 max 2.04437e+06 min
Histogram: 1 0 0 0 0 0 0 0 0 0

Total # of neighbors = 2044366
Ave neighs/atom = 104.028
Neighbor list builds = 495
Dangerous builds not checked
Setting up Verlet run ...
  Unit style    : metal
  Current step  : 126495
  Time step     : 0.001
Per MPI rank memory allocation (min/avg/max) = 19.35 | 19.35 | 19.35 Mbytes
Step Temp Press TotEng PotEng Enthalpy 
  126495    273.74185    961.88342   -66303.349   -66998.678   -66159.571 
  128000     249.2041   -996.83254   -66440.227   -67073.229    -66589.25 
Loop time of 329.461 on 1 procs for 1505 steps with 19652 atoms

Performance: 0.395 ns/day, 60.809 hours/ns, 4.568 timesteps/s
99.4% CPU use with 1 MPI tasks x no OpenMP threads

MPI task timing breakdown:
Section |  min time  |  avg time  |  max time  |%varavg| %total
---------------------------------------------------------------
Pair    | 184.73     | 184.73     | 184.73     |   0.0 | 56.07
Neigh   | 139.42     | 139.42     | 139.42     |   0.0 | 42.32
Comm    | 1.9841     | 1.9841     | 1.9841     |   0.0 |  0.60
Output  | 0.15588    | 0.15588    | 0.15588    |   0.0 |  0.05
Modify  | 2.4569     | 2.4569     | 2.4569     |   0.0 |  0.75
Other   |            | 0.7215     |            |       |  0.22

Nlocal:    19652 ave 19652 max 19652 min
Histogram: 1 0 0 0 0 0 0 0 0 0
Nghost:    21003 ave 21003 max 21003 min
Histogram: 1 0 0 0 0 0 0 0 0 0
Neighs:    2.04386e+06 ave 2.04386e+06 max 2.04386e+06 min
Histogram: 1 0 0 0 0 0 0 0 0 0

Total # of neighbors = 2043863
Ave neighs/atom = 104.003
Neighbor list builds = 1505
Dangerous builds not checked
Setting up Verlet run ...
  Unit style    : metal
  Current step  : 128000
  Time step     : 0.001
Per MPI rank memory allocation (min/avg/max) = 19.35 | 19.35 | 19.35 Mbytes
Step Temp Press TotEng PotEng Enthalpy 
  128000     249.2041   -996.83254   -66440.227   -67073.229    -66589.25 
  128495    226.06326   -210.88757   -66575.291   -67149.512   -66606.748 
Loop time of 101.867 on 1 procs for 495 steps with 19652 atoms

Performance: 0.420 ns/day, 57.165 hours/ns, 4.859 timesteps/s
99.4% CPU use with 1 MPI tasks x no OpenMP threads

MPI task timing breakdown:
Section |  min time  |  avg time  |  max time  |%varavg| %total
---------------------------------------------------------------
Pair    | 56.184     | 56.184     | 56.184     |   0.0 | 55.15
Neigh   | 44.112     | 44.112     | 44.112     |   0.0 | 43.30
Comm    | 0.57209    | 0.57209    | 0.57209    |   0.0 |  0.56
Output  | 0.00016499 | 0.00016499 | 0.00016499 |   0.0 |  0.00
Modify  | 0.7566     | 0.7566     | 0.7566     |   0.0 |  0.74
Other   |            | 0.2425     |            |       |  0.24

Nlocal:    19652 ave 19652 max 19652 min
Histogram: 1 0 0 0 0 0 0 0 0 0
Nghost:    21055 ave 21055 max 21055 min
Histogram: 1 0 0 0 0 0 0 0 0 0
Neighs:    2.04912e+06 ave 2.04912e+06 max 2.04912e+06 min
Histogram: 1 0 0 0 0 0 0 0 0 0

Total # of neighbors = 2049122
Ave neighs/atom = 104.27
Neighbor list builds = 495
Dangerous builds not checked
Setting up Verlet run ...
  Unit style    : metal
  Current step  : 128495
  Time step     : 0.001
Per MPI rank memory allocation (min/avg/max) = 19.35 | 19.35 | 19.35 Mbytes
Step Temp Press TotEng PotEng Enthalpy 
  128495    226.06326   -210.88757   -66575.291   -67149.512   -66606.748 
  130000    200.77372   -297.65793   -66707.575   -67217.558    -66751.91 
Loop time of 324.284 on 1 procs for 1505 steps with 19652 atoms

Performance: 0.401 ns/day, 59.853 hours/ns, 4.641 timesteps/s
98.7% CPU use with 1 MPI tasks x no OpenMP threads

MPI task timing breakdown:
Section |  min time  |  avg time  |  max time  |%varavg| %total
---------------------------------------------------------------
Pair    | 181.16     | 181.16     | 181.16     |   0.0 | 55.86
Neigh   | 137.96     | 137.96     | 137.96     |   0.0 | 42.54
Comm    | 1.9018     | 1.9018     | 1.9018     |   0.0 |  0.59
Output  | 0.14627    | 0.14627    | 0.14627    |   0.0 |  0.05
Modify  | 2.3844     | 2.3844     | 2.3844     |   0.0 |  0.74
Other   |            | 0.7338     |            |       |  0.23

Nlocal:    19652 ave 19652 max 19652 min
Histogram: 1 0 0 0 0 0 0 0 0 0
Nghost:    21056 ave 21056 max 21056 min
Histogram: 1 0 0 0 0 0 0 0 0 0
Neighs:    2.05264e+06 ave 2.05264e+06 max 2.05264e+06 min
Histogram: 1 0 0 0 0 0 0 0 0 0

Total # of neighbors = 2052635
Ave neighs/atom = 104.449
Neighbor list builds = 1505
Dangerous builds not checked
Setting up Verlet run ...
  Unit style    : metal
  Current step  : 130000
  Time step     : 0.001
Per MPI rank memory allocation (min/avg/max) = 19.35 | 19.35 | 19.35 Mbytes
Step Temp Press TotEng PotEng Enthalpy 
  130000    200.77372   -297.65793   -66707.575   -67217.558    -66751.91 
  130495    176.69189   -527.60906   -66838.541   -67287.354   -66917.027 
Loop time of 105.491 on 1 procs for 495 steps with 19652 atoms

Performance: 0.405 ns/day, 59.198 hours/ns, 4.692 timesteps/s
99.0% CPU use with 1 MPI tasks x no OpenMP threads

MPI task timing breakdown:
Section |  min time  |  avg time  |  max time  |%varavg| %total
---------------------------------------------------------------
Pair    | 59.028     | 59.028     | 59.028     |   0.0 | 55.96
Neigh   | 44.844     | 44.844     | 44.844     |   0.0 | 42.51
Comm    | 0.62977    | 0.62977    | 0.62977    |   0.0 |  0.60
Output  | 0.0001812  | 0.0001812  | 0.0001812  |   0.0 |  0.00
Modify  | 0.75251    | 0.75251    | 0.75251    |   0.0 |  0.71
Other   |            | 0.2364     |            |       |  0.22

Nlocal:    19652 ave 19652 max 19652 min
Histogram: 1 0 0 0 0 0 0 0 0 0
Nghost:    21071 ave 21071 max 21071 min
Histogram: 1 0 0 0 0 0 0 0 0 0
Neighs:    2.05621e+06 ave 2.05621e+06 max 2.05621e+06 min
Histogram: 1 0 0 0 0 0 0 0 0 0

Total # of neighbors = 2056209
Ave neighs/atom = 104.631
Neighbor list builds = 495
Dangerous builds not checked
Setting up Verlet run ...
  Unit style    : metal
  Current step  : 130495
  Time step     : 0.001
Per MPI rank memory allocation (min/avg/max) = 19.35 | 19.35 | 19.35 Mbytes
Step Temp Press TotEng PotEng Enthalpy 
  130495    176.69189   -527.60906   -66838.541   -67287.354   -66917.027 
  132000    149.81986    747.08786   -66981.165   -67361.721   -66870.315 
Loop time of 311.31 on 1 procs for 1505 steps with 19652 atoms

Performance: 0.418 ns/day, 57.458 hours/ns, 4.834 timesteps/s
98.8% CPU use with 1 MPI tasks x no OpenMP threads

MPI task timing breakdown:
Section |  min time  |  avg time  |  max time  |%varavg| %total
---------------------------------------------------------------
Pair    | 174.22     | 174.22     | 174.22     |   0.0 | 55.96
Neigh   | 132.23     | 132.23     | 132.23     |   0.0 | 42.47
Comm    | 1.8387     | 1.8387     | 1.8387     |   0.0 |  0.59
Output  | 0.086499   | 0.086499   | 0.086499   |   0.0 |  0.03
Modify  | 2.2094     | 2.2094     | 2.2094     |   0.0 |  0.71
Other   |            | 0.7282     |            |       |  0.23

Nlocal:    19652 ave 19652 max 19652 min
Histogram: 1 0 0 0 0 0 0 0 0 0
Nghost:    21103 ave 21103 max 21103 min
Histogram: 1 0 0 0 0 0 0 0 0 0
Neighs:    2.06127e+06 ave 2.06127e+06 max 2.06127e+06 min
Histogram: 1 0 0 0 0 0 0 0 0 0

Total # of neighbors = 2061267
Ave neighs/atom = 104.888
Neighbor list builds = 1505
Dangerous builds not checked
Setting up Verlet run ...
  Unit style    : metal
  Current step  : 132000
  Time step     : 0.001
Per MPI rank memory allocation (min/avg/max) = 19.73 | 19.73 | 19.73 Mbytes
Step Temp Press TotEng PotEng Enthalpy 
  132000    149.81986    747.08786   -66981.165   -67361.721   -66870.315 
  132495    126.03238   -378.44701   -67097.784   -67417.918   -67153.919 
Loop time of 103.423 on 1 procs for 495 steps with 19652 atoms

Performance: 0.414 ns/day, 58.038 hours/ns, 4.786 timesteps/s
98.8% CPU use with 1 MPI tasks x no OpenMP threads

MPI task timing breakdown:
Section |  min time  |  avg time  |  max time  |%varavg| %total
---------------------------------------------------------------
Pair    | 57.578     | 57.578     | 57.578     |   0.0 | 55.67
Neigh   | 44.262     | 44.262     | 44.262     |   0.0 | 42.80
Comm    | 0.58573    | 0.58573    | 0.58573    |   0.0 |  0.57
Output  | 0.00022292 | 0.00022292 | 0.00022292 |   0.0 |  0.00
Modify  | 0.75269    | 0.75269    | 0.75269    |   0.0 |  0.73
Other   |            | 0.2438     |            |       |  0.24

Nlocal:    19652 ave 19652 max 19652 min
Histogram: 1 0 0 0 0 0 0 0 0 0
Nghost:    21081 ave 21081 max 21081 min
Histogram: 1 0 0 0 0 0 0 0 0 0
Neighs:    2.06263e+06 ave 2.06263e+06 max 2.06263e+06 min
Histogram: 1 0 0 0 0 0 0 0 0 0

Total # of neighbors = 2062627
Ave neighs/atom = 104.958
Neighbor list builds = 495
Dangerous builds not checked
Setting up Verlet run ...
  Unit style    : metal
  Current step  : 132495
  Time step     : 0.001
Per MPI rank memory allocation (min/avg/max) = 19.73 | 19.73 | 19.73 Mbytes
Step Temp Press TotEng PotEng Enthalpy 
  132495    126.03238   -378.44701   -67097.784   -67417.918   -67153.919 
  134000    98.731971    57.781449   -67244.472    -67495.26   -67235.918 
Loop time of 331.375 on 1 procs for 1505 steps with 19652 atoms

Performance: 0.392 ns/day, 61.162 hours/ns, 4.542 timesteps/s
99.1% CPU use with 1 MPI tasks x no OpenMP threads

MPI task timing breakdown:
Section |  min time  |  avg time  |  max time  |%varavg| %total
---------------------------------------------------------------
Pair    | 188.31     | 188.31     | 188.31     |   0.0 | 56.83
Neigh   | 136.92     | 136.92     | 136.92     |   0.0 | 41.32
Comm    | 2.0777     | 2.0777     | 2.0777     |   0.0 |  0.63
Output  | 0.82611    | 0.82611    | 0.82611    |   0.0 |  0.25
Modify  | 2.4853     | 2.4853     | 2.4853     |   0.0 |  0.75
Other   |            | 0.7582     |            |       |  0.23

Nlocal:    19652 ave 19652 max 19652 min
Histogram: 1 0 0 0 0 0 0 0 0 0
Nghost:    21112 ave 21112 max 21112 min
Histogram: 1 0 0 0 0 0 0 0 0 0
Neighs:    2.06724e+06 ave 2.06724e+06 max 2.06724e+06 min
Histogram: 1 0 0 0 0 0 0 0 0 0

Total # of neighbors = 2067245
Ave neighs/atom = 105.193
Neighbor list builds = 1505
Dangerous builds not checked
Total wall time: 6:54:54
