LAMMPS (12 Dec 2018)
Lattice spacing in x,y,z = 4 4 4
Created orthogonal box = (0 0 0) to (68 68 68)
  1 by 1 by 2 MPI processor grid
Created 19652 atoms
  Time spent = 0.00157499 secs
Setting atom values ...
  206 settings made for type/fraction
Neighbor list info ...
  update every 1 steps, delay 0 steps, check no
  max neighbors/atom: 2000, page size: 100000
  master list distance cutoff = 8.5
  ghost atom cutoff = 8.5
  binsize = 4.25, bins = 16 16 16
  1 neighbor lists, perpetual/occasional/extra = 1 0 0
  (1) pair eam/alloy, perpetual
      attributes: half, newton on
      pair build: half/bin/atomonly/newton
      stencil: half/bin/3d/newton
      bin: standard
Setting up Verlet run ...
  Unit style    : metal
  Current step  : 0
  Time step     : 0.001
Per MPI rank memory allocation (min/avg/max) = 11.15 | 11.15 | 11.15 Mbytes
Step Temp Press TotEng PotEng Enthalpy 
       0          300    639595.78   -102542.49   -103304.52    22980.119 
    1000    193.07859    581294.59   -102542.43   -103032.87      11538.4 
Loop time of 91.2007 on 2 procs for 1000 steps with 19652 atoms

Performance: 0.947 ns/day, 25.334 hours/ns, 10.965 timesteps/s
98.0% CPU use with 2 MPI tasks x no OpenMP threads

MPI task timing breakdown:
Section |  min time  |  avg time  |  max time  |%varavg| %total
---------------------------------------------------------------
Pair    | 52.045     | 52.121     | 52.197     |   1.1 | 57.15
Neigh   | 35.816     | 35.907     | 35.997     |   1.5 | 39.37
Comm    | 2.7196     | 2.7332     | 2.7467     |   0.8 |  3.00
Output  | 0.00012994 | 0.00014043 | 0.00015092 |   0.0 |  0.00
Modify  | 0.22149    | 0.2218     | 0.22211    |   0.1 |  0.24
Other   |            | 0.2181     |            |       |  0.24

Nlocal:    9826 ave 9854 max 9798 min
Histogram: 1 0 0 0 0 0 0 0 0 1
Nghost:    14126.5 ave 14160 max 14093 min
Histogram: 1 0 0 0 0 0 0 0 0 1
Neighs:    781641 ave 783704 max 779578 min
Histogram: 1 0 0 0 0 0 0 0 0 1

Total # of neighbors = 1563282
Ave neighs/atom = 79.5482
Neighbor list builds = 1000
Dangerous builds not checked
Setting up Verlet run ...
  Unit style    : metal
  Current step  : 1000
  Time step     : 0.001
Per MPI rank memory allocation (min/avg/max) = 11.15 | 11.15 | 11.15 Mbytes
Step Temp Press TotEng PotEng Enthalpy 
    1000    193.07859    581294.59   -102542.43   -103032.87      11538.4 
    2000    300.99099   -27.049544   -121867.06   -122631.61   -121874.78 
Loop time of 74.9155 on 2 procs for 1000 steps with 19652 atoms

Performance: 1.153 ns/day, 20.810 hours/ns, 13.348 timesteps/s
98.6% CPU use with 2 MPI tasks x no OpenMP threads

MPI task timing breakdown:
Section |  min time  |  avg time  |  max time  |%varavg| %total
---------------------------------------------------------------
Pair    | 40.09      | 40.255     | 40.42      |   2.6 | 53.73
Neigh   | 30.986     | 31.061     | 31.135     |   1.3 | 41.46
Comm    | 2.4622     | 2.5559     | 2.6496     |   5.9 |  3.41
Output  | 8.3208e-05 | 0.00012362 | 0.00016403 |   0.0 |  0.00
Modify  | 0.8287     | 0.83192    | 0.83515    |   0.4 |  1.11
Other   |            | 0.2122     |            |       |  0.28

Nlocal:    9826 ave 9835 max 9817 min
Histogram: 1 0 0 0 0 0 0 0 0 1
Nghost:    10362 ave 10370 max 10354 min
Histogram: 1 0 0 0 0 0 0 0 0 1
Neighs:    548644 ave 549617 max 547671 min
Histogram: 1 0 0 0 0 0 0 0 0 1

Total # of neighbors = 1097288
Ave neighs/atom = 55.8359
Neighbor list builds = 1000
Dangerous builds not checked
Setting up Verlet run ...
  Unit style    : metal
  Current step  : 2000
  Time step     : 0.001
Per MPI rank memory allocation (min/avg/max) = 11.15 | 11.15 | 11.15 Mbytes
Step Temp Press TotEng PotEng Enthalpy 
    2000    300.99099   -27.049544   -121867.06   -122631.61   -121874.78 
   10000    2443.6202   -382.01389   -106492.94   -112699.96   -106609.26 
Loop time of 551.195 on 2 procs for 8000 steps with 19652 atoms

Performance: 1.254 ns/day, 19.139 hours/ns, 14.514 timesteps/s
98.5% CPU use with 2 MPI tasks x no OpenMP threads

MPI task timing breakdown:
Section |  min time  |  avg time  |  max time  |%varavg| %total
---------------------------------------------------------------
Pair    | 296.14     | 296.36     | 296.58     |   1.3 | 53.77
Neigh   | 228.37     | 228.55     | 228.73     |   1.2 | 41.46
Comm    | 17.218     | 17.616     | 18.015     |   9.5 |  3.20
Output  | 0.033527   | 0.033556   | 0.033585   |   0.0 |  0.01
Modify  | 6.9541     | 6.9556     | 6.9572     |   0.1 |  1.26
Other   |            | 1.681      |            |       |  0.31

Nlocal:    9826 ave 9837 max 9815 min
Histogram: 1 0 0 0 0 0 0 0 0 1
Nghost:    10923.5 ave 10930 max 10917 min
Histogram: 1 0 0 0 0 0 0 0 0 1
Neighs:    503750 ave 505198 max 502301 min
Histogram: 1 0 0 0 0 0 0 0 0 1

Total # of neighbors = 1007499
Ave neighs/atom = 51.267
Neighbor list builds = 8000
Dangerous builds not checked
Setting up Verlet run ...
  Unit style    : metal
  Current step  : 10000
  Time step     : 0.001
Per MPI rank memory allocation (min/avg/max) = 11.17 | 11.17 | 11.17 Mbytes
Step Temp Press TotEng PotEng Enthalpy 
   10000    2443.6202   -382.01389   -106492.94   -112699.96   -106609.26 
   20000    2444.4848   -423.32057   -106419.24   -112628.45    -106548.2 
   30000    2440.1982    255.35128   -106439.67   -112637.99   -106361.96 
   40000    2427.6866    -689.9931   -106388.23   -112554.77   -106598.65 
Loop time of 2217.8 on 2 procs for 30000 steps with 19652 atoms

Performance: 1.169 ns/day, 20.535 hours/ns, 13.527 timesteps/s
97.6% CPU use with 2 MPI tasks x no OpenMP threads

MPI task timing breakdown:
Section |  min time  |  avg time  |  max time  |%varavg| %total
---------------------------------------------------------------
Pair    | 1174.9     | 1175.7     | 1176.4     |   2.3 | 53.01
Neigh   | 914.16     | 916.53     | 918.91     |   7.8 | 41.33
Comm    | 91.195     | 92.675     | 94.154     |  15.4 |  4.18
Output  | 0.10792    | 0.108      | 0.10809    |   0.0 |  0.00
Modify  | 26.352     | 26.452     | 26.551     |   1.9 |  1.19
Other   |            | 6.375      |            |       |  0.29

Nlocal:    9826 ave 9830 max 9822 min
Histogram: 1 0 0 0 0 0 0 0 0 1
Nghost:    10944.5 ave 10957 max 10932 min
Histogram: 1 0 0 0 0 0 0 0 0 1
Neighs:    502896 ave 502961 max 502830 min
Histogram: 1 0 0 0 0 0 0 0 0 1

Total # of neighbors = 1005791
Ave neighs/atom = 51.1801
Neighbor list builds = 30000
Dangerous builds not checked
Setting up Verlet run ...
  Unit style    : metal
  Current step  : 40000
  Time step     : 0.001
Per MPI rank memory allocation (min/avg/max) = 11.22 | 11.22 | 11.22 Mbytes
Step Temp Press TotEng PotEng Enthalpy 
   40000    2427.6866    -689.9931   -106388.23   -112554.77   -106598.65 
   40495    2426.6304    120.55736   -106604.42   -112768.28   -106567.75 
Loop time of 43.7598 on 2 procs for 495 steps with 19652 atoms

Performance: 0.977 ns/day, 24.557 hours/ns, 11.312 timesteps/s
89.2% CPU use with 2 MPI tasks x no OpenMP threads

MPI task timing breakdown:
Section |  min time  |  avg time  |  max time  |%varavg| %total
---------------------------------------------------------------
Pair    | 22.128     | 22.258     | 22.388     |   2.8 | 50.86
Neigh   | 16.093     | 16.239     | 16.385     |   3.6 | 37.11
Comm    | 3.4919     | 3.503      | 3.5142     |   0.6 |  8.01
Output  | 8.7023e-05 | 0.59883    | 1.1976     |  77.4 |  1.37
Modify  | 0.44626    | 0.45228    | 0.45829    |   0.9 |  1.03
Other   |            | 0.7087     |            |       |  1.62

Nlocal:    9826 ave 9827 max 9825 min
Histogram: 1 0 0 0 0 0 0 0 0 1
Nghost:    10942 ave 10944 max 10940 min
Histogram: 1 0 0 0 0 0 0 0 0 1
Neighs:    504084 ave 504321 max 503847 min
Histogram: 1 0 0 0 0 0 0 0 0 1

Total # of neighbors = 1008168
Ave neighs/atom = 51.301
Neighbor list builds = 495
Dangerous builds not checked
Setting up Verlet run ...
  Unit style    : metal
  Current step  : 40495
  Time step     : 0.001
Per MPI rank memory allocation (min/avg/max) = 11.22 | 11.22 | 11.22 Mbytes
Step Temp Press TotEng PotEng Enthalpy 
   40495    2426.6304    120.55736   -106604.42   -112768.28   -106567.75 
   50000    2425.1296    156.85767   -106559.71   -112719.76   -106512.05 
Loop time of 837.85 on 2 procs for 9505 steps with 19652 atoms

Performance: 0.980 ns/day, 24.486 hours/ns, 11.345 timesteps/s
90.0% CPU use with 2 MPI tasks x no OpenMP threads

MPI task timing breakdown:
Section |  min time  |  avg time  |  max time  |%varavg| %total
---------------------------------------------------------------
Pair    | 447.21     | 448.04     | 448.88     |   4.0 | 53.48
Neigh   | 325.53     | 327.33     | 329.14     |  10.0 | 39.07
Comm    | 48.339     | 49.329     | 50.32      |  14.1 |  5.89
Output  | 0.036379   | 0.036407   | 0.036435   |   0.0 |  0.00
Modify  | 10.848     | 10.865     | 10.881     |   0.5 |  1.30
Other   |            | 2.244      |            |       |  0.27

Nlocal:    9826 ave 9827 max 9825 min
Histogram: 1 0 0 0 0 0 0 0 0 1
Nghost:    10986.5 ave 10997 max 10976 min
Histogram: 1 0 0 0 0 0 0 0 0 1
Neighs:    504484 ave 504698 max 504270 min
Histogram: 1 0 0 0 0 0 0 0 0 1

Total # of neighbors = 1008968
Ave neighs/atom = 51.3417
Neighbor list builds = 9505
Dangerous builds not checked
Setting up Verlet run ...
  Unit style    : metal
  Current step  : 50000
  Time step     : 0.001
Per MPI rank memory allocation (min/avg/max) = 11.23 | 11.23 | 11.23 Mbytes
Step Temp Press TotEng PotEng Enthalpy 
   50000    2425.1296    156.85767   -106559.71   -112719.76   -106512.05 
   50495     2356.991    408.88193    -106859.7   -112846.67    -106735.6 
Loop time of 37.7216 on 2 procs for 495 steps with 19652 atoms

Performance: 1.134 ns/day, 21.168 hours/ns, 13.122 timesteps/s
95.0% CPU use with 2 MPI tasks x no OpenMP threads

MPI task timing breakdown:
Section |  min time  |  avg time  |  max time  |%varavg| %total
---------------------------------------------------------------
Pair    | 19.649     | 19.708     | 19.768     |   1.3 | 52.25
Neigh   | 15.44      | 15.609     | 15.778     |   4.3 | 41.38
Comm    | 1.6952     | 1.8161     | 1.9371     |   9.0 |  4.81
Output  | 8.3923e-05 | 0.00010991 | 0.0001359  |   0.0 |  0.00
Modify  | 0.46844    | 0.47581    | 0.48317    |   1.1 |  1.26
Other   |            | 0.1123     |            |       |  0.30

Nlocal:    9826 ave 9832 max 9820 min
Histogram: 1 0 0 0 0 0 0 0 0 1
Nghost:    11007 ave 11008 max 11006 min
Histogram: 1 0 0 0 0 0 0 0 0 1
Neighs:    505120 ave 505351 max 504889 min
Histogram: 1 0 0 0 0 0 0 0 0 1

Total # of neighbors = 1010240
Ave neighs/atom = 51.4065
Neighbor list builds = 495
Dangerous builds not checked
Setting up Verlet run ...
  Unit style    : metal
  Current step  : 50495
  Time step     : 0.001
Per MPI rank memory allocation (min/avg/max) = 11.23 | 11.23 | 11.23 Mbytes
Step Temp Press TotEng PotEng Enthalpy 
   50495     2356.991    408.88193    -106859.7   -112846.67    -106735.6 
   60000    2335.2314   -1897.6131   -107026.87   -112958.57    -107604.4 
Loop time of 914.303 on 2 procs for 9505 steps with 19652 atoms

Performance: 0.898 ns/day, 26.720 hours/ns, 10.396 timesteps/s
85.9% CPU use with 2 MPI tasks x no OpenMP threads

MPI task timing breakdown:
Section |  min time  |  avg time  |  max time  |%varavg| %total
---------------------------------------------------------------
Pair    | 487.47     | 489.5      | 491.53     |   9.2 | 53.54
Neigh   | 344.77     | 345.63     | 346.48     |   4.6 | 37.80
Comm    | 63.564     | 64.963     | 66.362     |  17.4 |  7.11
Output  | 0.071134   | 0.071159   | 0.071183   |   0.0 |  0.01
Modify  | 11.523     | 11.696     | 11.87      |   5.1 |  1.28
Other   |            | 2.441      |            |       |  0.27

Nlocal:    9826 ave 9855 max 9797 min
Histogram: 1 0 0 0 0 0 0 0 0 1
Nghost:    10965 ave 11000 max 10930 min
Histogram: 1 0 0 0 0 0 0 0 0 1
Neighs:    503784 ave 506366 max 501202 min
Histogram: 1 0 0 0 0 0 0 0 0 1

Total # of neighbors = 1007568
Ave neighs/atom = 51.2705
Neighbor list builds = 9505
Dangerous builds not checked
Setting up Verlet run ...
  Unit style    : metal
  Current step  : 60000
  Time step     : 0.001
Per MPI rank memory allocation (min/avg/max) = 11.24 | 11.24 | 11.24 Mbytes
Step Temp Press TotEng PotEng Enthalpy 
   60000    2335.2314   -1897.6131   -107026.87   -112958.57    -107604.4 
   60495     2317.634     -1526.31    -107155.5    -113042.5   -107619.37 
Loop time of 45.1173 on 2 procs for 495 steps with 19652 atoms

Performance: 0.948 ns/day, 25.318 hours/ns, 10.971 timesteps/s
87.9% CPU use with 2 MPI tasks x no OpenMP threads

MPI task timing breakdown:
Section |  min time  |  avg time  |  max time  |%varavg| %total
---------------------------------------------------------------
Pair    | 24.059     | 24.138     | 24.217     |   1.6 | 53.50
Neigh   | 17.134     | 17.197     | 17.259     |   1.5 | 38.12
Comm    | 2.9718     | 3.125      | 3.2783     |   8.7 |  6.93
Output  | 7.081e-05  | 0.00010145 | 0.00013208 |   0.0 |  0.00
Modify  | 0.53175    | 0.54211    | 0.55247    |   1.4 |  1.20
Other   |            | 0.1153     |            |       |  0.26

Nlocal:    9826 ave 9876 max 9776 min
Histogram: 1 0 0 0 0 0 0 0 0 1
Nghost:    11008.5 ave 11049 max 10968 min
Histogram: 1 0 0 0 0 0 0 0 0 1
Neighs:    504762 ave 508454 max 501070 min
Histogram: 1 0 0 0 0 0 0 0 0 1

Total # of neighbors = 1009524
Ave neighs/atom = 51.37
Neighbor list builds = 495
Dangerous builds not checked
Setting up Verlet run ...
  Unit style    : metal
  Current step  : 60495
  Time step     : 0.001
Per MPI rank memory allocation (min/avg/max) = 11.24 | 11.24 | 11.24 Mbytes
Step Temp Press TotEng PotEng Enthalpy 
   60495     2317.634     -1526.31    -107155.5    -113042.5   -107619.37 
   70000    2297.6722     70.28527    -107227.2   -113063.49   -107205.89 
Loop time of 961.436 on 2 procs for 9505 steps with 19652 atoms

Performance: 0.854 ns/day, 28.097 hours/ns, 9.886 timesteps/s
83.7% CPU use with 2 MPI tasks x no OpenMP threads

MPI task timing breakdown:
Section |  min time  |  avg time  |  max time  |%varavg| %total
---------------------------------------------------------------
Pair    | 521.01     | 521.73     | 522.44     |   3.1 | 54.27
Neigh   | 353.53     | 356.14     | 358.74     |  13.8 | 37.04
Comm    | 66.092     | 67.166     | 68.24      |  13.1 |  6.99
Output  | 0.077816   | 0.07785    | 0.077883   |   0.0 |  0.01
Modify  | 12.905     | 13.771     | 14.638     |  23.3 |  1.43
Other   |            | 2.56       |            |       |  0.27

Nlocal:    9826 ave 9831 max 9821 min
Histogram: 1 0 0 0 0 0 0 0 0 1
Nghost:    10966 ave 10974 max 10958 min
Histogram: 1 0 0 0 0 0 0 0 0 1
Neighs:    506022 ave 506710 max 505334 min
Histogram: 1 0 0 0 0 0 0 0 0 1

Total # of neighbors = 1012044
Ave neighs/atom = 51.4983
Neighbor list builds = 9505
Dangerous builds not checked
Setting up Verlet run ...
  Unit style    : metal
  Current step  : 70000
  Time step     : 0.001
Per MPI rank memory allocation (min/avg/max) = 11.24 | 11.24 | 11.24 Mbytes
Step Temp Press TotEng PotEng Enthalpy 
   70000    2297.6722     70.28527    -107227.2   -113063.49   -107205.89 
   70495    2256.4069    936.73841   -107532.02    -113263.5   -107249.04 
Loop time of 52.1746 on 2 procs for 495 steps with 19652 atoms

Performance: 0.820 ns/day, 29.279 hours/ns, 9.487 timesteps/s
78.3% CPU use with 2 MPI tasks x no OpenMP threads

MPI task timing breakdown:
Section |  min time  |  avg time  |  max time  |%varavg| %total
---------------------------------------------------------------
Pair    | 27.126     | 27.436     | 27.746     |   5.9 | 52.59
Neigh   | 18.581     | 19.102     | 19.624     |  11.9 | 36.61
Comm    | 4.5109     | 4.7321     | 4.9534     |  10.2 |  9.07
Output  | 9.2983e-05 | 0.00010502 | 0.00011706 |   0.0 |  0.00
Modify  | 0.76156    | 0.77045    | 0.77935    |   1.0 |  1.48
Other   |            | 0.1332     |            |       |  0.26

Nlocal:    9826 ave 9840 max 9812 min
Histogram: 1 0 0 0 0 0 0 0 0 1
Nghost:    11012 ave 11027 max 10997 min
Histogram: 1 0 0 0 0 0 0 0 0 1
Neighs:    507783 ave 509149 max 506417 min
Histogram: 1 0 0 0 0 0 0 0 0 1

Total # of neighbors = 1015566
Ave neighs/atom = 51.6775
Neighbor list builds = 495
Dangerous builds not checked
Setting up Verlet run ...
  Unit style    : metal
  Current step  : 70495
  Time step     : 0.001
Per MPI rank memory allocation (min/avg/max) = 11.24 | 11.24 | 11.24 Mbytes
Step Temp Press TotEng PotEng Enthalpy 
   70495    2256.4069    936.73841   -107532.02    -113263.5   -107249.04 
   80000    2286.3571    688.20257   -107497.82   -113305.38   -107289.77 
Loop time of 1029.92 on 2 procs for 9505 steps with 19652 atoms

Performance: 0.797 ns/day, 30.099 hours/ns, 9.229 timesteps/s
80.9% CPU use with 2 MPI tasks x no OpenMP threads

MPI task timing breakdown:
Section |  min time  |  avg time  |  max time  |%varavg| %total
---------------------------------------------------------------
Pair    | 559.16     | 559.35     | 559.53     |   0.8 | 54.31
Neigh   | 372.05     | 373.67     | 375.29     |   8.4 | 36.28
Comm    | 77.983     | 79.77      | 81.556     |  20.0 |  7.75
Output  | 0.072664   | 0.072685   | 0.072706   |   0.0 |  0.01
Modify  | 14.242     | 14.293     | 14.343     |   1.3 |  1.39
Other   |            | 2.766      |            |       |  0.27

Nlocal:    9826 ave 9851 max 9801 min
Histogram: 1 0 0 0 0 0 0 0 0 1
Nghost:    11005.5 ave 11047 max 10964 min
Histogram: 1 0 0 0 0 0 0 0 0 1
Neighs:    507712 ave 509599 max 505825 min
Histogram: 1 0 0 0 0 0 0 0 0 1

Total # of neighbors = 1015424
Ave neighs/atom = 51.6703
Neighbor list builds = 9505
Dangerous builds not checked
Setting up Verlet run ...
  Unit style    : metal
  Current step  : 80000
  Time step     : 0.001
Per MPI rank memory allocation (min/avg/max) = 11.25 | 11.25 | 11.25 Mbytes
Step Temp Press TotEng PotEng Enthalpy 
   80000    2286.3571    688.20257   -107497.82   -113305.38   -107289.77 
   80495    2198.7587    718.08065   -107797.46    -113382.5   -107580.81 
Loop time of 54.1061 on 2 procs for 495 steps with 19652 atoms

Performance: 0.790 ns/day, 30.363 hours/ns, 9.149 timesteps/s
78.3% CPU use with 2 MPI tasks x no OpenMP threads

MPI task timing breakdown:
Section |  min time  |  avg time  |  max time  |%varavg| %total
---------------------------------------------------------------
Pair    | 29.308     | 29.513     | 29.717     |   3.8 | 54.55
Neigh   | 19.551     | 19.762     | 19.974     |   4.7 | 36.53
Comm    | 4.0037     | 4.0107     | 4.0176     |   0.3 |  7.41
Output  | 0.00062704 | 0.00065649 | 0.00068593 |   0.0 |  0.00
Modify  | 0.67942    | 0.6823     | 0.68518    |   0.3 |  1.26
Other   |            | 0.1373     |            |       |  0.25

Nlocal:    9826 ave 9827 max 9825 min
Histogram: 1 0 0 0 0 0 0 0 0 1
Nghost:    11032 ave 11053 max 11011 min
Histogram: 1 0 0 0 0 0 0 0 0 1
Neighs:    508490 ave 509296 max 507685 min
Histogram: 1 0 0 0 0 0 0 0 0 1

Total # of neighbors = 1016981
Ave neighs/atom = 51.7495
Neighbor list builds = 495
Dangerous builds not checked
Setting up Verlet run ...
  Unit style    : metal
  Current step  : 80495
  Time step     : 0.001
Per MPI rank memory allocation (min/avg/max) = 11.25 | 11.25 | 11.25 Mbytes
Step Temp Press TotEng PotEng Enthalpy 
   80495    2198.7587    718.08065   -107797.46    -113382.5   -107580.81 
   90000    2208.3587   -313.70359   -107905.77    -113515.2   -108000.46 
Loop time of 1069.12 on 2 procs for 9505 steps with 19652 atoms

Performance: 0.768 ns/day, 31.244 hours/ns, 8.891 timesteps/s
78.5% CPU use with 2 MPI tasks x no OpenMP threads

MPI task timing breakdown:
Section |  min time  |  avg time  |  max time  |%varavg| %total
---------------------------------------------------------------
Pair    | 581.89     | 582.58     | 583.27     |   2.9 | 54.49
Neigh   | 383.49     | 383.62     | 383.74     |   0.6 | 35.88
Comm    | 83.987     | 84.637     | 85.287     |   7.1 |  7.92
Output  | 0.03687    | 0.036905   | 0.03694    |   0.0 |  0.00
Modify  | 15.325     | 15.414     | 15.503     |   2.3 |  1.44
Other   |            | 2.829      |            |       |  0.26

Nlocal:    9826 ave 9841 max 9811 min
Histogram: 1 0 0 0 0 0 0 0 0 1
Nghost:    11005.5 ave 11052 max 10959 min
Histogram: 1 0 0 0 0 0 0 0 0 1
Neighs:    508352 ave 509980 max 506723 min
Histogram: 1 0 0 0 0 0 0 0 0 1

Total # of neighbors = 1016703
Ave neighs/atom = 51.7353
Neighbor list builds = 9505
Dangerous builds not checked
Setting up Verlet run ...
  Unit style    : metal
  Current step  : 90000
  Time step     : 0.001
Per MPI rank memory allocation (min/avg/max) = 11.25 | 11.26 | 11.26 Mbytes
Step Temp Press TotEng PotEng Enthalpy 
   90000    2208.3587   -313.70359   -107905.77    -113515.2   -108000.46 
   90495    2163.9337   -49.110954   -108121.55   -113618.14   -108136.36 
Loop time of 49.36 on 2 procs for 495 steps with 19652 atoms

Performance: 0.866 ns/day, 27.699 hours/ns, 10.028 timesteps/s
83.3% CPU use with 2 MPI tasks x no OpenMP threads

MPI task timing breakdown:
Section |  min time  |  avg time  |  max time  |%varavg| %total
---------------------------------------------------------------
Pair    | 26.427     | 26.599     | 26.77      |   3.3 | 53.89
Neigh   | 17.885     | 18.026     | 18.166     |   3.3 | 36.52
Comm    | 3.3301     | 3.491      | 3.6519     |   8.6 |  7.07
Output  | 9.4175e-05 | 0.00013709 | 0.00018001 |   0.0 |  0.00
Modify  | 0.62001    | 1.1041     | 1.5883     |  46.1 |  2.24
Other   |            | 0.1401     |            |       |  0.28

Nlocal:    9826 ave 9827 max 9825 min
Histogram: 1 0 0 0 0 0 0 0 0 1
Nghost:    11000 ave 11030 max 10970 min
Histogram: 1 0 0 0 0 0 0 0 0 1
Neighs:    508992 ave 509716 max 508268 min
Histogram: 1 0 0 0 0 0 0 0 0 1

Total # of neighbors = 1017984
Ave neighs/atom = 51.8005
Neighbor list builds = 495
Dangerous builds not checked
Setting up Verlet run ...
  Unit style    : metal
  Current step  : 90495
  Time step     : 0.001
Per MPI rank memory allocation (min/avg/max) = 11.25 | 11.26 | 11.26 Mbytes
Step Temp Press TotEng PotEng Enthalpy 
   90495    2163.9337   -49.110954   -108121.55   -113618.14   -108136.36 
  100000     2147.353   -18.482039   -108233.22    -113687.7   -108238.79 
Loop time of 1027.8 on 2 procs for 9505 steps with 19652 atoms

Performance: 0.799 ns/day, 30.037 hours/ns, 9.248 timesteps/s
80.5% CPU use with 2 MPI tasks x no OpenMP threads

MPI task timing breakdown:
Section |  min time  |  avg time  |  max time  |%varavg| %total
---------------------------------------------------------------
Pair    | 558.74     | 560.36     | 561.98     |   6.8 | 54.52
Neigh   | 369.46     | 371.35     | 373.24     |   9.8 | 36.13
Comm    | 78.89      | 79.171     | 79.452     |   3.2 |  7.70
Output  | 0.065874   | 0.065919   | 0.065964   |   0.0 |  0.01
Modify  | 14.116     | 14.125     | 14.134     |   0.2 |  1.37
Other   |            | 2.724      |            |       |  0.27

Nlocal:    9826 ave 9826 max 9826 min
Histogram: 2 0 0 0 0 0 0 0 0 0
Nghost:    11028.5 ave 11036 max 11021 min
Histogram: 1 0 0 0 0 0 0 0 0 1
Neighs:    509512 ave 509717 max 509306 min
Histogram: 1 0 0 0 0 0 0 0 0 1

Total # of neighbors = 1019023
Ave neighs/atom = 51.8534
Neighbor list builds = 9505
Dangerous builds not checked
Setting up Verlet run ...
  Unit style    : metal
  Current step  : 100000
  Time step     : 0.001
Per MPI rank memory allocation (min/avg/max) = 11.26 | 11.26 | 11.26 Mbytes
Step Temp Press TotEng PotEng Enthalpy 
  100000     2147.353   -18.482039   -108233.22    -113687.7   -108238.79 
  100495    2110.6347    661.97247   -108477.45   -113838.65   -108278.51 
Loop time of 53.3901 on 2 procs for 495 steps with 19652 atoms

Performance: 0.801 ns/day, 29.961 hours/ns, 9.271 timesteps/s
79.5% CPU use with 2 MPI tasks x no OpenMP threads

MPI task timing breakdown:
Section |  min time  |  avg time  |  max time  |%varavg| %total
---------------------------------------------------------------
Pair    | 28.616     | 28.864     | 29.113     |   4.6 | 54.06
Neigh   | 19.427     | 19.486     | 19.546     |   1.3 | 36.50
Comm    | 4.0611     | 4.2746     | 4.488      |  10.3 |  8.01
Output  | 9.4891e-05 | 0.00013244 | 0.00016999 |   0.0 |  0.00
Modify  | 0.58947    | 0.61586    | 0.64224    |   3.4 |  1.15
Other   |            | 0.1492     |            |       |  0.28

Nlocal:    9826 ave 9832 max 9820 min
Histogram: 1 0 0 0 0 0 0 0 0 1
Nghost:    11011.5 ave 11034 max 10989 min
Histogram: 1 0 0 0 0 0 0 0 0 1
Neighs:    510603 ave 511362 max 509844 min
Histogram: 1 0 0 0 0 0 0 0 0 1

Total # of neighbors = 1021206
Ave neighs/atom = 51.9645
Neighbor list builds = 495
Dangerous builds not checked
Setting up Verlet run ...
  Unit style    : metal
  Current step  : 100495
  Time step     : 0.001
Per MPI rank memory allocation (min/avg/max) = 11.26 | 11.26 | 11.26 Mbytes
Step Temp Press TotEng PotEng Enthalpy 
  100495    2110.6347    661.97247   -108477.45   -113838.65   -108278.51 
  110000    2109.0462    394.95978    -108487.6   -113844.77    -108368.9 
Loop time of 949.12 on 2 procs for 9505 steps with 19652 atoms

Performance: 0.865 ns/day, 27.737 hours/ns, 10.015 timesteps/s
85.2% CPU use with 2 MPI tasks x no OpenMP threads

MPI task timing breakdown:
Section |  min time  |  avg time  |  max time  |%varavg| %total
---------------------------------------------------------------
Pair    | 515.35     | 516.24     | 517.12     |   3.9 | 54.39
Neigh   | 350.3      | 353.13     | 355.97     |  15.1 | 37.21
Comm    | 61.474     | 65.303     | 69.131     |  47.4 |  6.88
Output  | 0.036684   | 0.036795   | 0.036906   |   0.1 |  0.00
Modify  | 11.711     | 11.784     | 11.856     |   2.1 |  1.24
Other   |            | 2.629      |            |       |  0.28

Nlocal:    9826 ave 9841 max 9811 min
Histogram: 1 0 0 0 0 0 0 0 0 1
Nghost:    11046 ave 11079 max 11013 min
Histogram: 1 0 0 0 0 0 0 0 0 1
Neighs:    510737 ave 511703 max 509771 min
Histogram: 1 0 0 0 0 0 0 0 0 1

Total # of neighbors = 1021474
Ave neighs/atom = 51.9781
Neighbor list builds = 9505
Dangerous builds not checked
Setting up Verlet run ...
  Unit style    : metal
  Current step  : 110000
  Time step     : 0.001
Per MPI rank memory allocation (min/avg/max) = 11.26 | 11.26 | 11.26 Mbytes
Step Temp Press TotEng PotEng Enthalpy 
  110000    2109.0462    394.95978    -108487.6   -113844.77    -108368.9 
  110495    2057.5791    676.10102   -108766.21   -113992.65   -108563.35 
Loop time of 37.6574 on 2 procs for 495 steps with 19652 atoms

Performance: 1.136 ns/day, 21.132 hours/ns, 13.145 timesteps/s
98.7% CPU use with 2 MPI tasks x no OpenMP threads

MPI task timing breakdown:
Section |  min time  |  avg time  |  max time  |%varavg| %total
---------------------------------------------------------------
Pair    | 19.826     | 19.972     | 20.118     |   3.3 | 53.04
Neigh   | 15.036     | 15.307     | 15.578     |   6.9 | 40.65
Comm    | 1.6988     | 1.8261     | 1.9535     |   9.4 |  4.85
Output  | 8.3923e-05 | 0.00018346 | 0.000283   |   0.0 |  0.00
Modify  | 0.43073    | 0.43421    | 0.43769    |   0.5 |  1.15
Other   |            | 0.1178     |            |       |  0.31

Nlocal:    9826 ave 9840 max 9812 min
Histogram: 1 0 0 0 0 0 0 0 0 1
Nghost:    11032 ave 11036 max 11028 min
Histogram: 1 0 0 0 0 0 0 0 0 1
Neighs:    511783 ave 513319 max 510247 min
Histogram: 1 0 0 0 0 0 0 0 0 1

Total # of neighbors = 1023566
Ave neighs/atom = 52.0846
Neighbor list builds = 495
Dangerous builds not checked
Setting up Verlet run ...
  Unit style    : metal
  Current step  : 110495
  Time step     : 0.001
Per MPI rank memory allocation (min/avg/max) = 11.26 | 11.26 | 11.26 Mbytes
Step Temp Press TotEng PotEng Enthalpy 
  110495    2057.5791    676.10102   -108766.21   -113992.65   -108563.35 
  120000    2059.1915     599.2585   -108805.49   -114036.03   -108625.72 
Loop time of 747.075 on 2 procs for 9505 steps with 19652 atoms

Performance: 1.099 ns/day, 21.833 hours/ns, 12.723 timesteps/s
98.0% CPU use with 2 MPI tasks x no OpenMP threads

MPI task timing breakdown:
Section |  min time  |  avg time  |  max time  |%varavg| %total
---------------------------------------------------------------
Pair    | 397.62     | 398.21     | 398.8      |   3.0 | 53.30
Neigh   | 300.61     | 301.39     | 302.17     |   4.5 | 40.34
Comm    | 34.153     | 35.499     | 36.845     |  22.6 |  4.75
Output  | 0.038114   | 0.038141   | 0.038168   |   0.0 |  0.01
Modify  | 9.7381     | 9.7562     | 9.7743     |   0.6 |  1.31
Other   |            | 2.18       |            |       |  0.29

Nlocal:    9826 ave 9854 max 9798 min
Histogram: 1 0 0 0 0 0 0 0 0 1
Nghost:    11037.5 ave 11043 max 11032 min
Histogram: 1 0 0 0 0 0 0 0 0 1
Neighs:    511632 ave 513797 max 509468 min
Histogram: 1 0 0 0 0 0 0 0 0 1

Total # of neighbors = 1023265
Ave neighs/atom = 52.0693
Neighbor list builds = 9505
Dangerous builds not checked
Setting up Verlet run ...
  Unit style    : metal
  Current step  : 120000
  Time step     : 0.001
Per MPI rank memory allocation (min/avg/max) = 11.27 | 11.27 | 11.27 Mbytes
Step Temp Press TotEng PotEng Enthalpy 
  120000    2059.1915     599.2585   -108805.49   -114036.03   -108625.72 
  120495    2018.5182    348.64129   -109070.93   -114198.15   -108966.43 
Loop time of 37.6467 on 2 procs for 495 steps with 19652 atoms

Performance: 1.136 ns/day, 21.126 hours/ns, 13.149 timesteps/s
98.3% CPU use with 2 MPI tasks x no OpenMP threads

MPI task timing breakdown:
Section |  min time  |  avg time  |  max time  |%varavg| %total
---------------------------------------------------------------
Pair    | 20.126     | 20.364     | 20.602     |   5.3 | 54.09
Neigh   | 15.671     | 15.703     | 15.736     |   0.8 | 41.71
Comm    | 0.72461    | 0.99596    | 1.2673     |  27.2 |  2.65
Output  | 8.3923e-05 | 0.00010943 | 0.00013494 |   0.0 |  0.00
Modify  | 0.46735    | 0.46779    | 0.46823    |   0.1 |  1.24
Other   |            | 0.1153     |            |       |  0.31

Nlocal:    9826 ave 9854 max 9798 min
Histogram: 1 0 0 0 0 0 0 0 0 1
Nghost:    11025 ave 11034 max 11016 min
Histogram: 1 0 0 0 0 0 0 0 0 1
Neighs:    512316 ave 514321 max 510310 min
Histogram: 1 0 0 0 0 0 0 0 0 1

Total # of neighbors = 1024631
Ave neighs/atom = 52.1388
Neighbor list builds = 495
Dangerous builds not checked
Setting up Verlet run ...
  Unit style    : metal
  Current step  : 120495
  Time step     : 0.001
Per MPI rank memory allocation (min/avg/max) = 11.27 | 11.27 | 11.27 Mbytes
Step Temp Press TotEng PotEng Enthalpy 
  120495    2018.5182    348.64129   -109070.93   -114198.15   -108966.43 
  130000    1988.3013   -212.41325   -109203.32   -114253.79      -109267 
Loop time of 731.546 on 2 procs for 9505 steps with 19652 atoms

Performance: 1.123 ns/day, 21.379 hours/ns, 12.993 timesteps/s
98.5% CPU use with 2 MPI tasks x no OpenMP threads

MPI task timing breakdown:
Section |  min time  |  avg time  |  max time  |%varavg| %total
---------------------------------------------------------------
Pair    | 394.34     | 394.81     | 395.27     |   2.4 | 53.97
Neigh   | 299.18     | 299.25     | 299.33     |   0.4 | 40.91
Comm    | 25.324     | 25.903     | 26.481     |  11.4 |  3.54
Output  | 0.037199   | 0.037286   | 0.037373   |   0.0 |  0.01
Modify  | 9.3322     | 9.3666     | 9.401      |   1.1 |  1.28
Other   |            | 2.18       |            |       |  0.30

Nlocal:    9826 ave 9839 max 9813 min
Histogram: 1 0 0 0 0 0 0 0 0 1
Nghost:    11038.5 ave 11074 max 11003 min
Histogram: 1 0 0 0 0 0 0 0 0 1
Neighs:    512400 ave 512694 max 512105 min
Histogram: 1 0 0 0 0 0 0 0 0 1

Total # of neighbors = 1024799
Ave neighs/atom = 52.1473
Neighbor list builds = 9505
Dangerous builds not checked
Setting up Verlet run ...
  Unit style    : metal
  Current step  : 130000
  Time step     : 0.001
Per MPI rank memory allocation (min/avg/max) = 11.27 | 11.27 | 11.27 Mbytes
Step Temp Press TotEng PotEng Enthalpy 
  130000    1988.3013   -212.41325   -109203.32   -114253.79      -109267 
  130495    1961.9414   -408.75984   -109430.73   -114414.24   -109553.12 
Loop time of 35.9797 on 2 procs for 495 steps with 19652 atoms

Performance: 1.189 ns/day, 20.191 hours/ns, 13.758 timesteps/s
99.5% CPU use with 2 MPI tasks x no OpenMP threads

MPI task timing breakdown:
Section |  min time  |  avg time  |  max time  |%varavg| %total
---------------------------------------------------------------
Pair    | 19.162     | 19.29      | 19.418     |   2.9 | 53.61
Neigh   | 15.002     | 15.112     | 15.223     |   2.8 | 42.00
Comm    | 0.80477    | 1.049      | 1.2933     |  23.8 |  2.92
Output  | 8.5115e-05 | 0.00017715 | 0.00026917 |   0.0 |  0.00
Modify  | 0.41211    | 0.41719    | 0.42226    |   0.8 |  1.16
Other   |            | 0.1112     |            |       |  0.31

Nlocal:    9826 ave 9828 max 9824 min
Histogram: 1 0 0 0 0 0 0 0 0 1
Nghost:    11051.5 ave 11068 max 11035 min
Histogram: 1 0 0 0 0 0 0 0 0 1
Neighs:    513035 ave 513189 max 512881 min
Histogram: 1 0 0 0 0 0 0 0 0 1

Total # of neighbors = 1026070
Ave neighs/atom = 52.212
Neighbor list builds = 495
Dangerous builds not checked
Setting up Verlet run ...
  Unit style    : metal
  Current step  : 130495
  Time step     : 0.001
Per MPI rank memory allocation (min/avg/max) = 11.27 | 11.27 | 11.27 Mbytes
Step Temp Press TotEng PotEng Enthalpy 
  130495    1961.9414   -408.75984   -109430.73   -114414.24   -109553.12 
  140000    1942.4104   -1241.8788   -109550.85   -114484.75   -109922.87 
Loop time of 730.86 on 2 procs for 9505 steps with 19652 atoms

Performance: 1.124 ns/day, 21.359 hours/ns, 13.005 timesteps/s
98.4% CPU use with 2 MPI tasks x no OpenMP threads

MPI task timing breakdown:
Section |  min time  |  avg time  |  max time  |%varavg| %total
---------------------------------------------------------------
Pair    | 396.92     | 397.43     | 397.95     |   2.6 | 54.38
Neigh   | 299.43     | 299.88     | 300.32     |   2.6 | 41.03
Comm    | 22.603     | 22.646     | 22.69      |   0.9 |  3.10
Output  | 0.039414   | 0.0395     | 0.039586   |   0.0 |  0.01
Modify  | 8.657      | 8.681      | 8.7051     |   0.8 |  1.19
Other   |            | 2.183      |            |       |  0.30

Nlocal:    9826 ave 9850 max 9802 min
Histogram: 1 0 0 0 0 0 0 0 0 1
Nghost:    11052.5 ave 11062 max 11043 min
Histogram: 1 0 0 0 0 0 0 0 0 1
Neighs:    512771 ave 515118 max 510424 min
Histogram: 1 0 0 0 0 0 0 0 0 1

Total # of neighbors = 1025542
Ave neighs/atom = 52.1851
Neighbor list builds = 9505
Dangerous builds not checked
Setting up Verlet run ...
  Unit style    : metal
  Current step  : 140000
  Time step     : 0.001
Per MPI rank memory allocation (min/avg/max) = 11.27 | 11.27 | 11.27 Mbytes
Step Temp Press TotEng PotEng Enthalpy 
  140000    1942.4104   -1241.8788   -109550.85   -114484.75   -109922.87 
  140495    1901.0075   -632.58492   -109736.52   -114565.25   -109925.74 
Loop time of 33.6175 on 2 procs for 495 steps with 19652 atoms

Performance: 1.272 ns/day, 18.865 hours/ns, 14.724 timesteps/s
99.0% CPU use with 2 MPI tasks x no OpenMP threads

MPI task timing breakdown:
Section |  min time  |  avg time  |  max time  |%varavg| %total
---------------------------------------------------------------
Pair    | 17.888     | 17.902     | 17.916     |   0.3 | 53.25
Neigh   | 14.505     | 14.586     | 14.666     |   2.1 | 43.39
Comm    | 0.50044    | 0.59921    | 0.69798    |  12.8 |  1.78
Output  | 8.7023e-05 | 0.00011754 | 0.00014806 |   0.0 |  0.00
Modify  | 0.41255    | 0.41671    | 0.42087    |   0.6 |  1.24
Other   |            | 0.1135     |            |       |  0.34

Nlocal:    9826 ave 9828 max 9824 min
Histogram: 1 0 0 0 0 0 0 0 0 1
Nghost:    11047 ave 11050 max 11044 min
Histogram: 1 0 0 0 0 0 0 0 0 1
Neighs:    513674 ave 513722 max 513627 min
Histogram: 1 0 0 0 0 0 0 0 0 1

Total # of neighbors = 1027349
Ave neighs/atom = 52.2771
Neighbor list builds = 495
Dangerous builds not checked
Setting up Verlet run ...
  Unit style    : metal
  Current step  : 140495
  Time step     : 0.001
Per MPI rank memory allocation (min/avg/max) = 11.27 | 11.27 | 11.27 Mbytes
Step Temp Press TotEng PotEng Enthalpy 
  140495    1901.0075   -632.58492   -109736.52   -114565.25   -109925.74 
  150000    1913.6983    758.63219   -109798.43    -114659.4    -109572.2 
Loop time of 732.568 on 2 procs for 9505 steps with 19652 atoms

Performance: 1.121 ns/day, 21.409 hours/ns, 12.975 timesteps/s
97.8% CPU use with 2 MPI tasks x no OpenMP threads

MPI task timing breakdown:
Section |  min time  |  avg time  |  max time  |%varavg| %total
---------------------------------------------------------------
Pair    | 395.94     | 396.3      | 396.66     |   1.8 | 54.10
Neigh   | 296.28     | 298.39     | 300.51     |  12.2 | 40.73
Comm    | 25.027     | 27.561     | 30.096     |  48.3 |  3.76
Output  | 0.036373   | 0.036405   | 0.036437   |   0.0 |  0.00
Modify  | 8.0611     | 8.1163     | 8.1715     |   1.9 |  1.11
Other   |            | 2.163      |            |       |  0.30

Nlocal:    9826 ave 9830 max 9822 min
Histogram: 1 0 0 0 0 0 0 0 0 1
Nghost:    11038 ave 11062 max 11014 min
Histogram: 1 0 0 0 0 0 0 0 0 1
Neighs:    515164 ave 515499 max 514830 min
Histogram: 1 0 0 0 0 0 0 0 0 1

Total # of neighbors = 1030329
Ave neighs/atom = 52.4287
Neighbor list builds = 9505
Dangerous builds not checked
Setting up Verlet run ...
  Unit style    : metal
  Current step  : 150000
  Time step     : 0.001
Per MPI rank memory allocation (min/avg/max) = 11.28 | 11.28 | 11.28 Mbytes
Step Temp Press TotEng PotEng Enthalpy 
  150000    1913.6983    758.63219   -109798.43    -114659.4    -109572.2 
  150495    1872.9806    727.90495   -110000.46      -114758   -109783.54 
Loop time of 38.0468 on 2 procs for 495 steps with 19652 atoms

Performance: 1.124 ns/day, 21.351 hours/ns, 13.010 timesteps/s
99.1% CPU use with 2 MPI tasks x no OpenMP threads

MPI task timing breakdown:
Section |  min time  |  avg time  |  max time  |%varavg| %total
---------------------------------------------------------------
Pair    | 20.327     | 20.626     | 20.925     |   6.6 | 54.21
Neigh   | 15.371     | 15.466     | 15.561     |   2.4 | 40.65
Comm    | 1.0083     | 1.4069     | 1.8054     |  33.6 |  3.70
Output  | 9.6798e-05 | 0.00019133 | 0.00028586 |   0.0 |  0.00
Modify  | 0.43187    | 0.43408    | 0.43629    |   0.3 |  1.14
Other   |            | 0.1141     |            |       |  0.30

Nlocal:    9826 ave 9830 max 9822 min
Histogram: 1 0 0 0 0 0 0 0 0 1
Nghost:    11105 ave 11113 max 11097 min
Histogram: 1 0 0 0 0 0 0 0 0 1
Neighs:    515652 ave 516016 max 515289 min
Histogram: 1 0 0 0 0 0 0 0 0 1

Total # of neighbors = 1031305
Ave neighs/atom = 52.4784
Neighbor list builds = 495
Dangerous builds not checked
Setting up Verlet run ...
  Unit style    : metal
  Current step  : 150495
  Time step     : 0.001
Per MPI rank memory allocation (min/avg/max) = 11.28 | 11.28 | 11.28 Mbytes
Step Temp Press TotEng PotEng Enthalpy 
  150495    1872.9806    727.90495   -110000.46      -114758   -109783.54 
  160000    1840.7637   -173.44684   -110184.36   -114860.07   -110236.07 
Loop time of 736.457 on 2 procs for 9505 steps with 19652 atoms

Performance: 1.115 ns/day, 21.522 hours/ns, 12.906 timesteps/s
97.7% CPU use with 2 MPI tasks x no OpenMP threads

MPI task timing breakdown:
Section |  min time  |  avg time  |  max time  |%varavg| %total
---------------------------------------------------------------
Pair    | 397.8      | 398.07     | 398.33     |   1.3 | 54.05
Neigh   | 299.26     | 299.3      | 299.34     |   0.2 | 40.64
Comm    | 28.242     | 28.487     | 28.731     |   4.6 |  3.87
Output  | 0.037807   | 0.037897   | 0.037987   |   0.0 |  0.01
Modify  | 8.3776     | 8.3898     | 8.402      |   0.4 |  1.14
Other   |            | 2.178      |            |       |  0.30

Nlocal:    9826 ave 9829 max 9823 min
Histogram: 1 0 0 0 0 0 0 0 0 1
Nghost:    11075 ave 11094 max 11056 min
Histogram: 1 0 0 0 0 0 0 0 0 1
Neighs:    515878 ave 516188 max 515568 min
Histogram: 1 0 0 0 0 0 0 0 0 1

Total # of neighbors = 1031756
Ave neighs/atom = 52.5013
Neighbor list builds = 9505
Dangerous builds not checked
Setting up Verlet run ...
  Unit style    : metal
  Current step  : 160000
  Time step     : 0.001
Per MPI rank memory allocation (min/avg/max) = 11.28 | 11.28 | 11.28 Mbytes
Step Temp Press TotEng PotEng Enthalpy 
  160000    1840.7637   -173.44684   -110184.36   -114860.07   -110236.07 
  160495    1801.7659   -193.27669   -110398.54   -114975.19   -110456.11 
Loop time of 39.5404 on 2 procs for 495 steps with 19652 atoms

Performance: 1.082 ns/day, 22.189 hours/ns, 12.519 timesteps/s
93.4% CPU use with 2 MPI tasks x no OpenMP threads

MPI task timing breakdown:
Section |  min time  |  avg time  |  max time  |%varavg| %total
---------------------------------------------------------------
Pair    | 21.345     | 21.48      | 21.614     |   2.9 | 54.32
Neigh   | 15.315     | 15.344     | 15.372     |   0.7 | 38.81
Comm    | 1.7448     | 1.8515     | 1.9582     |   7.8 |  4.68
Output  | 9.9897e-05 | 0.0001514  | 0.00020289 |   0.0 |  0.00
Modify  | 0.7511     | 0.75153    | 0.75195    |   0.0 |  1.90
Other   |            | 0.1139     |            |       |  0.29

Nlocal:    9826 ave 9844 max 9808 min
Histogram: 1 0 0 0 0 0 0 0 0 1
Nghost:    11078 ave 11110 max 11046 min
Histogram: 1 0 0 0 0 0 0 0 0 1
Neighs:    516187 ave 516589 max 515785 min
Histogram: 1 0 0 0 0 0 0 0 0 1

Total # of neighbors = 1032374
Ave neighs/atom = 52.5328
Neighbor list builds = 495
Dangerous builds not checked
Setting up Verlet run ...
  Unit style    : metal
  Current step  : 160495
  Time step     : 0.001
Per MPI rank memory allocation (min/avg/max) = 11.28 | 11.28 | 11.28 Mbytes
Step Temp Press TotEng PotEng Enthalpy 
  160495    1801.7659   -193.27669   -110398.54   -114975.19   -110456.11 
  170000    1779.7925    451.81037   -110545.31   -115066.15   -110411.01 
Loop time of 746.686 on 2 procs for 9505 steps with 19652 atoms

Performance: 1.100 ns/day, 21.821 hours/ns, 12.730 timesteps/s
97.6% CPU use with 2 MPI tasks x no OpenMP threads

MPI task timing breakdown:
Section |  min time  |  avg time  |  max time  |%varavg| %total
---------------------------------------------------------------
Pair    | 407.85     | 408.41     | 408.97     |   2.8 | 54.70
Neigh   | 298.9      | 300.55     | 302.19     |   9.5 | 40.25
Comm    | 24.883     | 27.137     | 29.39      |  43.3 |  3.63
Output  | 0.036414   | 0.03643    | 0.036447   |   0.0 |  0.00
Modify  | 8.2952     | 8.3382     | 8.3811     |   1.5 |  1.12
Other   |            | 2.219      |            |       |  0.30

Nlocal:    9826 ave 9849 max 9803 min
Histogram: 1 0 0 0 0 0 0 0 0 1
Nghost:    11105 ave 11105 max 11105 min
Histogram: 2 0 0 0 0 0 0 0 0 0
Neighs:    517150 ave 518910 max 515390 min
Histogram: 1 0 0 0 0 0 0 0 0 1

Total # of neighbors = 1034300
Ave neighs/atom = 52.6308
Neighbor list builds = 9505
Dangerous builds not checked
Setting up Verlet run ...
  Unit style    : metal
  Current step  : 170000
  Time step     : 0.001
Per MPI rank memory allocation (min/avg/max) = 11.28 | 11.28 | 11.28 Mbytes
Step Temp Press TotEng PotEng Enthalpy 
  170000    1779.7925    451.81037   -110545.31   -115066.15   -110411.01 
  170495    1761.9044     796.9366   -110700.44   -115175.84   -110463.83 
Loop time of 36.9182 on 2 procs for 495 steps with 19652 atoms

Performance: 1.158 ns/day, 20.717 hours/ns, 13.408 timesteps/s
98.3% CPU use with 2 MPI tasks x no OpenMP threads

MPI task timing breakdown:
Section |  min time  |  avg time  |  max time  |%varavg| %total
---------------------------------------------------------------
Pair    | 19.717     | 19.813     | 19.91      |   2.2 | 53.67
Neigh   | 14.89      | 15.156     | 15.423     |   6.8 | 41.05
Comm    | 1.0346     | 1.4034     | 1.7722     |  31.1 |  3.80
Output  | 7.1049e-05 | 0.000108   | 0.00014496 |   0.0 |  0.00
Modify  | 0.42472    | 0.43027    | 0.43581    |   0.8 |  1.17
Other   |            | 0.1148     |            |       |  0.31

Nlocal:    9826 ave 9829 max 9823 min
Histogram: 1 0 0 0 0 0 0 0 0 1
Nghost:    11108.5 ave 11119 max 11098 min
Histogram: 1 0 0 0 0 0 0 0 0 1
Neighs:    518128 ave 519386 max 516871 min
Histogram: 1 0 0 0 0 0 0 0 0 1

Total # of neighbors = 1036257
Ave neighs/atom = 52.7304
Neighbor list builds = 495
Dangerous builds not checked
Setting up Verlet run ...
  Unit style    : metal
  Current step  : 170495
  Time step     : 0.001
Per MPI rank memory allocation (min/avg/max) = 11.28 | 11.28 | 11.28 Mbytes
Step Temp Press TotEng PotEng Enthalpy 
  170495    1761.9044     796.9366   -110700.44   -115175.84   -110463.83 
  180000    1754.4569    289.22841    -110756.6   -115213.08   -110670.66 
Loop time of 741.51 on 2 procs for 9505 steps with 19652 atoms

Performance: 1.108 ns/day, 21.670 hours/ns, 12.818 timesteps/s
97.8% CPU use with 2 MPI tasks x no OpenMP threads

MPI task timing breakdown:
Section |  min time  |  avg time  |  max time  |%varavg| %total
---------------------------------------------------------------
Pair    | 404.68     | 405.12     | 405.56     |   2.2 | 54.63
Neigh   | 297.55     | 299.16     | 300.78     |   9.3 | 40.35
Comm    | 25.545     | 26.743     | 27.941     |  23.2 |  3.61
Output  | 0.035533   | 0.035553   | 0.035572   |   0.0 |  0.00
Modify  | 8.2306     | 8.2536     | 8.2767     |   0.8 |  1.11
Other   |            | 2.195      |            |       |  0.30

Nlocal:    9826 ave 9830 max 9822 min
Histogram: 1 0 0 0 0 0 0 0 0 1
Nghost:    11110 ave 11126 max 11094 min
Histogram: 1 0 0 0 0 0 0 0 0 1
Neighs:    517748 ave 518671 max 516826 min
Histogram: 1 0 0 0 0 0 0 0 0 1

Total # of neighbors = 1035497
Ave neighs/atom = 52.6917
Neighbor list builds = 9505
Dangerous builds not checked
Setting up Verlet run ...
  Unit style    : metal
  Current step  : 180000
  Time step     : 0.001
Per MPI rank memory allocation (min/avg/max) = 11.28 | 11.28 | 11.28 Mbytes
Step Temp Press TotEng PotEng Enthalpy 
  180000    1754.4569    289.22841    -110756.6   -115213.08   -110670.66 
  180495    1716.7912   -615.16518   -111034.39   -115395.19   -111216.98 
Loop time of 37.1991 on 2 procs for 495 steps with 19652 atoms

Performance: 1.150 ns/day, 20.875 hours/ns, 13.307 timesteps/s
99.4% CPU use with 2 MPI tasks x no OpenMP threads

MPI task timing breakdown:
Section |  min time  |  avg time  |  max time  |%varavg| %total
---------------------------------------------------------------
Pair    | 19.934     | 20.021     | 20.109     |   2.0 | 53.82
Neigh   | 15.573     | 15.683     | 15.792     |   2.8 | 42.16
Comm    | 0.72775    | 0.93421    | 1.1407     |  21.4 |  2.51
Output  | 9.203e-05  | 0.00013459 | 0.00017715 |   0.0 |  0.00
Modify  | 0.43756    | 0.44665    | 0.45574    |   1.4 |  1.20
Other   |            | 0.1143     |            |       |  0.31

Nlocal:    9826 ave 9840 max 9812 min
Histogram: 1 0 0 0 0 0 0 0 0 1
Nghost:    11085 ave 11087 max 11083 min
Histogram: 1 0 0 0 0 0 0 0 0 1
Neighs:    518124 ave 519513 max 516734 min
Histogram: 1 0 0 0 0 0 0 0 0 1

Total # of neighbors = 1036247
Ave neighs/atom = 52.7298
Neighbor list builds = 495
Dangerous builds not checked
Setting up Verlet run ...
  Unit style    : metal
  Current step  : 180495
  Time step     : 0.001
Per MPI rank memory allocation (min/avg/max) = 11.28 | 11.28 | 11.28 Mbytes
Step Temp Press TotEng PotEng Enthalpy 
  180495    1716.7912   -615.16518   -111034.39   -115395.19   -111216.98 
  190000    1691.8189    410.59767   -111188.26   -115485.64   -111066.59 
Loop time of 730.739 on 2 procs for 9505 steps with 19652 atoms

Performance: 1.124 ns/day, 21.355 hours/ns, 13.007 timesteps/s
98.4% CPU use with 2 MPI tasks x no OpenMP threads

MPI task timing breakdown:
Section |  min time  |  avg time  |  max time  |%varavg| %total
---------------------------------------------------------------
Pair    | 397.05     | 397.17     | 397.29     |   0.6 | 54.35
Neigh   | 297.62     | 297.67     | 297.71     |   0.3 | 40.73
Comm    | 24.814     | 24.992     | 25.17      |   3.6 |  3.42
Output  | 0.037003   | 0.037046   | 0.037089   |   0.0 |  0.01
Modify  | 8.6995     | 8.707      | 8.7145     |   0.3 |  1.19
Other   |            | 2.168      |            |       |  0.30

Nlocal:    9826 ave 9831 max 9821 min
Histogram: 1 0 0 0 0 0 0 0 0 1
Nghost:    11076.5 ave 11081 max 11072 min
Histogram: 1 0 0 0 0 0 0 0 0 1
Neighs:    519254 ave 519701 max 518808 min
Histogram: 1 0 0 0 0 0 0 0 0 1

Total # of neighbors = 1038509
Ave neighs/atom = 52.845
Neighbor list builds = 9505
Dangerous builds not checked
Setting up Verlet run ...
  Unit style    : metal
  Current step  : 190000
  Time step     : 0.001
Per MPI rank memory allocation (min/avg/max) = 11.28 | 11.28 | 11.28 Mbytes
Step Temp Press TotEng PotEng Enthalpy 
  190000    1691.8189    410.59767   -111188.26   -115485.64   -111066.59 
  190495    1664.0117   -4.5367821   -111393.78   -115620.52   -111395.12 
Loop time of 36.5342 on 2 procs for 495 steps with 19652 atoms

Performance: 1.171 ns/day, 20.502 hours/ns, 13.549 timesteps/s
98.9% CPU use with 2 MPI tasks x no OpenMP threads

MPI task timing breakdown:
Section |  min time  |  avg time  |  max time  |%varavg| %total
---------------------------------------------------------------
Pair    | 19.382     | 19.62      | 19.858     |   5.4 | 53.70
Neigh   | 14.91      | 14.994     | 15.078     |   2.2 | 41.04
Comm    | 1.2235     | 1.3767     | 1.53       |  13.1 |  3.77
Output  | 0.00010204 | 0.0001595  | 0.00021696 |   0.0 |  0.00
Modify  | 0.42735    | 0.42874    | 0.43013    |   0.2 |  1.17
Other   |            | 0.1142     |            |       |  0.31

Nlocal:    9826 ave 9839 max 9813 min
Histogram: 1 0 0 0 0 0 0 0 0 1
Nghost:    11075 ave 11091 max 11059 min
Histogram: 1 0 0 0 0 0 0 0 0 1
Neighs:    520184 ave 520243 max 520125 min
Histogram: 1 0 0 0 0 0 0 0 0 1

Total # of neighbors = 1040368
Ave neighs/atom = 52.9395
Neighbor list builds = 495
Dangerous builds not checked
Setting up Verlet run ...
  Unit style    : metal
  Current step  : 190495
  Time step     : 0.001
Per MPI rank memory allocation (min/avg/max) = 11.28 | 11.28 | 11.28 Mbytes
Step Temp Press TotEng PotEng Enthalpy 
  190495    1664.0117   -4.5367821   -111393.78   -115620.52   -111395.12 
  200000    1645.3748   -461.36678   -111559.03   -115738.43   -111695.67 
Loop time of 729.02 on 2 procs for 9505 steps with 19652 atoms

Performance: 1.126 ns/day, 21.305 hours/ns, 13.038 timesteps/s
98.1% CPU use with 2 MPI tasks x no OpenMP threads

MPI task timing breakdown:
Section |  min time  |  avg time  |  max time  |%varavg| %total
---------------------------------------------------------------
Pair    | 393.45     | 395.29     | 397.14     |   9.3 | 54.22
Neigh   | 294.32     | 295.66     | 297.01     |   7.8 | 40.56
Comm    | 26.716     | 27.207     | 27.698     |   9.4 |  3.73
Output  | 0.036825   | 0.036854   | 0.036884   |   0.0 |  0.01
Modify  | 8.6222     | 8.635      | 8.6477     |   0.4 |  1.18
Other   |            | 2.185      |            |       |  0.30

Nlocal:    9826 ave 9832 max 9820 min
Histogram: 1 0 0 0 0 0 0 0 0 1
Nghost:    11098.5 ave 11110 max 11087 min
Histogram: 1 0 0 0 0 0 0 0 0 1
Neighs:    520026 ave 520556 max 519495 min
Histogram: 1 0 0 0 0 0 0 0 0 1

Total # of neighbors = 1040051
Ave neighs/atom = 52.9234
Neighbor list builds = 9505
Dangerous builds not checked
Setting up Verlet run ...
  Unit style    : metal
  Current step  : 200000
  Time step     : 0.001
Per MPI rank memory allocation (min/avg/max) = 11.29 | 11.29 | 11.29 Mbytes
Step Temp Press TotEng PotEng Enthalpy 
  200000    1645.3748   -461.36678   -111559.03   -115738.43   -111695.67 
  200495    1621.0882   -41.928799   -111684.37   -115802.08   -111696.77 
Loop time of 35.8968 on 2 procs for 495 steps with 19652 atoms

Performance: 1.191 ns/day, 20.144 hours/ns, 13.790 timesteps/s
98.8% CPU use with 2 MPI tasks x no OpenMP threads

MPI task timing breakdown:
Section |  min time  |  avg time  |  max time  |%varavg| %total
---------------------------------------------------------------
Pair    | 19.16      | 19.214     | 19.267     |   1.2 | 53.52
Neigh   | 14.777     | 15         | 15.223     |   5.8 | 41.79
Comm    | 0.98357    | 1.1514     | 1.3193     |  15.6 |  3.21
Output  | 9.203e-05  | 0.00014055 | 0.00018907 |   0.0 |  0.00
Modify  | 0.41969    | 0.42021    | 0.42072    |   0.1 |  1.17
Other   |            | 0.111      |            |       |  0.31

Nlocal:    9826 ave 9832 max 9820 min
Histogram: 1 0 0 0 0 0 0 0 0 1
Nghost:    11109 ave 11109 max 11109 min
Histogram: 2 0 0 0 0 0 0 0 0 0
Neighs:    520788 ave 521199 max 520378 min
Histogram: 1 0 0 0 0 0 0 0 0 1

Total # of neighbors = 1041577
Ave neighs/atom = 53.0011
Neighbor list builds = 495
Dangerous builds not checked
Setting up Verlet run ...
  Unit style    : metal
  Current step  : 200495
  Time step     : 0.001
Per MPI rank memory allocation (min/avg/max) = 11.29 | 11.29 | 11.29 Mbytes
Step Temp Press TotEng PotEng Enthalpy 
  200495    1621.0882   -41.928799   -111684.37   -115802.08   -111696.77 
  210000    1610.2061    560.97708   -111770.24   -115860.31   -111604.59 
Loop time of 726.456 on 2 procs for 9505 steps with 19652 atoms

Performance: 1.130 ns/day, 21.230 hours/ns, 13.084 timesteps/s
98.3% CPU use with 2 MPI tasks x no OpenMP threads

MPI task timing breakdown:
Section |  min time  |  avg time  |  max time  |%varavg| %total
---------------------------------------------------------------
Pair    | 394.59     | 394.74     | 394.89     |   0.7 | 54.34
Neigh   | 294.59     | 295.13     | 295.67     |   3.1 | 40.63
Comm    | 25.306     | 25.957     | 26.607     |  12.8 |  3.57
Output  | 0.037606   | 0.037644   | 0.037682   |   0.0 |  0.01
Modify  | 8.161      | 8.4172     | 8.6734     |   8.8 |  1.16
Other   |            | 2.173      |            |       |  0.30

Nlocal:    9826 ave 9827 max 9825 min
Histogram: 1 0 0 0 0 0 0 0 0 1
Nghost:    11100 ave 11126 max 11074 min
Histogram: 1 0 0 0 0 0 0 0 0 1
Neighs:    521529 ave 521802 max 521256 min
Histogram: 1 0 0 0 0 0 0 0 0 1

Total # of neighbors = 1043058
Ave neighs/atom = 53.0764
Neighbor list builds = 9505
Dangerous builds not checked
Setting up Verlet run ...
  Unit style    : metal
  Current step  : 210000
  Time step     : 0.001
Per MPI rank memory allocation (min/avg/max) = 11.29 | 11.29 | 11.29 Mbytes
Step Temp Press TotEng PotEng Enthalpy 
  210000    1610.2061    560.97708   -111770.24   -115860.31   -111604.59 
  210495    1574.8457    178.71812   -111990.33   -115990.58   -111937.59 
Loop time of 37.4123 on 2 procs for 495 steps with 19652 atoms

Performance: 1.143 ns/day, 20.995 hours/ns, 13.231 timesteps/s
97.5% CPU use with 2 MPI tasks x no OpenMP threads

MPI task timing breakdown:
Section |  min time  |  avg time  |  max time  |%varavg| %total
---------------------------------------------------------------
Pair    | 19.817     | 20.081     | 20.344     |   5.9 | 53.67
Neigh   | 14.917     | 15.004     | 15.091     |   2.2 | 40.10
Comm    | 1.4244     | 1.7795     | 2.1346     |  26.6 |  4.76
Output  | 0.00010896 | 0.00016904 | 0.00022912 |   0.0 |  0.00
Modify  | 0.42768    | 0.43232    | 0.43696    |   0.7 |  1.16
Other   |            | 0.1157     |            |       |  0.31

Nlocal:    9826 ave 9841 max 9811 min
Histogram: 1 0 0 0 0 0 0 0 0 1
Nghost:    11135 ave 11137 max 11133 min
Histogram: 1 0 0 0 0 0 0 0 0 1
Neighs:    522048 ave 523509 max 520587 min
Histogram: 1 0 0 0 0 0 0 0 0 1

Total # of neighbors = 1044096
Ave neighs/atom = 53.1292
Neighbor list builds = 495
Dangerous builds not checked
Setting up Verlet run ...
  Unit style    : metal
  Current step  : 210495
  Time step     : 0.001
Per MPI rank memory allocation (min/avg/max) = 11.29 | 11.29 | 11.29 Mbytes
Step Temp Press TotEng PotEng Enthalpy 
  210495    1574.8457    178.71812   -111990.33   -115990.58   -111937.59 
  220000    1555.2263    1546.6718   -112124.38    -116074.8    -111669.2 
Loop time of 722.399 on 2 procs for 9505 steps with 19652 atoms

Performance: 1.137 ns/day, 21.112 hours/ns, 13.158 timesteps/s
98.5% CPU use with 2 MPI tasks x no OpenMP threads

MPI task timing breakdown:
Section |  min time  |  avg time  |  max time  |%varavg| %total
---------------------------------------------------------------
Pair    | 391        | 391.79     | 392.57     |   4.0 | 54.23
Neigh   | 293.3      | 294.24     | 295.17     |   5.4 | 40.73
Comm    | 23.855     | 25.594     | 27.334     |  34.4 |  3.54
Output  | 0.037055   | 0.037126   | 0.037196   |   0.0 |  0.01
Modify  | 8.5639     | 8.5783     | 8.5927     |   0.5 |  1.19
Other   |            | 2.164      |            |       |  0.30

Nlocal:    9826 ave 9835 max 9817 min
Histogram: 1 0 0 0 0 0 0 0 0 1
Nghost:    11120 ave 11130 max 11110 min
Histogram: 1 0 0 0 0 0 0 0 0 1
Neighs:    523524 ave 524591 max 522458 min
Histogram: 1 0 0 0 0 0 0 0 0 1

Total # of neighbors = 1047049
Ave neighs/atom = 53.2795
Neighbor list builds = 9505
Dangerous builds not checked
Setting up Verlet run ...
  Unit style    : metal
  Current step  : 220000
  Time step     : 0.001
Per MPI rank memory allocation (min/avg/max) = 11.29 | 11.29 | 11.29 Mbytes
Step Temp Press TotEng PotEng Enthalpy 
  220000    1555.2263    1546.6718   -112124.38    -116074.8    -111669.2 
  220495    1520.4837    12.740845   -112338.18   -116200.34   -112334.42 
Loop time of 36.9165 on 2 procs for 495 steps with 19652 atoms

Performance: 1.159 ns/day, 20.716 hours/ns, 13.409 timesteps/s
98.4% CPU use with 2 MPI tasks x no OpenMP threads

MPI task timing breakdown:
Section |  min time  |  avg time  |  max time  |%varavg| %total
---------------------------------------------------------------
Pair    | 20.073     | 20.246     | 20.419     |   3.8 | 54.84
Neigh   | 15.01      | 15.094     | 15.178     |   2.2 | 40.89
Comm    | 0.77042    | 1.0315     | 1.2926     |  25.7 |  2.79
Output  | 7.4863e-05 | 0.00018048 | 0.0002861  |   0.0 |  0.00
Modify  | 0.42947    | 0.43197    | 0.43447    |   0.4 |  1.17
Other   |            | 0.1128     |            |       |  0.31

Nlocal:    9826 ave 9831 max 9821 min
Histogram: 1 0 0 0 0 0 0 0 0 1
Nghost:    11126 ave 11137 max 11115 min
Histogram: 1 0 0 0 0 0 0 0 0 1
Neighs:    522953 ave 523592 max 522314 min
Histogram: 1 0 0 0 0 0 0 0 0 1

Total # of neighbors = 1045906
Ave neighs/atom = 53.2214
Neighbor list builds = 495
Dangerous builds not checked
Setting up Verlet run ...
  Unit style    : metal
  Current step  : 220495
  Time step     : 0.001
Per MPI rank memory allocation (min/avg/max) = 11.29 | 11.29 | 11.29 Mbytes
Step Temp Press TotEng PotEng Enthalpy 
  220495    1520.4837    12.740845   -112338.18   -116200.34   -112334.42 
  230000    1494.9784     952.3286   -112491.86   -116289.24   -112211.73 
Loop time of 708.522 on 2 procs for 9505 steps with 19652 atoms

Performance: 1.159 ns/day, 20.706 hours/ns, 13.415 timesteps/s
97.9% CPU use with 2 MPI tasks x no OpenMP threads

MPI task timing breakdown:
Section |  min time  |  avg time  |  max time  |%varavg| %total
---------------------------------------------------------------
Pair    | 375.94     | 377.13     | 378.33     |   6.1 | 53.23
Neigh   | 287.8      | 287.9      | 288.01     |   0.6 | 40.63
Comm    | 32.091     | 33.202     | 34.314     |  19.3 |  4.69
Output  | 0.036356   | 0.03643    | 0.036505   |   0.0 |  0.01
Modify  | 8.1528     | 8.1747     | 8.1966     |   0.8 |  1.15
Other   |            | 2.074      |            |       |  0.29

Nlocal:    9826 ave 9842 max 9810 min
Histogram: 1 0 0 0 0 0 0 0 0 1
Nghost:    11133.5 ave 11143 max 11124 min
Histogram: 1 0 0 0 0 0 0 0 0 1
Neighs:    524522 ave 526029 max 523015 min
Histogram: 1 0 0 0 0 0 0 0 0 1

Total # of neighbors = 1049044
Ave neighs/atom = 53.381
Neighbor list builds = 9505
Dangerous builds not checked
Setting up Verlet run ...
  Unit style    : metal
  Current step  : 230000
  Time step     : 0.001
Per MPI rank memory allocation (min/avg/max) = 11.29 | 11.29 | 11.29 Mbytes
Step Temp Press TotEng PotEng Enthalpy 
  230000    1494.9784     952.3286   -112491.86   -116289.24   -112211.73 
  230495    1462.0555   -49.813038   -112696.07   -116409.83   -112710.73 
Loop time of 34.8868 on 2 procs for 495 steps with 19652 atoms

Performance: 1.226 ns/day, 19.577 hours/ns, 14.189 timesteps/s
99.5% CPU use with 2 MPI tasks x no OpenMP threads

MPI task timing breakdown:
Section |  min time  |  avg time  |  max time  |%varavg| %total
---------------------------------------------------------------
Pair    | 18.508     | 18.554     | 18.599     |   1.1 | 53.18
Neigh   | 14.638     | 14.643     | 14.649     |   0.1 | 41.97
Comm    | 1.1124     | 1.1626     | 1.2128     |   4.7 |  3.33
Output  | 7.9155e-05 | 0.00017309 | 0.00026703 |   0.0 |  0.00
Modify  | 0.41775    | 0.41909    | 0.42043    |   0.2 |  1.20
Other   |            | 0.108      |            |       |  0.31

Nlocal:    9826 ave 9831 max 9821 min
Histogram: 1 0 0 0 0 0 0 0 0 1
Nghost:    11115 ave 11121 max 11109 min
Histogram: 1 0 0 0 0 0 0 0 0 1
Neighs:    524240 ave 524697 max 523783 min
Histogram: 1 0 0 0 0 0 0 0 0 1

Total # of neighbors = 1048480
Ave neighs/atom = 53.3523
Neighbor list builds = 495
Dangerous builds not checked
Setting up Verlet run ...
  Unit style    : metal
  Current step  : 230495
  Time step     : 0.001
Per MPI rank memory allocation (min/avg/max) = 11.29 | 11.29 | 11.29 Mbytes
Step Temp Press TotEng PotEng Enthalpy 
  230495    1462.0555   -49.813038   -112696.07   -116409.83   -112710.73 
  240000    1436.1152   -1276.1431    -112855.5   -116503.36   -113231.43 
Loop time of 693.803 on 2 procs for 9505 steps with 19652 atoms

Performance: 1.184 ns/day, 20.276 hours/ns, 13.700 timesteps/s
98.1% CPU use with 2 MPI tasks x no OpenMP threads

MPI task timing breakdown:
Section |  min time  |  avg time  |  max time  |%varavg| %total
---------------------------------------------------------------
Pair    | 371.49     | 372.11     | 372.74     |   3.2 | 53.63
Neigh   | 284.99     | 285.39     | 285.78     |   2.3 | 41.13
Comm    | 25.252     | 26.282     | 27.311     |  20.1 |  3.79
Output  | 0.038      | 0.038035   | 0.038069   |   0.0 |  0.01
Modify  | 7.907      | 7.9198     | 7.9326     |   0.5 |  1.14
Other   |            | 2.063      |            |       |  0.30

Nlocal:    9826 ave 9827 max 9825 min
Histogram: 1 0 0 0 0 0 0 0 0 1
Nghost:    11138.5 ave 11141 max 11136 min
Histogram: 1 0 0 0 0 0 0 0 0 1
Neighs:    523510 ave 523549 max 523471 min
Histogram: 1 0 0 0 0 0 0 0 0 1

Total # of neighbors = 1047020
Ave neighs/atom = 53.278
Neighbor list builds = 9505
Dangerous builds not checked
Setting up Verlet run ...
  Unit style    : metal
  Current step  : 240000
  Time step     : 0.001
Per MPI rank memory allocation (min/avg/max) = 11.29 | 11.29 | 11.29 Mbytes
Step Temp Press TotEng PotEng Enthalpy 
  240000    1436.1152   -1276.1431    -112855.5   -116503.36   -113231.43 
  240495    1410.0023   -533.91584   -113024.99   -116606.52   -113181.88 
Loop time of 35.9258 on 2 procs for 495 steps with 19652 atoms

Performance: 1.190 ns/day, 20.160 hours/ns, 13.778 timesteps/s
98.9% CPU use with 2 MPI tasks x no OpenMP threads

MPI task timing breakdown:
Section |  min time  |  avg time  |  max time  |%varavg| %total
---------------------------------------------------------------
Pair    | 19.064     | 19.393     | 19.722     |   7.5 | 53.98
Neigh   | 15.054     | 15.084     | 15.113     |   0.8 | 41.99
Comm    | 0.55173    | 0.91414    | 1.2765     |  37.9 |  2.54
Output  | 7.7963e-05 | 0.00011241 | 0.00014687 |   0.0 |  0.00
Modify  | 0.42173    | 0.4244     | 0.42708    |   0.4 |  1.18
Other   |            | 0.1101     |            |       |  0.31

Nlocal:    9826 ave 9848 max 9804 min
Histogram: 1 0 0 0 0 0 0 0 0 1
Nghost:    11177 ave 11195 max 11159 min
Histogram: 1 0 0 0 0 0 0 0 0 1
Neighs:    524935 ave 526678 max 523192 min
Histogram: 1 0 0 0 0 0 0 0 0 1

Total # of neighbors = 1049870
Ave neighs/atom = 53.4231
Neighbor list builds = 495
Dangerous builds not checked
Setting up Verlet run ...
  Unit style    : metal
  Current step  : 240495
  Time step     : 0.001
Per MPI rank memory allocation (min/avg/max) = 11.29 | 11.29 | 11.29 Mbytes
Step Temp Press TotEng PotEng Enthalpy 
  240495    1410.0023   -533.91584   -113024.99   -116606.52   -113181.88 
  250000    1400.1283     277.6805   -113192.03   -116748.49   -113110.59 
Loop time of 694.436 on 2 procs for 9505 steps with 19652 atoms

Performance: 1.183 ns/day, 20.294 hours/ns, 13.687 timesteps/s
98.2% CPU use with 2 MPI tasks x no OpenMP threads

MPI task timing breakdown:
Section |  min time  |  avg time  |  max time  |%varavg| %total
---------------------------------------------------------------
Pair    | 373.47     | 373.52     | 373.56     |   0.2 | 53.79
Neigh   | 286.78     | 286.92     | 287.06     |   0.8 | 41.32
Comm    | 23.213     | 23.393     | 23.574     |   3.7 |  3.37
Output  | 0.038015   | 0.038084   | 0.038153   |   0.0 |  0.01
Modify  | 8.4856     | 8.4895     | 8.4935     |   0.1 |  1.22
Other   |            | 2.077      |            |       |  0.30

Nlocal:    9826 ave 9839 max 9813 min
Histogram: 1 0 0 0 0 0 0 0 0 1
Nghost:    11165.5 ave 11189 max 11142 min
Histogram: 1 0 0 0 0 0 0 0 0 1
Neighs:    526498 ave 527147 max 525850 min
Histogram: 1 0 0 0 0 0 0 0 0 1

Total # of neighbors = 1052997
Ave neighs/atom = 53.5822
Neighbor list builds = 9505
Dangerous builds not checked
Setting up Verlet run ...
  Unit style    : metal
  Current step  : 250000
  Time step     : 0.001
Per MPI rank memory allocation (min/avg/max) = 11.29 | 11.29 | 11.29 Mbytes
Step Temp Press TotEng PotEng Enthalpy 
  250000    1400.1283     277.6805   -113192.03   -116748.49   -113110.59 
  250495    1371.2463    298.76289   -113404.11    -116887.2   -113316.56 
Loop time of 35.9972 on 2 procs for 495 steps with 19652 atoms

Performance: 1.188 ns/day, 20.200 hours/ns, 13.751 timesteps/s
98.5% CPU use with 2 MPI tasks x no OpenMP threads

MPI task timing breakdown:
Section |  min time  |  avg time  |  max time  |%varavg| %total
---------------------------------------------------------------
Pair    | 19.509     | 19.578     | 19.648     |   1.6 | 54.39
Neigh   | 14.83      | 14.879     | 14.929     |   1.3 | 41.34
Comm    | 0.98696    | 1.0063     | 1.0257     |   1.9 |  2.80
Output  | 8.893e-05  | 0.00019205 | 0.00029516 |   0.0 |  0.00
Modify  | 0.42203    | 0.42361    | 0.42519    |   0.2 |  1.18
Other   |            | 0.1093     |            |       |  0.30

Nlocal:    9826 ave 9839 max 9813 min
Histogram: 1 0 0 0 0 0 0 0 0 1
Nghost:    11149 ave 11154 max 11144 min
Histogram: 1 0 0 0 0 0 0 0 0 1
Neighs:    526906 ave 527380 max 526432 min
Histogram: 1 0 0 0 0 0 0 0 0 1

Total # of neighbors = 1053812
Ave neighs/atom = 53.6237
Neighbor list builds = 495
Dangerous builds not checked
Setting up Verlet run ...
  Unit style    : metal
  Current step  : 250495
  Time step     : 0.001
Per MPI rank memory allocation (min/avg/max) = 11.29 | 11.29 | 11.29 Mbytes
Step Temp Press TotEng PotEng Enthalpy 
  250495    1371.2463    298.76289   -113404.11    -116887.2   -113316.56 
  260000    1352.5402   -397.13875   -113510.52    -116946.1   -113626.96 
Loop time of 685.703 on 2 procs for 9505 steps with 19652 atoms

Performance: 1.198 ns/day, 20.039 hours/ns, 13.862 timesteps/s
98.1% CPU use with 2 MPI tasks x no OpenMP threads

MPI task timing breakdown:
Section |  min time  |  avg time  |  max time  |%varavg| %total
---------------------------------------------------------------
Pair    | 367.12     | 367.24     | 367.36     |   0.6 | 53.56
Neigh   | 285.47     | 285.53     | 285.58     |   0.3 | 41.64
Comm    | 22.61      | 22.831     | 23.053     |   4.6 |  3.33
Output  | 0.036073   | 0.036102   | 0.036131   |   0.0 |  0.01
Modify  | 7.9607     | 8.0032     | 8.0457     |   1.5 |  1.17
Other   |            | 2.068      |            |       |  0.30

Nlocal:    9826 ave 9838 max 9814 min
Histogram: 1 0 0 0 0 0 0 0 0 1
Nghost:    11120.5 ave 11121 max 11120 min
Histogram: 1 0 0 0 0 0 0 0 0 1
Neighs:    526743 ave 527597 max 525889 min
Histogram: 1 0 0 0 0 0 0 0 0 1

Total # of neighbors = 1053486
Ave neighs/atom = 53.6071
Neighbor list builds = 9505
Dangerous builds not checked
Setting up Verlet run ...
  Unit style    : metal
  Current step  : 260000
  Time step     : 0.001
Per MPI rank memory allocation (min/avg/max) = 11.29 | 11.29 | 11.29 Mbytes
Step Temp Press TotEng PotEng Enthalpy 
  260000    1352.5402   -397.13875   -113510.52    -116946.1   -113626.96 
  260495    1321.2593    335.15309   -113710.66   -117066.77   -113612.57 
Loop time of 34.5227 on 2 procs for 495 steps with 19652 atoms

Performance: 1.239 ns/day, 19.373 hours/ns, 14.338 timesteps/s
97.1% CPU use with 2 MPI tasks x no OpenMP threads

MPI task timing breakdown:
Section |  min time  |  avg time  |  max time  |%varavg| %total
---------------------------------------------------------------
Pair    | 18.862     | 19.026     | 19.19      |   3.8 | 55.11
Neigh   | 14.194     | 14.33      | 14.467     |   3.6 | 41.51
Comm    | 0.66196    | 0.6871     | 0.71225    |   3.0 |  1.99
Output  | 0.00010204 | 0.00011647 | 0.00013089 |   0.0 |  0.00
Modify  | 0.37383    | 0.37661    | 0.37938    |   0.5 |  1.09
Other   |            | 0.1025     |            |       |  0.30

Nlocal:    9826 ave 9828 max 9824 min
Histogram: 1 0 0 0 0 0 0 0 0 1
Nghost:    11152.5 ave 11161 max 11144 min
Histogram: 1 0 0 0 0 0 0 0 0 1
Neighs:    527838 ave 528297 max 527378 min
Histogram: 1 0 0 0 0 0 0 0 0 1

Total # of neighbors = 1055675
Ave neighs/atom = 53.7185
Neighbor list builds = 495
Dangerous builds not checked
Setting up Verlet run ...
  Unit style    : metal
  Current step  : 260495
  Time step     : 0.001
Per MPI rank memory allocation (min/avg/max) = 11.29 | 11.29 | 11.29 Mbytes
Step Temp Press TotEng PotEng Enthalpy 
  260495    1321.2593    335.15309   -113710.66   -117066.77   -113612.57 
  270000    1295.6938    796.30091   -113879.34   -117170.52   -113646.58 
Loop time of 702.563 on 2 procs for 9505 steps with 19652 atoms

Performance: 1.169 ns/day, 20.532 hours/ns, 13.529 timesteps/s
97.3% CPU use with 2 MPI tasks x no OpenMP threads

MPI task timing breakdown:
Section |  min time  |  avg time  |  max time  |%varavg| %total
---------------------------------------------------------------
Pair    | 371.07     | 372.66     | 374.25     |   8.2 | 53.04
Neigh   | 283.19     | 283.2      | 283.21     |   0.1 | 40.31
Comm    | 33.72      | 35.428     | 37.136     |  28.7 |  5.04
Output  | 0.037057   | 0.037069   | 0.037081   |   0.0 |  0.01
Modify  | 9.0591     | 9.1842     | 9.3094     |   4.1 |  1.31
Other   |            | 2.048      |            |       |  0.29

Nlocal:    9826 ave 9842 max 9810 min
Histogram: 1 0 0 0 0 0 0 0 0 1
Nghost:    11165.5 ave 11182 max 11149 min
Histogram: 1 0 0 0 0 0 0 0 0 1
Neighs:    528778 ave 530265 max 527290 min
Histogram: 1 0 0 0 0 0 0 0 0 1

Total # of neighbors = 1057555
Ave neighs/atom = 53.8141
Neighbor list builds = 9505
Dangerous builds not checked
Setting up Verlet run ...
  Unit style    : metal
  Current step  : 270000
  Time step     : 0.001
Per MPI rank memory allocation (min/avg/max) = 11.29 | 11.29 | 11.29 Mbytes
Step Temp Press TotEng PotEng Enthalpy 
  270000    1295.6938    796.30091   -113879.34   -117170.52   -113646.58 
  270495    1260.0852   -266.45511   -114092.81   -117293.54    -114170.7 
Loop time of 34.7331 on 2 procs for 495 steps with 19652 atoms

Performance: 1.231 ns/day, 19.491 hours/ns, 14.252 timesteps/s
99.0% CPU use with 2 MPI tasks x no OpenMP threads

MPI task timing breakdown:
Section |  min time  |  avg time  |  max time  |%varavg| %total
---------------------------------------------------------------
Pair    | 18.46      | 18.604     | 18.749     |   3.4 | 53.56
Neigh   | 14.4       | 14.414     | 14.428     |   0.4 | 41.50
Comm    | 1.0685     | 1.1989     | 1.3292     |  11.9 |  3.45
Output  | 8.4877e-05 | 9.4533e-05 | 0.00010419 |   0.0 |  0.00
Modify  | 0.41038    | 0.41178    | 0.41318    |   0.2 |  1.19
Other   |            | 0.1044     |            |       |  0.30

Nlocal:    9826 ave 9833 max 9819 min
Histogram: 1 0 0 0 0 0 0 0 0 1
Nghost:    11153.5 ave 11163 max 11144 min
Histogram: 1 0 0 0 0 0 0 0 0 1
Neighs:    528944 ave 529554 max 528335 min
Histogram: 1 0 0 0 0 0 0 0 0 1

Total # of neighbors = 1057889
Ave neighs/atom = 53.8311
Neighbor list builds = 495
Dangerous builds not checked
Setting up Verlet run ...
  Unit style    : metal
  Current step  : 270495
  Time step     : 0.001
Per MPI rank memory allocation (min/avg/max) = 11.29 | 11.29 | 11.29 Mbytes
Step Temp Press TotEng PotEng Enthalpy 
  270495    1260.0852   -266.45511   -114092.81   -117293.54    -114170.7 
  280000    1256.0583    1218.0591   -114169.32   -117359.82   -113814.19 
Loop time of 718.797 on 2 procs for 9505 steps with 19652 atoms

Performance: 1.143 ns/day, 21.006 hours/ns, 13.223 timesteps/s
96.7% CPU use with 2 MPI tasks x no OpenMP threads

MPI task timing breakdown:
Section |  min time  |  avg time  |  max time  |%varavg| %total
---------------------------------------------------------------
Pair    | 378.68     | 379.04     | 379.4      |   1.8 | 52.73
Neigh   | 284.35     | 284.66     | 284.97     |   1.8 | 39.60
Comm    | 42.949     | 43.018     | 43.088     |   1.1 |  5.98
Output  | 0.034448   | 0.03448    | 0.034512   |   0.0 |  0.00
Modify  | 9.9722     | 9.9837     | 9.9951     |   0.4 |  1.39
Other   |            | 2.063      |            |       |  0.29

Nlocal:    9826 ave 9830 max 9822 min
Histogram: 1 0 0 0 0 0 0 0 0 1
Nghost:    11175.5 ave 11181 max 11170 min
Histogram: 1 0 0 0 0 0 0 0 0 1
Neighs:    530598 ave 531371 max 529825 min
Histogram: 1 0 0 0 0 0 0 0 0 1

Total # of neighbors = 1061196
Ave neighs/atom = 53.9994
Neighbor list builds = 9505
Dangerous builds not checked
Setting up Verlet run ...
  Unit style    : metal
  Current step  : 280000
  Time step     : 0.001
Per MPI rank memory allocation (min/avg/max) = 11.29 | 11.29 | 11.29 Mbytes
Step Temp Press TotEng PotEng Enthalpy 
  280000    1256.0583    1218.0591   -114169.32   -117359.82   -113814.19 
  280495    1215.0489   -898.67661    -114386.3   -117472.63   -114648.92 
Loop time of 35.4603 on 2 procs for 495 steps with 19652 atoms

Performance: 1.206 ns/day, 19.899 hours/ns, 13.959 timesteps/s
99.8% CPU use with 2 MPI tasks x no OpenMP threads

MPI task timing breakdown:
Section |  min time  |  avg time  |  max time  |%varavg| %total
---------------------------------------------------------------
Pair    | 18.944     | 19.025     | 19.107     |   1.9 | 53.65
Neigh   | 14.564     | 14.976     | 15.388     |  10.6 | 42.23
Comm    | 0.58509    | 0.93084    | 1.2766     |  35.8 |  2.63
Output  | 9.5129e-05 | 0.00013757 | 0.00018001 |   0.0 |  0.00
Modify  | 0.40682    | 0.4217     | 0.43659    |   2.3 |  1.19
Other   |            | 0.1062     |            |       |  0.30

Nlocal:    9826 ave 9854 max 9798 min
Histogram: 1 0 0 0 0 0 0 0 0 1
Nghost:    11135.5 ave 11138 max 11133 min
Histogram: 1 0 0 0 0 0 0 0 0 1
Neighs:    529679 ave 531927 max 527431 min
Histogram: 1 0 0 0 0 0 0 0 0 1

Total # of neighbors = 1059358
Ave neighs/atom = 53.9059
Neighbor list builds = 495
Dangerous builds not checked
Setting up Verlet run ...
  Unit style    : metal
  Current step  : 280495
  Time step     : 0.001
Per MPI rank memory allocation (min/avg/max) = 11.29 | 11.29 | 11.29 Mbytes
Step Temp Press TotEng PotEng Enthalpy 
  280495    1215.0489   -898.67661    -114386.3   -117472.63   -114648.92 
  290000     1209.157    529.49761   -114542.23    -117613.6   -114387.93 
Loop time of 723.132 on 2 procs for 9505 steps with 19652 atoms

Performance: 1.136 ns/day, 21.133 hours/ns, 13.144 timesteps/s
98.8% CPU use with 2 MPI tasks x no OpenMP threads

MPI task timing breakdown:
Section |  min time  |  avg time  |  max time  |%varavg| %total
---------------------------------------------------------------
Pair    | 389.17     | 392.08     | 394.99     |  14.7 | 54.22
Neigh   | 293.7      | 294.12     | 294.55     |   2.5 | 40.67
Comm    | 23.478     | 25.999     | 28.52      |  49.4 |  3.60
Output  | 0.06637    | 0.0664     | 0.066431   |   0.0 |  0.01
Modify  | 8.6525     | 8.6751     | 8.6977     |   0.8 |  1.20
Other   |            | 2.185      |            |       |  0.30

Nlocal:    9826 ave 9839 max 9813 min
Histogram: 1 0 0 0 0 0 0 0 0 1
Nghost:    11144 ave 11160 max 11128 min
Histogram: 1 0 0 0 0 0 0 0 0 1
Neighs:    531155 ave 531428 max 530882 min
Histogram: 1 0 0 0 0 0 0 0 0 1

Total # of neighbors = 1062310
Ave neighs/atom = 54.0561
Neighbor list builds = 9505
Dangerous builds not checked
Setting up Verlet run ...
  Unit style    : metal
  Current step  : 290000
  Time step     : 0.001
Per MPI rank memory allocation (min/avg/max) = 11.29 | 11.29 | 11.29 Mbytes
Step Temp Press TotEng PotEng Enthalpy 
  290000     1209.157    529.49761   -114542.23    -117613.6   -114387.93 
  290495    1163.1721   -648.23791   -114732.87   -117687.43   -114921.92 
Loop time of 40.419 on 2 procs for 495 steps with 19652 atoms

Performance: 1.058 ns/day, 22.682 hours/ns, 12.247 timesteps/s
96.1% CPU use with 2 MPI tasks x no OpenMP threads

MPI task timing breakdown:
Section |  min time  |  avg time  |  max time  |%varavg| %total
---------------------------------------------------------------
Pair    | 21.839     | 21.951     | 22.063     |   2.4 | 54.31
Neigh   | 15.272     | 15.327     | 15.382     |   1.4 | 37.92
Comm    | 2.5143     | 2.5683     | 2.6223     |   3.4 |  6.35
Output  | 8.3923e-05 | 0.00012791 | 0.0001719  |   0.0 |  0.00
Modify  | 0.4506     | 0.45348    | 0.45636    |   0.4 |  1.12
Other   |            | 0.1191     |            |       |  0.29

Nlocal:    9826 ave 9829 max 9823 min
Histogram: 1 0 0 0 0 0 0 0 0 1
Nghost:    11176 ave 11198 max 11154 min
Histogram: 1 0 0 0 0 0 0 0 0 1
Neighs:    530792 ave 530984 max 530600 min
Histogram: 1 0 0 0 0 0 0 0 0 1

Total # of neighbors = 1061584
Ave neighs/atom = 54.0191
Neighbor list builds = 495
Dangerous builds not checked
Setting up Verlet run ...
  Unit style    : metal
  Current step  : 290495
  Time step     : 0.001
Per MPI rank memory allocation (min/avg/max) = 11.29 | 11.29 | 11.29 Mbytes
Step Temp Press TotEng PotEng Enthalpy 
  290495    1163.1721   -648.23791   -114732.87   -117687.43   -114921.92 
  300000    1152.4359     1296.395   -114958.52   -117885.81   -114581.86 
Loop time of 735.756 on 2 procs for 9505 steps with 19652 atoms

Performance: 1.116 ns/day, 21.502 hours/ns, 12.919 timesteps/s
97.6% CPU use with 2 MPI tasks x no OpenMP threads

MPI task timing breakdown:
Section |  min time  |  avg time  |  max time  |%varavg| %total
---------------------------------------------------------------
Pair    | 398.06     | 399.38     | 400.7      |   6.6 | 54.28
Neigh   | 292.91     | 293.74     | 294.57     |   4.8 | 39.92
Comm    | 29.772     | 31.654     | 33.537     |  33.5 |  4.30
Output  | 0.035862   | 0.03588    | 0.035898   |   0.0 |  0.00
Modify  | 8.4829     | 8.7433     | 9.0038     |   8.8 |  1.19
Other   |            | 2.206      |            |       |  0.30

Nlocal:    9826 ave 9827 max 9825 min
Histogram: 1 0 0 0 0 0 0 0 0 1
Nghost:    11194.5 ave 11213 max 11176 min
Histogram: 1 0 0 0 0 0 0 0 0 1
Neighs:    533588 ave 533780 max 533395 min
Histogram: 1 0 0 0 0 0 0 0 0 1

Total # of neighbors = 1067175
Ave neighs/atom = 54.3036
Neighbor list builds = 9505
Dangerous builds not checked
Setting up Verlet run ...
  Unit style    : metal
  Current step  : 300000
  Time step     : 0.001
Per MPI rank memory allocation (min/avg/max) = 11.29 | 11.3 | 11.3 Mbytes
Step Temp Press TotEng PotEng Enthalpy 
[...]
Nghost:    11286 ave 11310 max 11262 min
Histogram: 1 0 0 0 0 0 0 0 0 1
Neighs:    551170 ave 551712 max 550627 min
Histogram: 1 0 0 0 0 0 0 0 0 1

Total # of neighbors = 1102339
Ave neighs/atom = 56.093
Neighbor list builds = 9505
Dangerous builds not checked
Setting up Verlet run ...
  Unit style    : metal
  Current step  : 440000
  Time step     : 0.001
Per MPI rank memory allocation (min/avg/max) = 11.3 | 11.3 | 11.3 Mbytes
Step Temp Press TotEng PotEng Enthalpy 
  440000    448.69806    406.76476   -120113.83   -121253.56   -119997.99 
  440495    419.41772    -525.5266    -120274.3   -121339.66   -120424.02 
Loop time of 36.3091 on 2 procs for 495 steps with 19652 atoms

Performance: 1.178 ns/day, 20.375 hours/ns, 13.633 timesteps/s
96.8% CPU use with 2 MPI tasks x no OpenMP threads

MPI task timing breakdown:
Section |  min time  |  avg time  |  max time  |%varavg| %total
---------------------------------------------------------------
Pair    | 19.393     | 19.52      | 19.648     |   2.9 | 53.76
Neigh   | 14.602     | 14.625     | 14.648     |   0.6 | 40.28
Comm    | 1.5194     | 1.6264     | 1.7335     |   8.4 |  4.48
Output  | 9.0122e-05 | 0.00012457 | 0.00015903 |   0.0 |  0.00
Modify  | 0.42388    | 0.42606    | 0.42824    |   0.3 |  1.17
Other   |            | 0.1117     |            |       |  0.31

Nlocal:    9826 ave 9840 max 9812 min
Histogram: 1 0 0 0 0 0 0 0 0 1
Nghost:    11292 ave 11323 max 11261 min
Histogram: 1 0 0 0 0 0 0 0 0 1
Neighs:    551144 ave 552035 max 550254 min
Histogram: 1 0 0 0 0 0 0 0 0 1

Total # of neighbors = 1102289
Ave neighs/atom = 56.0904
Neighbor list builds = 495
Dangerous builds not checked
Setting up Verlet run ...
  Unit style    : metal
  Current step  : 440495
  Time step     : 0.001
Per MPI rank memory allocation (min/avg/max) = 11.3 | 11.3 | 11.3 Mbytes
Step Temp Press TotEng PotEng Enthalpy 
  440495    419.41772    -525.5266    -120274.3   -121339.66   -120424.02 
  450000    404.50351   -553.21609   -120383.14   -121410.62   -120540.69 
Loop time of 683.531 on 2 procs for 9505 steps with 19652 atoms

Performance: 1.201 ns/day, 19.976 hours/ns, 13.906 timesteps/s
98.7% CPU use with 2 MPI tasks x no OpenMP threads

MPI task timing breakdown:
Section |  min time  |  avg time  |  max time  |%varavg| %total
---------------------------------------------------------------
Pair    | 368.9      | 370.33     | 371.75     |   7.4 | 54.18
Neigh   | 277.17     | 277.81     | 278.46     |   3.9 | 40.64
Comm    | 22.856     | 24.958     | 27.06      |  42.1 |  3.65
Output  | 0.035849   | 0.03593    | 0.03601    |   0.0 |  0.01
Modify  | 8.2223     | 8.2462     | 8.2701     |   0.8 |  1.21
Other   |            | 2.15       |            |       |  0.31

Nlocal:    9826 ave 9829 max 9823 min
Histogram: 1 0 0 0 0 0 0 0 0 1
Nghost:    11293.5 ave 11303 max 11284 min
Histogram: 1 0 0 0 0 0 0 0 0 1
Neighs:    551308 ave 551553 max 551062 min
Histogram: 1 0 0 0 0 0 0 0 0 1

Total # of neighbors = 1102615
Ave neighs/atom = 56.107
Neighbor list builds = 9505
Dangerous builds not checked
Setting up Verlet run ...
  Unit style    : metal
  Current step  : 450000
  Time step     : 0.001
Per MPI rank memory allocation (min/avg/max) = 11.3 | 11.3 | 11.3 Mbytes
Step Temp Press TotEng PotEng Enthalpy 
  450000    404.50351   -553.21609   -120383.14   -121410.62   -120540.69 
  450495    371.64206    334.49256    -120539.9   -121483.91    -120444.8 
Loop time of 35.7099 on 2 procs for 495 steps with 19652 atoms

Performance: 1.198 ns/day, 20.039 hours/ns, 13.862 timesteps/s
99.6% CPU use with 2 MPI tasks x no OpenMP threads

MPI task timing breakdown:
Section |  min time  |  avg time  |  max time  |%varavg| %total
---------------------------------------------------------------
Pair    | 19.238     | 19.442     | 19.646     |   4.6 | 54.44
Neigh   | 14.479     | 14.554     | 14.63      |   2.0 | 40.76
Comm    | 0.88021    | 1.1613     | 1.4423     |  26.1 |  3.25
Output  | 7.9155e-05 | 0.00012612 | 0.00017309 |   0.0 |  0.00
Modify  | 0.43573    | 0.4376     | 0.43946    |   0.3 |  1.23
Other   |            | 0.1149     |            |       |  0.32

Nlocal:    9826 ave 9831 max 9821 min
Histogram: 1 0 0 0 0 0 0 0 0 1
Nghost:    11301 ave 11313 max 11289 min
Histogram: 1 0 0 0 0 0 0 0 0 1
Neighs:    552399 ave 552772 max 552026 min
Histogram: 1 0 0 0 0 0 0 0 0 1

Total # of neighbors = 1104798
Ave neighs/atom = 56.2181
Neighbor list builds = 495
Dangerous builds not checked
Setting up Verlet run ...
  Unit style    : metal
  Current step  : 450495
  Time step     : 0.001
Per MPI rank memory allocation (min/avg/max) = 11.3 | 11.3 | 11.3 Mbytes
Step Temp Press TotEng PotEng Enthalpy 
  450495    371.64206    334.49256    -120539.9   -121483.91    -120444.8 
  460000    348.55102   -1012.9086   -120669.28   -121554.63    -120957.6 
Loop time of 684.905 on 2 procs for 9505 steps with 19652 atoms

Performance: 1.199 ns/day, 20.016 hours/ns, 13.878 timesteps/s
98.8% CPU use with 2 MPI tasks x no OpenMP threads

MPI task timing breakdown:
Section |  min time  |  avg time  |  max time  |%varavg| %total
---------------------------------------------------------------
Pair    | 372        | 372.17     | 372.34     |   0.9 | 54.34
Neigh   | 277.18     | 278.83     | 280.48     |   9.9 | 40.71
Comm    | 21.719     | 23.571     | 25.422     |  38.1 |  3.44
Output  | 0.036828   | 0.036912   | 0.036996   |   0.0 |  0.01
Modify  | 8.1017     | 8.1393     | 8.1768     |   1.3 |  1.19
Other   |            | 2.159      |            |       |  0.32

Nlocal:    9826 ave 9836 max 9816 min
Histogram: 1 0 0 0 0 0 0 0 0 1
Nghost:    11295 ave 11343 max 11247 min
Histogram: 1 0 0 0 0 0 0 0 0 1
Neighs:    551672 ave 552080 max 551264 min
Histogram: 1 0 0 0 0 0 0 0 0 1

Total # of neighbors = 1103344
Ave neighs/atom = 56.1441
Neighbor list builds = 9505
Dangerous builds not checked
Setting up Verlet run ...
  Unit style    : metal
  Current step  : 460000
  Time step     : 0.001
Per MPI rank memory allocation (min/avg/max) = 11.3 | 11.3 | 11.3 Mbytes
Step Temp Press TotEng PotEng Enthalpy 
  460000    348.55102   -1012.9086   -120669.28   -121554.63    -120957.6 
  460495    322.97392   -220.40974   -120807.27   -121627.65   -120869.92 
Loop time of 35.4678 on 2 procs for 495 steps with 19652 atoms

Performance: 1.206 ns/day, 19.903 hours/ns, 13.956 timesteps/s
99.0% CPU use with 2 MPI tasks x no OpenMP threads

MPI task timing breakdown:
Section |  min time  |  avg time  |  max time  |%varavg| %total
---------------------------------------------------------------
Pair    | 19.329     | 19.431     | 19.532     |   2.3 | 54.78
Neigh   | 14.298     | 14.396     | 14.494     |   2.6 | 40.59
Comm    | 0.90697    | 1.1056     | 1.3042     |  18.9 |  3.12
Output  | 8.5115e-05 | 0.00017703 | 0.00026894 |   0.0 |  0.00
Modify  | 0.42181    | 0.42338    | 0.42495    |   0.2 |  1.19
Other   |            | 0.1122     |            |       |  0.32

Nlocal:    9826 ave 9840 max 9812 min
Histogram: 1 0 0 0 0 0 0 0 0 1
Nghost:    11294 ave 11313 max 11275 min
Histogram: 1 0 0 0 0 0 0 0 0 1
Neighs:    552333 ave 552865 max 551801 min
Histogram: 1 0 0 0 0 0 0 0 0 1

Total # of neighbors = 1104666
Ave neighs/atom = 56.2114
Neighbor list builds = 495
Dangerous builds not checked
Setting up Verlet run ...
  Unit style    : metal
  Current step  : 460495
  Time step     : 0.001
Per MPI rank memory allocation (min/avg/max) = 11.3 | 11.3 | 11.3 Mbytes
Step Temp Press TotEng PotEng Enthalpy 
  460495    322.97392   -220.40974   -120807.27   -121627.65   -120869.92 
  470000    297.23703   -388.15648   -120933.82   -121688.83   -121044.13 
Loop time of 686.198 on 2 procs for 9505 steps with 19652 atoms

Performance: 1.197 ns/day, 20.054 hours/ns, 13.852 timesteps/s
98.1% CPU use with 2 MPI tasks x no OpenMP threads

MPI task timing breakdown:
Section |  min time  |  avg time  |  max time  |%varavg| %total
---------------------------------------------------------------
Pair    | 372.94     | 373.71     | 374.47     |   3.9 | 54.46
Neigh   | 276.67     | 277.13     | 277.59     |   2.8 | 40.39
Comm    | 24.72      | 25.014     | 25.308     |   5.9 |  3.65
Output  | 0.036395   | 0.036476   | 0.036558   |   0.0 |  0.01
Modify  | 8.1603     | 8.1646     | 8.1689     |   0.2 |  1.19
Other   |            | 2.151      |            |       |  0.31

Nlocal:    9826 ave 9850 max 9802 min
Histogram: 1 0 0 0 0 0 0 0 0 1
Nghost:    11310.5 ave 11348 max 11273 min
Histogram: 1 0 0 0 0 0 0 0 0 1
Neighs:    552682 ave 554074 max 551291 min
Histogram: 1 0 0 0 0 0 0 0 0 1

Total # of neighbors = 1105365
Ave neighs/atom = 56.2469
Neighbor list builds = 9505
Dangerous builds not checked
Setting up Verlet run ...
  Unit style    : metal
  Current step  : 470000
  Time step     : 0.001
Per MPI rank memory allocation (min/avg/max) = 11.3 | 11.3 | 11.3 Mbytes
Step Temp Press TotEng PotEng Enthalpy 
  470000    297.23703   -388.15648   -120933.82   -121688.83   -121044.13 
  470495     272.2676   -318.99608   -121070.32    -121761.9   -121160.92 
Loop time of 35.9 on 2 procs for 495 steps with 19652 atoms

Performance: 1.191 ns/day, 20.146 hours/ns, 13.788 timesteps/s
96.9% CPU use with 2 MPI tasks x no OpenMP threads

MPI task timing breakdown:
Section |  min time  |  avg time  |  max time  |%varavg| %total
---------------------------------------------------------------
Pair    | 19.871     | 19.968     | 20.065     |   2.2 | 55.62
Neigh   | 14.308     | 14.369     | 14.429     |   1.6 | 40.02
Comm    | 0.87096    | 1.0318     | 1.1927     |  15.8 |  2.87
Output  | 8.893e-05  | 0.00013149 | 0.00017405 |   0.0 |  0.00
Modify  | 0.4181     | 0.42164    | 0.42518    |   0.5 |  1.17
Other   |            | 0.1096     |            |       |  0.31

Nlocal:    9826 ave 9832 max 9820 min
Histogram: 1 0 0 0 0 0 0 0 0 1
Nghost:    11305 ave 11338 max 11272 min
Histogram: 1 0 0 0 0 0 0 0 0 1
Neighs:    552644 ave 552880 max 552408 min
Histogram: 1 0 0 0 0 0 0 0 0 1

Total # of neighbors = 1105288
Ave neighs/atom = 56.243
Neighbor list builds = 495
Dangerous builds not checked
Setting up Verlet run ...
  Unit style    : metal
  Current step  : 470495
  Time step     : 0.001
Per MPI rank memory allocation (min/avg/max) = 11.3 | 11.3 | 11.3 Mbytes
Step Temp Press TotEng PotEng Enthalpy 
  470495     272.2676   -318.99608   -121070.32    -121761.9   -121160.92 
  480000    252.74083    487.50856    -121188.2   -121830.19   -121049.92 
Loop time of 684.78 on 2 procs for 9505 steps with 19652 atoms

Performance: 1.199 ns/day, 20.012 hours/ns, 13.880 timesteps/s
98.2% CPU use with 2 MPI tasks x no OpenMP threads

MPI task timing breakdown:
Section |  min time  |  avg time  |  max time  |%varavg| %total
---------------------------------------------------------------
Pair    | 371.42     | 373.15     | 374.89     |   9.0 | 54.49
Neigh   | 276.1      | 276.14     | 276.18     |   0.2 | 40.33
Comm    | 23.303     | 25.052     | 26.802     |  35.0 |  3.66
Output  | 0.035758   | 0.035774   | 0.03579    |   0.0 |  0.01
Modify  | 8.2128     | 8.2552     | 8.2975     |   1.5 |  1.21
Other   |            | 2.144      |            |       |  0.31

Nlocal:    9826 ave 9840 max 9812 min
Histogram: 1 0 0 0 0 0 0 0 0 1
Nghost:    11307 ave 11337 max 11277 min
Histogram: 1 0 0 0 0 0 0 0 0 1
Neighs:    553663 ave 554376 max 552950 min
Histogram: 1 0 0 0 0 0 0 0 0 1

Total # of neighbors = 1107326
Ave neighs/atom = 56.3467
Neighbor list builds = 9505
Dangerous builds not checked
Setting up Verlet run ...
  Unit style    : metal
  Current step  : 480000
  Time step     : 0.001
Per MPI rank memory allocation (min/avg/max) = 11.3 | 11.3 | 11.3 Mbytes
Step Temp Press TotEng PotEng Enthalpy 
  480000    252.74083    487.50856    -121188.2   -121830.19   -121049.92 
  480495    224.37718   -229.19217   -121328.64   -121898.58   -121393.67 
Loop time of 35.5336 on 2 procs for 495 steps with 19652 atoms

Performance: 1.204 ns/day, 19.940 hours/ns, 13.930 timesteps/s
98.7% CPU use with 2 MPI tasks x no OpenMP threads

MPI task timing breakdown:
Section |  min time  |  avg time  |  max time  |%varavg| %total
---------------------------------------------------------------
Pair    | 19.237     | 19.349     | 19.461     |   2.5 | 54.45
Neigh   | 14.317     | 14.328     | 14.338     |   0.3 | 40.32
Comm    | 1.1933     | 1.316      | 1.4386     |  10.7 |  3.70
Output  | 8.8215e-05 | 0.00012362 | 0.00015903 |   0.0 |  0.00
Modify  | 0.42471    | 0.4253     | 0.42589    |   0.1 |  1.20
Other   |            | 0.1155     |            |       |  0.32

Nlocal:    9826 ave 9845 max 9807 min
Histogram: 1 0 0 0 0 0 0 0 0 1
Nghost:    11318.5 ave 11350 max 11287 min
Histogram: 1 0 0 0 0 0 0 0 0 1
Neighs:    553398 ave 554604 max 552193 min
Histogram: 1 0 0 0 0 0 0 0 0 1

Total # of neighbors = 1106797
Ave neighs/atom = 56.3198
Neighbor list builds = 495
Dangerous builds not checked
Setting up Verlet run ...
  Unit style    : metal
  Current step  : 480495
  Time step     : 0.001
Per MPI rank memory allocation (min/avg/max) = 11.3 | 11.3 | 11.3 Mbytes
Step Temp Press TotEng PotEng Enthalpy 
  480495    224.37718   -229.19217   -121328.64   -121898.58   -121393.67 
  490000    199.87295    429.68982   -121455.33   -121963.03   -121333.56 
Loop time of 683.222 on 2 procs for 9505 steps with 19652 atoms

Performance: 1.202 ns/day, 19.967 hours/ns, 13.912 timesteps/s
97.8% CPU use with 2 MPI tasks x no OpenMP threads

MPI task timing breakdown:
Section |  min time  |  avg time  |  max time  |%varavg| %total
---------------------------------------------------------------
Pair    | 372.23     | 373.51     | 374.79     |   6.6 | 54.67
Neigh   | 275.91     | 275.94     | 275.98     |   0.2 | 40.39
Comm    | 22.122     | 23.449     | 24.776     |  27.4 |  3.43
Output  | 0.036935   | 0.037008   | 0.037081   |   0.0 |  0.01
Modify  | 8.1257     | 8.1272     | 8.1287     |   0.1 |  1.19
Other   |            | 2.156      |            |       |  0.32

Nlocal:    9826 ave 9845 max 9807 min
Histogram: 1 0 0 0 0 0 0 0 0 1
Nghost:    11297.5 ave 11329 max 11266 min
Histogram: 1 0 0 0 0 0 0 0 0 1
Neighs:    554285 ave 555227 max 553343 min
Histogram: 1 0 0 0 0 0 0 0 0 1

Total # of neighbors = 1108570
Ave neighs/atom = 56.41
Neighbor list builds = 9505
Dangerous builds not checked
Setting up Verlet run ...
  Unit style    : metal
  Current step  : 490000
  Time step     : 0.001
Per MPI rank memory allocation (min/avg/max) = 11.3 | 11.3 | 11.3 Mbytes
Step Temp Press TotEng PotEng Enthalpy 
  490000    199.87295    429.68982   -121455.33   -121963.03   -121333.56 
  490495    174.58527   -102.98836   -121582.63    -122026.1   -121611.82 
Loop time of 35.2995 on 2 procs for 495 steps with 19652 atoms

Performance: 1.212 ns/day, 19.809 hours/ns, 14.023 timesteps/s
98.3% CPU use with 2 MPI tasks x no OpenMP threads

MPI task timing breakdown:
Section |  min time  |  avg time  |  max time  |%varavg| %total
---------------------------------------------------------------
Pair    | 19.338     | 19.43      | 19.522     |   2.1 | 55.04
Neigh   | 14.187     | 14.191     | 14.195     |   0.1 | 40.20
Comm    | 1.0484     | 1.144      | 1.2395     |   8.9 |  3.24
Output  | 0.00013113 | 0.00016201 | 0.00019288 |   0.0 |  0.00
Modify  | 0.42239    | 0.4227     | 0.42302    |   0.0 |  1.20
Other   |            | 0.1119     |            |       |  0.32

Nlocal:    9826 ave 9839 max 9813 min
Histogram: 1 0 0 0 0 0 0 0 0 1
Nghost:    11313.5 ave 11340 max 11287 min
Histogram: 1 0 0 0 0 0 0 0 0 1
Neighs:    554132 ave 554671 max 553592 min
Histogram: 1 0 0 0 0 0 0 0 0 1

Total # of neighbors = 1108263
Ave neighs/atom = 56.3944
Neighbor list builds = 495
Dangerous builds not checked
Setting up Verlet run ...
  Unit style    : metal
  Current step  : 490495
  Time step     : 0.001
Per MPI rank memory allocation (min/avg/max) = 11.3 | 11.3 | 11.3 Mbytes
Step Temp Press TotEng PotEng Enthalpy 
  490495    174.58527   -102.98836   -121582.63    -122026.1   -121611.82 
  500000    150.74643     409.6633   -121715.24   -122098.15   -121599.23 
Loop time of 676.247 on 2 procs for 9505 steps with 19652 atoms

Performance: 1.214 ns/day, 19.763 hours/ns, 14.056 timesteps/s
98.5% CPU use with 2 MPI tasks x no OpenMP threads

MPI task timing breakdown:
Section |  min time  |  avg time  |  max time  |%varavg| %total
---------------------------------------------------------------
Pair    | 368.82     | 369.07     | 369.32     |   1.3 | 54.58
Neigh   | 274.91     | 275.21     | 275.51     |   1.8 | 40.70
Comm    | 21.566     | 21.641     | 21.716     |   1.6 |  3.20
Output  | 0.037224   | 0.037256   | 0.037288   |   0.0 |  0.01
Modify  | 8.1197     | 8.1429     | 8.166      |   0.8 |  1.20
Other   |            | 2.142      |            |       |  0.32

Nlocal:    9826 ave 9833 max 9819 min
Histogram: 1 0 0 0 0 0 0 0 0 1
Nghost:    11300.5 ave 11322 max 11279 min
Histogram: 1 0 0 0 0 0 0 0 0 1
Neighs:    554761 ave 554937 max 554585 min
Histogram: 1 0 0 0 0 0 0 0 0 1

Total # of neighbors = 1109522
Ave neighs/atom = 56.4585
Neighbor list builds = 9505
Dangerous builds not checked
Setting up Verlet run ...
  Unit style    : metal
  Current step  : 500000
  Time step     : 0.001
Per MPI rank memory allocation (min/avg/max) = 11.3 | 11.3 | 11.3 Mbytes
Step Temp Press TotEng PotEng Enthalpy 
  500000    150.74643     409.6633   -121715.24   -122098.15   -121599.23 
  500495    126.06251   -72.499037   -121835.65   -122155.86   -121856.18 
Loop time of 34.6283 on 2 procs for 495 steps with 19652 atoms

Performance: 1.235 ns/day, 19.432 hours/ns, 14.295 timesteps/s
99.2% CPU use with 2 MPI tasks x no OpenMP threads

MPI task timing breakdown:
Section |  min time  |  avg time  |  max time  |%varavg| %total
---------------------------------------------------------------
Pair    | 18.917     | 18.935     | 18.953     |   0.4 | 54.68
Neigh   | 14.212     | 14.244     | 14.276     |   0.8 | 41.13
Comm    | 0.9026     | 0.91784    | 0.93309    |   1.6 |  2.65
Output  | 8.2016e-05 | 0.00018358 | 0.00028515 |   0.0 |  0.00
Modify  | 0.41805    | 0.41959    | 0.42114    |   0.2 |  1.21
Other   |            | 0.1119     |            |       |  0.32

Nlocal:    9826 ave 9838 max 9814 min
Histogram: 1 0 0 0 0 0 0 0 0 1
Nghost:    11311.5 ave 11340 max 11283 min
Histogram: 1 0 0 0 0 0 0 0 0 1
Neighs:    554608 ave 555087 max 554128 min
Histogram: 1 0 0 0 0 0 0 0 0 1

Total # of neighbors = 1109215
Ave neighs/atom = 56.4429
Neighbor list builds = 495
Dangerous builds not checked
Setting up Verlet run ...
  Unit style    : metal
  Current step  : 500495
  Time step     : 0.001
Per MPI rank memory allocation (min/avg/max) = 11.3 | 11.3 | 11.3 Mbytes
Step Temp Press TotEng PotEng Enthalpy 
  500495    126.06251   -72.499037   -121835.65   -122155.86   -121856.18 
  510000    99.693869    98.129239    -121974.1   -122227.33   -121946.32 
Loop time of 679.672 on 2 procs for 9505 steps with 19652 atoms

Performance: 1.208 ns/day, 19.863 hours/ns, 13.985 timesteps/s
97.2% CPU use with 2 MPI tasks x no OpenMP threads

MPI task timing breakdown:
Section |  min time  |  avg time  |  max time  |%varavg| %total
---------------------------------------------------------------
Pair    | 361.77     | 362.2      | 362.62     |   2.2 | 53.29
Neigh   | 270.26     | 270.33     | 270.41     |   0.4 | 39.77
Comm    | 34.606     | 34.954     | 35.302     |   5.9 |  5.14
Output  | 0.033605   | 0.033622   | 0.033638   |   0.0 |  0.00
Modify  | 10.056     | 10.059     | 10.061     |   0.1 |  1.48
Other   |            | 2.093      |            |       |  0.31

Nlocal:    9826 ave 9834 max 9818 min
Histogram: 1 0 0 0 0 0 0 0 0 1
Nghost:    11304 ave 11338 max 11270 min
Histogram: 1 0 0 0 0 0 0 0 0 1
Neighs:    554944 ave 555131 max 554757 min
Histogram: 1 0 0 0 0 0 0 0 0 1

Total # of neighbors = 1109888
Ave neighs/atom = 56.4771
Neighbor list builds = 9505
Dangerous builds not checked
Total wall time: 11:01:22
