LAMMPS (12 Dec 2018)
Lattice spacing in x,y,z = 4 4 4
Created orthogonal box = (0 0 0) to (68 68 68)
  1 by 1 by 1 MPI processor grid
Created 19652 atoms
  Time spent = 0.00398684 secs
Setting atom values ...
  19652 settings made for type/fraction
Neighbor list info ...
  update every 1 steps, delay 0 steps, check no
  max neighbors/atom: 2000, page size: 100000
  master list distance cutoff = 8.5
  ghost atom cutoff = 8.5
  binsize = 4.25, bins = 16 16 16
  1 neighbor lists, perpetual/occasional/extra = 1 0 0
  (1) pair eam/alloy, perpetual
      attributes: half, newton on
      pair build: half/bin/atomonly/newton
      stencil: half/bin/3d/newton
      bin: standard
Setting up Verlet run ...
  Unit style    : metal
  Current step  : 0
  Time step     : 0.001
Per MPI rank memory allocation (min/avg/max) = 18.19 | 18.19 | 18.19 Mbytes
Step Temp Press TotEng PotEng Enthalpy Volume 
       0          300   -61779.302   -76290.537   -77052.565   -88414.913       314432 
    1000    2098.2282    116696.63   -76291.695   -81621.385   -53389.628       314432 
Loop time of 176.604 on 1 procs for 1000 steps with 19652 atoms

Performance: 0.489 ns/day, 49.057 hours/ns, 5.662 timesteps/s
96.5% CPU use with 1 MPI tasks x no OpenMP threads

MPI task timing breakdown:
Section |  min time  |  avg time  |  max time  |%varavg| %total
---------------------------------------------------------------
Pair    | 97.675     | 97.675     | 97.675     |   0.0 | 55.31
Neigh   | 76.864     | 76.864     | 76.864     |   0.0 | 43.52
Comm    | 1.2252     | 1.2252     | 1.2252     |   0.0 |  0.69
Output  | 0.078652   | 0.078652   | 0.078652   |   0.0 |  0.04
Modify  | 0.39016    | 0.39016    | 0.39016    |   0.0 |  0.22
Other   |            | 0.3707     |            |       |  0.21

Nlocal:    19652 ave 19652 max 19652 min
Histogram: 1 0 0 0 0 0 0 0 0 0
Nghost:    18729 ave 18729 max 18729 min
Histogram: 1 0 0 0 0 0 0 0 0 0
Neighs:    1.56948e+06 ave 1.56948e+06 max 1.56948e+06 min
Histogram: 1 0 0 0 0 0 0 0 0 0

Total # of neighbors = 1569480
Ave neighs/atom = 79.8636
Neighbor list builds = 1000
Dangerous builds not checked
Setting up Verlet run ...
  Unit style    : metal
  Current step  : 1000
  Time step     : 0.001
Per MPI rank memory allocation (min/avg/max) = 18.19 | 18.19 | 18.19 Mbytes
Step Temp Press TotEng PotEng Enthalpy Volume 
    1000    2098.2282    116696.63   -76291.695   -81621.385   -53389.628       314432 
    2000    340.84041    71.329639   -86584.976   -87450.742   -86568.701    365552.67 
Loop time of 158.563 on 1 procs for 1000 steps with 19652 atoms

Performance: 0.545 ns/day, 44.045 hours/ns, 6.307 timesteps/s
96.5% CPU use with 1 MPI tasks x no OpenMP threads

MPI task timing breakdown:
Section |  min time  |  avg time  |  max time  |%varavg| %total
---------------------------------------------------------------
Pair    | 83.064     | 83.064     | 83.064     |   0.0 | 52.39
Neigh   | 72.314     | 72.314     | 72.314     |   0.0 | 45.61
Comm    | 1.0883     | 1.0883     | 1.0883     |   0.0 |  0.69
Output  | 0.28232    | 0.28232    | 0.28232    |   0.0 |  0.18
Modify  | 1.4226     | 1.4226     | 1.4226     |   0.0 |  0.90
Other   |            | 0.3915     |            |       |  0.25

Nlocal:    19652 ave 19652 max 19652 min
Histogram: 1 0 0 0 0 0 0 0 0 0
Nghost:    17595 ave 17595 max 17595 min
Histogram: 1 0 0 0 0 0 0 0 0 0
Neighs:    1.35176e+06 ave 1.35176e+06 max 1.35176e+06 min
Histogram: 1 0 0 0 0 0 0 0 0 0

Total # of neighbors = 1351760
Ave neighs/atom = 68.7849
Neighbor list builds = 1000
Dangerous builds not checked
Setting up Verlet run ...
  Unit style    : metal
  Current step  : 2000
  Time step     : 0.001
Per MPI rank memory allocation (min/avg/max) = 18.19 | 18.19 | 18.19 Mbytes
Step Temp Press TotEng PotEng Enthalpy Volume 
    2000    340.84041    71.329639   -86584.976   -87450.742   -86568.701    365552.67 
    3000      486.871   -399.96528   -86024.072   -87260.769   -86116.059    368478.43 
    4000    763.05202    768.91051   -84281.354   -86219.575   -84103.117    371390.76 
    5000    1070.9489    91.433788   -82041.048   -84761.355   -82019.676    374494.66 
    6000    1362.6627    631.59966   -80316.987   -83778.275   -80168.588    376445.36 
    7000    1649.6055      596.695   -78954.861   -83145.009   -78813.314     380064.8 
    8000    1893.0227    -770.6522   -77700.174   -82508.624   -77885.134    384528.26 
    9000    2177.0237     697.0502   -76460.232   -81990.071   -76291.597     387609.2 
   10000    2449.6882   -104.57571   -75261.838   -81484.269   -75287.437    392192.89 
Loop time of 1227.71 on 1 procs for 8000 steps with 19652 atoms

Performance: 0.563 ns/day, 42.629 hours/ns, 6.516 timesteps/s
96.9% CPU use with 1 MPI tasks x no OpenMP threads

MPI task timing breakdown:
Section |  min time  |  avg time  |  max time  |%varavg| %total
---------------------------------------------------------------
Pair    | 647.2      | 647.2      | 647.2      |   0.0 | 52.72
Neigh   | 555.94     | 555.94     | 555.94     |   0.0 | 45.28
Comm    | 9.0262     | 9.0262     | 9.0262     |   0.0 |  0.74
Output  | 1.0799     | 1.0799     | 1.0799     |   0.0 |  0.09
Modify  | 11.339     | 11.339     | 11.339     |   0.0 |  0.92
Other   |            | 3.13       |            |       |  0.25

Nlocal:    19652 ave 19652 max 19652 min
Histogram: 1 0 0 0 0 0 0 0 0 0
Nghost:    17066 ave 17066 max 17066 min
Histogram: 1 0 0 0 0 0 0 0 0 0
Neighs:    1.25886e+06 ave 1.25886e+06 max 1.25886e+06 min
Histogram: 1 0 0 0 0 0 0 0 0 0

Total # of neighbors = 1258858
Ave neighs/atom = 64.0575
Neighbor list builds = 8000
Dangerous builds not checked
Setting up Verlet run ...
  Unit style    : metal
  Current step  : 10000
  Time step     : 0.001
Per MPI rank memory allocation (min/avg/max) = 18.2 | 18.2 | 18.2 Mbytes
Step Temp Press TotEng PotEng Enthalpy Volume 
   10000    2449.6882   -104.57571   -75261.838   -81484.269   -75287.437    392192.89 
   11000     2438.979      666.156   -75287.721    -81482.95   -75124.559    392423.32 
   12000    2439.3019   -1164.6591    -75182.97   -81379.019   -75469.651    394375.24 
   13000     2441.436    771.85538   -75318.528   -81519.998   -75129.546    392278.04 
   14000     2440.254   -456.22463   -75281.158   -81479.626   -75392.909    392447.93 
   15000    2471.4043    222.11319    -75171.55   -81449.141   -75117.008    393424.84 
   16000    2455.0896   -108.26443    -75285.15   -81521.302   -75311.678    392578.79 
   17000     2439.606    -1487.122    -75199.39   -81396.212   -75565.268    394184.86 
   18000    2458.6644    228.36508   -75237.324   -81482.555   -75181.316    392941.97 
   19000    2495.7119    1539.9426   -75160.193   -81499.529   -74784.488     390889.1 
   20000    2452.0476   -570.80651   -75252.218   -81480.643   -75392.232    392999.67 
   21000    2456.0515   -945.56739   -75174.997   -81413.592   -75407.494    393944.09 
   22000    2432.3302    993.90228    -75273.15   -81451.491   -75029.988    391978.14 
   23000    2451.9696   -920.54636   -75267.234   -81495.461   -75493.483       393777 
   24000    2431.4659   -715.72611   -75285.831   -81461.976   -75461.786    393880.35 
   25000    2454.0549    637.08423   -75290.858   -81524.381    -75135.02    391910.05 
   26000    2438.5253   -517.47612   -75265.801   -81459.877   -75392.741    393025.45 
   27000    2442.4804   -25.355412   -75235.798   -81439.921   -75242.023    393333.75 
   28000    2446.6104    -431.7892   -75284.026   -81498.639   -75389.851    392671.29 
   29000    2440.9575    1345.3215   -75319.587   -81519.841   -74990.611     391785.3 
   30000    2452.2582   -505.07577   -75264.787   -81493.747   -75388.611    392786.39 
   31000    2448.3785    -547.3981   -75241.643   -81460.748   -75376.056    393412.68 
   32000    2428.3882   -807.02628   -75261.444   -81429.772   -75459.662    393518.85 
   33000    2456.8969    454.10778   -75235.002   -81475.744    -75123.77    392447.99 
   34000    2462.8444    1207.3912   -75201.231    -81457.08   -74905.644     392235.4 
   35000    2432.9093   -342.99108   -75230.115   -81409.926    -75314.45    393943.07 
   36000    2463.7586    203.25664   -75225.354   -81483.525   -75175.538    392671.94 
   37000    2430.9859   -1053.6979   -75339.043   -81513.969   -75596.798    391923.05 
   38000    2439.1007   -1156.8414   -75240.922    -81436.46   -75525.128    393613.19 
   39000    2459.6622   -634.98434   -75187.291   -81435.058   -75343.189    393357.32 
   40000    2428.0668    125.67452   -75327.305   -81494.815   -75296.548    392099.25 
Loop time of 4552.85 on 1 procs for 30000 steps with 19652 atoms

Performance: 0.569 ns/day, 42.156 hours/ns, 6.589 timesteps/s
98.0% CPU use with 1 MPI tasks x no OpenMP threads

MPI task timing breakdown:
Section |  min time  |  avg time  |  max time  |%varavg| %total
---------------------------------------------------------------
Pair    | 2425.1     | 2425.1     | 2425.1     |   0.0 | 53.26
Neigh   | 2032.3     | 2032.3     | 2032.3     |   0.0 | 44.64
Comm    | 34.487     | 34.487     | 34.487     |   0.0 |  0.76
Output  | 7.4921     | 7.4921     | 7.4921     |   0.0 |  0.16
Modify  | 41.73      | 41.73      | 41.73      |   0.0 |  0.92
Other   |            | 11.75      |            |       |  0.26

Nlocal:    19652 ave 19652 max 19652 min
Histogram: 1 0 0 0 0 0 0 0 0 0
Nghost:    17112 ave 17112 max 17112 min
Histogram: 1 0 0 0 0 0 0 0 0 0
Neighs:    1.25929e+06 ave 1.25929e+06 max 1.25929e+06 min
Histogram: 1 0 0 0 0 0 0 0 0 0

Total # of neighbors = 1259291
Ave neighs/atom = 64.0795
Neighbor list builds = 30000
Dangerous builds not checked
Setting up Verlet run ...
  Unit style    : metal
  Current step  : 40000
  Time step     : 0.001
Per MPI rank memory allocation (min/avg/max) = 18.2 | 18.2 | 18.2 Mbytes
Step Temp Press TotEng PotEng Enthalpy Volume 
   40000    2428.0668    125.67452   -75327.305   -81494.815   -75296.548    392099.25 
   40495    2422.7315    99.945368    -75393.48   -81547.439   -75369.003    392380.04 
Loop time of 67.4954 on 1 procs for 495 steps with 19652 atoms

Performance: 0.634 ns/day, 37.876 hours/ns, 7.334 timesteps/s
99.2% CPU use with 1 MPI tasks x no OpenMP threads

MPI task timing breakdown:
Section |  min time  |  avg time  |  max time  |%varavg| %total
---------------------------------------------------------------
Pair    | 35.798     | 35.798     | 35.798     |   0.0 | 53.04
Neigh   | 30.361     | 30.361     | 30.361     |   0.0 | 44.98
Comm    | 0.50328    | 0.50328    | 0.50328    |   0.0 |  0.75
Output  | 0.00014496 | 0.00014496 | 0.00014496 |   0.0 |  0.00
Modify  | 0.64902    | 0.64902    | 0.64902    |   0.0 |  0.96
Other   |            | 0.1838     |            |       |  0.27

Nlocal:    19652 ave 19652 max 19652 min
Histogram: 1 0 0 0 0 0 0 0 0 0
Nghost:    17192 ave 17192 max 17192 min
Histogram: 1 0 0 0 0 0 0 0 0 0
Neighs:    1.25813e+06 ave 1.25813e+06 max 1.25813e+06 min
Histogram: 1 0 0 0 0 0 0 0 0 0

Total # of neighbors = 1258129
Ave neighs/atom = 64.0204
Neighbor list builds = 495
Dangerous builds not checked
Setting up Verlet run ...
  Unit style    : metal
  Current step  : 40495
  Time step     : 0.001
Per MPI rank memory allocation (min/avg/max) = 18.2 | 18.2 | 18.2 Mbytes
Step Temp Press TotEng PotEng Enthalpy Volume 
   40495    2422.7315    99.945368    -75393.48   -81547.439   -75369.003    392380.04 
   41000    2425.2713   -36.734284    -75336.73    -81497.14   -75345.721    392121.72 
Loop time of 71.1404 on 1 procs for 505 steps with 19652 atoms

Performance: 0.613 ns/day, 39.131 hours/ns, 7.099 timesteps/s
98.6% CPU use with 1 MPI tasks x no OpenMP threads

MPI task timing breakdown:
Section |  min time  |  avg time  |  max time  |%varavg| %total
---------------------------------------------------------------
Pair    | 37.767     | 37.767     | 37.767     |   0.0 | 53.09
Neigh   | 31.64      | 31.64      | 31.64      |   0.0 | 44.48
Comm    | 0.5264     | 0.5264     | 0.5264     |   0.0 |  0.74
Output  | 0.35212    | 0.35212    | 0.35212    |   0.0 |  0.49
Modify  | 0.6701     | 0.6701     | 0.6701     |   0.0 |  0.94
Other   |            | 0.1843     |            |       |  0.26

Nlocal:    19652 ave 19652 max 19652 min
Histogram: 1 0 0 0 0 0 0 0 0 0
Nghost:    17173 ave 17173 max 17173 min
Histogram: 1 0 0 0 0 0 0 0 0 0
Neighs:    1.259e+06 ave 1.259e+06 max 1.259e+06 min
Histogram: 1 0 0 0 0 0 0 0 0 0

Total # of neighbors = 1259004
Ave neighs/atom = 64.0649
Neighbor list builds = 505
Dangerous builds not checked
Setting up Verlet run ...
  Unit style    : metal
  Current step  : 41000
  Time step     : 0.001
Per MPI rank memory allocation (min/avg/max) = 18.2 | 18.2 | 18.2 Mbytes
Step Temp Press TotEng PotEng Enthalpy Volume 
   41000    2425.2713   -36.734284    -75336.73    -81497.14   -75345.721    392121.72 
   41495    2362.7045     447.2545   -75655.675    -81657.16   -75546.597    390744.88 
Loop time of 72.1228 on 1 procs for 495 steps with 19652 atoms

Performance: 0.593 ns/day, 40.473 hours/ns, 6.863 timesteps/s
97.9% CPU use with 1 MPI tasks x no OpenMP threads

MPI task timing breakdown:
Section |  min time  |  avg time  |  max time  |%varavg| %total
---------------------------------------------------------------
Pair    | 38.722     | 38.722     | 38.722     |   0.0 | 53.69
Neigh   | 31.973     | 31.973     | 31.973     |   0.0 | 44.33
Comm    | 0.54219    | 0.54219    | 0.54219    |   0.0 |  0.75
Output  | 0.00013304 | 0.00013304 | 0.00013304 |   0.0 |  0.00
Modify  | 0.70008    | 0.70008    | 0.70008    |   0.0 |  0.97
Other   |            | 0.1853     |            |       |  0.26

Nlocal:    19652 ave 19652 max 19652 min
Histogram: 1 0 0 0 0 0 0 0 0 0
Nghost:    16973 ave 16973 max 16973 min
Histogram: 1 0 0 0 0 0 0 0 0 0
Neighs:    1.26343e+06 ave 1.26343e+06 max 1.26343e+06 min
Histogram: 1 0 0 0 0 0 0 0 0 0

Total # of neighbors = 1263427
Ave neighs/atom = 64.29
Neighbor list builds = 495
Dangerous builds not checked
Setting up Verlet run ...
  Unit style    : metal
  Current step  : 41495
  Time step     : 0.001
Per MPI rank memory allocation (min/avg/max) = 18.2 | 18.2 | 18.2 Mbytes
Step Temp Press TotEng PotEng Enthalpy Volume 
   41495    2362.7045     447.2545   -75655.675    -81657.16   -75546.597    390744.88 
   42000     2354.855   -187.15344   -75692.812   -81674.358   -75738.503    391148.44 
Loop time of 64.4408 on 1 procs for 505 steps with 19652 atoms

Performance: 0.677 ns/day, 35.446 hours/ns, 7.837 timesteps/s
99.5% CPU use with 1 MPI tasks x no OpenMP threads

MPI task timing breakdown:
Section |  min time  |  avg time  |  max time  |%varavg| %total
---------------------------------------------------------------
Pair    | 33.962     | 33.962     | 33.962     |   0.0 | 52.70
Neigh   | 29.04      | 29.04      | 29.04      |   0.0 | 45.06
Comm    | 0.48331    | 0.48331    | 0.48331    |   0.0 |  0.75
Output  | 0.18958    | 0.18958    | 0.18958    |   0.0 |  0.29
Modify  | 0.60531    | 0.60531    | 0.60531    |   0.0 |  0.94
Other   |            | 0.1603     |            |       |  0.25

Nlocal:    19652 ave 19652 max 19652 min
Histogram: 1 0 0 0 0 0 0 0 0 0
Nghost:    17149 ave 17149 max 17149 min
Histogram: 1 0 0 0 0 0 0 0 0 0
Neighs:    1.26183e+06 ave 1.26183e+06 max 1.26183e+06 min
Histogram: 1 0 0 0 0 0 0 0 0 0

Total # of neighbors = 1261826
Ave neighs/atom = 64.2085
Neighbor list builds = 505
Dangerous builds not checked
Setting up Verlet run ...
  Unit style    : metal
  Current step  : 42000
  Time step     : 0.001
Per MPI rank memory allocation (min/avg/max) = 18.2 | 18.2 | 18.2 Mbytes
Step Temp Press TotEng PotEng Enthalpy Volume 
   42000     2354.855   -187.15344   -75692.812   -81674.358   -75738.503    391148.44 
   42495    2307.9401    1234.4639   -75864.582    -81726.96   -75564.263    389776.15 
Loop time of 60.9771 on 1 procs for 495 steps with 19652 atoms

Performance: 0.701 ns/day, 34.218 hours/ns, 8.118 timesteps/s
100.0% CPU use with 1 MPI tasks x no OpenMP threads

MPI task timing breakdown:
Section |  min time  |  avg time  |  max time  |%varavg| %total
---------------------------------------------------------------
Pair    | 32.085     | 32.085     | 32.085     |   0.0 | 52.62
Neigh   | 27.713     | 27.713     | 27.713     |   0.0 | 45.45
Comm    | 0.44931    | 0.44931    | 0.44931    |   0.0 |  0.74
Output  | 0.00014997 | 0.00014997 | 0.00014997 |   0.0 |  0.00
Modify  | 0.57722    | 0.57722    | 0.57722    |   0.0 |  0.95
Other   |            | 0.1532     |            |       |  0.25

Nlocal:    19652 ave 19652 max 19652 min
Histogram: 1 0 0 0 0 0 0 0 0 0
Nghost:    17211 ave 17211 max 17211 min
Histogram: 1 0 0 0 0 0 0 0 0 0
Neighs:    1.26675e+06 ave 1.26675e+06 max 1.26675e+06 min
Histogram: 1 0 0 0 0 0 0 0 0 0

Total # of neighbors = 1266752
Ave neighs/atom = 64.4592
Neighbor list builds = 495
Dangerous builds not checked
Setting up Verlet run ...
  Unit style    : metal
  Current step  : 42495
  Time step     : 0.001
Per MPI rank memory allocation (min/avg/max) = 18.2 | 18.2 | 18.2 Mbytes
Step Temp Press TotEng PotEng Enthalpy Volume 
   42495    2307.9401    1234.4639   -75864.582    -81726.96   -75564.263    389776.15 
   43000    2293.5274   -131.07781   -75902.178   -81727.947   -75934.107    390263.81 
Loop time of 62.7595 on 1 procs for 505 steps with 19652 atoms

Performance: 0.695 ns/day, 34.521 hours/ns, 8.047 timesteps/s
99.9% CPU use with 1 MPI tasks x no OpenMP threads

MPI task timing breakdown:
Section |  min time  |  avg time  |  max time  |%varavg| %total
---------------------------------------------------------------
Pair    | 32.908     | 32.908     | 32.908     |   0.0 | 52.44
Neigh   | 28.55      | 28.55      | 28.55      |   0.0 | 45.49
Comm    | 0.47119    | 0.47119    | 0.47119    |   0.0 |  0.75
Output  | 0.081039   | 0.081039   | 0.081039   |   0.0 |  0.13
Modify  | 0.59115    | 0.59115    | 0.59115    |   0.0 |  0.94
Other   |            | 0.1581     |            |       |  0.25

Nlocal:    19652 ave 19652 max 19652 min
Histogram: 1 0 0 0 0 0 0 0 0 0
Nghost:    17106 ave 17106 max 17106 min
Histogram: 1 0 0 0 0 0 0 0 0 0
Neighs:    1.26498e+06 ave 1.26498e+06 max 1.26498e+06 min
Histogram: 1 0 0 0 0 0 0 0 0 0

Total # of neighbors = 1264979
Ave neighs/atom = 64.369
Neighbor list builds = 505
Dangerous builds not checked
Setting up Verlet run ...
  Unit style    : metal
  Current step  : 43000
  Time step     : 0.001
Per MPI rank memory allocation (min/avg/max) = 18.2 | 18.2 | 18.2 Mbytes
Step Temp Press TotEng PotEng Enthalpy Volume 
   43000    2293.5274   -131.07781   -75902.178   -81727.947   -75934.107    390263.81 
   43495    2265.5562    988.06402   -76043.492   -81798.211   -75803.438    389254.91 
Loop time of 59.4731 on 1 procs for 495 steps with 19652 atoms

Performance: 0.719 ns/day, 33.374 hours/ns, 8.323 timesteps/s
99.8% CPU use with 1 MPI tasks x no OpenMP threads

MPI task timing breakdown:
Section |  min time  |  avg time  |  max time  |%varavg| %total
---------------------------------------------------------------
Pair    | 31.157     | 31.157     | 31.157     |   0.0 | 52.39
Neigh   | 27.158     | 27.158     | 27.158     |   0.0 | 45.66
Comm    | 0.44219    | 0.44219    | 0.44219    |   0.0 |  0.74
Output  | 0.00012016 | 0.00012016 | 0.00012016 |   0.0 |  0.00
Modify  | 0.56494    | 0.56494    | 0.56494    |   0.0 |  0.95
Other   |            | 0.1508     |            |       |  0.25

Nlocal:    19652 ave 19652 max 19652 min
Histogram: 1 0 0 0 0 0 0 0 0 0
Nghost:    17063 ave 17063 max 17063 min
Histogram: 1 0 0 0 0 0 0 0 0 0
Neighs:    1.26794e+06 ave 1.26794e+06 max 1.26794e+06 min
Histogram: 1 0 0 0 0 0 0 0 0 0

Total # of neighbors = 1267944
Ave neighs/atom = 64.5198
Neighbor list builds = 495
Dangerous builds not checked
Setting up Verlet run ...
  Unit style    : metal
  Current step  : 43495
  Time step     : 0.001
Per MPI rank memory allocation (min/avg/max) = 18.2 | 18.2 | 18.2 Mbytes
Step Temp Press TotEng PotEng Enthalpy Volume 
   43495    2265.5562    988.06402   -76043.492   -81798.211   -75803.438    389254.91 
   44000    2261.0922   -617.54219   -76101.589    -81844.97   -76251.796     389702.3 
Loop time of 59.0298 on 1 procs for 505 steps with 19652 atoms

Performance: 0.739 ns/day, 32.470 hours/ns, 8.555 timesteps/s
99.8% CPU use with 1 MPI tasks x no OpenMP threads

MPI task timing breakdown:
Section |  min time  |  avg time  |  max time  |%varavg| %total
---------------------------------------------------------------
Pair    | 30.743     | 30.743     | 30.743     |   0.0 | 52.08
Neigh   | 26.972     | 26.972     | 26.972     |   0.0 | 45.69
Comm    | 0.44051    | 0.44051    | 0.44051    |   0.0 |  0.75
Output  | 0.15893    | 0.15893    | 0.15893    |   0.0 |  0.27
Modify  | 0.56601    | 0.56601    | 0.56601    |   0.0 |  0.96
Other   |            | 0.1501     |            |       |  0.25

Nlocal:    19652 ave 19652 max 19652 min
Histogram: 1 0 0 0 0 0 0 0 0 0
Nghost:    17241 ave 17241 max 17241 min
Histogram: 1 0 0 0 0 0 0 0 0 0
Neighs:    1.2672e+06 ave 1.2672e+06 max 1.2672e+06 min
Histogram: 1 0 0 0 0 0 0 0 0 0

Total # of neighbors = 1267199
Ave neighs/atom = 64.4819
Neighbor list builds = 505
Dangerous builds not checked
Setting up Verlet run ...
  Unit style    : metal
  Current step  : 44000
  Time step     : 0.001
Per MPI rank memory allocation (min/avg/max) = 18.2 | 18.2 | 18.2 Mbytes
Step Temp Press TotEng PotEng Enthalpy Volume 
   44000    2261.0922   -617.54219   -76101.589    -81844.97   -76251.796     389702.3 
   44495    2207.6623    653.92199   -76326.822   -81934.485   -76168.257    388499.86 
Loop time of 60.4906 on 1 procs for 495 steps with 19652 atoms

Performance: 0.707 ns/day, 33.945 hours/ns, 8.183 timesteps/s
98.4% CPU use with 1 MPI tasks x no OpenMP threads

MPI task timing breakdown:
Section |  min time  |  avg time  |  max time  |%varavg| %total
---------------------------------------------------------------
Pair    | 31.835     | 31.835     | 31.835     |   0.0 | 52.63
Neigh   | 27.487     | 27.487     | 27.487     |   0.0 | 45.44
Comm    | 0.44983    | 0.44983    | 0.44983    |   0.0 |  0.74
Output  | 0.00015998 | 0.00015998 | 0.00015998 |   0.0 |  0.00
Modify  | 0.56717    | 0.56717    | 0.56717    |   0.0 |  0.94
Other   |            | 0.1518     |            |       |  0.25

Nlocal:    19652 ave 19652 max 19652 min
Histogram: 1 0 0 0 0 0 0 0 0 0
Nghost:    17235 ave 17235 max 17235 min
Histogram: 1 0 0 0 0 0 0 0 0 0
Neighs:    1.27071e+06 ave 1.27071e+06 max 1.27071e+06 min
Histogram: 1 0 0 0 0 0 0 0 0 0

Total # of neighbors = 1270714
Ave neighs/atom = 64.6608
Neighbor list builds = 495
Dangerous builds not checked
Setting up Verlet run ...
  Unit style    : metal
  Current step  : 44495
  Time step     : 0.001
Per MPI rank memory allocation (min/avg/max) = 18.2 | 18.2 | 18.2 Mbytes
Step Temp Press TotEng PotEng Enthalpy Volume 
   44495    2207.6623    653.92199   -76326.822   -81934.485   -76168.257    388499.86 
   45000    2203.4676    509.09377   -76356.585   -81953.593   -76233.153    388453.13 
Loop time of 69.2417 on 1 procs for 505 steps with 19652 atoms

Performance: 0.630 ns/day, 38.087 hours/ns, 7.293 timesteps/s
91.9% CPU use with 1 MPI tasks x no OpenMP threads

MPI task timing breakdown:
Section |  min time  |  avg time  |  max time  |%varavg| %total
---------------------------------------------------------------
Pair    | 34.068     | 34.068     | 34.068     |   0.0 | 49.20
Neigh   | 28.825     | 28.825     | 28.825     |   0.0 | 41.63
Comm    | 0.48074    | 0.48074    | 0.48074    |   0.0 |  0.69
Output  | 5.0902     | 5.0902     | 5.0902     |   0.0 |  7.35
Modify  | 0.60798    | 0.60798    | 0.60798    |   0.0 |  0.88
Other   |            | 0.1693     |            |       |  0.24

Nlocal:    19652 ave 19652 max 19652 min
Histogram: 1 0 0 0 0 0 0 0 0 0
Nghost:    17155 ave 17155 max 17155 min
Histogram: 1 0 0 0 0 0 0 0 0 0
Neighs:    1.27113e+06 ave 1.27113e+06 max 1.27113e+06 min
Histogram: 1 0 0 0 0 0 0 0 0 0

Total # of neighbors = 1271129
Ave neighs/atom = 64.6819
Neighbor list builds = 505
Dangerous builds not checked
Setting up Verlet run ...
  Unit style    : metal
  Current step  : 45000
  Time step     : 0.001
Per MPI rank memory allocation (min/avg/max) = 18.2 | 18.2 | 18.2 Mbytes
Step Temp Press TotEng PotEng Enthalpy Volume 
   45000    2203.4676    509.09377   -76356.585   -81953.593   -76233.153    388453.13 
   45495    2153.0109    406.38289   -76538.934   -82007.778   -76440.607    387657.89 
Loop time of 66.1907 on 1 procs for 495 steps with 19652 atoms

Performance: 0.646 ns/day, 37.144 hours/ns, 7.478 timesteps/s
99.3% CPU use with 1 MPI tasks x no OpenMP threads

MPI task timing breakdown:
Section |  min time  |  avg time  |  max time  |%varavg| %total
---------------------------------------------------------------
Pair    | 35.517     | 35.517     | 35.517     |   0.0 | 53.66
Neigh   | 29.366     | 29.366     | 29.366     |   0.0 | 44.37
Comm    | 0.51052    | 0.51052    | 0.51052    |   0.0 |  0.77
Output  | 0.00013304 | 0.00013304 | 0.00013304 |   0.0 |  0.00
Modify  | 0.61415    | 0.61415    | 0.61415    |   0.0 |  0.93
Other   |            | 0.1825     |            |       |  0.28

Nlocal:    19652 ave 19652 max 19652 min
Histogram: 1 0 0 0 0 0 0 0 0 0
Nghost:    17221 ave 17221 max 17221 min
Histogram: 1 0 0 0 0 0 0 0 0 0
Neighs:    1.27376e+06 ave 1.27376e+06 max 1.27376e+06 min
Histogram: 1 0 0 0 0 0 0 0 0 0

Total # of neighbors = 1273763
Ave neighs/atom = 64.8159
Neighbor list builds = 495
Dangerous builds not checked
Setting up Verlet run ...
  Unit style    : metal
  Current step  : 45495
  Time step     : 0.001
Per MPI rank memory allocation (min/avg/max) = 18.2 | 18.2 | 18.2 Mbytes
Step Temp Press TotEng PotEng Enthalpy Volume 
   45495    2153.0109    406.38289   -76538.934   -82007.778   -76440.607    387657.89 
   46000    2141.5852   -1494.0971   -76534.309    -81974.13   -76896.932    388854.57 
Loop time of 62.5694 on 1 procs for 505 steps with 19652 atoms

Performance: 0.697 ns/day, 34.417 hours/ns, 8.071 timesteps/s
99.9% CPU use with 1 MPI tasks x no OpenMP threads

MPI task timing breakdown:
Section |  min time  |  avg time  |  max time  |%varavg| %total
---------------------------------------------------------------
Pair    | 33.101     | 33.101     | 33.101     |   0.0 | 52.90
Neigh   | 28.161     | 28.161     | 28.161     |   0.0 | 45.01
Comm    | 0.48479    | 0.48479    | 0.48479    |   0.0 |  0.77
Output  | 0.060533   | 0.060533   | 0.060533   |   0.0 |  0.10
Modify  | 0.59262    | 0.59262    | 0.59262    |   0.0 |  0.95
Other   |            | 0.1689     |            |       |  0.27

Nlocal:    19652 ave 19652 max 19652 min
Histogram: 1 0 0 0 0 0 0 0 0 0
Nghost:    17254 ave 17254 max 17254 min
Histogram: 1 0 0 0 0 0 0 0 0 0
Neighs:    1.26981e+06 ave 1.26981e+06 max 1.26981e+06 min
Histogram: 1 0 0 0 0 0 0 0 0 0

Total # of neighbors = 1269809
Ave neighs/atom = 64.6147
Neighbor list builds = 505
Dangerous builds not checked
Setting up Verlet run ...
  Unit style    : metal
  Current step  : 46000
  Time step     : 0.001
Per MPI rank memory allocation (min/avg/max) = 18.2 | 18.2 | 18.2 Mbytes
Step Temp Press TotEng PotEng Enthalpy Volume 
   46000    2141.5852   -1494.0971   -76534.309    -81974.13   -76896.932    388854.57 
   46495    2102.1274    275.01272   -76776.224   -82115.819   -76709.813     386898.9 
Loop time of 66.8944 on 1 procs for 495 steps with 19652 atoms

Performance: 0.639 ns/day, 37.539 hours/ns, 7.400 timesteps/s
100.0% CPU use with 1 MPI tasks x no OpenMP threads

MPI task timing breakdown:
Section |  min time  |  avg time  |  max time  |%varavg| %total
---------------------------------------------------------------
Pair    | 35.848     | 35.848     | 35.848     |   0.0 | 53.59
Neigh   | 29.73      | 29.73      | 29.73      |   0.0 | 44.44
Comm    | 0.51341    | 0.51341    | 0.51341    |   0.0 |  0.77
Output  | 0.00017619 | 0.00017619 | 0.00017619 |   0.0 |  0.00
Modify  | 0.62605    | 0.62605    | 0.62605    |   0.0 |  0.94
Other   |            | 0.1761     |            |       |  0.26

Nlocal:    19652 ave 19652 max 19652 min
Histogram: 1 0 0 0 0 0 0 0 0 0
Nghost:    17173 ave 17173 max 17173 min
Histogram: 1 0 0 0 0 0 0 0 0 0
Neighs:    1.27578e+06 ave 1.27578e+06 max 1.27578e+06 min
Histogram: 1 0 0 0 0 0 0 0 0 0

Total # of neighbors = 1275776
Ave neighs/atom = 64.9184
Neighbor list builds = 495
Dangerous builds not checked
Setting up Verlet run ...
  Unit style    : metal
  Current step  : 46495
  Time step     : 0.001
Per MPI rank memory allocation (min/avg/max) = 18.2 | 18.2 | 18.2 Mbytes
Step Temp Press TotEng PotEng Enthalpy Volume 
   46495    2102.1274    275.01272   -76776.224   -82115.819   -76709.813     386898.9 
   47000    2105.6254   -758.02474   -76761.376   -82109.857   -76944.603    387272.46 
Loop time of 59.9042 on 1 procs for 505 steps with 19652 atoms

Performance: 0.728 ns/day, 32.951 hours/ns, 8.430 timesteps/s
98.7% CPU use with 1 MPI tasks x no OpenMP threads

MPI task timing breakdown:
Section |  min time  |  avg time  |  max time  |%varavg| %total
---------------------------------------------------------------
Pair    | 31.673     | 31.673     | 31.673     |   0.0 | 52.87
Neigh   | 26.999     | 26.999     | 26.999     |   0.0 | 45.07
Comm    | 0.45708    | 0.45708    | 0.45708    |   0.0 |  0.76
Output  | 0.061023   | 0.061023   | 0.061023   |   0.0 |  0.10
Modify  | 0.55099    | 0.55099    | 0.55099    |   0.0 |  0.92
Other   |            | 0.1628     |            |       |  0.27

Nlocal:    19652 ave 19652 max 19652 min
Histogram: 1 0 0 0 0 0 0 0 0 0
Nghost:    17147 ave 17147 max 17147 min
Histogram: 1 0 0 0 0 0 0 0 0 0
Neighs:    1.27424e+06 ave 1.27424e+06 max 1.27424e+06 min
Histogram: 1 0 0 0 0 0 0 0 0 0

Total # of neighbors = 1274244
Ave neighs/atom = 64.8404
Neighbor list builds = 505
Dangerous builds not checked
Setting up Verlet run ...
  Unit style    : metal
  Current step  : 47000
  Time step     : 0.001
Per MPI rank memory allocation (min/avg/max) = 18.2 | 18.2 | 18.2 Mbytes
Step Temp Press TotEng PotEng Enthalpy Volume 
   47000    2105.6254   -758.02474   -76761.376   -82109.857   -76944.603    387272.46 
   47495    2052.1644    736.91239   -76965.039   -82177.724   -76787.334    386362.08 
Loop time of 63.7879 on 1 procs for 495 steps with 19652 atoms

Performance: 0.670 ns/day, 35.796 hours/ns, 7.760 timesteps/s
99.5% CPU use with 1 MPI tasks x no OpenMP threads

MPI task timing breakdown:
Section |  min time  |  avg time  |  max time  |%varavg| %total
---------------------------------------------------------------
Pair    | 34.078     | 34.078     | 34.078     |   0.0 | 53.42
Neigh   | 28.444     | 28.444     | 28.444     |   0.0 | 44.59
Comm    | 0.4948     | 0.4948     | 0.4948     |   0.0 |  0.78
Output  | 0.000175   | 0.000175   | 0.000175   |   0.0 |  0.00
Modify  | 0.59914    | 0.59914    | 0.59914    |   0.0 |  0.94
Other   |            | 0.172      |            |       |  0.27

Nlocal:    19652 ave 19652 max 19652 min
Histogram: 1 0 0 0 0 0 0 0 0 0
Nghost:    17272 ave 17272 max 17272 min
Histogram: 1 0 0 0 0 0 0 0 0 0
Neighs:    1.27787e+06 ave 1.27787e+06 max 1.27787e+06 min
Histogram: 1 0 0 0 0 0 0 0 0 0

Total # of neighbors = 1277873
Ave neighs/atom = 65.0251
Neighbor list builds = 495
Dangerous builds not checked
Setting up Verlet run ...
  Unit style    : metal
  Current step  : 47495
  Time step     : 0.001
Per MPI rank memory allocation (min/avg/max) = 18.2 | 18.2 | 18.2 Mbytes
Step Temp Press TotEng PotEng Enthalpy Volume 
   47495    2052.1644    736.91239   -76965.039   -82177.724   -76787.334    386362.08 
   48000    2051.2613    1219.9841    -77025.52   -82235.911   -76731.921    385577.68 
Loop time of 66.7716 on 1 procs for 505 steps with 19652 atoms

Performance: 0.653 ns/day, 36.728 hours/ns, 7.563 timesteps/s
98.4% CPU use with 1 MPI tasks x no OpenMP threads

MPI task timing breakdown:
Section |  min time  |  avg time  |  max time  |%varavg| %total
---------------------------------------------------------------
Pair    | 35.645     | 35.645     | 35.645     |   0.0 | 53.38
Neigh   | 29.737     | 29.737     | 29.737     |   0.0 | 44.53
Comm    | 0.52173    | 0.52173    | 0.52173    |   0.0 |  0.78
Output  | 0.065361   | 0.065361   | 0.065361   |   0.0 |  0.10
Modify  | 0.62761    | 0.62761    | 0.62761    |   0.0 |  0.94
Other   |            | 0.1753     |            |       |  0.26

Nlocal:    19652 ave 19652 max 19652 min
Histogram: 1 0 0 0 0 0 0 0 0 0
Nghost:    17272 ave 17272 max 17272 min
Histogram: 1 0 0 0 0 0 0 0 0 0
Neighs:    1.28079e+06 ave 1.28079e+06 max 1.28079e+06 min
Histogram: 1 0 0 0 0 0 0 0 0 0

Total # of neighbors = 1280791
Ave neighs/atom = 65.1736
Neighbor list builds = 505
Dangerous builds not checked
Setting up Verlet run ...
  Unit style    : metal
  Current step  : 48000
  Time step     : 0.001
Per MPI rank memory allocation (min/avg/max) = 18.2 | 18.2 | 18.2 Mbytes
Step Temp Press TotEng PotEng Enthalpy Volume 
   48000    2051.2613    1219.9841    -77025.52   -82235.911   -76731.921    385577.68 
   48495    2010.4588    316.60209   -77190.736   -82297.485   -77114.519    385700.94 
Loop time of 59.7817 on 1 procs for 495 steps with 19652 atoms

Performance: 0.715 ns/day, 33.548 hours/ns, 8.280 timesteps/s
99.9% CPU use with 1 MPI tasks x no OpenMP threads

MPI task timing breakdown:
Section |  min time  |  avg time  |  max time  |%varavg| %total
---------------------------------------------------------------
Pair    | 31.687     | 31.687     | 31.687     |   0.0 | 53.00
Neigh   | 26.911     | 26.911     | 26.911     |   0.0 | 45.02
Comm    | 0.46298    | 0.46298    | 0.46298    |   0.0 |  0.77
Output  | 0.00016713 | 0.00016713 | 0.00016713 |   0.0 |  0.00
Modify  | 0.55989    | 0.55989    | 0.55989    |   0.0 |  0.94
Other   |            | 0.1607     |            |       |  0.27

Nlocal:    19652 ave 19652 max 19652 min
Histogram: 1 0 0 0 0 0 0 0 0 0
Nghost:    17192 ave 17192 max 17192 min
Histogram: 1 0 0 0 0 0 0 0 0 0
Neighs:    1.28028e+06 ave 1.28028e+06 max 1.28028e+06 min
Histogram: 1 0 0 0 0 0 0 0 0 0

Total # of neighbors = 1280281
Ave neighs/atom = 65.1476
Neighbor list builds = 495
Dangerous builds not checked
Setting up Verlet run ...
  Unit style    : metal
  Current step  : 48495
  Time step     : 0.001
Per MPI rank memory allocation (min/avg/max) = 18.2 | 18.2 | 18.2 Mbytes
Step Temp Press TotEng PotEng Enthalpy Volume 
   48495    2010.4588    316.60209   -77190.736   -82297.485   -77114.519    385700.94 
   49000    2009.9296   -164.44265   -77223.943   -82329.347   -77263.556    385958.37 
Loop time of 57.496 on 1 procs for 505 steps with 19652 atoms

Performance: 0.759 ns/day, 31.626 hours/ns, 8.783 timesteps/s
100.0% CPU use with 1 MPI tasks x no OpenMP threads

MPI task timing breakdown:
Section |  min time  |  avg time  |  max time  |%varavg| %total
---------------------------------------------------------------
Pair    | 30.25      | 30.25      | 30.25      |   0.0 | 52.61
Neigh   | 26.036     | 26.036     | 26.036     |   0.0 | 45.28
Comm    | 0.44098    | 0.44098    | 0.44098    |   0.0 |  0.77
Output  | 0.060612   | 0.060612   | 0.060612   |   0.0 |  0.11
Modify  | 0.54995    | 0.54995    | 0.54995    |   0.0 |  0.96
Other   |            | 0.1578     |            |       |  0.27

Nlocal:    19652 ave 19652 max 19652 min
Histogram: 1 0 0 0 0 0 0 0 0 0
Nghost:    17237 ave 17237 max 17237 min
Histogram: 1 0 0 0 0 0 0 0 0 0
Neighs:    1.27918e+06 ave 1.27918e+06 max 1.27918e+06 min
Histogram: 1 0 0 0 0 0 0 0 0 0

Total # of neighbors = 1279177
Ave neighs/atom = 65.0914
Neighbor list builds = 505
Dangerous builds not checked
Setting up Verlet run ...
  Unit style    : metal
  Current step  : 49000
  Time step     : 0.001
Per MPI rank memory allocation (min/avg/max) = 18.2 | 18.2 | 18.2 Mbytes
Step Temp Press TotEng PotEng Enthalpy Volume 
   49000    2009.9296   -164.44265   -77223.943   -82329.347   -77263.556    385958.37 
   49495    1957.5765    -79.22995   -77425.606   -82398.028    -77444.64    384909.75 
Loop time of 59.048 on 1 procs for 495 steps with 19652 atoms

Performance: 0.724 ns/day, 33.136 hours/ns, 8.383 timesteps/s
100.0% CPU use with 1 MPI tasks x no OpenMP threads

MPI task timing breakdown:
Section |  min time  |  avg time  |  max time  |%varavg| %total
---------------------------------------------------------------
Pair    | 31.251     | 31.251     | 31.251     |   0.0 | 52.93
Neigh   | 26.617     | 26.617     | 26.617     |   0.0 | 45.08
Comm    | 0.46679    | 0.46679    | 0.46679    |   0.0 |  0.79
Output  | 0.00017905 | 0.00017905 | 0.00017905 |   0.0 |  0.00
Modify  | 0.55282    | 0.55282    | 0.55282    |   0.0 |  0.94
Other   |            | 0.1594     |            |       |  0.27

Nlocal:    19652 ave 19652 max 19652 min
Histogram: 1 0 0 0 0 0 0 0 0 0
Nghost:    17254 ave 17254 max 17254 min
Histogram: 1 0 0 0 0 0 0 0 0 0
Neighs:    1.28257e+06 ave 1.28257e+06 max 1.28257e+06 min
Histogram: 1 0 0 0 0 0 0 0 0 0

Total # of neighbors = 1282570
Ave neighs/atom = 65.2641
Neighbor list builds = 495
Dangerous builds not checked
Setting up Verlet run ...
  Unit style    : metal
  Current step  : 49495
  Time step     : 0.001
Per MPI rank memory allocation (min/avg/max) = 18.2 | 18.2 | 18.2 Mbytes
Step Temp Press TotEng PotEng Enthalpy Volume 
   49495    1957.5765    -79.22995   -77425.606   -82398.028    -77444.64    384909.75 
   50000    1954.5086    1272.6631   -77470.348   -82434.978   -77165.333    383987.83 
Loop time of 64.7752 on 1 procs for 505 steps with 19652 atoms

Performance: 0.674 ns/day, 35.630 hours/ns, 7.796 timesteps/s
99.3% CPU use with 1 MPI tasks x no OpenMP threads

MPI task timing breakdown:
Section |  min time  |  avg time  |  max time  |%varavg| %total
---------------------------------------------------------------
Pair    | 34.27      | 34.27      | 34.27      |   0.0 | 52.91
Neigh   | 28.854     | 28.854     | 28.854     |   0.0 | 44.55
Comm    | 0.4991     | 0.4991     | 0.4991     |   0.0 |  0.77
Output  | 0.3717     | 0.3717     | 0.3717     |   0.0 |  0.57
Modify  | 0.60742    | 0.60742    | 0.60742    |   0.0 |  0.94
Other   |            | 0.1722     |            |       |  0.27

Nlocal:    19652 ave 19652 max 19652 min
Histogram: 1 0 0 0 0 0 0 0 0 0
Nghost:    17242 ave 17242 max 17242 min
Histogram: 1 0 0 0 0 0 0 0 0 0
Neighs:    1.2857e+06 ave 1.2857e+06 max 1.2857e+06 min
Histogram: 1 0 0 0 0 0 0 0 0 0

Total # of neighbors = 1285700
Ave neighs/atom = 65.4234
Neighbor list builds = 505
Dangerous builds not checked
Setting up Verlet run ...
  Unit style    : metal
  Current step  : 50000
  Time step     : 0.001
Per MPI rank memory allocation (min/avg/max) = 18.2 | 18.2 | 18.2 Mbytes
Step Temp Press TotEng PotEng Enthalpy Volume 
   50000    1954.5086    1272.6631   -77470.348   -82434.978   -77165.333    383987.83 
   50495    1906.4119    134.07682   -77653.895   -82496.354   -77621.769    383890.37 
Loop time of 63.5413 on 1 procs for 495 steps with 19652 atoms

Performance: 0.673 ns/day, 35.657 hours/ns, 7.790 timesteps/s
100.0% CPU use with 1 MPI tasks x no OpenMP threads

MPI task timing breakdown:
Section |  min time  |  avg time  |  max time  |%varavg| %total
---------------------------------------------------------------
Pair    | 33.831     | 33.831     | 33.831     |   0.0 | 53.24
Neigh   | 28.456     | 28.456     | 28.456     |   0.0 | 44.78
Comm    | 0.49177    | 0.49177    | 0.49177    |   0.0 |  0.77
Output  | 0.00018001 | 0.00018001 | 0.00018001 |   0.0 |  0.00
Modify  | 0.59091    | 0.59091    | 0.59091    |   0.0 |  0.93
Other   |            | 0.1721     |            |       |  0.27

Nlocal:    19652 ave 19652 max 19652 min
Histogram: 1 0 0 0 0 0 0 0 0 0
Nghost:    17219 ave 17219 max 17219 min
Histogram: 1 0 0 0 0 0 0 0 0 0
Neighs:    1.2862e+06 ave 1.2862e+06 max 1.2862e+06 min
Histogram: 1 0 0 0 0 0 0 0 0 0

Total # of neighbors = 1286204
Ave neighs/atom = 65.449
Neighbor list builds = 495
Dangerous builds not checked
Setting up Verlet run ...
  Unit style    : metal
  Current step  : 50495
  Time step     : 0.001
Per MPI rank memory allocation (min/avg/max) = 18.2 | 18.2 | 18.2 Mbytes
Step Temp Press TotEng PotEng Enthalpy Volume 
   50495    1906.4119    134.07682   -77653.895   -82496.354   -77621.769    383890.37 
   51000    1910.1687   -118.84242   -77701.652   -82553.654   -77730.132     383958.9 
Loop time of 61.2548 on 1 procs for 505 steps with 19652 atoms

Performance: 0.712 ns/day, 33.694 hours/ns, 8.244 timesteps/s
99.9% CPU use with 1 MPI tasks x no OpenMP threads

MPI task timing breakdown:
Section |  min time  |  avg time  |  max time  |%varavg| %total
---------------------------------------------------------------
Pair    | 32.334     | 32.334     | 32.334     |   0.0 | 52.79
Neigh   | 27.602     | 27.602     | 27.602     |   0.0 | 45.06
Comm    | 0.46995    | 0.46995    | 0.46995    |   0.0 |  0.77
Output  | 0.093895   | 0.093895   | 0.093895   |   0.0 |  0.15
Modify  | 0.58454    | 0.58454    | 0.58454    |   0.0 |  0.95
Other   |            | 0.1697     |            |       |  0.28

Nlocal:    19652 ave 19652 max 19652 min
Histogram: 1 0 0 0 0 0 0 0 0 0
Nghost:    17305 ave 17305 max 17305 min
Histogram: 1 0 0 0 0 0 0 0 0 0
Neighs:    1.28591e+06 ave 1.28591e+06 max 1.28591e+06 min
Histogram: 1 0 0 0 0 0 0 0 0 0

Total # of neighbors = 1285908
Ave neighs/atom = 65.434
Neighbor list builds = 505
Dangerous builds not checked
Setting up Verlet run ...
  Unit style    : metal
  Current step  : 51000
  Time step     : 0.001
Per MPI rank memory allocation (min/avg/max) = 18.2 | 18.2 | 18.2 Mbytes
Step Temp Press TotEng PotEng Enthalpy Volume 
   51000    1910.1687   -118.84242   -77701.652   -82553.654   -77730.132     383958.9 
   51495    1849.4785   -16.384707   -77878.384   -82576.228   -77882.306    383485.14 
Loop time of 64.5822 on 1 procs for 495 steps with 19652 atoms

Performance: 0.662 ns/day, 36.241 hours/ns, 7.665 timesteps/s
100.0% CPU use with 1 MPI tasks x no OpenMP threads

MPI task timing breakdown:
Section |  min time  |  avg time  |  max time  |%varavg| %total
---------------------------------------------------------------
Pair    | 34.468     | 34.468     | 34.468     |   0.0 | 53.37
Neigh   | 28.842     | 28.842     | 28.842     |   0.0 | 44.66
Comm    | 0.48912    | 0.48912    | 0.48912    |   0.0 |  0.76
Output  | 0.00012803 | 0.00012803 | 0.00012803 |   0.0 |  0.00
Modify  | 0.6078     | 0.6078     | 0.6078     |   0.0 |  0.94
Other   |            | 0.175      |            |       |  0.27

Nlocal:    19652 ave 19652 max 19652 min
Histogram: 1 0 0 0 0 0 0 0 0 0
Nghost:    17317 ave 17317 max 17317 min
Histogram: 1 0 0 0 0 0 0 0 0 0
Neighs:    1.28825e+06 ave 1.28825e+06 max 1.28825e+06 min
Histogram: 1 0 0 0 0 0 0 0 0 0

Total # of neighbors = 1288249
Ave neighs/atom = 65.5531
Neighbor list builds = 495
Dangerous builds not checked
Setting up Verlet run ...
  Unit style    : metal
  Current step  : 51495
  Time step     : 0.001
Per MPI rank memory allocation (min/avg/max) = 18.2 | 18.2 | 18.2 Mbytes
Step Temp Press TotEng PotEng Enthalpy Volume 
   51495    1849.4785   -16.384707   -77878.384   -82576.228   -77882.306    383485.14 
   52000    1862.4172    88.671206   -77871.052   -82601.761   -77849.843    383216.33 
Loop time of 68.8251 on 1 procs for 505 steps with 19652 atoms

Performance: 0.634 ns/day, 37.858 hours/ns, 7.337 timesteps/s
98.7% CPU use with 1 MPI tasks x no OpenMP threads

MPI task timing breakdown:
Section |  min time  |  avg time  |  max time  |%varavg| %total
---------------------------------------------------------------
Pair    | 36.868     | 36.868     | 36.868     |   0.0 | 53.57
Neigh   | 30.354     | 30.354     | 30.354     |   0.0 | 44.10
Comm    | 0.55591    | 0.55591    | 0.55591    |   0.0 |  0.81
Output  | 0.22155    | 0.22155    | 0.22155    |   0.0 |  0.32
Modify  | 0.64305    | 0.64305    | 0.64305    |   0.0 |  0.93
Other   |            | 0.1833     |            |       |  0.27

Nlocal:    19652 ave 19652 max 19652 min
Histogram: 1 0 0 0 0 0 0 0 0 0
Nghost:    17291 ave 17291 max 17291 min
Histogram: 1 0 0 0 0 0 0 0 0 0
Neighs:    1.28858e+06 ave 1.28858e+06 max 1.28858e+06 min
Histogram: 1 0 0 0 0 0 0 0 0 0

Total # of neighbors = 1288579
Ave neighs/atom = 65.5699
Neighbor list builds = 505
Dangerous builds not checked
Setting up Verlet run ...
  Unit style    : metal
  Current step  : 52000
  Time step     : 0.001
Per MPI rank memory allocation (min/avg/max) = 18.2 | 18.2 | 18.2 Mbytes
Step Temp Press TotEng PotEng Enthalpy Volume 
   52000    1862.4172    88.671206   -77871.052   -82601.761   -77849.843    383216.33 
   52495    1811.1127    967.36152   -78115.862   -82716.253   -77885.148    382115.11 
Loop time of 65.9973 on 1 procs for 495 steps with 19652 atoms

Performance: 0.648 ns/day, 37.036 hours/ns, 7.500 timesteps/s
100.0% CPU use with 1 MPI tasks x no OpenMP threads

MPI task timing breakdown:
Section |  min time  |  avg time  |  max time  |%varavg| %total
---------------------------------------------------------------
Pair    | 35.345     | 35.345     | 35.345     |   0.0 | 53.55
Neigh   | 29.352     | 29.352     | 29.352     |   0.0 | 44.48
Comm    | 0.50564    | 0.50564    | 0.50564    |   0.0 |  0.77
Output  | 0.00012612 | 0.00012612 | 0.00012612 |   0.0 |  0.00
Modify  | 0.61609    | 0.61609    | 0.61609    |   0.0 |  0.93
Other   |            | 0.1782     |            |       |  0.27

Nlocal:    19652 ave 19652 max 19652 min
Histogram: 1 0 0 0 0 0 0 0 0 0
Nghost:    17202 ave 17202 max 17202 min
Histogram: 1 0 0 0 0 0 0 0 0 0
Neighs:    1.29215e+06 ave 1.29215e+06 max 1.29215e+06 min
Histogram: 1 0 0 0 0 0 0 0 0 0

Total # of neighbors = 1292153
Ave neighs/atom = 65.7517
Neighbor list builds = 495
Dangerous builds not checked
Setting up Verlet run ...
  Unit style    : metal
  Current step  : 52495
  Time step     : 0.001
Per MPI rank memory allocation (min/avg/max) = 18.2 | 18.2 | 18.2 Mbytes
Step Temp Press TotEng PotEng Enthalpy Volume 
   52495    1811.1127    967.36152   -78115.862   -82716.253   -77885.148    382115.11 
   53000    1804.0241    631.95369   -78152.261   -82734.647   -78001.236    382891.22 
Loop time of 64.851 on 1 procs for 505 steps with 19652 atoms

Performance: 0.673 ns/day, 35.672 hours/ns, 7.787 timesteps/s
99.9% CPU use with 1 MPI tasks x no OpenMP threads

MPI task timing breakdown:
Section |  min time  |  avg time  |  max time  |%varavg| %total
---------------------------------------------------------------
Pair    | 34.499     | 34.499     | 34.499     |   0.0 | 53.20
Neigh   | 28.925     | 28.925     | 28.925     |   0.0 | 44.60
Comm    | 0.49381    | 0.49381    | 0.49381    |   0.0 |  0.76
Output  | 0.14355    | 0.14355    | 0.14355    |   0.0 |  0.22
Modify  | 0.61216    | 0.61216    | 0.61216    |   0.0 |  0.94
Other   |            | 0.1775     |            |       |  0.27

Nlocal:    19652 ave 19652 max 19652 min
Histogram: 1 0 0 0 0 0 0 0 0 0
Nghost:    17251 ave 17251 max 17251 min
Histogram: 1 0 0 0 0 0 0 0 0 0
Neighs:    1.28922e+06 ave 1.28922e+06 max 1.28922e+06 min
Histogram: 1 0 0 0 0 0 0 0 0 0

Total # of neighbors = 1289222
Ave neighs/atom = 65.6026
Neighbor list builds = 505
Dangerous builds not checked
Setting up Verlet run ...
  Unit style    : metal
  Current step  : 53000
  Time step     : 0.001
Per MPI rank memory allocation (min/avg/max) = 18.2 | 18.2 | 18.2 Mbytes
Step Temp Press TotEng PotEng Enthalpy Volume 
   53000    1804.0241    631.95369   -78152.261   -82734.647   -78001.236    382891.22 
   53495    1752.4776   -876.20541   -78361.059   -82812.511   -78570.097    382234.35 
Loop time of 61.0771 on 1 procs for 495 steps with 19652 atoms

Performance: 0.700 ns/day, 34.274 hours/ns, 8.105 timesteps/s
99.8% CPU use with 1 MPI tasks x no OpenMP threads

MPI task timing breakdown:
Section |  min time  |  avg time  |  max time  |%varavg| %total
---------------------------------------------------------------
Pair    | 32.52      | 32.52      | 32.52      |   0.0 | 53.24
Neigh   | 27.351     | 27.351     | 27.351     |   0.0 | 44.78
Comm    | 0.46698    | 0.46698    | 0.46698    |   0.0 |  0.76
Output  | 0.000139   | 0.000139   | 0.000139   |   0.0 |  0.00
Modify  | 0.57207    | 0.57207    | 0.57207    |   0.0 |  0.94
Other   |            | 0.167      |            |       |  0.27

Nlocal:    19652 ave 19652 max 19652 min
Histogram: 1 0 0 0 0 0 0 0 0 0
Nghost:    17317 ave 17317 max 17317 min
Histogram: 1 0 0 0 0 0 0 0 0 0
Neighs:    1.29223e+06 ave 1.29223e+06 max 1.29223e+06 min
Histogram: 1 0 0 0 0 0 0 0 0 0

Total # of neighbors = 1292232
Ave neighs/atom = 65.7558
Neighbor list builds = 495
Dangerous builds not checked
Setting up Verlet run ...
  Unit style    : metal
  Current step  : 53495
  Time step     : 0.001
Per MPI rank memory allocation (min/avg/max) = 18.2 | 18.2 | 18.2 Mbytes
Step Temp Press TotEng PotEng Enthalpy Volume 
   53495    1752.4776   -876.20541   -78361.059   -82812.511   -78570.097    382234.35 
   54000    1755.7578   -250.40219   -78394.256   -82854.041   -78453.916    381727.68 
Loop time of 67.3703 on 1 procs for 505 steps with 19652 atoms

Performance: 0.648 ns/day, 37.057 hours/ns, 7.496 timesteps/s
98.0% CPU use with 1 MPI tasks x no OpenMP threads

MPI task timing breakdown:
Section |  min time  |  avg time  |  max time  |%varavg| %total
---------------------------------------------------------------
Pair    | 35.287     | 35.287     | 35.287     |   0.0 | 52.38
Neigh   | 29.395     | 29.395     | 29.395     |   0.0 | 43.63
Comm    | 0.50197    | 0.50197    | 0.50197    |   0.0 |  0.75
Output  | 1.3948     | 1.3948     | 1.3948     |   0.0 |  2.07
Modify  | 0.61304    | 0.61304    | 0.61304    |   0.0 |  0.91
Other   |            | 0.1786     |            |       |  0.27

Nlocal:    19652 ave 19652 max 19652 min
Histogram: 1 0 0 0 0 0 0 0 0 0
Nghost:    17299 ave 17299 max 17299 min
Histogram: 1 0 0 0 0 0 0 0 0 0
Neighs:    1.29387e+06 ave 1.29387e+06 max 1.29387e+06 min
Histogram: 1 0 0 0 0 0 0 0 0 0

Total # of neighbors = 1293872
Ave neighs/atom = 65.8392
Neighbor list builds = 505
Dangerous builds not checked
Setting up Verlet run ...
  Unit style    : metal
  Current step  : 54000
  Time step     : 0.001
Per MPI rank memory allocation (min/avg/max) = 18.2 | 18.2 | 18.2 Mbytes
Step Temp Press TotEng PotEng Enthalpy Volume 
   54000    1755.7578   -250.40219   -78394.256   -82854.041   -78453.916    381727.68 
   54495    1711.2035    595.12239   -78588.722   -82935.335   -78447.157    381118.55 
Loop time of 64.5456 on 1 procs for 495 steps with 19652 atoms

Performance: 0.663 ns/day, 36.221 hours/ns, 7.669 timesteps/s
99.8% CPU use with 1 MPI tasks x no OpenMP threads

MPI task timing breakdown:
Section |  min time  |  avg time  |  max time  |%varavg| %total
---------------------------------------------------------------
Pair    | 34.481     | 34.481     | 34.481     |   0.0 | 53.42
Neigh   | 28.772     | 28.772     | 28.772     |   0.0 | 44.58
Comm    | 0.50184    | 0.50184    | 0.50184    |   0.0 |  0.78
Output  | 0.00016403 | 0.00016403 | 0.00016403 |   0.0 |  0.00
Modify  | 0.61488    | 0.61488    | 0.61488    |   0.0 |  0.95
Other   |            | 0.1757     |            |       |  0.27

Nlocal:    19652 ave 19652 max 19652 min
Histogram: 1 0 0 0 0 0 0 0 0 0
Nghost:    17308 ave 17308 max 17308 min
Histogram: 1 0 0 0 0 0 0 0 0 0
Neighs:    1.29551e+06 ave 1.29551e+06 max 1.29551e+06 min
Histogram: 1 0 0 0 0 0 0 0 0 0

Total # of neighbors = 1295511
Ave neighs/atom = 65.9226
Neighbor list builds = 495
Dangerous builds not checked
Setting up Verlet run ...
  Unit style    : metal
  Current step  : 54495
  Time step     : 0.001
Per MPI rank memory allocation (min/avg/max) = 18.2 | 18.2 | 18.2 Mbytes
Step Temp Press TotEng PotEng Enthalpy Volume 
   54495    1711.2035    595.12239   -78588.722   -82935.335   -78447.157    381118.55 
   55000    1709.1633    555.64609   -78600.195   -82941.625    -78467.91    381435.23 
Loop time of 66.3068 on 1 procs for 505 steps with 19652 atoms

Performance: 0.658 ns/day, 36.472 hours/ns, 7.616 timesteps/s
97.2% CPU use with 1 MPI tasks x no OpenMP threads

MPI task timing breakdown:
Section |  min time  |  avg time  |  max time  |%varavg| %total
---------------------------------------------------------------
Pair    | 34.405     | 34.405     | 34.405     |   0.0 | 51.89
Neigh   | 28.724     | 28.724     | 28.724     |   0.0 | 43.32
Comm    | 0.49606    | 0.49606    | 0.49606    |   0.0 |  0.75
Output  | 1.8862     | 1.8862     | 1.8862     |   0.0 |  2.84
Modify  | 0.6175     | 0.6175     | 0.6175     |   0.0 |  0.93
Other   |            | 0.1774     |            |       |  0.27

Nlocal:    19652 ave 19652 max 19652 min
Histogram: 1 0 0 0 0 0 0 0 0 0
Nghost:    17291 ave 17291 max 17291 min
Histogram: 1 0 0 0 0 0 0 0 0 0
Neighs:    1.29478e+06 ave 1.29478e+06 max 1.29478e+06 min
Histogram: 1 0 0 0 0 0 0 0 0 0

Total # of neighbors = 1294779
Ave neighs/atom = 65.8854
Neighbor list builds = 505
Dangerous builds not checked
Setting up Verlet run ...
  Unit style    : metal
  Current step  : 55000
  Time step     : 0.001
Per MPI rank memory allocation (min/avg/max) = 18.2 | 18.2 | 18.2 Mbytes
Step Temp Press TotEng PotEng Enthalpy Volume 
   55000    1709.1633    555.64609   -78600.195   -82941.625    -78467.91    381435.23 
   55495    1652.3033    278.93923   -78811.792   -83008.793   -78745.593     380234.9 
Loop time of 62.6694 on 1 procs for 495 steps with 19652 atoms

Performance: 0.682 ns/day, 35.168 hours/ns, 7.899 timesteps/s
100.0% CPU use with 1 MPI tasks x no OpenMP threads

MPI task timing breakdown:
Section |  min time  |  avg time  |  max time  |%varavg| %total
---------------------------------------------------------------
Pair    | 33.481     | 33.481     | 33.481     |   0.0 | 53.42
Neigh   | 27.958     | 27.958     | 27.958     |   0.0 | 44.61
Comm    | 0.48251    | 0.48251    | 0.48251    |   0.0 |  0.77
Output  | 0.0001421  | 0.0001421  | 0.0001421  |   0.0 |  0.00
Modify  | 0.57957    | 0.57957    | 0.57957    |   0.0 |  0.92
Other   |            | 0.1688     |            |       |  0.27

Nlocal:    19652 ave 19652 max 19652 min
Histogram: 1 0 0 0 0 0 0 0 0 0
Nghost:    17310 ave 17310 max 17310 min
Histogram: 1 0 0 0 0 0 0 0 0 0
Neighs:    1.29887e+06 ave 1.29887e+06 max 1.29887e+06 min
Histogram: 1 0 0 0 0 0 0 0 0 0

Total # of neighbors = 1298874
Ave neighs/atom = 66.0937
Neighbor list builds = 495
Dangerous builds not checked
Setting up Verlet run ...
  Unit style    : metal
  Current step  : 55495
  Time step     : 0.001
Per MPI rank memory allocation (min/avg/max) = 18.2 | 18.2 | 18.2 Mbytes
Step Temp Press TotEng PotEng Enthalpy Volume 
   55495    1652.3033    278.93923   -78811.792   -83008.793   -78745.593     380234.9 
   56000    1650.6498     245.2694   -78880.312   -83073.113   -78822.059    380527.14 
Loop time of 63.0072 on 1 procs for 505 steps with 19652 atoms

Performance: 0.692 ns/day, 34.657 hours/ns, 8.015 timesteps/s
99.6% CPU use with 1 MPI tasks x no OpenMP threads

MPI task timing breakdown:
Section |  min time  |  avg time  |  max time  |%varavg| %total
---------------------------------------------------------------
Pair    | 33.545     | 33.545     | 33.545     |   0.0 | 53.24
Neigh   | 27.941     | 27.941     | 27.941     |   0.0 | 44.35
Comm    | 0.48459    | 0.48459    | 0.48459    |   0.0 |  0.77
Output  | 0.27767    | 0.27767    | 0.27767    |   0.0 |  0.44
Modify  | 0.58772    | 0.58772    | 0.58772    |   0.0 |  0.93
Other   |            | 0.1714     |            |       |  0.27

Nlocal:    19652 ave 19652 max 19652 min
Histogram: 1 0 0 0 0 0 0 0 0 0
Nghost:    17341 ave 17341 max 17341 min
Histogram: 1 0 0 0 0 0 0 0 0 0
Neighs:    1.29781e+06 ave 1.29781e+06 max 1.29781e+06 min
Histogram: 1 0 0 0 0 0 0 0 0 0

Total # of neighbors = 1297807
Ave neighs/atom = 66.0394
Neighbor list builds = 505
Dangerous builds not checked
Setting up Verlet run ...
  Unit style    : metal
  Current step  : 56000
  Time step     : 0.001
Per MPI rank memory allocation (min/avg/max) = 18.2 | 18.2 | 18.2 Mbytes
Step Temp Press TotEng PotEng Enthalpy Volume 
   56000    1650.6498     245.2694   -78880.312   -83073.113   -78822.059    380527.14 
   56495    1608.5754   -142.92135    -79067.32   -83153.248    -79101.23    380141.15 
Loop time of 62.8335 on 1 procs for 495 steps with 19652 atoms

Performance: 0.681 ns/day, 35.260 hours/ns, 7.878 timesteps/s
99.8% CPU use with 1 MPI tasks x no OpenMP threads

MPI task timing breakdown:
Section |  min time  |  avg time  |  max time  |%varavg| %total
---------------------------------------------------------------
Pair    | 33.533     | 33.533     | 33.533     |   0.0 | 53.37
Neigh   | 28.063     | 28.063     | 28.063     |   0.0 | 44.66
Comm    | 0.48617    | 0.48617    | 0.48617    |   0.0 |  0.77
Output  | 0.00014281 | 0.00014281 | 0.00014281 |   0.0 |  0.00
Modify  | 0.58155    | 0.58155    | 0.58155    |   0.0 |  0.93
Other   |            | 0.1701     |            |       |  0.27

Nlocal:    19652 ave 19652 max 19652 min
Histogram: 1 0 0 0 0 0 0 0 0 0
Nghost:    17277 ave 17277 max 17277 min
Histogram: 1 0 0 0 0 0 0 0 0 0
Neighs:    1.29927e+06 ave 1.29927e+06 max 1.29927e+06 min
Histogram: 1 0 0 0 0 0 0 0 0 0

Total # of neighbors = 1299270
Ave neighs/atom = 66.1139
Neighbor list builds = 495
Dangerous builds not checked
Setting up Verlet run ...
  Unit style    : metal
  Current step  : 56495
  Time step     : 0.001
Per MPI rank memory allocation (min/avg/max) = 18.2 | 18.2 | 18.2 Mbytes
Step Temp Press TotEng PotEng Enthalpy Volume 
   56495    1608.5754   -142.92135    -79067.32   -83153.248    -79101.23    380141.15 
   57000    1614.5726   -410.32899   -79106.009    -83207.17   -79203.355    380100.01 
Loop time of 67.2421 on 1 procs for 505 steps with 19652 atoms

Performance: 0.649 ns/day, 36.987 hours/ns, 7.510 timesteps/s
99.8% CPU use with 1 MPI tasks x no OpenMP threads

MPI task timing breakdown:
Section |  min time  |  avg time  |  max time  |%varavg| %total
---------------------------------------------------------------
Pair    | 36.012     | 36.012     | 36.012     |   0.0 | 53.56
Neigh   | 29.716     | 29.716     | 29.716     |   0.0 | 44.19
Comm    | 0.52073    | 0.52073    | 0.52073    |   0.0 |  0.77
Output  | 0.1782     | 0.1782     | 0.1782     |   0.0 |  0.27
Modify  | 0.63279    | 0.63279    | 0.63279    |   0.0 |  0.94
Other   |            | 0.1828     |            |       |  0.27

Nlocal:    19652 ave 19652 max 19652 min
Histogram: 1 0 0 0 0 0 0 0 0 0
Nghost:    17339 ave 17339 max 17339 min
Histogram: 1 0 0 0 0 0 0 0 0 0
Neighs:    1.29947e+06 ave 1.29947e+06 max 1.29947e+06 min
Histogram: 1 0 0 0 0 0 0 0 0 0

Total # of neighbors = 1299474
Ave neighs/atom = 66.1243
Neighbor list builds = 505
Dangerous builds not checked
Setting up Verlet run ...
  Unit style    : metal
  Current step  : 57000
  Time step     : 0.001
Per MPI rank memory allocation (min/avg/max) = 18.2 | 18.2 | 18.2 Mbytes
Step Temp Press TotEng PotEng Enthalpy Volume 
   57000    1614.5726   -410.32899   -79106.009    -83207.17   -79203.355    380100.01 
   57495    1555.7461    -951.7257   -79306.303    -83258.04   -79531.699    379441.04 
Loop time of 62.2075 on 1 procs for 495 steps with 19652 atoms

Performance: 0.688 ns/day, 34.909 hours/ns, 7.957 timesteps/s
99.9% CPU use with 1 MPI tasks x no OpenMP threads

MPI task timing breakdown:
Section |  min time  |  avg time  |  max time  |%varavg| %total
---------------------------------------------------------------
Pair    | 33.266     | 33.266     | 33.266     |   0.0 | 53.48
Neigh   | 27.702     | 27.702     | 27.702     |   0.0 | 44.53
Comm    | 0.48274    | 0.48274    | 0.48274    |   0.0 |  0.78
Output  | 0.00012589 | 0.00012589 | 0.00012589 |   0.0 |  0.00
Modify  | 0.58614    | 0.58614    | 0.58614    |   0.0 |  0.94
Other   |            | 0.1708     |            |       |  0.27

Nlocal:    19652 ave 19652 max 19652 min
Histogram: 1 0 0 0 0 0 0 0 0 0
Nghost:    17393 ave 17393 max 17393 min
Histogram: 1 0 0 0 0 0 0 0 0 0
Neighs:    1.3016e+06 ave 1.3016e+06 max 1.3016e+06 min
Histogram: 1 0 0 0 0 0 0 0 0 0

Total # of neighbors = 1301602
Ave neighs/atom = 66.2325
Neighbor list builds = 495
Dangerous builds not checked
Setting up Verlet run ...
  Unit style    : metal
  Current step  : 57495
  Time step     : 0.001
Per MPI rank memory allocation (min/avg/max) = 18.2 | 18.2 | 18.2 Mbytes
Step Temp Press TotEng PotEng Enthalpy Volume 
   57495    1555.7461    -951.7257   -79306.303    -83258.04   -79531.699    379441.04 
   58000    1554.6284   -917.88041   -79342.651   -83291.549   -79560.256    379832.12 
Loop time of 64.9831 on 1 procs for 505 steps with 19652 atoms

Performance: 0.671 ns/day, 35.744 hours/ns, 7.771 timesteps/s
99.6% CPU use with 1 MPI tasks x no OpenMP threads

MPI task timing breakdown:
Section |  min time  |  avg time  |  max time  |%varavg| %total
---------------------------------------------------------------
Pair    | 34.616     | 34.616     | 34.616     |   0.0 | 53.27
Neigh   | 28.92      | 28.92      | 28.92      |   0.0 | 44.50
Comm    | 0.50031    | 0.50031    | 0.50031    |   0.0 |  0.77
Output  | 0.16979    | 0.16979    | 0.16979    |   0.0 |  0.26
Modify  | 0.60121    | 0.60121    | 0.60121    |   0.0 |  0.93
Other   |            | 0.1767     |            |       |  0.27

Nlocal:    19652 ave 19652 max 19652 min
Histogram: 1 0 0 0 0 0 0 0 0 0
Nghost:    17303 ave 17303 max 17303 min
Histogram: 1 0 0 0 0 0 0 0 0 0
Neighs:    1.30034e+06 ave 1.30034e+06 max 1.30034e+06 min
Histogram: 1 0 0 0 0 0 0 0 0 0

Total # of neighbors = 1300336
Ave neighs/atom = 66.1681
Neighbor list builds = 505
Dangerous builds not checked
Setting up Verlet run ...
  Unit style    : metal
  Current step  : 58000
  Time step     : 0.001
Per MPI rank memory allocation (min/avg/max) = 18.2 | 18.2 | 18.2 Mbytes
Step Temp Press TotEng PotEng Enthalpy Volume 
   58000    1554.6284   -917.88041   -79342.651   -83291.549   -79560.256    379832.12 
   58495    1504.2758   -852.45149   -79554.325   -83375.322   -79755.847    378759.97 
Loop time of 58.1047 on 1 procs for 495 steps with 19652 atoms

Performance: 0.736 ns/day, 32.606 hours/ns, 8.519 timesteps/s
100.0% CPU use with 1 MPI tasks x no OpenMP threads

MPI task timing breakdown:
Section |  min time  |  avg time  |  max time  |%varavg| %total
---------------------------------------------------------------
Pair    | 30.791     | 30.791     | 30.791     |   0.0 | 52.99
Neigh   | 26.148     | 26.148     | 26.148     |   0.0 | 45.00
Comm    | 0.44434    | 0.44434    | 0.44434    |   0.0 |  0.76
Output  | 0.00018597 | 0.00018597 | 0.00018597 |   0.0 |  0.00
Modify  | 0.55845    | 0.55845    | 0.55845    |   0.0 |  0.96
Other   |            | 0.163      |            |       |  0.28

Nlocal:    19652 ave 19652 max 19652 min
Histogram: 1 0 0 0 0 0 0 0 0 0
Nghost:    17390 ave 17390 max 17390 min
Histogram: 1 0 0 0 0 0 0 0 0 0
Neighs:    1.30411e+06 ave 1.30411e+06 max 1.30411e+06 min
Histogram: 1 0 0 0 0 0 0 0 0 0

Total # of neighbors = 1304107
Ave neighs/atom = 66.36
Neighbor list builds = 495
Dangerous builds not checked
Setting up Verlet run ...
  Unit style    : metal
  Current step  : 58495
  Time step     : 0.001
Per MPI rank memory allocation (min/avg/max) = 18.2 | 18.2 | 18.2 Mbytes
Step Temp Press TotEng PotEng Enthalpy Volume 
   58495    1504.2758   -852.45149   -79554.325   -83375.322   -79755.847    378759.97 
   59000    1501.6391   -465.95057     -79627.1     -83441.4   -79737.279    378853.72 
Loop time of 65.6387 on 1 procs for 505 steps with 19652 atoms

Performance: 0.665 ns/day, 36.105 hours/ns, 7.694 timesteps/s
98.2% CPU use with 1 MPI tasks x no OpenMP threads

MPI task timing breakdown:
Section |  min time  |  avg time  |  max time  |%varavg| %total
---------------------------------------------------------------
Pair    | 34.525     | 34.525     | 34.525     |   0.0 | 52.60
Neigh   | 28.614     | 28.614     | 28.614     |   0.0 | 43.59
Comm    | 0.50758    | 0.50758    | 0.50758    |   0.0 |  0.77
Output  | 1.2231     | 1.2231     | 1.2231     |   0.0 |  1.86
Modify  | 0.59601    | 0.59601    | 0.59601    |   0.0 |  0.91
Other   |            | 0.1737     |            |       |  0.26

Nlocal:    19652 ave 19652 max 19652 min
Histogram: 1 0 0 0 0 0 0 0 0 0
Nghost:    17355 ave 17355 max 17355 min
Histogram: 1 0 0 0 0 0 0 0 0 0
Neighs:    1.30329e+06 ave 1.30329e+06 max 1.30329e+06 min
Histogram: 1 0 0 0 0 0 0 0 0 0

Total # of neighbors = 1303290
Ave neighs/atom = 66.3184
Neighbor list builds = 505
Dangerous builds not checked
Setting up Verlet run ...
  Unit style    : metal
  Current step  : 59000
  Time step     : 0.001
Per MPI rank memory allocation (min/avg/max) = 18.2 | 18.2 | 18.2 Mbytes
Step Temp Press TotEng PotEng Enthalpy Volume 
   59000    1501.6391   -465.95057     -79627.1     -83441.4   -79737.279    378853.72 
   59495    1444.1338    855.09891   -79811.576   -83479.807   -79610.086    377526.13 
Loop time of 63.9225 on 1 procs for 495 steps with 19652 atoms

Performance: 0.669 ns/day, 35.871 hours/ns, 7.744 timesteps/s
99.9% CPU use with 1 MPI tasks x no OpenMP threads

MPI task timing breakdown:
Section |  min time  |  avg time  |  max time  |%varavg| %total
---------------------------------------------------------------
Pair    | 34.358     | 34.358     | 34.358     |   0.0 | 53.75
Neigh   | 28.286     | 28.286     | 28.286     |   0.0 | 44.25
Comm    | 0.49957    | 0.49957    | 0.49957    |   0.0 |  0.78
Output  | 0.0001781  | 0.0001781  | 0.0001781  |   0.0 |  0.00
Modify  | 0.60421    | 0.60421    | 0.60421    |   0.0 |  0.95
Other   |            | 0.1753     |            |       |  0.27

Nlocal:    19652 ave 19652 max 19652 min
Histogram: 1 0 0 0 0 0 0 0 0 0
Nghost:    17292 ave 17292 max 17292 min
Histogram: 1 0 0 0 0 0 0 0 0 0
Neighs:    1.3085e+06 ave 1.3085e+06 max 1.3085e+06 min
Histogram: 1 0 0 0 0 0 0 0 0 0

Total # of neighbors = 1308502
Ave neighs/atom = 66.5837
Neighbor list builds = 495
Dangerous builds not checked
Setting up Verlet run ...
  Unit style    : metal
  Current step  : 59495
  Time step     : 0.001
Per MPI rank memory allocation (min/avg/max) = 18.2 | 18.2 | 18.2 Mbytes
Step Temp Press TotEng PotEng Enthalpy Volume 
   59495    1444.1338    855.09891   -79811.576   -83479.807   -79610.086    377526.13 
   60000    1450.2415    564.35511   -79827.639   -83511.385    -79694.68    377464.72 
Loop time of 61.7483 on 1 procs for 505 steps with 19652 atoms

Performance: 0.707 ns/day, 33.965 hours/ns, 8.178 timesteps/s
99.6% CPU use with 1 MPI tasks x no OpenMP threads

MPI task timing breakdown:
Section |  min time  |  avg time  |  max time  |%varavg| %total
---------------------------------------------------------------
Pair    | 32.817     | 32.817     | 32.817     |   0.0 | 53.15
Neigh   | 27.585     | 27.585     | 27.585     |   0.0 | 44.67
Comm    | 0.47633    | 0.47633    | 0.47633    |   0.0 |  0.77
Output  | 0.11968    | 0.11968    | 0.11968    |   0.0 |  0.19
Modify  | 0.5801     | 0.5801     | 0.5801     |   0.0 |  0.94
Other   |            | 0.17       |            |       |  0.28

Nlocal:    19652 ave 19652 max 19652 min
Histogram: 1 0 0 0 0 0 0 0 0 0
Nghost:    17364 ave 17364 max 17364 min
Histogram: 1 0 0 0 0 0 0 0 0 0
Neighs:    1.30847e+06 ave 1.30847e+06 max 1.30847e+06 min
Histogram: 1 0 0 0 0 0 0 0 0 0

Total # of neighbors = 1308474
Ave neighs/atom = 66.5822
Neighbor list builds = 505
Dangerous builds not checked
Setting up Verlet run ...
  Unit style    : metal
  Current step  : 60000
  Time step     : 0.001
Per MPI rank memory allocation (min/avg/max) = 18.2 | 18.2 | 18.2 Mbytes
Step Temp Press TotEng PotEng Enthalpy Volume 
   60000    1450.2415    564.35511   -79827.639   -83511.385    -79694.68    377464.72 
   60495    1413.7304    285.52239   -80051.301   -83642.305   -79984.089    377154.32 
Loop time of 61.5126 on 1 procs for 495 steps with 19652 atoms

Performance: 0.695 ns/day, 34.519 hours/ns, 8.047 timesteps/s
99.9% CPU use with 1 MPI tasks x no OpenMP threads

MPI task timing breakdown:
Section |  min time  |  avg time  |  max time  |%varavg| %total
---------------------------------------------------------------
Pair    | 32.819     | 32.819     | 32.819     |   0.0 | 53.35
Neigh   | 27.477     | 27.477     | 27.477     |   0.0 | 44.67
Comm    | 0.46914    | 0.46914    | 0.46914    |   0.0 |  0.76
Output  | 0.00018406 | 0.00018406 | 0.00018406 |   0.0 |  0.00
Modify  | 0.57851    | 0.57851    | 0.57851    |   0.0 |  0.94
Other   |            | 0.1691     |            |       |  0.27

Nlocal:    19652 ave 19652 max 19652 min
Histogram: 1 0 0 0 0 0 0 0 0 0
Nghost:    17434 ave 17434 max 17434 min
Histogram: 1 0 0 0 0 0 0 0 0 0
Neighs:    1.3099e+06 ave 1.3099e+06 max 1.3099e+06 min
Histogram: 1 0 0 0 0 0 0 0 0 0

Total # of neighbors = 1309905
Ave neighs/atom = 66.655
Neighbor list builds = 495
Dangerous builds not checked
Setting up Verlet run ...
  Unit style    : metal
  Current step  : 60495
  Time step     : 0.001
Per MPI rank memory allocation (min/avg/max) = 18.2 | 18.2 | 18.2 Mbytes
Step Temp Press TotEng PotEng Enthalpy Volume 
   60495    1413.7304    285.52239   -80051.301   -83642.305   -79984.089    377154.32 
   61000    1388.2525   -757.92144   -80155.677   -83681.964   -80334.203    377388.44 
Loop time of 62.1582 on 1 procs for 505 steps with 19652 atoms

Performance: 0.702 ns/day, 34.190 hours/ns, 8.124 timesteps/s
99.7% CPU use with 1 MPI tasks x no OpenMP threads

MPI task timing breakdown:
Section |  min time  |  avg time  |  max time  |%varavg| %total
---------------------------------------------------------------
Pair    | 33.029     | 33.029     | 33.029     |   0.0 | 53.14
Neigh   | 27.751     | 27.751     | 27.751     |   0.0 | 44.64
Comm    | 0.47494    | 0.47494    | 0.47494    |   0.0 |  0.76
Output  | 0.14956    | 0.14956    | 0.14956    |   0.0 |  0.24
Modify  | 0.58188    | 0.58188    | 0.58188    |   0.0 |  0.94
Other   |            | 0.1722     |            |       |  0.28

Nlocal:    19652 ave 19652 max 19652 min
Histogram: 1 0 0 0 0 0 0 0 0 0
Nghost:    17300 ave 17300 max 17300 min
Histogram: 1 0 0 0 0 0 0 0 0 0
Neighs:    1.30873e+06 ave 1.30873e+06 max 1.30873e+06 min
Histogram: 1 0 0 0 0 0 0 0 0 0

Total # of neighbors = 1308726
Ave neighs/atom = 66.5951
Neighbor list builds = 505
Dangerous builds not checked
Setting up Verlet run ...
  Unit style    : metal
  Current step  : 61000
  Time step     : 0.001
Per MPI rank memory allocation (min/avg/max) = 18.2 | 18.2 | 18.2 Mbytes
Step Temp Press TotEng PotEng Enthalpy Volume 
   61000    1388.2525   -757.92144   -80155.677   -83681.964   -80334.203    377388.44 
   61495    1356.0946   -157.22781   -80305.707   -83750.311   -80342.636    376307.89 
Loop time of 69.8467 on 1 procs for 495 steps with 19652 atoms

Performance: 0.612 ns/day, 39.196 hours/ns, 7.087 timesteps/s
98.6% CPU use with 1 MPI tasks x no OpenMP threads

MPI task timing breakdown:
Section |  min time  |  avg time  |  max time  |%varavg| %total
---------------------------------------------------------------
Pair    | 37.05      | 37.05      | 37.05      |   0.0 | 53.04
Neigh   | 31.429     | 31.429     | 31.429     |   0.0 | 45.00
Comm    | 0.52994    | 0.52994    | 0.52994    |   0.0 |  0.76
Output  | 0.00016308 | 0.00016308 | 0.00016308 |   0.0 |  0.00
Modify  | 0.63838    | 0.63838    | 0.63838    |   0.0 |  0.91
Other   |            | 0.1994     |            |       |  0.29

Nlocal:    19652 ave 19652 max 19652 min
Histogram: 1 0 0 0 0 0 0 0 0 0
Nghost:    17370 ave 17370 max 17370 min
Histogram: 1 0 0 0 0 0 0 0 0 0
Neighs:    1.31312e+06 ave 1.31312e+06 max 1.31312e+06 min
Histogram: 1 0 0 0 0 0 0 0 0 0

Total # of neighbors = 1313118
Ave neighs/atom = 66.8185
Neighbor list builds = 495
Dangerous builds not checked
Setting up Verlet run ...
  Unit style    : metal
  Current step  : 61495
  Time step     : 0.001
Per MPI rank memory allocation (min/avg/max) = 18.2 | 18.2 | 18.2 Mbytes
Step Temp Press TotEng PotEng Enthalpy Volume 
   61495    1356.0946   -157.22781   -80305.707   -83750.311   -80342.636    376307.89 
   62000    1355.7652     570.1124   -80333.397   -83777.164    -80199.43    376484.32 
Loop time of 63.684 on 1 procs for 505 steps with 19652 atoms

Performance: 0.685 ns/day, 35.030 hours/ns, 7.930 timesteps/s
98.8% CPU use with 1 MPI tasks x no OpenMP threads

MPI task timing breakdown:
Section |  min time  |  avg time  |  max time  |%varavg| %total
---------------------------------------------------------------
Pair    | 32.441     | 32.441     | 32.441     |   0.0 | 50.94
Neigh   | 29.742     | 29.742     | 29.742     |   0.0 | 46.70
Comm    | 0.46898    | 0.46898    | 0.46898    |   0.0 |  0.74
Output  | 0.27136    | 0.27136    | 0.27136    |   0.0 |  0.43
Modify  | 0.59649    | 0.59649    | 0.59649    |   0.0 |  0.94
Other   |            | 0.1645     |            |       |  0.26

Nlocal:    19652 ave 19652 max 19652 min
Histogram: 1 0 0 0 0 0 0 0 0 0
Nghost:    17463 ave 17463 max 17463 min
Histogram: 1 0 0 0 0 0 0 0 0 0
Neighs:    1.31177e+06 ave 1.31177e+06 max 1.31177e+06 min
Histogram: 1 0 0 0 0 0 0 0 0 0

Total # of neighbors = 1311766
Ave neighs/atom = 66.7497
Neighbor list builds = 505
Dangerous builds not checked
Setting up Verlet run ...
  Unit style    : metal
  Current step  : 62000
  Time step     : 0.001
Per MPI rank memory allocation (min/avg/max) = 18.2 | 18.2 | 18.2 Mbytes
Step Temp Press TotEng PotEng Enthalpy Volume 
   62000    1355.7652     570.1124   -80333.397   -83777.164    -80199.43    376484.32 
   62495    1322.4505    1187.8664   -80565.344   -83924.489   -80286.759    375752.15 
Loop time of 59.2517 on 1 procs for 495 steps with 19652 atoms

Performance: 0.722 ns/day, 33.250 hours/ns, 8.354 timesteps/s
99.9% CPU use with 1 MPI tasks x no OpenMP threads

MPI task timing breakdown:
Section |  min time  |  avg time  |  max time  |%varavg| %total
---------------------------------------------------------------
Pair    | 30.405     | 30.405     | 30.405     |   0.0 | 51.32
Neigh   | 27.713     | 27.713     | 27.713     |   0.0 | 46.77
Comm    | 0.42507    | 0.42507    | 0.42507    |   0.0 |  0.72
Output  | 0.00012803 | 0.00012803 | 0.00012803 |   0.0 |  0.00
Modify  | 0.56015    | 0.56015    | 0.56015    |   0.0 |  0.95
Other   |            | 0.148      |            |       |  0.25

Nlocal:    19652 ave 19652 max 19652 min
Histogram: 1 0 0 0 0 0 0 0 0 0
Nghost:    17416 ave 17416 max 17416 min
Histogram: 1 0 0 0 0 0 0 0 0 0
Neighs:    1.31461e+06 ave 1.31461e+06 max 1.31461e+06 min
Histogram: 1 0 0 0 0 0 0 0 0 0

Total # of neighbors = 1314606
Ave neighs/atom = 66.8943
Neighbor list builds = 495
Dangerous builds not checked
Setting up Verlet run ...
  Unit style    : metal
  Current step  : 62495
  Time step     : 0.001
Per MPI rank memory allocation (min/avg/max) = 18.2 | 18.2 | 18.2 Mbytes
Step Temp Press TotEng PotEng Enthalpy Volume 
   62495    1322.4505    1187.8664   -80565.344   -83924.489   -80286.759    375752.15 
   63000    1300.9105    890.88865   -80633.744   -83938.175   -80425.028     375354.4 
Loop time of 61.6234 on 1 procs for 505 steps with 19652 atoms

Performance: 0.708 ns/day, 33.896 hours/ns, 8.195 timesteps/s
100.0% CPU use with 1 MPI tasks x no OpenMP threads

MPI task timing breakdown:
Section |  min time  |  avg time  |  max time  |%varavg| %total
---------------------------------------------------------------
Pair    | 31.439     | 31.439     | 31.439     |   0.0 | 51.02
Neigh   | 28.936     | 28.936     | 28.936     |   0.0 | 46.96
Comm    | 0.44961    | 0.44961    | 0.44961    |   0.0 |  0.73
Output  | 0.063873   | 0.063873   | 0.063873   |   0.0 |  0.10
Modify  | 0.58147    | 0.58147    | 0.58147    |   0.0 |  0.94
Other   |            | 0.1533     |            |       |  0.25

Nlocal:    19652 ave 19652 max 19652 min
Histogram: 1 0 0 0 0 0 0 0 0 0
Nghost:    17462 ave 17462 max 17462 min
Histogram: 1 0 0 0 0 0 0 0 0 0
Neighs:    1.31676e+06 ave 1.31676e+06 max 1.31676e+06 min
Histogram: 1 0 0 0 0 0 0 0 0 0

Total # of neighbors = 1316755
Ave neighs/atom = 67.0036
Neighbor list builds = 505
Dangerous builds not checked
Setting up Verlet run ...
  Unit style    : metal
  Current step  : 63000
  Time step     : 0.001
Per MPI rank memory allocation (min/avg/max) = 18.2 | 18.2 | 18.2 Mbytes
Step Temp Press TotEng PotEng Enthalpy Volume 
   63000    1300.9105    890.88865   -80633.744   -83938.175   -80425.028     375354.4 
   63495    1263.4522    113.90599   -80831.498   -84040.782   -80804.809    375409.04 
Loop time of 58.9253 on 1 procs for 495 steps with 19652 atoms

Performance: 0.726 ns/day, 33.067 hours/ns, 8.400 timesteps/s
100.0% CPU use with 1 MPI tasks x no OpenMP threads

MPI task timing breakdown:
Section |  min time  |  avg time  |  max time  |%varavg| %total
---------------------------------------------------------------
Pair    | 29.905     | 29.905     | 29.905     |   0.0 | 50.75
Neigh   | 27.904     | 27.904     | 27.904     |   0.0 | 47.36
Comm    | 0.42087    | 0.42087    | 0.42087    |   0.0 |  0.71
Output  | 0.00012016 | 0.00012016 | 0.00012016 |   0.0 |  0.00
Modify  | 0.54975    | 0.54975    | 0.54975    |   0.0 |  0.93
Other   |            | 0.1451     |            |       |  0.25

Nlocal:    19652 ave 19652 max 19652 min
Histogram: 1 0 0 0 0 0 0 0 0 0
Nghost:    17415 ave 17415 max 17415 min
Histogram: 1 0 0 0 0 0 0 0 0 0
Neighs:    1.3155e+06 ave 1.3155e+06 max 1.3155e+06 min
Histogram: 1 0 0 0 0 0 0 0 0 0

Total # of neighbors = 1315502
Ave neighs/atom = 66.9399
Neighbor list builds = 495
Dangerous builds not checked
Setting up Verlet run ...
  Unit style    : metal
  Current step  : 63495
  Time step     : 0.001
Per MPI rank memory allocation (min/avg/max) = 18.2 | 18.2 | 18.2 Mbytes
Step Temp Press TotEng PotEng Enthalpy Volume 
   63495    1263.4522    113.90599   -80831.498   -84040.782   -80804.809    375409.04 
   64000    1248.0402    335.74694   -80923.831   -84093.967   -80845.173    375353.74 
Loop time of 58.5319 on 1 procs for 505 steps with 19652 atoms

Performance: 0.745 ns/day, 32.196 hours/ns, 8.628 timesteps/s
99.8% CPU use with 1 MPI tasks x no OpenMP threads

MPI task timing breakdown:
Section |  min time  |  avg time  |  max time  |%varavg| %total
---------------------------------------------------------------
Pair    | 29.684     | 29.684     | 29.684     |   0.0 | 50.72
Neigh   | 27.697     | 27.697     | 27.697     |   0.0 | 47.32
Comm    | 0.41386    | 0.41386    | 0.41386    |   0.0 |  0.71
Output  | 0.057871   | 0.057871   | 0.057871   |   0.0 |  0.10
Modify  | 0.53729    | 0.53729    | 0.53729    |   0.0 |  0.92
Other   |            | 0.141      |            |       |  0.24

Nlocal:    19652 ave 19652 max 19652 min
Histogram: 1 0 0 0 0 0 0 0 0 0
Nghost:    17431 ave 17431 max 17431 min
Histogram: 1 0 0 0 0 0 0 0 0 0
Neighs:    1.31622e+06 ave 1.31622e+06 max 1.31622e+06 min
Histogram: 1 0 0 0 0 0 0 0 0 0

Total # of neighbors = 1316221
Ave neighs/atom = 66.9764
Neighbor list builds = 505
Dangerous builds not checked
Setting up Verlet run ...
  Unit style    : metal
  Current step  : 64000
  Time step     : 0.001
Per MPI rank memory allocation (min/avg/max) = 18.2 | 18.2 | 18.2 Mbytes
Step Temp Press TotEng PotEng Enthalpy Volume 
   64000    1248.0402    335.74694   -80923.831   -84093.967   -80845.173    375353.74 
   64495    1225.5124   -316.52233   -81121.777    -84234.69   -81195.934    375370.92 
Loop time of 56.5745 on 1 procs for 495 steps with 19652 atoms

Performance: 0.756 ns/day, 31.748 hours/ns, 8.750 timesteps/s
[...]
Loop time of 52.2675 on 1 procs for 495 steps with 19652 atoms

Performance: 0.818 ns/day, 29.331 hours/ns, 9.471 timesteps/s
99.7% CPU use with 1 MPI tasks x no OpenMP threads

MPI task timing breakdown:
Section |  min time  |  avg time  |  max time  |%varavg| %total
---------------------------------------------------------------
Pair    | 26.432     | 26.432     | 26.432     |   0.0 | 50.57
Neigh   | 24.841     | 24.841     | 24.841     |   0.0 | 47.53
Comm    | 0.36688    | 0.36688    | 0.36688    |   0.0 |  0.70
Output  | 0.000144   | 0.000144   | 0.000144   |   0.0 |  0.00
Modify  | 0.497      | 0.497      | 0.497      |   0.0 |  0.95
Other   |            | 0.1312     |            |       |  0.25

Nlocal:    19652 ave 19652 max 19652 min
Histogram: 1 0 0 0 0 0 0 0 0 0
Nghost:    17525 ave 17525 max 17525 min
Histogram: 1 0 0 0 0 0 0 0 0 0
Neighs:    1.34118e+06 ave 1.34118e+06 max 1.34118e+06 min
Histogram: 1 0 0 0 0 0 0 0 0 0

Total # of neighbors = 1341175
Ave neighs/atom = 68.2462
Neighbor list builds = 495
Dangerous builds not checked
Setting up Verlet run ...
  Unit style    : metal
  Current step  : 80495
  Time step     : 0.001
Per MPI rank memory allocation (min/avg/max) = 18.2 | 18.2 | 18.2 Mbytes
Step Temp Press TotEng PotEng Enthalpy Volume 
   80495    422.39649   -295.18279   -86602.882   -87675.807   -86670.804    368663.63 
   81000    400.13844    20.679675   -86782.601   -87798.989   -86777.847     368293.5 
Loop time of 55.145 on 1 procs for 505 steps with 19652 atoms

Performance: 0.791 ns/day, 30.333 hours/ns, 9.158 timesteps/s
99.6% CPU use with 1 MPI tasks x no OpenMP threads

MPI task timing breakdown:
Section |  min time  |  avg time  |  max time  |%varavg| %total
---------------------------------------------------------------
Pair    | 27.843     | 27.843     | 27.843     |   0.0 | 50.49
Neigh   | 26.03      | 26.03      | 26.03      |   0.0 | 47.20
Comm    | 0.39037    | 0.39037    | 0.39037    |   0.0 |  0.71
Output  | 0.21853    | 0.21853    | 0.21853    |   0.0 |  0.40
Modify  | 0.52522    | 0.52522    | 0.52522    |   0.0 |  0.95
Other   |            | 0.1381     |            |       |  0.25

Nlocal:    19652 ave 19652 max 19652 min
Histogram: 1 0 0 0 0 0 0 0 0 0
Nghost:    17596 ave 17596 max 17596 min
Histogram: 1 0 0 0 0 0 0 0 0 0
Neighs:    1.34253e+06 ave 1.34253e+06 max 1.34253e+06 min
Histogram: 1 0 0 0 0 0 0 0 0 0

Total # of neighbors = 1342531
Ave neighs/atom = 68.3152
Neighbor list builds = 505
Dangerous builds not checked
Setting up Verlet run ...
  Unit style    : metal
  Current step  : 81000
  Time step     : 0.001
Per MPI rank memory allocation (min/avg/max) = 18.2 | 18.2 | 18.2 Mbytes
Step Temp Press TotEng PotEng Enthalpy Volume 
   81000    400.13844    20.679675   -86782.601   -87798.989   -86777.847     368293.5 
   81495    375.10003   -198.51916   -86956.125   -87908.913   -87001.745    368186.07 
Loop time of 64.1099 on 1 procs for 495 steps with 19652 atoms

Performance: 0.667 ns/day, 35.976 hours/ns, 7.721 timesteps/s
100.0% CPU use with 1 MPI tasks x no OpenMP threads

MPI task timing breakdown:
Section |  min time  |  avg time  |  max time  |%varavg| %total
---------------------------------------------------------------
Pair    | 33.265     | 33.265     | 33.265     |   0.0 | 51.89
Neigh   | 29.583     | 29.583     | 29.583     |   0.0 | 46.14
Comm    | 0.48874    | 0.48874    | 0.48874    |   0.0 |  0.76
Output  | 0.00018978 | 0.00018978 | 0.00018978 |   0.0 |  0.00
Modify  | 0.59985    | 0.59985    | 0.59985    |   0.0 |  0.94
Other   |            | 0.1736     |            |       |  0.27

Nlocal:    19652 ave 19652 max 19652 min
Histogram: 1 0 0 0 0 0 0 0 0 0
Nghost:    17591 ave 17591 max 17591 min
Histogram: 1 0 0 0 0 0 0 0 0 0
Neighs:    1.34251e+06 ave 1.34251e+06 max 1.34251e+06 min
Histogram: 1 0 0 0 0 0 0 0 0 0

Total # of neighbors = 1342507
Ave neighs/atom = 68.314
Neighbor list builds = 495
Dangerous builds not checked
Setting up Verlet run ...
  Unit style    : metal
  Current step  : 81495
  Time step     : 0.001
Per MPI rank memory allocation (min/avg/max) = 18.2 | 18.2 | 18.2 Mbytes
Step Temp Press TotEng PotEng Enthalpy Volume 
   81495    375.10003   -198.51916   -86956.125   -87908.913   -87001.745    368186.07 
   82000    352.05973    301.65556   -87127.943   -88022.207   -87058.646    368051.93 
Loop time of 62.6997 on 1 procs for 505 steps with 19652 atoms

Performance: 0.696 ns/day, 34.488 hours/ns, 8.054 timesteps/s
98.8% CPU use with 1 MPI tasks x no OpenMP threads

MPI task timing breakdown:
Section |  min time  |  avg time  |  max time  |%varavg| %total
---------------------------------------------------------------
Pair    | 32.155     | 32.155     | 32.155     |   0.0 | 51.28
Neigh   | 29.124     | 29.124     | 29.124     |   0.0 | 46.45
Comm    | 0.48275    | 0.48275    | 0.48275    |   0.0 |  0.77
Output  | 0.17086    | 0.17086    | 0.17086    |   0.0 |  0.27
Modify  | 0.59601    | 0.59601    | 0.59601    |   0.0 |  0.95
Other   |            | 0.1716     |            |       |  0.27

Nlocal:    19652 ave 19652 max 19652 min
Histogram: 1 0 0 0 0 0 0 0 0 0
Nghost:    17636 ave 17636 max 17636 min
Histogram: 1 0 0 0 0 0 0 0 0 0
Neighs:    1.34327e+06 ave 1.34327e+06 max 1.34327e+06 min
Histogram: 1 0 0 0 0 0 0 0 0 0

Total # of neighbors = 1343267
Ave neighs/atom = 68.3527
Neighbor list builds = 505
Dangerous builds not checked
Setting up Verlet run ...
  Unit style    : metal
  Current step  : 82000
  Time step     : 0.001
Per MPI rank memory allocation (min/avg/max) = 18.2 | 18.2 | 18.2 Mbytes
Step Temp Press TotEng PotEng Enthalpy Volume 
   82000    352.05973    301.65556   -87127.943   -88022.207   -87058.646    368051.93 
   82495    325.77007   -260.73598   -87288.463   -88115.948   -87348.295    367661.62 
Loop time of 62.5673 on 1 procs for 495 steps with 19652 atoms

Performance: 0.684 ns/day, 35.111 hours/ns, 7.911 timesteps/s
100.0% CPU use with 1 MPI tasks x no OpenMP threads

MPI task timing breakdown:
Section |  min time  |  avg time  |  max time  |%varavg| %total
---------------------------------------------------------------
Pair    | 32.292     | 32.292     | 32.292     |   0.0 | 51.61
Neigh   | 29.027     | 29.027     | 29.027     |   0.0 | 46.39
Comm    | 0.47684    | 0.47684    | 0.47684    |   0.0 |  0.76
Output  | 0.00013494 | 0.00013494 | 0.00013494 |   0.0 |  0.00
Modify  | 0.59638    | 0.59638    | 0.59638    |   0.0 |  0.95
Other   |            | 0.1747     |            |       |  0.28

Nlocal:    19652 ave 19652 max 19652 min
Histogram: 1 0 0 0 0 0 0 0 0 0
Nghost:    17575 ave 17575 max 17575 min
Histogram: 1 0 0 0 0 0 0 0 0 0
Neighs:    1.34399e+06 ave 1.34399e+06 max 1.34399e+06 min
Histogram: 1 0 0 0 0 0 0 0 0 0

Total # of neighbors = 1343992
Ave neighs/atom = 68.3896
Neighbor list builds = 495
Dangerous builds not checked
Setting up Verlet run ...
  Unit style    : metal
  Current step  : 82495
  Time step     : 0.001
Per MPI rank memory allocation (min/avg/max) = 18.2 | 18.2 | 18.2 Mbytes
Step Temp Press TotEng PotEng Enthalpy Volume 
   82495    325.77007   -260.73598   -87288.463   -88115.948   -87348.295    367661.62 
   83000    299.96078    106.60955   -87448.686   -88210.614   -87424.236    367443.55 
Loop time of 65.4996 on 1 procs for 505 steps with 19652 atoms

Performance: 0.666 ns/day, 36.028 hours/ns, 7.710 timesteps/s
99.4% CPU use with 1 MPI tasks x no OpenMP threads

MPI task timing breakdown:
Section |  min time  |  avg time  |  max time  |%varavg| %total
---------------------------------------------------------------
Pair    | 33.877     | 33.877     | 33.877     |   0.0 | 51.72
Neigh   | 30.136     | 30.136     | 30.136     |   0.0 | 46.01
Comm    | 0.50309    | 0.50309    | 0.50309    |   0.0 |  0.77
Output  | 0.17261    | 0.17261    | 0.17261    |   0.0 |  0.26
Modify  | 0.62263    | 0.62263    | 0.62263    |   0.0 |  0.95
Other   |            | 0.1884     |            |       |  0.29

Nlocal:    19652 ave 19652 max 19652 min
Histogram: 1 0 0 0 0 0 0 0 0 0
Nghost:    17609 ave 17609 max 17609 min
Histogram: 1 0 0 0 0 0 0 0 0 0
Neighs:    1.34496e+06 ave 1.34496e+06 max 1.34496e+06 min
Histogram: 1 0 0 0 0 0 0 0 0 0

Total # of neighbors = 1344955
Ave neighs/atom = 68.4386
Neighbor list builds = 505
Dangerous builds not checked
Setting up Verlet run ...
  Unit style    : metal
  Current step  : 83000
  Time step     : 0.001
Per MPI rank memory allocation (min/avg/max) = 18.2 | 18.2 | 18.2 Mbytes
Step Temp Press TotEng PotEng Enthalpy Volume 
   83000    299.96078    106.60955   -87448.686   -88210.614   -87424.236    367443.55 
   83495    278.29706    76.738723   -87602.235   -88309.135   -87584.648    367195.98 
Loop time of 56.9329 on 1 procs for 495 steps with 19652 atoms

Performance: 0.751 ns/day, 31.949 hours/ns, 8.694 timesteps/s
99.5% CPU use with 1 MPI tasks x no OpenMP threads

MPI task timing breakdown:
Section |  min time  |  avg time  |  max time  |%varavg| %total
---------------------------------------------------------------
Pair    | 29.112     | 29.112     | 29.112     |   0.0 | 51.13
Neigh   | 26.705     | 26.705     | 26.705     |   0.0 | 46.91
Comm    | 0.42194    | 0.42194    | 0.42194    |   0.0 |  0.74
Output  | 0.0001421  | 0.0001421  | 0.0001421  |   0.0 |  0.00
Modify  | 0.54479    | 0.54479    | 0.54479    |   0.0 |  0.96
Other   |            | 0.1491     |            |       |  0.26

Nlocal:    19652 ave 19652 max 19652 min
Histogram: 1 0 0 0 0 0 0 0 0 0
Nghost:    17584 ave 17584 max 17584 min
Histogram: 1 0 0 0 0 0 0 0 0 0
Neighs:    1.34571e+06 ave 1.34571e+06 max 1.34571e+06 min
Histogram: 1 0 0 0 0 0 0 0 0 0

Total # of neighbors = 1345712
Ave neighs/atom = 68.4771
Neighbor list builds = 495
Dangerous builds not checked
Setting up Verlet run ...
  Unit style    : metal
  Current step  : 83495
  Time step     : 0.001
Per MPI rank memory allocation (min/avg/max) = 18.2 | 18.2 | 18.2 Mbytes
Step Temp Press TotEng PotEng Enthalpy Volume 
   83495    278.29706    76.738723   -87602.235   -88309.135   -87584.648    367195.98 
   84000    248.38345    86.152527   -87760.292   -88391.209    -87740.57    366776.43 
Loop time of 61.8054 on 1 procs for 505 steps with 19652 atoms

Performance: 0.706 ns/day, 33.996 hours/ns, 8.171 timesteps/s
99.1% CPU use with 1 MPI tasks x no OpenMP threads

MPI task timing breakdown:
Section |  min time  |  avg time  |  max time  |%varavg| %total
---------------------------------------------------------------
Pair    | 31.654     | 31.654     | 31.654     |   0.0 | 51.22
Neigh   | 28.767     | 28.767     | 28.767     |   0.0 | 46.54
Comm    | 0.46016    | 0.46016    | 0.46016    |   0.0 |  0.74
Output  | 0.14987    | 0.14987    | 0.14987    |   0.0 |  0.24
Modify  | 0.60973    | 0.60973    | 0.60973    |   0.0 |  0.99
Other   |            | 0.1647     |            |       |  0.27

Nlocal:    19652 ave 19652 max 19652 min
Histogram: 1 0 0 0 0 0 0 0 0 0
Nghost:    17629 ave 17629 max 17629 min
Histogram: 1 0 0 0 0 0 0 0 0 0
Neighs:    1.34702e+06 ave 1.34702e+06 max 1.34702e+06 min
Histogram: 1 0 0 0 0 0 0 0 0 0

Total # of neighbors = 1347021
Ave neighs/atom = 68.5437
Neighbor list builds = 505
Dangerous builds not checked
Setting up Verlet run ...
  Unit style    : metal
  Current step  : 84000
  Time step     : 0.001
Per MPI rank memory allocation (min/avg/max) = 18.2 | 18.2 | 18.2 Mbytes
Step Temp Press TotEng PotEng Enthalpy Volume 
   84000    248.38345    86.152527   -87760.292   -88391.209    -87740.57    366776.43 
   84495    228.28875   -223.34116   -87904.902   -88484.776   -87956.036    366822.91 
Loop time of 59.7219 on 1 procs for 495 steps with 19652 atoms

Performance: 0.716 ns/day, 33.514 hours/ns, 8.288 timesteps/s
99.5% CPU use with 1 MPI tasks x no OpenMP threads

MPI task timing breakdown:
Section |  min time  |  avg time  |  max time  |%varavg| %total
---------------------------------------------------------------
Pair    | 30.751     | 30.751     | 30.751     |   0.0 | 51.49
Neigh   | 27.761     | 27.761     | 27.761     |   0.0 | 46.48
Comm    | 0.45897    | 0.45897    | 0.45897    |   0.0 |  0.77
Output  | 0.00011802 | 0.00011802 | 0.00011802 |   0.0 |  0.00
Modify  | 0.59142    | 0.59142    | 0.59142    |   0.0 |  0.99
Other   |            | 0.1592     |            |       |  0.27

Nlocal:    19652 ave 19652 max 19652 min
Histogram: 1 0 0 0 0 0 0 0 0 0
Nghost:    17629 ave 17629 max 17629 min
Histogram: 1 0 0 0 0 0 0 0 0 0
Neighs:    1.34678e+06 ave 1.34678e+06 max 1.34678e+06 min
Histogram: 1 0 0 0 0 0 0 0 0 0

Total # of neighbors = 1346780
Ave neighs/atom = 68.5314
Neighbor list builds = 495
Dangerous builds not checked
Setting up Verlet run ...
  Unit style    : metal
  Current step  : 84495
  Time step     : 0.001
Per MPI rank memory allocation (min/avg/max) = 18.2 | 18.2 | 18.2 Mbytes
Step Temp Press TotEng PotEng Enthalpy Volume 
   84495    228.28875   -223.34116   -87904.902   -88484.776   -87956.036    366822.91 
   85000    201.32905    245.72151   -88050.078   -88561.472   -87993.917    366187.36 
Loop time of 63.2883 on 1 procs for 505 steps with 19652 atoms

Performance: 0.689 ns/day, 34.812 hours/ns, 7.979 timesteps/s
99.3% CPU use with 1 MPI tasks x no OpenMP threads

MPI task timing breakdown:
Section |  min time  |  avg time  |  max time  |%varavg| %total
---------------------------------------------------------------
Pair    | 32.484     | 32.484     | 32.484     |   0.0 | 51.33
Neigh   | 29.378     | 29.378     | 29.378     |   0.0 | 46.42
Comm    | 0.46698    | 0.46698    | 0.46698    |   0.0 |  0.74
Output  | 0.16101    | 0.16101    | 0.16101    |   0.0 |  0.25
Modify  | 0.62982    | 0.62982    | 0.62982    |   0.0 |  1.00
Other   |            | 0.1683     |            |       |  0.27

Nlocal:    19652 ave 19652 max 19652 min
Histogram: 1 0 0 0 0 0 0 0 0 0
Nghost:    17640 ave 17640 max 17640 min
Histogram: 1 0 0 0 0 0 0 0 0 0
Neighs:    1.34929e+06 ave 1.34929e+06 max 1.34929e+06 min
Histogram: 1 0 0 0 0 0 0 0 0 0

Total # of neighbors = 1349293
Ave neighs/atom = 68.6593
Neighbor list builds = 505
Dangerous builds not checked
Setting up Verlet run ...
  Unit style    : metal
  Current step  : 85000
  Time step     : 0.001
Per MPI rank memory allocation (min/avg/max) = 18.2 | 18.2 | 18.2 Mbytes
Step Temp Press TotEng PotEng Enthalpy Volume 
   85000    201.32905    245.72151   -88050.078   -88561.472   -87993.917    366187.36 
   85495     177.2921   -71.936635   -88186.063   -88636.401   -88202.506    366234.32 
Loop time of 57.3787 on 1 procs for 495 steps with 19652 atoms

Performance: 0.745 ns/day, 32.199 hours/ns, 8.627 timesteps/s
99.8% CPU use with 1 MPI tasks x no OpenMP threads

MPI task timing breakdown:
Section |  min time  |  avg time  |  max time  |%varavg| %total
---------------------------------------------------------------
Pair    | 29.329     | 29.329     | 29.329     |   0.0 | 51.11
Neigh   | 26.899     | 26.899     | 26.899     |   0.0 | 46.88
Comm    | 0.42606    | 0.42606    | 0.42606    |   0.0 |  0.74
Output  | 0.00012302 | 0.00012302 | 0.00012302 |   0.0 |  0.00
Modify  | 0.57063    | 0.57063    | 0.57063    |   0.0 |  0.99
Other   |            | 0.1534     |            |       |  0.27

Nlocal:    19652 ave 19652 max 19652 min
Histogram: 1 0 0 0 0 0 0 0 0 0
Nghost:    17629 ave 17629 max 17629 min
Histogram: 1 0 0 0 0 0 0 0 0 0
Neighs:    1.34871e+06 ave 1.34871e+06 max 1.34871e+06 min
Histogram: 1 0 0 0 0 0 0 0 0 0

Total # of neighbors = 1348713
Ave neighs/atom = 68.6298
Neighbor list builds = 495
Dangerous builds not checked
Setting up Verlet run ...
  Unit style    : metal
  Current step  : 85495
  Time step     : 0.001
Per MPI rank memory allocation (min/avg/max) = 18.2 | 18.2 | 18.2 Mbytes
Step Temp Press TotEng PotEng Enthalpy Volume 
   85495     177.2921   -71.936635   -88186.063   -88636.401   -88202.506    366234.32 
   86000    151.88285     184.7215   -88324.691   -88710.487   -88282.506    365892.63 
Loop time of 64.1397 on 1 procs for 505 steps with 19652 atoms

Performance: 0.680 ns/day, 35.280 hours/ns, 7.873 timesteps/s
99.5% CPU use with 1 MPI tasks x no OpenMP threads

MPI task timing breakdown:
Section |  min time  |  avg time  |  max time  |%varavg| %total
---------------------------------------------------------------
Pair    | 33.081     | 33.081     | 33.081     |   0.0 | 51.58
Neigh   | 29.499     | 29.499     | 29.499     |   0.0 | 45.99
Comm    | 0.49698    | 0.49698    | 0.49698    |   0.0 |  0.77
Output  | 0.27169    | 0.27169    | 0.27169    |   0.0 |  0.42
Modify  | 0.61312    | 0.61312    | 0.61312    |   0.0 |  0.96
Other   |            | 0.1775     |            |       |  0.28

Nlocal:    19652 ave 19652 max 19652 min
Histogram: 1 0 0 0 0 0 0 0 0 0
Nghost:    17630 ave 17630 max 17630 min
Histogram: 1 0 0 0 0 0 0 0 0 0
Neighs:    1.35013e+06 ave 1.35013e+06 max 1.35013e+06 min
Histogram: 1 0 0 0 0 0 0 0 0 0

Total # of neighbors = 1350134
Ave neighs/atom = 68.7021
Neighbor list builds = 505
Dangerous builds not checked
Setting up Verlet run ...
  Unit style    : metal
  Current step  : 86000
  Time step     : 0.001
Per MPI rank memory allocation (min/avg/max) = 18.2 | 18.2 | 18.2 Mbytes
Step Temp Press TotEng PotEng Enthalpy Volume 
   86000    151.88285     184.7215   -88324.691   -88710.487   -88282.506    365892.63 
   86495    128.14122    359.28213   -88453.878   -88779.368   -88371.899    365573.59 
Loop time of 67.4373 on 1 procs for 495 steps with 19652 atoms

Performance: 0.634 ns/day, 37.844 hours/ns, 7.340 timesteps/s
99.1% CPU use with 1 MPI tasks x no OpenMP threads

MPI task timing breakdown:
Section |  min time  |  avg time  |  max time  |%varavg| %total
---------------------------------------------------------------
Pair    | 35.164     | 35.164     | 35.164     |   0.0 | 52.14
Neigh   | 30.895     | 30.895     | 30.895     |   0.0 | 45.81
Comm    | 0.529      | 0.529      | 0.529      |   0.0 |  0.78
Output  | 0.00017095 | 0.00017095 | 0.00017095 |   0.0 |  0.00
Modify  | 0.65792    | 0.65792    | 0.65792    |   0.0 |  0.98
Other   |            | 0.1909     |            |       |  0.28

Nlocal:    19652 ave 19652 max 19652 min
Histogram: 1 0 0 0 0 0 0 0 0 0
Nghost:    17625 ave 17625 max 17625 min
Histogram: 1 0 0 0 0 0 0 0 0 0
Neighs:    1.35117e+06 ave 1.35117e+06 max 1.35117e+06 min
Histogram: 1 0 0 0 0 0 0 0 0 0

Total # of neighbors = 1351173
Ave neighs/atom = 68.755
Neighbor list builds = 495
Dangerous builds not checked
Setting up Verlet run ...
  Unit style    : metal
  Current step  : 86495
  Time step     : 0.001
Per MPI rank memory allocation (min/avg/max) = 18.2 | 18.2 | 18.2 Mbytes
Step Temp Press TotEng PotEng Enthalpy Volume 
   86495    128.14122    359.28213   -88453.878   -88779.368   -88371.899    365573.59 
   87000    103.37169    262.16645   -88588.444   -88851.018   -88528.662    365345.58 
Loop time of 70.5181 on 1 procs for 505 steps with 19652 atoms

Performance: 0.619 ns/day, 38.789 hours/ns, 7.161 timesteps/s
98.0% CPU use with 1 MPI tasks x no OpenMP threads

MPI task timing breakdown:
Section |  min time  |  avg time  |  max time  |%varavg| %total
---------------------------------------------------------------
Pair    | 36.705     | 36.705     | 36.705     |   0.0 | 52.05
Neigh   | 32.115     | 32.115     | 32.115     |   0.0 | 45.54
Comm    | 0.56713    | 0.56713    | 0.56713    |   0.0 |  0.80
Output  | 0.22013    | 0.22013    | 0.22013    |   0.0 |  0.31
Modify  | 0.70467    | 0.70467    | 0.70467    |   0.0 |  1.00
Other   |            | 0.2062     |            |       |  0.29

Nlocal:    19652 ave 19652 max 19652 min
Histogram: 1 0 0 0 0 0 0 0 0 0
Nghost:    17668 ave 17668 max 17668 min
Histogram: 1 0 0 0 0 0 0 0 0 0
Neighs:    1.35204e+06 ave 1.35204e+06 max 1.35204e+06 min
Histogram: 1 0 0 0 0 0 0 0 0 0

Total # of neighbors = 1352036
Ave neighs/atom = 68.7989
Neighbor list builds = 505
Dangerous builds not checked
Total wall time: 3:18:53
