LAMMPS (12 Dec 2018)
Lattice spacing in x,y,z = 4 4 4
Created orthogonal box = (0 0 0) to (68 68 68)
  1 by 1 by 1 MPI processor grid
Created 19652 atoms
  Time spent = 0.00374103 secs
Setting atom values ...
  19652 settings made for type/fraction
Neighbor list info ...
  update every 1 steps, delay 0 steps, check no
  max neighbors/atom: 2000, page size: 100000
  master list distance cutoff = 8.5
  ghost atom cutoff = 8.5
  binsize = 4.25, bins = 16 16 16
  1 neighbor lists, perpetual/occasional/extra = 1 0 0
  (1) pair eam/alloy, perpetual
      attributes: half, newton on
      pair build: half/bin/atomonly/newton
      stencil: half/bin/3d/newton
      bin: standard
Setting up Verlet run ...
  Unit style    : metal
  Current step  : 0
  Time step     : 0.001
Per MPI rank memory allocation (min/avg/max) = 18.19 | 18.19 | 18.19 Mbytes
Step Temp Press TotEng PotEng Enthalpy Volume 
       0          300    59437.614   -54989.994   -55752.021   -43325.182       314432 
     667    143.24524    66515.119   -54989.941   -55353.796   -41936.147       314432 
    1000    152.29492    66095.599   -54989.944   -55376.787   -42018.482       314432 
Loop time of 145.127 on 1 procs for 1000 steps with 19652 atoms

Performance: 0.595 ns/day, 40.313 hours/ns, 6.891 timesteps/s
99.6% CPU use with 1 MPI tasks x no OpenMP threads

MPI task timing breakdown:
Section |  min time  |  avg time  |  max time  |%varavg| %total
---------------------------------------------------------------
Pair    | 81.776     | 81.776     | 81.776     |   0.0 | 56.35
Neigh   | 61.363     | 61.363     | 61.363     |   0.0 | 42.28
Comm    | 1.1128     | 1.1128     | 1.1128     |   0.0 |  0.77
Output  | 0.13159    | 0.13159    | 0.13159    |   0.0 |  0.09
Modify  | 0.38488    | 0.38488    | 0.38488    |   0.0 |  0.27
Other   |            | 0.359      |            |       |  0.25

Nlocal:    19652 ave 19652 max 19652 min
Histogram: 1 0 0 0 0 0 0 0 0 0
Nghost:    20102 ave 20102 max 20102 min
Histogram: 1 0 0 0 0 0 0 0 0 0
Neighs:    1.57473e+06 ave 1.57473e+06 max 1.57473e+06 min
Histogram: 1 0 0 0 0 0 0 0 0 0

Total # of neighbors = 1574734
Ave neighs/atom = 80.131
Neighbor list builds = 1000
Dangerous builds not checked
Setting up Verlet run ...
  Unit style    : metal
  Current step  : 1000
  Time step     : 0.001
Per MPI rank memory allocation (min/avg/max) = 18.19 | 18.19 | 18.19 Mbytes
Step Temp Press TotEng PotEng Enthalpy Volume 
    1000    152.29492    66095.599   -54989.944   -55376.787   -42018.482       314432 
    1334    172.33595    17.566998   -55149.602   -55587.351   -55145.939    334155.82 
    2000    291.39524   -58.008036   -54521.277   -55261.447   -54533.471    336806.67 
Loop time of 137.772 on 1 procs for 1000 steps with 19652 atoms

Performance: 0.627 ns/day, 38.270 hours/ns, 7.258 timesteps/s
99.4% CPU use with 1 MPI tasks x no OpenMP threads

MPI task timing breakdown:
Section |  min time  |  avg time  |  max time  |%varavg| %total
---------------------------------------------------------------
Pair    | 75.553     | 75.553     | 75.553     |   0.0 | 54.84
Neigh   | 59.247     | 59.247     | 59.247     |   0.0 | 43.00
Comm    | 1.0434     | 1.0434     | 1.0434     |   0.0 |  0.76
Output  | 0.20853    | 0.20853    | 0.20853    |   0.0 |  0.15
Modify  | 1.3494     | 1.3494     | 1.3494     |   0.0 |  0.98
Other   |            | 0.3708     |            |       |  0.27

Nlocal:    19652 ave 19652 max 19652 min
Histogram: 1 0 0 0 0 0 0 0 0 0
Nghost:    20088 ave 20088 max 20088 min
Histogram: 1 0 0 0 0 0 0 0 0 0
Neighs:    1.40869e+06 ave 1.40869e+06 max 1.40869e+06 min
Histogram: 1 0 0 0 0 0 0 0 0 0

Total # of neighbors = 1408691
Ave neighs/atom = 71.6818
Neighbor list builds = 1000
Dangerous builds not checked
Setting up Verlet run ...
  Unit style    : metal
  Current step  : 2000
  Time step     : 0.001
Per MPI rank memory allocation (min/avg/max) = 18.19 | 18.19 | 18.19 Mbytes
Step Temp Press TotEng PotEng Enthalpy Volume 
    2000    291.39524   -58.008036   -54521.277   -55261.447   -54533.471    336806.67 
    2001    291.30167   -52.974471   -54521.275   -55261.207   -54532.411    336806.65 
    2668    380.95068   -432.53003   -54033.266   -55000.916   -54124.819    339128.37 
    3335    570.99712    43.425478   -52991.439   -54441.824   -52982.116    343974.98 
    4002    795.59595   -18.053471   -51693.679   -53714.565   -51697.633    350916.27 
    4669    993.72139   -639.34256   -50455.063   -52979.206   -50598.137    358540.29 
    5336    1187.6805    517.00339   -49233.414   -52250.231   -49115.398    365729.37 
    6003    1349.5334   -301.94942   -47863.239   -51291.177   -47934.173     376385.2 
    6670     1517.378    272.12747   -46151.344   -50005.622   -46084.803    391766.99 
    7337    1708.9137    915.76391   -44238.016   -48578.812   -44003.047    411089.96 
    8004    1908.2903   -483.13179   -43004.842   -47852.073   -43132.411    423046.16 
    8671    2079.8773   -443.35275   -41836.796   -47119.874   -41957.069    434638.02 
    9338    2254.3787   -524.46205   -40797.202    -46523.53   -40942.961     445277.4 
   10000    2441.8119   -322.91009   -39600.227   -45802.651   -39692.592    458287.52 
Loop time of 1115.28 on 1 procs for 8000 steps with 19652 atoms

Performance: 0.620 ns/day, 38.725 hours/ns, 7.173 timesteps/s
98.7% CPU use with 1 MPI tasks x no OpenMP threads

MPI task timing breakdown:
Section |  min time  |  avg time  |  max time  |%varavg| %total
---------------------------------------------------------------
Pair    | 590.83     | 590.83     | 590.83     |   0.0 | 52.98
Neigh   | 499.33     | 499.33     | 499.33     |   0.0 | 44.77
Comm    | 8.7705     | 8.7705     | 8.7705     |   0.0 |  0.79
Output  | 1.7044     | 1.7044     | 1.7044     |   0.0 |  0.15
Modify  | 11.497     | 11.497     | 11.497     |   0.0 |  1.03
Other   |            | 3.156      |            |       |  0.28

Nlocal:    19652 ave 19652 max 19652 min
Histogram: 1 0 0 0 0 0 0 0 0 0
Nghost:    16112 ave 16112 max 16112 min
Histogram: 1 0 0 0 0 0 0 0 0 0
Neighs:    1.07782e+06 ave 1.07782e+06 max 1.07782e+06 min
Histogram: 1 0 0 0 0 0 0 0 0 0

Total # of neighbors = 1077820
Ave neighs/atom = 54.8453
Neighbor list builds = 8000
Dangerous builds not checked
Setting up Verlet run ...
  Unit style    : metal
  Current step  : 10000
  Time step     : 0.001
Per MPI rank memory allocation (min/avg/max) = 18.2 | 18.2 | 18.2 Mbytes
Step Temp Press TotEng PotEng Enthalpy Volume 
   10000    2441.8119   -322.91009   -39600.227   -45802.651   -39692.592    458287.52 
   10005    2441.3316   -234.32069   -39600.177   -45801.382   -39667.202    458287.17 
   10672    2458.6035    467.58816   -39380.642   -45625.719   -39245.991    461378.66 
   11339    2466.7667   -786.21871   -39545.125   -45810.937   -39770.497    459270.04 
   12006    2456.0211    376.88573   -39463.699   -45702.216   -39355.483    460036.61 
   12673    2451.3132    798.74366   -39487.259   -45713.817   -39258.249    459364.37 
   13340    2434.5691   -791.27412   -39510.227   -45694.254   -39737.862    460918.43 
   14007    2449.0502   -270.30894   -39431.564   -45652.374   -39509.472    461778.59 
   14674    2452.3418    917.34888   -39404.432   -45633.603   -39140.486    460989.85 
   15341    2472.0036    443.13687   -39480.117   -45759.232   -39353.168    458988.39 
   16008    2427.5734    1112.9554   -39546.822    -45713.08   -39228.169    458723.33 
   16675    2444.5586   -64.576976   -39506.153   -45715.555   -39524.701    460163.11 
   17342     2469.048    677.32871   -39460.455   -45732.062     -39266.2    459497.28 
   18009    2453.7385    1008.9711   -39480.047   -45712.766   -39190.896    459150.98 
   18676    2445.6342   -542.71013   -39462.264   -45674.398   -39618.482    461183.79 
   19343    2463.0192    607.67489   -39430.925   -45687.218   -39256.407     460128.3 
   20010    2454.1947    187.67757   -39534.903   -45768.781   -39481.103     459282.4 
   20677      2424.95    26.266087   -39545.802   -45705.396   -39538.255    460372.71 
   21344    2454.1485    415.31834   -39513.852   -45747.613   -39394.871    458995.09 
   22011    2417.6246   -347.32605   -39531.605   -45672.592   -39631.576    461156.66 
   22678    2439.8748    207.05101   -39529.994   -45727.499   -39470.578    459772.71 
   23345    2457.4459   -672.19032   -39506.028   -45748.165   -39699.149    460306.23 
   24012    2458.5299   -585.76626   -39463.137   -45708.027   -39631.582    460726.36 
   24679    2461.0649    120.75239   -39498.782   -45750.111   -39464.126    459827.42 
   25346    2445.2433    158.02912   -39450.644   -45661.785   -39405.144    461306.39 
   26013    2445.8458    848.58374   -39472.925   -45685.596   -39229.129    460300.88 
   26680    2444.7697   -244.67857   -39475.057   -45684.995    -39545.42    460737.55 
   27347    2447.1952   -1230.0855   -39492.977   -45709.076   -39846.894    460973.88 
   28014     2483.744   -364.07712    -39443.24   -45752.176   -39547.714    459756.46 
   28681     2455.111   -266.83402   -39423.145   -45659.351   -39499.927    461031.67 
   29348    2453.6703   -242.85665   -39486.943   -45719.489   -39556.714    460294.34 
   30015    2435.5037    152.65941    -39523.12   -45709.522   -39479.285    460058.41 
   30682    2467.9413   -783.73025   -39460.324    -45729.12   -39685.703    460740.04 
   31349    2454.0105    405.33882   -39552.039   -45785.449   -39436.157    458046.35 
   32016    2461.1035   -53.653866   -39429.509   -45680.936   -39444.933    460579.97 
   32683    2446.9391   -370.71863   -39489.527   -45704.976   -39596.105    460607.64 
   33350    2442.8992   -1417.0834   -39471.838   -45677.025   -39880.119    461608.38 
   34017    2469.7237    266.43364   -39420.703   -45694.026   -39344.158    460297.62 
   34684    2454.5941      585.228   -39526.841   -45761.734   -39359.317    458629.96 
   35351     2458.387   -797.04075   -39388.746   -45633.273   -39618.375    461589.57 
   36018    2442.7223    452.30643   -39482.173    -45686.91    -39352.27    460145.53 
   36685    2436.8834   -169.02544   -39483.537   -45673.443    -39532.19    461172.07 
   37352    2458.2301    -366.8761   -39417.253   -45661.382    -39522.92    461454.93 
   38019    2484.5122    -451.2296   -39361.104   -45671.992   -39491.098    461566.21 
   38686    2443.3024    369.28064   -39449.901   -45656.111   -39343.608    461168.01 
   39353    2449.7209   -851.32424   -39466.001   -45688.516   -39711.384    461804.62 
   40000    2471.1932   -612.04879   -39332.318   -45609.374   -39509.183    462983.61 
Loop time of 3870.63 on 1 procs for 30000 steps with 19652 atoms

Performance: 0.670 ns/day, 35.839 hours/ns, 7.751 timesteps/s
98.6% CPU use with 1 MPI tasks x no OpenMP threads

MPI task timing breakdown:
Section |  min time  |  avg time  |  max time  |%varavg| %total
---------------------------------------------------------------
Pair    | 2042.9     | 2042.9     | 2042.9     |   0.0 | 52.78
Neigh   | 1731.8     | 1731.8     | 1731.8     |   0.0 | 44.74
Comm    | 33.151     | 33.151     | 33.151     |   0.0 |  0.86
Output  | 6.901      | 6.901      | 6.901      |   0.0 |  0.18
Modify  | 43.836     | 43.836     | 43.836     |   0.0 |  1.13
Other   |            | 12.11      |            |       |  0.31

Nlocal:    19652 ave 19652 max 19652 min
Histogram: 1 0 0 0 0 0 0 0 0 0
Nghost:    16011 ave 16011 max 16011 min
Histogram: 1 0 0 0 0 0 0 0 0 0
Neighs:    1.06629e+06 ave 1.06629e+06 max 1.06629e+06 min
Histogram: 1 0 0 0 0 0 0 0 0 0

Total # of neighbors = 1066287
Ave neighs/atom = 54.2584
Neighbor list builds = 30000
Dangerous builds not checked
Setting up Verlet run ...
  Unit style    : metal
  Current step  : 40000
  Time step     : 0.001
Per MPI rank memory allocation (min/avg/max) = 18.2 | 18.2 | 18.2 Mbytes
Step Temp Press TotEng PotEng Enthalpy Volume 
   40000    2471.1932   -612.04879   -39332.318   -45609.374   -39509.183    462983.61 
   40020    2461.1714   -334.13088   -39334.354   -45585.953   -39430.906    462972.94 
   40495     2407.486    1153.8625   -39643.583   -45758.817   -39313.582    458217.72 
Loop time of 63.0088 on 1 procs for 495 steps with 19652 atoms

Performance: 0.679 ns/day, 35.358 hours/ns, 7.856 timesteps/s
96.5% CPU use with 1 MPI tasks x no OpenMP threads

MPI task timing breakdown:
Section |  min time  |  avg time  |  max time  |%varavg| %total
---------------------------------------------------------------
Pair    | 32.226     | 32.226     | 32.226     |   0.0 | 51.15
Neigh   | 28.2       | 28.2       | 28.2       |   0.0 | 44.76
Comm    | 0.53771    | 0.53771    | 0.53771    |   0.0 |  0.85
Output  | 1.107      | 1.107      | 1.107      |   0.0 |  1.76
Modify  | 0.7353     | 0.7353     | 0.7353     |   0.0 |  1.17
Other   |            | 0.2025     |            |       |  0.32

Nlocal:    19652 ave 19652 max 19652 min
Histogram: 1 0 0 0 0 0 0 0 0 0
Nghost:    16131 ave 16131 max 16131 min
Histogram: 1 0 0 0 0 0 0 0 0 0
Neighs:    1.07796e+06 ave 1.07796e+06 max 1.07796e+06 min
Histogram: 1 0 0 0 0 0 0 0 0 0

Total # of neighbors = 1077955
Ave neighs/atom = 54.8522
Neighbor list builds = 495
Dangerous builds not checked
Setting up Verlet run ...
  Unit style    : metal
  Current step  : 40495
  Time step     : 0.001
Per MPI rank memory allocation (min/avg/max) = 18.2 | 18.2 | 18.2 Mbytes
Step Temp Press TotEng PotEng Enthalpy Volume 
   40495     2407.486    1153.8625   -39643.583   -45758.817   -39313.582    458217.72 
   40667    2402.1258   -773.53317   -39751.863   -45853.481     -39973.1    458236.86 
Loop time of 18.7651 on 1 procs for 172 steps with 19652 atoms

Performance: 0.792 ns/day, 30.305 hours/ns, 9.166 timesteps/s
99.2% CPU use with 1 MPI tasks x no OpenMP threads

MPI task timing breakdown:
Section |  min time  |  avg time  |  max time  |%varavg| %total
---------------------------------------------------------------
Pair    | 9.6308     | 9.6308     | 9.6308     |   0.0 | 51.32
Neigh   | 8.6806     | 8.6806     | 8.6806     |   0.0 | 46.26
Comm    | 0.16073    | 0.16073    | 0.16073    |   0.0 |  0.86
Output  | 0.00018096 | 0.00018096 | 0.00018096 |   0.0 |  0.00
Modify  | 0.2284     | 0.2284     | 0.2284     |   0.0 |  1.22
Other   |            | 0.06442    |            |       |  0.34

Nlocal:    19652 ave 19652 max 19652 min
Histogram: 1 0 0 0 0 0 0 0 0 0
Nghost:    16094 ave 16094 max 16094 min
Histogram: 1 0 0 0 0 0 0 0 0 0
Neighs:    1.07843e+06 ave 1.07843e+06 max 1.07843e+06 min
Histogram: 1 0 0 0 0 0 0 0 0 0

Total # of neighbors = 1078433
Ave neighs/atom = 54.8765
Neighbor list builds = 172
Dangerous builds not checked
Setting up Verlet run ...
  Unit style    : metal
  Current step  : 40667
  Time step     : 0.001
Per MPI rank memory allocation (min/avg/max) = 18.2 | 18.2 | 18.2 Mbytes
Step Temp Press TotEng PotEng Enthalpy Volume 
   40667    2402.1258   -773.53317   -39751.863   -45853.481     -39973.1    458236.86 
   40687    2396.9424   -686.88553   -39751.911   -45840.364   -39948.361    458222.69 
   41162    2381.6523    583.70207   -39983.516    -46033.13   -39818.284    453537.15 
Loop time of 59.9436 on 1 procs for 495 steps with 19652 atoms

Performance: 0.713 ns/day, 33.638 hours/ns, 8.258 timesteps/s
99.8% CPU use with 1 MPI tasks x no OpenMP threads

MPI task timing breakdown:
Section |  min time  |  avg time  |  max time  |%varavg| %total
---------------------------------------------------------------
Pair    | 31.073     | 31.073     | 31.073     |   0.0 | 51.84
Neigh   | 27.305     | 27.305     | 27.305     |   0.0 | 45.55
Comm    | 0.51596    | 0.51596    | 0.51596    |   0.0 |  0.86
Output  | 0.10646    | 0.10646    | 0.10646    |   0.0 |  0.18
Modify  | 0.74037    | 0.74037    | 0.74037    |   0.0 |  1.24
Other   |            | 0.2023     |            |       |  0.34

Nlocal:    19652 ave 19652 max 19652 min
Histogram: 1 0 0 0 0 0 0 0 0 0
Nghost:    16132 ave 16132 max 16132 min
Histogram: 1 0 0 0 0 0 0 0 0 0
Neighs:    1.09007e+06 ave 1.09007e+06 max 1.09007e+06 min
Histogram: 1 0 0 0 0 0 0 0 0 0

Total # of neighbors = 1090068
Ave neighs/atom = 55.4686
Neighbor list builds = 495
Dangerous builds not checked
Setting up Verlet run ...
  Unit style    : metal
  Current step  : 41162
  Time step     : 0.001
Per MPI rank memory allocation (min/avg/max) = 18.2 | 18.2 | 18.2 Mbytes
Step Temp Press TotEng PotEng Enthalpy Volume 
   41162    2381.6523    583.70207   -39983.516    -46033.13   -39818.284    453537.15 
   41334    2349.9143   -783.89814   -40076.818   -46045.814   -40299.086    454284.85 
Loop time of 21.0558 on 1 procs for 172 steps with 19652 atoms

Performance: 0.706 ns/day, 34.005 hours/ns, 8.169 timesteps/s
92.5% CPU use with 1 MPI tasks x no OpenMP threads

MPI task timing breakdown:
Section |  min time  |  avg time  |  max time  |%varavg| %total
---------------------------------------------------------------
Pair    | 10.889     | 10.889     | 10.889     |   0.0 | 51.72
Neigh   | 9.657      | 9.657      | 9.657      |   0.0 | 45.86
Comm    | 0.18592    | 0.18592    | 0.18592    |   0.0 |  0.88
Output  | 0.00015092 | 0.00015092 | 0.00015092 |   0.0 |  0.00
Modify  | 0.25738    | 0.25738    | 0.25738    |   0.0 |  1.22
Other   |            | 0.06629    |            |       |  0.31

Nlocal:    19652 ave 19652 max 19652 min
Histogram: 1 0 0 0 0 0 0 0 0 0
Nghost:    16056 ave 16056 max 16056 min
Histogram: 1 0 0 0 0 0 0 0 0 0
Neighs:    1.08795e+06 ave 1.08795e+06 max 1.08795e+06 min
Histogram: 1 0 0 0 0 0 0 0 0 0

Total # of neighbors = 1087949
Ave neighs/atom = 55.3607
Neighbor list builds = 172
Dangerous builds not checked
Setting up Verlet run ...
  Unit style    : metal
  Current step  : 41334
  Time step     : 0.001
Per MPI rank memory allocation (min/avg/max) = 18.2 | 18.2 | 18.2 Mbytes
Step Temp Press TotEng PotEng Enthalpy Volume 
   41334    2349.9143   -783.89814   -40076.818   -46045.814   -40299.086    454284.85 
   41354     2347.114   -615.73033   -40076.874   -46038.757   -40251.454    454270.11 
   41829    2309.8404    548.33394   -40312.234   -46179.439    -40157.84    451124.01 
Loop time of 61.1896 on 1 procs for 495 steps with 19652 atoms

Performance: 0.699 ns/day, 34.338 hours/ns, 8.090 timesteps/s
99.2% CPU use with 1 MPI tasks x no OpenMP threads

MPI task timing breakdown:
Section |  min time  |  avg time  |  max time  |%varavg| %total
---------------------------------------------------------------
Pair    | 31.874     | 31.874     | 31.874     |   0.0 | 52.09
Neigh   | 27.742     | 27.742     | 27.742     |   0.0 | 45.34
Comm    | 0.52203    | 0.52203    | 0.52203    |   0.0 |  0.85
Output  | 0.11514    | 0.11514    | 0.11514    |   0.0 |  0.19
Modify  | 0.73577    | 0.73577    | 0.73577    |   0.0 |  1.20
Other   |            | 0.2007     |            |       |  0.33

Nlocal:    19652 ave 19652 max 19652 min
Histogram: 1 0 0 0 0 0 0 0 0 0
Nghost:    16130 ave 16130 max 16130 min
Histogram: 1 0 0 0 0 0 0 0 0 0
Neighs:    1.09565e+06 ave 1.09565e+06 max 1.09565e+06 min
Histogram: 1 0 0 0 0 0 0 0 0 0

Total # of neighbors = 1095651
Ave neighs/atom = 55.7526
Neighbor list builds = 495
Dangerous builds not checked
Setting up Verlet run ...
  Unit style    : metal
  Current step  : 41829
  Time step     : 0.001
Per MPI rank memory allocation (min/avg/max) = 18.2 | 18.2 | 18.2 Mbytes
Step Temp Press TotEng PotEng Enthalpy Volume 
   41829    2309.8404    548.33394   -40312.234   -46179.439    -40157.84    451124.01 
   42001    2288.4074   -572.07748     -40400.1   -46212.863   -40561.278    451400.36 
Loop time of 21.5807 on 1 procs for 172 steps with 19652 atoms

Performance: 0.689 ns/day, 34.853 hours/ns, 7.970 timesteps/s
96.9% CPU use with 1 MPI tasks x no OpenMP threads

MPI task timing breakdown:
Section |  min time  |  avg time  |  max time  |%varavg| %total
---------------------------------------------------------------
Pair    | 11.157     | 11.157     | 11.157     |   0.0 | 51.70
Neigh   | 9.8841     | 9.8841     | 9.8841     |   0.0 | 45.80
Comm    | 0.19022    | 0.19022    | 0.19022    |   0.0 |  0.88
Output  | 0.00019193 | 0.00019193 | 0.00019193 |   0.0 |  0.00
Modify  | 0.27836    | 0.27836    | 0.27836    |   0.0 |  1.29
Other   |            | 0.07091    |            |       |  0.33

Nlocal:    19652 ave 19652 max 19652 min
Histogram: 1 0 0 0 0 0 0 0 0 0
Nghost:    16187 ave 16187 max 16187 min
Histogram: 1 0 0 0 0 0 0 0 0 0
Neighs:    1.09507e+06 ave 1.09507e+06 max 1.09507e+06 min
Histogram: 1 0 0 0 0 0 0 0 0 0

Total # of neighbors = 1095071
Ave neighs/atom = 55.7231
Neighbor list builds = 172
Dangerous builds not checked
Setting up Verlet run ...
  Unit style    : metal
  Current step  : 42001
  Time step     : 0.001
Per MPI rank memory allocation (min/avg/max) = 18.2 | 18.2 | 18.2 Mbytes
Step Temp Press TotEng PotEng Enthalpy Volume 
   42001    2288.4074   -572.07748     -40400.1   -46212.863   -40561.278    451400.36 
   42021    2287.2788   -642.68548   -40399.056   -46208.952   -40580.122    451388.34 
   42496    2259.9755   -589.29559   -40619.884   -46360.427   -40784.856    448527.15 
Loop time of 64.4639 on 1 procs for 495 steps with 19652 atoms

Performance: 0.663 ns/day, 36.175 hours/ns, 7.679 timesteps/s
96.1% CPU use with 1 MPI tasks x no OpenMP threads

MPI task timing breakdown:
Section |  min time  |  avg time  |  max time  |%varavg| %total
---------------------------------------------------------------
Pair    | 32.941     | 32.941     | 32.941     |   0.0 | 51.10
Neigh   | 28.528     | 28.528     | 28.528     |   0.0 | 44.25
Comm    | 0.53827    | 0.53827    | 0.53827    |   0.0 |  0.83
Output  | 1.526      | 1.526      | 1.526      |   0.0 |  2.37
Modify  | 0.72346    | 0.72346    | 0.72346    |   0.0 |  1.12
Other   |            | 0.2072     |            |       |  0.32

Nlocal:    19652 ave 19652 max 19652 min
Histogram: 1 0 0 0 0 0 0 0 0 0
Nghost:    16095 ave 16095 max 16095 min
Histogram: 1 0 0 0 0 0 0 0 0 0
Neighs:    1.10248e+06 ave 1.10248e+06 max 1.10248e+06 min
Histogram: 1 0 0 0 0 0 0 0 0 0

Total # of neighbors = 1102479
Ave neighs/atom = 56.1001
Neighbor list builds = 495
Dangerous builds not checked
Setting up Verlet run ...
  Unit style    : metal
  Current step  : 42496
  Time step     : 0.001
Per MPI rank memory allocation (min/avg/max) = 18.2 | 18.2 | 18.2 Mbytes
Step Temp Press TotEng PotEng Enthalpy Volume 
   42496    2259.9755   -589.29559   -40619.884   -46360.427   -40784.856    448527.15 
   42668    2244.3201   -546.88749   -40677.028   -46377.806   -40829.966    448050.88 
Loop time of 19.6269 on 1 procs for 172 steps with 19652 atoms

Performance: 0.757 ns/day, 31.697 hours/ns, 8.763 timesteps/s
98.7% CPU use with 1 MPI tasks x no OpenMP threads

MPI task timing breakdown:
Section |  min time  |  avg time  |  max time  |%varavg| %total
---------------------------------------------------------------
Pair    | 10.159     | 10.159     | 10.159     |   0.0 | 51.76
Neigh   | 8.9999     | 8.9999     | 8.9999     |   0.0 | 45.85
Comm    | 0.16977    | 0.16977    | 0.16977    |   0.0 |  0.86
Output  | 0.00018001 | 0.00018001 | 0.00018001 |   0.0 |  0.00
Modify  | 0.23136    | 0.23136    | 0.23136    |   0.0 |  1.18
Other   |            | 0.0669     |            |       |  0.34

Nlocal:    19652 ave 19652 max 19652 min
Histogram: 1 0 0 0 0 0 0 0 0 0
Nghost:    16123 ave 16123 max 16123 min
Histogram: 1 0 0 0 0 0 0 0 0 0
Neighs:    1.10361e+06 ave 1.10361e+06 max 1.10361e+06 min
Histogram: 1 0 0 0 0 0 0 0 0 0

Total # of neighbors = 1103609
Ave neighs/atom = 56.1576
Neighbor list builds = 172
Dangerous builds not checked
Setting up Verlet run ...
  Unit style    : metal
  Current step  : 42668
  Time step     : 0.001
Per MPI rank memory allocation (min/avg/max) = 18.2 | 18.2 | 18.2 Mbytes
Step Temp Press TotEng PotEng Enthalpy Volume 
   42668    2244.3201   -546.88749   -40677.028   -46377.806   -40829.966    448050.88 
   42688    2246.9556   -858.45921   -40676.638    -46384.11     -40916.7    448037.69 
   43163    2213.6328   -375.85936   -40911.368   -46534.197   -41015.801    445167.79 
Loop time of 65.5071 on 1 procs for 495 steps with 19652 atoms

Performance: 0.653 ns/day, 36.760 hours/ns, 7.556 timesteps/s
95.9% CPU use with 1 MPI tasks x no OpenMP threads

MPI task timing breakdown:
Section |  min time  |  avg time  |  max time  |%varavg| %total
---------------------------------------------------------------
Pair    | 33.367     | 33.367     | 33.367     |   0.0 | 50.94
Neigh   | 30.49      | 30.49      | 30.49      |   0.0 | 46.54
Comm    | 0.53842    | 0.53842    | 0.53842    |   0.0 |  0.82
Output  | 0.13612    | 0.13612    | 0.13612    |   0.0 |  0.21
Modify  | 0.75562    | 0.75562    | 0.75562    |   0.0 |  1.15
Other   |            | 0.2194     |            |       |  0.33

Nlocal:    19652 ave 19652 max 19652 min
Histogram: 1 0 0 0 0 0 0 0 0 0
Nghost:    16189 ave 16189 max 16189 min
Histogram: 1 0 0 0 0 0 0 0 0 0
Neighs:    1.11056e+06 ave 1.11056e+06 max 1.11056e+06 min
Histogram: 1 0 0 0 0 0 0 0 0 0

Total # of neighbors = 1110564
Ave neighs/atom = 56.5115
Neighbor list builds = 495
Dangerous builds not checked
Setting up Verlet run ...
  Unit style    : metal
  Current step  : 43163
  Time step     : 0.001
Per MPI rank memory allocation (min/avg/max) = 18.2 | 18.2 | 18.2 Mbytes
Step Temp Press TotEng PotEng Enthalpy Volume 
   43163    2213.6328   -375.85936   -40911.368   -46534.197   -41015.801    445167.79 
   43335    2186.3474   -186.83245   -40993.657   -46547.179   -41045.484    444443.78 
Loop time of 18.496 on 1 procs for 172 steps with 19652 atoms

Performance: 0.803 ns/day, 29.871 hours/ns, 9.299 timesteps/s
100.0% CPU use with 1 MPI tasks x no OpenMP threads

MPI task timing breakdown:
Section |  min time  |  avg time  |  max time  |%varavg| %total
---------------------------------------------------------------
Pair    | 9.1887     | 9.1887     | 9.1887     |   0.0 | 49.68
Neigh   | 8.8895     | 8.8895     | 8.8895     |   0.0 | 48.06
Comm    | 0.14965    | 0.14965    | 0.14965    |   0.0 |  0.81
Output  | 0.00015712 | 0.00015712 | 0.00015712 |   0.0 |  0.00
Modify  | 0.20805    | 0.20805    | 0.20805    |   0.0 |  1.12
Other   |            | 0.05986    |            |       |  0.32

Nlocal:    19652 ave 19652 max 19652 min
Histogram: 1 0 0 0 0 0 0 0 0 0
Nghost:    16249 ave 16249 max 16249 min
Histogram: 1 0 0 0 0 0 0 0 0 0
Neighs:    1.11231e+06 ave 1.11231e+06 max 1.11231e+06 min
Histogram: 1 0 0 0 0 0 0 0 0 0

Total # of neighbors = 1112314
Ave neighs/atom = 56.6005
Neighbor list builds = 172
Dangerous builds not checked
Setting up Verlet run ...
  Unit style    : metal
  Current step  : 43335
  Time step     : 0.001
Per MPI rank memory allocation (min/avg/max) = 18.2 | 18.2 | 18.2 Mbytes
Step Temp Press TotEng PotEng Enthalpy Volume 
   43335    2186.3474   -186.83245   -40993.657   -46547.179   -41045.484    444443.78 
   43355    2184.0211    -234.3323   -40992.178   -46539.791   -41057.182    444440.14 
   43830    2179.4592   -225.37826   -41233.382   -46769.407   -41295.459    441291.21 
Loop time of 63.2287 on 1 procs for 495 steps with 19652 atoms

Performance: 0.676 ns/day, 35.482 hours/ns, 7.829 timesteps/s
98.1% CPU use with 1 MPI tasks x no OpenMP threads

MPI task timing breakdown:
Section |  min time  |  avg time  |  max time  |%varavg| %total
---------------------------------------------------------------
Pair    | 31.907     | 31.907     | 31.907     |   0.0 | 50.46
Neigh   | 29.747     | 29.747     | 29.747     |   0.0 | 47.05
Comm    | 0.51029    | 0.51029    | 0.51029    |   0.0 |  0.81
Output  | 0.1421     | 0.1421     | 0.1421     |   0.0 |  0.22
Modify  | 0.71919    | 0.71919    | 0.71919    |   0.0 |  1.14
Other   |            | 0.2029     |            |       |  0.32

Nlocal:    19652 ave 19652 max 19652 min
Histogram: 1 0 0 0 0 0 0 0 0 0
Nghost:    16339 ave 16339 max 16339 min
Histogram: 1 0 0 0 0 0 0 0 0 0
Neighs:    1.12022e+06 ave 1.12022e+06 max 1.12022e+06 min
Histogram: 1 0 0 0 0 0 0 0 0 0

Total # of neighbors = 1120215
Ave neighs/atom = 57.0026
Neighbor list builds = 495
Dangerous builds not checked
Setting up Verlet run ...
  Unit style    : metal
  Current step  : 43830
  Time step     : 0.001
Per MPI rank memory allocation (min/avg/max) = 18.2 | 18.2 | 18.2 Mbytes
Step Temp Press TotEng PotEng Enthalpy Volume 
   43830    2179.4592   -225.37826   -41233.382   -46769.407   -41295.459    441291.21 
   44002    2156.6896   -758.09019   -41337.134   -46815.322   -41545.772    440942.73 
Loop time of 21.7501 on 1 procs for 172 steps with 19652 atoms

Performance: 0.683 ns/day, 35.126 hours/ns, 7.908 timesteps/s
97.3% CPU use with 1 MPI tasks x no OpenMP threads

MPI task timing breakdown:
Section |  min time  |  avg time  |  max time  |%varavg| %total
---------------------------------------------------------------
Pair    | 11.028     | 11.028     | 11.028     |   0.0 | 50.70
Neigh   | 10.213     | 10.213     | 10.213     |   0.0 | 46.95
Comm    | 0.1742     | 0.1742     | 0.1742     |   0.0 |  0.80
Output  | 0.00020003 | 0.00020003 | 0.00020003 |   0.0 |  0.00
Modify  | 0.26575    | 0.26575    | 0.26575    |   0.0 |  1.22
Other   |            | 0.06936    |            |       |  0.32

Nlocal:    19652 ave 19652 max 19652 min
Histogram: 1 0 0 0 0 0 0 0 0 0
Nghost:    16312 ave 16312 max 16312 min
Histogram: 1 0 0 0 0 0 0 0 0 0
Neighs:    1.12122e+06 ave 1.12122e+06 max 1.12122e+06 min
Histogram: 1 0 0 0 0 0 0 0 0 0

Total # of neighbors = 1121216
Ave neighs/atom = 57.0535
Neighbor list builds = 172
Dangerous builds not checked
Setting up Verlet run ...
  Unit style    : metal
  Current step  : 44002
  Time step     : 0.001
Per MPI rank memory allocation (min/avg/max) = 18.2 | 18.2 | 18.2 Mbytes
Step Temp Press TotEng PotEng Enthalpy Volume 
   44002    2156.6896   -758.09019   -41337.134   -46815.322   -41545.772    440942.73 
   44022    2147.8799   -439.96761   -41337.654   -46793.465   -41458.736    440929.31 
   44497    2131.1742   -1141.4813   -41484.492   -46897.868   -41797.948    439965.14 
Loop time of 58.1564 on 1 procs for 495 steps with 19652 atoms

Performance: 0.735 ns/day, 32.635 hours/ns, 8.512 timesteps/s
97.6% CPU use with 1 MPI tasks x no OpenMP threads

MPI task timing breakdown:
Section |  min time  |  avg time  |  max time  |%varavg| %total
---------------------------------------------------------------
Pair    | 29.227     | 29.227     | 29.227     |   0.0 | 50.26
Neigh   | 27.444     | 27.444     | 27.444     |   0.0 | 47.19
Comm    | 0.47609    | 0.47609    | 0.47609    |   0.0 |  0.82
Output  | 0.20859    | 0.20859    | 0.20859    |   0.0 |  0.36
Modify  | 0.62251    | 0.62251    | 0.62251    |   0.0 |  1.07
Other   |            | 0.1782     |            |       |  0.31

Nlocal:    19652 ave 19652 max 19652 min
Histogram: 1 0 0 0 0 0 0 0 0 0
Nghost:    16317 ave 16317 max 16317 min
Histogram: 1 0 0 0 0 0 0 0 0 0
Neighs:    1.12427e+06 ave 1.12427e+06 max 1.12427e+06 min
Histogram: 1 0 0 0 0 0 0 0 0 0

Total # of neighbors = 1124270
Ave neighs/atom = 57.2089
Neighbor list builds = 495
Dangerous builds not checked
Setting up Verlet run ...
  Unit style    : metal
  Current step  : 44497
  Time step     : 0.001
Per MPI rank memory allocation (min/avg/max) = 18.2 | 18.2 | 18.2 Mbytes
Step Temp Press TotEng PotEng Enthalpy Volume 
   44497    2131.1742   -1141.4813   -41484.492   -46897.868   -41797.948    439965.14 
   44669    2106.7247   -527.53731   -41584.224   -46935.497   -41728.645    438618.75 
Loop time of 21.5252 on 1 procs for 172 steps with 19652 atoms

Performance: 0.690 ns/day, 34.763 hours/ns, 7.991 timesteps/s
96.2% CPU use with 1 MPI tasks x no OpenMP threads

MPI task timing breakdown:
Section |  min time  |  avg time  |  max time  |%varavg| %total
---------------------------------------------------------------
Pair    | 10.877     | 10.877     | 10.877     |   0.0 | 50.53
Neigh   | 10.148     | 10.148     | 10.148     |   0.0 | 47.15
Comm    | 0.18113    | 0.18113    | 0.18113    |   0.0 |  0.84
Output  | 0.00018477 | 0.00018477 | 0.00018477 |   0.0 |  0.00
Modify  | 0.24414    | 0.24414    | 0.24414    |   0.0 |  1.13
Other   |            | 0.07494    |            |       |  0.35

Nlocal:    19652 ave 19652 max 19652 min
Histogram: 1 0 0 0 0 0 0 0 0 0
Nghost:    16349 ave 16349 max 16349 min
Histogram: 1 0 0 0 0 0 0 0 0 0
Neighs:    1.12778e+06 ave 1.12778e+06 max 1.12778e+06 min
Histogram: 1 0 0 0 0 0 0 0 0 0

Total # of neighbors = 1127784
Ave neighs/atom = 57.3877
Neighbor list builds = 172
Dangerous builds not checked
Setting up Verlet run ...
  Unit style    : metal
  Current step  : 44669
  Time step     : 0.001
Per MPI rank memory allocation (min/avg/max) = 18.2 | 18.2 | 18.2 Mbytes
Step Temp Press TotEng PotEng Enthalpy Volume 
   44669    2106.7247   -527.53731   -41584.224   -46935.497   -41728.645    438618.75 
   44689    2101.1539   -415.73514   -41584.789   -46921.912     -41698.6    438608.81 
   45164     2070.243    316.85075   -41856.179   -47114.784   -41770.134    435092.18 
Loop time of 65.5329 on 1 procs for 495 steps with 19652 atoms

Performance: 0.653 ns/day, 36.775 hours/ns, 7.553 timesteps/s
97.8% CPU use with 1 MPI tasks x no OpenMP threads

MPI task timing breakdown:
Section |  min time  |  avg time  |  max time  |%varavg| %total
---------------------------------------------------------------
Pair    | 33.169     | 33.169     | 33.169     |   0.0 | 50.62
Neigh   | 30.653     | 30.653     | 30.653     |   0.0 | 46.78
Comm    | 0.53845    | 0.53845    | 0.53845    |   0.0 |  0.82
Output  | 0.20043    | 0.20043    | 0.20043    |   0.0 |  0.31
Modify  | 0.74686    | 0.74686    | 0.74686    |   0.0 |  1.14
Other   |            | 0.2244     |            |       |  0.34

Nlocal:    19652 ave 19652 max 19652 min
Histogram: 1 0 0 0 0 0 0 0 0 0
Nghost:    16368 ave 16368 max 16368 min
Histogram: 1 0 0 0 0 0 0 0 0 0
Neighs:    1.13715e+06 ave 1.13715e+06 max 1.13715e+06 min
Histogram: 1 0 0 0 0 0 0 0 0 0

Total # of neighbors = 1137149
Ave neighs/atom = 57.8643
Neighbor list builds = 495
Dangerous builds not checked
Setting up Verlet run ...
  Unit style    : metal
  Current step  : 45164
  Time step     : 0.001
Per MPI rank memory allocation (min/avg/max) = 18.2 | 18.2 | 18.2 Mbytes
Step Temp Press TotEng PotEng Enthalpy Volume 
   45164     2070.243    316.85075   -41856.179   -47114.784   -41770.134    435092.18 
   45336    2048.0557   -754.02498   -41933.957   -47136.205   -42138.742    435133.34 
Loop time of 21.7349 on 1 procs for 172 steps with 19652 atoms

Performance: 0.684 ns/day, 35.102 hours/ns, 7.914 timesteps/s
98.4% CPU use with 1 MPI tasks x no OpenMP threads

MPI task timing breakdown:
Section |  min time  |  avg time  |  max time  |%varavg| %total
---------------------------------------------------------------
Pair    | 11.093     | 11.093     | 11.093     |   0.0 | 51.04
Neigh   | 10.143     | 10.143     | 10.143     |   0.0 | 46.67
Comm    | 0.18525    | 0.18525    | 0.18525    |   0.0 |  0.85
Output  | 0.00019193 | 0.00019193 | 0.00019193 |   0.0 |  0.00
Modify  | 0.23938    | 0.23938    | 0.23938    |   0.0 |  1.10
Other   |            | 0.07451    |            |       |  0.34

Nlocal:    19652 ave 19652 max 19652 min
Histogram: 1 0 0 0 0 0 0 0 0 0
Nghost:    16442 ave 16442 max 16442 min
Histogram: 1 0 0 0 0 0 0 0 0 0
Neighs:    1.13718e+06 ave 1.13718e+06 max 1.13718e+06 min
Histogram: 1 0 0 0 0 0 0 0 0 0

Total # of neighbors = 1137176
Ave neighs/atom = 57.8657
Neighbor list builds = 172
Dangerous builds not checked
Setting up Verlet run ...
  Unit style    : metal
  Current step  : 45336
  Time step     : 0.001
Per MPI rank memory allocation (min/avg/max) = 18.2 | 18.2 | 18.2 Mbytes
Step Temp Press TotEng PotEng Enthalpy Volume 
   45336    2048.0557   -754.02498   -41933.957   -47136.205   -42138.742    435133.34 
   45356    2045.0637   -663.85939    -41933.64   -47128.288    -42113.93    435118.99 
   45831    2010.1322   -532.50611   -42170.244   -47276.163   -42314.062    432711.83 
Loop time of 56.4309 on 1 procs for 495 steps with 19652 atoms

Performance: 0.758 ns/day, 31.667 hours/ns, 8.772 timesteps/s
99.7% CPU use with 1 MPI tasks x no OpenMP threads

MPI task timing breakdown:
Section |  min time  |  avg time  |  max time  |%varavg| %total
---------------------------------------------------------------
Pair    | 28.376     | 28.376     | 28.376     |   0.0 | 50.28
Neigh   | 26.61      | 26.61      | 26.61      |   0.0 | 47.16
Comm    | 0.45137    | 0.45137    | 0.45137    |   0.0 |  0.80
Output  | 0.19598    | 0.19598    | 0.19598    |   0.0 |  0.35
Modify  | 0.62202    | 0.62202    | 0.62202    |   0.0 |  1.10
Other   |            | 0.1752     |            |       |  0.31

Nlocal:    19652 ave 19652 max 19652 min
Histogram: 1 0 0 0 0 0 0 0 0 0
Nghost:    16493 ave 16493 max 16493 min
Histogram: 1 0 0 0 0 0 0 0 0 0
Neighs:    1.14324e+06 ave 1.14324e+06 max 1.14324e+06 min
Histogram: 1 0 0 0 0 0 0 0 0 0

Total # of neighbors = 1143235
Ave neighs/atom = 58.174
Neighbor list builds = 495
Dangerous builds not checked
Setting up Verlet run ...
  Unit style    : metal
  Current step  : 45831
  Time step     : 0.001
Per MPI rank memory allocation (min/avg/max) = 18.2 | 18.2 | 18.2 Mbytes
Step Temp Press TotEng PotEng Enthalpy Volume 
   45831    2010.1322   -532.50611   -42170.244   -47276.163   -42314.062    432711.83 
   46003    1985.8983   -157.92395   -42242.475   -47286.838   -42285.076    432194.19 
Loop time of 20.6772 on 1 procs for 172 steps with 19652 atoms

Performance: 0.719 ns/day, 33.393 hours/ns, 8.318 timesteps/s
98.2% CPU use with 1 MPI tasks x no OpenMP threads

MPI task timing breakdown:
Section |  min time  |  avg time  |  max time  |%varavg| %total
---------------------------------------------------------------
Pair    | 10.295     | 10.295     | 10.295     |   0.0 | 49.79
Neigh   | 9.5993     | 9.5993     | 9.5993     |   0.0 | 46.42
Comm    | 0.16399    | 0.16399    | 0.16399    |   0.0 |  0.79
Output  | 0.3263     | 0.3263     | 0.3263     |   0.0 |  1.58
Modify  | 0.22895    | 0.22895    | 0.22895    |   0.0 |  1.11
Other   |            | 0.06366    |            |       |  0.31

Nlocal:    19652 ave 19652 max 19652 min
Histogram: 1 0 0 0 0 0 0 0 0 0
Nghost:    16404 ave 16404 max 16404 min
Histogram: 1 0 0 0 0 0 0 0 0 0
Neighs:    1.14479e+06 ave 1.14479e+06 max 1.14479e+06 min
Histogram: 1 0 0 0 0 0 0 0 0 0

Total # of neighbors = 1144786
Ave neighs/atom = 58.2529
Neighbor list builds = 172
Dangerous builds not checked
Setting up Verlet run ...
  Unit style    : metal
  Current step  : 46003
  Time step     : 0.001
Per MPI rank memory allocation (min/avg/max) = 18.2 | 18.2 | 18.2 Mbytes
Step Temp Press TotEng PotEng Enthalpy Volume 
   46003    1985.8983   -157.92395   -42242.475   -47286.838   -42285.076    432194.19 
   46023    1996.2233   -478.27886   -42241.432   -47312.021   -42370.448    432189.07 
   46498    1960.2306    30.722803   -42513.109   -47492.273   -42504.889    428640.28 
Loop time of 56.7549 on 1 procs for 495 steps with 19652 atoms

Performance: 0.754 ns/day, 31.849 hours/ns, 8.722 timesteps/s
99.4% CPU use with 1 MPI tasks x no OpenMP threads

MPI task timing breakdown:
Section |  min time  |  avg time  |  max time  |%varavg| %total
---------------------------------------------------------------
Pair    | 28.663     | 28.663     | 28.663     |   0.0 | 50.50
Neigh   | 26.699     | 26.699     | 26.699     |   0.0 | 47.04
Comm    | 0.45768    | 0.45768    | 0.45768    |   0.0 |  0.81
Output  | 0.14308    | 0.14308    | 0.14308    |   0.0 |  0.25
Modify  | 0.61429    | 0.61429    | 0.61429    |   0.0 |  1.08
Other   |            | 0.1781     |            |       |  0.31

Nlocal:    19652 ave 19652 max 19652 min
Histogram: 1 0 0 0 0 0 0 0 0 0
Nghost:    16517 ave 16517 max 16517 min
Histogram: 1 0 0 0 0 0 0 0 0 0
Neighs:    1.1543e+06 ave 1.1543e+06 max 1.1543e+06 min
Histogram: 1 0 0 0 0 0 0 0 0 0

Total # of neighbors = 1154304
Ave neighs/atom = 58.7372
Neighbor list builds = 495
Dangerous builds not checked
Setting up Verlet run ...
  Unit style    : metal
  Current step  : 46498
  Time step     : 0.001
Per MPI rank memory allocation (min/avg/max) = 18.2 | 18.2 | 18.2 Mbytes
Step Temp Press TotEng PotEng Enthalpy Volume 
   46498    1960.2306    30.722803   -42513.109   -47492.273   -42504.889    428640.28 
   46670    1941.7576   -251.41484   -42589.011   -47521.252   -42656.268    428603.51 
Loop time of 21.5632 on 1 procs for 172 steps with 19652 atoms

Performance: 0.689 ns/day, 34.824 hours/ns, 7.977 timesteps/s
100.0% CPU use with 1 MPI tasks x no OpenMP threads

MPI task timing breakdown:
Section |  min time  |  avg time  |  max time  |%varavg| %total
---------------------------------------------------------------
Pair    | 11.01      | 11.01      | 11.01      |   0.0 | 51.06
Neigh   | 10.063     | 10.063     | 10.063     |   0.0 | 46.67
Comm    | 0.17334    | 0.17334    | 0.17334    |   0.0 |  0.80
Output  | 0.00018406 | 0.00018406 | 0.00018406 |   0.0 |  0.00
Modify  | 0.24663    | 0.24663    | 0.24663    |   0.0 |  1.14
Other   |            | 0.06963    |            |       |  0.32

Nlocal:    19652 ave 19652 max 19652 min
Histogram: 1 0 0 0 0 0 0 0 0 0
Nghost:    16526 ave 16526 max 16526 min
Histogram: 1 0 0 0 0 0 0 0 0 0
Neighs:    1.15504e+06 ave 1.15504e+06 max 1.15504e+06 min
Histogram: 1 0 0 0 0 0 0 0 0 0

Total # of neighbors = 1155043
Ave neighs/atom = 58.7748
Neighbor list builds = 172
Dangerous builds not checked
Setting up Verlet run ...
  Unit style    : metal
  Current step  : 46670
  Time step     : 0.001
Per MPI rank memory allocation (min/avg/max) = 18.2 | 18.2 | 18.2 Mbytes
Step Temp Press TotEng PotEng Enthalpy Volume 
   46670    1941.7576   -251.41484   -42589.011   -47521.252   -42656.268    428603.51 
   46690     1938.565   -157.12678   -42588.191   -47512.323   -42630.224    428598.57 
   47165    1915.6348    115.58089   -42836.656   -47702.543   -42805.968    425400.04 
Loop time of 60.19 on 1 procs for 495 steps with 19652 atoms

Performance: 0.711 ns/day, 33.777 hours/ns, 8.224 timesteps/s
99.3% CPU use with 1 MPI tasks x no OpenMP threads

MPI task timing breakdown:
Section |  min time  |  avg time  |  max time  |%varavg| %total
---------------------------------------------------------------
Pair    | 30.594     | 30.594     | 30.594     |   0.0 | 50.83
Neigh   | 27.961     | 27.961     | 27.961     |   0.0 | 46.46
Comm    | 0.50958    | 0.50958    | 0.50958    |   0.0 |  0.85
Output  | 0.25577    | 0.25577    | 0.25577    |   0.0 |  0.42
Modify  | 0.6793     | 0.6793     | 0.6793     |   0.0 |  1.13
Other   |            | 0.1901     |            |       |  0.32

Nlocal:    19652 ave 19652 max 19652 min
Histogram: 1 0 0 0 0 0 0 0 0 0
Nghost:    16619 ave 16619 max 16619 min
Histogram: 1 0 0 0 0 0 0 0 0 0
Neighs:    1.16372e+06 ave 1.16372e+06 max 1.16372e+06 min
Histogram: 1 0 0 0 0 0 0 0 0 0

Total # of neighbors = 1163723
Ave neighs/atom = 59.2165
Neighbor list builds = 495
Dangerous builds not checked
Setting up Verlet run ...
  Unit style    : metal
  Current step  : 47165
  Time step     : 0.001
Per MPI rank memory allocation (min/avg/max) = 18.2 | 18.2 | 18.2 Mbytes
Step Temp Press TotEng PotEng Enthalpy Volume 
   47165    1915.6348    115.58089   -42836.656   -47702.543   -42805.968    425400.04 
   47337    1895.5491   -129.55644   -42918.549   -47733.416    -42952.91     424928.1 
Loop time of 18.5393 on 1 procs for 172 steps with 19652 atoms

Performance: 0.802 ns/day, 29.941 hours/ns, 9.278 timesteps/s
99.7% CPU use with 1 MPI tasks x no OpenMP threads

MPI task timing breakdown:
Section |  min time  |  avg time  |  max time  |%varavg| %total
---------------------------------------------------------------
Pair    | 9.3719     | 9.3719     | 9.3719     |   0.0 | 50.55
Neigh   | 8.7556     | 8.7556     | 8.7556     |   0.0 | 47.23
Comm    | 0.14761    | 0.14761    | 0.14761    |   0.0 |  0.80
Output  | 0.00020909 | 0.00020909 | 0.00020909 |   0.0 |  0.00
Modify  | 0.20523    | 0.20523    | 0.20523    |   0.0 |  1.11
Other   |            | 0.05879    |            |       |  0.32

Nlocal:    19652 ave 19652 max 19652 min
Histogram: 1 0 0 0 0 0 0 0 0 0
Nghost:    16532 ave 16532 max 16532 min
Histogram: 1 0 0 0 0 0 0 0 0 0
Neighs:    1.16508e+06 ave 1.16508e+06 max 1.16508e+06 min
Histogram: 1 0 0 0 0 0 0 0 0 0

Total # of neighbors = 1165083
Ave neighs/atom = 59.2857
Neighbor list builds = 172
Dangerous builds not checked
Setting up Verlet run ...
  Unit style    : metal
  Current step  : 47337
  Time step     : 0.001
Per MPI rank memory allocation (min/avg/max) = 18.2 | 18.2 | 18.2 Mbytes
Step Temp Press TotEng PotEng Enthalpy Volume 
   47337    1895.5491   -129.55644   -42918.549   -47733.416    -42952.91     424928.1 
   47357    1898.3872   -277.66702    -42918.38   -47740.456   -42992.022    424923.69 
   47832    1868.5005   -300.40176   -43118.663   -47864.825   -43198.003     423154.8 
Loop time of 63.9416 on 1 procs for 495 steps with 19652 atoms

Performance: 0.669 ns/day, 35.882 hours/ns, 7.741 timesteps/s
96.8% CPU use with 1 MPI tasks x no OpenMP threads

MPI task timing breakdown:
Section |  min time  |  avg time  |  max time  |%varavg| %total
---------------------------------------------------------------
Pair    | 32.534     | 32.534     | 32.534     |   0.0 | 50.88
Neigh   | 29.864     | 29.864     | 29.864     |   0.0 | 46.71
Comm    | 0.50886    | 0.50886    | 0.50886    |   0.0 |  0.80
Output  | 0.12003    | 0.12003    | 0.12003    |   0.0 |  0.19
Modify  | 0.71702    | 0.71702    | 0.71702    |   0.0 |  1.12
Other   |            | 0.1971     |            |       |  0.31

Nlocal:    19652 ave 19652 max 19652 min
Histogram: 1 0 0 0 0 0 0 0 0 0
Nghost:    16634 ave 16634 max 16634 min
Histogram: 1 0 0 0 0 0 0 0 0 0
Neighs:    1.17024e+06 ave 1.17024e+06 max 1.17024e+06 min
Histogram: 1 0 0 0 0 0 0 0 0 0

Total # of neighbors = 1170238
Ave neighs/atom = 59.548
Neighbor list builds = 495
Dangerous builds not checked
Setting up Verlet run ...
  Unit style    : metal
  Current step  : 47832
  Time step     : 0.001
Per MPI rank memory allocation (min/avg/max) = 18.2 | 18.2 | 18.2 Mbytes
Step Temp Press TotEng PotEng Enthalpy Volume 
   47832    1868.5005   -300.40176   -43118.663   -47864.825   -43198.003     423154.8 
   48004    1853.2483   -25.950074   -43201.312   -47908.732   -43208.154    422403.54 
Loop time of 19.13 on 1 procs for 172 steps with 19652 atoms

Performance: 0.777 ns/day, 30.895 hours/ns, 8.991 timesteps/s
99.0% CPU use with 1 MPI tasks x no OpenMP threads

MPI task timing breakdown:
Section |  min time  |  avg time  |  max time  |%varavg| %total
---------------------------------------------------------------
Pair    | 9.7418     | 9.7418     | 9.7418     |   0.0 | 50.92
Neigh   | 8.9674     | 8.9674     | 8.9674     |   0.0 | 46.88
Comm    | 0.15503    | 0.15503    | 0.15503    |   0.0 |  0.81
Output  | 0.00017786 | 0.00017786 | 0.00017786 |   0.0 |  0.00
Modify  | 0.20404    | 0.20404    | 0.20404    |   0.0 |  1.07
Other   |            | 0.06162    |            |       |  0.32

Nlocal:    19652 ave 19652 max 19652 min
Histogram: 1 0 0 0 0 0 0 0 0 0
Nghost:    16692 ave 16692 max 16692 min
Histogram: 1 0 0 0 0 0 0 0 0 0
Neighs:    1.17258e+06 ave 1.17258e+06 max 1.17258e+06 min
Histogram: 1 0 0 0 0 0 0 0 0 0

Total # of neighbors = 1172580
Ave neighs/atom = 59.6672
Neighbor list builds = 172
Dangerous builds not checked
Setting up Verlet run ...
  Unit style    : metal
  Current step  : 48004
  Time step     : 0.001
Per MPI rank memory allocation (min/avg/max) = 18.2 | 18.2 | 18.2 Mbytes
Step Temp Press TotEng PotEng Enthalpy Volume 
   48004    1853.2483   -25.950074   -43201.312   -47908.732   -43208.154    422403.54 
   48024    1850.6396    70.495543    -43201.64   -47902.433   -43183.054    422403.69 
   48499    1806.3604    550.27992   -43466.936   -48055.256   -43322.886    419410.71 
Loop time of 63.9718 on 1 procs for 495 steps with 19652 atoms

Performance: 0.669 ns/day, 35.899 hours/ns, 7.738 timesteps/s
98.8% CPU use with 1 MPI tasks x no OpenMP threads

MPI task timing breakdown:
Section |  min time  |  avg time  |  max time  |%varavg| %total
---------------------------------------------------------------
Pair    | 32.731     | 32.731     | 32.731     |   0.0 | 51.16
Neigh   | 29.601     | 29.601     | 29.601     |   0.0 | 46.27
Comm    | 0.50662    | 0.50662    | 0.50662    |   0.0 |  0.79
Output  | 0.21933    | 0.21933    | 0.21933    |   0.0 |  0.34
Modify  | 0.70641    | 0.70641    | 0.70641    |   0.0 |  1.10
Other   |            | 0.2071     |            |       |  0.32

Nlocal:    19652 ave 19652 max 19652 min
Histogram: 1 0 0 0 0 0 0 0 0 0
Nghost:    16682 ave 16682 max 16682 min
Histogram: 1 0 0 0 0 0 0 0 0 0
Neighs:    1.18065e+06 ave 1.18065e+06 max 1.18065e+06 min
Histogram: 1 0 0 0 0 0 0 0 0 0

Total # of neighbors = 1180651
Ave neighs/atom = 60.0779
Neighbor list builds = 495
Dangerous builds not checked
Setting up Verlet run ...
  Unit style    : metal
  Current step  : 48499
  Time step     : 0.001
Per MPI rank memory allocation (min/avg/max) = 18.2 | 18.2 | 18.2 Mbytes
Step Temp Press TotEng PotEng Enthalpy Volume 
   48499    1806.3604    550.27992   -43466.936   -48055.256   -43322.886    419410.71 
   48671    1792.0885   -77.868391    -43538.57   -48090.638   -43558.965    419643.46 
Loop time of 20.8893 on 1 procs for 172 steps with 19652 atoms

Performance: 0.711 ns/day, 33.736 hours/ns, 8.234 timesteps/s
100.0% CPU use with 1 MPI tasks x no OpenMP threads

MPI task timing breakdown:
Section |  min time  |  avg time  |  max time  |%varavg| %total
---------------------------------------------------------------
Pair    | 10.681     | 10.681     | 10.681     |   0.0 | 51.13
Neigh   | 9.7438     | 9.7438     | 9.7438     |   0.0 | 46.65
Comm    | 0.1655     | 0.1655     | 0.1655     |   0.0 |  0.79
Output  | 0.00017691 | 0.00017691 | 0.00017691 |   0.0 |  0.00
Modify  | 0.23175    | 0.23175    | 0.23175    |   0.0 |  1.11
Other   |            | 0.0668     |            |       |  0.32

Nlocal:    19652 ave 19652 max 19652 min
Histogram: 1 0 0 0 0 0 0 0 0 0
Nghost:    16689 ave 16689 max 16689 min
Histogram: 1 0 0 0 0 0 0 0 0 0
Neighs:    1.17997e+06 ave 1.17997e+06 max 1.17997e+06 min
Histogram: 1 0 0 0 0 0 0 0 0 0

Total # of neighbors = 1179971
Ave neighs/atom = 60.0433
Neighbor list builds = 172
Dangerous builds not checked
Setting up Verlet run ...
  Unit style    : metal
  Current step  : 48671
  Time step     : 0.001
Per MPI rank memory allocation (min/avg/max) = 18.2 | 18.2 | 18.2 Mbytes
Step Temp Press TotEng PotEng Enthalpy Volume 
   48671    1792.0885   -77.868391    -43538.57   -48090.638   -43558.965    419643.46 
   48691    1786.3444    83.351633   -43537.647   -48075.124   -43515.815    419642.86 
   49166    1769.2065    742.27256   -43730.164    -48224.11   -43536.907    417141.55 
Loop time of 57.1993 on 1 procs for 495 steps with 19652 atoms

Performance: 0.748 ns/day, 32.098 hours/ns, 8.654 timesteps/s
99.9% CPU use with 1 MPI tasks x no OpenMP threads

MPI task timing breakdown:
Section |  min time  |  avg time  |  max time  |%varavg| %total
---------------------------------------------------------------
Pair    | 29.203     | 29.203     | 29.203     |   0.0 | 51.05
Neigh   | 26.661     | 26.661     | 26.661     |   0.0 | 46.61
Comm    | 0.45465    | 0.45465    | 0.45465    |   0.0 |  0.79
Output  | 0.084519   | 0.084519   | 0.084519   |   0.0 |  0.15
Modify  | 0.61518    | 0.61518    | 0.61518    |   0.0 |  1.08
Other   |            | 0.1818     |            |       |  0.32

Nlocal:    19652 ave 19652 max 19652 min
Histogram: 1 0 0 0 0 0 0 0 0 0
Nghost:    16764 ave 16764 max 16764 min
Histogram: 1 0 0 0 0 0 0 0 0 0
Neighs:    1.18739e+06 ave 1.18739e+06 max 1.18739e+06 min
Histogram: 1 0 0 0 0 0 0 0 0 0

Total # of neighbors = 1187393
Ave neighs/atom = 60.421
Neighbor list builds = 495
Dangerous builds not checked
Setting up Verlet run ...
  Unit style    : metal
  Current step  : 49166
  Time step     : 0.001
Per MPI rank memory allocation (min/avg/max) = 18.2 | 18.2 | 18.2 Mbytes
Step Temp Press TotEng PotEng Enthalpy Volume 
   49166    1769.2065    742.27256   -43730.164    -48224.11   -43536.907    417141.55 
   49338    1752.9133   -1093.4243   -43818.528   -48271.088   -44103.326    417309.15 
Loop time of 21.8657 on 1 procs for 172 steps with 19652 atoms

Performance: 0.680 ns/day, 35.313 hours/ns, 7.866 timesteps/s
98.4% CPU use with 1 MPI tasks x no OpenMP threads

MPI task timing breakdown:
Section |  min time  |  avg time  |  max time  |%varavg| %total
---------------------------------------------------------------
Pair    | 11.171     | 11.171     | 11.171     |   0.0 | 51.09
Neigh   | 10.217     | 10.217     | 10.217     |   0.0 | 46.73
Comm    | 0.16737    | 0.16737    | 0.16737    |   0.0 |  0.77
Output  | 0.00017905 | 0.00017905 | 0.00017905 |   0.0 |  0.00
Modify  | 0.24224    | 0.24224    | 0.24224    |   0.0 |  1.11
Other   |            | 0.06809    |            |       |  0.31

Nlocal:    19652 ave 19652 max 19652 min
Histogram: 1 0 0 0 0 0 0 0 0 0
Nghost:    16723 ave 16723 max 16723 min
Histogram: 1 0 0 0 0 0 0 0 0 0
Neighs:    1.18676e+06 ave 1.18676e+06 max 1.18676e+06 min
Histogram: 1 0 0 0 0 0 0 0 0 0

Total # of neighbors = 1186762
Ave neighs/atom = 60.3889
Neighbor list builds = 172
Dangerous builds not checked
Setting up Verlet run ...
  Unit style    : metal
  Current step  : 49338
  Time step     : 0.001
Per MPI rank memory allocation (min/avg/max) = 18.2 | 18.2 | 18.2 Mbytes
Step Temp Press TotEng PotEng Enthalpy Volume 
   49338    1752.9133   -1093.4243   -43818.528   -48271.088   -44103.326    417309.15 
   49358    1744.4466    -859.3951    -43818.52   -48249.573   -44042.349    417287.45 
   49833    1708.0238    261.89971   -44056.388   -48394.925   -43988.586    414780.47 
Loop time of 71.2551 on 1 procs for 495 steps with 19652 atoms

Performance: 0.600 ns/day, 39.986 hours/ns, 6.947 timesteps/s
93.1% CPU use with 1 MPI tasks x no OpenMP threads

MPI task timing breakdown:
Section |  min time  |  avg time  |  max time  |%varavg| %total
---------------------------------------------------------------
Pair    | 36.836     | 36.836     | 36.836     |   0.0 | 51.70
Neigh   | 32.736     | 32.736     | 32.736     |   0.0 | 45.94
Comm    | 0.56751    | 0.56751    | 0.56751    |   0.0 |  0.80
Output  | 0.10711    | 0.10711    | 0.10711    |   0.0 |  0.15
Modify  | 0.77516    | 0.77516    | 0.77516    |   0.0 |  1.09
Other   |            | 0.2332     |            |       |  0.33

Nlocal:    19652 ave 19652 max 19652 min
Histogram: 1 0 0 0 0 0 0 0 0 0
Nghost:    16741 ave 16741 max 16741 min
Histogram: 1 0 0 0 0 0 0 0 0 0
Neighs:    1.19463e+06 ave 1.19463e+06 max 1.19463e+06 min
Histogram: 1 0 0 0 0 0 0 0 0 0

Total # of neighbors = 1194626
Ave neighs/atom = 60.789
Neighbor list builds = 495
Dangerous builds not checked
Setting up Verlet run ...
  Unit style    : metal
  Current step  : 49833
  Time step     : 0.001
Per MPI rank memory allocation (min/avg/max) = 18.2 | 18.2 | 18.2 Mbytes
Step Temp Press TotEng PotEng Enthalpy Volume 
   49833    1708.0238    261.89971   -44056.388   -48394.925   -43988.586    414780.47 
   50005    1696.3336   -614.28811   -44123.917   -48432.759   -44282.824    414457.69 
Loop time of 23.0927 on 1 procs for 172 steps with 19652 atoms

Performance: 0.644 ns/day, 37.294 hours/ns, 7.448 timesteps/s
94.1% CPU use with 1 MPI tasks x no OpenMP threads

MPI task timing breakdown:
Section |  min time  |  avg time  |  max time  |%varavg| %total
---------------------------------------------------------------
Pair    | 11.856     | 11.856     | 11.856     |   0.0 | 51.34
Neigh   | 10.718     | 10.718     | 10.718     |   0.0 | 46.41
Comm    | 0.1842     | 0.1842     | 0.1842     |   0.0 |  0.80
Output  | 0.00017691 | 0.00017691 | 0.00017691 |   0.0 |  0.00
Modify  | 0.25891    | 0.25891    | 0.25891    |   0.0 |  1.12
Other   |            | 0.07537    |            |       |  0.33

Nlocal:    19652 ave 19652 max 19652 min
Histogram: 1 0 0 0 0 0 0 0 0 0
Nghost:    16724 ave 16724 max 16724 min
Histogram: 1 0 0 0 0 0 0 0 0 0
Neighs:    1.19544e+06 ave 1.19544e+06 max 1.19544e+06 min
Histogram: 1 0 0 0 0 0 0 0 0 0

Total # of neighbors = 1195445
Ave neighs/atom = 60.8307
Neighbor list builds = 172
Dangerous builds not checked
Setting up Verlet run ...
  Unit style    : metal
  Current step  : 50005
  Time step     : 0.001
Per MPI rank memory allocation (min/avg/max) = 18.2 | 18.2 | 18.2 Mbytes
Step Temp Press TotEng PotEng Enthalpy Volume 
   50005    1696.3336   -614.28811   -44123.917   -48432.759   -44282.824    414457.69 
   50025    1702.1455   -818.42279   -44123.893   -48447.498   -44335.598    414441.83 
   50500    1657.9526    1240.6817   -44376.395   -48587.746   -44057.907    411285.53 
Loop time of 65.9268 on 1 procs for 495 steps with 19652 atoms

Performance: 0.649 ns/day, 36.996 hours/ns, 7.508 timesteps/s
98.2% CPU use with 1 MPI tasks x no OpenMP threads

MPI task timing breakdown:
Section |  min time  |  avg time  |  max time  |%varavg| %total
---------------------------------------------------------------
Pair    | 34.028     | 34.028     | 34.028     |   0.0 | 51.61
Neigh   | 30.278     | 30.278     | 30.278     |   0.0 | 45.93
Comm    | 0.50862    | 0.50862    | 0.50862    |   0.0 |  0.77
Output  | 0.18256    | 0.18256    | 0.18256    |   0.0 |  0.28
Modify  | 0.71965    | 0.71965    | 0.71965    |   0.0 |  1.09
Other   |            | 0.2105     |            |       |  0.32

Nlocal:    19652 ave 19652 max 19652 min
Histogram: 1 0 0 0 0 0 0 0 0 0
Nghost:    16885 ave 16885 max 16885 min
Histogram: 1 0 0 0 0 0 0 0 0 0
Neighs:    1.20515e+06 ave 1.20515e+06 max 1.20515e+06 min
Histogram: 1 0 0 0 0 0 0 0 0 0

Total # of neighbors = 1205153
Ave neighs/atom = 61.3247
Neighbor list builds = 495
Dangerous builds not checked
Setting up Verlet run ...
  Unit style    : metal
  Current step  : 50500
  Time step     : 0.001
Per MPI rank memory allocation (min/avg/max) = 18.2 | 18.2 | 18.2 Mbytes
Step Temp Press TotEng PotEng Enthalpy Volume 
   50500    1657.9526    1240.6817   -44376.395   -48587.746   -44057.907    411285.53 
   50672    1650.7542   -410.30989    -44451.13   -48644.197   -44556.512    411495.25 
Loop time of 21.4405 on 1 procs for 172 steps with 19652 atoms

Performance: 0.693 ns/day, 34.626 hours/ns, 8.022 timesteps/s
99.7% CPU use with 1 MPI tasks x no OpenMP threads

MPI task timing breakdown:
Section |  min time  |  avg time  |  max time  |%varavg| %total
---------------------------------------------------------------
Pair    | 11.128     | 11.128     | 11.128     |   0.0 | 51.90
Neigh   | 9.8304     | 9.8304     | 9.8304     |   0.0 | 45.85
Comm    | 0.18426    | 0.18426    | 0.18426    |   0.0 |  0.86
Output  | 0.00016904 | 0.00016904 | 0.00016904 |   0.0 |  0.00
Modify  | 0.22907    | 0.22907    | 0.22907    |   0.0 |  1.07
Other   |            | 0.06846    |            |       |  0.32

Nlocal:    19652 ave 19652 max 19652 min
Histogram: 1 0 0 0 0 0 0 0 0 0
Nghost:    16848 ave 16848 max 16848 min
Histogram: 1 0 0 0 0 0 0 0 0 0
Neighs:    1.20474e+06 ave 1.20474e+06 max 1.20474e+06 min
Histogram: 1 0 0 0 0 0 0 0 0 0

Total # of neighbors = 1204736
Ave neighs/atom = 61.3035
Neighbor list builds = 172
Dangerous builds not checked
Setting up Verlet run ...
  Unit style    : metal
  Current step  : 50672
  Time step     : 0.001
Per MPI rank memory allocation (min/avg/max) = 18.2 | 18.2 | 18.2 Mbytes
Step Temp Press TotEng PotEng Enthalpy Volume 
   50672    1650.7542   -410.30989    -44451.13   -48644.197   -44556.512    411495.25 
   50692    1666.4126   -1008.1275   -44451.951   -48684.791   -44710.864    411481.07 
   51167    1608.4932   -752.59926   -44715.913   -48801.633   -44908.171    409288.99 
Loop time of 65.822 on 1 procs for 495 steps with 19652 atoms

Performance: 0.650 ns/day, 36.937 hours/ns, 7.520 timesteps/s
97.3% CPU use with 1 MPI tasks x no OpenMP threads

MPI task timing breakdown:
Section |  min time  |  avg time  |  max time  |%varavg| %total
---------------------------------------------------------------
Pair    | 34.025     | 34.025     | 34.025     |   0.0 | 51.69
Neigh   | 30.164     | 30.164     | 30.164     |   0.0 | 45.83
Comm    | 0.54432    | 0.54432    | 0.54432    |   0.0 |  0.83
Output  | 0.18296    | 0.18296    | 0.18296    |   0.0 |  0.28
Modify  | 0.69611    | 0.69611    | 0.69611    |   0.0 |  1.06
Other   |            | 0.2089     |            |       |  0.32

Nlocal:    19652 ave 19652 max 19652 min
Histogram: 1 0 0 0 0 0 0 0 0 0
Nghost:    16849 ave 16849 max 16849 min
Histogram: 1 0 0 0 0 0 0 0 0 0
Neighs:    1.21113e+06 ave 1.21113e+06 max 1.21113e+06 min
Histogram: 1 0 0 0 0 0 0 0 0 0

Total # of neighbors = 1211128
Ave neighs/atom = 61.6287
Neighbor list builds = 495
Dangerous builds not checked
Setting up Verlet run ...
  Unit style    : metal
  Current step  : 51167
  Time step     : 0.001
Per MPI rank memory allocation (min/avg/max) = 18.2 | 18.2 | 18.2 Mbytes
Step Temp Press TotEng PotEng Enthalpy Volume 
   51167    1608.4932   -752.59926   -44715.913   -48801.633   -44908.171    409288.99 
   51339    1597.5728    388.54285   -44785.375   -48843.356   -44686.452    407915.36 
Loop time of 21.4211 on 1 procs for 172 steps with 19652 atoms

Performance: 0.694 ns/day, 34.595 hours/ns, 8.029 timesteps/s
100.0% CPU use with 1 MPI tasks x no OpenMP threads

MPI task timing breakdown:
Section |  min time  |  avg time  |  max time  |%varavg| %total
---------------------------------------------------------------
Pair    | 11.042     | 11.042     | 11.042     |   0.0 | 51.55
Neigh   | 9.9067     | 9.9067     | 9.9067     |   0.0 | 46.25
Comm    | 0.16687    | 0.16687    | 0.16687    |   0.0 |  0.78
Output  | 0.00015116 | 0.00015116 | 0.00015116 |   0.0 |  0.00
Modify  | 0.23651    | 0.23651    | 0.23651    |   0.0 |  1.10
Other   |            | 0.0685     |            |       |  0.32

Nlocal:    19652 ave 19652 max 19652 min
Histogram: 1 0 0 0 0 0 0 0 0 0
Nghost:    16868 ave 16868 max 16868 min
Histogram: 1 0 0 0 0 0 0 0 0 0
Neighs:    1.21555e+06 ave 1.21555e+06 max 1.21555e+06 min
Histogram: 1 0 0 0 0 0 0 0 0 0

Total # of neighbors = 1215550
Ave neighs/atom = 61.8538
Neighbor list builds = 172
Dangerous builds not checked
Setting up Verlet run ...
  Unit style    : metal
  Current step  : 51339
  Time step     : 0.001
Per MPI rank memory allocation (min/avg/max) = 18.2 | 18.2 | 18.2 Mbytes
Step Temp Press TotEng PotEng Enthalpy Volume 
   51339    1597.5728    388.54285   -44785.375   -48843.356   -44686.452    407915.36 
   51359    1594.1528    490.52693   -44785.037    -48834.33   -44660.145     407925.5 
   51834    1563.5425    659.95868   -44995.769   -48967.309    -44828.38    406369.04 
Loop time of 62.9713 on 1 procs for 495 steps with 19652 atoms

Performance: 0.679 ns/day, 35.337 hours/ns, 7.861 timesteps/s
99.5% CPU use with 1 MPI tasks x no OpenMP threads

MPI task timing breakdown:
Section |  min time  |  avg time  |  max time  |%varavg| %total
---------------------------------------------------------------
Pair    | 32.475     | 32.475     | 32.475     |   0.0 | 51.57
Neigh   | 28.969     | 28.969     | 28.969     |   0.0 | 46.00
Comm    | 0.4969     | 0.4969     | 0.4969     |   0.0 |  0.79
Output  | 0.15544    | 0.15544    | 0.15544    |   0.0 |  0.25
Modify  | 0.67676    | 0.67676    | 0.67676    |   0.0 |  1.07
Other   |            | 0.1977     |            |       |  0.31

Nlocal:    19652 ave 19652 max 19652 min
Histogram: 1 0 0 0 0 0 0 0 0 0
Nghost:    16832 ave 16832 max 16832 min
Histogram: 1 0 0 0 0 0 0 0 0 0
Neighs:    1.22026e+06 ave 1.22026e+06 max 1.22026e+06 min
Histogram: 1 0 0 0 0 0 0 0 0 0

Total # of neighbors = 1220260
Ave neighs/atom = 62.0934
Neighbor list builds = 495
Dangerous builds not checked
Setting up Verlet run ...
  Unit style    : metal
  Current step  : 51834
  Time step     : 0.001
Per MPI rank memory allocation (min/avg/max) = 18.2 | 18.2 | 18.2 Mbytes
Step Temp Press TotEng PotEng Enthalpy Volume 
   51834    1563.5425    659.95868   -44995.769   -48967.309    -44828.38    406369.04 
   52006    1545.8973   -242.03949   -45063.332   -48990.052   -45124.723    406372.78 
Loop time of 22.7018 on 1 procs for 172 steps with 19652 atoms

Performance: 0.655 ns/day, 36.663 hours/ns, 7.576 timesteps/s
99.7% CPU use with 1 MPI tasks x no OpenMP threads

MPI task timing breakdown:
Section |  min time  |  avg time  |  max time  |%varavg| %total
---------------------------------------------------------------
Pair    | 11.803     | 11.803     | 11.803     |   0.0 | 51.99
Neigh   | 10.395     | 10.395     | 10.395     |   0.0 | 45.79
Comm    | 0.17813    | 0.17813    | 0.17813    |   0.0 |  0.78
Output  | 0.00017405 | 0.00017405 | 0.00017405 |   0.0 |  0.00
Modify  | 0.25416    | 0.25416    | 0.25416    |   0.0 |  1.12
Other   |            | 0.07189    |            |       |  0.32

Nlocal:    19652 ave 19652 max 19652 min
Histogram: 1 0 0 0 0 0 0 0 0 0
Nghost:    16868 ave 16868 max 16868 min
Histogram: 1 0 0 0 0 0 0 0 0 0
Neighs:    1.22004e+06 ave 1.22004e+06 max 1.22004e+06 min
Histogram: 1 0 0 0 0 0 0 0 0 0

Total # of neighbors = 1220040
Ave neighs/atom = 62.0822
Neighbor list builds = 172
Dangerous builds not checked
Setting up Verlet run ...
  Unit style    : metal
  Current step  : 52006
  Time step     : 0.001
Per MPI rank memory allocation (min/avg/max) = 18.2 | 18.2 | 18.2 Mbytes
Step Temp Press TotEng PotEng Enthalpy Volume 
   52006    1545.8973   -242.03949   -45063.332   -48990.052   -45124.723    406372.78 
   52026     1555.122    -619.9033   -45063.276   -49013.427   -45220.503    406364.34 
   52501    1513.6157   -258.10279   -45311.511   -49156.233   -45376.632    404240.65 
Loop time of 56.5058 on 1 procs for 495 steps with 19652 atoms

Performance: 0.757 ns/day, 31.709 hours/ns, 8.760 timesteps/s
98.7% CPU use with 1 MPI tasks x no OpenMP threads

MPI task timing breakdown:
Section |  min time  |  avg time  |  max time  |%varavg| %total
---------------------------------------------------------------
Pair    | 28.879     | 28.879     | 28.879     |   0.0 | 51.11
Neigh   | 26.237     | 26.237     | 26.237     |   0.0 | 46.43
Comm    | 0.43982    | 0.43982    | 0.43982    |   0.0 |  0.78
Output  | 0.17942    | 0.17942    | 0.17942    |   0.0 |  0.32
Modify  | 0.59619    | 0.59619    | 0.59619    |   0.0 |  1.06
Other   |            | 0.1752     |            |       |  0.31

Nlocal:    19652 ave 19652 max 19652 min
Histogram: 1 0 0 0 0 0 0 0 0 0
Nghost:    16938 ave 16938 max 16938 min
Histogram: 1 0 0 0 0 0 0 0 0 0
Neighs:    1.22692e+06 ave 1.22692e+06 max 1.22692e+06 min
Histogram: 1 0 0 0 0 0 0 0 0 0

Total # of neighbors = 1226918
Ave neighs/atom = 62.4322
Neighbor list builds = 495
Dangerous builds not checked
Setting up Verlet run ...
  Unit style    : metal
  Current step  : 52501
  Time step     : 0.001
Per MPI rank memory allocation (min/avg/max) = 18.2 | 18.2 | 18.2 Mbytes
Step Temp Press TotEng PotEng Enthalpy Volume 
   52501    1513.6157   -258.10279   -45311.511   -49156.233   -45376.632    404240.65 
   52673    1507.1111   -145.54794    -45381.96   -49210.159   -45418.612    403463.51 
Loop time of 19.7684 on 1 procs for 172 steps with 19652 atoms

Performance: 0.752 ns/day, 31.926 hours/ns, 8.701 timesteps/s
98.8% CPU use with 1 MPI tasks x no OpenMP threads

MPI task timing breakdown:
Section |  min time  |  avg time  |  max time  |%varavg| %total
---------------------------------------------------------------
Pair    | 10.185     | 10.185     | 10.185     |   0.0 | 51.52
Neigh   | 9.156      | 9.156      | 9.156      |   0.0 | 46.32
Comm    | 0.15102    | 0.15102    | 0.15102    |   0.0 |  0.76
Output  | 0.0052321  | 0.0052321  | 0.0052321  |   0.0 |  0.03
Modify  | 0.20981    | 0.20981    | 0.20981    |   0.0 |  1.06
Other   |            | 0.06155    |            |       |  0.31

Nlocal:    19652 ave 19652 max 19652 min
Histogram: 1 0 0 0 0 0 0 0 0 0
Nghost:    16851 ave 16851 max 16851 min
Histogram: 1 0 0 0 0 0 0 0 0 0
Neighs:    1.22972e+06 ave 1.22972e+06 max 1.22972e+06 min
Histogram: 1 0 0 0 0 0 0 0 0 0

Total # of neighbors = 1229723
Ave neighs/atom = 62.575
Neighbor list builds = 172
Dangerous builds not checked
Setting up Verlet run ...
  Unit style    : metal
  Current step  : 52673
  Time step     : 0.001
Per MPI rank memory allocation (min/avg/max) = 18.2 | 18.2 | 18.2 Mbytes
Step Temp Press TotEng PotEng Enthalpy Volume 
   52673    1507.1111   -145.54794    -45381.96   -49210.159   -45418.612    403463.51 
   52693    1513.8978   -385.68388    -45383.08   -49228.518   -45480.202    403457.64 
   53168    1464.0806   -92.871719   -45620.011   -49338.909   -45643.285    401509.26 
Loop time of 62.9843 on 1 procs for 495 steps with 19652 atoms

Performance: 0.679 ns/day, 35.345 hours/ns, 7.859 timesteps/s
99.4% CPU use with 1 MPI tasks x no OpenMP threads

MPI task timing breakdown:
Section |  min time  |  avg time  |  max time  |%varavg| %total
---------------------------------------------------------------
Pair    | 32.652     | 32.652     | 32.652     |   0.0 | 51.84
Neigh   | 28.816     | 28.816     | 28.816     |   0.0 | 45.75
Comm    | 0.49456    | 0.49456    | 0.49456    |   0.0 |  0.79
Output  | 0.13312    | 0.13312    | 0.13312    |   0.0 |  0.21
Modify  | 0.69299    | 0.69299    | 0.69299    |   0.0 |  1.10
Other   |            | 0.1954     |            |       |  0.31

Nlocal:    19652 ave 19652 max 19652 min
Histogram: 1 0 0 0 0 0 0 0 0 0
Nghost:    16901 ave 16901 max 16901 min
Histogram: 1 0 0 0 0 0 0 0 0 0
Neighs:    1.23547e+06 ave 1.23547e+06 max 1.23547e+06 min
Histogram: 1 0 0 0 0 0 0 0 0 0

Total # of neighbors = 1235470
Ave neighs/atom = 62.8674
Neighbor list builds = 495
Dangerous builds not checked
Setting up Verlet run ...
  Unit style    : metal
  Current step  : 53168
  Time step     : 0.001
Per MPI rank memory allocation (min/avg/max) = 18.2 | 18.2 | 18.2 Mbytes
Step Temp Press TotEng PotEng Enthalpy Volume 
   53168    1464.0806   -92.871719   -45620.011   -49338.909   -45643.285    401509.26 
   53340    1462.2621   -547.09773   -45689.718   -49403.997   -45826.658    401030.57 
Loop time of 21.0484 on 1 procs for 172 steps with 19652 atoms

Performance: 0.706 ns/day, 33.993 hours/ns, 8.172 timesteps/s
100.0% CPU use with 1 MPI tasks x no OpenMP threads

MPI task timing breakdown:
Section |  min time  |  avg time  |  max time  |%varavg| %total
---------------------------------------------------------------
Pair    | 10.971     | 10.971     | 10.971     |   0.0 | 52.12
Neigh   | 9.6149     | 9.6149     | 9.6149     |   0.0 | 45.68
Comm    | 0.16426    | 0.16426    | 0.16426    |   0.0 |  0.78
Output  | 0.00018001 | 0.00018001 | 0.00018001 |   0.0 |  0.00
Modify  | 0.23177    | 0.23177    | 0.23177    |   0.0 |  1.10
Other   |            | 0.06629    |            |       |  0.31

Nlocal:    19652 ave 19652 max 19652 min
Histogram: 1 0 0 0 0 0 0 0 0 0
Nghost:    16920 ave 16920 max 16920 min
Histogram: 1 0 0 0 0 0 0 0 0 0
Neighs:    1.2372e+06 ave 1.2372e+06 max 1.2372e+06 min
Histogram: 1 0 0 0 0 0 0 0 0 0

Total # of neighbors = 1237204
Ave neighs/atom = 62.9556
Neighbor list builds = 172
Dangerous builds not checked
Setting up Verlet run ...
  Unit style    : metal
  Current step  : 53340
  Time step     : 0.001
Per MPI rank memory allocation (min/avg/max) = 18.2 | 18.2 | 18.2 Mbytes
Step Temp Press TotEng PotEng Enthalpy Volume 
   53340    1462.2621   -547.09773   -45689.718   -49403.997   -45826.658    401030.57 
   53360    1457.1377   -301.64719   -45690.968   -49392.231   -45766.469    401018.39 
   53835    1426.8829   -130.22596    -45926.73   -49551.143   -45959.144    398794.11 
Loop time of 61.4548 on 1 procs for 495 steps with 19652 atoms

Performance: 0.696 ns/day, 34.486 hours/ns, 8.055 timesteps/s
99.5% CPU use with 1 MPI tasks x no OpenMP threads

MPI task timing breakdown:
Section |  min time  |  avg time  |  max time  |%varavg| %total
---------------------------------------------------------------
Pair    | 31.797     | 31.797     | 31.797     |   0.0 | 51.74
Neigh   | 28.216     | 28.216     | 28.216     |   0.0 | 45.91
Comm    | 0.47687    | 0.47687    | 0.47687    |   0.0 |  0.78
Output  | 0.12339    | 0.12339    | 0.12339    |   0.0 |  0.20
Modify  | 0.65225    | 0.65225    | 0.65225    |   0.0 |  1.06
Other   |            | 0.1895     |            |       |  0.31

Nlocal:    19652 ave 19652 max 19652 min
Histogram: 1 0 0 0 0 0 0 0 0 0
Nghost:    16980 ave 16980 max 16980 min
Histogram: 1 0 0 0 0 0 0 0 0 0
Neighs:    1.2443e+06 ave 1.2443e+06 max 1.2443e+06 min
Histogram: 1 0 0 0 0 0 0 0 0 0

Total # of neighbors = 1244305
Ave neighs/atom = 63.317
Neighbor list builds = 495
Dangerous builds not checked
Setting up Verlet run ...
  Unit style    : metal
  Current step  : 53835
  Time step     : 0.001
Per MPI rank memory allocation (min/avg/max) = 18.2 | 18.2 | 18.2 Mbytes
Step Temp Press TotEng PotEng Enthalpy Volume 
   53835    1426.8829   -130.22596    -45926.73   -49551.143   -45959.144    398794.11 
   54007    1410.7324   -198.76082   -45998.814   -49582.203   -46048.245    398454.32 
Loop time of 25.8039 on 1 procs for 172 steps with 19652 atoms

Performance: 0.576 ns/day, 41.673 hours/ns, 6.666 timesteps/s
89.7% CPU use with 1 MPI tasks x no OpenMP threads

MPI task timing breakdown:
Section |  min time  |  avg time  |  max time  |%varavg| %total
---------------------------------------------------------------
Pair    | 13.604     | 13.604     | 13.604     |   0.0 | 52.72
Neigh   | 11.637     | 11.637     | 11.637     |   0.0 | 45.10
Comm    | 0.21376    | 0.21376    | 0.21376    |   0.0 |  0.83
Output  | 0.00019193 | 0.00019193 | 0.00019193 |   0.0 |  0.00
Modify  | 0.27692    | 0.27692    | 0.27692    |   0.0 |  1.07
Other   |            | 0.07183    |            |       |  0.28

Nlocal:    19652 ave 19652 max 19652 min
Histogram: 1 0 0 0 0 0 0 0 0 0
Nghost:    17016 ave 17016 max 17016 min
Histogram: 1 0 0 0 0 0 0 0 0 0
Neighs:    1.24545e+06 ave 1.24545e+06 max 1.24545e+06 min
Histogram: 1 0 0 0 0 0 0 0 0 0

Total # of neighbors = 1245450
Ave neighs/atom = 63.3752
Neighbor list builds = 172
Dangerous builds not checked
Setting up Verlet run ...
  Unit style    : metal
  Current step  : 54007
  Time step     : 0.001
Per MPI rank memory allocation (min/avg/max) = 18.2 | 18.2 | 18.2 Mbytes
Step Temp Press TotEng PotEng Enthalpy Volume 
   54007    1410.7324   -198.76082   -45998.814   -49582.203   -46048.245    398454.32 
   54027    1402.2886    83.960941   -45999.716   -49561.657   -45978.835    398451.77 
   54502    1374.9001    685.89269   -46240.642   -49733.014   -46071.179    395849.11 
Loop time of 65.5284 on 1 procs for 495 steps with 19652 atoms

Performance: 0.653 ns/day, 36.772 hours/ns, 7.554 timesteps/s
98.9% CPU use with 1 MPI tasks x no OpenMP threads

MPI task timing breakdown:
Section |  min time  |  avg time  |  max time  |%varavg| %total
---------------------------------------------------------------
Pair    | 34.222     | 34.222     | 34.222     |   0.0 | 52.23
Neigh   | 29.834     | 29.834     | 29.834     |   0.0 | 45.53
Comm    | 0.50513    | 0.50513    | 0.50513    |   0.0 |  0.77
Output  | 0.064078   | 0.064078   | 0.064078   |   0.0 |  0.10
Modify  | 0.70144    | 0.70144    | 0.70144    |   0.0 |  1.07
Other   |            | 0.2015     |            |       |  0.31

Nlocal:    19652 ave 19652 max 19652 min
Histogram: 1 0 0 0 0 0 0 0 0 0
Nghost:    17081 ave 17081 max 17081 min
Histogram: 1 0 0 0 0 0 0 0 0 0
Neighs:    1.25458e+06 ave 1.25458e+06 max 1.25458e+06 min
Histogram: 1 0 0 0 0 0 0 0 0 0

Total # of neighbors = 1254585
Ave neighs/atom = 63.8401
Neighbor list builds = 495
Dangerous builds not checked
Setting up Verlet run ...
  Unit style    : metal
  Current step  : 54502
  Time step     : 0.001
Per MPI rank memory allocation (min/avg/max) = 18.2 | 18.2 | 18.2 Mbytes
Step Temp Press TotEng PotEng Enthalpy Volume 
   54502    1374.9001    685.89269   -46240.642   -49733.014   -46071.179    395849.11 
   54674    1363.6791   -1052.2118   -46321.951    -49785.82   -46582.209    396288.17 
Loop time of 21.4105 on 1 procs for 172 steps with 19652 atoms

Performance: 0.694 ns/day, 34.578 hours/ns, 8.033 timesteps/s
98.8% CPU use with 1 MPI tasks x no OpenMP threads

MPI task timing breakdown:
Section |  min time  |  avg time  |  max time  |%varavg| %total
---------------------------------------------------------------
Pair    | 11.215     | 11.215     | 11.215     |   0.0 | 52.38
Neigh   | 9.728      | 9.728      | 9.728      |   0.0 | 45.44
Comm    | 0.17596    | 0.17596    | 0.17596    |   0.0 |  0.82
Output  | 0.00016403 | 0.00016403 | 0.00016403 |   0.0 |  0.00
Modify  | 0.22539    | 0.22539    | 0.22539    |   0.0 |  1.05
Other   |            | 0.06589    |            |       |  0.31

Nlocal:    19652 ave 19652 max 19652 min
Histogram: 1 0 0 0 0 0 0 0 0 0
Nghost:    17039 ave 17039 max 17039 min
Histogram: 1 0 0 0 0 0 0 0 0 0
Neighs:    1.25365e+06 ave 1.25365e+06 max 1.25365e+06 min
Histogram: 1 0 0 0 0 0 0 0 0 0

Total # of neighbors = 1253650
Ave neighs/atom = 63.7925
Neighbor list builds = 172
Dangerous builds not checked
Setting up Verlet run ...
  Unit style    : metal
  Current step  : 54674
  Time step     : 0.001
Per MPI rank memory allocation (min/avg/max) = 18.2 | 18.2 | 18.2 Mbytes
Step Temp Press TotEng PotEng Enthalpy Volume 
   54674    1363.6791   -1052.2118   -46321.951    -49785.82   -46582.209    396288.17 
   54694    1358.6662   -829.38994   -46323.337   -49774.473   -46528.468    396262.52 
   55169    1305.0528    103.80089   -46594.882   -49909.835   -46569.356    393987.54 
Loop time of 67.0128 on 1 procs for 495 steps with 19652 atoms

Performance: 0.638 ns/day, 37.605 hours/ns, 7.387 timesteps/s
99.0% CPU use with 1 MPI tasks x no OpenMP threads

MPI task timing breakdown:
Section |  min time  |  avg time  |  max time  |%varavg| %total
---------------------------------------------------------------
Pair    | 35.053     | 35.053     | 35.053     |   0.0 | 52.31
Neigh   | 30.332     | 30.332     | 30.332     |   0.0 | 45.26
Comm    | 0.52451    | 0.52451    | 0.52451    |   0.0 |  0.78
Output  | 0.15683    | 0.15683    | 0.15683    |   0.0 |  0.23
Modify  | 0.73837    | 0.73837    | 0.73837    |   0.0 |  1.10
Other   |            | 0.208      |            |       |  0.31

Nlocal:    19652 ave 19652 max 19652 min
Histogram: 1 0 0 0 0 0 0 0 0 0
Nghost:    17110 ave 17110 max 17110 min
Histogram: 1 0 0 0 0 0 0 0 0 0
Neighs:    1.26045e+06 ave 1.26045e+06 max 1.26045e+06 min
Histogram: 1 0 0 0 0 0 0 0 0 0

Total # of neighbors = 1260448
Ave neighs/atom = 64.1384
Neighbor list builds = 495
Dangerous builds not checked
Setting up Verlet run ...
  Unit style    : metal
  Current step  : 55169
  Time step     : 0.001
Per MPI rank memory allocation (min/avg/max) = 18.2 | 18.2 | 18.2 Mbytes
Step Temp Press TotEng PotEng Enthalpy Volume 
   55169    1305.0528    103.80089   -46594.882   -49909.835   -46569.356    393987.54 
   55341    1306.7223   -333.29989   -46650.331   -49969.525   -46732.157    393340.05 
Loop time of 22.3009 on 1 procs for 172 steps with 19652 atoms

Performance: 0.666 ns/day, 36.016 hours/ns, 7.713 timesteps/s
99.9% CPU use with 1 MPI tasks x no OpenMP threads

MPI task timing breakdown:
Section |  min time  |  avg time  |  max time  |%varavg| %total
---------------------------------------------------------------
Pair    | 11.707     | 11.707     | 11.707     |   0.0 | 52.50
Neigh   | 10.091     | 10.091     | 10.091     |   0.0 | 45.25
[...]
Output  | 0.23144    | 0.23144    | 0.23144    |   0.0 |  0.35
Modify  | 0.6489     | 0.6489     | 0.6489     |   0.0 |  0.98
Other   |            | 0.1946     |            |       |  0.29

Nlocal:    19652 ave 19652 max 19652 min
Histogram: 1 0 0 0 0 0 0 0 0 0
Nghost:    17840 ave 17840 max 17840 min
Histogram: 1 0 0 0 0 0 0 0 0 0
Neighs:    1.40918e+06 ave 1.40918e+06 max 1.40918e+06 min
Histogram: 1 0 0 0 0 0 0 0 0 0

Total # of neighbors = 1409175
Ave neighs/atom = 71.7064
Neighbor list builds = 495
Dangerous builds not checked
Setting up Verlet run ...
  Unit style    : metal
  Current step  : 67175
  Time step     : 0.001
Per MPI rank memory allocation (min/avg/max) = 18.2 | 18.2 | 18.2 Mbytes
Step Temp Press TotEng PotEng Enthalpy Volume 
   67175    424.32853    68.866897   -52427.155   -53504.989    -52411.96    353515.37 
   67347    417.35037   -82.602688   -52488.549   -53548.657   -52506.755    353139.56 
Loop time of 22.1769 on 1 procs for 172 steps with 19652 atoms

Performance: 0.670 ns/day, 35.815 hours/ns, 7.756 timesteps/s
100.0% CPU use with 1 MPI tasks x no OpenMP threads

MPI task timing breakdown:
Section |  min time  |  avg time  |  max time  |%varavg| %total
---------------------------------------------------------------
Pair    | 11.576     | 11.576     | 11.576     |   0.0 | 52.20
Neigh   | 10.154     | 10.154     | 10.154     |   0.0 | 45.79
Comm    | 0.16408    | 0.16408    | 0.16408    |   0.0 |  0.74
Output  | 0.00016904 | 0.00016904 | 0.00016904 |   0.0 |  0.00
Modify  | 0.21876    | 0.21876    | 0.21876    |   0.0 |  0.99
Other   |            | 0.06369    |            |       |  0.29

Nlocal:    19652 ave 19652 max 19652 min
Histogram: 1 0 0 0 0 0 0 0 0 0
Nghost:    17861 ave 17861 max 17861 min
Histogram: 1 0 0 0 0 0 0 0 0 0
Neighs:    1.41092e+06 ave 1.41092e+06 max 1.41092e+06 min
Histogram: 1 0 0 0 0 0 0 0 0 0

Total # of neighbors = 1410921
Ave neighs/atom = 71.7953
Neighbor list builds = 172
Dangerous builds not checked
Setting up Verlet run ...
  Unit style    : metal
  Current step  : 67347
  Time step     : 0.001
Per MPI rank memory allocation (min/avg/max) = 18.2 | 18.2 | 18.2 Mbytes
Step Temp Press TotEng PotEng Enthalpy Volume 
   67347    417.35037   -82.602688   -52488.549   -53548.657   -52506.755    353139.56 
   67367    419.11621   -189.33628   -52490.568   -53555.161   -52532.299    353130.86 
   67842    376.56715   -66.451646   -52734.684   -53691.199   -52749.272    351709.43 
Loop time of 64.6448 on 1 procs for 495 steps with 19652 atoms

Performance: 0.662 ns/day, 36.277 hours/ns, 7.657 timesteps/s
99.9% CPU use with 1 MPI tasks x no OpenMP threads

MPI task timing breakdown:
Section |  min time  |  avg time  |  max time  |%varavg| %total
---------------------------------------------------------------
Pair    | 33.633     | 33.633     | 33.633     |   0.0 | 52.03
Neigh   | 29.573     | 29.573     | 29.573     |   0.0 | 45.75
Comm    | 0.47888    | 0.47888    | 0.47888    |   0.0 |  0.74
Output  | 0.13982    | 0.13982    | 0.13982    |   0.0 |  0.22
Modify  | 0.63801    | 0.63801    | 0.63801    |   0.0 |  0.99
Other   |            | 0.1827     |            |       |  0.28

Nlocal:    19652 ave 19652 max 19652 min
Histogram: 1 0 0 0 0 0 0 0 0 0
Nghost:    17911 ave 17911 max 17911 min
Histogram: 1 0 0 0 0 0 0 0 0 0
Neighs:    1.41674e+06 ave 1.41674e+06 max 1.41674e+06 min
Histogram: 1 0 0 0 0 0 0 0 0 0

Total # of neighbors = 1416742
Ave neighs/atom = 72.0915
Neighbor list builds = 495
Dangerous builds not checked
Setting up Verlet run ...
  Unit style    : metal
  Current step  : 67842
  Time step     : 0.001
Per MPI rank memory allocation (min/avg/max) = 18.2 | 18.2 | 18.2 Mbytes
Step Temp Press TotEng PotEng Enthalpy Volume 
   67842    376.56715   -66.451646   -52734.684   -53691.199   -52749.272    351709.43 
   68014    364.80904    236.85005   -52795.566   -53722.214   -52743.636    351277.89 
Loop time of 24.0554 on 1 procs for 172 steps with 19652 atoms

Performance: 0.618 ns/day, 38.849 hours/ns, 7.150 timesteps/s
99.6% CPU use with 1 MPI tasks x no OpenMP threads

MPI task timing breakdown:
Section |  min time  |  avg time  |  max time  |%varavg| %total
---------------------------------------------------------------
Pair    | 12.731     | 12.731     | 12.731     |   0.0 | 52.93
Neigh   | 10.82      | 10.82      | 10.82      |   0.0 | 44.98
Comm    | 0.18422    | 0.18422    | 0.18422    |   0.0 |  0.77
Output  | 0.00020289 | 0.00020289 | 0.00020289 |   0.0 |  0.00
Modify  | 0.24886    | 0.24886    | 0.24886    |   0.0 |  1.03
Other   |            | 0.07016    |            |       |  0.29

Nlocal:    19652 ave 19652 max 19652 min
Histogram: 1 0 0 0 0 0 0 0 0 0
Nghost:    17915 ave 17915 max 17915 min
Histogram: 1 0 0 0 0 0 0 0 0 0
Neighs:    1.41837e+06 ave 1.41837e+06 max 1.41837e+06 min
Histogram: 1 0 0 0 0 0 0 0 0 0

Total # of neighbors = 1418370
Ave neighs/atom = 72.1743
Neighbor list builds = 172
Dangerous builds not checked
Setting up Verlet run ...
  Unit style    : metal
  Current step  : 68014
  Time step     : 0.001
Per MPI rank memory allocation (min/avg/max) = 18.2 | 18.2 | 18.2 Mbytes
Step Temp Press TotEng PotEng Enthalpy Volume 
   68014    364.80904    236.85005   -52795.566   -53722.214   -52743.636    351277.89 
   68034    366.91256    79.311899   -52797.317   -53729.308   -52779.927    351292.87 
   68509    327.45869   -66.972786   -53025.964   -53857.739   -53040.599    350115.15 
Loop time of 66.9177 on 1 procs for 495 steps with 19652 atoms

Performance: 0.639 ns/day, 37.552 hours/ns, 7.397 timesteps/s
98.9% CPU use with 1 MPI tasks x no OpenMP threads

MPI task timing breakdown:
Section |  min time  |  avg time  |  max time  |%varavg| %total
---------------------------------------------------------------
Pair    | 35.025     | 35.025     | 35.025     |   0.0 | 52.34
Neigh   | 30.456     | 30.456     | 30.456     |   0.0 | 45.51
Comm    | 0.49582    | 0.49582    | 0.49582    |   0.0 |  0.74
Output  | 0.10522    | 0.10522    | 0.10522    |   0.0 |  0.16
Modify  | 0.64774    | 0.64774    | 0.64774    |   0.0 |  0.97
Other   |            | 0.1878     |            |       |  0.28

Nlocal:    19652 ave 19652 max 19652 min
Histogram: 1 0 0 0 0 0 0 0 0 0
Nghost:    17897 ave 17897 max 17897 min
Histogram: 1 0 0 0 0 0 0 0 0 0
Neighs:    1.42293e+06 ave 1.42293e+06 max 1.42293e+06 min
Histogram: 1 0 0 0 0 0 0 0 0 0

Total # of neighbors = 1422928
Ave neighs/atom = 72.4063
Neighbor list builds = 495
Dangerous builds not checked
Setting up Verlet run ...
  Unit style    : metal
  Current step  : 68509
  Time step     : 0.001
Per MPI rank memory allocation (min/avg/max) = 18.2 | 18.2 | 18.2 Mbytes
Step Temp Press TotEng PotEng Enthalpy Volume 
   68509    327.45869   -66.972786   -53025.964   -53857.739   -53040.599    350115.15 
   68681      319.931    -114.7153   -53084.945   -53897.598   -53109.988    349768.28 
Loop time of 24.9008 on 1 procs for 172 steps with 19652 atoms

Performance: 0.597 ns/day, 40.215 hours/ns, 6.907 timesteps/s
100.0% CPU use with 1 MPI tasks x no OpenMP threads

MPI task timing breakdown:
Section |  min time  |  avg time  |  max time  |%varavg| %total
---------------------------------------------------------------
Pair    | 13.076     | 13.076     | 13.076     |   0.0 | 52.51
Neigh   | 11.32      | 11.32      | 11.32      |   0.0 | 45.46
Comm    | 0.18383    | 0.18383    | 0.18383    |   0.0 |  0.74
Output  | 0.00017405 | 0.00017405 | 0.00017405 |   0.0 |  0.00
Modify  | 0.2502     | 0.2502     | 0.2502     |   0.0 |  1.00
Other   |            | 0.07085    |            |       |  0.28

Nlocal:    19652 ave 19652 max 19652 min
Histogram: 1 0 0 0 0 0 0 0 0 0
Nghost:    17893 ave 17893 max 17893 min
Histogram: 1 0 0 0 0 0 0 0 0 0
Neighs:    1.42446e+06 ave 1.42446e+06 max 1.42446e+06 min
Histogram: 1 0 0 0 0 0 0 0 0 0

Total # of neighbors = 1424460
Ave neighs/atom = 72.4842
Neighbor list builds = 172
Dangerous builds not checked
Setting up Verlet run ...
  Unit style    : metal
  Current step  : 68681
  Time step     : 0.001
Per MPI rank memory allocation (min/avg/max) = 18.2 | 18.2 | 18.2 Mbytes
Step Temp Press TotEng PotEng Enthalpy Volume 
   68681      319.931    -114.7153   -53084.945   -53897.598   -53109.988    349768.28 
   68701    320.39499   -149.11581   -53087.243   -53901.075   -53119.795    349755.58 
   69176    278.89322   -1.7073785   -53307.038   -54015.452   -53307.409    348604.74 
Loop time of 70.5937 on 1 procs for 495 steps with 19652 atoms

Performance: 0.606 ns/day, 39.615 hours/ns, 7.012 timesteps/s
98.7% CPU use with 1 MPI tasks x no OpenMP threads

MPI task timing breakdown:
Section |  min time  |  avg time  |  max time  |%varavg| %total
---------------------------------------------------------------
Pair    | 37.19      | 37.19      | 37.19      |   0.0 | 52.68
Neigh   | 31.869     | 31.869     | 31.869     |   0.0 | 45.14
Comm    | 0.52291    | 0.52291    | 0.52291    |   0.0 |  0.74
Output  | 0.1188     | 0.1188     | 0.1188     |   0.0 |  0.17
Modify  | 0.69442    | 0.69442    | 0.69442    |   0.0 |  0.98
Other   |            | 0.1994     |            |       |  0.28

Nlocal:    19652 ave 19652 max 19652 min
Histogram: 1 0 0 0 0 0 0 0 0 0
Nghost:    17963 ave 17963 max 17963 min
Histogram: 1 0 0 0 0 0 0 0 0 0
Neighs:    1.42869e+06 ave 1.42869e+06 max 1.42869e+06 min
Histogram: 1 0 0 0 0 0 0 0 0 0

Total # of neighbors = 1428690
Ave neighs/atom = 72.6995
Neighbor list builds = 495
Dangerous builds not checked
Setting up Verlet run ...
  Unit style    : metal
  Current step  : 69176
  Time step     : 0.001
Per MPI rank memory allocation (min/avg/max) = 18.2 | 18.2 | 18.2 Mbytes
Step Temp Press TotEng PotEng Enthalpy Volume 
   69176    278.89322   -1.7073785   -53307.038   -54015.452   -53307.409    348604.74 
   69348    267.11343    -139.3842   -53365.093   -54043.586   -53395.402    348384.73 
Loop time of 24.1498 on 1 procs for 172 steps with 19652 atoms

Performance: 0.615 ns/day, 39.002 hours/ns, 7.122 timesteps/s
95.6% CPU use with 1 MPI tasks x no OpenMP threads

MPI task timing breakdown:
Section |  min time  |  avg time  |  max time  |%varavg| %total
---------------------------------------------------------------
Pair    | 12.669     | 12.669     | 12.669     |   0.0 | 52.46
Neigh   | 10.993     | 10.993     | 10.993     |   0.0 | 45.52
Comm    | 0.16963    | 0.16963    | 0.16963    |   0.0 |  0.70
Output  | 0.00018597 | 0.00018597 | 0.00018597 |   0.0 |  0.00
Modify  | 0.24031    | 0.24031    | 0.24031    |   0.0 |  1.00
Other   |            | 0.07854    |            |       |  0.33

Nlocal:    19652 ave 19652 max 19652 min
Histogram: 1 0 0 0 0 0 0 0 0 0
Nghost:    17940 ave 17940 max 17940 min
Histogram: 1 0 0 0 0 0 0 0 0 0
Neighs:    1.42988e+06 ave 1.42988e+06 max 1.42988e+06 min
Histogram: 1 0 0 0 0 0 0 0 0 0

Total # of neighbors = 1429883
Ave neighs/atom = 72.7602
Neighbor list builds = 172
Dangerous builds not checked
Setting up Verlet run ...
  Unit style    : metal
  Current step  : 69348
  Time step     : 0.001
Per MPI rank memory allocation (min/avg/max) = 18.2 | 18.2 | 18.2 Mbytes
Step Temp Press TotEng PotEng Enthalpy Volume 
   69348    267.11343    -139.3842   -53365.093   -54043.586   -53395.402    348384.73 
   69368    267.56958   -166.78346   -53367.062   -54046.713   -53403.326    348368.07 
   69843    229.11554   -120.90247   -53580.441   -54162.416   -53606.647     347269.4 
Loop time of 67.029 on 1 procs for 495 steps with 19652 atoms

Performance: 0.638 ns/day, 37.614 hours/ns, 7.385 timesteps/s
99.8% CPU use with 1 MPI tasks x no OpenMP threads

MPI task timing breakdown:
Section |  min time  |  avg time  |  max time  |%varavg| %total
---------------------------------------------------------------
Pair    | 35.012     | 35.012     | 35.012     |   0.0 | 52.23
Neigh   | 30.511     | 30.511     | 30.511     |   0.0 | 45.52
Comm    | 0.48801    | 0.48801    | 0.48801    |   0.0 |  0.73
Output  | 0.17019    | 0.17019    | 0.17019    |   0.0 |  0.25
Modify  | 0.6574     | 0.6574     | 0.6574     |   0.0 |  0.98
Other   |            | 0.1908     |            |       |  0.28

Nlocal:    19652 ave 19652 max 19652 min
Histogram: 1 0 0 0 0 0 0 0 0 0
Nghost:    17961 ave 17961 max 17961 min
Histogram: 1 0 0 0 0 0 0 0 0 0
Neighs:    1.4342e+06 ave 1.4342e+06 max 1.4342e+06 min
Histogram: 1 0 0 0 0 0 0 0 0 0

Total # of neighbors = 1434201
Ave neighs/atom = 72.9799
Neighbor list builds = 495
Dangerous builds not checked
Setting up Verlet run ...
  Unit style    : metal
  Current step  : 69843
  Time step     : 0.001
Per MPI rank memory allocation (min/avg/max) = 18.2 | 18.2 | 18.2 Mbytes
Step Temp Press TotEng PotEng Enthalpy Volume 
   69843    229.11554   -120.90247   -53580.441   -54162.416   -53606.647     347269.4 
   70015    220.24034    -57.70552   -53637.072   -54196.502   -53649.568    346943.79 
Loop time of 21.3322 on 1 procs for 172 steps with 19652 atoms

Performance: 0.697 ns/day, 34.451 hours/ns, 8.063 timesteps/s
100.0% CPU use with 1 MPI tasks x no OpenMP threads

MPI task timing breakdown:
Section |  min time  |  avg time  |  max time  |%varavg| %total
---------------------------------------------------------------
Pair    | 11.03      | 11.03      | 11.03      |   0.0 | 51.70
Neigh   | 9.8771     | 9.8771     | 9.8771     |   0.0 | 46.30
Comm    | 0.15269    | 0.15269    | 0.15269    |   0.0 |  0.72
Output  | 0.0001471  | 0.0001471  | 0.0001471  |   0.0 |  0.00
Modify  | 0.21135    | 0.21135    | 0.21135    |   0.0 |  0.99
Other   |            | 0.06112    |            |       |  0.29

Nlocal:    19652 ave 19652 max 19652 min
Histogram: 1 0 0 0 0 0 0 0 0 0
Nghost:    17984 ave 17984 max 17984 min
Histogram: 1 0 0 0 0 0 0 0 0 0
Neighs:    1.43538e+06 ave 1.43538e+06 max 1.43538e+06 min
Histogram: 1 0 0 0 0 0 0 0 0 0

Total # of neighbors = 1435383
Ave neighs/atom = 73.04
Neighbor list builds = 172
Dangerous builds not checked
Setting up Verlet run ...
  Unit style    : metal
  Current step  : 70015
  Time step     : 0.001
Per MPI rank memory allocation (min/avg/max) = 18.2 | 18.2 | 18.2 Mbytes
Step Temp Press TotEng PotEng Enthalpy Volume 
   70015    220.24034    -57.70552   -53637.072   -54196.502   -53649.568    346943.79 
   70035    220.14772   -72.286883    -53639.41   -54198.605   -53655.063     346934.6 
   70510    180.92794    173.06587   -53847.815   -54307.389   -53810.462    345799.53 
Loop time of 67.0987 on 1 procs for 495 steps with 19652 atoms

Performance: 0.637 ns/day, 37.654 hours/ns, 7.377 timesteps/s
99.3% CPU use with 1 MPI tasks x no OpenMP threads

MPI task timing breakdown:
Section |  min time  |  avg time  |  max time  |%varavg| %total
---------------------------------------------------------------
Pair    | 34.959     | 34.959     | 34.959     |   0.0 | 52.10
Neigh   | 30.65      | 30.65      | 30.65      |   0.0 | 45.68
Comm    | 0.48316    | 0.48316    | 0.48316    |   0.0 |  0.72
Output  | 0.15948    | 0.15948    | 0.15948    |   0.0 |  0.24
Modify  | 0.65603    | 0.65603    | 0.65603    |   0.0 |  0.98
Other   |            | 0.1907     |            |       |  0.28

Nlocal:    19652 ave 19652 max 19652 min
Histogram: 1 0 0 0 0 0 0 0 0 0
Nghost:    18008 ave 18008 max 18008 min
Histogram: 1 0 0 0 0 0 0 0 0 0
Neighs:    1.43997e+06 ave 1.43997e+06 max 1.43997e+06 min
Histogram: 1 0 0 0 0 0 0 0 0 0

Total # of neighbors = 1439969
Ave neighs/atom = 73.2734
Neighbor list builds = 495
Dangerous builds not checked
Setting up Verlet run ...
  Unit style    : metal
  Current step  : 70510
  Time step     : 0.001
Per MPI rank memory allocation (min/avg/max) = 18.2 | 18.2 | 18.2 Mbytes
Step Temp Press TotEng PotEng Enthalpy Volume 
   70510    180.92794    173.06587   -53847.815   -54307.389   -53810.462    345799.53 
   70682    171.72558    -102.4102   -53903.203   -54339.402   -53925.295    345618.54 
Loop time of 24.6607 on 1 procs for 172 steps with 19652 atoms

Performance: 0.603 ns/day, 39.827 hours/ns, 6.975 timesteps/s
100.0% CPU use with 1 MPI tasks x no OpenMP threads

MPI task timing breakdown:
Section |  min time  |  avg time  |  max time  |%varavg| %total
---------------------------------------------------------------
Pair    | 12.957     | 12.957     | 12.957     |   0.0 | 52.54
Neigh   | 11.201     | 11.201     | 11.201     |   0.0 | 45.42
Comm    | 0.18184    | 0.18184    | 0.18184    |   0.0 |  0.74
Output  | 0.00020289 | 0.00020289 | 0.00020289 |   0.0 |  0.00
Modify  | 0.25009    | 0.25009    | 0.25009    |   0.0 |  1.01
Other   |            | 0.07101    |            |       |  0.29

Nlocal:    19652 ave 19652 max 19652 min
Histogram: 1 0 0 0 0 0 0 0 0 0
Nghost:    18007 ave 18007 max 18007 min
Histogram: 1 0 0 0 0 0 0 0 0 0
Neighs:    1.44036e+06 ave 1.44036e+06 max 1.44036e+06 min
Histogram: 1 0 0 0 0 0 0 0 0 0

Total # of neighbors = 1440364
Ave neighs/atom = 73.2935
Neighbor list builds = 172
Dangerous builds not checked
Setting up Verlet run ...
  Unit style    : metal
  Current step  : 70682
  Time step     : 0.001
Per MPI rank memory allocation (min/avg/max) = 18.2 | 18.2 | 18.2 Mbytes
Step Temp Press TotEng PotEng Enthalpy Volume 
   70682    171.72558    -102.4102   -53903.203   -54339.402   -53925.295    345618.54 
   70702    171.92062   -114.00277   -53905.769   -54342.463    -53930.36    345597.74 
   71177    131.74677   -267.51856   -54109.927   -54444.576   -54167.487    344728.28 
Loop time of 61.1726 on 1 procs for 495 steps with 19652 atoms

Performance: 0.699 ns/day, 34.328 hours/ns, 8.092 timesteps/s
99.7% CPU use with 1 MPI tasks x no OpenMP threads

MPI task timing breakdown:
Section |  min time  |  avg time  |  max time  |%varavg| %total
---------------------------------------------------------------
Pair    | 31.801     | 31.801     | 31.801     |   0.0 | 51.99
Neigh   | 27.944     | 27.944     | 27.944     |   0.0 | 45.68
Comm    | 0.44144    | 0.44144    | 0.44144    |   0.0 |  0.72
Output  | 0.21975    | 0.21975    | 0.21975    |   0.0 |  0.36
Modify  | 0.5914     | 0.5914     | 0.5914     |   0.0 |  0.97
Other   |            | 0.1751     |            |       |  0.29

Nlocal:    19652 ave 19652 max 19652 min
Histogram: 1 0 0 0 0 0 0 0 0 0
Nghost:    17981 ave 17981 max 17981 min
Histogram: 1 0 0 0 0 0 0 0 0 0
Neighs:    1.44378e+06 ave 1.44378e+06 max 1.44378e+06 min
Histogram: 1 0 0 0 0 0 0 0 0 0

Total # of neighbors = 1443784
Ave neighs/atom = 73.4675
Neighbor list builds = 495
Dangerous builds not checked
Setting up Verlet run ...
  Unit style    : metal
  Current step  : 71177
  Time step     : 0.001
Per MPI rank memory allocation (min/avg/max) = 18.2 | 18.2 | 18.2 Mbytes
Step Temp Press TotEng PotEng Enthalpy Volume 
   71177    131.74677   -267.51856   -54109.927   -54444.576   -54167.487    344728.28 
   71349    122.05313    303.07334   -54165.116   -54475.142   -54100.001    344229.63 
Loop time of 17.7892 on 1 procs for 172 steps with 19652 atoms

Performance: 0.835 ns/day, 28.729 hours/ns, 9.669 timesteps/s
100.0% CPU use with 1 MPI tasks x no OpenMP threads

MPI task timing breakdown:
Section |  min time  |  avg time  |  max time  |%varavg| %total
---------------------------------------------------------------
Pair    | 9.1549     | 9.1549     | 9.1549     |   0.0 | 51.46
Neigh   | 8.2904     | 8.2904     | 8.2904     |   0.0 | 46.60
Comm    | 0.12712    | 0.12712    | 0.12712    |   0.0 |  0.71
Output  | 0.00014997 | 0.00014997 | 0.00014997 |   0.0 |  0.00
Modify  | 0.16585    | 0.16585    | 0.16585    |   0.0 |  0.93
Other   |            | 0.0508     |            |       |  0.29

Nlocal:    19652 ave 19652 max 19652 min
Histogram: 1 0 0 0 0 0 0 0 0 0
Nghost:    17996 ave 17996 max 17996 min
Histogram: 1 0 0 0 0 0 0 0 0 0
Neighs:    1.44571e+06 ave 1.44571e+06 max 1.44571e+06 min
Histogram: 1 0 0 0 0 0 0 0 0 0

Total # of neighbors = 1445709
Ave neighs/atom = 73.5655
Neighbor list builds = 172
Dangerous builds not checked
Total wall time: 2:35:14
