LAMMPS (12 Dec 2018)
Lattice spacing in x,y,z = 4 4 4
Created orthogonal box = (0 0 0) to (68 68 68)
  1 by 1 by 1 MPI processor grid
Created 19652 atoms
  Time spent = 0.00326395 secs
Setting atom values ...
  19281 settings made for type/fraction
Neighbor list info ...
  update every 1 steps, delay 0 steps, check no
  max neighbors/atom: 2000, page size: 100000
  master list distance cutoff = 8.5
  ghost atom cutoff = 8.5
  binsize = 4.25, bins = 16 16 16
  1 neighbor lists, perpetual/occasional/extra = 1 0 0
  (1) pair eam/alloy, perpetual
      attributes: half, newton on
      pair build: half/bin/atomonly/newton
      stencil: half/bin/3d/newton
      bin: standard
Setting up Verlet run ...
  Unit style    : metal
  Current step  : 0
  Time step     : 0.001
Per MPI rank memory allocation (min/avg/max) = 18.19 | 18.19 | 18.19 Mbytes
Step Temp Press TotEng PotEng Enthalpy 
       0          300   -166746.06   -61341.629   -62103.656   -94066.049 
    1000    406.71972   -80205.542    -61341.63   -62374.735    -77082.21 
Loop time of 141.885 on 1 procs for 1000 steps with 19652 atoms

Performance: 0.609 ns/day, 39.413 hours/ns, 7.048 timesteps/s
99.9% CPU use with 1 MPI tasks x no OpenMP threads

MPI task timing breakdown:
Section |  min time  |  avg time  |  max time  |%varavg| %total
---------------------------------------------------------------
Pair    | 78.115     | 78.115     | 78.115     |   0.0 | 55.06
Neigh   | 62.053     | 62.053     | 62.053     |   0.0 | 43.73
Comm    | 1.0077     | 1.0077     | 1.0077     |   0.0 |  0.71
Output  | 0.00026202 | 0.00026202 | 0.00026202 |   0.0 |  0.00
Modify  | 0.3629     | 0.3629     | 0.3629     |   0.0 |  0.26
Other   |            | 0.3465     |            |       |  0.24

Nlocal:    19652 ave 19652 max 19652 min
Histogram: 1 0 0 0 0 0 0 0 0 0
Nghost:    19029 ave 19029 max 19029 min
Histogram: 1 0 0 0 0 0 0 0 0 0
Neighs:    1.57606e+06 ave 1.57606e+06 max 1.57606e+06 min
Histogram: 1 0 0 0 0 0 0 0 0 0

Total # of neighbors = 1576060
Ave neighs/atom = 80.1985
Neighbor list builds = 1000
Dangerous builds not checked
Setting up Verlet run ...
  Unit style    : metal
  Current step  : 1000
  Time step     : 0.001
Per MPI rank memory allocation (min/avg/max) = 18.19 | 18.19 | 18.19 Mbytes
Step Temp Press TotEng PotEng Enthalpy 
    1000    406.71972   -80205.542    -61341.63   -62374.735    -77082.21 
    2000    392.97964    -1298.975   -65417.231   -66415.435   -65615.126 
Loop time of 162.479 on 1 procs for 1000 steps with 19652 atoms

Performance: 0.532 ns/day, 45.133 hours/ns, 6.155 timesteps/s
99.9% CPU use with 1 MPI tasks x no OpenMP threads

MPI task timing breakdown:
Section |  min time  |  avg time  |  max time  |%varavg| %total
---------------------------------------------------------------
Pair    | 86.79      | 86.79      | 86.79      |   0.0 | 53.42
Neigh   | 73.326     | 73.326     | 73.326     |   0.0 | 45.13
Comm    | 0.88743    | 0.88743    | 0.88743    |   0.0 |  0.55
Output  | 0.00019097 | 0.00019097 | 0.00019097 |   0.0 |  0.00
Modify  | 1.1607     | 1.1607     | 1.1607     |   0.0 |  0.71
Other   |            | 0.3148     |            |       |  0.19

Nlocal:    19652 ave 19652 max 19652 min
Histogram: 1 0 0 0 0 0 0 0 0 0
Nghost:    20385 ave 20385 max 20385 min
Histogram: 1 0 0 0 0 0 0 0 0 0
Neighs:    2.00839e+06 ave 2.00839e+06 max 2.00839e+06 min
Histogram: 1 0 0 0 0 0 0 0 0 0

Total # of neighbors = 2008388
Ave neighs/atom = 102.198
Neighbor list builds = 1000
Dangerous builds not checked
Setting up Verlet run ...
  Unit style    : metal
  Current step  : 2000
  Time step     : 0.001
Per MPI rank memory allocation (min/avg/max) = 19.34 | 19.34 | 19.34 Mbytes
Step Temp Press TotEng PotEng Enthalpy 
    2000    392.97964    -1298.975   -65417.231   -66415.435   -65615.126 
    6667    1481.9068    92.541427   -59004.579   -62768.757   -58989.306 
   10000     2435.957   -1569.5398   -52550.384   -58737.937   -52842.141 
Loop time of 1271.53 on 1 procs for 8000 steps with 19652 atoms

Performance: 0.544 ns/day, 44.150 hours/ns, 6.292 timesteps/s
100.0% CPU use with 1 MPI tasks x no OpenMP threads

MPI task timing breakdown:
Section |  min time  |  avg time  |  max time  |%varavg| %total
---------------------------------------------------------------
Pair    | 681.09     | 681.09     | 681.09     |   0.0 | 53.56
Neigh   | 571.43     | 571.43     | 571.43     |   0.0 | 44.94
Comm    | 7.2081     | 7.2081     | 7.2081     |   0.0 |  0.57
Output  | 0.06598    | 0.06598    | 0.06598    |   0.0 |  0.01
Modify  | 9.2466     | 9.2466     | 9.2466     |   0.0 |  0.73
Other   |            | 2.49       |            |       |  0.20

Nlocal:    19652 ave 19652 max 19652 min
Histogram: 1 0 0 0 0 0 0 0 0 0
Nghost:    19100 ave 19100 max 19100 min
Histogram: 1 0 0 0 0 0 0 0 0 0
Neighs:    1.65422e+06 ave 1.65422e+06 max 1.65422e+06 min
Histogram: 1 0 0 0 0 0 0 0 0 0

Total # of neighbors = 1654221
Ave neighs/atom = 84.1757
Neighbor list builds = 8000
Dangerous builds not checked
Setting up Verlet run ...
  Unit style    : metal
  Current step  : 10000
  Time step     : 0.001
Per MPI rank memory allocation (min/avg/max) = 19.34 | 19.34 | 19.34 Mbytes
Step Temp Press TotEng PotEng Enthalpy 
   10000     2435.957   -1569.5398   -52550.384   -58737.937   -52842.141 
   13334    2472.3798    1939.1734   -52338.683   -58618.753   -51977.709 
   20001    2441.5683    1437.1359   -52435.999   -58637.805   -52168.871 
   26668    2444.7585   -1119.6331    -52406.47   -58616.379   -52615.254 
   33335    2423.6695   -621.23162   -52509.006   -58665.347   -52624.612 
   40000    2442.5443    418.43154   -52450.983   -58655.268   -52373.089 
Loop time of 4410.44 on 1 procs for 30000 steps with 19652 atoms

Performance: 0.588 ns/day, 40.837 hours/ns, 6.802 timesteps/s
100.0% CPU use with 1 MPI tasks x no OpenMP threads

MPI task timing breakdown:
Section |  min time  |  avg time  |  max time  |%varavg| %total
---------------------------------------------------------------
Pair    | 2349.5     | 2349.5     | 2349.5     |   0.0 | 53.27
Neigh   | 1991.4     | 1991.4     | 1991.4     |   0.0 | 45.15
Comm    | 26.752     | 26.752     | 26.752     |   0.0 |  0.61
Output  | 0.21063    | 0.21063    | 0.21063    |   0.0 |  0.00
Modify  | 33.568     | 33.568     | 33.568     |   0.0 |  0.76
Other   |            | 8.993      |            |       |  0.20

Nlocal:    19652 ave 19652 max 19652 min
Histogram: 1 0 0 0 0 0 0 0 0 0
Nghost:    19247 ave 19247 max 19247 min
Histogram: 1 0 0 0 0 0 0 0 0 0
Neighs:    1.65243e+06 ave 1.65243e+06 max 1.65243e+06 min
Histogram: 1 0 0 0 0 0 0 0 0 0

Total # of neighbors = 1652428
Ave neighs/atom = 84.0845
Neighbor list builds = 30000
Dangerous builds not checked
Setting up Verlet run ...
  Unit style    : metal
  Current step  : 40000
  Time step     : 0.001
Per MPI rank memory allocation (min/avg/max) = 19.34 | 19.34 | 19.34 Mbytes
Step Temp Press TotEng PotEng Enthalpy 
   40000    2442.5443    418.43154   -52450.983   -58655.268   -52373.089 
   40002    2442.3325    461.22015   -52450.973    -58654.72   -52365.113 
   40495    2398.7999    536.68352   -52657.428   -58750.598   -52557.881 
Loop time of 66.8808 on 1 procs for 495 steps with 19652 atoms

Performance: 0.639 ns/day, 37.531 hours/ns, 7.401 timesteps/s
100.0% CPU use with 1 MPI tasks x no OpenMP threads

MPI task timing breakdown:
Section |  min time  |  avg time  |  max time  |%varavg| %total
---------------------------------------------------------------
Pair    | 35.601     | 35.601     | 35.601     |   0.0 | 53.23
Neigh   | 30.181     | 30.181     | 30.181     |   0.0 | 45.13
Comm    | 0.4112     | 0.4112     | 0.4112     |   0.0 |  0.61
Output  | 0.041288   | 0.041288   | 0.041288   |   0.0 |  0.06
Modify  | 0.50772    | 0.50772    | 0.50772    |   0.0 |  0.76
Other   |            | 0.1391     |            |       |  0.21

Nlocal:    19652 ave 19652 max 19652 min
Histogram: 1 0 0 0 0 0 0 0 0 0
Nghost:    19256 ave 19256 max 19256 min
Histogram: 1 0 0 0 0 0 0 0 0 0
Neighs:    1.65799e+06 ave 1.65799e+06 max 1.65799e+06 min
Histogram: 1 0 0 0 0 0 0 0 0 0

Total # of neighbors = 1657988
Ave neighs/atom = 84.3674
Neighbor list builds = 495
Dangerous builds not checked
Setting up Verlet run ...
  Unit style    : metal
  Current step  : 40495
  Time step     : 0.001
Per MPI rank memory allocation (min/avg/max) = 19.34 | 19.34 | 19.34 Mbytes
Step Temp Press TotEng PotEng Enthalpy 
   40495    2398.7999    536.68352   -52657.428   -58750.598   -52557.881 
   46667     2411.855     914.2032   -52713.516   -58839.847   -52544.468 
Loop time of 925.802 on 1 procs for 6172 steps with 19652 atoms

Performance: 0.576 ns/day, 41.667 hours/ns, 6.667 timesteps/s
100.0% CPU use with 1 MPI tasks x no OpenMP threads

MPI task timing breakdown:
Section |  min time  |  avg time  |  max time  |%varavg| %total
---------------------------------------------------------------
Pair    | 497.9      | 497.9      | 497.9      |   0.0 | 53.78
Neigh   | 413.16     | 413.16     | 413.16     |   0.0 | 44.63
Comm    | 5.7538     | 5.7538     | 5.7538     |   0.0 |  0.62
Output  | 0.00017285 | 0.00017285 | 0.00017285 |   0.0 |  0.00
Modify  | 7.0437     | 7.0437     | 7.0437     |   0.0 |  0.76
Other   |            | 1.94       |            |       |  0.21

Nlocal:    19652 ave 19652 max 19652 min
Histogram: 1 0 0 0 0 0 0 0 0 0
Nghost:    19249 ave 19249 max 19249 min
Histogram: 1 0 0 0 0 0 0 0 0 0
Neighs:    1.66297e+06 ave 1.66297e+06 max 1.66297e+06 min
Histogram: 1 0 0 0 0 0 0 0 0 0

Total # of neighbors = 1662966
Ave neighs/atom = 84.6207
Neighbor list builds = 6172
Dangerous builds not checked
Setting up Verlet run ...
  Unit style    : metal
  Current step  : 46667
  Time step     : 0.001
Per MPI rank memory allocation (min/avg/max) = 19.34 | 19.34 | 19.34 Mbytes
Step Temp Press TotEng PotEng Enthalpy 
   46667     2411.855     914.2032   -52713.516   -58839.847   -52544.468 
   46669    2412.9557    846.38559   -52713.534   -58842.662   -52557.027 
   47162    2354.0637    479.00464   -52941.796   -58921.332   -52853.449 
Loop time of 74.6128 on 1 procs for 495 steps with 19652 atoms

Performance: 0.573 ns/day, 41.870 hours/ns, 6.634 timesteps/s
99.9% CPU use with 1 MPI tasks x no OpenMP threads

MPI task timing breakdown:
Section |  min time  |  avg time  |  max time  |%varavg| %total
---------------------------------------------------------------
Pair    | 40.377     | 40.377     | 40.377     |   0.0 | 54.11
Neigh   | 32.987     | 32.987     | 32.987     |   0.0 | 44.21
Comm    | 0.46048    | 0.46048    | 0.46048    |   0.0 |  0.62
Output  | 0.040592   | 0.040592   | 0.040592   |   0.0 |  0.05
Modify  | 0.58521    | 0.58521    | 0.58521    |   0.0 |  0.78
Other   |            | 0.1627     |            |       |  0.22

Nlocal:    19652 ave 19652 max 19652 min
Histogram: 1 0 0 0 0 0 0 0 0 0
Nghost:    19262 ave 19262 max 19262 min
Histogram: 1 0 0 0 0 0 0 0 0 0
Neighs:    1.66748e+06 ave 1.66748e+06 max 1.66748e+06 min
Histogram: 1 0 0 0 0 0 0 0 0 0

Total # of neighbors = 1667480
Ave neighs/atom = 84.8504
Neighbor list builds = 495
Dangerous builds not checked
Setting up Verlet run ...
  Unit style    : metal
  Current step  : 47162
  Time step     : 0.001
Per MPI rank memory allocation (min/avg/max) = 19.34 | 19.34 | 19.34 Mbytes
Step Temp Press TotEng PotEng Enthalpy 
   47162    2354.0637    479.00464   -52941.796   -58921.332   -52853.449 
   53334    2377.6176    -1048.225   -52960.151   -58999.516   -53153.556 
Loop time of 1133.75 on 1 procs for 6172 steps with 19652 atoms

Performance: 0.470 ns/day, 51.026 hours/ns, 5.444 timesteps/s
99.9% CPU use with 1 MPI tasks x no OpenMP threads

MPI task timing breakdown:
Section |  min time  |  avg time  |  max time  |%varavg| %total
---------------------------------------------------------------
Pair    | 615.83     | 615.83     | 615.83     |   0.0 | 54.32
Neigh   | 499.89     | 499.89     | 499.89     |   0.0 | 44.09
Comm    | 6.9481     | 6.9481     | 6.9481     |   0.0 |  0.61
Output  | 0.00016117 | 0.00016117 | 0.00016117 |   0.0 |  0.00
Modify  | 8.7746     | 8.7746     | 8.7746     |   0.0 |  0.77
Other   |            | 2.315      |            |       |  0.20

Nlocal:    19652 ave 19652 max 19652 min
Histogram: 1 0 0 0 0 0 0 0 0 0
Nghost:    19168 ave 19168 max 19168 min
Histogram: 1 0 0 0 0 0 0 0 0 0
Neighs:    1.6664e+06 ave 1.6664e+06 max 1.6664e+06 min
Histogram: 1 0 0 0 0 0 0 0 0 0

Total # of neighbors = 1666400
Ave neighs/atom = 84.7954
Neighbor list builds = 6172
Dangerous builds not checked
Setting up Verlet run ...
  Unit style    : metal
  Current step  : 53334
  Time step     : 0.001
Per MPI rank memory allocation (min/avg/max) = 19.34 | 19.34 | 19.34 Mbytes
Step Temp Press TotEng PotEng Enthalpy 
   53334    2377.6176    -1048.225   -52960.151   -58999.516   -53153.556 
   53336    2377.1439   -977.72555   -52960.183   -58998.345    -53140.58 
   53829    2319.6151    1306.4496   -53212.583   -59104.617   -52973.044 
Loop time of 91.0881 on 1 procs for 495 steps with 19652 atoms

Performance: 0.470 ns/day, 51.116 hours/ns, 5.434 timesteps/s
100.0% CPU use with 1 MPI tasks x no OpenMP threads

MPI task timing breakdown:
Section |  min time  |  avg time  |  max time  |%varavg| %total
---------------------------------------------------------------
Pair    | 49.478     | 49.478     | 49.478     |   0.0 | 54.32
Neigh   | 40.092     | 40.092     | 40.092     |   0.0 | 44.01
Comm    | 0.55063    | 0.55063    | 0.55063    |   0.0 |  0.60
Output  | 0.066059   | 0.066059   | 0.066059   |   0.0 |  0.07
Modify  | 0.71511    | 0.71511    | 0.71511    |   0.0 |  0.79
Other   |            | 0.1868     |            |       |  0.21

Nlocal:    19652 ave 19652 max 19652 min
Histogram: 1 0 0 0 0 0 0 0 0 0
Nghost:    19383 ave 19383 max 19383 min
Histogram: 1 0 0 0 0 0 0 0 0 0
Neighs:    1.67704e+06 ave 1.67704e+06 max 1.67704e+06 min
Histogram: 1 0 0 0 0 0 0 0 0 0

Total # of neighbors = 1677039
Ave neighs/atom = 85.3368
Neighbor list builds = 495
Dangerous builds not checked
Setting up Verlet run ...
  Unit style    : metal
  Current step  : 53829
  Time step     : 0.001
Per MPI rank memory allocation (min/avg/max) = 19.34 | 19.34 | 19.34 Mbytes
Step Temp Press TotEng PotEng Enthalpy 
   53829    2319.6151    1306.4496   -53212.583   -59104.617   -52973.044 
   60001    2298.0436   -1148.0577   -53290.209   -59127.449    -53501.01 
Loop time of 1101.91 on 1 procs for 6172 steps with 19652 atoms

Performance: 0.484 ns/day, 49.593 hours/ns, 5.601 timesteps/s
100.0% CPU use with 1 MPI tasks x no OpenMP threads

MPI task timing breakdown:
Section |  min time  |  avg time  |  max time  |%varavg| %total
---------------------------------------------------------------
Pair    | 598.92     | 598.92     | 598.92     |   0.0 | 54.35
Neigh   | 485.61     | 485.61     | 485.61     |   0.0 | 44.07
Comm    | 6.6944     | 6.6944     | 6.6944     |   0.0 |  0.61
Output  | 0.00018811 | 0.00018811 | 0.00018811 |   0.0 |  0.00
Modify  | 8.4474     | 8.4474     | 8.4474     |   0.0 |  0.77
Other   |            | 2.231      |            |       |  0.20

Nlocal:    19652 ave 19652 max 19652 min
Histogram: 1 0 0 0 0 0 0 0 0 0
Nghost:    19228 ave 19228 max 19228 min
Histogram: 1 0 0 0 0 0 0 0 0 0
Neighs:    1.67468e+06 ave 1.67468e+06 max 1.67468e+06 min
Histogram: 1 0 0 0 0 0 0 0 0 0

Total # of neighbors = 1674682
Ave neighs/atom = 85.2169
Neighbor list builds = 6172
Dangerous builds not checked
Setting up Verlet run ...
  Unit style    : metal
  Current step  : 60001
  Time step     : 0.001
Per MPI rank memory allocation (min/avg/max) = 19.34 | 19.34 | 19.34 Mbytes
Step Temp Press TotEng PotEng Enthalpy 
   60001    2298.0436   -1148.0577   -53290.209   -59127.449    -53501.01 
   60003    2296.4653   -1028.2921   -53290.201   -59123.432   -53479.012 
   60496    2270.7026    1131.9943    -53549.48   -59317.271   -53343.109 
Loop time of 96.9181 on 1 procs for 495 steps with 19652 atoms

Performance: 0.441 ns/day, 54.387 hours/ns, 5.107 timesteps/s
99.9% CPU use with 1 MPI tasks x no OpenMP threads

MPI task timing breakdown:
Section |  min time  |  avg time  |  max time  |%varavg| %total
---------------------------------------------------------------
Pair    | 53.15      | 53.15      | 53.15      |   0.0 | 54.84
Neigh   | 42.147     | 42.147     | 42.147     |   0.0 | 43.49
Comm    | 0.58946    | 0.58946    | 0.58946    |   0.0 |  0.61
Output  | 0.059452   | 0.059452   | 0.059452   |   0.0 |  0.06
Modify  | 0.76989    | 0.76989    | 0.76989    |   0.0 |  0.79
Other   |            | 0.2027     |            |       |  0.21

Nlocal:    19652 ave 19652 max 19652 min
Histogram: 1 0 0 0 0 0 0 0 0 0
Nghost:    19250 ave 19250 max 19250 min
Histogram: 1 0 0 0 0 0 0 0 0 0
Neighs:    1.68671e+06 ave 1.68671e+06 max 1.68671e+06 min
Histogram: 1 0 0 0 0 0 0 0 0 0

Total # of neighbors = 1686711
Ave neighs/atom = 85.829
Neighbor list builds = 495
Dangerous builds not checked
Setting up Verlet run ...
  Unit style    : metal
  Current step  : 60496
  Time step     : 0.001
Per MPI rank memory allocation (min/avg/max) = 19.34 | 19.34 | 19.34 Mbytes
Step Temp Press TotEng PotEng Enthalpy 
   60496    2270.7026    1131.9943    -53549.48   -59317.271   -53343.109 
   66668    2246.9146    32.426607   -53601.508   -59308.875   -53595.592 
Loop time of 977.635 on 1 procs for 6172 steps with 19652 atoms

Performance: 0.545 ns/day, 44.000 hours/ns, 6.313 timesteps/s
99.9% CPU use with 1 MPI tasks x no OpenMP threads

MPI task timing breakdown:
Section |  min time  |  avg time  |  max time  |%varavg| %total
---------------------------------------------------------------
Pair    | 529.39     | 529.39     | 529.39     |   0.0 | 54.15
Neigh   | 432.78     | 432.78     | 432.78     |   0.0 | 44.27
Comm    | 5.9828     | 5.9828     | 5.9828     |   0.0 |  0.61
Output  | 0.0002048  | 0.0002048  | 0.0002048  |   0.0 |  0.00
Modify  | 7.4572     | 7.4572     | 7.4572     |   0.0 |  0.76
Other   |            | 2.023      |            |       |  0.21

Nlocal:    19652 ave 19652 max 19652 min
Histogram: 1 0 0 0 0 0 0 0 0 0
Nghost:    19367 ave 19367 max 19367 min
Histogram: 1 0 0 0 0 0 0 0 0 0
Neighs:    1.68476e+06 ave 1.68476e+06 max 1.68476e+06 min
Histogram: 1 0 0 0 0 0 0 0 0 0

Total # of neighbors = 1684758
Ave neighs/atom = 85.7296
Neighbor list builds = 6172
Dangerous builds not checked
Setting up Verlet run ...
  Unit style    : metal
  Current step  : 66668
  Time step     : 0.001
Per MPI rank memory allocation (min/avg/max) = 19.34 | 19.34 | 19.34 Mbytes
Step Temp Press TotEng PotEng Enthalpy 
   66668    2246.9146    32.426607   -53601.508   -59308.875   -53595.592 
   66670    2245.8806     96.97907   -53601.499    -59306.24   -53583.807 
   67163    2218.5301    1272.2519   -53819.596   -59454.865   -53588.668 
Loop time of 77.2406 on 1 procs for 495 steps with 19652 atoms

Performance: 0.554 ns/day, 43.345 hours/ns, 6.409 timesteps/s
100.0% CPU use with 1 MPI tasks x no OpenMP threads

MPI task timing breakdown:
Section |  min time  |  avg time  |  max time  |%varavg| %total
---------------------------------------------------------------
Pair    | 41.934     | 41.934     | 41.934     |   0.0 | 54.29
Neigh   | 34.017     | 34.017     | 34.017     |   0.0 | 44.04
Comm    | 0.47425    | 0.47425    | 0.47425    |   0.0 |  0.61
Output  | 0.051758   | 0.051758   | 0.051758   |   0.0 |  0.07
Modify  | 0.60097    | 0.60097    | 0.60097    |   0.0 |  0.78
Other   |            | 0.1622     |            |       |  0.21

Nlocal:    19652 ave 19652 max 19652 min
Histogram: 1 0 0 0 0 0 0 0 0 0
Nghost:    19322 ave 19322 max 19322 min
Histogram: 1 0 0 0 0 0 0 0 0 0
Neighs:    1.69321e+06 ave 1.69321e+06 max 1.69321e+06 min
Histogram: 1 0 0 0 0 0 0 0 0 0

Total # of neighbors = 1693206
Ave neighs/atom = 86.1595
Neighbor list builds = 495
Dangerous builds not checked
Setting up Verlet run ...
  Unit style    : metal
  Current step  : 67163
  Time step     : 0.001
Per MPI rank memory allocation (min/avg/max) = 19.34 | 19.34 | 19.34 Mbytes
Step Temp Press TotEng PotEng Enthalpy 
   67163    2218.5301    1272.2519   -53819.596   -59454.865   -53588.668 
   73335    2190.7951   -355.09891   -53907.803   -59472.622   -53972.301 
Loop time of 941.928 on 1 procs for 6172 steps with 19652 atoms

Performance: 0.566 ns/day, 42.393 hours/ns, 6.553 timesteps/s
99.9% CPU use with 1 MPI tasks x no OpenMP threads

MPI task timing breakdown:
Section |  min time  |  avg time  |  max time  |%varavg| %total
---------------------------------------------------------------
Pair    | 510.39     | 510.39     | 510.39     |   0.0 | 54.19
Neigh   | 416.59     | 416.59     | 416.59     |   0.0 | 44.23
Comm    | 5.8201     | 5.8201     | 5.8201     |   0.0 |  0.62
Output  | 0.00016999 | 0.00016999 | 0.00016999 |   0.0 |  0.00
Modify  | 7.1417     | 7.1417     | 7.1417     |   0.0 |  0.76
Other   |            | 1.988      |            |       |  0.21

Nlocal:    19652 ave 19652 max 19652 min
Histogram: 1 0 0 0 0 0 0 0 0 0
Nghost:    19313 ave 19313 max 19313 min
Histogram: 1 0 0 0 0 0 0 0 0 0
Neighs:    1.69285e+06 ave 1.69285e+06 max 1.69285e+06 min
Histogram: 1 0 0 0 0 0 0 0 0 0

Total # of neighbors = 1692851
Ave neighs/atom = 86.1414
Neighbor list builds = 6172
Dangerous builds not checked
Setting up Verlet run ...
  Unit style    : metal
  Current step  : 73335
  Time step     : 0.001
Per MPI rank memory allocation (min/avg/max) = 19.34 | 19.34 | 19.34 Mbytes
Step Temp Press TotEng PotEng Enthalpy 
   73335    2190.7951   -355.09891   -53907.803   -59472.622   -53972.301 
   73337    2188.9911     -249.523    -53907.79   -59468.027   -53953.112 
   73830    2177.6706   -1110.4556   -54072.972   -59604.454   -54273.965 
Loop time of 69.5923 on 1 procs for 495 steps with 19652 atoms

Performance: 0.615 ns/day, 39.053 hours/ns, 7.113 timesteps/s
99.8% CPU use with 1 MPI tasks x no OpenMP threads

MPI task timing breakdown:
Section |  min time  |  avg time  |  max time  |%varavg| %total
---------------------------------------------------------------
Pair    | 37.593     | 37.593     | 37.593     |   0.0 | 54.02
Neigh   | 30.839     | 30.839     | 30.839     |   0.0 | 44.31
Comm    | 0.43208    | 0.43208    | 0.43208    |   0.0 |  0.62
Output  | 0.04087    | 0.04087    | 0.04087    |   0.0 |  0.06
Modify  | 0.53428    | 0.53428    | 0.53428    |   0.0 |  0.77
Other   |            | 0.1538     |            |       |  0.22

Nlocal:    19652 ave 19652 max 19652 min
Histogram: 1 0 0 0 0 0 0 0 0 0
Nghost:    19397 ave 19397 max 19397 min
Histogram: 1 0 0 0 0 0 0 0 0 0
Neighs:    1.69816e+06 ave 1.69816e+06 max 1.69816e+06 min
Histogram: 1 0 0 0 0 0 0 0 0 0

Total # of neighbors = 1698165
Ave neighs/atom = 86.4118
Neighbor list builds = 495
Dangerous builds not checked
Setting up Verlet run ...
  Unit style    : metal
  Current step  : 73830
  Time step     : 0.001
Per MPI rank memory allocation (min/avg/max) = 19.34 | 19.34 | 19.34 Mbytes
Step Temp Press TotEng PotEng Enthalpy 
   73830    2177.6706   -1110.4556   -54072.972   -59604.454   -54273.965 
   80002     2150.965    33.543145   -54082.178   -59545.826   -54076.103 
Loop time of 954.508 on 1 procs for 6172 steps with 19652 atoms

Performance: 0.559 ns/day, 42.959 hours/ns, 6.466 timesteps/s
99.9% CPU use with 1 MPI tasks x no OpenMP threads

MPI task timing breakdown:
Section |  min time  |  avg time  |  max time  |%varavg| %total
---------------------------------------------------------------
Pair    | 515.7      | 515.7      | 515.7      |   0.0 | 54.03
Neigh   | 423.74     | 423.74     | 423.74     |   0.0 | 44.39
Comm    | 5.8331     | 5.8331     | 5.8331     |   0.0 |  0.61
Output  | 0.00021315 | 0.00021315 | 0.00021315 |   0.0 |  0.00
Modify  | 7.2632     | 7.2632     | 7.2632     |   0.0 |  0.76
Other   |            | 1.977      |            |       |  0.21

Nlocal:    19652 ave 19652 max 19652 min
Histogram: 1 0 0 0 0 0 0 0 0 0
Nghost:    19359 ave 19359 max 19359 min
Histogram: 1 0 0 0 0 0 0 0 0 0
Neighs:    1.69678e+06 ave 1.69678e+06 max 1.69678e+06 min
Histogram: 1 0 0 0 0 0 0 0 0 0

Total # of neighbors = 1696781
Ave neighs/atom = 86.3414
Neighbor list builds = 6172
Dangerous builds not checked
Setting up Verlet run ...
  Unit style    : metal
  Current step  : 80002
  Time step     : 0.001
Per MPI rank memory allocation (min/avg/max) = 19.34 | 19.34 | 19.34 Mbytes
Step Temp Press TotEng PotEng Enthalpy 
   80002     2150.965    33.543145   -54082.178   -59545.826   -54076.103 
   80004    2151.2104    17.101109   -54082.178   -59546.448   -54079.081 
   80497    2112.8993    426.20576   -54388.299   -59755.256   -54311.657 
Loop time of 64.0068 on 1 procs for 495 steps with 19652 atoms

Performance: 0.668 ns/day, 35.919 hours/ns, 7.734 timesteps/s
100.0% CPU use with 1 MPI tasks x no OpenMP threads

MPI task timing breakdown:
Section |  min time  |  avg time  |  max time  |%varavg| %total
---------------------------------------------------------------
Pair    | 34.157     | 34.157     | 34.157     |   0.0 | 53.37
Neigh   | 28.818     | 28.818     | 28.818     |   0.0 | 45.02
Comm    | 0.38284    | 0.38284    | 0.38284    |   0.0 |  0.60
Output  | 0.040869   | 0.040869   | 0.040869   |   0.0 |  0.06
Modify  | 0.47883    | 0.47883    | 0.47883    |   0.0 |  0.75
Other   |            | 0.1292     |            |       |  0.20

Nlocal:    19652 ave 19652 max 19652 min
Histogram: 1 0 0 0 0 0 0 0 0 0
Nghost:    19401 ave 19401 max 19401 min
Histogram: 1 0 0 0 0 0 0 0 0 0
Neighs:    1.70935e+06 ave 1.70935e+06 max 1.70935e+06 min
Histogram: 1 0 0 0 0 0 0 0 0 0

Total # of neighbors = 1709350
Ave neighs/atom = 86.981
Neighbor list builds = 495
Dangerous builds not checked
Setting up Verlet run ...
  Unit style    : metal
  Current step  : 80497
  Time step     : 0.001
Per MPI rank memory allocation (min/avg/max) = 19.34 | 19.34 | 19.34 Mbytes
Step Temp Press TotEng PotEng Enthalpy 
   80497    2112.8993    426.20576   -54388.299   -59755.256   -54311.657 
   86669    2102.2722    422.97782   -54382.188   -59722.151   -54305.984 
Loop time of 926.97 on 1 procs for 6172 steps with 19652 atoms

Performance: 0.575 ns/day, 41.719 hours/ns, 6.658 timesteps/s
99.9% CPU use with 1 MPI tasks x no OpenMP threads

MPI task timing breakdown:
Section |  min time  |  avg time  |  max time  |%varavg| %total
---------------------------------------------------------------
Pair    | 501.13     | 501.13     | 501.13     |   0.0 | 54.06
Neigh   | 411.43     | 411.43     | 411.43     |   0.0 | 44.38
Comm    | 5.5875     | 5.5875     | 5.5875     |   0.0 |  0.60
Output  | 0.00017405 | 0.00017405 | 0.00017405 |   0.0 |  0.00
Modify  | 6.9411     | 6.9411     | 6.9411     |   0.0 |  0.75
Other   |            | 1.879      |            |       |  0.20

Nlocal:    19652 ave 19652 max 19652 min
Histogram: 1 0 0 0 0 0 0 0 0 0
Nghost:    19363 ave 19363 max 19363 min
Histogram: 1 0 0 0 0 0 0 0 0 0
Neighs:    1.70622e+06 ave 1.70622e+06 max 1.70622e+06 min
Histogram: 1 0 0 0 0 0 0 0 0 0

Total # of neighbors = 1706221
Ave neighs/atom = 86.8217
Neighbor list builds = 6172
Dangerous builds not checked
Setting up Verlet run ...
  Unit style    : metal
  Current step  : 86669
  Time step     : 0.001
Per MPI rank memory allocation (min/avg/max) = 19.34 | 19.34 | 19.34 Mbytes
Step Temp Press TotEng PotEng Enthalpy 
   86669    2102.2722    422.97782   -54382.188   -59722.151   -54305.984 
   86671    2102.3649    420.60537   -54382.191   -59722.389   -54306.414 
   87164    2065.5423    1025.8459   -54667.104    -59913.77   -54483.501 
Loop time of 70.1684 on 1 procs for 495 steps with 19652 atoms

Performance: 0.610 ns/day, 39.376 hours/ns, 7.054 timesteps/s
100.0% CPU use with 1 MPI tasks x no OpenMP threads

MPI task timing breakdown:
Section |  min time  |  avg time  |  max time  |%varavg| %total
---------------------------------------------------------------
Pair    | 37.96      | 37.96      | 37.96      |   0.0 | 54.10
Neigh   | 31.03      | 31.03      | 31.03      |   0.0 | 44.22
Comm    | 0.43345    | 0.43345    | 0.43345    |   0.0 |  0.62
Output  | 0.0417     | 0.0417     | 0.0417     |   0.0 |  0.06
Modify  | 0.5455     | 0.5455     | 0.5455     |   0.0 |  0.78
Other   |            | 0.1577     |            |       |  0.22

Nlocal:    19652 ave 19652 max 19652 min
Histogram: 1 0 0 0 0 0 0 0 0 0
Nghost:    19492 ave 19492 max 19492 min
Histogram: 1 0 0 0 0 0 0 0 0 0
Neighs:    1.71674e+06 ave 1.71674e+06 max 1.71674e+06 min
Histogram: 1 0 0 0 0 0 0 0 0 0

Total # of neighbors = 1716745
Ave neighs/atom = 87.3573
Neighbor list builds = 495
Dangerous builds not checked
Setting up Verlet run ...
  Unit style    : metal
  Current step  : 87164
  Time step     : 0.001
Per MPI rank memory allocation (min/avg/max) = 19.34 | 19.34 | 19.34 Mbytes
Step Temp Press TotEng PotEng Enthalpy 
   87164    2065.5423    1025.8459   -54667.104    -59913.77   -54483.501 
   93336    2052.2414   -368.37583   -54762.985   -59975.866   -54828.887 
Loop time of 919.984 on 1 procs for 6172 steps with 19652 atoms

Performance: 0.580 ns/day, 41.405 hours/ns, 6.709 timesteps/s
100.0% CPU use with 1 MPI tasks x no OpenMP threads

MPI task timing breakdown:
Section |  min time  |  avg time  |  max time  |%varavg| %total
---------------------------------------------------------------
Pair    | 498.22     | 498.22     | 498.22     |   0.0 | 54.15
Neigh   | 407.44     | 407.44     | 407.44     |   0.0 | 44.29
Comm    | 5.5739     | 5.5739     | 5.5739     |   0.0 |  0.61
Output  | 0.000314   | 0.000314   | 0.000314   |   0.0 |  0.00
Modify  | 6.8735     | 6.8735     | 6.8735     |   0.0 |  0.75
Other   |            | 1.876      |            |       |  0.20

Nlocal:    19652 ave 19652 max 19652 min
Histogram: 1 0 0 0 0 0 0 0 0 0
Nghost:    19520 ave 19520 max 19520 min
Histogram: 1 0 0 0 0 0 0 0 0 0
Neighs:    1.71727e+06 ave 1.71727e+06 max 1.71727e+06 min
Histogram: 1 0 0 0 0 0 0 0 0 0

Total # of neighbors = 1717274
Ave neighs/atom = 87.3842
Neighbor list builds = 6172
Dangerous builds not checked
Setting up Verlet run ...
  Unit style    : metal
  Current step  : 93336
  Time step     : 0.001
Per MPI rank memory allocation (min/avg/max) = 19.34 | 19.34 | 19.34 Mbytes
Step Temp Press TotEng PotEng Enthalpy 
   93336    2052.2414   -368.37583   -54762.985   -59975.866   -54828.887 
   93338      2052.14   -366.19998   -54762.987    -59975.61     -54828.5 
   93831    2003.2664    1352.2718   -54988.286   -60076.765   -54747.524 
Loop time of 67.1474 on 1 procs for 495 steps with 19652 atoms

Performance: 0.637 ns/day, 37.681 hours/ns, 7.372 timesteps/s
99.9% CPU use with 1 MPI tasks x no OpenMP threads

MPI task timing breakdown:
Section |  min time  |  avg time  |  max time  |%varavg| %total
---------------------------------------------------------------
Pair    | 36.267     | 36.267     | 36.267     |   0.0 | 54.01
Neigh   | 29.789     | 29.789     | 29.789     |   0.0 | 44.36
Comm    | 0.40019    | 0.40019    | 0.40019    |   0.0 |  0.60
Output  | 0.040678   | 0.040678   | 0.040678   |   0.0 |  0.06
Modify  | 0.51009    | 0.51009    | 0.51009    |   0.0 |  0.76
Other   |            | 0.14       |            |       |  0.21

Nlocal:    19652 ave 19652 max 19652 min
Histogram: 1 0 0 0 0 0 0 0 0 0
Nghost:    19534 ave 19534 max 19534 min
Histogram: 1 0 0 0 0 0 0 0 0 0
Neighs:    1.72586e+06 ave 1.72586e+06 max 1.72586e+06 min
Histogram: 1 0 0 0 0 0 0 0 0 0

Total # of neighbors = 1725865
Ave neighs/atom = 87.8213
Neighbor list builds = 495
Dangerous builds not checked
Setting up Verlet run ...
  Unit style    : metal
  Current step  : 93831
  Time step     : 0.001
Per MPI rank memory allocation (min/avg/max) = 19.34 | 19.34 | 19.34 Mbytes
Step Temp Press TotEng PotEng Enthalpy 
   93831    2003.2664    1352.2718   -54988.286   -60076.765   -54747.524 
  100003    2003.2923   -1568.9267   -55034.667   -60123.212   -55314.383 
Loop time of 913.722 on 1 procs for 6172 steps with 19652 atoms

Performance: 0.584 ns/day, 41.123 hours/ns, 6.755 timesteps/s
100.0% CPU use with 1 MPI tasks x no OpenMP threads

MPI task timing breakdown:
Section |  min time  |  avg time  |  max time  |%varavg| %total
---------------------------------------------------------------
Pair    | 495.43     | 495.43     | 495.43     |   0.0 | 54.22
Neigh   | 404.08     | 404.08     | 404.08     |   0.0 | 44.22
Comm    | 5.5312     | 5.5312     | 5.5312     |   0.0 |  0.61
Output  | 0.00020814 | 0.00020814 | 0.00020814 |   0.0 |  0.00
Modify  | 6.8189     | 6.8189     | 6.8189     |   0.0 |  0.75
Other   |            | 1.863      |            |       |  0.20

Nlocal:    19652 ave 19652 max 19652 min
Histogram: 1 0 0 0 0 0 0 0 0 0
Nghost:    19481 ave 19481 max 19481 min
Histogram: 1 0 0 0 0 0 0 0 0 0
Neighs:    1.72338e+06 ave 1.72338e+06 max 1.72338e+06 min
Histogram: 1 0 0 0 0 0 0 0 0 0

Total # of neighbors = 1723376
Ave neighs/atom = 87.6947
Neighbor list builds = 6172
Dangerous builds not checked
Setting up Verlet run ...
  Unit style    : metal
  Current step  : 100003
  Time step     : 0.001
Per MPI rank memory allocation (min/avg/max) = 19.34 | 19.34 | 19.34 Mbytes
Step Temp Press TotEng PotEng Enthalpy 
  100003    2003.2923   -1568.9267   -55034.667   -60123.212   -55314.383 
  100005    2001.2858   -1514.5056   -55034.665   -60118.113   -55304.678 
  100498    1951.3767   -591.33441   -55291.396   -60248.071   -55396.348 
Loop time of 96.8609 on 1 procs for 495 steps with 19652 atoms

Performance: 0.442 ns/day, 54.355 hours/ns, 5.110 timesteps/s
99.9% CPU use with 1 MPI tasks x no OpenMP threads

MPI task timing breakdown:
Section |  min time  |  avg time  |  max time  |%varavg| %total
---------------------------------------------------------------
Pair    | 53.224     | 53.224     | 53.224     |   0.0 | 54.95
Neigh   | 42.055     | 42.055     | 42.055     |   0.0 | 43.42
Comm    | 0.58097    | 0.58097    | 0.58097    |   0.0 |  0.60
Output  | 0.042669   | 0.042669   | 0.042669   |   0.0 |  0.04
Modify  | 0.76331    | 0.76331    | 0.76331    |   0.0 |  0.79
Other   |            | 0.1951     |            |       |  0.20

Nlocal:    19652 ave 19652 max 19652 min
Histogram: 1 0 0 0 0 0 0 0 0 0
Nghost:    19469 ave 19469 max 19469 min
Histogram: 1 0 0 0 0 0 0 0 0 0
Neighs:    1.7307e+06 ave 1.7307e+06 max 1.7307e+06 min
Histogram: 1 0 0 0 0 0 0 0 0 0

Total # of neighbors = 1730697
Ave neighs/atom = 88.0672
Neighbor list builds = 495
Dangerous builds not checked
Setting up Verlet run ...
  Unit style    : metal
  Current step  : 100498
  Time step     : 0.001
Per MPI rank memory allocation (min/avg/max) = 19.34 | 19.34 | 19.34 Mbytes
Step Temp Press TotEng PotEng Enthalpy 
  100498    1951.3767   -591.33441   -55291.396   -60248.071   -55396.348 
  106670    1957.2001    1001.4576   -55319.835   -60291.302   -55142.536 
Loop time of 914.656 on 1 procs for 6172 steps with 19652 atoms

Performance: 0.583 ns/day, 41.165 hours/ns, 6.748 timesteps/s
99.9% CPU use with 1 MPI tasks x no OpenMP threads

MPI task timing breakdown:
Section |  min time  |  avg time  |  max time  |%varavg| %total
---------------------------------------------------------------
Pair    | 496.49     | 496.49     | 496.49     |   0.0 | 54.28
Neigh   | 403.92     | 403.92     | 403.92     |   0.0 | 44.16
Comm    | 5.5285     | 5.5285     | 5.5285     |   0.0 |  0.60
Output  | 0.00016999 | 0.00016999 | 0.00016999 |   0.0 |  0.00
Modify  | 6.8412     | 6.8412     | 6.8412     |   0.0 |  0.75
Other   |            | 1.878      |            |       |  0.21

Nlocal:    19652 ave 19652 max 19652 min
Histogram: 1 0 0 0 0 0 0 0 0 0
Nghost:    19577 ave 19577 max 19577 min
Histogram: 1 0 0 0 0 0 0 0 0 0
Neighs:    1.73487e+06 ave 1.73487e+06 max 1.73487e+06 min
Histogram: 1 0 0 0 0 0 0 0 0 0

Total # of neighbors = 1734869
Ave neighs/atom = 88.2795
Neighbor list builds = 6172
Dangerous builds not checked
Setting up Verlet run ...
  Unit style    : metal
  Current step  : 106670
  Time step     : 0.001
Per MPI rank memory allocation (min/avg/max) = 19.34 | 19.34 | 19.34 Mbytes
Step Temp Press TotEng PotEng Enthalpy 
  106670    1957.2001    1001.4576   -55319.835   -60291.302   -55142.536 
  106672    1957.6891    977.90132   -55319.838   -60292.547   -55146.709 
  107165     1917.123    2402.2181   -55537.552   -60407.219   -55114.575 
Loop time of 78.0186 on 1 procs for 495 steps with 19652 atoms

Performance: 0.548 ns/day, 43.781 hours/ns, 6.345 timesteps/s
99.9% CPU use with 1 MPI tasks x no OpenMP threads

MPI task timing breakdown:
Section |  min time  |  avg time  |  max time  |%varavg| %total
---------------------------------------------------------------
Pair    | 42.545     | 42.545     | 42.545     |   0.0 | 54.53
Neigh   | 34.162     | 34.162     | 34.162     |   0.0 | 43.79
Comm    | 0.48095    | 0.48095    | 0.48095    |   0.0 |  0.62
Output  | 0.045356   | 0.045356   | 0.045356   |   0.0 |  0.06
Modify  | 0.61502    | 0.61502    | 0.61502    |   0.0 |  0.79
Other   |            | 0.1697     |            |       |  0.22

Nlocal:    19652 ave 19652 max 19652 min
Histogram: 1 0 0 0 0 0 0 0 0 0
Nghost:    19571 ave 19571 max 19571 min
Histogram: 1 0 0 0 0 0 0 0 0 0
Neighs:    1.7448e+06 ave 1.7448e+06 max 1.7448e+06 min
Histogram: 1 0 0 0 0 0 0 0 0 0

Total # of neighbors = 1744798
Ave neighs/atom = 88.7848
Neighbor list builds = 495
Dangerous builds not checked
Setting up Verlet run ...
  Unit style    : metal
  Current step  : 107165
  Time step     : 0.001
Per MPI rank memory allocation (min/avg/max) = 19.34 | 19.34 | 19.34 Mbytes
Step Temp Press TotEng PotEng Enthalpy 
  107165     1917.123    2402.2181   -55537.552   -60407.219   -55114.575 
  113337    1905.7775    1266.1852   -55629.105   -60469.954   -55406.251 
Loop time of 1056.46 on 1 procs for 6172 steps with 19652 atoms

Performance: 0.505 ns/day, 47.547 hours/ns, 5.842 timesteps/s
99.9% CPU use with 1 MPI tasks x no OpenMP threads

MPI task timing breakdown:
Section |  min time  |  avg time  |  max time  |%varavg| %total
---------------------------------------------------------------
Pair    | 580.07     | 580.07     | 580.07     |   0.0 | 54.91
Neigh   | 459.67     | 459.67     | 459.67     |   0.0 | 43.51
Comm    | 6.4558     | 6.4558     | 6.4558     |   0.0 |  0.61
Output  | 0.022266   | 0.022266   | 0.022266   |   0.0 |  0.00
Modify  | 8.0418     | 8.0418     | 8.0418     |   0.0 |  0.76
Other   |            | 2.201      |            |       |  0.21

Nlocal:    19652 ave 19652 max 19652 min
Histogram: 1 0 0 0 0 0 0 0 0 0
Nghost:    19580 ave 19580 max 19580 min
Histogram: 1 0 0 0 0 0 0 0 0 0
Neighs:    1.74496e+06 ave 1.74496e+06 max 1.74496e+06 min
Histogram: 1 0 0 0 0 0 0 0 0 0

Total # of neighbors = 1744957
Ave neighs/atom = 88.7928
Neighbor list builds = 6172
Dangerous builds not checked
Setting up Verlet run ...
  Unit style    : metal
  Current step  : 113337
  Time step     : 0.001
Per MPI rank memory allocation (min/avg/max) = 19.34 | 19.34 | 19.34 Mbytes
Step Temp Press TotEng PotEng Enthalpy 
  113337    1905.7775    1266.1852   -55629.105   -60469.954   -55406.251 
  113339    1905.6546    1219.8969   -55629.108   -60469.645   -55414.401 
  113832    1866.7343    141.32241   -55815.165    -60556.84   -55790.328 
Loop time of 85.3095 on 1 procs for 495 steps with 19652 atoms

Performance: 0.501 ns/day, 47.873 hours/ns, 5.802 timesteps/s
99.9% CPU use with 1 MPI tasks x no OpenMP threads

MPI task timing breakdown:
Section |  min time  |  avg time  |  max time  |%varavg| %total
---------------------------------------------------------------
Pair    | 47.126     | 47.126     | 47.126     |   0.0 | 55.24
Neigh   | 36.74      | 36.74      | 36.74      |   0.0 | 43.07
Comm    | 0.52775    | 0.52775    | 0.52775    |   0.0 |  0.62
Output  | 0.067279   | 0.067279   | 0.067279   |   0.0 |  0.08
Modify  | 0.66221    | 0.66221    | 0.66221    |   0.0 |  0.78
Other   |            | 0.1862     |            |       |  0.22

Nlocal:    19652 ave 19652 max 19652 min
Histogram: 1 0 0 0 0 0 0 0 0 0
Nghost:    19608 ave 19608 max 19608 min
Histogram: 1 0 0 0 0 0 0 0 0 0
Neighs:    1.74746e+06 ave 1.74746e+06 max 1.74746e+06 min
Histogram: 1 0 0 0 0 0 0 0 0 0

Total # of neighbors = 1747456
Ave neighs/atom = 88.92
Neighbor list builds = 495
Dangerous builds not checked
Setting up Verlet run ...
  Unit style    : metal
  Current step  : 113832
  Time step     : 0.001
Per MPI rank memory allocation (min/avg/max) = 19.34 | 19.34 | 19.34 Mbytes
Step Temp Press TotEng PotEng Enthalpy 
  113832    1866.7343    141.32241   -55815.165    -60556.84   -55790.328 
  120004    1867.8081   -182.24065   -55848.071   -60592.473   -55880.073 
Loop time of 1098.97 on 1 procs for 6172 steps with 19652 atoms

Performance: 0.485 ns/day, 49.460 hours/ns, 5.616 timesteps/s
99.9% CPU use with 1 MPI tasks x no OpenMP threads

MPI task timing breakdown:
Section |  min time  |  avg time  |  max time  |%varavg| %total
---------------------------------------------------------------
Pair    | 607.61     | 607.61     | 607.61     |   0.0 | 55.29
Neigh   | 473.82     | 473.82     | 473.82     |   0.0 | 43.12
Comm    | 6.7879     | 6.7879     | 6.7879     |   0.0 |  0.62
Output  | 0.00024199 | 0.00024199 | 0.00024199 |   0.0 |  0.00
Modify  | 8.3794     | 8.3794     | 8.3794     |   0.0 |  0.76
Other   |            | 2.373      |            |       |  0.22

Nlocal:    19652 ave 19652 max 19652 min
Histogram: 1 0 0 0 0 0 0 0 0 0
Nghost:    19565 ave 19565 max 19565 min
Histogram: 1 0 0 0 0 0 0 0 0 0
Neighs:    1.74896e+06 ave 1.74896e+06 max 1.74896e+06 min
Histogram: 1 0 0 0 0 0 0 0 0 0

Total # of neighbors = 1748963
Ave neighs/atom = 88.9967
Neighbor list builds = 6172
Dangerous builds not checked
Setting up Verlet run ...
  Unit style    : metal
  Current step  : 120004
  Time step     : 0.001
Per MPI rank memory allocation (min/avg/max) = 19.34 | 19.34 | 19.34 Mbytes
Step Temp Press TotEng PotEng Enthalpy 
  120004    1867.8081   -182.24065   -55848.071   -60592.473   -55880.073 
  120006    1868.3209   -199.18571   -55848.089   -60593.795   -55883.067 
  120499    1805.5997    1307.4743   -56127.762   -60714.149   -55899.334 
Loop time of 97.4298 on 1 procs for 495 steps with 19652 atoms

Performance: 0.439 ns/day, 54.674 hours/ns, 5.081 timesteps/s
100.0% CPU use with 1 MPI tasks x no OpenMP threads

MPI task timing breakdown:
Section |  min time  |  avg time  |  max time  |%varavg| %total
---------------------------------------------------------------
Pair    | 53.949     | 53.949     | 53.949     |   0.0 | 55.37
Neigh   | 41.837     | 41.837     | 41.837     |   0.0 | 42.94
Comm    | 0.59393    | 0.59393    | 0.59393    |   0.0 |  0.61
Output  | 0.066249   | 0.066249   | 0.066249   |   0.0 |  0.07
Modify  | 0.77861    | 0.77861    | 0.77861    |   0.0 |  0.80
Other   |            | 0.2042     |            |       |  0.21

Nlocal:    19652 ave 19652 max 19652 min
Histogram: 1 0 0 0 0 0 0 0 0 0
Nghost:    19625 ave 19625 max 19625 min
Histogram: 1 0 0 0 0 0 0 0 0 0
Neighs:    1.75781e+06 ave 1.75781e+06 max 1.75781e+06 min
Histogram: 1 0 0 0 0 0 0 0 0 0

Total # of neighbors = 1757806
Ave neighs/atom = 89.4467
Neighbor list builds = 495
Dangerous builds not checked
Setting up Verlet run ...
  Unit style    : metal
  Current step  : 120499
  Time step     : 0.001
Per MPI rank memory allocation (min/avg/max) = 19.34 | 19.34 | 19.34 Mbytes
Step Temp Press TotEng PotEng Enthalpy 
  120499    1805.5997    1307.4743   -56127.762   -60714.149   -55899.334 
  126671    1797.6807   -196.94325   -56233.605   -60799.878   -56267.989 
Loop time of 1045.4 on 1 procs for 6172 steps with 19652 atoms

Performance: 0.510 ns/day, 47.049 hours/ns, 5.904 timesteps/s
99.9% CPU use with 1 MPI tasks x no OpenMP threads

MPI task timing breakdown:
Section |  min time  |  avg time  |  max time  |%varavg| %total
---------------------------------------------------------------
Pair    | 578.03     | 578.03     | 578.03     |   0.0 | 55.29
Neigh   | 450.98     | 450.98     | 450.98     |   0.0 | 43.14
Comm    | 6.3001     | 6.3001     | 6.3001     |   0.0 |  0.60
Output  | 0.00024009 | 0.00024009 | 0.00024009 |   0.0 |  0.00
Modify  | 7.9212     | 7.9212     | 7.9212     |   0.0 |  0.76
Other   |            | 2.157      |            |       |  0.21

Nlocal:    19652 ave 19652 max 19652 min
Histogram: 1 0 0 0 0 0 0 0 0 0
Nghost:    19611 ave 19611 max 19611 min
Histogram: 1 0 0 0 0 0 0 0 0 0
Neighs:    1.75829e+06 ave 1.75829e+06 max 1.75829e+06 min
Histogram: 1 0 0 0 0 0 0 0 0 0

Total # of neighbors = 1758288
Ave neighs/atom = 89.4712
Neighbor list builds = 6172
Dangerous builds not checked
Setting up Verlet run ...
  Unit style    : metal
  Current step  : 126671
  Time step     : 0.001
Per MPI rank memory allocation (min/avg/max) = 19.34 | 19.34 | 19.34 Mbytes
Step Temp Press TotEng PotEng Enthalpy 
  126671    1797.6807   -196.94325   -56233.605   -60799.878   -56267.989 
  126673    1797.8298   -188.60177   -56233.604   -60800.255   -56266.531 
  127166    1760.5988   -75.552183   -56435.735   -60907.816   -56448.879 
Loop time of 74.5687 on 1 procs for 495 steps with 19652 atoms

Performance: 0.574 ns/day, 41.846 hours/ns, 6.638 timesteps/s
99.9% CPU use with 1 MPI tasks x no OpenMP threads

MPI task timing breakdown:
Section |  min time  |  avg time  |  max time  |%varavg| %total
---------------------------------------------------------------
Pair    | 41.11      | 41.11      | 41.11      |   0.0 | 55.13
Neigh   | 32.186     | 32.186     | 32.186     |   0.0 | 43.16
Comm    | 0.46716    | 0.46716    | 0.46716    |   0.0 |  0.63
Output  | 0.053739   | 0.053739   | 0.053739   |   0.0 |  0.07
Modify  | 0.57748    | 0.57748    | 0.57748    |   0.0 |  0.77
Other   |            | 0.1745     |            |       |  0.23

Nlocal:    19652 ave 19652 max 19652 min
Histogram: 1 0 0 0 0 0 0 0 0 0
Nghost:    19685 ave 19685 max 19685 min
Histogram: 1 0 0 0 0 0 0 0 0 0
Neighs:    1.76391e+06 ave 1.76391e+06 max 1.76391e+06 min
Histogram: 1 0 0 0 0 0 0 0 0 0

Total # of neighbors = 1763907
Ave neighs/atom = 89.7571
Neighbor list builds = 495
Dangerous builds not checked
Setting up Verlet run ...
  Unit style    : metal
  Current step  : 127166
  Time step     : 0.001
Per MPI rank memory allocation (min/avg/max) = 19.34 | 19.34 | 19.34 Mbytes
Step Temp Press TotEng PotEng Enthalpy 
  127166    1760.5988   -75.552183   -56435.735   -60907.816   -56448.879 
  133338    1742.7507    1330.1669   -56499.892   -60926.637   -56268.827 
Loop time of 1140.5 on 1 procs for 6172 steps with 19652 atoms

Performance: 0.468 ns/day, 51.329 hours/ns, 5.412 timesteps/s
99.9% CPU use with 1 MPI tasks x no OpenMP threads

MPI task timing breakdown:
Section |  min time  |  avg time  |  max time  |%varavg| %total
---------------------------------------------------------------
Pair    | 636.51     | 636.51     | 636.51     |   0.0 | 55.81
Neigh   | 485.91     | 485.91     | 485.91     |   0.0 | 42.60
Comm    | 6.994      | 6.994      | 6.994      |   0.0 |  0.61
Output  | 0.00023603 | 0.00023603 | 0.00023603 |   0.0 |  0.00
Modify  | 8.6742     | 8.6742     | 8.6742     |   0.0 |  0.76
Other   |            | 2.414      |            |       |  0.21

Nlocal:    19652 ave 19652 max 19652 min
Histogram: 1 0 0 0 0 0 0 0 0 0
Nghost:    19701 ave 19701 max 19701 min
Histogram: 1 0 0 0 0 0 0 0 0 0
Neighs:    1.76701e+06 ave 1.76701e+06 max 1.76701e+06 min
Histogram: 1 0 0 0 0 0 0 0 0 0

Total # of neighbors = 1767006
Ave neighs/atom = 89.9148
Neighbor list builds = 6172
Dangerous builds not checked
Setting up Verlet run ...
  Unit style    : metal
  Current step  : 133338
  Time step     : 0.001
Per MPI rank memory allocation (min/avg/max) = 19.34 | 19.34 | 19.34 Mbytes
Step Temp Press TotEng PotEng Enthalpy 
  133338    1742.7507    1330.1669   -56499.892   -60926.637   -56268.827 
  133340    1741.4901    1366.4329    -56499.88   -60923.424   -56262.515 
  133833    1718.1413    1504.9884    -56703.15   -61067.385   -56442.855 
Loop time of 73.3585 on 1 procs for 495 steps with 19652 atoms

Performance: 0.583 ns/day, 41.166 hours/ns, 6.748 timesteps/s
100.0% CPU use with 1 MPI tasks x no OpenMP threads

MPI task timing breakdown:
Section |  min time  |  avg time  |  max time  |%varavg| %total
---------------------------------------------------------------
Pair    | 40.263     | 40.263     | 40.263     |   0.0 | 54.89
Neigh   | 31.913     | 31.913     | 31.913     |   0.0 | 43.50
Comm    | 0.44068    | 0.44068    | 0.44068    |   0.0 |  0.60
Output  | 0.04099    | 0.04099    | 0.04099    |   0.0 |  0.06
Modify  | 0.5532     | 0.5532     | 0.5532     |   0.0 |  0.75
Other   |            | 0.1478     |            |       |  0.20

Nlocal:    19652 ave 19652 max 19652 min
Histogram: 1 0 0 0 0 0 0 0 0 0
Nghost:    19784 ave 19784 max 19784 min
Histogram: 1 0 0 0 0 0 0 0 0 0
Neighs:    1.77474e+06 ave 1.77474e+06 max 1.77474e+06 min
Histogram: 1 0 0 0 0 0 0 0 0 0

Total # of neighbors = 1774741
Ave neighs/atom = 90.3084
Neighbor list builds = 495
Dangerous builds not checked
Setting up Verlet run ...
  Unit style    : metal
  Current step  : 133833
  Time step     : 0.001
Per MPI rank memory allocation (min/avg/max) = 19.34 | 19.34 | 19.34 Mbytes
Step Temp Press TotEng PotEng Enthalpy 
  133833    1718.1413    1504.9884    -56703.15   -61067.385   -56442.855 
  140005    1716.6928    865.11049   -56793.244     -61153.8   -56643.876 
Loop time of 1143.08 on 1 procs for 6172 steps with 19652 atoms

Performance: 0.467 ns/day, 51.446 hours/ns, 5.399 timesteps/s
99.9% CPU use with 1 MPI tasks x no OpenMP threads

MPI task timing breakdown:
Section |  min time  |  avg time  |  max time  |%varavg| %total
---------------------------------------------------------------
Pair    | 636.2      | 636.2      | 636.2      |   0.0 | 55.66
Neigh   | 488.86     | 488.86     | 488.86     |   0.0 | 42.77
Comm    | 6.934      | 6.934      | 6.934      |   0.0 |  0.61
Output  | 0.00024605 | 0.00024605 | 0.00024605 |   0.0 |  0.00
Modify  | 8.718      | 8.718      | 8.718      |   0.0 |  0.76
Other   |            | 2.366      |            |       |  0.21

Nlocal:    19652 ave 19652 max 19652 min
Histogram: 1 0 0 0 0 0 0 0 0 0
Nghost:    19761 ave 19761 max 19761 min
Histogram: 1 0 0 0 0 0 0 0 0 0
Neighs:    1.77707e+06 ave 1.77707e+06 max 1.77707e+06 min
Histogram: 1 0 0 0 0 0 0 0 0 0

Total # of neighbors = 1777071
Ave neighs/atom = 90.427
Neighbor list builds = 6172
Dangerous builds not checked
Setting up Verlet run ...
  Unit style    : metal
  Current step  : 140005
  Time step     : 0.001
Per MPI rank memory allocation (min/avg/max) = 19.34 | 19.34 | 19.34 Mbytes
Step Temp Press TotEng PotEng Enthalpy 
  140005    1716.6928    865.11049   -56793.244     -61153.8   -56643.876 
  140007    1715.4544    947.86149   -56793.262   -61150.672   -56629.605 
  140500    1666.2684    937.39489   -56982.998   -61215.472   -56821.465 
Loop time of 92.2052 on 1 procs for 495 steps with 19652 atoms

Performance: 0.464 ns/day, 51.743 hours/ns, 5.368 timesteps/s
99.9% CPU use with 1 MPI tasks x no OpenMP threads

MPI task timing breakdown:
Section |  min time  |  avg time  |  max time  |%varavg| %total
---------------------------------------------------------------
Pair    | 51.33      | 51.33      | 51.33      |   0.0 | 55.67
Neigh   | 39.351     | 39.351     | 39.351     |   0.0 | 42.68
Comm    | 0.56574    | 0.56574    | 0.56574    |   0.0 |  0.61
Output  | 0.043155   | 0.043155   | 0.043155   |   0.0 |  0.05
Modify  | 0.71429    | 0.71429    | 0.71429    |   0.0 |  0.77
Other   |            | 0.2007     |            |       |  0.22

Nlocal:    19652 ave 19652 max 19652 min
Histogram: 1 0 0 0 0 0 0 0 0 0
Nghost:    19787 ave 19787 max 19787 min
Histogram: 1 0 0 0 0 0 0 0 0 0
Neighs:    1.78077e+06 ave 1.78077e+06 max 1.78077e+06 min
Histogram: 1 0 0 0 0 0 0 0 0 0

Total # of neighbors = 1780767
Ave neighs/atom = 90.6151
Neighbor list builds = 495
Dangerous builds not checked
Setting up Verlet run ...
  Unit style    : metal
  Current step  : 140500
  Time step     : 0.001
Per MPI rank memory allocation (min/avg/max) = 19.34 | 19.34 | 19.34 Mbytes
Step Temp Press TotEng PotEng Enthalpy 
  140500    1666.2684    937.39489   -56982.998   -61215.472   -56821.465 
  146672    1643.5983    37.174303   -57129.292   -61304.181   -57122.892 
Loop time of 1156.83 on 1 procs for 6172 steps with 19652 atoms

Performance: 0.461 ns/day, 52.064 hours/ns, 5.335 timesteps/s
99.9% CPU use with 1 MPI tasks x no OpenMP threads

MPI task timing breakdown:
Section |  min time  |  avg time  |  max time  |%varavg| %total
---------------------------------------------------------------
Pair    | 645.34     | 645.34     | 645.34     |   0.0 | 55.79
Neigh   | 493.17     | 493.17     | 493.17     |   0.0 | 42.63
Comm    | 7.0264     | 7.0264     | 7.0264     |   0.0 |  0.61
Output  | 0.00022912 | 0.00022912 | 0.00022912 |   0.0 |  0.00
Modify  | 8.8636     | 8.8636     | 8.8636     |   0.0 |  0.77
Other   |            | 2.435      |            |       |  0.21

Nlocal:    19652 ave 19652 max 19652 min
Histogram: 1 0 0 0 0 0 0 0 0 0
Nghost:    19759 ave 19759 max 19759 min
Histogram: 1 0 0 0 0 0 0 0 0 0
Neighs:    1.78142e+06 ave 1.78142e+06 max 1.78142e+06 min
Histogram: 1 0 0 0 0 0 0 0 0 0

Total # of neighbors = 1781422
Ave neighs/atom = 90.6484
Neighbor list builds = 6172
Dangerous builds not checked
Setting up Verlet run ...
  Unit style    : metal
  Current step  : 146672
  Time step     : 0.001
Per MPI rank memory allocation (min/avg/max) = 19.34 | 19.34 | 19.34 Mbytes
Step Temp Press TotEng PotEng Enthalpy 
  146672    1643.5983    37.174303   -57129.292   -61304.181   -57122.892 
  146674    1643.0717    82.311547   -57129.284   -61302.836   -57115.113 
  147167    1602.2907    1276.5183   -57326.731   -61396.695   -57108.061 
Loop time of 86.5457 on 1 procs for 495 steps with 19652 atoms

Performance: 0.494 ns/day, 48.567 hours/ns, 5.720 timesteps/s
100.0% CPU use with 1 MPI tasks x no OpenMP threads

MPI task timing breakdown:
Section |  min time  |  avg time  |  max time  |%varavg| %total
---------------------------------------------------------------
Pair    | 47.91      | 47.91      | 47.91      |   0.0 | 55.36
Neigh   | 37.156     | 37.156     | 37.156     |   0.0 | 42.93
Comm    | 0.53221    | 0.53221    | 0.53221    |   0.0 |  0.61
Output  | 0.066248   | 0.066248   | 0.066248   |   0.0 |  0.08
Modify  | 0.69252    | 0.69252    | 0.69252    |   0.0 |  0.80
Other   |            | 0.1879     |            |       |  0.22

Nlocal:    19652 ave 19652 max 19652 min
Histogram: 1 0 0 0 0 0 0 0 0 0
Nghost:    19851 ave 19851 max 19851 min
Histogram: 1 0 0 0 0 0 0 0 0 0
Neighs:    1.79137e+06 ave 1.79137e+06 max 1.79137e+06 min
Histogram: 1 0 0 0 0 0 0 0 0 0

Total # of neighbors = 1791369
Ave neighs/atom = 91.1545
Neighbor list builds = 495
Dangerous builds not checked
Setting up Verlet run ...
  Unit style    : metal
  Current step  : 147167
  Time step     : 0.001
Per MPI rank memory allocation (min/avg/max) = 19.34 | 19.34 | 19.34 Mbytes
Step Temp Press TotEng PotEng Enthalpy 
  147167    1602.2907    1276.5183   -57326.731   -61396.695   -57108.061 
  153339    1599.6605   -208.25813   -57404.903   -61468.186   -57440.579 
Loop time of 1103.97 on 1 procs for 6172 steps with 19652 atoms

Performance: 0.483 ns/day, 49.686 hours/ns, 5.591 timesteps/s
99.9% CPU use with 1 MPI tasks x no OpenMP threads

MPI task timing breakdown:
Section |  min time  |  avg time  |  max time  |%varavg| %total
---------------------------------------------------------------
Pair    | 612.12     | 612.12     | 612.12     |   0.0 | 55.45
Neigh   | 474.43     | 474.43     | 474.43     |   0.0 | 42.97
Comm    | 6.6696     | 6.6696     | 6.6696     |   0.0 |  0.60
Output  | 0.00025702 | 0.00025702 | 0.00025702 |   0.0 |  0.00
Modify  | 8.434      | 8.434      | 8.434      |   0.0 |  0.76
Other   |            | 2.321      |            |       |  0.21

Nlocal:    19652 ave 19652 max 19652 min
Histogram: 1 0 0 0 0 0 0 0 0 0
Nghost:    19894 ave 19894 max 19894 min
Histogram: 1 0 0 0 0 0 0 0 0 0
Neighs:    1.79062e+06 ave 1.79062e+06 max 1.79062e+06 min
Histogram: 1 0 0 0 0 0 0 0 0 0

Total # of neighbors = 1790620
Ave neighs/atom = 91.1164
Neighbor list builds = 6172
Dangerous builds not checked
Setting up Verlet run ...
  Unit style    : metal
  Current step  : 153339
  Time step     : 0.001
Per MPI rank memory allocation (min/avg/max) = 19.34 | 19.34 | 19.34 Mbytes
Step Temp Press TotEng PotEng Enthalpy 
  153339    1599.6605   -208.25813   -57404.903   -61468.186   -57440.579 
  153341    1599.2243   -207.87183     -57404.9   -61467.075   -57440.509 
  153834    1556.3323     943.1482   -57636.191   -61589.417   -57475.371 
Loop time of 87.9508 on 1 procs for 495 steps with 19652 atoms

Performance: 0.486 ns/day, 49.355 hours/ns, 5.628 timesteps/s
100.0% CPU use with 1 MPI tasks x no OpenMP threads

MPI task timing breakdown:
Section |  min time  |  avg time  |  max time  |%varavg| %total
---------------------------------------------------------------
Pair    | 48.859     | 48.859     | 48.859     |   0.0 | 55.55
Neigh   | 37.622     | 37.622     | 37.622     |   0.0 | 42.78
Comm    | 0.53193    | 0.53193    | 0.53193    |   0.0 |  0.60
Output  | 0.061953   | 0.061953   | 0.061953   |   0.0 |  0.07
Modify  | 0.68524    | 0.68524    | 0.68524    |   0.0 |  0.78
Other   |            | 0.1903     |            |       |  0.22

Nlocal:    19652 ave 19652 max 19652 min
Histogram: 1 0 0 0 0 0 0 0 0 0
Nghost:    19931 ave 19931 max 19931 min
Histogram: 1 0 0 0 0 0 0 0 0 0
Neighs:    1.79852e+06 ave 1.79852e+06 max 1.79852e+06 min
Histogram: 1 0 0 0 0 0 0 0 0 0

Total # of neighbors = 1798522
Ave neighs/atom = 91.5185
Neighbor list builds = 495
Dangerous builds not checked
Setting up Verlet run ...
  Unit style    : metal
  Current step  : 153834
  Time step     : 0.001
Per MPI rank memory allocation (min/avg/max) = 19.34 | 19.34 | 19.34 Mbytes
Step Temp Press TotEng PotEng Enthalpy 
  153834    1556.3323     943.1482   -57636.191   -61589.417   -57475.371 
  160006    1557.9125   -623.94675   -57692.453   -61649.692    -57798.84 
Loop time of 1026.08 on 1 procs for 6172 steps with 19652 atoms

Performance: 0.520 ns/day, 46.180 hours/ns, 6.015 timesteps/s
99.9% CPU use with 1 MPI tasks x no OpenMP threads

MPI task timing breakdown:
Section |  min time  |  avg time  |  max time  |%varavg| %total
---------------------------------------------------------------
Pair    | 569.32     | 569.32     | 569.32     |   0.0 | 55.49
Neigh   | 440.65     | 440.65     | 440.65     |   0.0 | 42.94
Comm    | 6.2066     | 6.2066     | 6.2066     |   0.0 |  0.60
Output  | 0.00024486 | 0.00024486 | 0.00024486 |   0.0 |  0.00
Modify  | 7.7404     | 7.7404     | 7.7404     |   0.0 |  0.75
Other   |            | 2.162      |            |       |  0.21

Nlocal:    19652 ave 19652 max 19652 min
Histogram: 1 0 0 0 0 0 0 0 0 0
Nghost:    19858 ave 19858 max 19858 min
Histogram: 1 0 0 0 0 0 0 0 0 0
Neighs:    1.79847e+06 ave 1.79847e+06 max 1.79847e+06 min
Histogram: 1 0 0 0 0 0 0 0 0 0

Total # of neighbors = 1798466
Ave neighs/atom = 91.5157
Neighbor list builds = 6172
Dangerous builds not checked
Setting up Verlet run ...
  Unit style    : metal
  Current step  : 160006
  Time step     : 0.001
Per MPI rank memory allocation (min/avg/max) = 19.34 | 19.34 | 19.34 Mbytes
Step Temp Press TotEng PotEng Enthalpy 
  160006    1557.9125   -623.94675   -57692.453   -61649.692    -57798.84 
  160008    1557.8482   -631.28429   -57692.462   -61649.538   -57800.101 
  160501    1516.6298     285.7379   -57916.916   -61769.294    -57868.39 
Loop time of 93.9205 on 1 procs for 495 steps with 19652 atoms

Performance: 0.455 ns/day, 52.705 hours/ns, 5.270 timesteps/s
99.9% CPU use with 1 MPI tasks x no OpenMP threads

MPI task timing breakdown:
Section |  min time  |  avg time  |  max time  |%varavg| %total
---------------------------------------------------------------
Pair    | 52.604     | 52.604     | 52.604     |   0.0 | 56.01
Neigh   | 39.724     | 39.724     | 39.724     |   0.0 | 42.30
Comm    | 0.58486    | 0.58486    | 0.58486    |   0.0 |  0.62
Output  | 0.064437   | 0.064437   | 0.064437   |   0.0 |  0.07
Modify  | 0.73784    | 0.73784    | 0.73784    |   0.0 |  0.79
Other   |            | 0.2054     |            |       |  0.22

Nlocal:    19652 ave 19652 max 19652 min
Histogram: 1 0 0 0 0 0 0 0 0 0
Nghost:    19851 ave 19851 max 19851 min
Histogram: 1 0 0 0 0 0 0 0 0 0
Neighs:    1.80546e+06 ave 1.80546e+06 max 1.80546e+06 min
Histogram: 1 0 0 0 0 0 0 0 0 0

Total # of neighbors = 1805455
Ave neighs/atom = 91.8713
Neighbor list builds = 495
Dangerous builds not checked
Setting up Verlet run ...
  Unit style    : metal
  Current step  : 160501
  Time step     : 0.001
Per MPI rank memory allocation (min/avg/max) = 19.34 | 19.34 | 19.34 Mbytes
Step Temp Press TotEng PotEng Enthalpy 
  160501    1516.6298     285.7379   -57916.916   -61769.294    -57868.39 
  166673    1502.7902   -968.80433   -58025.525   -61842.749    -58189.94 
Loop time of 1081.01 on 1 procs for 6172 steps with 19652 atoms

Performance: 0.493 ns/day, 48.652 hours/ns, 5.709 timesteps/s
99.9% CPU use with 1 MPI tasks x no OpenMP threads

MPI task timing breakdown:
Section |  min time  |  avg time  |  max time  |%varavg| %total
---------------------------------------------------------------
Pair    | 603.75     | 603.75     | 603.75     |   0.0 | 55.85
Neigh   | 460.11     | 460.11     | 460.11     |   0.0 | 42.56
Comm    | 6.5877     | 6.5877     | 6.5877     |   0.0 |  0.61
Output  | 0.00016212 | 0.00016212 | 0.00016212 |   0.0 |  0.00
Modify  | 8.237      | 8.237      | 8.237      |   0.0 |  0.76
Other   |            | 2.316      |            |       |  0.21

Nlocal:    19652 ave 19652 max 19652 min
Histogram: 1 0 0 0 0 0 0 0 0 0
Nghost:    19864 ave 19864 max 19864 min
Histogram: 1 0 0 0 0 0 0 0 0 0
Neighs:    1.80664e+06 ave 1.80664e+06 max 1.80664e+06 min
Histogram: 1 0 0 0 0 0 0 0 0 0

Total # of neighbors = 1806638
Ave neighs/atom = 91.9315
Neighbor list builds = 6172
Dangerous builds not checked
Setting up Verlet run ...
  Unit style    : metal
  Current step  : 166673
  Time step     : 0.001
Per MPI rank memory allocation (min/avg/max) = 19.34 | 19.34 | 19.34 Mbytes
Step Temp Press TotEng PotEng Enthalpy 
  166673    1502.7902   -968.80433   -58025.525   -61842.749    -58189.94 
  166675    1502.7653   -948.61779   -58025.526   -61842.686   -58186.514 
  167168     1462.558   -684.19701   -58258.669     -61973.7   -58374.263 
Loop time of 85.164 on 1 procs for 495 steps with 19652 atoms

Performance: 0.502 ns/day, 47.791 hours/ns, 5.812 timesteps/s
99.9% CPU use with 1 MPI tasks x no OpenMP threads

MPI task timing breakdown:
Section |  min time  |  avg time  |  max time  |%varavg| %total
---------------------------------------------------------------
Pair    | 47.465     | 47.465     | 47.465     |   0.0 | 55.73
Neigh   | 36.282     | 36.282     | 36.282     |   0.0 | 42.60
Comm    | 0.52234    | 0.52234    | 0.52234    |   0.0 |  0.61
Output  | 0.042377   | 0.042377   | 0.042377   |   0.0 |  0.05
Modify  | 0.66624    | 0.66624    | 0.66624    |   0.0 |  0.78
Other   |            | 0.1864     |            |       |  0.22

Nlocal:    19652 ave 19652 max 19652 min
Histogram: 1 0 0 0 0 0 0 0 0 0
Nghost:    19897 ave 19897 max 19897 min
Histogram: 1 0 0 0 0 0 0 0 0 0
Neighs:    1.81479e+06 ave 1.81479e+06 max 1.81479e+06 min
Histogram: 1 0 0 0 0 0 0 0 0 0

Total # of neighbors = 1814793
Ave neighs/atom = 92.3465
Neighbor list builds = 495
Dangerous builds not checked
Setting up Verlet run ...
  Unit style    : metal
  Current step  : 167168
  Time step     : 0.001
Per MPI rank memory allocation (min/avg/max) = 19.34 | 19.34 | 19.34 Mbytes
Step Temp Press TotEng PotEng Enthalpy 
  167168     1462.558   -684.19701   -58258.669     -61973.7   -58374.263 
  173340    1456.0698    2010.9272    -58312.69    -62011.24   -57974.019 
Loop time of 1080.28 on 1 procs for 6172 steps with 19652 atoms

Performance: 0.494 ns/day, 48.619 hours/ns, 5.713 timesteps/s
99.9% CPU use with 1 MPI tasks x no OpenMP threads

MPI task timing breakdown:
Section |  min time  |  avg time  |  max time  |%varavg| %total
---------------------------------------------------------------
Pair    | 603.37     | 603.37     | 603.37     |   0.0 | 55.85
Neigh   | 459.67     | 459.67     | 459.67     |   0.0 | 42.55
Comm    | 6.6368     | 6.6368     | 6.6368     |   0.0 |  0.61
Output  | 0.00016308 | 0.00016308 | 0.00016308 |   0.0 |  0.00
Modify  | 8.2613     | 8.2613     | 8.2613     |   0.0 |  0.76
Other   |            | 2.339      |            |       |  0.22

Nlocal:    19652 ave 19652 max 19652 min
Histogram: 1 0 0 0 0 0 0 0 0 0
Nghost:    19966 ave 19966 max 19966 min
Histogram: 1 0 0 0 0 0 0 0 0 0
Neighs:    1.8202e+06 ave 1.8202e+06 max 1.8202e+06 min
Histogram: 1 0 0 0 0 0 0 0 0 0

Total # of neighbors = 1820203
Ave neighs/atom = 92.6218
Neighbor list builds = 6172
Dangerous builds not checked
Setting up Verlet run ...
  Unit style    : metal
  Current step  : 173340
  Time step     : 0.001
Per MPI rank memory allocation (min/avg/max) = 19.34 | 19.34 | 19.34 Mbytes
Step Temp Press TotEng PotEng Enthalpy 
  173340    1456.0698    2010.9272    -58312.69    -62011.24   -57974.019 
  173342    1456.6737    1985.1961   -58312.697   -62012.781   -57978.359 
  173835    1427.5266    794.47285    -58540.83   -62166.878    -58407.38 
Loop time of 79.5718 on 1 procs for 495 steps with 19652 atoms

Performance: 0.537 ns/day, 44.653 hours/ns, 6.221 timesteps/s
99.9% CPU use with 1 MPI tasks x no OpenMP threads

MPI task timing breakdown:
Section |  min time  |  avg time  |  max time  |%varavg| %total
---------------------------------------------------------------
Pair    | 44.1       | 44.1       | 44.1       |   0.0 | 55.42
Neigh   | 34.16      | 34.16      | 34.16      |   0.0 | 42.93
Comm    | 0.48527    | 0.48527    | 0.48527    |   0.0 |  0.61
Output  | 0.040862   | 0.040862   | 0.040862   |   0.0 |  0.05
Modify  | 0.60984    | 0.60984    | 0.60984    |   0.0 |  0.77
Other   |            | 0.1757     |            |       |  0.22

Nlocal:    19652 ave 19652 max 19652 min
Histogram: 1 0 0 0 0 0 0 0 0 0
Nghost:    19959 ave 19959 max 19959 min
Histogram: 1 0 0 0 0 0 0 0 0 0
Neighs:    1.8242e+06 ave 1.8242e+06 max 1.8242e+06 min
Histogram: 1 0 0 0 0 0 0 0 0 0

Total # of neighbors = 1824199
Ave neighs/atom = 92.8251
Neighbor list builds = 495
Dangerous builds not checked
Setting up Verlet run ...
  Unit style    : metal
  Current step  : 173835
  Time step     : 0.001
Per MPI rank memory allocation (min/avg/max) = 19.34 | 19.34 | 19.34 Mbytes
Step Temp Press TotEng PotEng Enthalpy 
  173835    1427.5266    794.47285    -58540.83   -62166.878    -58407.38 
  180007    1389.3692    466.31666   -58703.095   -62232.219   -58624.937 
Loop time of 1165.13 on 1 procs for 6172 steps with 19652 atoms

Performance: 0.458 ns/day, 52.438 hours/ns, 5.297 timesteps/s
99.9% CPU use with 1 MPI tasks x no OpenMP threads

MPI task timing breakdown:
Section |  min time  |  avg time  |  max time  |%varavg| %total
---------------------------------------------------------------
Pair    | 654.25     | 654.25     | 654.25     |   0.0 | 56.15
Neigh   | 492.28     | 492.28     | 492.28     |   0.0 | 42.25
Comm    | 7.1533     | 7.1533     | 7.1533     |   0.0 |  0.61
Output  | 0.00022602 | 0.00022602 | 0.00022602 |   0.0 |  0.00
Modify  | 8.9174     | 8.9174     | 8.9174     |   0.0 |  0.77
Other   |            | 2.531      |            |       |  0.22

Nlocal:    19652 ave 19652 max 19652 min
Histogram: 1 0 0 0 0 0 0 0 0 0
Nghost:    19959 ave 19959 max 19959 min
Histogram: 1 0 0 0 0 0 0 0 0 0
Neighs:    1.82822e+06 ave 1.82822e+06 max 1.82822e+06 min
Histogram: 1 0 0 0 0 0 0 0 0 0

Total # of neighbors = 1828218
Ave neighs/atom = 93.0296
Neighbor list builds = 6172
Dangerous builds not checked
Setting up Verlet run ...
  Unit style    : metal
  Current step  : 180007
  Time step     : 0.001
Per MPI rank memory allocation (min/avg/max) = 19.34 | 19.34 | 19.34 Mbytes
Step Temp Press TotEng PotEng Enthalpy 
  180007    1389.3692    466.31666   -58703.095   -62232.219   -58624.937 
  180009     1390.314    447.84584   -58703.087   -62234.611   -58628.025 
  180502    1356.3699    595.16289   -58880.612   -62325.915    -58781.11 
Loop time of 99.6568 on 1 procs for 495 steps with 19652 atoms

Performance: 0.429 ns/day, 55.924 hours/ns, 4.967 timesteps/s
100.0% CPU use with 1 MPI tasks x no OpenMP threads

MPI task timing breakdown:
Section |  min time  |  avg time  |  max time  |%varavg| %total
---------------------------------------------------------------
Pair    | 56.152     | 56.152     | 56.152     |   0.0 | 56.35
Neigh   | 41.833     | 41.833     | 41.833     |   0.0 | 41.98
Comm    | 0.60689    | 0.60689    | 0.60689    |   0.0 |  0.61
Output  | 0.066219   | 0.066219   | 0.066219   |   0.0 |  0.07
Modify  | 0.7848     | 0.7848     | 0.7848     |   0.0 |  0.79
Other   |            | 0.213      |            |       |  0.21

Nlocal:    19652 ave 19652 max 19652 min
Histogram: 1 0 0 0 0 0 0 0 0 0
Nghost:    19999 ave 19999 max 19999 min
Histogram: 1 0 0 0 0 0 0 0 0 0
Neighs:    1.83309e+06 ave 1.83309e+06 max 1.83309e+06 min
Histogram: 1 0 0 0 0 0 0 0 0 0

Total # of neighbors = 1833087
Ave neighs/atom = 93.2774
Neighbor list builds = 495
Dangerous builds not checked
Setting up Verlet run ...
  Unit style    : metal
  Current step  : 180502
  Time step     : 0.001
Per MPI rank memory allocation (min/avg/max) = 19.34 | 19.34 | 19.34 Mbytes
Step Temp Press TotEng PotEng Enthalpy 
  180502    1356.3699    595.16289   -58880.612   -62325.915    -58781.11 
  186674    1357.8901    691.29435   -58972.537   -62421.701   -58857.243 
Loop time of 1245.77 on 1 procs for 6172 steps with 19652 atoms

Performance: 0.428 ns/day, 56.067 hours/ns, 4.954 timesteps/s
99.8% CPU use with 1 MPI tasks x no OpenMP threads

MPI task timing breakdown:
Section |  min time  |  avg time  |  max time  |%varavg| %total
---------------------------------------------------------------
Pair    | 702.93     | 702.93     | 702.93     |   0.0 | 56.43
Neigh   | 522.92     | 522.92     | 522.92     |   0.0 | 41.98
Comm    | 7.6258     | 7.6258     | 7.6258     |   0.0 |  0.61
Output  | 0.00024414 | 0.00024414 | 0.00024414 |   0.0 |  0.00
Modify  | 9.6228     | 9.6228     | 9.6228     |   0.0 |  0.77
Other   |            | 2.675      |            |       |  0.21

Nlocal:    19652 ave 19652 max 19652 min
Histogram: 1 0 0 0 0 0 0 0 0 0
Nghost:    20056 ave 20056 max 20056 min
Histogram: 1 0 0 0 0 0 0 0 0 0
Neighs:    1.83699e+06 ave 1.83699e+06 max 1.83699e+06 min
Histogram: 1 0 0 0 0 0 0 0 0 0

Total # of neighbors = 1836993
Ave neighs/atom = 93.4761
Neighbor list builds = 6172
Dangerous builds not checked
Setting up Verlet run ...
  Unit style    : metal
  Current step  : 186674
  Time step     : 0.001
Per MPI rank memory allocation (min/avg/max) = 19.34 | 19.34 | 19.34 Mbytes
Step Temp Press TotEng PotEng Enthalpy 
  186674    1357.8901    691.29435   -58972.537   -62421.701   -58857.243 
  186676    1357.2353    719.63425   -58972.549   -62420.051   -58852.529 
  187169    1309.4827     354.7764   -59195.661   -62521.866   -59136.657 
Loop time of 101.31 on 1 procs for 495 steps with 19652 atoms

Performance: 0.422 ns/day, 56.852 hours/ns, 4.886 timesteps/s
99.6% CPU use with 1 MPI tasks x no OpenMP threads

MPI task timing breakdown:
Section |  min time  |  avg time  |  max time  |%varavg| %total
---------------------------------------------------------------
Pair    | 57.527     | 57.527     | 57.527     |   0.0 | 56.78
Neigh   | 42.042     | 42.042     | 42.042     |   0.0 | 41.50
Comm    | 0.63515    | 0.63515    | 0.63515    |   0.0 |  0.63
Output  | 0.064809   | 0.064809   | 0.064809   |   0.0 |  0.06
Modify  | 0.81899    | 0.81899    | 0.81899    |   0.0 |  0.81
Other   |            | 0.2224     |            |       |  0.22

Nlocal:    19652 ave 19652 max 19652 min
Histogram: 1 0 0 0 0 0 0 0 0 0
Nghost:    20052 ave 20052 max 20052 min
Histogram: 1 0 0 0 0 0 0 0 0 0
Neighs:    1.84228e+06 ave 1.84228e+06 max 1.84228e+06 min
Histogram: 1 0 0 0 0 0 0 0 0 0

Total # of neighbors = 1842285
Ave neighs/atom = 93.7454
Neighbor list builds = 495
Dangerous builds not checked
Setting up Verlet run ...
  Unit style    : metal
  Current step  : 187169
  Time step     : 0.001
Per MPI rank memory allocation (min/avg/max) = 19.34 | 19.34 | 19.34 Mbytes
Step Temp Press TotEng PotEng Enthalpy 
  187169    1309.4827     354.7764   -59195.661   -62521.866   -59136.657 
  193341    1306.9072    1974.3321   -59289.269   -62608.932   -58962.042 
Loop time of 1239.94 on 1 procs for 6172 steps with 19652 atoms

Performance: 0.430 ns/day, 55.805 hours/ns, 4.978 timesteps/s
99.7% CPU use with 1 MPI tasks x no OpenMP threads

MPI task timing breakdown:
Section |  min time  |  avg time  |  max time  |%varavg| %total
---------------------------------------------------------------
Pair    | 699.91     | 699.91     | 699.91     |   0.0 | 56.45
Neigh   | 520.05     | 520.05     | 520.05     |   0.0 | 41.94
Comm    | 7.6328     | 7.6328     | 7.6328     |   0.0 |  0.62
Output  | 0.00018501 | 0.00018501 | 0.00018501 |   0.0 |  0.00
Modify  | 9.6359     | 9.6359     | 9.6359     |   0.0 |  0.78
Other   |            | 2.704      |            |       |  0.22

Nlocal:    19652 ave 19652 max 19652 min
Histogram: 1 0 0 0 0 0 0 0 0 0
Nghost:    20039 ave 20039 max 20039 min
Histogram: 1 0 0 0 0 0 0 0 0 0
Neighs:    1.8483e+06 ave 1.8483e+06 max 1.8483e+06 min
Histogram: 1 0 0 0 0 0 0 0 0 0

Total # of neighbors = 1848296
Ave neighs/atom = 94.0513
Neighbor list builds = 6172
Dangerous builds not checked
Setting up Verlet run ...
  Unit style    : metal
  Current step  : 193341
  Time step     : 0.001
Per MPI rank memory allocation (min/avg/max) = 19.34 | 19.34 | 19.34 Mbytes
Step Temp Press TotEng PotEng Enthalpy 
  193341    1306.9072    1974.3321   -59289.269   -62608.932   -58962.042 
  193343    1306.9766    1999.6796   -59289.277   -62609.116   -58957.848 
  193836    1267.4993    1363.8968   -59499.432   -62718.995   -59273.939 
Loop time of 100.643 on 1 procs for 495 steps with 19652 atoms

Performance: 0.425 ns/day, 56.478 hours/ns, 4.918 timesteps/s
99.7% CPU use with 1 MPI tasks x no OpenMP threads

MPI task timing breakdown:
Section |  min time  |  avg time  |  max time  |%varavg| %total
---------------------------------------------------------------
Pair    | 56.76      | 56.76      | 56.76      |   0.0 | 56.40
Neigh   | 41.989     | 41.989     | 41.989     |   0.0 | 41.72
Comm    | 0.62088    | 0.62088    | 0.62088    |   0.0 |  0.62
Output  | 0.27786    | 0.27786    | 0.27786    |   0.0 |  0.28
Modify  | 0.779      | 0.779      | 0.779      |   0.0 |  0.77
Other   |            | 0.2167     |            |       |  0.22

Nlocal:    19652 ave 19652 max 19652 min
Histogram: 1 0 0 0 0 0 0 0 0 0
Nghost:    20126 ave 20126 max 20126 min
Histogram: 1 0 0 0 0 0 0 0 0 0
Neighs:    1.85216e+06 ave 1.85216e+06 max 1.85216e+06 min
Histogram: 1 0 0 0 0 0 0 0 0 0

Total # of neighbors = 1852160
Ave neighs/atom = 94.2479
Neighbor list builds = 495
Dangerous builds not checked
Setting up Verlet run ...
  Unit style    : metal
  Current step  : 193836
  Time step     : 0.001
Per MPI rank memory allocation (min/avg/max) = 19.34 | 19.34 | 19.34 Mbytes
Step Temp Press TotEng PotEng Enthalpy 
  193836    1267.4993    1363.8968   -59499.432   -62718.995   -59273.939 
  200008    1241.3396    52.613315   -59698.994   -62852.109   -59690.312 
Loop time of 1075.89 on 1 procs for 6172 steps with 19652 atoms

Performance: 0.496 ns/day, 48.422 hours/ns, 5.737 timesteps/s
99.9% CPU use with 1 MPI tasks x no OpenMP threads

MPI task timing breakdown:
Section |  min time  |  avg time  |  max time  |%varavg| %total
---------------------------------------------------------------
Pair    | 605.28     | 605.28     | 605.28     |   0.0 | 56.26
Neigh   | 453.54     | 453.54     | 453.54     |   0.0 | 42.16
Comm    | 6.5977     | 6.5977     | 6.5977     |   0.0 |  0.61
Output  | 0.00015497 | 0.00015497 | 0.00015497 |   0.0 |  0.00
Modify  | 8.1501     | 8.1501     | 8.1501     |   0.0 |  0.76
Other   |            | 2.323      |            |       |  0.22

Nlocal:    19652 ave 19652 max 19652 min
Histogram: 1 0 0 0 0 0 0 0 0 0
Nghost:    20158 ave 20158 max 20158 min
Histogram: 1 0 0 0 0 0 0 0 0 0
Neighs:    1.85568e+06 ave 1.85568e+06 max 1.85568e+06 min
Histogram: 1 0 0 0 0 0 0 0 0 0

Total # of neighbors = 1855678
Ave neighs/atom = 94.4269
Neighbor list builds = 6172
Dangerous builds not checked
Setting up Verlet run ...
  Unit style    : metal
  Current step  : 200008
  Time step     : 0.001
Per MPI rank memory allocation (min/avg/max) = 19.34 | 19.34 | 19.34 Mbytes
Step Temp Press TotEng PotEng Enthalpy 
  200008    1241.3396    52.613315   -59698.994   -62852.109   -59690.312 
  200010    1241.5161    62.041199   -59698.985   -62852.549   -59688.748 
  200503    1221.6593     406.2323   -59835.536   -62938.662   -59768.688 
Loop time of 72.6114 on 1 procs for 495 steps with 19652 atoms

Performance: 0.589 ns/day, 40.747 hours/ns, 6.817 timesteps/s
98.6% CPU use with 1 MPI tasks x no OpenMP threads

MPI task timing breakdown:
Section |  min time  |  avg time  |  max time  |%varavg| %total
---------------------------------------------------------------
Pair    | 39.761     | 39.761     | 39.761     |   0.0 | 54.76
Neigh   | 30.698     | 30.698     | 30.698     |   0.0 | 42.28
Comm    | 0.42949    | 0.42949    | 0.42949    |   0.0 |  0.59
Output  | 1.0408     | 1.0408     | 1.0408     |   0.0 |  1.43
Modify  | 0.53353    | 0.53353    | 0.53353    |   0.0 |  0.73
Other   |            | 0.1482     |            |       |  0.20

Nlocal:    19652 ave 19652 max 19652 min
Histogram: 1 0 0 0 0 0 0 0 0 0
Nghost:    20167 ave 20167 max 20167 min
Histogram: 1 0 0 0 0 0 0 0 0 0
Neighs:    1.861e+06 ave 1.861e+06 max 1.861e+06 min
Histogram: 1 0 0 0 0 0 0 0 0 0

Total # of neighbors = 1861001
Ave neighs/atom = 94.6978
Neighbor list builds = 495
Dangerous builds not checked
Setting up Verlet run ...
  Unit style    : metal
  Current step  : 200503
  Time step     : 0.001
Per MPI rank memory allocation (min/avg/max) = 19.34 | 19.34 | 19.34 Mbytes
Step Temp Press TotEng PotEng Enthalpy 
  200503    1221.6593     406.2323   -59835.536   -62938.662   -59768.688 
  206675    1194.6554    1332.2858   -59966.324   -63000.858   -59747.577 
Loop time of 1103.95 on 1 procs for 6172 steps with 19652 atoms

Performance: 0.483 ns/day, 49.684 hours/ns, 5.591 timesteps/s
99.9% CPU use with 1 MPI tasks x no OpenMP threads

MPI task timing breakdown:
Section |  min time  |  avg time  |  max time  |%varavg| %total
---------------------------------------------------------------
Pair    | 624.77     | 624.77     | 624.77     |   0.0 | 56.59
Neigh   | 461.54     | 461.54     | 461.54     |   0.0 | 41.81
Comm    | 6.8484     | 6.8484     | 6.8484     |   0.0 |  0.62
Output  | 0.00033689 | 0.00033689 | 0.00033689 |   0.0 |  0.00
Modify  | 8.3707     | 8.3707     | 8.3707     |   0.0 |  0.76
Other   |            | 2.419      |            |       |  0.22

Nlocal:    19652 ave 19652 max 19652 min
Histogram: 1 0 0 0 0 0 0 0 0 0
Nghost:    20186 ave 20186 max 20186 min
Histogram: 1 0 0 0 0 0 0 0 0 0
Neighs:    1.86367e+06 ave 1.86367e+06 max 1.86367e+06 min
Histogram: 1 0 0 0 0 0 0 0 0 0

Total # of neighbors = 1863668
Ave neighs/atom = 94.8335
Neighbor list builds = 6172
Dangerous builds not checked
Setting up Verlet run ...
  Unit style    : metal
  Current step  : 206675
  Time step     : 0.001
[...]
93.6% CPU use with 1 MPI tasks x no OpenMP threads

MPI task timing breakdown:
Section |  min time  |  avg time  |  max time  |%varavg| %total
---------------------------------------------------------------
Pair    | 70.162     | 70.162     | 70.162     |   0.0 | 56.75
Neigh   | 51.416     | 51.416     | 51.416     |   0.0 | 41.59
Comm    | 0.79383    | 0.79383    | 0.79383    |   0.0 |  0.64
Output  | 0.066777   | 0.066777   | 0.066777   |   0.0 |  0.05
Modify  | 0.93663    | 0.93663    | 0.93663    |   0.0 |  0.76
Other   |            | 0.2586     |            |       |  0.21

Nlocal:    19652 ave 19652 max 19652 min
Histogram: 1 0 0 0 0 0 0 0 0 0
Nghost:    20878 ave 20878 max 20878 min
Histogram: 1 0 0 0 0 0 0 0 0 0
Neighs:    2.01001e+06 ave 2.01001e+06 max 2.01001e+06 min
Histogram: 1 0 0 0 0 0 0 0 0 0

Total # of neighbors = 2010010
Ave neighs/atom = 102.28
Neighbor list builds = 495
Dangerous builds not checked
Setting up Verlet run ...
  Unit style    : metal
  Current step  : 307175
  Time step     : 0.001
Per MPI rank memory allocation (min/avg/max) = 19.35 | 19.35 | 19.35 Mbytes
Step Temp Press TotEng PotEng Enthalpy 
  307175    423.31474    556.10997   -65232.775   -66308.033   -65148.371 
  313347    400.65752    1620.9753   -65360.927   -66378.633   -65115.487 
Loop time of 1529.55 on 1 procs for 6172 steps with 19652 atoms

Performance: 0.349 ns/day, 68.839 hours/ns, 4.035 timesteps/s
94.7% CPU use with 1 MPI tasks x no OpenMP threads

MPI task timing breakdown:
Section |  min time  |  avg time  |  max time  |%varavg| %total
---------------------------------------------------------------
Pair    | 863.43     | 863.43     | 863.43     |   0.0 | 56.45
Neigh   | 641.14     | 641.14     | 641.14     |   0.0 | 41.92
Comm    | 9.8582     | 9.8582     | 9.8582     |   0.0 |  0.64
Output  | 0.00026679 | 0.00026679 | 0.00026679 |   0.0 |  0.00
Modify  | 11.775     | 11.775     | 11.775     |   0.0 |  0.77
Other   |            | 3.345      |            |       |  0.22

Nlocal:    19652 ave 19652 max 19652 min
Histogram: 1 0 0 0 0 0 0 0 0 0
Nghost:    20862 ave 20862 max 20862 min
Histogram: 1 0 0 0 0 0 0 0 0 0
Neighs:    2.0148e+06 ave 2.0148e+06 max 2.0148e+06 min
Histogram: 1 0 0 0 0 0 0 0 0 0

Total # of neighbors = 2014802
Ave neighs/atom = 102.524
Neighbor list builds = 6172
Dangerous builds not checked
Setting up Verlet run ...
  Unit style    : metal
  Current step  : 313347
  Time step     : 0.001
Per MPI rank memory allocation (min/avg/max) = 19.35 | 19.35 | 19.35 Mbytes
Step Temp Press TotEng PotEng Enthalpy 
  313347    400.65752    1620.9753   -65360.927   -66378.633   -65115.487 
  313349    400.71999    1618.7763   -65360.928   -66378.793   -65115.821 
  313842    371.11672   -406.99021   -65520.336   -66463.006   -65581.935 
Loop time of 118.605 on 1 procs for 495 steps with 19652 atoms

Performance: 0.361 ns/day, 66.557 hours/ns, 4.174 timesteps/s
95.5% CPU use with 1 MPI tasks x no OpenMP threads

MPI task timing breakdown:
Section |  min time  |  avg time  |  max time  |%varavg| %total
---------------------------------------------------------------
Pair    | 66.865     | 66.865     | 66.865     |   0.0 | 56.38
Neigh   | 49.833     | 49.833     | 49.833     |   0.0 | 42.02
Comm    | 0.74553    | 0.74553    | 0.74553    |   0.0 |  0.63
Output  | 0.070895   | 0.070895   | 0.070895   |   0.0 |  0.06
Modify  | 0.84077    | 0.84077    | 0.84077    |   0.0 |  0.71
Other   |            | 0.2499     |            |       |  0.21

Nlocal:    19652 ave 19652 max 19652 min
Histogram: 1 0 0 0 0 0 0 0 0 0
Nghost:    20881 ave 20881 max 20881 min
Histogram: 1 0 0 0 0 0 0 0 0 0
Neighs:    2.01563e+06 ave 2.01563e+06 max 2.01563e+06 min
Histogram: 1 0 0 0 0 0 0 0 0 0

Total # of neighbors = 2015633
Ave neighs/atom = 102.566
Neighbor list builds = 495
Dangerous builds not checked
Setting up Verlet run ...
  Unit style    : metal
  Current step  : 313842
  Time step     : 0.001
Per MPI rank memory allocation (min/avg/max) = 19.35 | 19.35 | 19.35 Mbytes
Step Temp Press TotEng PotEng Enthalpy 
  313842    371.11672   -406.99021   -65520.336   -66463.006   -65581.935 
  320014    348.95979    318.97638   -65650.524   -66536.914   -65602.337 
Loop time of 1569.93 on 1 procs for 6172 steps with 19652 atoms

Performance: 0.340 ns/day, 70.656 hours/ns, 3.931 timesteps/s
92.3% CPU use with 1 MPI tasks x no OpenMP threads

MPI task timing breakdown:
Section |  min time  |  avg time  |  max time  |%varavg| %total
---------------------------------------------------------------
Pair    | 889.92     | 889.92     | 889.92     |   0.0 | 56.69
Neigh   | 654.23     | 654.23     | 654.23     |   0.0 | 41.67
Comm    | 10.191     | 10.191     | 10.191     |   0.0 |  0.65
Output  | 0.00026989 | 0.00026989 | 0.00026989 |   0.0 |  0.00
Modify  | 12.084     | 12.084     | 12.084     |   0.0 |  0.77
Other   |            | 3.504      |            |       |  0.22

Nlocal:    19652 ave 19652 max 19652 min
Histogram: 1 0 0 0 0 0 0 0 0 0
Nghost:    20872 ave 20872 max 20872 min
Histogram: 1 0 0 0 0 0 0 0 0 0
Neighs:    2.01997e+06 ave 2.01997e+06 max 2.01997e+06 min
Histogram: 1 0 0 0 0 0 0 0 0 0

Total # of neighbors = 2019973
Ave neighs/atom = 102.787
Neighbor list builds = 6172
Dangerous builds not checked
Setting up Verlet run ...
  Unit style    : metal
  Current step  : 320014
  Time step     : 0.001
Per MPI rank memory allocation (min/avg/max) = 19.35 | 19.35 | 19.35 Mbytes
Step Temp Press TotEng PotEng Enthalpy 
  320014    348.95979    318.97638   -65650.524   -66536.914   -65602.337 
  320016    348.64359    327.65701   -65650.523    -66536.11   -65601.024 
  320509    322.16603   -94.516362   -65797.711   -66616.042   -65811.968 
Loop time of 126.384 on 1 procs for 495 steps with 19652 atoms

Performance: 0.338 ns/day, 70.923 hours/ns, 3.917 timesteps/s
91.6% CPU use with 1 MPI tasks x no OpenMP threads

MPI task timing breakdown:
Section |  min time  |  avg time  |  max time  |%varavg| %total
---------------------------------------------------------------
Pair    | 71.105     | 71.105     | 71.105     |   0.0 | 56.26
Neigh   | 53.123     | 53.123     | 53.123     |   0.0 | 42.03
Comm    | 0.83748    | 0.83748    | 0.83748    |   0.0 |  0.66
Output  | 0.070358   | 0.070358   | 0.070358   |   0.0 |  0.06
Modify  | 0.97404    | 0.97404    | 0.97404    |   0.0 |  0.77
Other   |            | 0.2737     |            |       |  0.22

Nlocal:    19652 ave 19652 max 19652 min
Histogram: 1 0 0 0 0 0 0 0 0 0
Nghost:    20936 ave 20936 max 20936 min
Histogram: 1 0 0 0 0 0 0 0 0 0
Neighs:    2.02273e+06 ave 2.02273e+06 max 2.02273e+06 min
Histogram: 1 0 0 0 0 0 0 0 0 0

Total # of neighbors = 2022730
Ave neighs/atom = 102.927
Neighbor list builds = 495
Dangerous builds not checked
Setting up Verlet run ...
  Unit style    : metal
  Current step  : 320509
  Time step     : 0.001
Per MPI rank memory allocation (min/avg/max) = 19.35 | 19.35 | 19.35 Mbytes
Step Temp Press TotEng PotEng Enthalpy 
  320509    322.16603   -94.516362   -65797.711   -66616.042   -65811.968 
  326681    297.94733    488.64592   -65936.206   -66693.019   -65862.643 
Loop time of 1484.04 on 1 procs for 6172 steps with 19652 atoms

Performance: 0.359 ns/day, 66.791 hours/ns, 4.159 timesteps/s
95.9% CPU use with 1 MPI tasks x no OpenMP threads

MPI task timing breakdown:
Section |  min time  |  avg time  |  max time  |%varavg| %total
---------------------------------------------------------------
Pair    | 838.83     | 838.83     | 838.83     |   0.0 | 56.52
Neigh   | 621.23     | 621.23     | 621.23     |   0.0 | 41.86
Comm    | 9.4424     | 9.4424     | 9.4424     |   0.0 |  0.64
Output  | 0.00032401 | 0.00032401 | 0.00032401 |   0.0 |  0.00
Modify  | 11.243     | 11.243     | 11.243     |   0.0 |  0.76
Other   |            | 3.292      |            |       |  0.22

Nlocal:    19652 ave 19652 max 19652 min
Histogram: 1 0 0 0 0 0 0 0 0 0
Nghost:    20954 ave 20954 max 20954 min
Histogram: 1 0 0 0 0 0 0 0 0 0
Neighs:    2.02782e+06 ave 2.02782e+06 max 2.02782e+06 min
Histogram: 1 0 0 0 0 0 0 0 0 0

Total # of neighbors = 2027825
Ave neighs/atom = 103.187
Neighbor list builds = 6172
Dangerous builds not checked
Setting up Verlet run ...
  Unit style    : metal
  Current step  : 326681
  Time step     : 0.001
Per MPI rank memory allocation (min/avg/max) = 19.35 | 19.35 | 19.35 Mbytes
Step Temp Press TotEng PotEng Enthalpy 
  326681    297.94733    488.64592   -65936.206   -66693.019   -65862.643 
  326683    297.72428    501.95078   -65936.204    -66692.45   -65860.638 
  327176    274.68214   -92.763348   -66069.613    -66767.33   -66083.562 
Loop time of 110.416 on 1 procs for 495 steps with 19652 atoms

Performance: 0.387 ns/day, 61.962 hours/ns, 4.483 timesteps/s
99.5% CPU use with 1 MPI tasks x no OpenMP threads

MPI task timing breakdown:
Section |  min time  |  avg time  |  max time  |%varavg| %total
---------------------------------------------------------------
Pair    | 61.869     | 61.869     | 61.869     |   0.0 | 56.03
Neigh   | 46.708     | 46.708     | 46.708     |   0.0 | 42.30
Comm    | 0.68876    | 0.68876    | 0.68876    |   0.0 |  0.62
Output  | 0.068087   | 0.068087   | 0.068087   |   0.0 |  0.06
Modify  | 0.8411     | 0.8411     | 0.8411     |   0.0 |  0.76
Other   |            | 0.2421     |            |       |  0.22

Nlocal:    19652 ave 19652 max 19652 min
Histogram: 1 0 0 0 0 0 0 0 0 0
Nghost:    20932 ave 20932 max 20932 min
Histogram: 1 0 0 0 0 0 0 0 0 0
Neighs:    2.02982e+06 ave 2.02982e+06 max 2.02982e+06 min
Histogram: 1 0 0 0 0 0 0 0 0 0

Total # of neighbors = 2029822
Ave neighs/atom = 103.288
Neighbor list builds = 495
Dangerous builds not checked
Setting up Verlet run ...
  Unit style    : metal
  Current step  : 327176
  Time step     : 0.001
Per MPI rank memory allocation (min/avg/max) = 19.35 | 19.35 | 19.35 Mbytes
Step Temp Press TotEng PotEng Enthalpy 
  327176    274.68214   -92.763348   -66069.613    -66767.33   -66083.562 
  333348    251.65365    999.32394   -66203.237    -66842.46   -66053.339 
Loop time of 1353.12 on 1 procs for 6172 steps with 19652 atoms

Performance: 0.394 ns/day, 60.899 hours/ns, 4.561 timesteps/s
99.7% CPU use with 1 MPI tasks x no OpenMP threads

MPI task timing breakdown:
Section |  min time  |  avg time  |  max time  |%varavg| %total
---------------------------------------------------------------
Pair    | 761.93     | 761.93     | 761.93     |   0.0 | 56.31
Neigh   | 569.69     | 569.69     | 569.69     |   0.0 | 42.10
Comm    | 8.4059     | 8.4059     | 8.4059     |   0.0 |  0.62
Output  | 0.00024581 | 0.00024581 | 0.00024581 |   0.0 |  0.00
Modify  | 10.125     | 10.125     | 10.125     |   0.0 |  0.75
Other   |            | 2.972      |            |       |  0.22

Nlocal:    19652 ave 19652 max 19652 min
Histogram: 1 0 0 0 0 0 0 0 0 0
Nghost:    20935 ave 20935 max 20935 min
Histogram: 1 0 0 0 0 0 0 0 0 0
Neighs:    2.03575e+06 ave 2.03575e+06 max 2.03575e+06 min
Histogram: 1 0 0 0 0 0 0 0 0 0

Total # of neighbors = 2035746
Ave neighs/atom = 103.59
Neighbor list builds = 6172
Dangerous builds not checked
Setting up Verlet run ...
  Unit style    : metal
  Current step  : 333348
  Time step     : 0.001
Per MPI rank memory allocation (min/avg/max) = 19.35 | 19.35 | 19.35 Mbytes
Step Temp Press TotEng PotEng Enthalpy 
  333348    251.65365    999.32394   -66203.237    -66842.46   -66053.339 
  333350    251.66067    1002.3109   -66203.239    -66842.48   -66052.893 
  333843    222.82077    457.72172   -66335.555    -66901.54   -66266.958 
Loop time of 110.97 on 1 procs for 495 steps with 19652 atoms

Performance: 0.385 ns/day, 62.273 hours/ns, 4.461 timesteps/s
97.9% CPU use with 1 MPI tasks x no OpenMP threads

MPI task timing breakdown:
Section |  min time  |  avg time  |  max time  |%varavg| %total
---------------------------------------------------------------
Pair    | 62.168     | 62.168     | 62.168     |   0.0 | 56.02
Neigh   | 46.995     | 46.995     | 46.995     |   0.0 | 42.35
Comm    | 0.66875    | 0.66875    | 0.66875    |   0.0 |  0.60
Output  | 0.102      | 0.102      | 0.102      |   0.0 |  0.09
Modify  | 0.80018    | 0.80018    | 0.80018    |   0.0 |  0.72
Other   |            | 0.2357     |            |       |  0.21

Nlocal:    19652 ave 19652 max 19652 min
Histogram: 1 0 0 0 0 0 0 0 0 0
Nghost:    20931 ave 20931 max 20931 min
Histogram: 1 0 0 0 0 0 0 0 0 0
Neighs:    2.03824e+06 ave 2.03824e+06 max 2.03824e+06 min
Histogram: 1 0 0 0 0 0 0 0 0 0

Total # of neighbors = 2038235
Ave neighs/atom = 103.716
Neighbor list builds = 495
Dangerous builds not checked
Setting up Verlet run ...
  Unit style    : metal
  Current step  : 333843
  Time step     : 0.001
Per MPI rank memory allocation (min/avg/max) = 19.35 | 19.35 | 19.35 Mbytes
Step Temp Press TotEng PotEng Enthalpy 
  333843    222.82077    457.72172   -66335.555    -66901.54   -66266.958 
  340015    197.73605    569.36657   -66473.616   -66975.884   -66388.423 
Loop time of 1376.67 on 1 procs for 6172 steps with 19652 atoms

Performance: 0.387 ns/day, 61.959 hours/ns, 4.483 timesteps/s
98.3% CPU use with 1 MPI tasks x no OpenMP threads

MPI task timing breakdown:
Section |  min time  |  avg time  |  max time  |%varavg| %total
---------------------------------------------------------------
Pair    | 774.11     | 774.11     | 774.11     |   0.0 | 56.23
Neigh   | 580.87     | 580.87     | 580.87     |   0.0 | 42.19
Comm    | 8.4772     | 8.4772     | 8.4772     |   0.0 |  0.62
Output  | 0.00023293 | 0.00023293 | 0.00023293 |   0.0 |  0.00
Modify  | 10.235     | 10.235     | 10.235     |   0.0 |  0.74
Other   |            | 2.982      |            |       |  0.22

Nlocal:    19652 ave 19652 max 19652 min
Histogram: 1 0 0 0 0 0 0 0 0 0
Nghost:    20969 ave 20969 max 20969 min
Histogram: 1 0 0 0 0 0 0 0 0 0
Neighs:    2.04208e+06 ave 2.04208e+06 max 2.04208e+06 min
Histogram: 1 0 0 0 0 0 0 0 0 0

Total # of neighbors = 2042083
Ave neighs/atom = 103.912
Neighbor list builds = 6172
Dangerous builds not checked
Setting up Verlet run ...
  Unit style    : metal
  Current step  : 340015
  Time step     : 0.001
Per MPI rank memory allocation (min/avg/max) = 19.35 | 19.35 | 19.35 Mbytes
Step Temp Press TotEng PotEng Enthalpy 
  340015    197.73605    569.36657   -66473.616   -66975.884   -66388.423 
  340017    197.81773     560.2037   -66473.614   -66976.089   -66389.792 
  340510    175.03337    109.83699   -66595.356   -67039.957   -66578.939 
Loop time of 102.662 on 1 procs for 495 steps with 19652 atoms

Performance: 0.417 ns/day, 57.611 hours/ns, 4.822 timesteps/s
99.5% CPU use with 1 MPI tasks x no OpenMP threads

MPI task timing breakdown:
Section |  min time  |  avg time  |  max time  |%varavg| %total
---------------------------------------------------------------
Pair    | 57.409     | 57.409     | 57.409     |   0.0 | 55.92
Neigh   | 43.582     | 43.582     | 43.582     |   0.0 | 42.45
Comm    | 0.63102    | 0.63102    | 0.63102    |   0.0 |  0.61
Output  | 0.053826   | 0.053826   | 0.053826   |   0.0 |  0.05
Modify  | 0.76804    | 0.76804    | 0.76804    |   0.0 |  0.75
Other   |            | 0.2178     |            |       |  0.21

Nlocal:    19652 ave 19652 max 19652 min
Histogram: 1 0 0 0 0 0 0 0 0 0
Nghost:    20976 ave 20976 max 20976 min
Histogram: 1 0 0 0 0 0 0 0 0 0
Neighs:    2.04431e+06 ave 2.04431e+06 max 2.04431e+06 min
Histogram: 1 0 0 0 0 0 0 0 0 0

Total # of neighbors = 2044310
Ave neighs/atom = 104.026
Neighbor list builds = 495
Dangerous builds not checked
Setting up Verlet run ...
  Unit style    : metal
  Current step  : 340510
  Time step     : 0.001
Per MPI rank memory allocation (min/avg/max) = 19.35 | 19.35 | 19.35 Mbytes
Step Temp Press TotEng PotEng Enthalpy 
  340510    175.03337    109.83699   -66595.356   -67039.957   -66578.939 
  346682     149.3013    654.51477   -66736.265   -67115.504    -66638.62 
Loop time of 1448.48 on 1 procs for 6172 steps with 19652 atoms

Performance: 0.368 ns/day, 65.191 hours/ns, 4.261 timesteps/s
94.3% CPU use with 1 MPI tasks x no OpenMP threads

MPI task timing breakdown:
Section |  min time  |  avg time  |  max time  |%varavg| %total
---------------------------------------------------------------
Pair    | 810.37     | 810.37     | 810.37     |   0.0 | 55.95
Neigh   | 615.33     | 615.33     | 615.33     |   0.0 | 42.48
Comm    | 8.6435     | 8.6435     | 8.6435     |   0.0 |  0.60
Output  | 0.00023198 | 0.00023198 | 0.00023198 |   0.0 |  0.00
Modify  | 10.978     | 10.978     | 10.978     |   0.0 |  0.76
Other   |            | 3.166      |            |       |  0.22

Nlocal:    19652 ave 19652 max 19652 min
Histogram: 1 0 0 0 0 0 0 0 0 0
Nghost:    21023 ave 21023 max 21023 min
Histogram: 1 0 0 0 0 0 0 0 0 0
Neighs:    2.04878e+06 ave 2.04878e+06 max 2.04878e+06 min
Histogram: 1 0 0 0 0 0 0 0 0 0

Total # of neighbors = 2048782
Ave neighs/atom = 104.253
Neighbor list builds = 6172
Dangerous builds not checked
Setting up Verlet run ...
  Unit style    : metal
  Current step  : 346682
  Time step     : 0.001
Per MPI rank memory allocation (min/avg/max) = 19.35 | 19.35 | 19.35 Mbytes
Step Temp Press TotEng PotEng Enthalpy 
  346682     149.3013    654.51477   -66736.265   -67115.504    -66638.62 
  346684    149.28031    651.86393   -66736.265    -67115.45   -66639.015 
  347177    126.20483   -343.75037   -66852.176   -67172.748   -66903.437 
Loop time of 121.43 on 1 procs for 495 steps with 19652 atoms

Performance: 0.352 ns/day, 68.143 hours/ns, 4.076 timesteps/s
92.8% CPU use with 1 MPI tasks x no OpenMP threads

MPI task timing breakdown:
Section |  min time  |  avg time  |  max time  |%varavg| %total
---------------------------------------------------------------
Pair    | 68.515     | 68.515     | 68.515     |   0.0 | 56.42
Neigh   | 50.78      | 50.78      | 50.78      |   0.0 | 41.82
Comm    | 0.76775    | 0.76775    | 0.76775    |   0.0 |  0.63
Output  | 0.1145     | 0.1145     | 0.1145     |   0.0 |  0.09
Modify  | 0.94264    | 0.94264    | 0.94264    |   0.0 |  0.78
Other   |            | 0.3095     |            |       |  0.25

Nlocal:    19652 ave 19652 max 19652 min
Histogram: 1 0 0 0 0 0 0 0 0 0
Nghost:    21034 ave 21034 max 21034 min
Histogram: 1 0 0 0 0 0 0 0 0 0
Neighs:    2.04944e+06 ave 2.04944e+06 max 2.04944e+06 min
Histogram: 1 0 0 0 0 0 0 0 0 0

Total # of neighbors = 2049444
Ave neighs/atom = 104.287
Neighbor list builds = 495
Dangerous builds not checked
Setting up Verlet run ...
  Unit style    : metal
  Current step  : 347177
  Time step     : 0.001
Per MPI rank memory allocation (min/avg/max) = 19.35 | 19.35 | 19.35 Mbytes
Step Temp Press TotEng PotEng Enthalpy 
  347177    126.20483   -343.75037   -66852.176   -67172.748   -66903.437 
  353349    99.432924    286.60076   -66991.328   -67243.897   -66948.671 
Loop time of 1481.87 on 1 procs for 6172 steps with 19652 atoms

Performance: 0.360 ns/day, 66.693 hours/ns, 4.165 timesteps/s
95.7% CPU use with 1 MPI tasks x no OpenMP threads

MPI task timing breakdown:
Section |  min time  |  avg time  |  max time  |%varavg| %total
---------------------------------------------------------------
Pair    | 840.71     | 840.71     | 840.71     |   0.0 | 56.73
Neigh   | 616.79     | 616.79     | 616.79     |   0.0 | 41.62
Comm    | 9.458      | 9.458      | 9.458      |   0.0 |  0.64
Output  | 0.00023723 | 0.00023723 | 0.00023723 |   0.0 |  0.00
Modify  | 11.571     | 11.571     | 11.571     |   0.0 |  0.78
Other   |            | 3.343      |            |       |  0.23

Nlocal:    19652 ave 19652 max 19652 min
Histogram: 1 0 0 0 0 0 0 0 0 0
Nghost:    21021 ave 21021 max 21021 min
Histogram: 1 0 0 0 0 0 0 0 0 0
Neighs:    2.05427e+06 ave 2.05427e+06 max 2.05427e+06 min
Histogram: 1 0 0 0 0 0 0 0 0 0

Total # of neighbors = 2054266
Ave neighs/atom = 104.532
Neighbor list builds = 6172
Dangerous builds not checked
Total wall time: 18:27:26
