LAMMPS (12 Dec 2018)
Lattice spacing in x,y,z = 4 4 4
Created orthogonal box = (0 0 0) to (68 68 68)
  1 by 1 by 1 MPI processor grid
Created 19652 atoms
  Time spent = 0.00253701 secs
Setting atom values ...
  19281 settings made for type/fraction
Neighbor list info ...
  update every 1 steps, delay 0 steps, check no
  max neighbors/atom: 2000, page size: 100000
  master list distance cutoff = 8.5
  ghost atom cutoff = 8.5
  binsize = 4.25, bins = 16 16 16
  1 neighbor lists, perpetual/occasional/extra = 1 0 0
  (1) pair eam/alloy, perpetual
      attributes: half, newton on
      pair build: half/bin/atomonly/newton
      stencil: half/bin/3d/newton
      bin: standard
Setting up Verlet run ...
  Unit style    : metal
  Current step  : 0
  Time step     : 0.001
Per MPI rank memory allocation (min/avg/max) = 18.19 | 18.19 | 18.19 Mbytes
Step Temp Press TotEng PotEng Enthalpy 
       0          300    29666.511   -65241.477   -66003.504   -59419.334 
    1000    175.07166     36499.32   -65241.347   -65686.045   -58078.245 
Loop time of 196.881 on 1 procs for 1000 steps with 19652 atoms

Performance: 0.439 ns/day, 54.689 hours/ns, 5.079 timesteps/s
99.8% CPU use with 1 MPI tasks x no OpenMP threads

MPI task timing breakdown:
Section |  min time  |  avg time  |  max time  |%varavg| %total
---------------------------------------------------------------
Pair    | 120.77     | 120.77     | 120.77     |   0.0 | 61.34
Neigh   | 72.51      | 72.51      | 72.51      |   0.0 | 36.83
Comm    | 2.1536     | 2.1536     | 2.1536     |   0.0 |  1.09
Output  | 0.00062394 | 0.00062394 | 0.00062394 |   0.0 |  0.00
Modify  | 0.88054    | 0.88054    | 0.88054    |   0.0 |  0.45
Other   |            | 0.5611     |            |       |  0.28

Nlocal:    19652 ave 19652 max 19652 min
Histogram: 1 0 0 0 0 0 0 0 0 0
Nghost:    20102 ave 20102 max 20102 min
Histogram: 1 0 0 0 0 0 0 0 0 0
Neighs:    1.56795e+06 ave 1.56795e+06 max 1.56795e+06 min
Histogram: 1 0 0 0 0 0 0 0 0 0

Total # of neighbors = 1567947
Ave neighs/atom = 79.7856
Neighbor list builds = 1000
Dangerous builds not checked
Setting up Verlet run ...
  Unit style    : metal
  Current step  : 1000
  Time step     : 0.001
Per MPI rank memory allocation (min/avg/max) = 18.19 | 18.19 | 18.19 Mbytes
Step Temp Press TotEng PotEng Enthalpy 
    1000    175.07166     36499.32   -65241.347   -65686.045   -58078.245 
    2000    301.73838      184.829   -64630.853   -65397.296   -64592.611 
Loop time of 180.326 on 1 procs for 1000 steps with 19652 atoms

Performance: 0.479 ns/day, 50.090 hours/ns, 5.546 timesteps/s
99.7% CPU use with 1 MPI tasks x no OpenMP threads

MPI task timing breakdown:
Section |  min time  |  avg time  |  max time  |%varavg| %total
---------------------------------------------------------------
Pair    | 105.82     | 105.82     | 105.82     |   0.0 | 58.68
Neigh   | 70.358     | 70.358     | 70.358     |   0.0 | 39.02
Comm    | 1.6595     | 1.6595     | 1.6595     |   0.0 |  0.92
Output  | 0.062745   | 0.062745   | 0.062745   |   0.0 |  0.03
Modify  | 1.9204     | 1.9204     | 1.9204     |   0.0 |  1.06
Other   |            | 0.5019     |            |       |  0.28

Nlocal:    19652 ave 19652 max 19652 min
Histogram: 1 0 0 0 0 0 0 0 0 0
Nghost:    20085 ave 20085 max 20085 min
Histogram: 1 0 0 0 0 0 0 0 0 0
Neighs:    1.45056e+06 ave 1.45056e+06 max 1.45056e+06 min
Histogram: 1 0 0 0 0 0 0 0 0 0

Total # of neighbors = 1450556
Ave neighs/atom = 73.8121
Neighbor list builds = 1000
Dangerous builds not checked
Setting up Verlet run ...
  Unit style    : metal
  Current step  : 2000
  Time step     : 0.001
Per MPI rank memory allocation (min/avg/max) = 18.19 | 18.19 | 18.19 Mbytes
Step Temp Press TotEng PotEng Enthalpy 
    2000    301.73838      184.829   -64630.853   -65397.296   -64592.611 
    4000    795.87687    -132.5063   -61904.158   -63925.758   -61932.766 
    6000    1357.9429    109.69404   -57328.232   -60777.531    -57301.58 
    8000    1926.4034    301.78633   -54110.019   -59003.259   -54031.983 
   10000    2447.2585   -915.61095   -51184.762   -57401.022   -51436.928 
Loop time of 1453.85 on 1 procs for 8000 steps with 19652 atoms

Performance: 0.475 ns/day, 50.481 hours/ns, 5.503 timesteps/s
99.7% CPU use with 1 MPI tasks x no OpenMP threads

MPI task timing breakdown:
Section |  min time  |  avg time  |  max time  |%varavg| %total
---------------------------------------------------------------
Pair    | 830.9      | 830.9      | 830.9      |   0.0 | 57.15
Neigh   | 592.14     | 592.14     | 592.14     |   0.0 | 40.73
Comm    | 12.024     | 12.024     | 12.024     |   0.0 |  0.83
Output  | 0.2633     | 0.2633     | 0.2633     |   0.0 |  0.02
Modify  | 14.614     | 14.614     | 14.614     |   0.0 |  1.01
Other   |            | 3.916      |            |       |  0.27

Nlocal:    19652 ave 19652 max 19652 min
Histogram: 1 0 0 0 0 0 0 0 0 0
Nghost:    16308 ave 16308 max 16308 min
Histogram: 1 0 0 0 0 0 0 0 0 0
Neighs:    1.11693e+06 ave 1.11693e+06 max 1.11693e+06 min
Histogram: 1 0 0 0 0 0 0 0 0 0

Total # of neighbors = 1116932
Ave neighs/atom = 56.8355
Neighbor list builds = 8000
Dangerous builds not checked
Setting up Verlet run ...
  Unit style    : metal
  Current step  : 10000
  Time step     : 0.001
Per MPI rank memory allocation (min/avg/max) = 18.19 | 18.19 | 18.19 Mbytes
Step Temp Press TotEng PotEng Enthalpy 
   10000    2447.2585   -915.61095   -51184.762   -57401.022   -51436.928 
   12000    2447.5961    987.74397     -51186.5   -57403.617   -50915.662 
   14000     2451.587    108.75955   -51158.804   -57386.059   -51128.869 
   16000    2452.5629   -857.84664   -51104.981   -57334.714   -51341.776 
   18000    2446.5833    -989.8948   -51083.401   -57297.945   -51357.343 
   20000     2442.985    61.969332   -51098.608   -57304.012    -51081.51 
   22000    2479.2096    128.13191    -51032.99   -57330.409   -50997.672 
   24000     2475.229    354.56124   -51093.368   -57380.675   -50995.719 
   26000    2461.5019    326.12049   -51114.354   -57366.793   -51024.621 
   28000    2455.9905    781.63164   -51106.769   -57345.208   -50891.951 
   30000    2455.3142   -922.86141   -51021.919   -57258.641   -51277.578 
   32000    2440.9794   -249.05724   -51058.291   -57258.601   -51127.269 
   34000    2446.0082   -92.101933   -51248.704   -57461.787   -51274.011 
   36000    2468.1073    247.67846   -51163.398   -57432.616   -51095.335 
   38000    2445.6717    371.60083   -51150.373   -57362.602    -51047.96 
   40000     2468.265   -627.44325   -50992.907   -57262.524   -51166.665 
Loop time of 5550.62 on 1 procs for 30000 steps with 19652 atoms

Performance: 0.467 ns/day, 51.395 hours/ns, 5.405 timesteps/s
94.9% CPU use with 1 MPI tasks x no OpenMP threads

MPI task timing breakdown:
Section |  min time  |  avg time  |  max time  |%varavg| %total
---------------------------------------------------------------
Pair    | 3091.2     | 3091.2     | 3091.2     |   0.0 | 55.69
Neigh   | 2342.5     | 2342.5     | 2342.5     |   0.0 | 42.20
Comm    | 43.949     | 43.949     | 43.949     |   0.0 |  0.79
Output  | 2.1998     | 2.1998     | 2.1998     |   0.0 |  0.04
Modify  | 56.33      | 56.33      | 56.33      |   0.0 |  1.01
Other   |            | 14.44      |            |       |  0.26

Nlocal:    19652 ave 19652 max 19652 min
Histogram: 1 0 0 0 0 0 0 0 0 0
Nghost:    16313 ave 16313 max 16313 min
Histogram: 1 0 0 0 0 0 0 0 0 0
Neighs:    1.11052e+06 ave 1.11052e+06 max 1.11052e+06 min
Histogram: 1 0 0 0 0 0 0 0 0 0

Total # of neighbors = 1110525
Ave neighs/atom = 56.5095
Neighbor list builds = 30000
Dangerous builds not checked
Setting up Verlet run ...
  Unit style    : metal
  Current step  : 40000
  Time step     : 0.001
Per MPI rank memory allocation (min/avg/max) = 18.19 | 18.19 | 18.19 Mbytes
Step Temp Press TotEng PotEng Enthalpy 
   40000     2468.265   -627.44325   -50992.907   -57262.524   -51166.665 
   40495    2419.3084    883.21661   -51321.948   -57467.211    -51080.03 
Loop time of 80.6172 on 1 procs for 495 steps with 19652 atoms

Performance: 0.531 ns/day, 45.240 hours/ns, 6.140 timesteps/s
98.7% CPU use with 1 MPI tasks x no OpenMP threads

MPI task timing breakdown:
Section |  min time  |  avg time  |  max time  |%varavg| %total
---------------------------------------------------------------
Pair    | 43.953     | 43.953     | 43.953     |   0.0 | 54.52
Neigh   | 34.975     | 34.975     | 34.975     |   0.0 | 43.38
Comm    | 0.623      | 0.623      | 0.623      |   0.0 |  0.77
Output  | 0.00027704 | 0.00027704 | 0.00027704 |   0.0 |  0.00
Modify  | 0.83937    | 0.83937    | 0.83937    |   0.0 |  1.04
Other   |            | 0.2268     |            |       |  0.28

Nlocal:    19652 ave 19652 max 19652 min
Histogram: 1 0 0 0 0 0 0 0 0 0
Nghost:    16448 ave 16448 max 16448 min
Histogram: 1 0 0 0 0 0 0 0 0 0
Neighs:    1.12253e+06 ave 1.12253e+06 max 1.12253e+06 min
Histogram: 1 0 0 0 0 0 0 0 0 0

Total # of neighbors = 1122529
Ave neighs/atom = 57.1203
Neighbor list builds = 495
Dangerous builds not checked
Setting up Verlet run ...
  Unit style    : metal
  Current step  : 40495
  Time step     : 0.001
Per MPI rank memory allocation (min/avg/max) = 18.19 | 18.19 | 18.19 Mbytes
Step Temp Press TotEng PotEng Enthalpy 
   40495    2419.3084    883.21661   -51321.948   -57467.211    -51080.03 
   42000    2422.1754     -191.898   -51303.293   -57455.839   -51356.016 
Loop time of 275.28 on 1 procs for 1505 steps with 19652 atoms

Performance: 0.472 ns/day, 50.808 hours/ns, 5.467 timesteps/s
96.4% CPU use with 1 MPI tasks x no OpenMP threads

MPI task timing breakdown:
Section |  min time  |  avg time  |  max time  |%varavg| %total
---------------------------------------------------------------
Pair    | 153.18     | 153.18     | 153.18     |   0.0 | 55.65
Neigh   | 116.07     | 116.07     | 116.07     |   0.0 | 42.17
Comm    | 2.2874     | 2.2874     | 2.2874     |   0.0 |  0.83
Output  | 0.069791   | 0.069791   | 0.069791   |   0.0 |  0.03
Modify  | 2.9384     | 2.9384     | 2.9384     |   0.0 |  1.07
Other   |            | 0.7253     |            |       |  0.26

Nlocal:    19652 ave 19652 max 19652 min
Histogram: 1 0 0 0 0 0 0 0 0 0
Nghost:    16331 ave 16331 max 16331 min
Histogram: 1 0 0 0 0 0 0 0 0 0
Neighs:    1.11891e+06 ave 1.11891e+06 max 1.11891e+06 min
Histogram: 1 0 0 0 0 0 0 0 0 0

Total # of neighbors = 1118911
Ave neighs/atom = 56.9362
Neighbor list builds = 1505
Dangerous builds not checked
Setting up Verlet run ...
  Unit style    : metal
  Current step  : 42000
  Time step     : 0.001
Per MPI rank memory allocation (min/avg/max) = 18.19 | 18.19 | 18.19 Mbytes
Step Temp Press TotEng PotEng Enthalpy 
   42000    2422.1754     -191.898   -51303.293   -57455.839   -51356.016 
   42495    2383.5994    40.337364   -51588.729   -57643.288   -51577.732 
Loop time of 84.6564 on 1 procs for 495 steps with 19652 atoms

Performance: 0.505 ns/day, 47.506 hours/ns, 5.847 timesteps/s
94.8% CPU use with 1 MPI tasks x no OpenMP threads

MPI task timing breakdown:
Section |  min time  |  avg time  |  max time  |%varavg| %total
---------------------------------------------------------------
Pair    | 46.144     | 46.144     | 46.144     |   0.0 | 54.51
Neigh   | 36.748     | 36.748     | 36.748     |   0.0 | 43.41
Comm    | 0.66905    | 0.66905    | 0.66905    |   0.0 |  0.79
Output  | 0.00025702 | 0.00025702 | 0.00025702 |   0.0 |  0.00
Modify  | 0.86774    | 0.86774    | 0.86774    |   0.0 |  1.03
Other   |            | 0.2271     |            |       |  0.27

Nlocal:    19652 ave 19652 max 19652 min
Histogram: 1 0 0 0 0 0 0 0 0 0
Nghost:    16403 ave 16403 max 16403 min
Histogram: 1 0 0 0 0 0 0 0 0 0
Neighs:    1.12748e+06 ave 1.12748e+06 max 1.12748e+06 min
Histogram: 1 0 0 0 0 0 0 0 0 0

Total # of neighbors = 1127477
Ave neighs/atom = 57.3721
Neighbor list builds = 495
Dangerous builds not checked
Setting up Verlet run ...
  Unit style    : metal
  Current step  : 42495
  Time step     : 0.001
Per MPI rank memory allocation (min/avg/max) = 18.19 | 18.19 | 18.19 Mbytes
Step Temp Press TotEng PotEng Enthalpy 
   42495    2383.5994    40.337364   -51588.729   -57643.288   -51577.732 
   44000    2345.6191   -403.90549   -51660.234    -57618.32   -51770.429 
Loop time of 265.757 on 1 procs for 1505 steps with 19652 atoms

Performance: 0.489 ns/day, 49.051 hours/ns, 5.663 timesteps/s
98.7% CPU use with 1 MPI tasks x no OpenMP threads

MPI task timing breakdown:
Section |  min time  |  avg time  |  max time  |%varavg| %total
---------------------------------------------------------------
Pair    | 147.42     | 147.42     | 147.42     |   0.0 | 55.47
Neigh   | 112.69     | 112.69     | 112.69     |   0.0 | 42.40
Comm    | 2.1057     | 2.1057     | 2.1057     |   0.0 |  0.79
Output  | 0.072633   | 0.072633   | 0.072633   |   0.0 |  0.03
Modify  | 2.748      | 2.748      | 2.748      |   0.0 |  1.03
Other   |            | 0.7257     |            |       |  0.27

Nlocal:    19652 ave 19652 max 19652 min
Histogram: 1 0 0 0 0 0 0 0 0 0
Nghost:    16372 ave 16372 max 16372 min
Histogram: 1 0 0 0 0 0 0 0 0 0
Neighs:    1.12658e+06 ave 1.12658e+06 max 1.12658e+06 min
Histogram: 1 0 0 0 0 0 0 0 0 0

Total # of neighbors = 1126583
Ave neighs/atom = 57.3266
Neighbor list builds = 1505
Dangerous builds not checked
Setting up Verlet run ...
  Unit style    : metal
  Current step  : 44000
  Time step     : 0.001
Per MPI rank memory allocation (min/avg/max) = 18.19 | 18.19 | 18.19 Mbytes
Step Temp Press TotEng PotEng Enthalpy 
   44000    2345.6191   -403.90549   -51660.234    -57618.32   -51770.429 
   44495    2300.0375    770.44345   -51896.183   -57738.488   -51687.658 
Loop time of 78.9211 on 1 procs for 495 steps with 19652 atoms

Performance: 0.542 ns/day, 44.288 hours/ns, 6.272 timesteps/s
98.7% CPU use with 1 MPI tasks x no OpenMP threads

MPI task timing breakdown:
Section |  min time  |  avg time  |  max time  |%varavg| %total
---------------------------------------------------------------
Pair    | 43.371     | 43.371     | 43.371     |   0.0 | 54.95
Neigh   | 33.847     | 33.847     | 33.847     |   0.0 | 42.89
Comm    | 0.64696    | 0.64696    | 0.64696    |   0.0 |  0.82
Output  | 0.00028014 | 0.00028014 | 0.00028014 |   0.0 |  0.00
Modify  | 0.8319     | 0.8319     | 0.8319     |   0.0 |  1.05
Other   |            | 0.2236     |            |       |  0.28

Nlocal:    19652 ave 19652 max 19652 min
Histogram: 1 0 0 0 0 0 0 0 0 0
Nghost:    16423 ave 16423 max 16423 min
Histogram: 1 0 0 0 0 0 0 0 0 0
Neighs:    1.13667e+06 ave 1.13667e+06 max 1.13667e+06 min
Histogram: 1 0 0 0 0 0 0 0 0 0

Total # of neighbors = 1136671
Ave neighs/atom = 57.84
Neighbor list builds = 495
Dangerous builds not checked
Setting up Verlet run ...
  Unit style    : metal
  Current step  : 44495
  Time step     : 0.001
Per MPI rank memory allocation (min/avg/max) = 18.19 | 18.19 | 18.19 Mbytes
Step Temp Press TotEng PotEng Enthalpy 
   44495    2300.0375    770.44345   -51896.183   -57738.488   -51687.658 
   46000     2315.961     -1216.23   -51862.267   -57745.019   -52192.719 
Loop time of 244.741 on 1 procs for 1505 steps with 19652 atoms

Performance: 0.531 ns/day, 45.172 hours/ns, 6.149 timesteps/s
99.7% CPU use with 1 MPI tasks x no OpenMP threads

MPI task timing breakdown:
Section |  min time  |  avg time  |  max time  |%varavg| %total
---------------------------------------------------------------
Pair    | 134.81     | 134.81     | 134.81     |   0.0 | 55.08
Neigh   | 104.7      | 104.7      | 104.7      |   0.0 | 42.78
Comm    | 1.9548     | 1.9548     | 1.9548     |   0.0 |  0.80
Output  | 0.11521    | 0.11521    | 0.11521    |   0.0 |  0.05
Modify  | 2.5048     | 2.5048     | 2.5048     |   0.0 |  1.02
Other   |            | 0.6598     |            |       |  0.27

Nlocal:    19652 ave 19652 max 19652 min
Histogram: 1 0 0 0 0 0 0 0 0 0
Nghost:    16429 ave 16429 max 16429 min
Histogram: 1 0 0 0 0 0 0 0 0 0
Neighs:    1.1319e+06 ave 1.1319e+06 max 1.1319e+06 min
Histogram: 1 0 0 0 0 0 0 0 0 0

Total # of neighbors = 1131902
Ave neighs/atom = 57.5973
Neighbor list builds = 1505
Dangerous builds not checked
Setting up Verlet run ...
  Unit style    : metal
  Current step  : 46000
  Time step     : 0.001
Per MPI rank memory allocation (min/avg/max) = 18.19 | 18.19 | 18.19 Mbytes
Step Temp Press TotEng PotEng Enthalpy 
   46000     2315.961     -1216.23   -51862.267   -57745.019   -52192.719 
   46495     2246.734    694.48566   -52153.235   -57860.144   -51966.083 
Loop time of 76.5951 on 1 procs for 495 steps with 19652 atoms

Performance: 0.558 ns/day, 42.983 hours/ns, 6.463 timesteps/s
99.6% CPU use with 1 MPI tasks x no OpenMP threads

MPI task timing breakdown:
Section |  min time  |  avg time  |  max time  |%varavg| %total
---------------------------------------------------------------
Pair    | 41.782     | 41.782     | 41.782     |   0.0 | 54.55
Neigh   | 33.156     | 33.156     | 33.156     |   0.0 | 43.29
Comm    | 0.62412    | 0.62412    | 0.62412    |   0.0 |  0.81
Output  | 0.000283   | 0.000283   | 0.000283   |   0.0 |  0.00
Modify  | 0.81985    | 0.81985    | 0.81985    |   0.0 |  1.07
Other   |            | 0.213      |            |       |  0.28

Nlocal:    19652 ave 19652 max 19652 min
Histogram: 1 0 0 0 0 0 0 0 0 0
Nghost:    16537 ave 16537 max 16537 min
Histogram: 1 0 0 0 0 0 0 0 0 0
Neighs:    1.14139e+06 ave 1.14139e+06 max 1.14139e+06 min
Histogram: 1 0 0 0 0 0 0 0 0 0

Total # of neighbors = 1141386
Ave neighs/atom = 58.0799
Neighbor list builds = 495
Dangerous builds not checked
Setting up Verlet run ...
  Unit style    : metal
  Current step  : 46495
  Time step     : 0.001
Per MPI rank memory allocation (min/avg/max) = 18.19 | 18.19 | 18.19 Mbytes
Step Temp Press TotEng PotEng Enthalpy 
   46495     2246.734    694.48566   -52153.235   -57860.144   -51966.083 
   48000    2252.6373   -364.77457   -52218.727    -57940.63   -52317.125 
Loop time of 221.646 on 1 procs for 1505 steps with 19652 atoms

Performance: 0.587 ns/day, 40.909 hours/ns, 6.790 timesteps/s
99.8% CPU use with 1 MPI tasks x no OpenMP threads

MPI task timing breakdown:
Section |  min time  |  avg time  |  max time  |%varavg| %total
---------------------------------------------------------------
Pair    | 121.08     | 121.08     | 121.08     |   0.0 | 54.63
Neigh   | 95.498     | 95.498     | 95.498     |   0.0 | 43.09
Comm    | 1.7588     | 1.7588     | 1.7588     |   0.0 |  0.79
Output  | 0.47519    | 0.47519    | 0.47519    |   0.0 |  0.21
Modify  | 2.2419     | 2.2419     | 2.2419     |   0.0 |  1.01
Other   |            | 0.5962     |            |       |  0.27

Nlocal:    19652 ave 19652 max 19652 min
Histogram: 1 0 0 0 0 0 0 0 0 0
Nghost:    16447 ave 16447 max 16447 min
Histogram: 1 0 0 0 0 0 0 0 0 0
Neighs:    1.1398e+06 ave 1.1398e+06 max 1.1398e+06 min
Histogram: 1 0 0 0 0 0 0 0 0 0

Total # of neighbors = 1139801
Ave neighs/atom = 57.9992
Neighbor list builds = 1505
Dangerous builds not checked
Setting up Verlet run ...
  Unit style    : metal
  Current step  : 48000
  Time step     : 0.001
Per MPI rank memory allocation (min/avg/max) = 18.19 | 18.19 | 18.19 Mbytes
Step Temp Press TotEng PotEng Enthalpy 
   48000    2252.6373   -364.77457   -52218.727    -57940.63   -52317.125 
   48495    2204.7402    602.63841   -52438.845   -58039.086   -52277.577 
Loop time of 69.9076 on 1 procs for 495 steps with 19652 atoms

Performance: 0.612 ns/day, 39.230 hours/ns, 7.081 timesteps/s
99.6% CPU use with 1 MPI tasks x no OpenMP threads

MPI task timing breakdown:
Section |  min time  |  avg time  |  max time  |%varavg| %total
---------------------------------------------------------------
Pair    | 37.875     | 37.875     | 37.875     |   0.0 | 54.18
Neigh   | 30.55      | 30.55      | 30.55      |   0.0 | 43.70
Comm    | 0.56338    | 0.56338    | 0.56338    |   0.0 |  0.81
Output  | 0.00026011 | 0.00026011 | 0.00026011 |   0.0 |  0.00
Modify  | 0.72471    | 0.72471    | 0.72471    |   0.0 |  1.04
Other   |            | 0.1947     |            |       |  0.28

Nlocal:    19652 ave 19652 max 19652 min
Histogram: 1 0 0 0 0 0 0 0 0 0
Nghost:    16487 ave 16487 max 16487 min
Histogram: 1 0 0 0 0 0 0 0 0 0
Neighs:    1.1493e+06 ave 1.1493e+06 max 1.1493e+06 min
Histogram: 1 0 0 0 0 0 0 0 0 0

Total # of neighbors = 1149305
Ave neighs/atom = 58.4829
Neighbor list builds = 495
Dangerous builds not checked
Setting up Verlet run ...
  Unit style    : metal
  Current step  : 48495
  Time step     : 0.001
Per MPI rank memory allocation (min/avg/max) = 18.19 | 18.19 | 18.19 Mbytes
Step Temp Press TotEng PotEng Enthalpy 
   48495    2204.7402    602.63841   -52438.845   -58039.086   -52277.577 
   50000    2191.6459    -212.6328   -52463.927   -58030.907   -52520.958 
Loop time of 225.186 on 1 procs for 1505 steps with 19652 atoms

Performance: 0.577 ns/day, 41.563 hours/ns, 6.683 timesteps/s
99.9% CPU use with 1 MPI tasks x no OpenMP threads

MPI task timing breakdown:
Section |  min time  |  avg time  |  max time  |%varavg| %total
---------------------------------------------------------------
Pair    | 122.96     | 122.96     | 122.96     |   0.0 | 54.60
Neigh   | 97.488     | 97.488     | 97.488     |   0.0 | 43.29
Comm    | 1.792      | 1.792      | 1.792      |   0.0 |  0.80
Output  | 0.058712   | 0.058712   | 0.058712   |   0.0 |  0.03
Modify  | 2.2846     | 2.2846     | 2.2846     |   0.0 |  1.01
Other   |            | 0.6039     |            |       |  0.27

Nlocal:    19652 ave 19652 max 19652 min
Histogram: 1 0 0 0 0 0 0 0 0 0
Nghost:    16395 ave 16395 max 16395 min
Histogram: 1 0 0 0 0 0 0 0 0 0
Neighs:    1.14689e+06 ave 1.14689e+06 max 1.14689e+06 min
Histogram: 1 0 0 0 0 0 0 0 0 0

Total # of neighbors = 1146890
Ave neighs/atom = 58.36
Neighbor list builds = 1505
Dangerous builds not checked
Setting up Verlet run ...
  Unit style    : metal
  Current step  : 50000
  Time step     : 0.001
Per MPI rank memory allocation (min/avg/max) = 18.19 | 18.19 | 18.19 Mbytes
Step Temp Press TotEng PotEng Enthalpy 
   50000    2191.6459    -212.6328   -52463.927   -58030.907   -52520.958 
   50495    2157.4672    468.99536   -52713.003   -58193.166   -52588.031 
Loop time of 71.7258 on 1 procs for 495 steps with 19652 atoms

Performance: 0.596 ns/day, 40.250 hours/ns, 6.901 timesteps/s
99.8% CPU use with 1 MPI tasks x no OpenMP threads

MPI task timing breakdown:
Section |  min time  |  avg time  |  max time  |%varavg| %total
---------------------------------------------------------------
Pair    | 38.859     | 38.859     | 38.859     |   0.0 | 54.18
Neigh   | 31.362     | 31.362     | 31.362     |   0.0 | 43.73
Comm    | 0.56365    | 0.56365    | 0.56365    |   0.0 |  0.79
Output  | 0.00022888 | 0.00022888 | 0.00022888 |   0.0 |  0.00
Modify  | 0.74209    | 0.74209    | 0.74209    |   0.0 |  1.03
Other   |            | 0.1981     |            |       |  0.28

Nlocal:    19652 ave 19652 max 19652 min
Histogram: 1 0 0 0 0 0 0 0 0 0
Nghost:    16531 ave 16531 max 16531 min
Histogram: 1 0 0 0 0 0 0 0 0 0
Neighs:    1.1543e+06 ave 1.1543e+06 max 1.1543e+06 min
Histogram: 1 0 0 0 0 0 0 0 0 0

Total # of neighbors = 1154296
Ave neighs/atom = 58.7368
Neighbor list builds = 495
Dangerous builds not checked
Setting up Verlet run ...
  Unit style    : metal
  Current step  : 50495
  Time step     : 0.001
Per MPI rank memory allocation (min/avg/max) = 18.19 | 18.19 | 18.19 Mbytes
Step Temp Press TotEng PotEng Enthalpy 
   50495    2157.4672    468.99536   -52713.003   -58193.166   -52588.031 
   52000    2167.7305    387.74294   -52747.529   -58253.762    -52644.39 
Loop time of 215.084 on 1 procs for 1505 steps with 19652 atoms

Performance: 0.605 ns/day, 39.698 hours/ns, 6.997 timesteps/s
99.9% CPU use with 1 MPI tasks x no OpenMP threads

MPI task timing breakdown:
Section |  min time  |  avg time  |  max time  |%varavg| %total
---------------------------------------------------------------
Pair    | 116.7      | 116.7      | 116.7      |   0.0 | 54.26
Neigh   | 93.911     | 93.911     | 93.911     |   0.0 | 43.66
Comm    | 1.67       | 1.67       | 1.67       |   0.0 |  0.78
Output  | 0.055802   | 0.055802   | 0.055802   |   0.0 |  0.03
Modify  | 2.1646     | 2.1646     | 2.1646     |   0.0 |  1.01
Other   |            | 0.5852     |            |       |  0.27

Nlocal:    19652 ave 19652 max 19652 min
Histogram: 1 0 0 0 0 0 0 0 0 0
Nghost:    16578 ave 16578 max 16578 min
Histogram: 1 0 0 0 0 0 0 0 0 0
Neighs:    1.15644e+06 ave 1.15644e+06 max 1.15644e+06 min
Histogram: 1 0 0 0 0 0 0 0 0 0

Total # of neighbors = 1156440
Ave neighs/atom = 58.8459
Neighbor list builds = 1505
Dangerous builds not checked
Setting up Verlet run ...
  Unit style    : metal
  Current step  : 52000
  Time step     : 0.001
Per MPI rank memory allocation (min/avg/max) = 18.19 | 18.19 | 18.19 Mbytes
Step Temp Press TotEng PotEng Enthalpy 
   52000    2167.7305    387.74294   -52747.529   -58253.762    -52644.39 
   52495    2114.9447     88.07693   -52977.638    -58349.79   -52954.292 
Loop time of 76.1724 on 1 procs for 495 steps with 19652 atoms

Performance: 0.561 ns/day, 42.745 hours/ns, 6.498 timesteps/s
99.9% CPU use with 1 MPI tasks x no OpenMP threads

MPI task timing breakdown:
Section |  min time  |  avg time  |  max time  |%varavg| %total
---------------------------------------------------------------
Pair    | 41.485     | 41.485     | 41.485     |   0.0 | 54.46
Neigh   | 33.083     | 33.083     | 33.083     |   0.0 | 43.43
Comm    | 0.59697    | 0.59697    | 0.59697    |   0.0 |  0.78
Output  | 0.00024295 | 0.00024295 | 0.00024295 |   0.0 |  0.00
Modify  | 0.79478    | 0.79478    | 0.79478    |   0.0 |  1.04
Other   |            | 0.212      |            |       |  0.28

Nlocal:    19652 ave 19652 max 19652 min
Histogram: 1 0 0 0 0 0 0 0 0 0
Nghost:    16549 ave 16549 max 16549 min
Histogram: 1 0 0 0 0 0 0 0 0 0
Neighs:    1.16006e+06 ave 1.16006e+06 max 1.16006e+06 min
Histogram: 1 0 0 0 0 0 0 0 0 0

Total # of neighbors = 1160062
Ave neighs/atom = 59.0302
Neighbor list builds = 495
Dangerous builds not checked
Setting up Verlet run ...
  Unit style    : metal
  Current step  : 52495
  Time step     : 0.001
Per MPI rank memory allocation (min/avg/max) = 18.19 | 18.19 | 18.19 Mbytes
Step Temp Press TotEng PotEng Enthalpy 
   52495    2114.9447     88.07693   -52977.638    -58349.79   -52954.292 
   54000    2119.4366    -166.9607   -53007.671   -58391.234   -53051.878 
Loop time of 228.837 on 1 procs for 1505 steps with 19652 atoms

Performance: 0.568 ns/day, 42.237 hours/ns, 6.577 timesteps/s
99.9% CPU use with 1 MPI tasks x no OpenMP threads

MPI task timing breakdown:
Section |  min time  |  avg time  |  max time  |%varavg| %total
---------------------------------------------------------------
Pair    | 125.61     | 125.61     | 125.61     |   0.0 | 54.89
Neigh   | 98.475     | 98.475     | 98.475     |   0.0 | 43.03
Comm    | 1.7796     | 1.7796     | 1.7796     |   0.0 |  0.78
Output  | 0.069049   | 0.069049   | 0.069049   |   0.0 |  0.03
Modify  | 2.2941     | 2.2941     | 2.2941     |   0.0 |  1.00
Other   |            | 0.6113     |            |       |  0.27

Nlocal:    19652 ave 19652 max 19652 min
Histogram: 1 0 0 0 0 0 0 0 0 0
Nghost:    16669 ave 16669 max 16669 min
Histogram: 1 0 0 0 0 0 0 0 0 0
Neighs:    1.16194e+06 ave 1.16194e+06 max 1.16194e+06 min
Histogram: 1 0 0 0 0 0 0 0 0 0

Total # of neighbors = 1161943
Ave neighs/atom = 59.1259
Neighbor list builds = 1505
Dangerous builds not checked
Setting up Verlet run ...
  Unit style    : metal
  Current step  : 54000
  Time step     : 0.001
Per MPI rank memory allocation (min/avg/max) = 18.19 | 18.19 | 18.19 Mbytes
Step Temp Press TotEng PotEng Enthalpy 
   54000    2119.4366    -166.9607   -53007.671   -58391.234   -53051.878 
   54495    2066.3458   -457.45686   -53255.754    -58504.46   -53376.557 
Loop time of 66.7761 on 1 procs for 495 steps with 19652 atoms

Performance: 0.640 ns/day, 37.473 hours/ns, 7.413 timesteps/s
100.0% CPU use with 1 MPI tasks x no OpenMP threads

MPI task timing breakdown:
Section |  min time  |  avg time  |  max time  |%varavg| %total
---------------------------------------------------------------
Pair    | 35.811     | 35.811     | 35.811     |   0.0 | 53.63
Neigh   | 29.564     | 29.564     | 29.564     |   0.0 | 44.27
Comm    | 0.51911    | 0.51911    | 0.51911    |   0.0 |  0.78
Output  | 0.00019002 | 0.00019002 | 0.00019002 |   0.0 |  0.00
Modify  | 0.68935    | 0.68935    | 0.68935    |   0.0 |  1.03
Other   |            | 0.1922     |            |       |  0.29

Nlocal:    19652 ave 19652 max 19652 min
Histogram: 1 0 0 0 0 0 0 0 0 0
Nghost:    16583 ave 16583 max 16583 min
Histogram: 1 0 0 0 0 0 0 0 0 0
Neighs:    1.16515e+06 ave 1.16515e+06 max 1.16515e+06 min
Histogram: 1 0 0 0 0 0 0 0 0 0

Total # of neighbors = 1165150
Ave neighs/atom = 59.2891
Neighbor list builds = 495
Dangerous builds not checked
Setting up Verlet run ...
  Unit style    : metal
  Current step  : 54495
  Time step     : 0.001
Per MPI rank memory allocation (min/avg/max) = 18.19 | 18.19 | 18.19 Mbytes
Step Temp Press TotEng PotEng Enthalpy 
   54495    2066.3458   -457.45686   -53255.754    -58504.46   -53376.557 
   56000    2057.6548   -50.319241   -53353.501   -58580.131   -53366.732 
Loop time of 224.666 on 1 procs for 1505 steps with 19652 atoms

Performance: 0.579 ns/day, 41.467 hours/ns, 6.699 timesteps/s
99.8% CPU use with 1 MPI tasks x no OpenMP threads

MPI task timing breakdown:
Section |  min time  |  avg time  |  max time  |%varavg| %total
---------------------------------------------------------------
Pair    | 123        | 123        | 123        |   0.0 | 54.75
Neigh   | 96.974     | 96.974     | 96.974     |   0.0 | 43.16
Comm    | 1.77       | 1.77       | 1.77       |   0.0 |  0.79
Output  | 0.065663   | 0.065663   | 0.065663   |   0.0 |  0.03
Modify  | 2.2534     | 2.2534     | 2.2534     |   0.0 |  1.00
Other   |            | 0.5999     |            |       |  0.27

Nlocal:    19652 ave 19652 max 19652 min
Histogram: 1 0 0 0 0 0 0 0 0 0
Nghost:    16654 ave 16654 max 16654 min
Histogram: 1 0 0 0 0 0 0 0 0 0
Neighs:    1.16979e+06 ave 1.16979e+06 max 1.16979e+06 min
Histogram: 1 0 0 0 0 0 0 0 0 0

Total # of neighbors = 1169788
Ave neighs/atom = 59.5251
Neighbor list builds = 1505
Dangerous builds not checked
Setting up Verlet run ...
  Unit style    : metal
  Current step  : 56000
  Time step     : 0.001
Per MPI rank memory allocation (min/avg/max) = 18.19 | 18.19 | 18.19 Mbytes
Step Temp Press TotEng PotEng Enthalpy 
   56000    2057.6548   -50.319241   -53353.501   -58580.131   -53366.732 
   56495    2007.7192    816.88609   -53541.189   -58640.979   -53327.276 
Loop time of 67.2033 on 1 procs for 495 steps with 19652 atoms

Performance: 0.636 ns/day, 37.712 hours/ns, 7.366 timesteps/s
100.0% CPU use with 1 MPI tasks x no OpenMP threads

MPI task timing breakdown:
Section |  min time  |  avg time  |  max time  |%varavg| %total
---------------------------------------------------------------
Pair    | 36.285     | 36.285     | 36.285     |   0.0 | 53.99
Neigh   | 29.536     | 29.536     | 29.536     |   0.0 | 43.95
Comm    | 0.51962    | 0.51962    | 0.51962    |   0.0 |  0.77
Output  | 0.00026298 | 0.00026298 | 0.00026298 |   0.0 |  0.00
Modify  | 0.67744    | 0.67744    | 0.67744    |   0.0 |  1.01
Other   |            | 0.1853     |            |       |  0.28

Nlocal:    19652 ave 19652 max 19652 min
Histogram: 1 0 0 0 0 0 0 0 0 0
Nghost:    16725 ave 16725 max 16725 min
Histogram: 1 0 0 0 0 0 0 0 0 0
Neighs:    1.17489e+06 ave 1.17489e+06 max 1.17489e+06 min
Histogram: 1 0 0 0 0 0 0 0 0 0

Total # of neighbors = 1174892
Ave neighs/atom = 59.7849
Neighbor list builds = 495
Dangerous builds not checked
Setting up Verlet run ...
  Unit style    : metal
  Current step  : 56495
  Time step     : 0.001
Per MPI rank memory allocation (min/avg/max) = 18.19 | 18.19 | 18.19 Mbytes
Step Temp Press TotEng PotEng Enthalpy 
   56495    2007.7192    816.88609   -53541.189   -58640.979   -53327.276 
   58000    2005.3082    1115.8244   -53695.362   -58789.027   -53405.003 
Loop time of 216.819 on 1 procs for 1505 steps with 19652 atoms

Performance: 0.600 ns/day, 40.018 hours/ns, 6.941 timesteps/s
99.9% CPU use with 1 MPI tasks x no OpenMP threads

MPI task timing breakdown:
Section |  min time  |  avg time  |  max time  |%varavg| %total
---------------------------------------------------------------
Pair    | 118.59     | 118.59     | 118.59     |   0.0 | 54.70
Neigh   | 93.792     | 93.792     | 93.792     |   0.0 | 43.26
Comm    | 1.6647     | 1.6647     | 1.6647     |   0.0 |  0.77
Output  | 0.063278   | 0.063278   | 0.063278   |   0.0 |  0.03
Modify  | 2.1305     | 2.1305     | 2.1305     |   0.0 |  0.98
Other   |            | 0.5761     |            |       |  0.27

Nlocal:    19652 ave 19652 max 19652 min
Histogram: 1 0 0 0 0 0 0 0 0 0
Nghost:    16725 ave 16725 max 16725 min
Histogram: 1 0 0 0 0 0 0 0 0 0
Neighs:    1.18233e+06 ave 1.18233e+06 max 1.18233e+06 min
Histogram: 1 0 0 0 0 0 0 0 0 0

Total # of neighbors = 1182334
Ave neighs/atom = 60.1635
Neighbor list builds = 1505
Dangerous builds not checked
Setting up Verlet run ...
  Unit style    : metal
  Current step  : 58000
  Time step     : 0.001
Per MPI rank memory allocation (min/avg/max) = 18.19 | 18.19 | 18.19 Mbytes
Step Temp Press TotEng PotEng Enthalpy 
   58000    2005.3082    1115.8244   -53695.362   -58789.027   -53405.003 
   58495    1978.9089    264.95243   -53734.302   -58760.911   -53665.212 
Loop time of 72.0944 on 1 procs for 495 steps with 19652 atoms

Performance: 0.593 ns/day, 40.457 hours/ns, 6.866 timesteps/s
100.0% CPU use with 1 MPI tasks x no OpenMP threads

MPI task timing breakdown:
Section |  min time  |  avg time  |  max time  |%varavg| %total
---------------------------------------------------------------
Pair    | 39.448     | 39.448     | 39.448     |   0.0 | 54.72
Neigh   | 31.12      | 31.12      | 31.12      |   0.0 | 43.17
Comm    | 0.57457    | 0.57457    | 0.57457    |   0.0 |  0.80
Output  | 0.00025201 | 0.00025201 | 0.00025201 |   0.0 |  0.00
Modify  | 0.75084    | 0.75084    | 0.75084    |   0.0 |  1.04
Other   |            | 0.2008     |            |       |  0.28

Nlocal:    19652 ave 19652 max 19652 min
Histogram: 1 0 0 0 0 0 0 0 0 0
Nghost:    16678 ave 16678 max 16678 min
Histogram: 1 0 0 0 0 0 0 0 0 0
Neighs:    1.17941e+06 ave 1.17941e+06 max 1.17941e+06 min
Histogram: 1 0 0 0 0 0 0 0 0 0

Total # of neighbors = 1179413
Ave neighs/atom = 60.0149
Neighbor list builds = 495
Dangerous builds not checked
Setting up Verlet run ...
  Unit style    : metal
  Current step  : 58495
  Time step     : 0.001
Per MPI rank memory allocation (min/avg/max) = 18.19 | 18.19 | 18.19 Mbytes
Step Temp Press TotEng PotEng Enthalpy 
   58495    1978.9089    264.95243   -53734.302   -58760.911   -53665.212 
   60000    1961.3194    105.99949   -53904.882   -58886.811   -53877.341 
Loop time of 224.474 on 1 procs for 1505 steps with 19652 atoms

Performance: 0.579 ns/day, 41.431 hours/ns, 6.705 timesteps/s
99.6% CPU use with 1 MPI tasks x no OpenMP threads

MPI task timing breakdown:
Section |  min time  |  avg time  |  max time  |%varavg| %total
---------------------------------------------------------------
Pair    | 122.72     | 122.72     | 122.72     |   0.0 | 54.67
Neigh   | 97.069     | 97.069     | 97.069     |   0.0 | 43.24
Comm    | 1.7627     | 1.7627     | 1.7627     |   0.0 |  0.79
Output  | 0.044605   | 0.044605   | 0.044605   |   0.0 |  0.02
Modify  | 2.2671     | 2.2671     | 2.2671     |   0.0 |  1.01
Other   |            | 0.6066     |            |       |  0.27

Nlocal:    19652 ave 19652 max 19652 min
Histogram: 1 0 0 0 0 0 0 0 0 0
Nghost:    16729 ave 16729 max 16729 min
Histogram: 1 0 0 0 0 0 0 0 0 0
Neighs:    1.18474e+06 ave 1.18474e+06 max 1.18474e+06 min
Histogram: 1 0 0 0 0 0 0 0 0 0

Total # of neighbors = 1184745
Ave neighs/atom = 60.2862
Neighbor list builds = 1505
Dangerous builds not checked
Setting up Verlet run ...
  Unit style    : metal
  Current step  : 60000
  Time step     : 0.001
Per MPI rank memory allocation (min/avg/max) = 18.19 | 18.19 | 18.19 Mbytes
Step Temp Press TotEng PotEng Enthalpy 
   60000    1961.3194    105.99949   -53904.882   -58886.811   -53877.341 
   60495    1926.8103   -139.43297    -54033.23   -58927.504    -54069.44 
Loop time of 73.5656 on 1 procs for 495 steps with 19652 atoms

Performance: 0.581 ns/day, 41.283 hours/ns, 6.729 timesteps/s
99.9% CPU use with 1 MPI tasks x no OpenMP threads

MPI task timing breakdown:
Section |  min time  |  avg time  |  max time  |%varavg| %total
---------------------------------------------------------------
Pair    | 40.257     | 40.257     | 40.257     |   0.0 | 54.72
Neigh   | 31.753     | 31.753     | 31.753     |   0.0 | 43.16
Comm    | 0.58396    | 0.58396    | 0.58396    |   0.0 |  0.79
Output  | 0.00022316 | 0.00022316 | 0.00022316 |   0.0 |  0.00
Modify  | 0.76689    | 0.76689    | 0.76689    |   0.0 |  1.04
Other   |            | 0.2045     |            |       |  0.28

Nlocal:    19652 ave 19652 max 19652 min
Histogram: 1 0 0 0 0 0 0 0 0 0
Nghost:    16752 ave 16752 max 16752 min
Histogram: 1 0 0 0 0 0 0 0 0 0
Neighs:    1.18502e+06 ave 1.18502e+06 max 1.18502e+06 min
Histogram: 1 0 0 0 0 0 0 0 0 0

Total # of neighbors = 1185018
Ave neighs/atom = 60.3001
Neighbor list builds = 495
Dangerous builds not checked
Setting up Verlet run ...
  Unit style    : metal
  Current step  : 60495
  Time step     : 0.001
Per MPI rank memory allocation (min/avg/max) = 18.19 | 18.19 | 18.19 Mbytes
Step Temp Press TotEng PotEng Enthalpy 
   60495    1926.8103   -139.43297    -54033.23   -58927.504    -54069.44 
   62000    1887.7802   -760.00216   -54169.278   -58964.412   -54366.475 
Loop time of 237.492 on 1 procs for 1505 steps with 19652 atoms

Performance: 0.548 ns/day, 43.834 hours/ns, 6.337 timesteps/s
99.9% CPU use with 1 MPI tasks x no OpenMP threads

MPI task timing breakdown:
Section |  min time  |  avg time  |  max time  |%varavg| %total
---------------------------------------------------------------
Pair    | 131.18     | 131.18     | 131.18     |   0.0 | 55.23
Neigh   | 101.37     | 101.37     | 101.37     |   0.0 | 42.68
Comm    | 1.8577     | 1.8577     | 1.8577     |   0.0 |  0.78
Output  | 0.065437   | 0.065437   | 0.065437   |   0.0 |  0.03
Modify  | 2.3924     | 2.3924     | 2.3924     |   0.0 |  1.01
Other   |            | 0.6339     |            |       |  0.27

Nlocal:    19652 ave 19652 max 19652 min
Histogram: 1 0 0 0 0 0 0 0 0 0
Nghost:    16742 ave 16742 max 16742 min
Histogram: 1 0 0 0 0 0 0 0 0 0
Neighs:    1.18571e+06 ave 1.18571e+06 max 1.18571e+06 min
Histogram: 1 0 0 0 0 0 0 0 0 0

Total # of neighbors = 1185711
Ave neighs/atom = 60.3354
Neighbor list builds = 1505
Dangerous builds not checked
Setting up Verlet run ...
  Unit style    : metal
  Current step  : 62000
  Time step     : 0.001
Per MPI rank memory allocation (min/avg/max) = 18.19 | 18.19 | 18.19 Mbytes
Step Temp Press TotEng PotEng Enthalpy 
   62000    1887.7802   -760.00216   -54169.278   -58964.412   -54366.475 
   62495    1855.9659    -443.9419   -54372.636   -59086.959   -54487.218 
Loop time of 69.0013 on 1 procs for 495 steps with 19652 atoms

Performance: 0.620 ns/day, 38.721 hours/ns, 7.174 timesteps/s
99.7% CPU use with 1 MPI tasks x no OpenMP threads

MPI task timing breakdown:
Section |  min time  |  avg time  |  max time  |%varavg| %total
---------------------------------------------------------------
Pair    | 37.509     | 37.509     | 37.509     |   0.0 | 54.36
Neigh   | 30.056     | 30.056     | 30.056     |   0.0 | 43.56
Comm    | 0.54463    | 0.54463    | 0.54463    |   0.0 |  0.79
Output  | 0.00019407 | 0.00019407 | 0.00019407 |   0.0 |  0.00
Modify  | 0.70052    | 0.70052    | 0.70052    |   0.0 |  1.02
Other   |            | 0.1915     |            |       |  0.28

Nlocal:    19652 ave 19652 max 19652 min
Histogram: 1 0 0 0 0 0 0 0 0 0
Nghost:    16799 ave 16799 max 16799 min
Histogram: 1 0 0 0 0 0 0 0 0 0
Neighs:    1.19266e+06 ave 1.19266e+06 max 1.19266e+06 min
Histogram: 1 0 0 0 0 0 0 0 0 0

Total # of neighbors = 1192663
Ave neighs/atom = 60.6891
Neighbor list builds = 495
Dangerous builds not checked
Setting up Verlet run ...
  Unit style    : metal
  Current step  : 62495
  Time step     : 0.001
Per MPI rank memory allocation (min/avg/max) = 18.19 | 18.19 | 18.19 Mbytes
Step Temp Press TotEng PotEng Enthalpy 
   62495    1855.9659    -443.9419   -54372.636   -59086.959   -54487.218 
   64000    1843.3682    47.338994   -54480.906   -59163.229   -54468.742 
Loop time of 217.606 on 1 procs for 1505 steps with 19652 atoms

Performance: 0.598 ns/day, 40.164 hours/ns, 6.916 timesteps/s
99.9% CPU use with 1 MPI tasks x no OpenMP threads

MPI task timing breakdown:
Section |  min time  |  avg time  |  max time  |%varavg| %total
---------------------------------------------------------------
Pair    | 119.25     | 119.25     | 119.25     |   0.0 | 54.80
Neigh   | 93.859     | 93.859     | 93.859     |   0.0 | 43.13
Comm    | 1.6915     | 1.6915     | 1.6915     |   0.0 |  0.78
Output  | 0.054033   | 0.054033   | 0.054033   |   0.0 |  0.02
Modify  | 2.1639     | 2.1639     | 2.1639     |   0.0 |  0.99
Other   |            | 0.5866     |            |       |  0.27

Nlocal:    19652 ave 19652 max 19652 min
Histogram: 1 0 0 0 0 0 0 0 0 0
Nghost:    16790 ave 16790 max 16790 min
Histogram: 1 0 0 0 0 0 0 0 0 0
Neighs:    1.19719e+06 ave 1.19719e+06 max 1.19719e+06 min
Histogram: 1 0 0 0 0 0 0 0 0 0

Total # of neighbors = 1197191
Ave neighs/atom = 60.9196
Neighbor list builds = 1505
Dangerous builds not checked
Setting up Verlet run ...
  Unit style    : metal
  Current step  : 64000
  Time step     : 0.001
Per MPI rank memory allocation (min/avg/max) = 18.19 | 18.19 | 18.19 Mbytes
Step Temp Press TotEng PotEng Enthalpy 
   64000    1843.3682    47.338994   -54480.906   -59163.229   -54468.742 
   64495    1815.1917    40.620659   -54667.433   -59278.185   -54657.027 
Loop time of 75.6924 on 1 procs for 495 steps with 19652 atoms

Performance: 0.565 ns/day, 42.476 hours/ns, 6.540 timesteps/s
99.7% CPU use with 1 MPI tasks x no OpenMP threads

MPI task timing breakdown:
Section |  min time  |  avg time  |  max time  |%varavg| %total
---------------------------------------------------------------
Pair    | 41.581     | 41.581     | 41.581     |   0.0 | 54.93
Neigh   | 32.517     | 32.517     | 32.517     |   0.0 | 42.96
Comm    | 0.59719    | 0.59719    | 0.59719    |   0.0 |  0.79
Output  | 0.00035501 | 0.00035501 | 0.00035501 |   0.0 |  0.00
Modify  | 0.78791    | 0.78791    | 0.78791    |   0.0 |  1.04
Other   |            | 0.2092     |            |       |  0.28

Nlocal:    19652 ave 19652 max 19652 min
Histogram: 1 0 0 0 0 0 0 0 0 0
Nghost:    16800 ave 16800 max 16800 min
Histogram: 1 0 0 0 0 0 0 0 0 0
Neighs:    1.20145e+06 ave 1.20145e+06 max 1.20145e+06 min
Histogram: 1 0 0 0 0 0 0 0 0 0

Total # of neighbors = 1201449
Ave neighs/atom = 61.1362
Neighbor list builds = 495
Dangerous builds not checked
Setting up Verlet run ...
  Unit style    : metal
  Current step  : 64495
  Time step     : 0.001
Per MPI rank memory allocation (min/avg/max) = 18.19 | 18.19 | 18.19 Mbytes
Step Temp Press TotEng PotEng Enthalpy 
   64495    1815.1917    40.620659   -54667.433   -59278.185   -54657.027 
   66000    1808.8318   -90.636626   -54743.839   -59338.436   -54767.012 
Loop time of 221.428 on 1 procs for 1505 steps with 19652 atoms

Performance: 0.587 ns/day, 40.869 hours/ns, 6.797 timesteps/s
99.8% CPU use with 1 MPI tasks x no OpenMP threads

MPI task timing breakdown:
Section |  min time  |  avg time  |  max time  |%varavg| %total
---------------------------------------------------------------
Pair    | 121.34     | 121.34     | 121.34     |   0.0 | 54.80
Neigh   | 95.5       | 95.5       | 95.5       |   0.0 | 43.13
Comm    | 1.7262     | 1.7262     | 1.7262     |   0.0 |  0.78
Output  | 0.052859   | 0.052859   | 0.052859   |   0.0 |  0.02
Modify  | 2.2177     | 2.2177     | 2.2177     |   0.0 |  1.00
Other   |            | 0.5955     |            |       |  0.27

Nlocal:    19652 ave 19652 max 19652 min
Histogram: 1 0 0 0 0 0 0 0 0 0
Nghost:    16738 ave 16738 max 16738 min
Histogram: 1 0 0 0 0 0 0 0 0 0
Neighs:    1.20422e+06 ave 1.20422e+06 max 1.20422e+06 min
Histogram: 1 0 0 0 0 0 0 0 0 0

Total # of neighbors = 1204221
Ave neighs/atom = 61.2773
Neighbor list builds = 1505
Dangerous builds not checked
Setting up Verlet run ...
  Unit style    : metal
  Current step  : 66000
  Time step     : 0.001
Per MPI rank memory allocation (min/avg/max) = 18.19 | 18.19 | 18.19 Mbytes
Step Temp Press TotEng PotEng Enthalpy 
   66000    1808.8318   -90.636626   -54743.839   -59338.436   -54767.012 
   66495     1767.494   -125.18695    -54924.11   -59413.706   -54956.013 
Loop time of 64.4427 on 1 procs for 495 steps with 19652 atoms

Performance: 0.664 ns/day, 36.163 hours/ns, 7.681 timesteps/s
100.0% CPU use with 1 MPI tasks x no OpenMP threads

MPI task timing breakdown:
Section |  min time  |  avg time  |  max time  |%varavg| %total
---------------------------------------------------------------
Pair    | 34.781     | 34.781     | 34.781     |   0.0 | 53.97
Neigh   | 28.353     | 28.353     | 28.353     |   0.0 | 44.00
Comm    | 0.49184    | 0.49184    | 0.49184    |   0.0 |  0.76
Output  | 0.00020194 | 0.00020194 | 0.00020194 |   0.0 |  0.00
Modify  | 0.6397     | 0.6397     | 0.6397     |   0.0 |  0.99
Other   |            | 0.1774     |            |       |  0.28

Nlocal:    19652 ave 19652 max 19652 min
Histogram: 1 0 0 0 0 0 0 0 0 0
Nghost:    16865 ave 16865 max 16865 min
Histogram: 1 0 0 0 0 0 0 0 0 0
Neighs:    1.2079e+06 ave 1.2079e+06 max 1.2079e+06 min
Histogram: 1 0 0 0 0 0 0 0 0 0

Total # of neighbors = 1207898
Ave neighs/atom = 61.4644
Neighbor list builds = 495
Dangerous builds not checked
Setting up Verlet run ...
  Unit style    : metal
  Current step  : 66495
  Time step     : 0.001
Per MPI rank memory allocation (min/avg/max) = 18.19 | 18.19 | 18.19 Mbytes
Step Temp Press TotEng PotEng Enthalpy 
   66495     1767.494   -125.18695    -54924.11   -59413.706   -54956.013 
   68000    1761.4395    938.94118   -54960.342   -59434.559   -54721.816 
Loop time of 228.912 on 1 procs for 1505 steps with 19652 atoms

Performance: 0.568 ns/day, 42.250 hours/ns, 6.575 timesteps/s
99.4% CPU use with 1 MPI tasks x no OpenMP threads

MPI task timing breakdown:
Section |  min time  |  avg time  |  max time  |%varavg| %total
---------------------------------------------------------------
Pair    | 125.57     | 125.57     | 125.57     |   0.0 | 54.85
Neigh   | 97.653     | 97.653     | 97.653     |   0.0 | 42.66
Comm    | 1.7821     | 1.7821     | 1.7821     |   0.0 |  0.78
Output  | 1.0169     | 1.0169     | 1.0169     |   0.0 |  0.44
Modify  | 2.2812     | 2.2812     | 2.2812     |   0.0 |  1.00
Other   |            | 0.6108     |            |       |  0.27

Nlocal:    19652 ave 19652 max 19652 min
Histogram: 1 0 0 0 0 0 0 0 0 0
Nghost:    16807 ave 16807 max 16807 min
Histogram: 1 0 0 0 0 0 0 0 0 0
Neighs:    1.21127e+06 ave 1.21127e+06 max 1.21127e+06 min
Histogram: 1 0 0 0 0 0 0 0 0 0

Total # of neighbors = 1211267
Ave neighs/atom = 61.6358
Neighbor list builds = 1505
Dangerous builds not checked
Setting up Verlet run ...
  Unit style    : metal
  Current step  : 68000
  Time step     : 0.001
Per MPI rank memory allocation (min/avg/max) = 18.19 | 18.19 | 18.19 Mbytes
Step Temp Press TotEng PotEng Enthalpy 
   68000    1761.4395    938.94118   -54960.342   -59434.559   -54721.816 
   68495    1702.1991   -414.89648    -55167.52   -59491.261   -55272.944 
Loop time of 72.818 on 1 procs for 495 steps with 19652 atoms

Performance: 0.587 ns/day, 40.863 hours/ns, 6.798 timesteps/s
99.9% CPU use with 1 MPI tasks x no OpenMP threads

MPI task timing breakdown:
Section |  min time  |  avg time  |  max time  |%varavg| %total
---------------------------------------------------------------
Pair    | 39.797     | 39.797     | 39.797     |   0.0 | 54.65
Neigh   | 31.515     | 31.515     | 31.515     |   0.0 | 43.28
Comm    | 0.56747    | 0.56747    | 0.56747    |   0.0 |  0.78
Output  | 0.000211   | 0.000211   | 0.000211   |   0.0 |  0.00
Modify  | 0.74242    | 0.74242    | 0.74242    |   0.0 |  1.02
Other   |            | 0.1962     |            |       |  0.27

Nlocal:    19652 ave 19652 max 19652 min
Histogram: 1 0 0 0 0 0 0 0 0 0
Nghost:    16864 ave 16864 max 16864 min
Histogram: 1 0 0 0 0 0 0 0 0 0
Neighs:    1.21123e+06 ave 1.21123e+06 max 1.21123e+06 min
Histogram: 1 0 0 0 0 0 0 0 0 0

Total # of neighbors = 1211232
Ave neighs/atom = 61.634
Neighbor list builds = 495
Dangerous builds not checked
Setting up Verlet run ...
  Unit style    : metal
  Current step  : 68495
  Time step     : 0.001
Per MPI rank memory allocation (min/avg/max) = 18.19 | 18.19 | 18.19 Mbytes
Step Temp Press TotEng PotEng Enthalpy 
   68495    1702.1991   -414.89648    -55167.52   -59491.261   -55272.944 
   70000    1706.3661    411.10583   -55277.089   -59611.415   -55173.097 
Loop time of 222.405 on 1 procs for 1505 steps with 19652 atoms

Performance: 0.585 ns/day, 41.049 hours/ns, 6.767 timesteps/s
99.6% CPU use with 1 MPI tasks x no OpenMP threads

MPI task timing breakdown:
Section |  min time  |  avg time  |  max time  |%varavg| %total
---------------------------------------------------------------
Pair    | 121.95     | 121.95     | 121.95     |   0.0 | 54.83
Neigh   | 95.885     | 95.885     | 95.885     |   0.0 | 43.11
Comm    | 1.7066     | 1.7066     | 1.7066     |   0.0 |  0.77
Output  | 0.057101   | 0.057101   | 0.057101   |   0.0 |  0.03
Modify  | 2.2108     | 2.2108     | 2.2108     |   0.0 |  0.99
Other   |            | 0.5944     |            |       |  0.27

Nlocal:    19652 ave 19652 max 19652 min
Histogram: 1 0 0 0 0 0 0 0 0 0
Nghost:    16887 ave 16887 max 16887 min
Histogram: 1 0 0 0 0 0 0 0 0 0
Neighs:    1.21667e+06 ave 1.21667e+06 max 1.21667e+06 min
Histogram: 1 0 0 0 0 0 0 0 0 0

Total # of neighbors = 1216673
Ave neighs/atom = 61.9109
Neighbor list builds = 1505
Dangerous builds not checked
Setting up Verlet run ...
  Unit style    : metal
  Current step  : 70000
  Time step     : 0.001
Per MPI rank memory allocation (min/avg/max) = 18.19 | 18.19 | 18.19 Mbytes
Step Temp Press TotEng PotEng Enthalpy 
   70000    1706.3661    411.10583   -55277.089   -59611.415   -55173.097 
   70495    1663.1847    401.44806   -55482.887   -59707.528   -55381.689 
Loop time of 70.3758 on 1 procs for 495 steps with 19652 atoms

Performance: 0.608 ns/day, 39.493 hours/ns, 7.034 timesteps/s
100.0% CPU use with 1 MPI tasks x no OpenMP threads

MPI task timing breakdown:
Section |  min time  |  avg time  |  max time  |%varavg| %total
---------------------------------------------------------------
Pair    | 38.45      | 38.45      | 38.45      |   0.0 | 54.64
Neigh   | 30.502     | 30.502     | 30.502     |   0.0 | 43.34
Comm    | 0.53482    | 0.53482    | 0.53482    |   0.0 |  0.76
Output  | 0.00019288 | 0.00019288 | 0.00019288 |   0.0 |  0.00
Modify  | 0.69987    | 0.69987    | 0.69987    |   0.0 |  0.99
Other   |            | 0.1883     |            |       |  0.27

Nlocal:    19652 ave 19652 max 19652 min
Histogram: 1 0 0 0 0 0 0 0 0 0
Nghost:    16915 ave 16915 max 16915 min
Histogram: 1 0 0 0 0 0 0 0 0 0
Neighs:    1.22095e+06 ave 1.22095e+06 max 1.22095e+06 min
Histogram: 1 0 0 0 0 0 0 0 0 0

Total # of neighbors = 1220948
Ave neighs/atom = 62.1284
Neighbor list builds = 495
Dangerous builds not checked
Setting up Verlet run ...
  Unit style    : metal
  Current step  : 70495
  Time step     : 0.001
Per MPI rank memory allocation (min/avg/max) = 18.19 | 18.19 | 18.19 Mbytes
Step Temp Press TotEng PotEng Enthalpy 
   70495    1663.1847    401.44806   -55482.887   -59707.528   -55381.689 
   72000    1638.9771   -701.41812    -55542.03   -59705.181   -55719.176 
Loop time of 223.042 on 1 procs for 1505 steps with 19652 atoms

Performance: 0.583 ns/day, 41.167 hours/ns, 6.748 timesteps/s
99.8% CPU use with 1 MPI tasks x no OpenMP threads

MPI task timing breakdown:
Section |  min time  |  avg time  |  max time  |%varavg| %total
---------------------------------------------------------------
Pair    | 122.34     | 122.34     | 122.34     |   0.0 | 54.85
Neigh   | 96.117     | 96.117     | 96.117     |   0.0 | 43.09
Comm    | 1.7058     | 1.7058     | 1.7058     |   0.0 |  0.76
Output  | 0.06638    | 0.06638    | 0.06638    |   0.0 |  0.03
Modify  | 2.2188     | 2.2188     | 2.2188     |   0.0 |  0.99
Other   |            | 0.5898     |            |       |  0.26

Nlocal:    19652 ave 19652 max 19652 min
Histogram: 1 0 0 0 0 0 0 0 0 0
Nghost:    16829 ave 16829 max 16829 min
Histogram: 1 0 0 0 0 0 0 0 0 0
Neighs:    1.21942e+06 ave 1.21942e+06 max 1.21942e+06 min
Histogram: 1 0 0 0 0 0 0 0 0 0

Total # of neighbors = 1219415
Ave neighs/atom = 62.0504
Neighbor list builds = 1505
Dangerous builds not checked
Setting up Verlet run ...
  Unit style    : metal
  Current step  : 72000
  Time step     : 0.001
Per MPI rank memory allocation (min/avg/max) = 18.19 | 18.19 | 18.19 Mbytes
Step Temp Press TotEng PotEng Enthalpy 
   72000    1638.9771   -701.41812    -55542.03   -59705.181   -55719.176 
   72495    1619.0476   -286.94459   -55769.261    -59881.79   -55841.165 
Loop time of 66.2124 on 1 procs for 495 steps with 19652 atoms

Performance: 0.646 ns/day, 37.156 hours/ns, 7.476 timesteps/s
100.0% CPU use with 1 MPI tasks x no OpenMP threads

MPI task timing breakdown:
Section |  min time  |  avg time  |  max time  |%varavg| %total
---------------------------------------------------------------
Pair    | 35.828     | 35.828     | 35.828     |   0.0 | 54.11
Neigh   | 29.023     | 29.023     | 29.023     |   0.0 | 43.83
Comm    | 0.51534    | 0.51534    | 0.51534    |   0.0 |  0.78
Output  | 0.00016499 | 0.00016499 | 0.00016499 |   0.0 |  0.00
Modify  | 0.6656     | 0.6656     | 0.6656     |   0.0 |  1.01
Other   |            | 0.1802     |            |       |  0.27

Nlocal:    19652 ave 19652 max 19652 min
Histogram: 1 0 0 0 0 0 0 0 0 0
Nghost:    16978 ave 16978 max 16978 min
Histogram: 1 0 0 0 0 0 0 0 0 0
Neighs:    1.22852e+06 ave 1.22852e+06 max 1.22852e+06 min
Histogram: 1 0 0 0 0 0 0 0 0 0

Total # of neighbors = 1228521
Ave neighs/atom = 62.5138
Neighbor list builds = 495
Dangerous builds not checked
Setting up Verlet run ...
  Unit style    : metal
  Current step  : 72495
  Time step     : 0.001
Per MPI rank memory allocation (min/avg/max) = 18.19 | 18.19 | 18.19 Mbytes
Step Temp Press TotEng PotEng Enthalpy 
   72495    1619.0476   -286.94459   -55769.261    -59881.79   -55841.165 
   74000    1606.4468    630.71807   -55848.532   -59929.053   -55690.851 
Loop time of 206.924 on 1 procs for 1505 steps with 19652 atoms

Performance: 0.628 ns/day, 38.192 hours/ns, 7.273 timesteps/s
99.5% CPU use with 1 MPI tasks x no OpenMP threads

MPI task timing breakdown:
Section |  min time  |  avg time  |  max time  |%varavg| %total
---------------------------------------------------------------
Pair    | 112.38     | 112.38     | 112.38     |   0.0 | 54.31
Neigh   | 90.343     | 90.343     | 90.343     |   0.0 | 43.66
Comm    | 1.5411     | 1.5411     | 1.5411     |   0.0 |  0.74
Output  | 0.10344    | 0.10344    | 0.10344    |   0.0 |  0.05
Modify  | 2.0099     | 2.0099     | 2.0099     |   0.0 |  0.97
Other   |            | 0.5464     |            |       |  0.26

Nlocal:    19652 ave 19652 max 19652 min
Histogram: 1 0 0 0 0 0 0 0 0 0
Nghost:    16958 ave 16958 max 16958 min
Histogram: 1 0 0 0 0 0 0 0 0 0
Neighs:    1.23189e+06 ave 1.23189e+06 max 1.23189e+06 min
Histogram: 1 0 0 0 0 0 0 0 0 0

Total # of neighbors = 1231886
Ave neighs/atom = 62.685
Neighbor list builds = 1505
Dangerous builds not checked
Setting up Verlet run ...
  Unit style    : metal
  Current step  : 74000
  Time step     : 0.001
Per MPI rank memory allocation (min/avg/max) = 18.19 | 18.19 | 18.19 Mbytes
Step Temp Press TotEng PotEng Enthalpy 
   74000    1606.4468    630.71807   -55848.532   -59929.053   -55690.851 
   74495    1562.7253    1137.8315   -56039.205    -60008.67   -55755.987 
Loop time of 68.2013 on 1 procs for 495 steps with 19652 atoms

Performance: 0.627 ns/day, 38.272 hours/ns, 7.258 timesteps/s
99.9% CPU use with 1 MPI tasks x no OpenMP threads

MPI task timing breakdown:
Section |  min time  |  avg time  |  max time  |%varavg| %total
---------------------------------------------------------------
Pair    | 36.741     | 36.741     | 36.741     |   0.0 | 53.87
Neigh   | 30.064     | 30.064     | 30.064     |   0.0 | 44.08
Comm    | 0.51719    | 0.51719    | 0.51719    |   0.0 |  0.76
Output  | 0.00024199 | 0.00024199 | 0.00024199 |   0.0 |  0.00
Modify  | 0.69187    | 0.69187    | 0.69187    |   0.0 |  1.01
Other   |            | 0.1874     |            |       |  0.27

Nlocal:    19652 ave 19652 max 19652 min
Histogram: 1 0 0 0 0 0 0 0 0 0
Nghost:    16975 ave 16975 max 16975 min
Histogram: 1 0 0 0 0 0 0 0 0 0
Neighs:    1.23698e+06 ave 1.23698e+06 max 1.23698e+06 min
Histogram: 1 0 0 0 0 0 0 0 0 0

Total # of neighbors = 1236982
Ave neighs/atom = 62.9443
Neighbor list builds = 495
Dangerous builds not checked
Setting up Verlet run ...
  Unit style    : metal
  Current step  : 74495
  Time step     : 0.001
Per MPI rank memory allocation (min/avg/max) = 18.19 | 18.19 | 18.19 Mbytes
Step Temp Press TotEng PotEng Enthalpy 
   74495    1562.7253    1137.8315   -56039.205    -60008.67   -55755.987 
   76000    1533.9197    1521.1717   -56168.249   -60064.545   -55790.688 
Loop time of 210.62 on 1 procs for 1505 steps with 19652 atoms

Performance: 0.617 ns/day, 38.874 hours/ns, 7.146 timesteps/s
100.0% CPU use with 1 MPI tasks x no OpenMP threads

MPI task timing breakdown:
Section |  min time  |  avg time  |  max time  |%varavg| %total
---------------------------------------------------------------
Pair    | 114.22     | 114.22     | 114.22     |   0.0 | 54.23
Neigh   | 92.116     | 92.116     | 92.116     |   0.0 | 43.74
Comm    | 1.5819     | 1.5819     | 1.5819     |   0.0 |  0.75
Output  | 0.056914   | 0.056914   | 0.056914   |   0.0 |  0.03
Modify  | 2.089      | 2.089      | 2.089      |   0.0 |  0.99
Other   |            | 0.5582     |            |       |  0.27

Nlocal:    19652 ave 19652 max 19652 min
Histogram: 1 0 0 0 0 0 0 0 0 0
Nghost:    17065 ave 17065 max 17065 min
Histogram: 1 0 0 0 0 0 0 0 0 0
Neighs:    1.24114e+06 ave 1.24114e+06 max 1.24114e+06 min
Histogram: 1 0 0 0 0 0 0 0 0 0

Total # of neighbors = 1241145
Ave neighs/atom = 63.1562
Neighbor list builds = 1505
Dangerous builds not checked
Setting up Verlet run ...
  Unit style    : metal
  Current step  : 76000
  Time step     : 0.001
Per MPI rank memory allocation (min/avg/max) = 18.19 | 18.19 | 18.19 Mbytes
Step Temp Press TotEng PotEng Enthalpy 
   76000    1533.9197    1521.1717   -56168.249   -60064.545   -55790.688 
   76495    1521.5446    300.84224   -56315.362   -60180.224   -56240.765 
Loop time of 65.3931 on 1 procs for 495 steps with 19652 atoms

Performance: 0.654 ns/day, 36.696 hours/ns, 7.570 timesteps/s
99.7% CPU use with 1 MPI tasks x no OpenMP threads

MPI task timing breakdown:
Section |  min time  |  avg time  |  max time  |%varavg| %total
---------------------------------------------------------------
Pair    | 35.164     | 35.164     | 35.164     |   0.0 | 53.77
Neigh   | 28.899     | 28.899     | 28.899     |   0.0 | 44.19
Comm    | 0.49638    | 0.49638    | 0.49638    |   0.0 |  0.76
Output  | 0.00024104 | 0.00024104 | 0.00024104 |   0.0 |  0.00
Modify  | 0.65566    | 0.65566    | 0.65566    |   0.0 |  1.00
Other   |            | 0.1781     |            |       |  0.27

Nlocal:    19652 ave 19652 max 19652 min
Histogram: 1 0 0 0 0 0 0 0 0 0
Nghost:    17120 ave 17120 max 17120 min
Histogram: 1 0 0 0 0 0 0 0 0 0
Neighs:    1.24186e+06 ave 1.24186e+06 max 1.24186e+06 min
Histogram: 1 0 0 0 0 0 0 0 0 0

Total # of neighbors = 1241863
Ave neighs/atom = 63.1927
Neighbor list builds = 495
Dangerous builds not checked
Setting up Verlet run ...
  Unit style    : metal
  Current step  : 76495
  Time step     : 0.001
Per MPI rank memory allocation (min/avg/max) = 18.19 | 18.19 | 18.19 Mbytes
Step Temp Press TotEng PotEng Enthalpy 
   76495    1521.5446    300.84224   -56315.362   -60180.224   -56240.765 
   78000     1503.922    197.65119   -56407.024   -60227.123   -56358.074 
Loop time of 208.602 on 1 procs for 1505 steps with 19652 atoms

Performance: 0.623 ns/day, 38.502 hours/ns, 7.215 timesteps/s
99.9% CPU use with 1 MPI tasks x no OpenMP threads

MPI task timing breakdown:
Section |  min time  |  avg time  |  max time  |%varavg| %total
---------------------------------------------------------------
Pair    | 113.45     | 113.45     | 113.45     |   0.0 | 54.39
Neigh   | 90.89      | 90.89      | 90.89      |   0.0 | 43.57
Comm    | 1.5622     | 1.5622     | 1.5622     |   0.0 |  0.75
Output  | 0.066554   | 0.066554   | 0.066554   |   0.0 |  0.03
Modify  | 2.0733     | 2.0733     | 2.0733     |   0.0 |  0.99
Other   |            | 0.5561     |            |       |  0.27

Nlocal:    19652 ave 19652 max 19652 min
Histogram: 1 0 0 0 0 0 0 0 0 0
Nghost:    16984 ave 16984 max 16984 min
Histogram: 1 0 0 0 0 0 0 0 0 0
Neighs:    1.24368e+06 ave 1.24368e+06 max 1.24368e+06 min
Histogram: 1 0 0 0 0 0 0 0 0 0

Total # of neighbors = 1243682
Ave neighs/atom = 63.2853
Neighbor list builds = 1505
Dangerous builds not checked
Setting up Verlet run ...
  Unit style    : metal
  Current step  : 78000
  Time step     : 0.001
Per MPI rank memory allocation (min/avg/max) = 18.19 | 18.19 | 18.19 Mbytes
Step Temp Press TotEng PotEng Enthalpy 
   78000     1503.922    197.65119   -56407.024   -60227.123   -56358.074 
   78495    1473.3756   -831.95747   -56617.942    -60360.45   -56823.468 
Loop time of 69.1831 on 1 procs for 495 steps with 19652 atoms

Performance: 0.618 ns/day, 38.823 hours/ns, 7.155 timesteps/s
99.1% CPU use with 1 MPI tasks x no OpenMP threads

MPI task timing breakdown:
Section |  min time  |  avg time  |  max time  |%varavg| %total
---------------------------------------------------------------
Pair    | 37.175     | 37.175     | 37.175     |   0.0 | 53.73
Neigh   | 30.593     | 30.593     | 30.593     |   0.0 | 44.22
Comm    | 0.52134    | 0.52134    | 0.52134    |   0.0 |  0.75
Output  | 0.00018907 | 0.00018907 | 0.00018907 |   0.0 |  0.00
Modify  | 0.70596    | 0.70596    | 0.70596    |   0.0 |  1.02
Other   |            | 0.1868     |            |       |  0.27

Nlocal:    19652 ave 19652 max 19652 min
Histogram: 1 0 0 0 0 0 0 0 0 0
Nghost:    17044 ave 17044 max 17044 min
Histogram: 1 0 0 0 0 0 0 0 0 0
Neighs:    1.24656e+06 ave 1.24656e+06 max 1.24656e+06 min
Histogram: 1 0 0 0 0 0 0 0 0 0

Total # of neighbors = 1246561
Ave neighs/atom = 63.4318
Neighbor list builds = 495
Dangerous builds not checked
Setting up Verlet run ...
  Unit style    : metal
  Current step  : 78495
  Time step     : 0.001
Per MPI rank memory allocation (min/avg/max) = 18.19 | 18.19 | 18.19 Mbytes
Step Temp Press TotEng PotEng Enthalpy 
   78495    1473.3756   -831.95747   -56617.942    -60360.45   -56823.468 
   80000    1463.3956   -134.61712   -56686.198   -60403.356   -56719.341 
Loop time of 210.123 on 1 procs for 1505 steps with 19652 atoms

Performance: 0.619 ns/day, 38.782 hours/ns, 7.162 timesteps/s
99.8% CPU use with 1 MPI tasks x no OpenMP threads

MPI task timing breakdown:
Section |  min time  |  avg time  |  max time  |%varavg| %total
---------------------------------------------------------------
Pair    | 114.22     | 114.22     | 114.22     |   0.0 | 54.36
Neigh   | 91.654     | 91.654     | 91.654     |   0.0 | 43.62
Comm    | 1.576      | 1.576      | 1.576      |   0.0 |  0.75
Output  | 0.051107   | 0.051107   | 0.051107   |   0.0 |  0.02
Modify  | 2.0621     | 2.0621     | 2.0621     |   0.0 |  0.98
Other   |            | 0.5554     |            |       |  0.26

Nlocal:    19652 ave 19652 max 19652 min
Histogram: 1 0 0 0 0 0 0 0 0 0
Nghost:    17078 ave 17078 max 17078 min
Histogram: 1 0 0 0 0 0 0 0 0 0
Neighs:    1.25139e+06 ave 1.25139e+06 max 1.25139e+06 min
Histogram: 1 0 0 0 0 0 0 0 0 0

Total # of neighbors = 1251390
Ave neighs/atom = 63.6775
Neighbor list builds = 1505
Dangerous builds not checked
Setting up Verlet run ...
  Unit style    : metal
  Current step  : 80000
  Time step     : 0.001
Per MPI rank memory allocation (min/avg/max) = 18.19 | 18.19 | 18.19 Mbytes
Step Temp Press TotEng PotEng Enthalpy 
   80000    1463.3956   -134.61712   -56686.198   -60403.356   -56719.341 
   80495     1413.572    264.93733   -56874.114   -60464.715   -56809.071 
Loop time of 64.016 on 1 procs for 495 steps with 19652 atoms

Performance: 0.668 ns/day, 35.924 hours/ns, 7.732 timesteps/s
100.0% CPU use with 1 MPI tasks x no OpenMP threads

MPI task timing breakdown:
Section |  min time  |  avg time  |  max time  |%varavg| %total
---------------------------------------------------------------
Pair    | 34.402     | 34.402     | 34.402     |   0.0 | 53.74
Neigh   | 28.307     | 28.307     | 28.307     |   0.0 | 44.22
Comm    | 0.48667    | 0.48667    | 0.48667    |   0.0 |  0.76
Output  | 0.00019693 | 0.00019693 | 0.00019693 |   0.0 |  0.00
Modify  | 0.64569    | 0.64569    | 0.64569    |   0.0 |  1.01
Other   |            | 0.1745     |            |       |  0.27

Nlocal:    19652 ave 19652 max 19652 min
Histogram: 1 0 0 0 0 0 0 0 0 0
Nghost:    17077 ave 17077 max 17077 min
Histogram: 1 0 0 0 0 0 0 0 0 0
Neighs:    1.25438e+06 ave 1.25438e+06 max 1.25438e+06 min
Histogram: 1 0 0 0 0 0 0 0 0 0

Total # of neighbors = 1254379
Ave neighs/atom = 63.8296
Neighbor list builds = 495
Dangerous builds not checked
Setting up Verlet run ...
  Unit style    : metal
  Current step  : 80495
  Time step     : 0.001
Per MPI rank memory allocation (min/avg/max) = 18.19 | 18.19 | 18.19 Mbytes
Step Temp Press TotEng PotEng Enthalpy 
   80495     1413.572    264.93733   -56874.114   -60464.715   -56809.071 
   82000    1394.3463   -1168.8887   -56961.217   -60502.984     -57248.8 
Loop time of 194.676 on 1 procs for 1505 steps with 19652 atoms

Performance: 0.668 ns/day, 35.931 hours/ns, 7.731 timesteps/s
99.9% CPU use with 1 MPI tasks x no OpenMP threads

MPI task timing breakdown:
Section |  min time  |  avg time  |  max time  |%varavg| %total
---------------------------------------------------------------
Pair    | 104.95     | 104.95     | 104.95     |   0.0 | 53.91
Neigh   | 85.818     | 85.818     | 85.818     |   0.0 | 44.08
Comm    | 1.45       | 1.45       | 1.45       |   0.0 |  0.74
Output  | 0.0522     | 0.0522     | 0.0522     |   0.0 |  0.03
Modify  | 1.8914     | 1.8914     | 1.8914     |   0.0 |  0.97
Other   |            | 0.5124     |            |       |  0.26

Nlocal:    19652 ave 19652 max 19652 min
Histogram: 1 0 0 0 0 0 0 0 0 0
Nghost:    17006 ave 17006 max 17006 min
Histogram: 1 0 0 0 0 0 0 0 0 0
Neighs:    1.25241e+06 ave 1.25241e+06 max 1.25241e+06 min
Histogram: 1 0 0 0 0 0 0 0 0 0

Total # of neighbors = 1252406
Ave neighs/atom = 63.7292
Neighbor list builds = 1505
Dangerous builds not checked
Setting up Verlet run ...
  Unit style    : metal
  Current step  : 82000
  Time step     : 0.001
Per MPI rank memory allocation (min/avg/max) = 18.19 | 18.19 | 18.19 Mbytes
Step Temp Press TotEng PotEng Enthalpy 
   82000    1394.3463   -1168.8887   -56961.217   -60502.984     -57248.8 
   82495    1367.1834   -300.71151   -57178.487   -60651.257   -57251.896 
Loop time of 63.9278 on 1 procs for 495 steps with 19652 atoms

Performance: 0.669 ns/day, 35.874 hours/ns, 7.743 timesteps/s
100.0% CPU use with 1 MPI tasks x no OpenMP threads

MPI task timing breakdown:
Section |  min time  |  avg time  |  max time  |%varavg| %total
---------------------------------------------------------------
Pair    | 34.446     | 34.446     | 34.446     |   0.0 | 53.88
Neigh   | 28.209     | 28.209     | 28.209     |   0.0 | 44.13
Comm    | 0.47567    | 0.47567    | 0.47567    |   0.0 |  0.74
Output  | 0.00019693 | 0.00019693 | 0.00019693 |   0.0 |  0.00
Modify  | 0.62645    | 0.62645    | 0.62645    |   0.0 |  0.98
Other   |            | 0.1699     |            |       |  0.27

Nlocal:    19652 ave 19652 max 19652 min
Histogram: 1 0 0 0 0 0 0 0 0 0
Nghost:    17051 ave 17051 max 17051 min
Histogram: 1 0 0 0 0 0 0 0 0 0
Neighs:    1.26196e+06 ave 1.26196e+06 max 1.26196e+06 min
Histogram: 1 0 0 0 0 0 0 0 0 0

Total # of neighbors = 1261959
Ave neighs/atom = 64.2153
Neighbor list builds = 495
Dangerous builds not checked
Setting up Verlet run ...
  Unit style    : metal
  Current step  : 82495
  Time step     : 0.001
Per MPI rank memory allocation (min/avg/max) = 18.19 | 18.19 | 18.19 Mbytes
Step Temp Press TotEng PotEng Enthalpy 
   82495    1367.1834   -300.71151   -57178.487   -60651.257   -57251.896 
   84000     1342.544   -331.18657   -57247.359   -60657.543   -57328.236 
Loop time of 213.648 on 1 procs for 1505 steps with 19652 atoms

Performance: 0.609 ns/day, 39.433 hours/ns, 7.044 timesteps/s
99.8% CPU use with 1 MPI tasks x no OpenMP threads

MPI task timing breakdown:
Section |  min time  |  avg time  |  max time  |%varavg| %total
---------------------------------------------------------------
Pair    | 116.41     | 116.41     | 116.41     |   0.0 | 54.49
Neigh   | 92.91      | 92.91      | 92.91      |   0.0 | 43.49
Comm    | 1.5944     | 1.5944     | 1.5944     |   0.0 |  0.75
Output  | 0.06757    | 0.06757    | 0.06757    |   0.0 |  0.03
Modify  | 2.1028     | 2.1028     | 2.1028     |   0.0 |  0.98
Other   |            | 0.5668     |            |       |  0.27

Nlocal:    19652 ave 19652 max 19652 min
Histogram: 1 0 0 0 0 0 0 0 0 0
Nghost:    17111 ave 17111 max 17111 min
Histogram: 1 0 0 0 0 0 0 0 0 0
Neighs:    1.2612e+06 ave 1.2612e+06 max 1.2612e+06 min
Histogram: 1 0 0 0 0 0 0 0 0 0

Total # of neighbors = 1261198
Ave neighs/atom = 64.1766
Neighbor list builds = 1505
Dangerous builds not checked
Setting up Verlet run ...
  Unit style    : metal
  Current step  : 84000
  Time step     : 0.001
Per MPI rank memory allocation (min/avg/max) = 18.19 | 18.19 | 18.19 Mbytes
Step Temp Press TotEng PotEng Enthalpy 
   84000     1342.544   -331.18657   -57247.359   -60657.543   -57328.236 
   84495    1305.8205   -268.78093   -57475.893   -60792.796   -57541.187 
Loop time of 70.4406 on 1 procs for 495 steps with 19652 atoms

Performance: 0.607 ns/day, 39.529 hours/ns, 7.027 timesteps/s
99.8% CPU use with 1 MPI tasks x no OpenMP threads

MPI task timing breakdown:
Section |  min time  |  avg time  |  max time  |%varavg| %total
---------------------------------------------------------------
Pair    | 38.309     | 38.309     | 38.309     |   0.0 | 54.38
Neigh   | 30.695     | 30.695     | 30.695     |   0.0 | 43.58
Comm    | 0.52895    | 0.52895    | 0.52895    |   0.0 |  0.75
Output  | 0.00023293 | 0.00023293 | 0.00023293 |   0.0 |  0.00
Modify  | 0.71657    | 0.71657    | 0.71657    |   0.0 |  1.02
Other   |            | 0.1911     |            |       |  0.27

Nlocal:    19652 ave 19652 max 19652 min
Histogram: 1 0 0 0 0 0 0 0 0 0
Nghost:    17164 ave 17164 max 17164 min
Histogram: 1 0 0 0 0 0 0 0 0 0
Neighs:    1.26838e+06 ave 1.26838e+06 max 1.26838e+06 min
Histogram: 1 0 0 0 0 0 0 0 0 0

Total # of neighbors = 1268380
Ave neighs/atom = 64.542
Neighbor list builds = 495
Dangerous builds not checked
Setting up Verlet run ...
  Unit style    : metal
  Current step  : 84495
  Time step     : 0.001
Per MPI rank memory allocation (min/avg/max) = 18.19 | 18.19 | 18.19 Mbytes
Step Temp Press TotEng PotEng Enthalpy 
   84495    1305.8205   -268.78093   -57475.893   -60792.796   -57541.187 
   86000    1299.6274   -208.27167   -57545.401   -60846.573   -57595.902 
Loop time of 202.201 on 1 procs for 1505 steps with 19652 atoms

Performance: 0.643 ns/day, 37.320 hours/ns, 7.443 timesteps/s
99.7% CPU use with 1 MPI tasks x no OpenMP threads

MPI task timing breakdown:
Section |  min time  |  avg time  |  max time  |%varavg| %total
---------------------------------------------------------------
Pair    | 109.32     | 109.32     | 109.32     |   0.0 | 54.07
Neigh   | 88.177     | 88.177     | 88.177     |   0.0 | 43.61
Comm    | 1.5065     | 1.5065     | 1.5065     |   0.0 |  0.75
Output  | 0.68181    | 0.68181    | 0.68181    |   0.0 |  0.34
Modify  | 1.9799     | 1.9799     | 1.9799     |   0.0 |  0.98
Other   |            | 0.5346     |            |       |  0.26

Nlocal:    19652 ave 19652 max 19652 min
Histogram: 1 0 0 0 0 0 0 0 0 0
Nghost:    17230 ave 17230 max 17230 min
Histogram: 1 0 0 0 0 0 0 0 0 0
Neighs:    1.27071e+06 ave 1.27071e+06 max 1.27071e+06 min
Histogram: 1 0 0 0 0 0 0 0 0 0

Total # of neighbors = 1270706
Ave neighs/atom = 64.6604
Neighbor list builds = 1505
Dangerous builds not checked
Setting up Verlet run ...
  Unit style    : metal
  Current step  : 86000
  Time step     : 0.001
Per MPI rank memory allocation (min/avg/max) = 18.19 | 18.19 | 18.19 Mbytes
Step Temp Press TotEng PotEng Enthalpy 
   86000    1299.6274   -208.27167   -57545.401   -60846.573   -57595.902 
   86495    1260.2596   -542.62846   -57753.114   -60954.289   -57884.303 
Loop time of 75.0755 on 1 procs for 495 steps with 19652 atoms

Performance: 0.570 ns/day, 42.130 hours/ns, 6.593 timesteps/s
99.7% CPU use with 1 MPI tasks x no OpenMP threads

MPI task timing breakdown:
Section |  min time  |  avg time  |  max time  |%varavg| %total
---------------------------------------------------------------
Pair    | 41.4       | 41.4       | 41.4       |   0.0 | 55.14
Neigh   | 32.125     | 32.125     | 32.125     |   0.0 | 42.79
Comm    | 0.576      | 0.576      | 0.576      |   0.0 |  0.77
Output  | 0.00021386 | 0.00021386 | 0.00021386 |   0.0 |  0.00
Modify  | 0.77094    | 0.77094    | 0.77094    |   0.0 |  1.03
Other   |            | 0.2042     |            |       |  0.27

Nlocal:    19652 ave 19652 max 19652 min
Histogram: 1 0 0 0 0 0 0 0 0 0
Nghost:    17162 ave 17162 max 17162 min
Histogram: 1 0 0 0 0 0 0 0 0 0
Neighs:    1.27471e+06 ave 1.27471e+06 max 1.27471e+06 min
Histogram: 1 0 0 0 0 0 0 0 0 0

Total # of neighbors = 1274706
Ave neighs/atom = 64.8639
Neighbor list builds = 495
Dangerous builds not checked
Setting up Verlet run ...
  Unit style    : metal
  Current step  : 86495
  Time step     : 0.001
Per MPI rank memory allocation (min/avg/max) = 18.19 | 18.19 | 18.19 Mbytes
Step Temp Press TotEng PotEng Enthalpy 
   86495    1260.2596   -542.62846   -57753.114   -60954.289   -57884.303 
   88000    1252.0374    182.40135   -57819.295   -60999.584   -57775.325 
Loop time of 221.049 on 1 procs for 1505 steps with 19652 atoms

Performance: 0.588 ns/day, 40.799 hours/ns, 6.808 timesteps/s
99.8% CPU use with 1 MPI tasks x no OpenMP threads

MPI task timing breakdown:
Section |  min time  |  avg time  |  max time  |%varavg| %total
---------------------------------------------------------------
Pair    | 121.55     | 121.55     | 121.55     |   0.0 | 54.99
Neigh   | 95.007     | 95.007     | 95.007     |   0.0 | 42.98
Comm    | 1.6617     | 1.6617     | 1.6617     |   0.0 |  0.75
Output  | 0.043608   | 0.043608   | 0.043608   |   0.0 |  0.02
Modify  | 2.1922     | 2.1922     | 2.1922     |   0.0 |  0.99
Other   |            | 0.591      |            |       |  0.27

Nlocal:    19652 ave 19652 max 19652 min
Histogram: 1 0 0 0 0 0 0 0 0 0
Nghost:    17208 ave 17208 max 17208 min
Histogram: 1 0 0 0 0 0 0 0 0 0
Neighs:    1.27848e+06 ave 1.27848e+06 max 1.27848e+06 min
Histogram: 1 0 0 0 0 0 0 0 0 0

Total # of neighbors = 1278484
Ave neighs/atom = 65.0562
Neighbor list builds = 1505
Dangerous builds not checked
Setting up Verlet run ...
  Unit style    : metal
  Current step  : 88000
  Time step     : 0.001
Per MPI rank memory allocation (min/avg/max) = 18.19 | 18.19 | 18.19 Mbytes
Step Temp Press TotEng PotEng Enthalpy 
   88000    1252.0374    182.40135   -57819.295   -60999.584   -57775.325 
   88495    1212.0077    511.69402   -58026.039   -61104.649   -57903.224 
Loop time of 73.2888 on 1 procs for 495 steps with 19652 atoms

Performance: 0.584 ns/day, 41.127 hours/ns, 6.754 timesteps/s
99.9% CPU use with 1 MPI tasks x no OpenMP threads

MPI task timing breakdown:
Section |  min time  |  avg time  |  max time  |%varavg| %total
---------------------------------------------------------------
Pair    | 40.146     | 40.146     | 40.146     |   0.0 | 54.78
Neigh   | 31.623     | 31.623     | 31.623     |   0.0 | 43.15
Comm    | 0.56769    | 0.56769    | 0.56769    |   0.0 |  0.77
Output  | 0.00018501 | 0.00018501 | 0.00018501 |   0.0 |  0.00
Modify  | 0.75095    | 0.75095    | 0.75095    |   0.0 |  1.02
Other   |            | 0.2003     |            |       |  0.27

Nlocal:    19652 ave 19652 max 19652 min
Histogram: 1 0 0 0 0 0 0 0 0 0
Nghost:    17256 ave 17256 max 17256 min
Histogram: 1 0 0 0 0 0 0 0 0 0
Neighs:    1.28333e+06 ave 1.28333e+06 max 1.28333e+06 min
Histogram: 1 0 0 0 0 0 0 0 0 0

Total # of neighbors = 1283329
Ave neighs/atom = 65.3027
Neighbor list builds = 495
Dangerous builds not checked
Setting up Verlet run ...
  Unit style    : metal
  Current step  : 88495
  Time step     : 0.001
Per MPI rank memory allocation (min/avg/max) = 18.19 | 18.19 | 18.19 Mbytes
Step Temp Press TotEng PotEng Enthalpy 
   88495    1212.0077    511.69402   -58026.039   -61104.649   -57903.224 
   90000    1210.6759    391.20702   -58112.874   -61188.101   -58019.205 
Loop time of 202.025 on 1 procs for 1505 steps with 19652 atoms

Performance: 0.644 ns/day, 37.288 hours/ns, 7.450 timesteps/s
100.0% CPU use with 1 MPI tasks x no OpenMP threads

MPI task timing breakdown:
Section |  min time  |  avg time  |  max time  |%varavg| %total
---------------------------------------------------------------
Pair    | 110.25     | 110.25     | 110.25     |   0.0 | 54.57
Neigh   | 87.619     | 87.619     | 87.619     |   0.0 | 43.37
Comm    | 1.5531     | 1.5531     | 1.5531     |   0.0 |  0.77
Output  | 0.054542   | 0.054542   | 0.054542   |   0.0 |  0.03
Modify  | 2.0059     | 2.0059     | 2.0059     |   0.0 |  0.99
Other   |            | 0.5446     |            |       |  0.27

Nlocal:    19652 ave 19652 max 19652 min
Histogram: 1 0 0 0 0 0 0 0 0 0
Nghost:    17261 ave 17261 max 17261 min
Histogram: 1 0 0 0 0 0 0 0 0 0
Neighs:    1.28731e+06 ave 1.28731e+06 max 1.28731e+06 min
Histogram: 1 0 0 0 0 0 0 0 0 0

Total # of neighbors = 1287313
Ave neighs/atom = 65.5054
Neighbor list builds = 1505
Dangerous builds not checked
Setting up Verlet run ...
  Unit style    : metal
  Current step  : 90000
  Time step     : 0.001
Per MPI rank memory allocation (min/avg/max) = 18.19 | 18.19 | 18.19 Mbytes
Step Temp Press TotEng PotEng Enthalpy 
   90000    1210.6759    391.20702   -58112.874   -61188.101   -58019.205 
   90495    1161.8686    706.92072   -58352.497   -61303.749   -58183.914 
Loop time of 62.4702 on 1 procs for 495 steps with 19652 atoms

Performance: 0.685 ns/day, 35.056 hours/ns, 7.924 timesteps/s
100.0% CPU use with 1 MPI tasks x no OpenMP threads

MPI task timing breakdown:
Section |  min time  |  avg time  |  max time  |%varavg| %total
---------------------------------------------------------------
Pair    | 33.765     | 33.765     | 33.765     |   0.0 | 54.05
Neigh   | 27.425     | 27.425     | 27.425     |   0.0 | 43.90
Comm    | 0.49061    | 0.49061    | 0.49061    |   0.0 |  0.79
Output  | 0.00024199 | 0.00024199 | 0.00024199 |   0.0 |  0.00
Modify  | 0.61887    | 0.61887    | 0.61887    |   0.0 |  0.99
Other   |            | 0.1706     |            |       |  0.27

[...]
Dangerous builds not checked
Setting up Verlet run ...
  Unit style    : metal
  Current step  : 120000
  Time step     : 0.001
Per MPI rank memory allocation (min/avg/max) = 18.2 | 18.2 | 18.2 Mbytes
Step Temp Press TotEng PotEng Enthalpy 
  120000    452.30691    -594.1064   -62895.187   -64044.088   -63025.643 
  120495    422.20919   -22.646021   -63058.199   -64130.649   -63063.156 
Loop time of 81.702 on 1 procs for 495 steps with 19652 atoms

Performance: 0.523 ns/day, 45.848 hours/ns, 6.059 timesteps/s
95.8% CPU use with 1 MPI tasks x no OpenMP threads

MPI task timing breakdown:
Section |  min time  |  avg time  |  max time  |%varavg| %total
---------------------------------------------------------------
Pair    | 44.044     | 44.044     | 44.044     |   0.0 | 53.91
Neigh   | 35.988     | 35.988     | 35.988     |   0.0 | 44.05
Comm    | 0.62283    | 0.62283    | 0.62283    |   0.0 |  0.76
Output  | 0.00036192 | 0.00036192 | 0.00036192 |   0.0 |  0.00
Modify  | 0.8082     | 0.8082     | 0.8082     |   0.0 |  0.99
Other   |            | 0.2384     |            |       |  0.29

Nlocal:    19652 ave 19652 max 19652 min
Histogram: 1 0 0 0 0 0 0 0 0 0
Nghost:    17901 ave 17901 max 17901 min
Histogram: 1 0 0 0 0 0 0 0 0 0
Neighs:    1.40948e+06 ave 1.40948e+06 max 1.40948e+06 min
Histogram: 1 0 0 0 0 0 0 0 0 0

Total # of neighbors = 1409479
Ave neighs/atom = 71.7219
Neighbor list builds = 495
Dangerous builds not checked
Setting up Verlet run ...
  Unit style    : metal
  Current step  : 120495
  Time step     : 0.001
Per MPI rank memory allocation (min/avg/max) = 18.2 | 18.2 | 18.2 Mbytes
Step Temp Press TotEng PotEng Enthalpy 
  120495    422.20919   -22.646021   -63058.199   -64130.649   -63063.156 
  122000    401.92522    679.22023   -63204.708   -64225.635    -63056.67 
Loop time of 256.572 on 1 procs for 1505 steps with 19652 atoms

Performance: 0.507 ns/day, 47.355 hours/ns, 5.866 timesteps/s
95.6% CPU use with 1 MPI tasks x no OpenMP threads

MPI task timing breakdown:
Section |  min time  |  avg time  |  max time  |%varavg| %total
---------------------------------------------------------------
Pair    | 139.83     | 139.83     | 139.83     |   0.0 | 54.50
Neigh   | 111.57     | 111.57     | 111.57     |   0.0 | 43.48
Comm    | 1.8723     | 1.8723     | 1.8723     |   0.0 |  0.73
Output  | 0.068789   | 0.068789   | 0.068789   |   0.0 |  0.03
Modify  | 2.5341     | 2.5341     | 2.5341     |   0.0 |  0.99
Other   |            | 0.7004     |            |       |  0.27

Nlocal:    19652 ave 19652 max 19652 min
Histogram: 1 0 0 0 0 0 0 0 0 0
Nghost:    17909 ave 17909 max 17909 min
Histogram: 1 0 0 0 0 0 0 0 0 0
Neighs:    1.41515e+06 ave 1.41515e+06 max 1.41515e+06 min
Histogram: 1 0 0 0 0 0 0 0 0 0

Total # of neighbors = 1415148
Ave neighs/atom = 72.0104
Neighbor list builds = 1505
Dangerous builds not checked
Setting up Verlet run ...
  Unit style    : metal
  Current step  : 122000
  Time step     : 0.001
Per MPI rank memory allocation (min/avg/max) = 18.2 | 18.2 | 18.2 Mbytes
Step Temp Press TotEng PotEng Enthalpy 
  122000    401.92522    679.22023   -63204.708   -64225.635    -63056.67 
  122495    372.10736    321.73094   -63369.259   -64314.446   -63299.231 
Loop time of 86.8509 on 1 procs for 495 steps with 19652 atoms

Performance: 0.492 ns/day, 48.738 hours/ns, 5.699 timesteps/s
96.4% CPU use with 1 MPI tasks x no OpenMP threads

MPI task timing breakdown:
Section |  min time  |  avg time  |  max time  |%varavg| %total
---------------------------------------------------------------
Pair    | 48.378     | 48.378     | 48.378     |   0.0 | 55.70
Neigh   | 36.716     | 36.716     | 36.716     |   0.0 | 42.27
Comm    | 0.64683    | 0.64683    | 0.64683    |   0.0 |  0.74
Output  | 0.00038791 | 0.00038791 | 0.00038791 |   0.0 |  0.00
Modify  | 0.87635    | 0.87635    | 0.87635    |   0.0 |  1.01
Other   |            | 0.234      |            |       |  0.27

Nlocal:    19652 ave 19652 max 19652 min
Histogram: 1 0 0 0 0 0 0 0 0 0
Nghost:    17891 ave 17891 max 17891 min
Histogram: 1 0 0 0 0 0 0 0 0 0
Neighs:    1.41749e+06 ave 1.41749e+06 max 1.41749e+06 min
Histogram: 1 0 0 0 0 0 0 0 0 0

Total # of neighbors = 1417494
Ave neighs/atom = 72.1298
Neighbor list builds = 495
Dangerous builds not checked
Setting up Verlet run ...
  Unit style    : metal
  Current step  : 122495
  Time step     : 0.001
Per MPI rank memory allocation (min/avg/max) = 18.2 | 18.2 | 18.2 Mbytes
Step Temp Press TotEng PotEng Enthalpy 
  122495    372.10736    321.73094   -63369.259   -64314.446   -63299.231 
  124000      351.644   -239.82617   -63510.917   -64404.124   -63563.029 
Loop time of 255.941 on 1 procs for 1505 steps with 19652 atoms

Performance: 0.508 ns/day, 47.239 hours/ns, 5.880 timesteps/s
94.5% CPU use with 1 MPI tasks x no OpenMP threads

MPI task timing breakdown:
Section |  min time  |  avg time  |  max time  |%varavg| %total
---------------------------------------------------------------
Pair    | 138.67     | 138.67     | 138.67     |   0.0 | 54.18
Neigh   | 112.09     | 112.09     | 112.09     |   0.0 | 43.79
Comm    | 1.8404     | 1.8404     | 1.8404     |   0.0 |  0.72
Output  | 0.072059   | 0.072059   | 0.072059   |   0.0 |  0.03
Modify  | 2.5928     | 2.5928     | 2.5928     |   0.0 |  1.01
Other   |            | 0.6849     |            |       |  0.27

Nlocal:    19652 ave 19652 max 19652 min
Histogram: 1 0 0 0 0 0 0 0 0 0
Nghost:    17991 ave 17991 max 17991 min
Histogram: 1 0 0 0 0 0 0 0 0 0
Neighs:    1.41956e+06 ave 1.41956e+06 max 1.41956e+06 min
Histogram: 1 0 0 0 0 0 0 0 0 0

Total # of neighbors = 1419556
Ave neighs/atom = 72.2347
Neighbor list builds = 1505
Dangerous builds not checked
Setting up Verlet run ...
  Unit style    : metal
  Current step  : 124000
  Time step     : 0.001
Per MPI rank memory allocation (min/avg/max) = 18.2 | 18.2 | 18.2 Mbytes
Step Temp Press TotEng PotEng Enthalpy 
  124000      351.644   -239.82617   -63510.917   -64404.124   -63563.029 
  124495    324.99449    58.377149   -63665.161   -64490.676   -63652.506 
Loop time of 86.4633 on 1 procs for 495 steps with 19652 atoms

Performance: 0.495 ns/day, 48.520 hours/ns, 5.725 timesteps/s
92.1% CPU use with 1 MPI tasks x no OpenMP threads

MPI task timing breakdown:
Section |  min time  |  avg time  |  max time  |%varavg| %total
---------------------------------------------------------------
Pair    | 46.911     | 46.911     | 46.911     |   0.0 | 54.26
Neigh   | 37.829     | 37.829     | 37.829     |   0.0 | 43.75
Comm    | 0.61028    | 0.61028    | 0.61028    |   0.0 |  0.71
Output  | 0.00037694 | 0.00037694 | 0.00037694 |   0.0 |  0.00
Modify  | 0.86195    | 0.86195    | 0.86195    |   0.0 |  1.00
Other   |            | 0.251      |            |       |  0.29

Nlocal:    19652 ave 19652 max 19652 min
Histogram: 1 0 0 0 0 0 0 0 0 0
Nghost:    17944 ave 17944 max 17944 min
Histogram: 1 0 0 0 0 0 0 0 0 0
Neighs:    1.42294e+06 ave 1.42294e+06 max 1.42294e+06 min
Histogram: 1 0 0 0 0 0 0 0 0 0

Total # of neighbors = 1422937
Ave neighs/atom = 72.4067
Neighbor list builds = 495
Dangerous builds not checked
Setting up Verlet run ...
  Unit style    : metal
  Current step  : 124495
  Time step     : 0.001
Per MPI rank memory allocation (min/avg/max) = 18.2 | 18.2 | 18.2 Mbytes
Step Temp Press TotEng PotEng Enthalpy 
  124495    324.99449    58.377149   -63665.161   -64490.676   -63652.506 
  126000     300.2961    61.072971    -63811.32   -64574.099   -63798.108 
Loop time of 270.924 on 1 procs for 1505 steps with 19652 atoms

Performance: 0.480 ns/day, 50.005 hours/ns, 5.555 timesteps/s
89.2% CPU use with 1 MPI tasks x no OpenMP threads

MPI task timing breakdown:
Section |  min time  |  avg time  |  max time  |%varavg| %total
---------------------------------------------------------------
Pair    | 146.97     | 146.97     | 146.97     |   0.0 | 54.25
Neigh   | 118.27     | 118.27     | 118.27     |   0.0 | 43.65
Comm    | 2.0248     | 2.0248     | 2.0248     |   0.0 |  0.75
Output  | 0.12961    | 0.12961    | 0.12961    |   0.0 |  0.05
Modify  | 2.7802     | 2.7802     | 2.7802     |   0.0 |  1.03
Other   |            | 0.7494     |            |       |  0.28

Nlocal:    19652 ave 19652 max 19652 min
Histogram: 1 0 0 0 0 0 0 0 0 0
Nghost:    17998 ave 17998 max 17998 min
Histogram: 1 0 0 0 0 0 0 0 0 0
Neighs:    1.42548e+06 ave 1.42548e+06 max 1.42548e+06 min
Histogram: 1 0 0 0 0 0 0 0 0 0

Total # of neighbors = 1425480
Ave neighs/atom = 72.5361
Neighbor list builds = 1505
Dangerous builds not checked
Setting up Verlet run ...
  Unit style    : metal
  Current step  : 126000
  Time step     : 0.001
Per MPI rank memory allocation (min/avg/max) = 18.2 | 18.2 | 18.2 Mbytes
Step Temp Press TotEng PotEng Enthalpy 
  126000     300.2961    61.072971    -63811.32   -64574.099   -63798.108 
  126495    275.93406   -68.972634   -63952.962    -64653.86   -63967.858 
Loop time of 90.5832 on 1 procs for 495 steps with 19652 atoms

Performance: 0.472 ns/day, 50.832 hours/ns, 5.465 timesteps/s
86.5% CPU use with 1 MPI tasks x no OpenMP threads

MPI task timing breakdown:
Section |  min time  |  avg time  |  max time  |%varavg| %total
---------------------------------------------------------------
Pair    | 49.154     | 49.154     | 49.154     |   0.0 | 54.26
Neigh   | 39.625     | 39.625     | 39.625     |   0.0 | 43.74
Comm    | 0.66623    | 0.66623    | 0.66623    |   0.0 |  0.74
Output  | 0.00037885 | 0.00037885 | 0.00037885 |   0.0 |  0.00
Modify  | 0.90927    | 0.90927    | 0.90927    |   0.0 |  1.00
Other   |            | 0.2284     |            |       |  0.25

Nlocal:    19652 ave 19652 max 19652 min
Histogram: 1 0 0 0 0 0 0 0 0 0
Nghost:    17996 ave 17996 max 17996 min
Histogram: 1 0 0 0 0 0 0 0 0 0
Neighs:    1.42825e+06 ave 1.42825e+06 max 1.42825e+06 min
Histogram: 1 0 0 0 0 0 0 0 0 0

Total # of neighbors = 1428247
Ave neighs/atom = 72.6769
Neighbor list builds = 495
Dangerous builds not checked
Setting up Verlet run ...
  Unit style    : metal
  Current step  : 126495
  Time step     : 0.001
Per MPI rank memory allocation (min/avg/max) = 18.2 | 18.2 | 18.2 Mbytes
Step Temp Press TotEng PotEng Enthalpy 
  126495    275.93406   -68.972634   -63952.962    -64653.86   -63967.858 
  128000    249.97147    455.41741   -64094.481   -64729.432   -63996.345 
Loop time of 274.118 on 1 procs for 1505 steps with 19652 atoms

Performance: 0.474 ns/day, 50.594 hours/ns, 5.490 timesteps/s
87.6% CPU use with 1 MPI tasks x no OpenMP threads

MPI task timing breakdown:
Section |  min time  |  avg time  |  max time  |%varavg| %total
---------------------------------------------------------------
Pair    | 148.51     | 148.51     | 148.51     |   0.0 | 54.18
Neigh   | 120        | 120        | 120        |   0.0 | 43.78
Comm    | 2.0262     | 2.0262     | 2.0262     |   0.0 |  0.74
Output  | 0.07686    | 0.07686    | 0.07686    |   0.0 |  0.03
Modify  | 2.7644     | 2.7644     | 2.7644     |   0.0 |  1.01
Other   |            | 0.7332     |            |       |  0.27

Nlocal:    19652 ave 19652 max 19652 min
Histogram: 1 0 0 0 0 0 0 0 0 0
Nghost:    18058 ave 18058 max 18058 min
Histogram: 1 0 0 0 0 0 0 0 0 0
Neighs:    1.43104e+06 ave 1.43104e+06 max 1.43104e+06 min
Histogram: 1 0 0 0 0 0 0 0 0 0

Total # of neighbors = 1431037
Ave neighs/atom = 72.8189
Neighbor list builds = 1505
Dangerous builds not checked
Setting up Verlet run ...
  Unit style    : metal
  Current step  : 128000
  Time step     : 0.001
Per MPI rank memory allocation (min/avg/max) = 18.2 | 18.2 | 18.2 Mbytes
Step Temp Press TotEng PotEng Enthalpy 
  128000    249.97147    455.41741   -64094.481   -64729.432   -63996.345 
  128495    224.59566   -620.22903    -64230.14   -64800.633   -64363.756 
Loop time of 93.0427 on 1 procs for 495 steps with 19652 atoms

Performance: 0.460 ns/day, 52.213 hours/ns, 5.320 timesteps/s
83.2% CPU use with 1 MPI tasks x no OpenMP threads

MPI task timing breakdown:
Section |  min time  |  avg time  |  max time  |%varavg| %total
---------------------------------------------------------------
Pair    | 50.298     | 50.298     | 50.298     |   0.0 | 54.06
Neigh   | 40.898     | 40.898     | 40.898     |   0.0 | 43.96
Comm    | 0.61995    | 0.61995    | 0.61995    |   0.0 |  0.67
Output  | 0.00025392 | 0.00025392 | 0.00025392 |   0.0 |  0.00
Modify  | 0.95551    | 0.95551    | 0.95551    |   0.0 |  1.03
Other   |            | 0.2709     |            |       |  0.29

Nlocal:    19652 ave 19652 max 19652 min
Histogram: 1 0 0 0 0 0 0 0 0 0
Nghost:    18023 ave 18023 max 18023 min
Histogram: 1 0 0 0 0 0 0 0 0 0
Neighs:    1.43168e+06 ave 1.43168e+06 max 1.43168e+06 min
Histogram: 1 0 0 0 0 0 0 0 0 0

Total # of neighbors = 1431683
Ave neighs/atom = 72.8518
Neighbor list builds = 495
Dangerous builds not checked
Setting up Verlet run ...
  Unit style    : metal
  Current step  : 128495
  Time step     : 0.001
Per MPI rank memory allocation (min/avg/max) = 18.2 | 18.2 | 18.2 Mbytes
Step Temp Press TotEng PotEng Enthalpy 
  128495    224.59566   -620.22903    -64230.14   -64800.633   -64363.756 
  130000    198.77527   -22.250603   -64367.938   -64872.845    -64372.72 
Loop time of 275.364 on 1 procs for 1505 steps with 19652 atoms

Performance: 0.472 ns/day, 50.824 hours/ns, 5.465 timesteps/s
86.4% CPU use with 1 MPI tasks x no OpenMP threads

MPI task timing breakdown:
Section |  min time  |  avg time  |  max time  |%varavg| %total
---------------------------------------------------------------
Pair    | 148.61     | 148.61     | 148.61     |   0.0 | 53.97
Neigh   | 120.39     | 120.39     | 120.39     |   0.0 | 43.72
Comm    | 1.9788     | 1.9788     | 1.9788     |   0.0 |  0.72
Output  | 0.8399     | 0.8399     | 0.8399     |   0.0 |  0.31
Modify  | 2.7586     | 2.7586     | 2.7586     |   0.0 |  1.00
Other   |            | 0.7816     |            |       |  0.28

Nlocal:    19652 ave 19652 max 19652 min
Histogram: 1 0 0 0 0 0 0 0 0 0
Nghost:    18011 ave 18011 max 18011 min
Histogram: 1 0 0 0 0 0 0 0 0 0
Neighs:    1.43469e+06 ave 1.43469e+06 max 1.43469e+06 min
Histogram: 1 0 0 0 0 0 0 0 0 0

Total # of neighbors = 1434688
Ave neighs/atom = 73.0047
Neighbor list builds = 1505
Dangerous builds not checked
Setting up Verlet run ...
  Unit style    : metal
  Current step  : 130000
  Time step     : 0.001
Per MPI rank memory allocation (min/avg/max) = 18.2 | 18.2 | 18.2 Mbytes
Step Temp Press TotEng PotEng Enthalpy 
  130000    198.77527   -22.250603   -64367.938   -64872.845    -64372.72 
  130495     174.9398   -12.187981   -64496.309   -64940.672   -64498.924 
Loop time of 84.7917 on 1 procs for 495 steps with 19652 atoms

Performance: 0.504 ns/day, 47.582 hours/ns, 5.838 timesteps/s
93.5% CPU use with 1 MPI tasks x no OpenMP threads

MPI task timing breakdown:
Section |  min time  |  avg time  |  max time  |%varavg| %total
---------------------------------------------------------------
Pair    | 46.178     | 46.178     | 46.178     |   0.0 | 54.46
Neigh   | 36.875     | 36.875     | 36.875     |   0.0 | 43.49
Comm    | 0.62259    | 0.62259    | 0.62259    |   0.0 |  0.73
Output  | 0.00034499 | 0.00034499 | 0.00034499 |   0.0 |  0.00
Modify  | 0.88221    | 0.88221    | 0.88221    |   0.0 |  1.04
Other   |            | 0.2343     |            |       |  0.28

Nlocal:    19652 ave 19652 max 19652 min
Histogram: 1 0 0 0 0 0 0 0 0 0
Nghost:    18091 ave 18091 max 18091 min
Histogram: 1 0 0 0 0 0 0 0 0 0
Neighs:    1.43698e+06 ave 1.43698e+06 max 1.43698e+06 min
Histogram: 1 0 0 0 0 0 0 0 0 0

Total # of neighbors = 1436982
Ave neighs/atom = 73.1214
Neighbor list builds = 495
Dangerous builds not checked
Setting up Verlet run ...
  Unit style    : metal
  Current step  : 130495
  Time step     : 0.001
Per MPI rank memory allocation (min/avg/max) = 18.2 | 18.2 | 18.2 Mbytes
Step Temp Press TotEng PotEng Enthalpy 
  130495     174.9398   -12.187981   -64496.309   -64940.672   -64498.924 
  132000    149.65457   -614.60363   -64640.405   -65020.541   -64772.228 
Loop time of 258.051 on 1 procs for 1505 steps with 19652 atoms

Performance: 0.504 ns/day, 47.629 hours/ns, 5.832 timesteps/s
91.9% CPU use with 1 MPI tasks x no OpenMP threads

MPI task timing breakdown:
Section |  min time  |  avg time  |  max time  |%varavg| %total
---------------------------------------------------------------
Pair    | 139.33     | 139.33     | 139.33     |   0.0 | 53.99
Neigh   | 113.56     | 113.56     | 113.56     |   0.0 | 44.01
Comm    | 1.8293     | 1.8293     | 1.8293     |   0.0 |  0.71
Output  | 0.068569   | 0.068569   | 0.068569   |   0.0 |  0.03
Modify  | 2.5909     | 2.5909     | 2.5909     |   0.0 |  1.00
Other   |            | 0.6663     |            |       |  0.26

Nlocal:    19652 ave 19652 max 19652 min
Histogram: 1 0 0 0 0 0 0 0 0 0
Nghost:    18080 ave 18080 max 18080 min
Histogram: 1 0 0 0 0 0 0 0 0 0
Neighs:    1.43726e+06 ave 1.43726e+06 max 1.43726e+06 min
Histogram: 1 0 0 0 0 0 0 0 0 0

Total # of neighbors = 1437263
Ave neighs/atom = 73.1357
Neighbor list builds = 1505
Dangerous builds not checked
Setting up Verlet run ...
  Unit style    : metal
  Current step  : 132000
  Time step     : 0.001
Per MPI rank memory allocation (min/avg/max) = 18.2 | 18.2 | 18.2 Mbytes
Step Temp Press TotEng PotEng Enthalpy 
  132000    149.65457   -614.60363   -64640.405   -65020.541   -64772.228 
  132495    126.41847   -101.64086   -64757.046   -65078.161   -64778.799 
Loop time of 85.9753 on 1 procs for 495 steps with 19652 atoms

Performance: 0.497 ns/day, 48.247 hours/ns, 5.757 timesteps/s
91.8% CPU use with 1 MPI tasks x no OpenMP threads

MPI task timing breakdown:
Section |  min time  |  avg time  |  max time  |%varavg| %total
---------------------------------------------------------------
Pair    | 46.968     | 46.968     | 46.968     |   0.0 | 54.63
Neigh   | 37.271     | 37.271     | 37.271     |   0.0 | 43.35
Comm    | 0.63497    | 0.63497    | 0.63497    |   0.0 |  0.74
Output  | 0.00033689 | 0.00033689 | 0.00033689 |   0.0 |  0.00
Modify  | 0.86633    | 0.86633    | 0.86633    |   0.0 |  1.01
Other   |            | 0.2342     |            |       |  0.27

Nlocal:    19652 ave 19652 max 19652 min
Histogram: 1 0 0 0 0 0 0 0 0 0
Nghost:    18056 ave 18056 max 18056 min
Histogram: 1 0 0 0 0 0 0 0 0 0
Neighs:    1.44038e+06 ave 1.44038e+06 max 1.44038e+06 min
Histogram: 1 0 0 0 0 0 0 0 0 0

Total # of neighbors = 1440379
Ave neighs/atom = 73.2943
Neighbor list builds = 495
Dangerous builds not checked
Setting up Verlet run ...
  Unit style    : metal
  Current step  : 132495
  Time step     : 0.001
Per MPI rank memory allocation (min/avg/max) = 18.2 | 18.2 | 18.2 Mbytes
Step Temp Press TotEng PotEng Enthalpy 
  132495    126.41847   -101.64086   -64757.046   -65078.161   -64778.799 
  134000    99.176802    313.42799   -64905.621   -65157.539   -64838.662 
Loop time of 263.719 on 1 procs for 1505 steps with 19652 atoms

Performance: 0.493 ns/day, 48.675 hours/ns, 5.707 timesteps/s
89.6% CPU use with 1 MPI tasks x no OpenMP threads

MPI task timing breakdown:
Section |  min time  |  avg time  |  max time  |%varavg| %total
---------------------------------------------------------------
Pair    | 142.77     | 142.77     | 142.77     |   0.0 | 54.14
Neigh   | 115.24     | 115.24     | 115.24     |   0.0 | 43.70
Comm    | 1.9404     | 1.9404     | 1.9404     |   0.0 |  0.74
Output  | 0.35344    | 0.35344    | 0.35344    |   0.0 |  0.13
Modify  | 2.6938     | 2.6938     | 2.6938     |   0.0 |  1.02
Other   |            | 0.7207     |            |       |  0.27

Nlocal:    19652 ave 19652 max 19652 min
Histogram: 1 0 0 0 0 0 0 0 0 0
Nghost:    18073 ave 18073 max 18073 min
Histogram: 1 0 0 0 0 0 0 0 0 0
Neighs:    1.44276e+06 ave 1.44276e+06 max 1.44276e+06 min
Histogram: 1 0 0 0 0 0 0 0 0 0

Total # of neighbors = 1442760
Ave neighs/atom = 73.4154
Neighbor list builds = 1505
Dangerous builds not checked
Total wall time: 6:05:20
