LAMMPS (12 Dec 2018)
Lattice spacing in x,y,z = 4 4 4
Created orthogonal box = (0 0 0) to (68 68 68)
  1 by 1 by 1 MPI processor grid
Created 19652 atoms
  Time spent = 0.00963879 secs
Setting atom values ...
  19480 settings made for type/fraction
Neighbor list info ...
  update every 1 steps, delay 0 steps, check no
  max neighbors/atom: 2000, page size: 100000
  master list distance cutoff = 8.5
  ghost atom cutoff = 8.5
  binsize = 4.25, bins = 16 16 16
  1 neighbor lists, perpetual/occasional/extra = 1 0 0
  (1) pair eam/alloy, perpetual
      attributes: half, newton on
      pair build: half/bin/atomonly/newton
      stencil: half/bin/3d/newton
      bin: standard
Setting up Verlet run ...
  Unit style    : metal
  Current step  : 0
  Time step     : 0.001
Per MPI rank memory allocation (min/avg/max) = 18.19 | 18.19 | 18.19 Mbytes
Step Temp Press TotEng PotEng Enthalpy Volume 
       0          300    58241.258   -55124.656   -55886.684   -43694.633       314432 
    1000     153.7094    64912.742   -55124.607   -55515.043   -42385.284       314432 
Loop time of 165.429 on 1 procs for 1000 steps with 19652 atoms

Performance: 0.522 ns/day, 45.953 hours/ns, 6.045 timesteps/s
85.7% CPU use with 1 MPI tasks x no OpenMP threads

MPI task timing breakdown:
Section |  min time  |  avg time  |  max time  |%varavg| %total
---------------------------------------------------------------
Pair    | 96.065     | 96.065     | 96.065     |   0.0 | 58.07
Neigh   | 65.388     | 65.388     | 65.388     |   0.0 | 39.53
Comm    | 2.1176     | 2.1176     | 2.1176     |   0.0 |  1.28
Output  | 0.052998   | 0.052998   | 0.052998   |   0.0 |  0.03
Modify  | 0.89729    | 0.89729    | 0.89729    |   0.0 |  0.54
Other   |            | 0.9082     |            |       |  0.55

Nlocal:    19652 ave 19652 max 19652 min
Histogram: 1 0 0 0 0 0 0 0 0 0
Nghost:    20102 ave 20102 max 20102 min
Histogram: 1 0 0 0 0 0 0 0 0 0
Neighs:    1.57442e+06 ave 1.57442e+06 max 1.57442e+06 min
Histogram: 1 0 0 0 0 0 0 0 0 0

Total # of neighbors = 1574415
Ave neighs/atom = 80.1147
Neighbor list builds = 1000
Dangerous builds not checked
Setting up Verlet run ...
  Unit style    : metal
  Current step  : 1000
  Time step     : 0.001
Per MPI rank memory allocation (min/avg/max) = 18.19 | 18.19 | 18.19 Mbytes
Step Temp Press TotEng PotEng Enthalpy Volume 
    1000     153.7094    64912.742   -55124.607   -55515.043   -42385.284       314432 
    2000    291.13568   -92.368719   -54649.399    -55388.91   -54668.804    336581.43 
Loop time of 155.973 on 1 procs for 1000 steps with 19652 atoms

Performance: 0.554 ns/day, 43.326 hours/ns, 6.411 timesteps/s
87.2% CPU use with 1 MPI tasks x no OpenMP threads

MPI task timing breakdown:
Section |  min time  |  avg time  |  max time  |%varavg| %total
---------------------------------------------------------------
Pair    | 87.86      | 87.86      | 87.86      |   0.0 | 56.33
Neigh   | 63.643     | 63.643     | 63.643     |   0.0 | 40.80
Comm    | 1.6043     | 1.6043     | 1.6043     |   0.0 |  1.03
Output  | 0.04322    | 0.04322    | 0.04322    |   0.0 |  0.03
Modify  | 1.9933     | 1.9933     | 1.9933     |   0.0 |  1.28
Other   |            | 0.8284     |            |       |  0.53

Nlocal:    19652 ave 19652 max 19652 min
Histogram: 1 0 0 0 0 0 0 0 0 0
Nghost:    20097 ave 20097 max 20097 min
Histogram: 1 0 0 0 0 0 0 0 0 0
Neighs:    1.41064e+06 ave 1.41064e+06 max 1.41064e+06 min
Histogram: 1 0 0 0 0 0 0 0 0 0

Total # of neighbors = 1410640
Ave neighs/atom = 71.781
Neighbor list builds = 1000
Dangerous builds not checked
Setting up Verlet run ...
  Unit style    : metal
  Current step  : 2000
  Time step     : 0.001
Per MPI rank memory allocation (min/avg/max) = 18.19 | 18.19 | 18.19 Mbytes
Step Temp Press TotEng PotEng Enthalpy Volume 
    2000    291.13568   -92.368719   -54649.399    -55388.91   -54668.804    336581.43 
    3000    469.39107   -262.47576   -53699.928   -54892.224   -53755.789     340981.8 
    4000    790.03403    344.31277   -51837.191    -53843.95   -51761.849    350585.27 
    5000    1086.8589    512.92619   -49992.137   -52752.857   -49876.362    361633.86 
    6000    1339.4921   -125.94503   -48007.013   -51409.444     -48036.6    376389.39 
    7000    1601.5535    43.153381   -45289.717   -49357.808   -45278.879    402382.99 
    8000    1911.2974   -434.64635   -43161.345   -48016.215   -43276.035    422767.28 
    9000    2170.6523    204.71754   -41581.351   -47095.005   -41525.477    437279.42 
   10000    2435.1507    319.46895   -39867.701   -46053.205   -39776.806    455849.41 
Loop time of 1116.65 on 1 procs for 8000 steps with 19652 atoms

Performance: 0.619 ns/day, 38.773 hours/ns, 7.164 timesteps/s
91.0% CPU use with 1 MPI tasks x no OpenMP threads

MPI task timing breakdown:
Section |  min time  |  avg time  |  max time  |%varavg| %total
---------------------------------------------------------------
Pair    | 601.93     | 601.93     | 601.93     |   0.0 | 53.90
Neigh   | 482.35     | 482.35     | 482.35     |   0.0 | 43.20
Comm    | 11.096     | 11.096     | 11.096     |   0.0 |  0.99
Output  | 0.33584    | 0.33584    | 0.33584    |   0.0 |  0.03
Modify  | 14.575     | 14.575     | 14.575     |   0.0 |  1.31
Other   |            | 6.365      |            |       |  0.57

Nlocal:    19652 ave 19652 max 19652 min
Histogram: 1 0 0 0 0 0 0 0 0 0
Nghost:    16181 ave 16181 max 16181 min
Histogram: 1 0 0 0 0 0 0 0 0 0
Neighs:    1.08458e+06 ave 1.08458e+06 max 1.08458e+06 min
Histogram: 1 0 0 0 0 0 0 0 0 0

Total # of neighbors = 1084577
Ave neighs/atom = 55.1891
Neighbor list builds = 8000
Dangerous builds not checked
Setting up Verlet run ...
  Unit style    : metal
  Current step  : 10000
  Time step     : 0.001
Per MPI rank memory allocation (min/avg/max) = 18.2 | 18.2 | 18.2 Mbytes
Step Temp Press TotEng PotEng Enthalpy Volume 
   10000    2435.1507    319.46895   -39867.701   -46053.205   -39776.806    455849.41 
   11000    2449.9239    -487.3944   -39682.373   -45905.403    -39822.37    460200.76 
   12000    2466.8204    331.18828   -39643.493   -45909.441   -39548.671    458712.58 
   13000    2455.4166   -664.22466   -39632.277   -45869.259   -39823.251    460647.76 
   14000    2468.6705    -214.7495    -39627.72   -45898.368   -39689.254    459086.29 
   15000    2447.8598   -90.514029   -39630.573    -45848.36   -39656.607     460817.7 
   16000    2449.9796     -547.053   -39682.373   -45905.544   -39839.494    460168.24 
   17000    2447.0288    272.30963   -39707.908   -45923.584   -39629.934    458768.14 
   18000    2484.8445     36.98502   -39574.518    -45886.25   -39563.897    460115.94 
   19000    2462.1986    983.63481   -39598.432   -45852.641   -39316.048    459955.61 
   20000    2452.1298    711.33818    -39781.85   -46010.483   -39579.054    456765.25 
   21000     2465.453   -554.68804   -39526.731   -45789.206    -39686.56    461654.68 
   22000    2436.6566   -818.21364   -39628.902   -45818.232   -39864.267    460877.27 
   23000    2445.4249    311.14949   -39747.903   -45959.505   -39659.006    457752.18 
   24000    2420.6329    567.51324   -39806.127   -45954.755   -39644.057    457549.15 
   25000    2479.8335    1078.5422   -39616.216   -45915.219   -39307.846    458084.06 
   26000     2464.508    484.30422    -39693.82   -45953.895   -39555.331    458152.18 
   27000      2437.58   -865.52918    -39668.89   -45860.566   -39917.961    461052.49 
   28000    2443.0402   -1440.3975   -39701.442   -45906.986   -40115.494    460556.63 
   29000    2451.1422   -131.49976   -39593.386    -45819.51   -39631.205    460782.36 
   30000    2459.0061   -1029.3061   -39628.259   -45874.358   -39924.225    460688.98 
   31000     2464.042    521.52077   -39598.225   -45857.116   -39448.578    459735.38 
   32000    2449.5654    339.94907    -39693.05   -45915.169   -39595.605    459256.36 
   33000    2451.6212   -836.38127   -39651.089    -45878.43   -39891.533    460595.17 
   34000    2441.5471    1034.1279   -39705.718    -45907.47   -39409.787    458486.09 
   35000    2470.2242   -130.21134   -39599.239   -45873.833   -39636.587    459545.81 
   36000    2458.8001    61.606434    -39660.13   -45905.706   -39642.473    459199.87 
   37000    2454.2698    498.27157   -39618.775   -45852.844   -39475.646    460225.57 
   38000    2457.9704   -221.55724   -39740.038   -45983.506   -39803.333    457719.06 
   39000    2427.3743    -817.1305   -39689.125   -45854.877   -39924.108    460739.95 
   40000    2453.6175    272.04358   -39707.443   -45939.855   -39629.606    458413.28 
Loop time of 3393.83 on 1 procs for 30000 steps with 19652 atoms

Performance: 0.764 ns/day, 31.424 hours/ns, 8.840 timesteps/s
99.4% CPU use with 1 MPI tasks x no OpenMP threads

MPI task timing breakdown:
Section |  min time  |  avg time  |  max time  |%varavg| %total
---------------------------------------------------------------
Pair    | 1802.3     | 1802.3     | 1802.3     |   0.0 | 53.11
Neigh   | 1481.2     | 1481.2     | 1481.2     |   0.0 | 43.64
Comm    | 35.694     | 35.694     | 35.694     |   0.0 |  1.05
Output  | 1.3051     | 1.3051     | 1.3051     |   0.0 |  0.04
Modify  | 51.646     | 51.646     | 51.646     |   0.0 |  1.52
Other   |            | 21.71      |            |       |  0.64

Nlocal:    19652 ave 19652 max 19652 min
Histogram: 1 0 0 0 0 0 0 0 0 0
Nghost:    15931 ave 15931 max 15931 min
Histogram: 1 0 0 0 0 0 0 0 0 0
Neighs:    1.07743e+06 ave 1.07743e+06 max 1.07743e+06 min
Histogram: 1 0 0 0 0 0 0 0 0 0

Total # of neighbors = 1077426
Ave neighs/atom = 54.8253
Neighbor list builds = 30000
Dangerous builds not checked
Setting up Verlet run ...
  Unit style    : metal
  Current step  : 40000
  Time step     : 0.001
Per MPI rank memory allocation (min/avg/max) = 18.2 | 18.2 | 18.2 Mbytes
Step Temp Press TotEng PotEng Enthalpy Volume 
   40000    2453.6175    272.04358   -39707.443   -45939.855   -39629.606    458413.28 
   40495    2419.1906   -289.64132   -39849.752   -45994.716   -39932.558    458049.55 
Loop time of 51.8523 on 1 procs for 495 steps with 19652 atoms

Performance: 0.825 ns/day, 29.098 hours/ns, 9.546 timesteps/s
99.1% CPU use with 1 MPI tasks x no OpenMP threads

MPI task timing breakdown:
Section |  min time  |  avg time  |  max time  |%varavg| %total
---------------------------------------------------------------
Pair    | 27.413     | 27.413     | 27.413     |   0.0 | 52.87
Neigh   | 22.885     | 22.885     | 22.885     |   0.0 | 44.13
Comm    | 0.50035    | 0.50035    | 0.50035    |   0.0 |  0.96
Output  | 0.00022602 | 0.00022602 | 0.00022602 |   0.0 |  0.00
Modify  | 0.7466     | 0.7466     | 0.7466     |   0.0 |  1.44
Other   |            | 0.3074     |            |       |  0.59

Nlocal:    19652 ave 19652 max 19652 min
Histogram: 1 0 0 0 0 0 0 0 0 0
Nghost:    16042 ave 16042 max 16042 min
Histogram: 1 0 0 0 0 0 0 0 0 0
Neighs:    1.07835e+06 ave 1.07835e+06 max 1.07835e+06 min
Histogram: 1 0 0 0 0 0 0 0 0 0

Total # of neighbors = 1078346
Ave neighs/atom = 54.8721
Neighbor list builds = 495
Dangerous builds not checked
Setting up Verlet run ...
  Unit style    : metal
  Current step  : 40495
  Time step     : 0.001
Per MPI rank memory allocation (min/avg/max) = 18.2 | 18.2 | 18.2 Mbytes
Step Temp Press TotEng PotEng Enthalpy Volume 
   40495    2419.1906   -289.64132   -39849.752   -45994.716   -39932.558    458049.55 
   41000     2403.805    714.57829   -39966.356    -46072.24   -39763.192    455519.42 
Loop time of 57.4302 on 1 procs for 505 steps with 19652 atoms

Performance: 0.760 ns/day, 31.590 hours/ns, 8.793 timesteps/s
99.8% CPU use with 1 MPI tasks x no OpenMP threads

MPI task timing breakdown:
Section |  min time  |  avg time  |  max time  |%varavg| %total
---------------------------------------------------------------
Pair    | 30.857     | 30.857     | 30.857     |   0.0 | 53.73
Neigh   | 24.578     | 24.578     | 24.578     |   0.0 | 42.80
Comm    | 0.63477    | 0.63477    | 0.63477    |   0.0 |  1.11
Output  | 0.045845   | 0.045845   | 0.045845   |   0.0 |  0.08
Modify  | 0.91869    | 0.91869    | 0.91869    |   0.0 |  1.60
Other   |            | 0.3957     |            |       |  0.69

Nlocal:    19652 ave 19652 max 19652 min
Histogram: 1 0 0 0 0 0 0 0 0 0
Nghost:    16209 ave 16209 max 16209 min
Histogram: 1 0 0 0 0 0 0 0 0 0
Neighs:    1.0841e+06 ave 1.0841e+06 max 1.0841e+06 min
Histogram: 1 0 0 0 0 0 0 0 0 0

Total # of neighbors = 1084102
Ave neighs/atom = 55.165
Neighbor list builds = 505
Dangerous builds not checked
Setting up Verlet run ...
  Unit style    : metal
  Current step  : 41000
  Time step     : 0.001
Per MPI rank memory allocation (min/avg/max) = 18.2 | 18.2 | 18.2 Mbytes
Step Temp Press TotEng PotEng Enthalpy Volume 
   41000     2403.805    714.57829   -39966.356    -46072.24   -39763.192    455519.42 
   41495     2372.124   -176.92363   -40173.441   -46198.852   -40223.592    454154.58 
Loop time of 56.3493 on 1 procs for 495 steps with 19652 atoms

Performance: 0.759 ns/day, 31.621 hours/ns, 8.784 timesteps/s
99.8% CPU use with 1 MPI tasks x no OpenMP threads

MPI task timing breakdown:
Section |  min time  |  avg time  |  max time  |%varavg| %total
---------------------------------------------------------------
Pair    | 30.32      | 30.32      | 30.32      |   0.0 | 53.81
Neigh   | 24.125     | 24.125     | 24.125     |   0.0 | 42.81
Comm    | 0.62597    | 0.62597    | 0.62597    |   0.0 |  1.11
Output  | 0.00041699 | 0.00041699 | 0.00041699 |   0.0 |  0.00
Modify  | 0.8954     | 0.8954     | 0.8954     |   0.0 |  1.59
Other   |            | 0.382      |            |       |  0.68

Nlocal:    19652 ave 19652 max 19652 min
Histogram: 1 0 0 0 0 0 0 0 0 0
Nghost:    16195 ave 16195 max 16195 min
Histogram: 1 0 0 0 0 0 0 0 0 0
Neighs:    1.08799e+06 ave 1.08799e+06 max 1.08799e+06 min
Histogram: 1 0 0 0 0 0 0 0 0 0

Total # of neighbors = 1087991
Ave neighs/atom = 55.3629
Neighbor list builds = 495
Dangerous builds not checked
Setting up Verlet run ...
  Unit style    : metal
  Current step  : 41495
  Time step     : 0.001
Per MPI rank memory allocation (min/avg/max) = 18.2 | 18.2 | 18.2 Mbytes
Step Temp Press TotEng PotEng Enthalpy Volume 
   41495     2372.124   -176.92363   -40173.441   -46198.852   -40223.592    454154.58 
   42000    2331.5665    596.81097   -40282.295   -46204.687   -40113.577    452936.02 
Loop time of 57.3862 on 1 procs for 505 steps with 19652 atoms

Performance: 0.760 ns/day, 31.566 hours/ns, 8.800 timesteps/s
99.5% CPU use with 1 MPI tasks x no OpenMP threads

MPI task timing breakdown:
Section |  min time  |  avg time  |  max time  |%varavg| %total
---------------------------------------------------------------
Pair    | 30.918     | 30.918     | 30.918     |   0.0 | 53.88
Neigh   | 24.462     | 24.462     | 24.462     |   0.0 | 42.63
Comm    | 0.63771    | 0.63771    | 0.63771    |   0.0 |  1.11
Output  | 0.041594   | 0.041594   | 0.041594   |   0.0 |  0.07
Modify  | 0.93791    | 0.93791    | 0.93791    |   0.0 |  1.63
Other   |            | 0.3888     |            |       |  0.68

Nlocal:    19652 ave 19652 max 19652 min
Histogram: 1 0 0 0 0 0 0 0 0 0
Nghost:    16181 ave 16181 max 16181 min
Histogram: 1 0 0 0 0 0 0 0 0 0
Neighs:    1.0913e+06 ave 1.0913e+06 max 1.0913e+06 min
Histogram: 1 0 0 0 0 0 0 0 0 0

Total # of neighbors = 1091297
Ave neighs/atom = 55.5311
Neighbor list builds = 505
Dangerous builds not checked
Setting up Verlet run ...
  Unit style    : metal
  Current step  : 42000
  Time step     : 0.001
Per MPI rank memory allocation (min/avg/max) = 18.2 | 18.2 | 18.2 Mbytes
Step Temp Press TotEng PotEng Enthalpy Volume 
   42000    2331.5665    596.81097   -40282.295   -46204.687   -40113.577    452936.02 
   42495    2320.3812    423.11598   -40513.634   -46407.614   -40394.905     449581.4 
Loop time of 56.0101 on 1 procs for 495 steps with 19652 atoms

Performance: 0.764 ns/day, 31.431 hours/ns, 8.838 timesteps/s
99.6% CPU use with 1 MPI tasks x no OpenMP threads

MPI task timing breakdown:
Section |  min time  |  avg time  |  max time  |%varavg| %total
---------------------------------------------------------------
Pair    | 30.173     | 30.173     | 30.173     |   0.0 | 53.87
Neigh   | 23.99      | 23.99      | 23.99      |   0.0 | 42.83
Comm    | 0.60093    | 0.60093    | 0.60093    |   0.0 |  1.07
Output  | 0.00026512 | 0.00026512 | 0.00026512 |   0.0 |  0.00
Modify  | 0.87329    | 0.87329    | 0.87329    |   0.0 |  1.56
Other   |            | 0.3733     |            |       |  0.67

Nlocal:    19652 ave 19652 max 19652 min
Histogram: 1 0 0 0 0 0 0 0 0 0
Nghost:    16235 ave 16235 max 16235 min
Histogram: 1 0 0 0 0 0 0 0 0 0
Neighs:    1.0994e+06 ave 1.0994e+06 max 1.0994e+06 min
Histogram: 1 0 0 0 0 0 0 0 0 0

Total # of neighbors = 1099402
Ave neighs/atom = 55.9435
Neighbor list builds = 495
Dangerous builds not checked
Setting up Verlet run ...
  Unit style    : metal
  Current step  : 42495
  Time step     : 0.001
Per MPI rank memory allocation (min/avg/max) = 18.2 | 18.2 | 18.2 Mbytes
Step Temp Press TotEng PotEng Enthalpy Volume 
   42495    2320.3812    423.11598   -40513.634   -46407.614   -40394.905     449581.4 
   43000    2297.5248    86.118751   -40652.175   -46488.097   -40628.079     448285.4 
Loop time of 56.0663 on 1 procs for 505 steps with 19652 atoms

Performance: 0.778 ns/day, 30.840 hours/ns, 9.007 timesteps/s
99.2% CPU use with 1 MPI tasks x no OpenMP threads

MPI task timing breakdown:
Section |  min time  |  avg time  |  max time  |%varavg| %total
---------------------------------------------------------------
Pair    | 30.024     | 30.024     | 30.024     |   0.0 | 53.55
Neigh   | 24.204     | 24.204     | 24.204     |   0.0 | 43.17
Comm    | 0.57804    | 0.57804    | 0.57804    |   0.0 |  1.03
Output  | 0.045414   | 0.045414   | 0.045414   |   0.0 |  0.08
Modify  | 0.85094    | 0.85094    | 0.85094    |   0.0 |  1.52
Other   |            | 0.3639     |            |       |  0.65

Nlocal:    19652 ave 19652 max 19652 min
Histogram: 1 0 0 0 0 0 0 0 0 0
Nghost:    16218 ave 16218 max 16218 min
Histogram: 1 0 0 0 0 0 0 0 0 0
Neighs:    1.10246e+06 ave 1.10246e+06 max 1.10246e+06 min
Histogram: 1 0 0 0 0 0 0 0 0 0

Total # of neighbors = 1102463
Ave neighs/atom = 56.0993
Neighbor list builds = 505
Dangerous builds not checked
Setting up Verlet run ...
  Unit style    : metal
  Current step  : 43000
  Time step     : 0.001
Per MPI rank memory allocation (min/avg/max) = 18.2 | 18.2 | 18.2 Mbytes
Step Temp Press TotEng PotEng Enthalpy Volume 
   43000    2297.5248    86.118751   -40652.175   -46488.097   -40628.079     448285.4 
   43495    2267.2171    45.916025   -40830.054   -46588.992   -40817.247    446881.35 
Loop time of 54.971 on 1 procs for 495 steps with 19652 atoms

Performance: 0.778 ns/day, 30.848 hours/ns, 9.005 timesteps/s
99.2% CPU use with 1 MPI tasks x no OpenMP threads

MPI task timing breakdown:
Section |  min time  |  avg time  |  max time  |%varavg| %total
---------------------------------------------------------------
Pair    | 29.372     | 29.372     | 29.372     |   0.0 | 53.43
Neigh   | 23.882     | 23.882     | 23.882     |   0.0 | 43.44
Comm    | 0.55515    | 0.55515    | 0.55515    |   0.0 |  1.01
Output  | 0.00033402 | 0.00033402 | 0.00033402 |   0.0 |  0.00
Modify  | 0.81235    | 0.81235    | 0.81235    |   0.0 |  1.48
Other   |            | 0.3496     |            |       |  0.64

Nlocal:    19652 ave 19652 max 19652 min
Histogram: 1 0 0 0 0 0 0 0 0 0
Nghost:    16196 ave 16196 max 16196 min
Histogram: 1 0 0 0 0 0 0 0 0 0
Neighs:    1.10646e+06 ave 1.10646e+06 max 1.10646e+06 min
Histogram: 1 0 0 0 0 0 0 0 0 0

Total # of neighbors = 1106462
Ave neighs/atom = 56.3028
Neighbor list builds = 495
Dangerous builds not checked
Setting up Verlet run ...
  Unit style    : metal
  Current step  : 43495
  Time step     : 0.001
Per MPI rank memory allocation (min/avg/max) = 18.2 | 18.2 | 18.2 Mbytes
Step Temp Press TotEng PotEng Enthalpy Volume 
   43495    2267.2171    45.916025   -40830.054   -46588.992   -40817.247    446881.35 
   44000    2264.2031    461.43794   -40882.837   -46634.119   -40754.483    445661.12 
Loop time of 58.3759 on 1 procs for 505 steps with 19652 atoms

Performance: 0.747 ns/day, 32.110 hours/ns, 8.651 timesteps/s
98.4% CPU use with 1 MPI tasks x no OpenMP threads

MPI task timing breakdown:
Section |  min time  |  avg time  |  max time  |%varavg| %total
---------------------------------------------------------------
Pair    | 30.019     | 30.019     | 30.019     |   0.0 | 51.42
Neigh   | 26.528     | 26.528     | 26.528     |   0.0 | 45.44
Comm    | 0.57058    | 0.57058    | 0.57058    |   0.0 |  0.98
Output  | 0.039395   | 0.039395   | 0.039395   |   0.0 |  0.07
Modify  | 0.84045    | 0.84045    | 0.84045    |   0.0 |  1.44
Other   |            | 0.3787     |            |       |  0.65

Nlocal:    19652 ave 19652 max 19652 min
Histogram: 1 0 0 0 0 0 0 0 0 0
Nghost:    16260 ave 16260 max 16260 min
Histogram: 1 0 0 0 0 0 0 0 0 0
Neighs:    1.10946e+06 ave 1.10946e+06 max 1.10946e+06 min
Histogram: 1 0 0 0 0 0 0 0 0 0

Total # of neighbors = 1109457
Ave neighs/atom = 56.4552
Neighbor list builds = 505
Dangerous builds not checked
Setting up Verlet run ...
  Unit style    : metal
  Current step  : 44000
  Time step     : 0.001
Per MPI rank memory allocation (min/avg/max) = 18.2 | 18.2 | 18.2 Mbytes
Step Temp Press TotEng PotEng Enthalpy Volume 
   44000    2264.2031    461.43794   -40882.837   -46634.119   -40754.483    445661.12 
   44495    2211.5392    355.39251   -41138.447   -46755.958   -41040.111    443317.02 
Loop time of 57.3958 on 1 procs for 495 steps with 19652 atoms

Performance: 0.745 ns/day, 32.209 hours/ns, 8.624 timesteps/s
98.7% CPU use with 1 MPI tasks x no OpenMP threads

MPI task timing breakdown:
Section |  min time  |  avg time  |  max time  |%varavg| %total
---------------------------------------------------------------
Pair    | 29.769     | 29.769     | 29.769     |   0.0 | 51.87
Neigh   | 25.857     | 25.857     | 25.857     |   0.0 | 45.05
Comm    | 0.57748    | 0.57748    | 0.57748    |   0.0 |  1.01
Output  | 0.00029802 | 0.00029802 | 0.00029802 |   0.0 |  0.00
Modify  | 0.83289    | 0.83289    | 0.83289    |   0.0 |  1.45
Other   |            | 0.3597     |            |       |  0.63

Nlocal:    19652 ave 19652 max 19652 min
Histogram: 1 0 0 0 0 0 0 0 0 0
Nghost:    16300 ave 16300 max 16300 min
Histogram: 1 0 0 0 0 0 0 0 0 0
Neighs:    1.11562e+06 ave 1.11562e+06 max 1.11562e+06 min
Histogram: 1 0 0 0 0 0 0 0 0 0

Total # of neighbors = 1115618
Ave neighs/atom = 56.7687
Neighbor list builds = 495
Dangerous builds not checked
Setting up Verlet run ...
  Unit style    : metal
  Current step  : 44495
  Time step     : 0.001
Per MPI rank memory allocation (min/avg/max) = 18.2 | 18.2 | 18.2 Mbytes
Step Temp Press TotEng PotEng Enthalpy Volume 
   44495    2211.5392    355.39251   -41138.447   -46755.958   -41040.111    443317.02 
   45000    2193.9235    33.171767   -41279.347   -46852.112     -41270.2    441806.53 
Loop time of 57.9288 on 1 procs for 505 steps with 19652 atoms

Performance: 0.753 ns/day, 31.864 hours/ns, 8.718 timesteps/s
99.8% CPU use with 1 MPI tasks x no OpenMP threads

MPI task timing breakdown:
Section |  min time  |  avg time  |  max time  |%varavg| %total
---------------------------------------------------------------
Pair    | 30.001     | 30.001     | 30.001     |   0.0 | 51.79
Neigh   | 26.106     | 26.106     | 26.106     |   0.0 | 45.07
Comm    | 0.57631    | 0.57631    | 0.57631    |   0.0 |  0.99
Output  | 0.041733   | 0.041733   | 0.041733   |   0.0 |  0.07
Modify  | 0.83942    | 0.83942    | 0.83942    |   0.0 |  1.45
Other   |            | 0.3643     |            |       |  0.63

Nlocal:    19652 ave 19652 max 19652 min
Histogram: 1 0 0 0 0 0 0 0 0 0
Nghost:    16378 ave 16378 max 16378 min
Histogram: 1 0 0 0 0 0 0 0 0 0
Neighs:    1.11882e+06 ave 1.11882e+06 max 1.11882e+06 min
Histogram: 1 0 0 0 0 0 0 0 0 0

Total # of neighbors = 1118819
Ave neighs/atom = 56.9316
Neighbor list builds = 505
Dangerous builds not checked
Setting up Verlet run ...
  Unit style    : metal
  Current step  : 45000
  Time step     : 0.001
Per MPI rank memory allocation (min/avg/max) = 18.2 | 18.2 | 18.2 Mbytes
Step Temp Press TotEng PotEng Enthalpy Volume 
   45000    2193.9235    33.171767   -41279.347   -46852.112     -41270.2    441806.53 
   45495     2162.893    31.538083   -41430.045    -46923.99   -41421.367    440857.57 
Loop time of 56.7633 on 1 procs for 495 steps with 19652 atoms

Performance: 0.753 ns/day, 31.854 hours/ns, 8.720 timesteps/s
99.9% CPU use with 1 MPI tasks x no OpenMP threads

MPI task timing breakdown:
Section |  min time  |  avg time  |  max time  |%varavg| %total
---------------------------------------------------------------
Pair    | 29.418     | 29.418     | 29.418     |   0.0 | 51.82
Neigh   | 25.622     | 25.622     | 25.622     |   0.0 | 45.14
Comm    | 0.55759    | 0.55759    | 0.55759    |   0.0 |  0.98
Output  | 0.00035691 | 0.00035691 | 0.00035691 |   0.0 |  0.00
Modify  | 0.81687    | 0.81687    | 0.81687    |   0.0 |  1.44
Other   |            | 0.349      |            |       |  0.61

Nlocal:    19652 ave 19652 max 19652 min
Histogram: 1 0 0 0 0 0 0 0 0 0
Nghost:    16365 ave 16365 max 16365 min
Histogram: 1 0 0 0 0 0 0 0 0 0
Neighs:    1.12135e+06 ave 1.12135e+06 max 1.12135e+06 min
Histogram: 1 0 0 0 0 0 0 0 0 0

Total # of neighbors = 1121349
Ave neighs/atom = 57.0603
Neighbor list builds = 495
Dangerous builds not checked
Setting up Verlet run ...
  Unit style    : metal
  Current step  : 45495
  Time step     : 0.001
Per MPI rank memory allocation (min/avg/max) = 18.2 | 18.2 | 18.2 Mbytes
Step Temp Press TotEng PotEng Enthalpy Volume 
   45495     2162.893    31.538083   -41430.045    -46923.99   -41421.367    440857.57 
   46000    2171.0851    638.25612   -41526.728   -47041.482   -41352.226    438040.85 
Loop time of 58.8506 on 1 procs for 505 steps with 19652 atoms

Performance: 0.741 ns/day, 32.371 hours/ns, 8.581 timesteps/s
99.2% CPU use with 1 MPI tasks x no OpenMP threads

MPI task timing breakdown:
Section |  min time  |  avg time  |  max time  |%varavg| %total
---------------------------------------------------------------
Pair    | 30.64      | 30.64      | 30.64      |   0.0 | 52.06
Neigh   | 26.371     | 26.371     | 26.371     |   0.0 | 44.81
Comm    | 0.5808     | 0.5808     | 0.5808     |   0.0 |  0.99
Output  | 0.046854   | 0.046854   | 0.046854   |   0.0 |  0.08
Modify  | 0.84927    | 0.84927    | 0.84927    |   0.0 |  1.44
Other   |            | 0.3629     |            |       |  0.62

Nlocal:    19652 ave 19652 max 19652 min
Histogram: 1 0 0 0 0 0 0 0 0 0
Nghost:    16254 ave 16254 max 16254 min
Histogram: 1 0 0 0 0 0 0 0 0 0
Neighs:    1.12862e+06 ave 1.12862e+06 max 1.12862e+06 min
Histogram: 1 0 0 0 0 0 0 0 0 0

Total # of neighbors = 1128620
Ave neighs/atom = 57.4303
Neighbor list builds = 505
Dangerous builds not checked
Setting up Verlet run ...
  Unit style    : metal
  Current step  : 46000
  Time step     : 0.001
Per MPI rank memory allocation (min/avg/max) = 18.2 | 18.2 | 18.2 Mbytes
Step Temp Press TotEng PotEng Enthalpy Volume 
   46000    2171.0851    638.25612   -41526.728   -47041.482   -41352.226    438040.85 
   46495    2117.3021   -35.495346   -41766.784   -47144.924   -41776.464    436954.11 
Loop time of 59.6849 on 1 procs for 495 steps with 19652 atoms

Performance: 0.717 ns/day, 33.493 hours/ns, 8.294 timesteps/s
99.2% CPU use with 1 MPI tasks x no OpenMP threads

MPI task timing breakdown:
Section |  min time  |  avg time  |  max time  |%varavg| %total
---------------------------------------------------------------
Pair    | 31.267     | 31.267     | 31.267     |   0.0 | 52.39
Neigh   | 26.5       | 26.5       | 26.5       |   0.0 | 44.40
Comm    | 0.62515    | 0.62515    | 0.62515    |   0.0 |  1.05
Output  | 0.00023198 | 0.00023198 | 0.00023198 |   0.0 |  0.00
Modify  | 0.90612    | 0.90612    | 0.90612    |   0.0 |  1.52
Other   |            | 0.387      |            |       |  0.65

Nlocal:    19652 ave 19652 max 19652 min
Histogram: 1 0 0 0 0 0 0 0 0 0
Nghost:    16354 ave 16354 max 16354 min
Histogram: 1 0 0 0 0 0 0 0 0 0
Neighs:    1.13134e+06 ave 1.13134e+06 max 1.13134e+06 min
Histogram: 1 0 0 0 0 0 0 0 0 0

Total # of neighbors = 1131339
Ave neighs/atom = 57.5686
Neighbor list builds = 495
Dangerous builds not checked
Setting up Verlet run ...
  Unit style    : metal
  Current step  : 46495
  Time step     : 0.001
Per MPI rank memory allocation (min/avg/max) = 18.2 | 18.2 | 18.2 Mbytes
Step Temp Press TotEng PotEng Enthalpy Volume 
   46495    2117.3021   -35.495346   -41766.784   -47144.924   -41776.464    436954.11 
   47000    2087.3029    217.88027   -41912.172   -47214.112   -41852.967    435363.61 
Loop time of 59.1015 on 1 procs for 505 steps with 19652 atoms

Performance: 0.738 ns/day, 32.509 hours/ns, 8.545 timesteps/s
99.7% CPU use with 1 MPI tasks x no OpenMP threads

MPI task timing breakdown:
Section |  min time  |  avg time  |  max time  |%varavg| %total
---------------------------------------------------------------
Pair    | 30.921     | 30.921     | 30.921     |   0.0 | 52.32
Neigh   | 26.292     | 26.292     | 26.292     |   0.0 | 44.49
Comm    | 0.60077    | 0.60077    | 0.60077    |   0.0 |  1.02
Output  | 0.042628   | 0.042628   | 0.042628   |   0.0 |  0.07
Modify  | 0.87381    | 0.87381    | 0.87381    |   0.0 |  1.48
Other   |            | 0.3718     |            |       |  0.63

Nlocal:    19652 ave 19652 max 19652 min
Histogram: 1 0 0 0 0 0 0 0 0 0
Nghost:    16430 ave 16430 max 16430 min
Histogram: 1 0 0 0 0 0 0 0 0 0
Neighs:    1.13619e+06 ave 1.13619e+06 max 1.13619e+06 min
Histogram: 1 0 0 0 0 0 0 0 0 0

Total # of neighbors = 1136186
Ave neighs/atom = 57.8153
Neighbor list builds = 505
Dangerous builds not checked
Setting up Verlet run ...
  Unit style    : metal
  Current step  : 47000
  Time step     : 0.001
Per MPI rank memory allocation (min/avg/max) = 18.2 | 18.2 | 18.2 Mbytes
Step Temp Press TotEng PotEng Enthalpy Volume 
   47000    2087.3029    217.88027   -41912.172   -47214.112   -41852.967    435363.61 
   47495    2071.0084    142.67206   -42070.234   -47330.784   -42031.612    433723.98 
Loop time of 57.2476 on 1 procs for 495 steps with 19652 atoms

Performance: 0.747 ns/day, 32.126 hours/ns, 8.647 timesteps/s
99.8% CPU use with 1 MPI tasks x no OpenMP threads

MPI task timing breakdown:
Section |  min time  |  avg time  |  max time  |%varavg| %total
---------------------------------------------------------------
Pair    | 29.87      | 29.87      | 29.87      |   0.0 | 52.18
Neigh   | 25.622     | 25.622     | 25.622     |   0.0 | 44.76
Comm    | 0.57004    | 0.57004    | 0.57004    |   0.0 |  1.00
Output  | 0.00030613 | 0.00030613 | 0.00030613 |   0.0 |  0.00
Modify  | 0.83096    | 0.83096    | 0.83096    |   0.0 |  1.45
Other   |            | 0.3538     |            |       |  0.62

Nlocal:    19652 ave 19652 max 19652 min
Histogram: 1 0 0 0 0 0 0 0 0 0
Nghost:    16389 ave 16389 max 16389 min
Histogram: 1 0 0 0 0 0 0 0 0 0
Neighs:    1.14057e+06 ave 1.14057e+06 max 1.14057e+06 min
Histogram: 1 0 0 0 0 0 0 0 0 0

Total # of neighbors = 1140573
Ave neighs/atom = 58.0385
Neighbor list builds = 495
Dangerous builds not checked
Setting up Verlet run ...
  Unit style    : metal
  Current step  : 47495
  Time step     : 0.001
Per MPI rank memory allocation (min/avg/max) = 18.2 | 18.2 | 18.2 Mbytes
Step Temp Press TotEng PotEng Enthalpy Volume 
   47495    2071.0084    142.67206   -42070.234   -47330.784   -42031.612    433723.98 
   48000    2059.6217    399.99388    -42140.35   -47371.977   -42032.316    432728.75 
Loop time of 61.3693 on 1 procs for 505 steps with 19652 atoms

Performance: 0.711 ns/day, 33.757 hours/ns, 8.229 timesteps/s
99.0% CPU use with 1 MPI tasks x no OpenMP threads

MPI task timing breakdown:
Section |  min time  |  avg time  |  max time  |%varavg| %total
---------------------------------------------------------------
Pair    | 32.341     | 32.341     | 32.341     |   0.0 | 52.70
Neigh   | 27.028     | 27.028     | 27.028     |   0.0 | 44.04
Comm    | 0.63621    | 0.63621    | 0.63621    |   0.0 |  1.04
Output  | 0.047446   | 0.047446   | 0.047446   |   0.0 |  0.08
Modify  | 0.92368    | 0.92368    | 0.92368    |   0.0 |  1.51
Other   |            | 0.3934     |            |       |  0.64

Nlocal:    19652 ave 19652 max 19652 min
Histogram: 1 0 0 0 0 0 0 0 0 0
Nghost:    16459 ave 16459 max 16459 min
Histogram: 1 0 0 0 0 0 0 0 0 0
Neighs:    1.14335e+06 ave 1.14335e+06 max 1.14335e+06 min
Histogram: 1 0 0 0 0 0 0 0 0 0

Total # of neighbors = 1143347
Ave neighs/atom = 58.1797
Neighbor list builds = 505
Dangerous builds not checked
Setting up Verlet run ...
  Unit style    : metal
  Current step  : 48000
  Time step     : 0.001
Per MPI rank memory allocation (min/avg/max) = 18.2 | 18.2 | 18.2 Mbytes
Step Temp Press TotEng PotEng Enthalpy Volume 
   48000    2059.6217    399.99388    -42140.35   -47371.977   -42032.316    432728.75 
   48495    2009.2865    1624.3963   -42342.186   -47445.957   -41905.343    430867.61 
Loop time of 59.6526 on 1 procs for 495 steps with 19652 atoms

Performance: 0.717 ns/day, 33.475 hours/ns, 8.298 timesteps/s
99.8% CPU use with 1 MPI tasks x no OpenMP threads

MPI task timing breakdown:
Section |  min time  |  avg time  |  max time  |%varavg| %total
---------------------------------------------------------------
Pair    | 31.422     | 31.422     | 31.422     |   0.0 | 52.68
Neigh   | 26.311     | 26.311     | 26.311     |   0.0 | 44.11
Comm    | 0.6286     | 0.6286     | 0.6286     |   0.0 |  1.05
Output  | 0.00041986 | 0.00041986 | 0.00041986 |   0.0 |  0.00
Modify  | 0.90449    | 0.90449    | 0.90449    |   0.0 |  1.52
Other   |            | 0.3864     |            |       |  0.65

Nlocal:    19652 ave 19652 max 19652 min
Histogram: 1 0 0 0 0 0 0 0 0 0
Nghost:    16445 ave 16445 max 16445 min
Histogram: 1 0 0 0 0 0 0 0 0 0
Neighs:    1.14846e+06 ave 1.14846e+06 max 1.14846e+06 min
Histogram: 1 0 0 0 0 0 0 0 0 0

Total # of neighbors = 1148461
Ave neighs/atom = 58.4399
Neighbor list builds = 495
Dangerous builds not checked
Setting up Verlet run ...
  Unit style    : metal
  Current step  : 48495
  Time step     : 0.001
Per MPI rank memory allocation (min/avg/max) = 18.2 | 18.2 | 18.2 Mbytes
Step Temp Press TotEng PotEng Enthalpy Volume 
   48495    2009.2865    1624.3963   -42342.186   -47445.957   -41905.343    430867.61 
   49000    2014.1029    121.80452   -42391.822   -47507.827   -42359.081    430666.33 
Loop time of 60.743 on 1 procs for 505 steps with 19652 atoms

Performance: 0.718 ns/day, 33.412 hours/ns, 8.314 timesteps/s
99.6% CPU use with 1 MPI tasks x no OpenMP threads

MPI task timing breakdown:
Section |  min time  |  avg time  |  max time  |%varavg| %total
---------------------------------------------------------------
Pair    | 32.061     | 32.061     | 32.061     |   0.0 | 52.78
Neigh   | 26.696     | 26.696     | 26.696     |   0.0 | 43.95
Comm    | 0.64298    | 0.64298    | 0.64298    |   0.0 |  1.06
Output  | 0.044615   | 0.044615   | 0.044615   |   0.0 |  0.07
Modify  | 0.91011    | 0.91011    | 0.91011    |   0.0 |  1.50
Other   |            | 0.3878     |            |       |  0.64

Nlocal:    19652 ave 19652 max 19652 min
Histogram: 1 0 0 0 0 0 0 0 0 0
Nghost:    16423 ave 16423 max 16423 min
Histogram: 1 0 0 0 0 0 0 0 0 0
Neighs:    1.14862e+06 ave 1.14862e+06 max 1.14862e+06 min
Histogram: 1 0 0 0 0 0 0 0 0 0

Total # of neighbors = 1148615
Ave neighs/atom = 58.4477
Neighbor list builds = 505
Dangerous builds not checked
Setting up Verlet run ...
  Unit style    : metal
  Current step  : 49000
  Time step     : 0.001
Per MPI rank memory allocation (min/avg/max) = 18.2 | 18.2 | 18.2 Mbytes
Step Temp Press TotEng PotEng Enthalpy Volume 
   49000    2014.1029    121.80452   -42391.822   -47507.827   -42359.081    430666.33 
   49495    1964.7659    1393.5641   -42654.549   -47645.234   -42282.293    427982.06 
Loop time of 58.4993 on 1 procs for 495 steps with 19652 atoms

Performance: 0.731 ns/day, 32.828 hours/ns, 8.462 timesteps/s
99.0% CPU use with 1 MPI tasks x no OpenMP threads

MPI task timing breakdown:
Section |  min time  |  avg time  |  max time  |%varavg| %total
---------------------------------------------------------------
Pair    | 30.719     | 30.719     | 30.719     |   0.0 | 52.51
Neigh   | 25.988     | 25.988     | 25.988     |   0.0 | 44.43
Comm    | 0.58469    | 0.58469    | 0.58469    |   0.0 |  1.00
Output  | 0.0003202  | 0.0003202  | 0.0003202  |   0.0 |  0.00
Modify  | 0.84304    | 0.84304    | 0.84304    |   0.0 |  1.44
Other   |            | 0.3635     |            |       |  0.62

Nlocal:    19652 ave 19652 max 19652 min
Histogram: 1 0 0 0 0 0 0 0 0 0
Nghost:    16464 ave 16464 max 16464 min
Histogram: 1 0 0 0 0 0 0 0 0 0
Neighs:    1.15588e+06 ave 1.15588e+06 max 1.15588e+06 min
Histogram: 1 0 0 0 0 0 0 0 0 0

Total # of neighbors = 1155878
Ave neighs/atom = 58.8173
Neighbor list builds = 495
Dangerous builds not checked
Setting up Verlet run ...
  Unit style    : metal
  Current step  : 49495
  Time step     : 0.001
Per MPI rank memory allocation (min/avg/max) = 18.2 | 18.2 | 18.2 Mbytes
Step Temp Press TotEng PotEng Enthalpy Volume 
   49495    1964.7659    1393.5641   -42654.549   -47645.234   -42282.293    427982.06 
   50000    1950.7288    1571.2383   -42812.182   -47767.211   -42394.718    425684.21 
Loop time of 60.6487 on 1 procs for 505 steps with 19652 atoms

Performance: 0.719 ns/day, 33.360 hours/ns, 8.327 timesteps/s
99.8% CPU use with 1 MPI tasks x no OpenMP threads

MPI task timing breakdown:
Section |  min time  |  avg time  |  max time  |%varavg| %total
---------------------------------------------------------------
Pair    | 32.089     | 32.089     | 32.089     |   0.0 | 52.91
Neigh   | 26.592     | 26.592     | 26.592     |   0.0 | 43.85
Comm    | 0.62733    | 0.62733    | 0.62733    |   0.0 |  1.03
Output  | 0.043241   | 0.043241   | 0.043241   |   0.0 |  0.07
Modify  | 0.90654    | 0.90654    | 0.90654    |   0.0 |  1.49
Other   |            | 0.3907     |            |       |  0.64

Nlocal:    19652 ave 19652 max 19652 min
Histogram: 1 0 0 0 0 0 0 0 0 0
Nghost:    16486 ave 16486 max 16486 min
Histogram: 1 0 0 0 0 0 0 0 0 0
Neighs:    1.16294e+06 ave 1.16294e+06 max 1.16294e+06 min
Histogram: 1 0 0 0 0 0 0 0 0 0

Total # of neighbors = 1162935
Ave neighs/atom = 59.1764
Neighbor list builds = 505
Dangerous builds not checked
Setting up Verlet run ...
  Unit style    : metal
  Current step  : 50000
  Time step     : 0.001
Per MPI rank memory allocation (min/avg/max) = 18.2 | 18.2 | 18.2 Mbytes
Step Temp Press TotEng PotEng Enthalpy Volume 
   50000    1950.7288    1571.2383   -42812.182   -47767.211   -42394.718    425684.21 
   50495    1916.5717   -114.94013   -43005.747   -47874.014   -43036.244     425106.6 
Loop time of 60.3563 on 1 procs for 495 steps with 19652 atoms

Performance: 0.709 ns/day, 33.870 hours/ns, 8.201 timesteps/s
99.5% CPU use with 1 MPI tasks x no OpenMP threads

MPI task timing breakdown:
Section |  min time  |  avg time  |  max time  |%varavg| %total
---------------------------------------------------------------
Pair    | 32.211     | 32.211     | 32.211     |   0.0 | 53.37
Neigh   | 26.17      | 26.17      | 26.17      |   0.0 | 43.36
Comm    | 0.64609    | 0.64609    | 0.64609    |   0.0 |  1.07
Output  | 0.00033283 | 0.00033283 | 0.00033283 |   0.0 |  0.00
Modify  | 0.95385    | 0.95385    | 0.95385    |   0.0 |  1.58
Other   |            | 0.3752     |            |       |  0.62

Nlocal:    19652 ave 19652 max 19652 min
Histogram: 1 0 0 0 0 0 0 0 0 0
Nghost:    16475 ave 16475 max 16475 min
Histogram: 1 0 0 0 0 0 0 0 0 0
Neighs:    1.16447e+06 ave 1.16447e+06 max 1.16447e+06 min
Histogram: 1 0 0 0 0 0 0 0 0 0

Total # of neighbors = 1164470
Ave neighs/atom = 59.2545
Neighbor list builds = 495
Dangerous builds not checked
Setting up Verlet run ...
  Unit style    : metal
  Current step  : 50495
  Time step     : 0.001
Per MPI rank memory allocation (min/avg/max) = 18.2 | 18.2 | 18.2 Mbytes
Step Temp Press TotEng PotEng Enthalpy Volume 
   50495    1916.5717   -114.94013   -43005.747   -47874.014   -43036.244     425106.6 
   51000    1922.5449    657.98312   -43005.816   -47889.255   -42831.594    424226.54 
Loop time of 58.5005 on 1 procs for 505 steps with 19652 atoms

Performance: 0.746 ns/day, 32.178 hours/ns, 8.632 timesteps/s
99.1% CPU use with 1 MPI tasks x no OpenMP threads

MPI task timing breakdown:
Section |  min time  |  avg time  |  max time  |%varavg| %total
---------------------------------------------------------------
Pair    | 30.767     | 30.767     | 30.767     |   0.0 | 52.59
Neigh   | 25.961     | 25.961     | 25.961     |   0.0 | 44.38
Comm    | 0.55928    | 0.55928    | 0.55928    |   0.0 |  0.96
Output  | 0.043636   | 0.043636   | 0.043636   |   0.0 |  0.07
Modify  | 0.81935    | 0.81935    | 0.81935    |   0.0 |  1.40
Other   |            | 0.3504     |            |       |  0.60

Nlocal:    19652 ave 19652 max 19652 min
Histogram: 1 0 0 0 0 0 0 0 0 0
Nghost:    16584 ave 16584 max 16584 min
Histogram: 1 0 0 0 0 0 0 0 0 0
Neighs:    1.16627e+06 ave 1.16627e+06 max 1.16627e+06 min
Histogram: 1 0 0 0 0 0 0 0 0 0

Total # of neighbors = 1166274
Ave neighs/atom = 59.3463
Neighbor list builds = 505
Dangerous builds not checked
Setting up Verlet run ...
  Unit style    : metal
  Current step  : 51000
  Time step     : 0.001
Per MPI rank memory allocation (min/avg/max) = 18.2 | 18.2 | 18.2 Mbytes
Step Temp Press TotEng PotEng Enthalpy Volume 
   51000    1922.5449    657.98312   -43005.816   -47889.255   -42831.594    424226.54 
   51495    1869.2898    885.56715   -43270.147   -48018.314   -43036.846    422089.81 
Loop time of 57.1235 on 1 procs for 495 steps with 19652 atoms

Performance: 0.749 ns/day, 32.056 hours/ns, 8.665 timesteps/s
99.8% CPU use with 1 MPI tasks x no OpenMP threads

MPI task timing breakdown:
Section |  min time  |  avg time  |  max time  |%varavg| %total
---------------------------------------------------------------
Pair    | 30.078     | 30.078     | 30.078     |   0.0 | 52.65
Neigh   | 25.342     | 25.342     | 25.342     |   0.0 | 44.36
Comm    | 0.55196    | 0.55196    | 0.55196    |   0.0 |  0.97
Output  | 0.00027108 | 0.00027108 | 0.00027108 |   0.0 |  0.00
Modify  | 0.80265    | 0.80265    | 0.80265    |   0.0 |  1.41
Other   |            | 0.3482     |            |       |  0.61

Nlocal:    19652 ave 19652 max 19652 min
Histogram: 1 0 0 0 0 0 0 0 0 0
Nghost:    16668 ave 16668 max 16668 min
Histogram: 1 0 0 0 0 0 0 0 0 0
Neighs:    1.17266e+06 ave 1.17266e+06 max 1.17266e+06 min
Histogram: 1 0 0 0 0 0 0 0 0 0

Total # of neighbors = 1172659
Ave neighs/atom = 59.6712
Neighbor list builds = 495
Dangerous builds not checked
Setting up Verlet run ...
  Unit style    : metal
  Current step  : 51495
  Time step     : 0.001
Per MPI rank memory allocation (min/avg/max) = 18.2 | 18.2 | 18.2 Mbytes
Step Temp Press TotEng PotEng Enthalpy Volume 
   51495    1869.2898    885.56715   -43270.147   -48018.314   -43036.846    422089.81 
   52000    1857.8664    917.91703   -43448.261   -48167.411   -43207.429    420360.19 
Loop time of 56.6949 on 1 procs for 505 steps with 19652 atoms

Performance: 0.770 ns/day, 31.185 hours/ns, 8.907 timesteps/s
99.8% CPU use with 1 MPI tasks x no OpenMP threads

MPI task timing breakdown:
Section |  min time  |  avg time  |  max time  |%varavg| %total
---------------------------------------------------------------
Pair    | 29.79      | 29.79      | 29.79      |   0.0 | 52.54
Neigh   | 25.267     | 25.267     | 25.267     |   0.0 | 44.57
Comm    | 0.51163    | 0.51163    | 0.51163    |   0.0 |  0.90
Output  | 0.039966   | 0.039966   | 0.039966   |   0.0 |  0.07
Modify  | 0.76534    | 0.76534    | 0.76534    |   0.0 |  1.35
Other   |            | 0.3213     |            |       |  0.57

Nlocal:    19652 ave 19652 max 19652 min
Histogram: 1 0 0 0 0 0 0 0 0 0
Nghost:    16618 ave 16618 max 16618 min
Histogram: 1 0 0 0 0 0 0 0 0 0
Neighs:    1.17819e+06 ave 1.17819e+06 max 1.17819e+06 min
Histogram: 1 0 0 0 0 0 0 0 0 0

Total # of neighbors = 1178187
Ave neighs/atom = 59.9525
Neighbor list builds = 505
Dangerous builds not checked
Setting up Verlet run ...
  Unit style    : metal
  Current step  : 52000
  Time step     : 0.001
Per MPI rank memory allocation (min/avg/max) = 18.2 | 18.2 | 18.2 Mbytes
Step Temp Press TotEng PotEng Enthalpy Volume 
   52000    1857.8664    917.91703   -43448.261   -48167.411   -43207.429    420360.19 
   52495     1820.643    586.74855   -43615.852   -48240.451   -43462.412    418984.46 
Loop time of 55.0538 on 1 procs for 495 steps with 19652 atoms

Performance: 0.777 ns/day, 30.894 hours/ns, 8.991 timesteps/s
99.8% CPU use with 1 MPI tasks x no OpenMP threads

MPI task timing breakdown:
Section |  min time  |  avg time  |  max time  |%varavg| %total
---------------------------------------------------------------
Pair    | 28.93      | 28.93      | 28.93      |   0.0 | 52.55
Neigh   | 24.609     | 24.609     | 24.609     |   0.0 | 44.70
Comm    | 0.48245    | 0.48245    | 0.48245    |   0.0 |  0.88
Output  | 0.00018883 | 0.00018883 | 0.00018883 |   0.0 |  0.00
Modify  | 0.72768    | 0.72768    | 0.72768    |   0.0 |  1.32
Other   |            | 0.3053     |            |       |  0.55

Nlocal:    19652 ave 19652 max 19652 min
Histogram: 1 0 0 0 0 0 0 0 0 0
Nghost:    16700 ave 16700 max 16700 min
Histogram: 1 0 0 0 0 0 0 0 0 0
Neighs:    1.18152e+06 ave 1.18152e+06 max 1.18152e+06 min
Histogram: 1 0 0 0 0 0 0 0 0 0

Total # of neighbors = 1181520
Ave neighs/atom = 60.1221
Neighbor list builds = 495
Dangerous builds not checked
Setting up Verlet run ...
  Unit style    : metal
  Current step  : 52495
  Time step     : 0.001
Per MPI rank memory allocation (min/avg/max) = 18.2 | 18.2 | 18.2 Mbytes
Step Temp Press TotEng PotEng Enthalpy Volume 
   52495     1820.643    586.74855   -43615.852   -48240.451   -43462.412    418984.46 
   53000    1793.3228    786.70064   -43798.125   -48353.328   -43593.329    417082.54 
Loop time of 60.1561 on 1 procs for 505 steps with 19652 atoms

Performance: 0.725 ns/day, 33.089 hours/ns, 8.395 timesteps/s
99.1% CPU use with 1 MPI tasks x no OpenMP threads

MPI task timing breakdown:
Section |  min time  |  avg time  |  max time  |%varavg| %total
---------------------------------------------------------------
Pair    | 31.945     | 31.945     | 31.945     |   0.0 | 53.10
Neigh   | 26.371     | 26.371     | 26.371     |   0.0 | 43.84
Comm    | 0.58286    | 0.58286    | 0.58286    |   0.0 |  0.97
Output  | 0.048661   | 0.048661   | 0.048661   |   0.0 |  0.08
Modify  | 0.84756    | 0.84756    | 0.84756    |   0.0 |  1.41
Other   |            | 0.3609     |            |       |  0.60

Nlocal:    19652 ave 19652 max 19652 min
Histogram: 1 0 0 0 0 0 0 0 0 0
Nghost:    16687 ave 16687 max 16687 min
Histogram: 1 0 0 0 0 0 0 0 0 0
Neighs:    1.18777e+06 ave 1.18777e+06 max 1.18777e+06 min
Histogram: 1 0 0 0 0 0 0 0 0 0

Total # of neighbors = 1187769
Ave neighs/atom = 60.4401
Neighbor list builds = 505
Dangerous builds not checked
Setting up Verlet run ...
  Unit style    : metal
  Current step  : 53000
  Time step     : 0.001
Per MPI rank memory allocation (min/avg/max) = 18.2 | 18.2 | 18.2 Mbytes
Step Temp Press TotEng PotEng Enthalpy Volume 
   53000    1793.3228    786.70064   -43798.125   -48353.328   -43593.329    417082.54 
   53495    1761.5293    1532.2947    -43940.85   -48415.295   -43543.386    415591.24 
Loop time of 57.94 on 1 procs for 495 steps with 19652 atoms

Performance: 0.738 ns/day, 32.514 hours/ns, 8.543 timesteps/s
99.5% CPU use with 1 MPI tasks x no OpenMP threads

MPI task timing breakdown:
Section |  min time  |  avg time  |  max time  |%varavg| %total
---------------------------------------------------------------
Pair    | 30.714     | 30.714     | 30.714     |   0.0 | 53.01
Neigh   | 25.442     | 25.442     | 25.442     |   0.0 | 43.91
Comm    | 0.56373    | 0.56373    | 0.56373    |   0.0 |  0.97
Output  | 0.00019503 | 0.00019503 | 0.00019503 |   0.0 |  0.00
Modify  | 0.86735    | 0.86735    | 0.86735    |   0.0 |  1.50
Other   |            | 0.3525     |            |       |  0.61

Nlocal:    19652 ave 19652 max 19652 min
Histogram: 1 0 0 0 0 0 0 0 0 0
Nghost:    16687 ave 16687 max 16687 min
Histogram: 1 0 0 0 0 0 0 0 0 0
Neighs:    1.19187e+06 ave 1.19187e+06 max 1.19187e+06 min
Histogram: 1 0 0 0 0 0 0 0 0 0

Total # of neighbors = 1191874
Ave neighs/atom = 60.649
Neighbor list builds = 495
Dangerous builds not checked
Setting up Verlet run ...
  Unit style    : metal
  Current step  : 53495
  Time step     : 0.001
Per MPI rank memory allocation (min/avg/max) = 18.2 | 18.2 | 18.2 Mbytes
Step Temp Press TotEng PotEng Enthalpy Volume 
   53495    1761.5293    1532.2947    -43940.85   -48415.295   -43543.386    415591.24 
   54000    1777.3196    1640.5695   -43922.168   -48436.722   -43497.035    415184.36 
Loop time of 58.3872 on 1 procs for 505 steps with 19652 atoms

Performance: 0.747 ns/day, 32.116 hours/ns, 8.649 timesteps/s
99.8% CPU use with 1 MPI tasks x no OpenMP threads

MPI task timing breakdown:
Section |  min time  |  avg time  |  max time  |%varavg| %total
---------------------------------------------------------------
Pair    | 30.833     | 30.833     | 30.833     |   0.0 | 52.81
Neigh   | 25.808     | 25.808     | 25.808     |   0.0 | 44.20
Comm    | 0.55236    | 0.55236    | 0.55236    |   0.0 |  0.95
Output  | 0.043253   | 0.043253   | 0.043253   |   0.0 |  0.07
Modify  | 0.80256    | 0.80256    | 0.80256    |   0.0 |  1.37
Other   |            | 0.3477     |            |       |  0.60

Nlocal:    19652 ave 19652 max 19652 min
Histogram: 1 0 0 0 0 0 0 0 0 0
Nghost:    16727 ave 16727 max 16727 min
Histogram: 1 0 0 0 0 0 0 0 0 0
Neighs:    1.19271e+06 ave 1.19271e+06 max 1.19271e+06 min
Histogram: 1 0 0 0 0 0 0 0 0 0

Total # of neighbors = 1192708
Ave neighs/atom = 60.6914
Neighbor list builds = 505
Dangerous builds not checked
Setting up Verlet run ...
  Unit style    : metal
  Current step  : 54000
  Time step     : 0.001
Per MPI rank memory allocation (min/avg/max) = 18.2 | 18.2 | 18.2 Mbytes
Step Temp Press TotEng PotEng Enthalpy Volume 
   54000    1777.3196    1640.5695   -43922.168   -48436.722   -43497.035    415184.36 
   54495    1724.6633    1065.5448   -44207.133   -48587.935   -43932.127       413506 
Loop time of 59.0855 on 1 procs for 495 steps with 19652 atoms

Performance: 0.724 ns/day, 33.157 hours/ns, 8.378 timesteps/s
96.7% CPU use with 1 MPI tasks x no OpenMP threads

MPI task timing breakdown:
Section |  min time  |  avg time  |  max time  |%varavg| %total
---------------------------------------------------------------
Pair    | 31.251     | 31.251     | 31.251     |   0.0 | 52.89
Neigh   | 26.125     | 26.125     | 26.125     |   0.0 | 44.21
Comm    | 0.55734    | 0.55734    | 0.55734    |   0.0 |  0.94
Output  | 0.00030708 | 0.00030708 | 0.00030708 |   0.0 |  0.00
Modify  | 0.80682    | 0.80682    | 0.80682    |   0.0 |  1.37
Other   |            | 0.3455     |            |       |  0.58

Nlocal:    19652 ave 19652 max 19652 min
Histogram: 1 0 0 0 0 0 0 0 0 0
Nghost:    16778 ave 16778 max 16778 min
Histogram: 1 0 0 0 0 0 0 0 0 0
Neighs:    1.19813e+06 ave 1.19813e+06 max 1.19813e+06 min
Histogram: 1 0 0 0 0 0 0 0 0 0

Total # of neighbors = 1198126
Ave neighs/atom = 60.9671
Neighbor list builds = 495
Dangerous builds not checked
Setting up Verlet run ...
  Unit style    : metal
  Current step  : 54495
  Time step     : 0.001
Per MPI rank memory allocation (min/avg/max) = 18.2 | 18.2 | 18.2 Mbytes
Step Temp Press TotEng PotEng Enthalpy Volume 
   54495    1724.6633    1065.5448   -44207.133   -48587.935   -43932.127       413506 
   55000    1693.0936    65.356884   -44349.629   -48650.241   -44332.783    412952.11 
Loop time of 59.443 on 1 procs for 505 steps with 19652 atoms

Performance: 0.734 ns/day, 32.697 hours/ns, 8.496 timesteps/s
99.8% CPU use with 1 MPI tasks x no OpenMP threads

MPI task timing breakdown:
Section |  min time  |  avg time  |  max time  |%varavg| %total
---------------------------------------------------------------
Pair    | 31.624     | 31.624     | 31.624     |   0.0 | 53.20
Neigh   | 25.993     | 25.993     | 25.993     |   0.0 | 43.73
Comm    | 0.57902    | 0.57902    | 0.57902    |   0.0 |  0.97
Output  | 0.043072   | 0.043072   | 0.043072   |   0.0 |  0.07
Modify  | 0.84018    | 0.84018    | 0.84018    |   0.0 |  1.41
Other   |            | 0.3638     |            |       |  0.61

Nlocal:    19652 ave 19652 max 19652 min
Histogram: 1 0 0 0 0 0 0 0 0 0
Nghost:    16801 ave 16801 max 16801 min
Histogram: 1 0 0 0 0 0 0 0 0 0
Neighs:    1.19971e+06 ave 1.19971e+06 max 1.19971e+06 min
Histogram: 1 0 0 0 0 0 0 0 0 0

Total # of neighbors = 1199711
Ave neighs/atom = 61.0478
Neighbor list builds = 505
Dangerous builds not checked
Setting up Verlet run ...
  Unit style    : metal
  Current step  : 55000
  Time step     : 0.001
Per MPI rank memory allocation (min/avg/max) = 18.2 | 18.2 | 18.2 Mbytes
Step Temp Press TotEng PotEng Enthalpy Volume 
   55000    1693.0936    65.356884   -44349.629   -48650.241   -44332.783    412952.11 
   55495     1655.809   -814.83208   -44567.155   -48773.061   -44776.612    411847.12 
Loop time of 58.4643 on 1 procs for 495 steps with 19652 atoms

Performance: 0.732 ns/day, 32.808 hours/ns, 8.467 timesteps/s
99.6% CPU use with 1 MPI tasks x no OpenMP threads

MPI task timing breakdown:
Section |  min time  |  avg time  |  max time  |%varavg| %total
---------------------------------------------------------------
Pair    | 31.19      | 31.19      | 31.19      |   0.0 | 53.35
Neigh   | 25.527     | 25.527     | 25.527     |   0.0 | 43.66
Comm    | 0.56685    | 0.56685    | 0.56685    |   0.0 |  0.97
Output  | 0.00031805 | 0.00031805 | 0.00031805 |   0.0 |  0.00
Modify  | 0.82034    | 0.82034    | 0.82034    |   0.0 |  1.40
Other   |            | 0.3594     |            |       |  0.61

Nlocal:    19652 ave 19652 max 19652 min
Histogram: 1 0 0 0 0 0 0 0 0 0
Nghost:    16898 ave 16898 max 16898 min
Histogram: 1 0 0 0 0 0 0 0 0 0
Neighs:    1.20379e+06 ave 1.20379e+06 max 1.20379e+06 min
Histogram: 1 0 0 0 0 0 0 0 0 0

Total # of neighbors = 1203791
Ave neighs/atom = 61.2554
Neighbor list builds = 495
Dangerous builds not checked
Setting up Verlet run ...
  Unit style    : metal
  Current step  : 55495
  Time step     : 0.001
Per MPI rank memory allocation (min/avg/max) = 18.2 | 18.2 | 18.2 Mbytes
Step Temp Press TotEng PotEng Enthalpy Volume 
   55495     1655.809   -814.83208   -44567.155   -48773.061   -44776.612    411847.12 
   56000    1640.8184   -17.191954   -44680.054   -48847.883   -44684.457    410276.82 
Loop time of 59.963 on 1 procs for 505 steps with 19652 atoms

Performance: 0.728 ns/day, 32.983 hours/ns, 8.422 timesteps/s
99.2% CPU use with 1 MPI tasks x no OpenMP threads

MPI task timing breakdown:
Section |  min time  |  avg time  |  max time  |%varavg| %total
---------------------------------------------------------------
Pair    | 31.989     | 31.989     | 31.989     |   0.0 | 53.35
Neigh   | 26.163     | 26.163     | 26.163     |   0.0 | 43.63
Comm    | 0.57664    | 0.57664    | 0.57664    |   0.0 |  0.96
Output  | 0.043083   | 0.043083   | 0.043083   |   0.0 |  0.07
Modify  | 0.83202    | 0.83202    | 0.83202    |   0.0 |  1.39
Other   |            | 0.3591     |            |       |  0.60

Nlocal:    19652 ave 19652 max 19652 min
Histogram: 1 0 0 0 0 0 0 0 0 0
Nghost:    16823 ave 16823 max 16823 min
Histogram: 1 0 0 0 0 0 0 0 0 0
Neighs:    1.20807e+06 ave 1.20807e+06 max 1.20807e+06 min
Histogram: 1 0 0 0 0 0 0 0 0 0

Total # of neighbors = 1208068
Ave neighs/atom = 61.473
Neighbor list builds = 505
Dangerous builds not checked
Setting up Verlet run ...
  Unit style    : metal
  Current step  : 56000
  Time step     : 0.001
Per MPI rank memory allocation (min/avg/max) = 18.2 | 18.2 | 18.2 Mbytes
Step Temp Press TotEng PotEng Enthalpy Volume 
   56000    1640.8184   -17.191954   -44680.054   -48847.883   -44684.457    410276.82 
   56495    1618.1282     -863.466   -44860.475   -48970.668   -45080.886    408976.11 
Loop time of 58.9713 on 1 procs for 495 steps with 19652 atoms

Performance: 0.725 ns/day, 33.093 hours/ns, 8.394 timesteps/s
99.1% CPU use with 1 MPI tasks x no OpenMP threads

MPI task timing breakdown:
Section |  min time  |  avg time  |  max time  |%varavg| %total
---------------------------------------------------------------
Pair    | 31.536     | 31.536     | 31.536     |   0.0 | 53.48
Neigh   | 25.673     | 25.673     | 25.673     |   0.0 | 43.54
Comm    | 0.5735     | 0.5735     | 0.5735     |   0.0 |  0.97
Output  | 0.00029492 | 0.00029492 | 0.00029492 |   0.0 |  0.00
Modify  | 0.83031    | 0.83031    | 0.83031    |   0.0 |  1.41
Other   |            | 0.3574     |            |       |  0.61

Nlocal:    19652 ave 19652 max 19652 min
Histogram: 1 0 0 0 0 0 0 0 0 0
Nghost:    16826 ave 16826 max 16826 min
Histogram: 1 0 0 0 0 0 0 0 0 0
Neighs:    1.21205e+06 ave 1.21205e+06 max 1.21205e+06 min
Histogram: 1 0 0 0 0 0 0 0 0 0

Total # of neighbors = 1212047
Ave neighs/atom = 61.6755
Neighbor list builds = 495
Dangerous builds not checked
Setting up Verlet run ...
  Unit style    : metal
  Current step  : 56495
  Time step     : 0.001
Per MPI rank memory allocation (min/avg/max) = 18.2 | 18.2 | 18.2 Mbytes
Step Temp Press TotEng PotEng Enthalpy Volume 
   56495    1618.1282     -863.466   -44860.475   -48970.668   -45080.886    408976.11 
   57000    1591.7972   -900.84607   -45003.369   -49046.679   -45232.694    407861.01 
Loop time of 60.2696 on 1 procs for 505 steps with 19652 atoms

Performance: 0.724 ns/day, 33.152 hours/ns, 8.379 timesteps/s
99.1% CPU use with 1 MPI tasks x no OpenMP threads

MPI task timing breakdown:
Section |  min time  |  avg time  |  max time  |%varavg| %total
---------------------------------------------------------------
Pair    | 32.273     | 32.273     | 32.273     |   0.0 | 53.55
Neigh   | 26.164     | 26.164     | 26.164     |   0.0 | 43.41
Comm    | 0.58447    | 0.58447    | 0.58447    |   0.0 |  0.97
Output  | 0.04501    | 0.04501    | 0.04501    |   0.0 |  0.07
Modify  | 0.84179    | 0.84179    | 0.84179    |   0.0 |  1.40
Other   |            | 0.3607     |            |       |  0.60

Nlocal:    19652 ave 19652 max 19652 min
Histogram: 1 0 0 0 0 0 0 0 0 0
Nghost:    16841 ave 16841 max 16841 min
Histogram: 1 0 0 0 0 0 0 0 0 0
Neighs:    1.2159e+06 ave 1.2159e+06 max 1.2159e+06 min
Histogram: 1 0 0 0 0 0 0 0 0 0

Total # of neighbors = 1215904
Ave neighs/atom = 61.8718
Neighbor list builds = 505
Dangerous builds not checked
Setting up Verlet run ...
  Unit style    : metal
  Current step  : 57000
  Time step     : 0.001
Per MPI rank memory allocation (min/avg/max) = 18.2 | 18.2 | 18.2 Mbytes
Step Temp Press TotEng PotEng Enthalpy Volume 
   57000    1591.7972   -900.84607   -45003.369   -49046.679   -45232.694    407861.01 
   57495     1550.855   -347.99663   -45179.923   -49119.236   -45268.183    406350.15 
Loop time of 60.8735 on 1 procs for 495 steps with 19652 atoms

Performance: 0.703 ns/day, 34.160 hours/ns, 8.132 timesteps/s
99.6% CPU use with 1 MPI tasks x no OpenMP threads

MPI task timing breakdown:
Section |  min time  |  avg time  |  max time  |%varavg| %total
---------------------------------------------------------------
Pair    | 32.834     | 32.834     | 32.834     |   0.0 | 53.94
Neigh   | 26.073     | 26.073     | 26.073     |   0.0 | 42.83
Comm    | 0.65223    | 0.65223    | 0.65223    |   0.0 |  1.07
Output  | 0.00032711 | 0.00032711 | 0.00032711 |   0.0 |  0.00
Modify  | 0.91621    | 0.91621    | 0.91621    |   0.0 |  1.51
Other   |            | 0.3977     |            |       |  0.65

Nlocal:    19652 ave 19652 max 19652 min
Histogram: 1 0 0 0 0 0 0 0 0 0
Nghost:    16914 ave 16914 max 16914 min
Histogram: 1 0 0 0 0 0 0 0 0 0
Neighs:    1.21997e+06 ave 1.21997e+06 max 1.21997e+06 min
Histogram: 1 0 0 0 0 0 0 0 0 0

Total # of neighbors = 1219971
Ave neighs/atom = 62.0787
Neighbor list builds = 495
Dangerous builds not checked
Setting up Verlet run ...
  Unit style    : metal
  Current step  : 57495
  Time step     : 0.001
Per MPI rank memory allocation (min/avg/max) = 18.2 | 18.2 | 18.2 Mbytes
Step Temp Press TotEng PotEng Enthalpy Volume 
   57495     1550.855   -347.99663   -45179.923   -49119.236   -45268.183    406350.15 
   58000    1543.6462    34.722527   -45317.484   -49238.487   -45308.712    404801.97 
Loop time of 60.569 on 1 procs for 505 steps with 19652 atoms

Performance: 0.720 ns/day, 33.316 hours/ns, 8.338 timesteps/s
98.8% CPU use with 1 MPI tasks x no OpenMP threads

MPI task timing breakdown:
Section |  min time  |  avg time  |  max time  |%varavg| %total
---------------------------------------------------------------
Pair    | 32.47      | 32.47      | 32.47      |   0.0 | 53.61
Neigh   | 26.266     | 26.266     | 26.266     |   0.0 | 43.37
Comm    | 0.5844     | 0.5844     | 0.5844     |   0.0 |  0.96
Output  | 0.043928   | 0.043928   | 0.043928   |   0.0 |  0.07
Modify  | 0.84326    | 0.84326    | 0.84326    |   0.0 |  1.39
Other   |            | 0.3616     |            |       |  0.60

Nlocal:    19652 ave 19652 max 19652 min
Histogram: 1 0 0 0 0 0 0 0 0 0
Nghost:    16922 ave 16922 max 16922 min
Histogram: 1 0 0 0 0 0 0 0 0 0
Neighs:    1.22493e+06 ave 1.22493e+06 max 1.22493e+06 min
Histogram: 1 0 0 0 0 0 0 0 0 0

Total # of neighbors = 1224932
Ave neighs/atom = 62.3312
Neighbor list builds = 505
Dangerous builds not checked
Setting up Verlet run ...
  Unit style    : metal
  Current step  : 58000
  Time step     : 0.001
Per MPI rank memory allocation (min/avg/max) = 18.2 | 18.2 | 18.2 Mbytes
Step Temp Press TotEng PotEng Enthalpy Volume 
   58000    1543.6462    34.722527   -45317.484   -49238.487   -45308.712    404801.97 
   58495    1520.4748    334.86147   -45502.741   -49364.886   -45418.534    402895.58 
Loop time of 60.6392 on 1 procs for 495 steps with 19652 atoms

Performance: 0.705 ns/day, 34.029 hours/ns, 8.163 timesteps/s
99.3% CPU use with 1 MPI tasks x no OpenMP threads

MPI task timing breakdown:
Section |  min time  |  avg time  |  max time  |%varavg| %total
---------------------------------------------------------------
Pair    | 32.716     | 32.716     | 32.716     |   0.0 | 53.95
Neigh   | 26.051     | 26.051     | 26.051     |   0.0 | 42.96
Comm    | 0.61403    | 0.61403    | 0.61403    |   0.0 |  1.01
Output  | 0.00034499 | 0.00034499 | 0.00034499 |   0.0 |  0.00
Modify  | 0.88239    | 0.88239    | 0.88239    |   0.0 |  1.46
Other   |            | 0.376      |            |       |  0.62

Nlocal:    19652 ave 19652 max 19652 min
Histogram: 1 0 0 0 0 0 0 0 0 0
Nghost:    16883 ave 16883 max 16883 min
Histogram: 1 0 0 0 0 0 0 0 0 0
Neighs:    1.23049e+06 ave 1.23049e+06 max 1.23049e+06 min
Histogram: 1 0 0 0 0 0 0 0 0 0

Total # of neighbors = 1230491
Ave neighs/atom = 62.614
Neighbor list builds = 495
Dangerous builds not checked
Setting up Verlet run ...
  Unit style    : metal
  Current step  : 58495
  Time step     : 0.001
Per MPI rank memory allocation (min/avg/max) = 18.2 | 18.2 | 18.2 Mbytes
Step Temp Press TotEng PotEng Enthalpy Volume 
   58495    1520.4748    334.86147   -45502.741   -49364.886   -45418.534    402895.58 
   59000    1502.4589    151.75449   -45616.252   -49432.634   -45578.171    402040.21 
Loop time of 61.3436 on 1 procs for 505 steps with 19652 atoms

Performance: 0.711 ns/day, 33.742 hours/ns, 8.232 timesteps/s
99.2% CPU use with 1 MPI tasks x no OpenMP threads

MPI task timing breakdown:
Section |  min time  |  avg time  |  max time  |%varavg| %total
---------------------------------------------------------------
Pair    | 33.185     | 33.185     | 33.185     |   0.0 | 54.10
Neigh   | 26.241     | 26.241     | 26.241     |   0.0 | 42.78
Comm    | 0.62135    | 0.62135    | 0.62135    |   0.0 |  1.01
Output  | 0.04539    | 0.04539    | 0.04539    |   0.0 |  0.07
Modify  | 0.88162    | 0.88162    | 0.88162    |   0.0 |  1.44
Other   |            | 0.3701     |            |       |  0.60

Nlocal:    19652 ave 19652 max 19652 min
Histogram: 1 0 0 0 0 0 0 0 0 0
Nghost:    16953 ave 16953 max 16953 min
Histogram: 1 0 0 0 0 0 0 0 0 0
Neighs:    1.23375e+06 ave 1.23375e+06 max 1.23375e+06 min
Histogram: 1 0 0 0 0 0 0 0 0 0

Total # of neighbors = 1233747
Ave neighs/atom = 62.7797
Neighbor list builds = 505
Dangerous builds not checked
Setting up Verlet run ...
  Unit style    : metal
  Current step  : 59000
  Time step     : 0.001
Per MPI rank memory allocation (min/avg/max) = 18.2 | 18.2 | 18.2 Mbytes
Step Temp Press TotEng PotEng Enthalpy Volume 
   59000    1502.4589    151.75449   -45616.252   -49432.634   -45578.171    402040.21 
   59495    1455.9678     2092.355   -45801.727   -49500.018   -45279.488    399892.82 
Loop time of 61.2223 on 1 procs for 495 steps with 19652 atoms

Performance: 0.699 ns/day, 34.356 hours/ns, 8.085 timesteps/s
97.5% CPU use with 1 MPI tasks x no OpenMP threads

MPI task timing breakdown:
Section |  min time  |  avg time  |  max time  |%varavg| %total
---------------------------------------------------------------
Pair    | 33.097     | 33.097     | 33.097     |   0.0 | 54.06
Neigh   | 26.245     | 26.245     | 26.245     |   0.0 | 42.87
Comm    | 0.60963    | 0.60963    | 0.60963    |   0.0 |  1.00
Output  | 0.00029302 | 0.00029302 | 0.00029302 |   0.0 |  0.00
Modify  | 0.88951    | 0.88951    | 0.88951    |   0.0 |  1.45
Other   |            | 0.3802     |            |       |  0.62

Nlocal:    19652 ave 19652 max 19652 min
Histogram: 1 0 0 0 0 0 0 0 0 0
Nghost:    16991 ave 16991 max 16991 min
Histogram: 1 0 0 0 0 0 0 0 0 0
Neighs:    1.24071e+06 ave 1.24071e+06 max 1.24071e+06 min
Histogram: 1 0 0 0 0 0 0 0 0 0

Total # of neighbors = 1240706
Ave neighs/atom = 63.1338
Neighbor list builds = 495
Dangerous builds not checked
Setting up Verlet run ...
  Unit style    : metal
  Current step  : 59495
  Time step     : 0.001
Per MPI rank memory allocation (min/avg/max) = 18.2 | 18.2 | 18.2 Mbytes
Step Temp Press TotEng PotEng Enthalpy Volume 
   59495    1455.9678     2092.355   -45801.727   -49500.018   -45279.488    399892.82 
   60000    1447.6418   -74.224928   -45943.409   -49620.551   -45961.912    399385.38 
Loop time of 60.2824 on 1 procs for 505 steps with 19652 atoms

Performance: 0.724 ns/day, 33.159 hours/ns, 8.377 timesteps/s
99.6% CPU use with 1 MPI tasks x no OpenMP threads

MPI task timing breakdown:
Section |  min time  |  avg time  |  max time  |%varavg| %total
---------------------------------------------------------------
Pair    | 32.474     | 32.474     | 32.474     |   0.0 | 53.87
Neigh   | 25.998     | 25.998     | 25.998     |   0.0 | 43.13
Comm    | 0.57744    | 0.57744    | 0.57744    |   0.0 |  0.96
Output  | 0.043249   | 0.043249   | 0.043249   |   0.0 |  0.07
Modify  | 0.82996    | 0.82996    | 0.82996    |   0.0 |  1.38
Other   |            | 0.3597     |            |       |  0.60

Nlocal:    19652 ave 19652 max 19652 min
Histogram: 1 0 0 0 0 0 0 0 0 0
Nghost:    16959 ave 16959 max 16959 min
Histogram: 1 0 0 0 0 0 0 0 0 0
Neighs:    1.24289e+06 ave 1.24289e+06 max 1.24289e+06 min
Histogram: 1 0 0 0 0 0 0 0 0 0

Total # of neighbors = 1242886
Ave neighs/atom = 63.2448
Neighbor list builds = 505
Dangerous builds not checked
Setting up Verlet run ...
  Unit style    : metal
  Current step  : 60000
  Time step     : 0.001
Per MPI rank memory allocation (min/avg/max) = 18.2 | 18.2 | 18.2 Mbytes
Step Temp Press TotEng PotEng Enthalpy Volume 
   60000    1447.6418   -74.224928   -45943.409   -49620.551   -45961.912    399385.38 
   60495    1410.7694    575.02126   -46154.231   -49737.714   -46011.473    397767.61 
Loop time of 59.5968 on 1 procs for 495 steps with 19652 atoms

Performance: 0.718 ns/day, 33.444 hours/ns, 8.306 timesteps/s
99.1% CPU use with 1 MPI tasks x no OpenMP threads

MPI task timing breakdown:
Section |  min time  |  avg time  |  max time  |%varavg| %total
---------------------------------------------------------------
Pair    | 32.188     | 32.188     | 32.188     |   0.0 | 54.01
Neigh   | 25.646     | 25.646     | 25.646     |   0.0 | 43.03
Comm    | 0.56988    | 0.56988    | 0.56988    |   0.0 |  0.96
Output  | 0.00031996 | 0.00031996 | 0.00031996 |   0.0 |  0.00
Modify  | 0.83849    | 0.83849    | 0.83849    |   0.0 |  1.41
Other   |            | 0.3545     |            |       |  0.59

Nlocal:    19652 ave 19652 max 19652 min
Histogram: 1 0 0 0 0 0 0 0 0 0
Nghost:    16991 ave 16991 max 16991 min
Histogram: 1 0 0 0 0 0 0 0 0 0
Neighs:    1.24762e+06 ave 1.24762e+06 max 1.24762e+06 min
Histogram: 1 0 0 0 0 0 0 0 0 0

Total # of neighbors = 1247621
Ave neighs/atom = 63.4857
Neighbor list builds = 495
Dangerous builds not checked
Setting up Verlet run ...
  Unit style    : metal
  Current step  : 60495
  Time step     : 0.001
Per MPI rank memory allocation (min/avg/max) = 18.2 | 18.2 | 18.2 Mbytes
Step Temp Press TotEng PotEng Enthalpy Volume 
   60495    1410.7694    575.02126   -46154.231   -49737.714   -46011.473    397767.61 
   61000    1387.5602   -543.22392   -46277.623   -49802.152    -46412.33    397304.31 
Loop time of 60.3744 on 1 procs for 505 steps with 19652 atoms

Performance: 0.723 ns/day, 33.209 hours/ns, 8.364 timesteps/s
99.6% CPU use with 1 MPI tasks x no OpenMP threads

MPI task timing breakdown:
Section |  min time  |  avg time  |  max time  |%varavg| %total
---------------------------------------------------------------
Pair    | 32.57      | 32.57      | 32.57      |   0.0 | 53.95
Neigh   | 25.989     | 25.989     | 25.989     |   0.0 | 43.05
Comm    | 0.57653    | 0.57653    | 0.57653    |   0.0 |  0.95
Output  | 0.044061   | 0.044061   | 0.044061   |   0.0 |  0.07
Modify  | 0.83159    | 0.83159    | 0.83159    |   0.0 |  1.38
Other   |            | 0.3627     |            |       |  0.60

Nlocal:    19652 ave 19652 max 19652 min
Histogram: 1 0 0 0 0 0 0 0 0 0
Nghost:    17041 ave 17041 max 17041 min
Histogram: 1 0 0 0 0 0 0 0 0 0
Neighs:    1.24909e+06 ave 1.24909e+06 max 1.24909e+06 min
Histogram: 1 0 0 0 0 0 0 0 0 0

Total # of neighbors = 1249094
Ave neighs/atom = 63.5607
Neighbor list builds = 505
Dangerous builds not checked
Setting up Verlet run ...
  Unit style    : metal
  Current step  : 61000
  Time step     : 0.001
Per MPI rank memory allocation (min/avg/max) = 18.2 | 18.2 | 18.2 Mbytes
Step Temp Press TotEng PotEng Enthalpy Volume 
   61000    1387.5602   -543.22392   -46277.623   -49802.152    -46412.33    397304.31 
   61495    1365.0916   -359.55855   -46436.822   -49904.279   -46525.682     395956.7 
Loop time of 61.0613 on 1 procs for 495 steps with 19652 atoms

Performance: 0.700 ns/day, 34.266 hours/ns, 8.107 timesteps/s
99.8% CPU use with 1 MPI tasks x no OpenMP threads

MPI task timing breakdown:
Section |  min time  |  avg time  |  max time  |%varavg| %total
---------------------------------------------------------------
Pair    | 33.218     | 33.218     | 33.218     |   0.0 | 54.40
Neigh   | 25.961     | 25.961     | 25.961     |   0.0 | 42.52
Comm    | 0.61678    | 0.61678    | 0.61678    |   0.0 |  1.01
Output  | 0.00040412 | 0.00040412 | 0.00040412 |   0.0 |  0.00
Modify  | 0.88028    | 0.88028    | 0.88028    |   0.0 |  1.44
Other   |            | 0.3846     |            |       |  0.63

Nlocal:    19652 ave 19652 max 19652 min
Histogram: 1 0 0 0 0 0 0 0 0 0
Nghost:    17082 ave 17082 max 17082 min
Histogram: 1 0 0 0 0 0 0 0 0 0
Neighs:    1.25422e+06 ave 1.25422e+06 max 1.25422e+06 min
Histogram: 1 0 0 0 0 0 0 0 0 0

Total # of neighbors = 1254223
Ave neighs/atom = 63.8216
Neighbor list builds = 495
Dangerous builds not checked
Setting up Verlet run ...
  Unit style    : metal
  Current step  : 61495
  Time step     : 0.001
Per MPI rank memory allocation (min/avg/max) = 18.2 | 18.2 | 18.2 Mbytes
Step Temp Press TotEng PotEng Enthalpy Volume 
   61495    1365.0916   -359.55855   -46436.822   -49904.279   -46525.682     395956.7 
   62000    1353.7108   -306.29394   -46582.799   -50021.348     -46658.2    394409.93 
Loop time of 60.9144 on 1 procs for 505 steps with 19652 atoms

Performance: 0.716 ns/day, 33.506 hours/ns, 8.290 timesteps/s
99.5% CPU use with 1 MPI tasks x no OpenMP threads

MPI task timing breakdown:
Section |  min time  |  avg time  |  max time  |%varavg| %total
---------------------------------------------------------------
Pair    | 33.082     | 33.082     | 33.082     |   0.0 | 54.31
Neigh   | 25.979     | 25.979     | 25.979     |   0.0 | 42.65
Comm    | 0.58645    | 0.58645    | 0.58645    |   0.0 |  0.96
Output  | 0.045403   | 0.045403   | 0.045403   |   0.0 |  0.07
Modify  | 0.85594    | 0.85594    | 0.85594    |   0.0 |  1.41
Other   |            | 0.3663     |            |       |  0.60

Nlocal:    19652 ave 19652 max 19652 min
Histogram: 1 0 0 0 0 0 0 0 0 0
Nghost:    17080 ave 17080 max 17080 min
Histogram: 1 0 0 0 0 0 0 0 0 0
Neighs:    1.25964e+06 ave 1.25964e+06 max 1.25964e+06 min
Histogram: 1 0 0 0 0 0 0 0 0 0

Total # of neighbors = 1259640
Ave neighs/atom = 64.0973
Neighbor list builds = 505
Dangerous builds not checked
Setting up Verlet run ...
  Unit style    : metal
  Current step  : 62000
  Time step     : 0.001
Per MPI rank memory allocation (min/avg/max) = 18.2 | 18.2 | 18.2 Mbytes
Step Temp Press TotEng PotEng Enthalpy Volume 
   62000    1353.7108   -306.29394   -46582.799   -50021.348     -46658.2    394409.93 
   62495    1310.5929    954.85891   -46772.481   -50101.506   -46538.587    392454.72 
Loop time of 59.5683 on 1 procs for 495 steps with 19652 atoms

Performance: 0.718 ns/day, 33.428 hours/ns, 8.310 timesteps/s
99.7% CPU use with 1 MPI tasks x no OpenMP threads

MPI task timing breakdown:
Section |  min time  |  avg time  |  max time  |%varavg| %total
---------------------------------------------------------------
Pair    | 32.343     | 32.343     | 32.343     |   0.0 | 54.30
Neigh   | 25.466     | 25.466     | 25.466     |   0.0 | 42.75
Comm    | 0.57509    | 0.57509    | 0.57509    |   0.0 |  0.97
Output  | 0.00024915 | 0.00024915 | 0.00024915 |   0.0 |  0.00
Modify  | 0.82689    | 0.82689    | 0.82689    |   0.0 |  1.39
Other   |            | 0.3569     |            |       |  0.60

Nlocal:    19652 ave 19652 max 19652 min
Histogram: 1 0 0 0 0 0 0 0 0 0
Nghost:    17053 ave 17053 max 17053 min
Histogram: 1 0 0 0 0 0 0 0 0 0
Neighs:    1.26576e+06 ave 1.26576e+06 max 1.26576e+06 min
Histogram: 1 0 0 0 0 0 0 0 0 0

Total # of neighbors = 1265763
Ave neighs/atom = 64.4089
Neighbor list builds = 495
Dangerous builds not checked
Setting up Verlet run ...
  Unit style    : metal
  Current step  : 62495
  Time step     : 0.001
Per MPI rank memory allocation (min/avg/max) = 18.2 | 18.2 | 18.2 Mbytes
Step Temp Press TotEng PotEng Enthalpy Volume 
   62495    1310.5929    954.85891   -46772.481   -50101.506   -46538.587    392454.72 
   63000    1295.5263   -220.74569   -46909.088   -50199.843   -46963.092    391959.59 
Loop time of 60.4217 on 1 procs for 505 steps with 19652 atoms

Performance: 0.722 ns/day, 33.235 hours/ns, 8.358 timesteps/s
99.7% CPU use with 1 MPI tasks x no OpenMP threads

MPI task timing breakdown:
Section |  min time  |  avg time  |  max time  |%varavg| %total
---------------------------------------------------------------
Pair    | 32.796     | 32.796     | 32.796     |   0.0 | 54.28
Neigh   | 25.826     | 25.826     | 25.826     |   0.0 | 42.74
Comm    | 0.57177    | 0.57177    | 0.57177    |   0.0 |  0.95
Output  | 0.045568   | 0.045568   | 0.045568   |   0.0 |  0.08
Modify  | 0.82524    | 0.82524    | 0.82524    |   0.0 |  1.37
Other   |            | 0.3569     |            |       |  0.59

Nlocal:    19652 ave 19652 max 19652 min
Histogram: 1 0 0 0 0 0 0 0 0 0
Nghost:    17066 ave 17066 max 17066 min
Histogram: 1 0 0 0 0 0 0 0 0 0
Neighs:    1.2668e+06 ave 1.2668e+06 max 1.2668e+06 min
Histogram: 1 0 0 0 0 0 0 0 0 0

Total # of neighbors = 1266795
Ave neighs/atom = 64.4614
Neighbor list builds = 505
Dangerous builds not checked
Setting up Verlet run ...
  Unit style    : metal
  Current step  : 63000
  Time step     : 0.001
Per MPI rank memory allocation (min/avg/max) = 18.2 | 18.2 | 18.2 Mbytes
Step Temp Press TotEng PotEng Enthalpy Volume 
   63000    1295.5263   -220.74569   -46909.088   -50199.843   -46963.092    391959.59 
   63495    1263.9343   -381.91459   -47096.023   -50306.531    -47189.18     390804.3 
Loop time of 63.043 on 1 procs for 495 steps with 19652 atoms

Performance: 0.678 ns/day, 35.378 hours/ns, 7.852 timesteps/s
99.7% CPU use with 1 MPI tasks x no OpenMP threads

MPI task timing breakdown:
Section |  min time  |  avg time  |  max time  |%varavg| %total
---------------------------------------------------------------
Pair    | 34.805     | 34.805     | 34.805     |   0.0 | 55.21
Neigh   | 26.155     | 26.155     | 26.155     |   0.0 | 41.49
Comm    | 0.694      | 0.694      | 0.694      |   0.0 |  1.10
Output  | 0.00028706 | 0.00028706 | 0.00028706 |   0.0 |  0.00
Modify  | 0.98937    | 0.98937    | 0.98937    |   0.0 |  1.57
Other   |            | 0.3997     |            |       |  0.63

Nlocal:    19652 ave 19652 max 19652 min
Histogram: 1 0 0 0 0 0 0 0 0 0
Nghost:    17095 ave 17095 max 17095 min
Histogram: 1 0 0 0 0 0 0 0 0 0
Neighs:    1.2713e+06 ave 1.2713e+06 max 1.2713e+06 min
Histogram: 1 0 0 0 0 0 0 0 0 0

Total # of neighbors = 1271300
Ave neighs/atom = 64.6906
Neighbor list builds = 495
Dangerous builds not checked
Setting up Verlet run ...
  Unit style    : metal
  Current step  : 63495
  Time step     : 0.001
Per MPI rank memory allocation (min/avg/max) = 18.2 | 18.2 | 18.2 Mbytes
Step Temp Press TotEng PotEng Enthalpy Volume 
   63495    1263.9343   -381.91459   -47096.023   -50306.531    -47189.18     390804.3 
   64000    1244.3151   -356.85831   -47230.934   -50391.608   -47317.699    389548.08 
Loop time of 60.8889 on 1 procs for 505 steps with 19652 atoms

Performance: 0.717 ns/day, 33.492 hours/ns, 8.294 timesteps/s
99.5% CPU use with 1 MPI tasks x no OpenMP threads

MPI task timing breakdown:
Section |  min time  |  avg time  |  max time  |%varavg| %total
---------------------------------------------------------------
Pair    | 33.11      | 33.11      | 33.11      |   0.0 | 54.38
Neigh   | 25.951     | 25.951     | 25.951     |   0.0 | 42.62
Comm    | 0.57671    | 0.57671    | 0.57671    |   0.0 |  0.95
Output  | 0.043445   | 0.043445   | 0.043445   |   0.0 |  0.07
Modify  | 0.84288    | 0.84288    | 0.84288    |   0.0 |  1.38
Other   |            | 0.3648     |            |       |  0.60

Nlocal:    19652 ave 19652 max 19652 min
Histogram: 1 0 0 0 0 0 0 0 0 0
Nghost:    17131 ave 17131 max 17131 min
Histogram: 1 0 0 0 0 0 0 0 0 0
Neighs:    1.27505e+06 ave 1.27505e+06 max 1.27505e+06 min
Histogram: 1 0 0 0 0 0 0 0 0 0

Total # of neighbors = 1275050
Ave neighs/atom = 64.8814
Neighbor list builds = 505
Dangerous builds not checked
Setting up Verlet run ...
  Unit style    : metal
  Current step  : 64000
  Time step     : 0.001
Per MPI rank memory allocation (min/avg/max) = 18.2 | 18.2 | 18.2 Mbytes
Step Temp Press TotEng PotEng Enthalpy Volume 
   64000    1244.3151   -356.85831   -47230.934   -50391.608   -47317.699    389548.08 
   64495    1202.9868    78.097248    -47399.78   -50455.476   -47380.836    388650.14 
Loop time of 60.1504 on 1 procs for 495 steps with 19652 atoms

Performance: 0.711 ns/day, 33.754 hours/ns, 8.229 timesteps/s
[...]
Loop time of 62.0056 on 1 procs for 495 steps with 19652 atoms

Performance: 0.690 ns/day, 34.796 hours/ns, 7.983 timesteps/s
99.5% CPU use with 1 MPI tasks x no OpenMP threads

MPI task timing breakdown:
Section |  min time  |  avg time  |  max time  |%varavg| %total
---------------------------------------------------------------
Pair    | 32.923     | 32.923     | 32.923     |   0.0 | 53.10
Neigh   | 27.532     | 27.532     | 27.532     |   0.0 | 44.40
Comm    | 0.49663    | 0.49663    | 0.49663    |   0.0 |  0.80
Output  | 0.00029802 | 0.00029802 | 0.00029802 |   0.0 |  0.00
Modify  | 0.73137    | 0.73137    | 0.73137    |   0.0 |  1.18
Other   |            | 0.3223     |            |       |  0.52

Nlocal:    19652 ave 19652 max 19652 min
Histogram: 1 0 0 0 0 0 0 0 0 0
Nghost:    17864 ave 17864 max 17864 min
Histogram: 1 0 0 0 0 0 0 0 0 0
Neighs:    1.41314e+06 ave 1.41314e+06 max 1.41314e+06 min
Histogram: 1 0 0 0 0 0 0 0 0 0

Total # of neighbors = 1413137
Ave neighs/atom = 71.9081
Neighbor list builds = 495
Dangerous builds not checked
Setting up Verlet run ...
  Unit style    : metal
  Current step  : 80495
  Time step     : 0.001
Per MPI rank memory allocation (min/avg/max) = 18.2 | 18.2 | 18.2 Mbytes
Step Temp Press TotEng PotEng Enthalpy Volume 
   80495    423.52512   -551.20274   -52661.775   -53737.567   -52783.105    352670.65 
   81000    398.93011    339.33218   -52810.259   -53823.578   -52735.816    351487.59 
Loop time of 64.8616 on 1 procs for 505 steps with 19652 atoms

Performance: 0.673 ns/day, 35.677 hours/ns, 7.786 timesteps/s
99.6% CPU use with 1 MPI tasks x no OpenMP threads

MPI task timing breakdown:
Section |  min time  |  avg time  |  max time  |%varavg| %total
---------------------------------------------------------------
Pair    | 34.535     | 34.535     | 34.535     |   0.0 | 53.24
Neigh   | 28.562     | 28.562     | 28.562     |   0.0 | 44.03
Comm    | 0.56177    | 0.56177    | 0.56177    |   0.0 |  0.87
Output  | 0.040429   | 0.040429   | 0.040429   |   0.0 |  0.06
Modify  | 0.80502    | 0.80502    | 0.80502    |   0.0 |  1.24
Other   |            | 0.3578     |            |       |  0.55

Nlocal:    19652 ave 19652 max 19652 min
Histogram: 1 0 0 0 0 0 0 0 0 0
Nghost:    17911 ave 17911 max 17911 min
Histogram: 1 0 0 0 0 0 0 0 0 0
Neighs:    1.4175e+06 ave 1.4175e+06 max 1.4175e+06 min
Histogram: 1 0 0 0 0 0 0 0 0 0

Total # of neighbors = 1417502
Ave neighs/atom = 72.1302
Neighbor list builds = 505
Dangerous builds not checked
Setting up Verlet run ...
  Unit style    : metal
  Current step  : 81000
  Time step     : 0.001
Per MPI rank memory allocation (min/avg/max) = 18.2 | 18.2 | 18.2 Mbytes
Step Temp Press TotEng PotEng Enthalpy Volume 
   81000    398.93011    339.33218   -52810.259   -53823.578   -52735.816    351487.59 
   81495    372.30297    28.298055   -52957.593   -53903.277   -52951.398    350786.89 
Loop time of 63.0802 on 1 procs for 495 steps with 19652 atoms

Performance: 0.678 ns/day, 35.399 hours/ns, 7.847 timesteps/s
99.6% CPU use with 1 MPI tasks x no OpenMP threads

MPI task timing breakdown:
Section |  min time  |  avg time  |  max time  |%varavg| %total
---------------------------------------------------------------
Pair    | 33.516     | 33.516     | 33.516     |   0.0 | 53.13
Neigh   | 27.922     | 27.922     | 27.922     |   0.0 | 44.26
Comm    | 0.53817    | 0.53817    | 0.53817    |   0.0 |  0.85
Output  | 0.00025105 | 0.00025105 | 0.00025105 |   0.0 |  0.00
Modify  | 0.76932    | 0.76932    | 0.76932    |   0.0 |  1.22
Other   |            | 0.3347     |            |       |  0.53

Nlocal:    19652 ave 19652 max 19652 min
Histogram: 1 0 0 0 0 0 0 0 0 0
Nghost:    17921 ave 17921 max 17921 min
Histogram: 1 0 0 0 0 0 0 0 0 0
Neighs:    1.42029e+06 ave 1.42029e+06 max 1.42029e+06 min
Histogram: 1 0 0 0 0 0 0 0 0 0

Total # of neighbors = 1420287
Ave neighs/atom = 72.2719
Neighbor list builds = 495
Dangerous builds not checked
Setting up Verlet run ...
  Unit style    : metal
  Current step  : 81495
  Time step     : 0.001
Per MPI rank memory allocation (min/avg/max) = 18.2 | 18.2 | 18.2 Mbytes
Step Temp Press TotEng PotEng Enthalpy Volume 
   81495    372.30297    28.298055   -52957.593   -53903.277   -52951.398    350786.89 
   82000    350.44514    286.93447   -53098.147    -53988.31   -53035.482    349905.86 
Loop time of 65.2341 on 1 procs for 505 steps with 19652 atoms

Performance: 0.669 ns/day, 35.882 hours/ns, 7.741 timesteps/s
99.2% CPU use with 1 MPI tasks x no OpenMP threads

MPI task timing breakdown:
Section |  min time  |  avg time  |  max time  |%varavg| %total
---------------------------------------------------------------
Pair    | 34.768     | 34.768     | 34.768     |   0.0 | 53.30
Neigh   | 28.669     | 28.669     | 28.669     |   0.0 | 43.95
Comm    | 0.5838     | 0.5838     | 0.5838     |   0.0 |  0.89
Output  | 0.042031   | 0.042031   | 0.042031   |   0.0 |  0.06
Modify  | 0.81573    | 0.81573    | 0.81573    |   0.0 |  1.25
Other   |            | 0.3562     |            |       |  0.55

Nlocal:    19652 ave 19652 max 19652 min
Histogram: 1 0 0 0 0 0 0 0 0 0
Nghost:    17904 ave 17904 max 17904 min
Histogram: 1 0 0 0 0 0 0 0 0 0
Neighs:    1.42375e+06 ave 1.42375e+06 max 1.42375e+06 min
Histogram: 1 0 0 0 0 0 0 0 0 0

Total # of neighbors = 1423750
Ave neighs/atom = 72.4481
Neighbor list builds = 505
Dangerous builds not checked
Setting up Verlet run ...
  Unit style    : metal
  Current step  : 82000
  Time step     : 0.001
Per MPI rank memory allocation (min/avg/max) = 18.2 | 18.2 | 18.2 Mbytes
Step Temp Press TotEng PotEng Enthalpy Volume 
   82000    350.44514    286.93447   -53098.147    -53988.31   -53035.482    349905.86 
   82495    322.46294   -137.63042   -53249.152   -54068.237   -53279.159    349320.92 
Loop time of 66.2707 on 1 procs for 495 steps with 19652 atoms

Performance: 0.645 ns/day, 37.189 hours/ns, 7.469 timesteps/s
99.5% CPU use with 1 MPI tasks x no OpenMP threads

MPI task timing breakdown:
Section |  min time  |  avg time  |  max time  |%varavg| %total
---------------------------------------------------------------
Pair    | 35.73      | 35.73      | 35.73      |   0.0 | 53.91
Neigh   | 28.647     | 28.647     | 28.647     |   0.0 | 43.23
Comm    | 0.62799    | 0.62799    | 0.62799    |   0.0 |  0.95
Output  | 0.00029922 | 0.00029922 | 0.00029922 |   0.0 |  0.00
Modify  | 0.87858    | 0.87858    | 0.87858    |   0.0 |  1.33
Other   |            | 0.3871     |            |       |  0.58

Nlocal:    19652 ave 19652 max 19652 min
Histogram: 1 0 0 0 0 0 0 0 0 0
Nghost:    17922 ave 17922 max 17922 min
Histogram: 1 0 0 0 0 0 0 0 0 0
Neighs:    1.42594e+06 ave 1.42594e+06 max 1.42594e+06 min
Histogram: 1 0 0 0 0 0 0 0 0 0

Total # of neighbors = 1425944
Ave neighs/atom = 72.5597
Neighbor list builds = 495
Dangerous builds not checked
Setting up Verlet run ...
  Unit style    : metal
  Current step  : 82495
  Time step     : 0.001
Per MPI rank memory allocation (min/avg/max) = 18.2 | 18.2 | 18.2 Mbytes
Step Temp Press TotEng PotEng Enthalpy Volume 
   82495    322.46294   -137.63042   -53249.152   -54068.237   -53279.159    349320.92 
   83000    303.35862    319.81911   -53386.146   -54156.704   -53316.619    348302.45 
Loop time of 66.3138 on 1 procs for 505 steps with 19652 atoms

Performance: 0.658 ns/day, 36.476 hours/ns, 7.615 timesteps/s
98.7% CPU use with 1 MPI tasks x no OpenMP threads

MPI task timing breakdown:
Section |  min time  |  avg time  |  max time  |%varavg| %total
---------------------------------------------------------------
Pair    | 35.505     | 35.505     | 35.505     |   0.0 | 53.54
Neigh   | 28.957     | 28.957     | 28.957     |   0.0 | 43.67
Comm    | 0.59184    | 0.59184    | 0.59184    |   0.0 |  0.89
Output  | 0.045374   | 0.045374   | 0.045374   |   0.0 |  0.07
Modify  | 0.83851    | 0.83851    | 0.83851    |   0.0 |  1.26
Other   |            | 0.376      |            |       |  0.57

Nlocal:    19652 ave 19652 max 19652 min
Histogram: 1 0 0 0 0 0 0 0 0 0
Nghost:    17914 ave 17914 max 17914 min
Histogram: 1 0 0 0 0 0 0 0 0 0
Neighs:    1.42985e+06 ave 1.42985e+06 max 1.42985e+06 min
Histogram: 1 0 0 0 0 0 0 0 0 0

Total # of neighbors = 1429846
Ave neighs/atom = 72.7583
Neighbor list builds = 505
Dangerous builds not checked
Setting up Verlet run ...
  Unit style    : metal
  Current step  : 83000
  Time step     : 0.001
Per MPI rank memory allocation (min/avg/max) = 18.2 | 18.2 | 18.2 Mbytes
Step Temp Press TotEng PotEng Enthalpy Volume 
   83000    303.35862    319.81911   -53386.146   -54156.704   -53316.619    348302.45 
   83495    274.40043   -589.30231   -53524.009   -54221.011   -53652.012    348011.98 
Loop time of 65.7861 on 1 procs for 495 steps with 19652 atoms

Performance: 0.650 ns/day, 36.917 hours/ns, 7.524 timesteps/s
99.3% CPU use with 1 MPI tasks x no OpenMP threads

MPI task timing breakdown:
Section |  min time  |  avg time  |  max time  |%varavg| %total
---------------------------------------------------------------
Pair    | 35.417     | 35.417     | 35.417     |   0.0 | 53.84
Neigh   | 28.486     | 28.486     | 28.486     |   0.0 | 43.30
Comm    | 0.62784    | 0.62784    | 0.62784    |   0.0 |  0.95
Output  | 0.00028682 | 0.00028682 | 0.00028682 |   0.0 |  0.00
Modify  | 0.87818    | 0.87818    | 0.87818    |   0.0 |  1.33
Other   |            | 0.3772     |            |       |  0.57

Nlocal:    19652 ave 19652 max 19652 min
Histogram: 1 0 0 0 0 0 0 0 0 0
Nghost:    17987 ave 17987 max 17987 min
Histogram: 1 0 0 0 0 0 0 0 0 0
Neighs:    1.43081e+06 ave 1.43081e+06 max 1.43081e+06 min
Histogram: 1 0 0 0 0 0 0 0 0 0

Total # of neighbors = 1430808
Ave neighs/atom = 72.8072
Neighbor list builds = 495
Dangerous builds not checked
Setting up Verlet run ...
  Unit style    : metal
  Current step  : 83495
  Time step     : 0.001
Per MPI rank memory allocation (min/avg/max) = 18.2 | 18.2 | 18.2 Mbytes
Step Temp Press TotEng PotEng Enthalpy Volume 
   83495    274.40043   -589.30231   -53524.009   -54221.011   -53652.012    348011.98 
   84000    250.24379   -294.72789   -53665.103   -54300.745   -53728.958    347126.16 
Loop time of 69.2766 on 1 procs for 505 steps with 19652 atoms

Performance: 0.630 ns/day, 38.106 hours/ns, 7.290 timesteps/s
96.9% CPU use with 1 MPI tasks x no OpenMP threads

MPI task timing breakdown:
Section |  min time  |  avg time  |  max time  |%varavg| %total
---------------------------------------------------------------
Pair    | 37.435     | 37.435     | 37.435     |   0.0 | 54.04
Neigh   | 29.753     | 29.753     | 29.753     |   0.0 | 42.95
Comm    | 0.66727    | 0.66727    | 0.66727    |   0.0 |  0.96
Output  | 0.081604   | 0.081604   | 0.081604   |   0.0 |  0.12
Modify  | 0.93875    | 0.93875    | 0.93875    |   0.0 |  1.36
Other   |            | 0.401      |            |       |  0.58

Nlocal:    19652 ave 19652 max 19652 min
Histogram: 1 0 0 0 0 0 0 0 0 0
Nghost:    18004 ave 18004 max 18004 min
Histogram: 1 0 0 0 0 0 0 0 0 0
Neighs:    1.43439e+06 ave 1.43439e+06 max 1.43439e+06 min
Histogram: 1 0 0 0 0 0 0 0 0 0

Total # of neighbors = 1434393
Ave neighs/atom = 72.9897
Neighbor list builds = 505
Dangerous builds not checked
Setting up Verlet run ...
  Unit style    : metal
  Current step  : 84000
  Time step     : 0.001
Per MPI rank memory allocation (min/avg/max) = 18.2 | 18.2 | 18.2 Mbytes
Step Temp Press TotEng PotEng Enthalpy Volume 
   84000    250.24379   -294.72789   -53665.103   -54300.745   -53728.958    347126.16 
   84495    224.85679   -257.45416   -53803.209   -54374.366    -53858.88    346450.01 
Loop time of 73.3991 on 1 procs for 495 steps with 19652 atoms

Performance: 0.583 ns/day, 41.189 hours/ns, 6.744 timesteps/s
87.4% CPU use with 1 MPI tasks x no OpenMP threads

MPI task timing breakdown:
Section |  min time  |  avg time  |  max time  |%varavg| %total
---------------------------------------------------------------
Pair    | 39.608     | 39.608     | 39.608     |   0.0 | 53.96
Neigh   | 31.749     | 31.749     | 31.749     |   0.0 | 43.26
Comm    | 0.67341    | 0.67341    | 0.67341    |   0.0 |  0.92
Output  | 0.00024295 | 0.00024295 | 0.00024295 |   0.0 |  0.00
Modify  | 0.96402    | 0.96402    | 0.96402    |   0.0 |  1.31
Other   |            | 0.404      |            |       |  0.55

Nlocal:    19652 ave 19652 max 19652 min
Histogram: 1 0 0 0 0 0 0 0 0 0
Nghost:    18019 ave 18019 max 18019 min
Histogram: 1 0 0 0 0 0 0 0 0 0
Neighs:    1.43702e+06 ave 1.43702e+06 max 1.43702e+06 min
Histogram: 1 0 0 0 0 0 0 0 0 0

Total # of neighbors = 1437020
Ave neighs/atom = 73.1233
Neighbor list builds = 495
Dangerous builds not checked
Setting up Verlet run ...
  Unit style    : metal
  Current step  : 84495
  Time step     : 0.001
Per MPI rank memory allocation (min/avg/max) = 18.2 | 18.2 | 18.2 Mbytes
Step Temp Press TotEng PotEng Enthalpy Volume 
   84495    224.85679   -257.45416   -53803.209   -54374.366    -53858.88    346450.01 
   85000    199.53766    278.76727   -53943.865   -54450.708   -53883.743     345542.5 
Loop time of 82.2197 on 1 procs for 505 steps with 19652 atoms

Performance: 0.531 ns/day, 45.225 hours/ns, 6.142 timesteps/s
80.9% CPU use with 1 MPI tasks x no OpenMP threads

MPI task timing breakdown:
Section |  min time  |  avg time  |  max time  |%varavg| %total
---------------------------------------------------------------
Pair    | 44.835     | 44.835     | 44.835     |   0.0 | 54.53
Neigh   | 35.052     | 35.052     | 35.052     |   0.0 | 42.63
Comm    | 0.77425    | 0.77425    | 0.77425    |   0.0 |  0.94
Output  | 0.041866   | 0.041866   | 0.041866   |   0.0 |  0.05
Modify  | 1.0964     | 1.0964     | 1.0964     |   0.0 |  1.33
Other   |            | 0.4205     |            |       |  0.51

Nlocal:    19652 ave 19652 max 19652 min
Histogram: 1 0 0 0 0 0 0 0 0 0
Nghost:    18045 ave 18045 max 18045 min
Histogram: 1 0 0 0 0 0 0 0 0 0
Neighs:    1.44094e+06 ave 1.44094e+06 max 1.44094e+06 min
Histogram: 1 0 0 0 0 0 0 0 0 0

Total # of neighbors = 1440939
Ave neighs/atom = 73.3228
Neighbor list builds = 505
Dangerous builds not checked
Setting up Verlet run ...
  Unit style    : metal
  Current step  : 85000
  Time step     : 0.001
Per MPI rank memory allocation (min/avg/max) = 18.2 | 18.2 | 18.2 Mbytes
Step Temp Press TotEng PotEng Enthalpy Volume 
   85000    199.53766    278.76727   -53943.865   -54450.708   -53883.743     345542.5 
   85495    175.50423   -73.784429    -54077.33   -54523.127   -54093.219    345009.22 
Loop time of 76.0284 on 1 procs for 495 steps with 19652 atoms

Performance: 0.563 ns/day, 42.665 hours/ns, 6.511 timesteps/s
85.7% CPU use with 1 MPI tasks x no OpenMP threads

MPI task timing breakdown:
Section |  min time  |  avg time  |  max time  |%varavg| %total
---------------------------------------------------------------
Pair    | 40.942     | 40.942     | 40.942     |   0.0 | 53.85
Neigh   | 32.813     | 32.813     | 32.813     |   0.0 | 43.16
Comm    | 0.81362    | 0.81362    | 0.81362    |   0.0 |  1.07
Output  | 0.00033593 | 0.00033593 | 0.00033593 |   0.0 |  0.00
Modify  | 1.0132     | 1.0132     | 1.0132     |   0.0 |  1.33
Other   |            | 0.4456     |            |       |  0.59

Nlocal:    19652 ave 19652 max 19652 min
Histogram: 1 0 0 0 0 0 0 0 0 0
Nghost:    18051 ave 18051 max 18051 min
Histogram: 1 0 0 0 0 0 0 0 0 0
Neighs:    1.44292e+06 ave 1.44292e+06 max 1.44292e+06 min
Histogram: 1 0 0 0 0 0 0 0 0 0

Total # of neighbors = 1442916
Ave neighs/atom = 73.4234
Neighbor list builds = 495
Dangerous builds not checked
Setting up Verlet run ...
  Unit style    : metal
  Current step  : 85495
  Time step     : 0.001
Per MPI rank memory allocation (min/avg/max) = 18.2 | 18.2 | 18.2 Mbytes
Step Temp Press TotEng PotEng Enthalpy Volume 
   85495    175.50423   -73.784429    -54077.33   -54523.127   -54093.219    345009.22 
   86000    151.94617   -47.221875   -54212.671   -54598.628    -54222.82    344323.77 
Loop time of 75.9207 on 1 procs for 505 steps with 19652 atoms

Performance: 0.575 ns/day, 41.761 hours/ns, 6.652 timesteps/s
87.0% CPU use with 1 MPI tasks x no OpenMP threads

MPI task timing breakdown:
Section |  min time  |  avg time  |  max time  |%varavg| %total
---------------------------------------------------------------
Pair    | 41.04      | 41.04      | 41.04      |   0.0 | 54.06
Neigh   | 32.733     | 32.733     | 32.733     |   0.0 | 43.11
Comm    | 0.69321    | 0.69321    | 0.69321    |   0.0 |  0.91
Output  | 0.046161   | 0.046161   | 0.046161   |   0.0 |  0.06
Modify  | 0.94448    | 0.94448    | 0.94448    |   0.0 |  1.24
Other   |            | 0.4639     |            |       |  0.61

Nlocal:    19652 ave 19652 max 19652 min
Histogram: 1 0 0 0 0 0 0 0 0 0
Nghost:    18084 ave 18084 max 18084 min
Histogram: 1 0 0 0 0 0 0 0 0 0
Neighs:    1.4457e+06 ave 1.4457e+06 max 1.4457e+06 min
Histogram: 1 0 0 0 0 0 0 0 0 0

Total # of neighbors = 1445702
Ave neighs/atom = 73.5651
Neighbor list builds = 505
Dangerous builds not checked
Setting up Verlet run ...
  Unit style    : metal
  Current step  : 86000
  Time step     : 0.001
Per MPI rank memory allocation (min/avg/max) = 18.2 | 18.2 | 18.2 Mbytes
Step Temp Press TotEng PotEng Enthalpy Volume 
   86000    151.94617   -47.221875   -54212.671   -54598.628    -54222.82    344323.77 
   86495      126.106   -175.01576   -54339.259    -54659.58   -54376.813    343789.04 
Loop time of 74.9709 on 1 procs for 495 steps with 19652 atoms

Performance: 0.570 ns/day, 42.071 hours/ns, 6.603 timesteps/s
86.4% CPU use with 1 MPI tasks x no OpenMP threads

MPI task timing breakdown:
Section |  min time  |  avg time  |  max time  |%varavg| %total
---------------------------------------------------------------
Pair    | 40.352     | 40.352     | 40.352     |   0.0 | 53.82
Neigh   | 32.44      | 32.44      | 32.44      |   0.0 | 43.27
Comm    | 0.71789    | 0.71789    | 0.71789    |   0.0 |  0.96
Output  | 0.00020504 | 0.00020504 | 0.00020504 |   0.0 |  0.00
Modify  | 0.9902     | 0.9902     | 0.9902     |   0.0 |  1.32
Other   |            | 0.4705     |            |       |  0.63

Nlocal:    19652 ave 19652 max 19652 min
Histogram: 1 0 0 0 0 0 0 0 0 0
Nghost:    18081 ave 18081 max 18081 min
Histogram: 1 0 0 0 0 0 0 0 0 0
Neighs:    1.44804e+06 ave 1.44804e+06 max 1.44804e+06 min
Histogram: 1 0 0 0 0 0 0 0 0 0

Total # of neighbors = 1448042
Ave neighs/atom = 73.6842
Neighbor list builds = 495
Dangerous builds not checked
Setting up Verlet run ...
  Unit style    : metal
  Current step  : 86495
  Time step     : 0.001
Per MPI rank memory allocation (min/avg/max) = 18.2 | 18.2 | 18.2 Mbytes
Step Temp Press TotEng PotEng Enthalpy Volume 
   86495      126.106   -175.01576   -54339.259    -54659.58   -54376.813    343789.04 
   87000    103.57672    14.363317   -54471.318   -54734.412   -54468.242    343054.92 
Loop time of 78.1342 on 1 procs for 505 steps with 19652 atoms

Performance: 0.558 ns/day, 42.978 hours/ns, 6.463 timesteps/s
84.6% CPU use with 1 MPI tasks x no OpenMP threads

MPI task timing breakdown:
Section |  min time  |  avg time  |  max time  |%varavg| %total
---------------------------------------------------------------
Pair    | 41.626     | 41.626     | 41.626     |   0.0 | 53.28
Neigh   | 34.259     | 34.259     | 34.259     |   0.0 | 43.85
Comm    | 0.76417    | 0.76417    | 0.76417    |   0.0 |  0.98
Output  | 0.044453   | 0.044453   | 0.044453   |   0.0 |  0.06
Modify  | 1.0162     | 1.0162     | 1.0162     |   0.0 |  1.30
Other   |            | 0.424      |            |       |  0.54

Nlocal:    19652 ave 19652 max 19652 min
Histogram: 1 0 0 0 0 0 0 0 0 0
Nghost:    18105 ave 18105 max 18105 min
Histogram: 1 0 0 0 0 0 0 0 0 0
Neighs:    1.45102e+06 ave 1.45102e+06 max 1.45102e+06 min
Histogram: 1 0 0 0 0 0 0 0 0 0

Total # of neighbors = 1451025
Ave neighs/atom = 73.836
Neighbor list builds = 505
Dangerous builds not checked
Total wall time: 2:58:37
