LAMMPS (12 Dec 2018)
Lattice spacing in x,y,z = 4 4 4
Created orthogonal box = (0 0 0) to (68 68 68)
  1 by 1 by 2 MPI processor grid
Created 19652 atoms
  Time spent = 0.00179911 secs
Setting atom values ...
  206 settings made for type/fraction
Neighbor list info ...
  update every 1 steps, delay 0 steps, check no
  max neighbors/atom: 2000, page size: 100000
  master list distance cutoff = 8.5
  ghost atom cutoff = 8.5
  binsize = 4.25, bins = 16 16 16
  1 neighbor lists, perpetual/occasional/extra = 1 0 0
  (1) pair eam/alloy, perpetual
      attributes: half, newton on
      pair build: half/bin/atomonly/newton
      stencil: half/bin/3d/newton
      bin: standard
Setting up Verlet run ...
  Unit style    : metal
  Current step  : 0
  Time step     : 0.001
Per MPI rank memory allocation (min/avg/max) = 11.15 | 11.15 | 11.15 Mbytes
Step Temp Press TotEng PotEng Enthalpy 
       0          300    1211511.3   -18369.104   -19131.132    219393.67 
    1000    156.99672    1214769.1   -18368.971   -18767.757    220033.15 
Loop time of 90.9492 on 2 procs for 1000 steps with 19652 atoms

Performance: 0.950 ns/day, 25.264 hours/ns, 10.995 timesteps/s
99.4% CPU use with 2 MPI tasks x no OpenMP threads

MPI task timing breakdown:
Section |  min time  |  avg time  |  max time  |%varavg| %total
---------------------------------------------------------------
Pair    | 51.805     | 52.1       | 52.394     |   4.1 | 57.28
Neigh   | 35.474     | 35.678     | 35.882     |   3.4 | 39.23
Comm    | 2.6311     | 2.7212     | 2.8113     |   5.5 |  2.99
Output  | 0.00011396 | 0.00013757 | 0.00016117 |   0.0 |  0.00
Modify  | 0.2291     | 0.22915    | 0.2292     |   0.0 |  0.25
Other   |            | 0.2213     |            |       |  0.24

Nlocal:    9826 ave 9860 max 9792 min
Histogram: 1 0 0 0 0 0 0 0 0 1
Nghost:    14211 ave 14245 max 14177 min
Histogram: 1 0 0 0 0 0 0 0 0 1
Neighs:    796688 ave 799906 max 793470 min
Histogram: 1 0 0 0 0 0 0 0 0 1

Total # of neighbors = 1593376
Ave neighs/atom = 81.0796
Neighbor list builds = 1000
Dangerous builds not checked
Setting up Verlet run ...
  Unit style    : metal
  Current step  : 1000
  Time step     : 0.001
Per MPI rank memory allocation (min/avg/max) = 11.15 | 11.15 | 11.15 Mbytes
Step Temp Press TotEng PotEng Enthalpy 
    1000    156.99672    1214769.1   -18368.971   -18767.757    220033.15 
    2000    174.94171    1494.4046   -86374.146   -86818.514   -85689.297 
Loop time of 58.9509 on 2 procs for 1000 steps with 19652 atoms

Performance: 1.466 ns/day, 16.375 hours/ns, 16.963 timesteps/s
99.2% CPU use with 2 MPI tasks x no OpenMP threads

MPI task timing breakdown:
Section |  min time  |  avg time  |  max time  |%varavg| %total
---------------------------------------------------------------
Pair    | 30.476     | 30.741     | 31.006     |   4.8 | 52.15
Neigh   | 24.642     | 24.981     | 25.321     |   6.8 | 42.38
Comm    | 2.1199     | 2.1967     | 2.2735     |   5.2 |  3.73
Output  | 7.2002e-05 | 0.00010049 | 0.00012898 |   0.0 |  0.00
Modify  | 0.82124    | 0.82342    | 0.82561    |   0.2 |  1.40
Other   |            | 0.2084     |            |       |  0.35

Nlocal:    9826 ave 9827 max 9825 min
Histogram: 1 0 0 0 0 0 0 0 0 1
Nghost:    10343.5 ave 10345 max 10342 min
Histogram: 1 0 0 0 0 0 0 0 0 1
Neighs:    352868 ave 354390 max 351347 min
Histogram: 1 0 0 0 0 0 0 0 0 1

Total # of neighbors = 705737
Ave neighs/atom = 35.9117
Neighbor list builds = 1000
Dangerous builds not checked
Setting up Verlet run ...
  Unit style    : metal
  Current step  : 2000
  Time step     : 0.001
Per MPI rank memory allocation (min/avg/max) = 11.17 | 11.17 | 11.17 Mbytes
Step Temp Press TotEng PotEng Enthalpy 
    2000    174.94171    1494.4046   -86374.146   -86818.514   -85689.297 
   10000    2426.9202    279.16982    -73981.34   -80145.938   -73836.006 
Loop time of 382.267 on 2 procs for 8000 steps with 19652 atoms

Performance: 1.808 ns/day, 13.273 hours/ns, 20.928 timesteps/s
97.5% CPU use with 2 MPI tasks x no OpenMP threads

MPI task timing breakdown:
Section |  min time  |  avg time  |  max time  |%varavg| %total
---------------------------------------------------------------
Pair    | 183.23     | 186.34     | 189.44     |  22.8 | 48.75
Neigh   | 166.93     | 171.45     | 175.98     |  34.5 | 44.85
Comm    | 14.661     | 16.117     | 17.572     |  36.3 |  4.22
Output  | 7.2956e-05 | 0.00010395 | 0.00013494 |   0.0 |  0.00
Modify  | 6.6688     | 6.7081     | 6.7475     |   1.5 |  1.75
Other   |            | 1.653      |            |       |  0.43

Nlocal:    9826 ave 9846 max 9806 min
Histogram: 1 0 0 0 0 0 0 0 0 1
Nghost:    8799.5 ave 8806 max 8793 min
Histogram: 1 0 0 0 0 0 0 0 0 1
Neighs:    294105 ave 295122 max 293088 min
Histogram: 1 0 0 0 0 0 0 0 0 1

Total # of neighbors = 588210
Ave neighs/atom = 29.9313
Neighbor list builds = 8000
Dangerous builds not checked
Setting up Verlet run ...
  Unit style    : metal
  Current step  : 10000
  Time step     : 0.001
Per MPI rank memory allocation (min/avg/max) = 11.18 | 11.18 | 11.18 Mbytes
Step Temp Press TotEng PotEng Enthalpy 
   10000    2426.9202    279.16982    -73981.34   -80145.938   -73836.006 
   20000    2426.9899    259.33662   -73893.974   -80058.749   -73758.839 
   40000    2456.7537   -119.96004   -73824.816   -80065.194   -73887.399 
Loop time of 1392.31 on 2 procs for 30000 steps with 19652 atoms

Performance: 1.862 ns/day, 12.892 hours/ns, 21.547 timesteps/s
98.8% CPU use with 2 MPI tasks x no OpenMP threads

MPI task timing breakdown:
Section |  min time  |  avg time  |  max time  |%varavg| %total
---------------------------------------------------------------
Pair    | 664.17     | 674.43     | 684.7      |  39.5 | 48.44
Neigh   | 628.96     | 630.51     | 632.07     |   6.2 | 45.29
Comm    | 43.535     | 55.567     | 67.599     | 161.4 |  3.99
Output  | 0.23311    | 0.23315    | 0.23319    |   0.0 |  0.02
Modify  | 25.002     | 25.125     | 25.248     |   2.5 |  1.80
Other   |            | 6.435      |            |       |  0.46

Nlocal:    9826 ave 9838 max 9814 min
Histogram: 1 0 0 0 0 0 0 0 0 1
Nghost:    8799 ave 8804 max 8794 min
Histogram: 1 0 0 0 0 0 0 0 0 1
Neighs:    293356 ave 293929 max 292783 min
Histogram: 1 0 0 0 0 0 0 0 0 1

Total # of neighbors = 586712
Ave neighs/atom = 29.8551
Neighbor list builds = 30000
Dangerous builds not checked
Setting up Verlet run ...
  Unit style    : metal
  Current step  : 40000
  Time step     : 0.001
Per MPI rank memory allocation (min/avg/max) = 11.26 | 11.26 | 11.26 Mbytes
Step Temp Press TotEng PotEng Enthalpy 
   40000    2456.7537   -119.96004   -73824.816   -80065.194   -73887.399 
   40495    2414.4538    -100.1632   -74020.844   -80153.777   -74073.007 
Loop time of 22.4304 on 2 procs for 495 steps with 19652 atoms

Performance: 1.907 ns/day, 12.587 hours/ns, 22.068 timesteps/s
98.9% CPU use with 2 MPI tasks x no OpenMP threads

MPI task timing breakdown:
Section |  min time  |  avg time  |  max time  |%varavg| %total
---------------------------------------------------------------
Pair    | 10.781     | 10.915     | 11.05      |   4.1 | 48.66
Neigh   | 9.6341     | 9.9869     | 10.34      |  11.2 | 44.52
Comm    | 0.76603    | 0.99521    | 1.2244     |  23.0 |  4.44
Output  | 9.6083e-05 | 0.00012553 | 0.00015497 |   0.0 |  0.00
Modify  | 0.41695    | 0.42638    | 0.43581    |   1.4 |  1.90
Other   |            | 0.1068     |            |       |  0.48

Nlocal:    9826 ave 9838 max 9814 min
Histogram: 1 0 0 0 0 0 0 0 0 1
Nghost:    8832.5 ave 8847 max 8818 min
Histogram: 1 0 0 0 0 0 0 0 0 1
Neighs:    293621 ave 294410 max 292832 min
Histogram: 1 0 0 0 0 0 0 0 0 1

Total # of neighbors = 587242
Ave neighs/atom = 29.882
Neighbor list builds = 495
Dangerous builds not checked
Setting up Verlet run ...
  Unit style    : metal
  Current step  : 40495
  Time step     : 0.001
Per MPI rank memory allocation (min/avg/max) = 11.26 | 11.26 | 11.26 Mbytes
Step Temp Press TotEng PotEng Enthalpy 
   40495    2414.4538    -100.1632   -74020.844   -80153.777   -74073.007 
   60000    2431.3805   -273.52252   -74013.391   -80189.319   -74155.883 
Loop time of 931.064 on 2 procs for 19505 steps with 19652 atoms

Performance: 1.810 ns/day, 13.260 hours/ns, 20.949 timesteps/s
98.8% CPU use with 2 MPI tasks x no OpenMP threads

MPI task timing breakdown:
Section |  min time  |  avg time  |  max time  |%varavg| %total
---------------------------------------------------------------
Pair    | 440.67     | 454.38     | 468.1      |  64.3 | 48.80
Neigh   | 396.24     | 418.56     | 440.88     | 109.1 | 44.96
Comm    | 28.384     | 37.262     | 46.14      | 145.4 |  4.00
Output  | 0.05354    | 0.053562   | 0.053583   |   0.0 |  0.01
Modify  | 16.329     | 16.487     | 16.645     |   3.9 |  1.77
Other   |            | 4.318      |            |       |  0.46

Nlocal:    9826 ave 9830 max 9822 min
Histogram: 1 0 0 0 0 0 0 0 0 1
Nghost:    8798 ave 8816 max 8780 min
Histogram: 1 0 0 0 0 0 0 0 0 1
Neighs:    293664 ave 294056 max 293273 min
Histogram: 1 0 0 0 0 0 0 0 0 1

Total # of neighbors = 587329
Ave neighs/atom = 29.8865
Neighbor list builds = 19505
Dangerous builds not checked
Setting up Verlet run ...
  Unit style    : metal
  Current step  : 60000
  Time step     : 0.001
Per MPI rank memory allocation (min/avg/max) = 11.28 | 11.28 | 11.28 Mbytes
Step Temp Press TotEng PotEng Enthalpy 
   60000    2431.3805   -273.52252   -74013.391   -80189.319   -74155.883 
   60495    2348.2041   -6.4385625   -74235.001   -80199.653    -74238.35 
Loop time of 22.9765 on 2 procs for 495 steps with 19652 atoms

Performance: 1.861 ns/day, 12.894 hours/ns, 21.544 timesteps/s
99.9% CPU use with 2 MPI tasks x no OpenMP threads

MPI task timing breakdown:
Section |  min time  |  avg time  |  max time  |%varavg| %total
---------------------------------------------------------------
Pair    | 10.663     | 11.141     | 11.619     |  14.3 | 48.49
Neigh   | 9.8798     | 10.464     | 11.047     |  18.0 | 45.54
Comm    | 0.71276    | 0.83121    | 0.94966    |  13.0 |  3.62
Output  | 8.7023e-05 | 0.00010705 | 0.00012708 |   0.0 |  0.00
Modify  | 0.41767    | 0.42656    | 0.43545    |   1.4 |  1.86
Other   |            | 0.1138     |            |       |  0.50

Nlocal:    9826 ave 9850 max 9802 min
Histogram: 1 0 0 0 0 0 0 0 0 1
Nghost:    8784 ave 8821 max 8747 min
Histogram: 1 0 0 0 0 0 0 0 0 1
Neighs:    294220 ave 295075 max 293364 min
Histogram: 1 0 0 0 0 0 0 0 0 1

Total # of neighbors = 588439
Ave neighs/atom = 29.943
Neighbor list builds = 495
Dangerous builds not checked
Setting up Verlet run ...
  Unit style    : metal
  Current step  : 60495
  Time step     : 0.001
Per MPI rank memory allocation (min/avg/max) = 11.28 | 11.28 | 11.28 Mbytes
Step Temp Press TotEng PotEng Enthalpy 
   60495    2348.2041   -6.4385625   -74235.001   -80199.653    -74238.35 
   80000    2356.5635   -499.16793   -74257.308   -80243.194   -74517.068 
Loop time of 895.345 on 2 procs for 19505 steps with 19652 atoms

Performance: 1.882 ns/day, 12.751 hours/ns, 21.785 timesteps/s
99.2% CPU use with 2 MPI tasks x no OpenMP threads

MPI task timing breakdown:
Section |  min time  |  avg time  |  max time  |%varavg| %total
---------------------------------------------------------------
Pair    | 420.18     | 431.19     | 442.2      |  53.0 | 48.16
Neigh   | 392.55     | 407.55     | 422.55     |  74.3 | 45.52
Comm    | 31.842     | 36.105     | 40.369     |  71.0 |  4.03
Output  | 0.059355   | 0.05937    | 0.059385   |   0.0 |  0.01
Modify  | 16.017     | 16.145     | 16.273     |   3.2 |  1.80
Other   |            | 4.293      |            |       |  0.48

Nlocal:    9826 ave 9852 max 9800 min
Histogram: 1 0 0 0 0 0 0 0 0 1
Nghost:    8807 ave 8836 max 8778 min
Histogram: 1 0 0 0 0 0 0 0 0 1
Neighs:    293886 ave 294956 max 292815 min
Histogram: 1 0 0 0 0 0 0 0 0 1

Total # of neighbors = 587771
Ave neighs/atom = 29.909
Neighbor list builds = 19505
Dangerous builds not checked
Setting up Verlet run ...
  Unit style    : metal
  Current step  : 80000
  Time step     : 0.001
Per MPI rank memory allocation (min/avg/max) = 11.29 | 11.29 | 11.29 Mbytes
Step Temp Press TotEng PotEng Enthalpy 
   80000    2356.5635   -499.16793   -74257.308   -80243.194   -74517.068 
   80495    2312.5636   -161.37417   -74518.835   -80392.958   -74602.492 
Loop time of 21.0731 on 2 procs for 495 steps with 19652 atoms

Performance: 2.030 ns/day, 11.826 hours/ns, 23.490 timesteps/s
100.0% CPU use with 2 MPI tasks x no OpenMP threads

MPI task timing breakdown:
Section |  min time  |  avg time  |  max time  |%varavg| %total
---------------------------------------------------------------
Pair    | 9.8743     | 10.022     | 10.17      |   4.7 | 47.56
Neigh   | 9.5029     | 9.7945     | 10.086     |   9.3 | 46.48
Comm    | 0.60872    | 0.75295    | 0.89718    |  16.6 |  3.57
Output  | 7.0095e-05 | 9.501e-05  | 0.00011992 |   0.0 |  0.00
Modify  | 0.39917    | 0.39954    | 0.39991    |   0.1 |  1.90
Other   |            | 0.1039     |            |       |  0.49

Nlocal:    9826 ave 9831 max 9821 min
Histogram: 1 0 0 0 0 0 0 0 0 1
Nghost:    8826.5 ave 8830 max 8823 min
Histogram: 1 0 0 0 0 0 0 0 0 1
Neighs:    295016 ave 295357 max 294675 min
Histogram: 1 0 0 0 0 0 0 0 0 1

Total # of neighbors = 590032
Ave neighs/atom = 30.024
Neighbor list builds = 495
Dangerous builds not checked
Setting up Verlet run ...
  Unit style    : metal
  Current step  : 80495
  Time step     : 0.001
Per MPI rank memory allocation (min/avg/max) = 11.29 | 11.29 | 11.29 Mbytes
Step Temp Press TotEng PotEng Enthalpy 
   80495    2312.5636   -161.37417   -74518.835   -80392.958   -74602.492 
  100000    2311.3065   -266.93299   -74472.548   -80343.477   -74611.046 
Loop time of 898.707 on 2 procs for 19505 steps with 19652 atoms

Performance: 1.875 ns/day, 12.799 hours/ns, 21.703 timesteps/s
99.4% CPU use with 2 MPI tasks x no OpenMP threads

MPI task timing breakdown:
Section |  min time  |  avg time  |  max time  |%varavg| %total
---------------------------------------------------------------
Pair    | 425.78     | 434.79     | 443.81     |  43.2 | 48.38
Neigh   | 386.55     | 404.98     | 423.41     |  91.6 | 45.06
Comm    | 28.685     | 38.564     | 48.442     | 159.1 |  4.29
Output  | 0.055947   | 0.055958   | 0.05597    |   0.0 |  0.01
Modify  | 15.797     | 16.07      | 16.343     |   6.8 |  1.79
Other   |            | 4.251      |            |       |  0.47

Nlocal:    9826 ave 9834 max 9818 min
Histogram: 1 0 0 0 0 0 0 0 0 1
Nghost:    8792.5 ave 8797 max 8788 min
Histogram: 1 0 0 0 0 0 0 0 0 1
Neighs:    294796 ave 295362 max 294229 min
Histogram: 1 0 0 0 0 0 0 0 0 1

Total # of neighbors = 589591
Ave neighs/atom = 30.0016
Neighbor list builds = 19505
Dangerous builds not checked
Setting up Verlet run ...
  Unit style    : metal
  Current step  : 100000
  Time step     : 0.001
Per MPI rank memory allocation (min/avg/max) = 11.3 | 11.3 | 11.3 Mbytes
Step Temp Press TotEng PotEng Enthalpy 
  100000    2311.3065   -266.93299   -74472.548   -80343.477   -74611.046 
  100495    2244.3287   -270.21829   -74746.888   -80447.687   -74886.731 
Loop time of 21.7392 on 2 procs for 495 steps with 19652 atoms

Performance: 1.967 ns/day, 12.199 hours/ns, 22.770 timesteps/s
99.7% CPU use with 2 MPI tasks x no OpenMP threads

MPI task timing breakdown:
Section |  min time  |  avg time  |  max time  |%varavg| %total
---------------------------------------------------------------
Pair    | 10.182     | 10.368     | 10.554     |   5.8 | 47.69
Neigh   | 9.7077     | 10.056     | 10.404     |  11.0 | 46.26
Comm    | 0.65251    | 0.81628    | 0.98004    |  18.1 |  3.75
Output  | 7.7009e-05 | 0.00011206 | 0.0001471  |   0.0 |  0.00
Modify  | 0.39543    | 0.39722    | 0.39901    |   0.3 |  1.83
Other   |            | 0.1019     |            |       |  0.47

Nlocal:    9826 ave 9836 max 9816 min
Histogram: 1 0 0 0 0 0 0 0 0 1
Nghost:    8832 ave 8842 max 8822 min
Histogram: 1 0 0 0 0 0 0 0 0 1
Neighs:    295650 ave 295897 max 295402 min
Histogram: 1 0 0 0 0 0 0 0 0 1

Total # of neighbors = 591299
Ave neighs/atom = 30.0885
Neighbor list builds = 495
Dangerous builds not checked
Setting up Verlet run ...
  Unit style    : metal
  Current step  : 100495
  Time step     : 0.001
Per MPI rank memory allocation (min/avg/max) = 11.3 | 11.3 | 11.3 Mbytes
Step Temp Press TotEng PotEng Enthalpy 
  100495    2244.3287   -270.21829   -74746.888   -80447.687   -74886.731 
  120000    2239.5985   -122.85673   -74835.304   -80524.088   -74898.795 
Loop time of 885.627 on 2 procs for 19505 steps with 19652 atoms

Performance: 1.903 ns/day, 12.613 hours/ns, 22.024 timesteps/s
99.6% CPU use with 2 MPI tasks x no OpenMP threads

MPI task timing breakdown:
Section |  min time  |  avg time  |  max time  |%varavg| %total
---------------------------------------------------------------
Pair    | 420.74     | 427.44     | 434.14     |  32.4 | 48.26
Neigh   | 376.72     | 398.65     | 420.57     | 109.8 | 45.01
Comm    | 23.627     | 39.613     | 55.599     | 254.0 |  4.47
Output  | 0.053591   | 0.053607   | 0.053623   |   0.0 |  0.01
Modify  | 15.321     | 15.77      | 16.22      |  11.3 |  1.78
Other   |            | 4.099      |            |       |  0.46

Nlocal:    9826 ave 9859 max 9793 min
Histogram: 1 0 0 0 0 0 0 0 0 1
Nghost:    8836 ave 8848 max 8824 min
Histogram: 1 0 0 0 0 0 0 0 0 1
Neighs:    296037 ave 297271 max 294803 min
Histogram: 1 0 0 0 0 0 0 0 0 1

Total # of neighbors = 592074
Ave neighs/atom = 30.1279
Neighbor list builds = 19505
Dangerous builds not checked
Setting up Verlet run ...
  Unit style    : metal
  Current step  : 120000
  Time step     : 0.001
Per MPI rank memory allocation (min/avg/max) = 11.31 | 11.31 | 11.31 Mbytes
Step Temp Press TotEng PotEng Enthalpy 
  120000    2239.5985   -122.85673   -74835.304   -80524.088   -74898.795 
  120495     2204.718    160.11012    -74971.34   -80571.525   -74888.787 
Loop time of 21.8508 on 2 procs for 495 steps with 19652 atoms

Performance: 1.957 ns/day, 12.262 hours/ns, 22.654 timesteps/s
100.0% CPU use with 2 MPI tasks x no OpenMP threads

MPI task timing breakdown:
Section |  min time  |  avg time  |  max time  |%varavg| %total
---------------------------------------------------------------
Pair    | 10.254     | 10.544     | 10.835     |   8.9 | 48.26
Neigh   | 9.0549     | 9.8411     | 10.627     |  25.1 | 45.04
Comm    | 0.43984    | 0.96088    | 1.4819     |  53.2 |  4.40
Output  | 7.2002e-05 | 0.000103   | 0.00013399 |   0.0 |  0.00
Modify  | 0.38152    | 0.39992    | 0.41831    |   2.9 |  1.83
Other   |            | 0.1044     |            |       |  0.48

Nlocal:    9826 ave 9828 max 9824 min
Histogram: 1 0 0 0 0 0 0 0 0 1
Nghost:    8857.5 ave 8876 max 8839 min
Histogram: 1 0 0 0 0 0 0 0 0 1
Neighs:    296666 ave 297016 max 296315 min
Histogram: 1 0 0 0 0 0 0 0 0 1

Total # of neighbors = 593331
Ave neighs/atom = 30.1919
Neighbor list builds = 495
Dangerous builds not checked
Setting up Verlet run ...
  Unit style    : metal
  Current step  : 120495
  Time step     : 0.001
Per MPI rank memory allocation (min/avg/max) = 11.31 | 11.31 | 11.31 Mbytes
Step Temp Press TotEng PotEng Enthalpy 
  120495     2204.718    160.11012    -74971.34   -80571.525   -74888.787 
  140000    2178.7024   -40.998945   -75058.897   -80592.999    -75080.04 
Loop time of 875.586 on 2 procs for 19505 steps with 19652 atoms

Performance: 1.925 ns/day, 12.470 hours/ns, 22.277 timesteps/s
99.5% CPU use with 2 MPI tasks x no OpenMP threads

MPI task timing breakdown:
Section |  min time  |  avg time  |  max time  |%varavg| %total
---------------------------------------------------------------
Pair    | 416.84     | 423.7      | 430.55     |  33.3 | 48.39
Neigh   | 372.34     | 391.66     | 410.99     |  97.6 | 44.73
Comm    | 27.536     | 40.618     | 53.699     | 205.3 |  4.64
Output  | 0.053524   | 0.05354    | 0.053556   |   0.0 |  0.01
Modify  | 15.181     | 15.529     | 15.878     |   8.8 |  1.77
Other   |            | 4.025      |            |       |  0.46

Nlocal:    9826 ave 9844 max 9808 min
Histogram: 1 0 0 0 0 0 0 0 0 1
Nghost:    8844.5 ave 8864 max 8825 min
Histogram: 1 0 0 0 0 0 0 0 0 1
Neighs:    296614 ave 297462 max 295766 min
Histogram: 1 0 0 0 0 0 0 0 0 1

Total # of neighbors = 593228
Ave neighs/atom = 30.1866
Neighbor list builds = 19505
Dangerous builds not checked
Setting up Verlet run ...
  Unit style    : metal
  Current step  : 140000
  Time step     : 0.001
Per MPI rank memory allocation (min/avg/max) = 11.32 | 11.32 | 11.32 Mbytes
Step Temp Press TotEng PotEng Enthalpy 
  140000    2178.7024   -40.998945   -75058.897   -80592.999    -75080.04 
  140495    2143.7746    253.57717   -75203.391   -80648.773   -75072.908 
Loop time of 21.6532 on 2 procs for 495 steps with 19652 atoms

Performance: 1.975 ns/day, 12.151 hours/ns, 22.860 timesteps/s
99.3% CPU use with 2 MPI tasks x no OpenMP threads

MPI task timing breakdown:
Section |  min time  |  avg time  |  max time  |%varavg| %total
---------------------------------------------------------------
Pair    | 10.286     | 10.408     | 10.529     |   3.8 | 48.07
Neigh   | 9.2083     | 9.7646     | 10.321     |  17.8 | 45.10
Comm    | 0.50217    | 0.9661     | 1.43       |  47.2 |  4.46
Output  | 7.6056e-05 | 9.4533e-05 | 0.00011301 |   0.0 |  0.00
Modify  | 0.39002    | 0.41008    | 0.43014    |   3.1 |  1.89
Other   |            | 0.1044     |            |       |  0.48

Nlocal:    9826 ave 9831 max 9821 min
Histogram: 1 0 0 0 0 0 0 0 0 1
Nghost:    8867 ave 8877 max 8857 min
Histogram: 1 0 0 0 0 0 0 0 0 1
Neighs:    297366 ave 297626 max 297105 min
Histogram: 1 0 0 0 0 0 0 0 0 1

Total # of neighbors = 594731
Ave neighs/atom = 30.2631
Neighbor list builds = 495
Dangerous builds not checked
Setting up Verlet run ...
  Unit style    : metal
  Current step  : 140495
  Time step     : 0.001
Per MPI rank memory allocation (min/avg/max) = 11.32 | 11.32 | 11.32 Mbytes
Step Temp Press TotEng PotEng Enthalpy 
  140495    2143.7746    253.57717   -75203.391   -80648.773   -75072.908 
  160000      2143.62   -395.92908   -75258.074   -80703.064   -75462.143 
Loop time of 888.605 on 2 procs for 19505 steps with 19652 atoms

Performance: 1.896 ns/day, 12.655 hours/ns, 21.950 timesteps/s
98.6% CPU use with 2 MPI tasks x no OpenMP threads

MPI task timing breakdown:
Section |  min time  |  avg time  |  max time  |%varavg| %total
---------------------------------------------------------------
Pair    | 417.51     | 424.71     | 431.92     |  35.0 | 47.80
Neigh   | 381.22     | 395.81     | 410.4      |  73.3 | 44.54
Comm    | 39.919     | 47.762     | 55.605     | 113.5 |  5.37
Output  | 0.052246   | 0.052256   | 0.052265   |   0.0 |  0.01
Modify  | 15.854     | 16.11      | 16.365     |   6.4 |  1.81
Other   |            | 4.156      |            |       |  0.47

Nlocal:    9826 ave 9838 max 9814 min
Histogram: 1 0 0 0 0 0 0 0 0 1
Nghost:    8870 ave 8898 max 8842 min
Histogram: 1 0 0 0 0 0 0 0 0 1
Neighs:    296813 ave 297609 max 296017 min
Histogram: 1 0 0 0 0 0 0 0 0 1

Total # of neighbors = 593626
Ave neighs/atom = 30.2069
Neighbor list builds = 19505
Dangerous builds not checked
Setting up Verlet run ...
  Unit style    : metal
  Current step  : 160000
  Time step     : 0.001
Per MPI rank memory allocation (min/avg/max) = 11.33 | 11.33 | 11.33 Mbytes
Step Temp Press TotEng PotEng Enthalpy 
  160000      2143.62   -395.92908   -75258.074   -80703.064   -75462.143 
  160495    2111.5432   -250.03162   -75449.944   -80813.456   -75578.459 
Loop time of 21.9571 on 2 procs for 495 steps with 19652 atoms

Performance: 1.948 ns/day, 12.322 hours/ns, 22.544 timesteps/s
98.5% CPU use with 2 MPI tasks x no OpenMP threads

MPI task timing breakdown:
Section |  min time  |  avg time  |  max time  |%varavg| %total
---------------------------------------------------------------
Pair    | 10.475     | 10.538     | 10.6       |   1.9 | 47.99
Neigh   | 9.8385     | 9.9632     | 10.088     |   4.0 | 45.38
Comm    | 0.72768    | 0.93035    | 1.133      |  21.0 |  4.24
Output  | 7.7009e-05 | 0.0001111  | 0.0001452  |   0.0 |  0.00
Modify  | 0.40746    | 0.41719    | 0.42692    |   1.5 |  1.90
Other   |            | 0.1086     |            |       |  0.49

Nlocal:    9826 ave 9830 max 9822 min
Histogram: 1 0 0 0 0 0 0 0 0 1
Nghost:    8869.5 ave 8913 max 8826 min
Histogram: 1 0 0 0 0 0 0 0 0 1
Neighs:    297734 ave 298177 max 297291 min
Histogram: 1 0 0 0 0 0 0 0 0 1

Total # of neighbors = 595468
Ave neighs/atom = 30.3006
Neighbor list builds = 495
Dangerous builds not checked
Setting up Verlet run ...
  Unit style    : metal
  Current step  : 160495
  Time step     : 0.001
Per MPI rank memory allocation (min/avg/max) = 11.33 | 11.33 | 11.33 Mbytes
Step Temp Press TotEng PotEng Enthalpy 
  160495    2111.5432   -250.03162   -75449.944   -80813.456   -75578.459 
  180000    2106.5652     223.2672   -75504.942   -80855.809   -75390.389 
Loop time of 888.29 on 2 procs for 19505 steps with 19652 atoms

Performance: 1.897 ns/day, 12.650 hours/ns, 21.958 timesteps/s
99.3% CPU use with 2 MPI tasks x no OpenMP threads

MPI task timing breakdown:
Section |  min time  |  avg time  |  max time  |%varavg| %total
---------------------------------------------------------------
Pair    | 424.97     | 429.17     | 433.37     |  20.3 | 48.31
Neigh   | 379.42     | 398.95     | 418.48     |  97.8 | 44.91
Comm    | 23.764     | 39.814     | 55.863     | 254.4 |  4.48
Output  | 0.052078   | 0.052095   | 0.052113   |   0.0 |  0.01
Modify  | 15.644     | 16.065     | 16.486     |  10.5 |  1.81
Other   |            | 4.239      |            |       |  0.48

Nlocal:    9826 ave 9838 max 9814 min
Histogram: 1 0 0 0 0 0 0 0 0 1
Nghost:    8889 ave 8905 max 8873 min
Histogram: 1 0 0 0 0 0 0 0 0 1
Neighs:    298064 ave 298103 max 298026 min
Histogram: 1 0 0 0 0 0 0 0 0 1

Total # of neighbors = 596129
Ave neighs/atom = 30.3343
Neighbor list builds = 19505
Dangerous builds not checked
Setting up Verlet run ...
  Unit style    : metal
  Current step  : 180000
  Time step     : 0.001
Per MPI rank memory allocation (min/avg/max) = 11.33 | 11.34 | 11.34 Mbytes
Step Temp Press TotEng PotEng Enthalpy 
  180000    2106.5652     223.2672   -75504.942   -80855.809   -75390.389 
  180495    2059.1521    361.87475    -75725.92   -80956.354   -75540.721 
Loop time of 23.0831 on 2 procs for 495 steps with 19652 atoms

Performance: 1.853 ns/day, 12.954 hours/ns, 21.444 timesteps/s
98.4% CPU use with 2 MPI tasks x no OpenMP threads

MPI task timing breakdown:
Section |  min time  |  avg time  |  max time  |%varavg| %total
---------------------------------------------------------------
Pair    | 10.859     | 11.146     | 11.433     |   8.6 | 48.29
Neigh   | 10.339     | 10.647     | 10.954     |   9.4 | 46.12
Comm    | 0.70779    | 0.74957    | 0.79136    |   4.8 |  3.25
Output  | 6.9857e-05 | 0.00011492 | 0.00015998 |   0.0 |  0.00
Modify  | 0.41315    | 0.4319     | 0.45065    |   2.9 |  1.87
Other   |            | 0.1085     |            |       |  0.47

Nlocal:    9826 ave 9839 max 9813 min
Histogram: 1 0 0 0 0 0 0 0 0 1
Nghost:    8911 ave 8923 max 8899 min
Histogram: 1 0 0 0 0 0 0 0 0 1
Neighs:    299058 ave 299668 max 298447 min
Histogram: 1 0 0 0 0 0 0 0 0 1

Total # of neighbors = 598115
Ave neighs/atom = 30.4353
Neighbor list builds = 495
Dangerous builds not checked
Setting up Verlet run ...
  Unit style    : metal
  Current step  : 180495
  Time step     : 0.001
Per MPI rank memory allocation (min/avg/max) = 11.33 | 11.34 | 11.34 Mbytes
Step Temp Press TotEng PotEng Enthalpy 
  180495    2059.1521    361.87475    -75725.92   -80956.354   -75540.721 
  200000    2039.9679   -379.86559   -75754.178   -80935.882   -75948.953 
Loop time of 894.063 on 2 procs for 19505 steps with 19652 atoms

Performance: 1.885 ns/day, 12.733 hours/ns, 21.816 timesteps/s
99.6% CPU use with 2 MPI tasks x no OpenMP threads

MPI task timing breakdown:
Section |  min time  |  avg time  |  max time  |%varavg| %total
---------------------------------------------------------------
Pair    | 427.26     | 434.66     | 442.05     |  35.5 | 48.62
Neigh   | 398.47     | 407.89     | 417.32     |  46.7 | 45.62
Comm    | 28.358     | 30.497     | 32.636     |  38.7 |  3.41
Output  | 0.057879   | 0.057907   | 0.057935   |   0.0 |  0.01
Modify  | 16.419     | 16.512     | 16.605     |   2.3 |  1.85
Other   |            | 4.448      |            |       |  0.50

Nlocal:    9826 ave 9833 max 9819 min
Histogram: 1 0 0 0 0 0 0 0 0 1
Nghost:    8861.5 ave 8862 max 8861 min
Histogram: 1 0 0 0 0 0 0 0 0 1
Neighs:    298346 ave 299077 max 297614 min
Histogram: 1 0 0 0 0 0 0 0 0 1

Total # of neighbors = 596691
Ave neighs/atom = 30.3629
Neighbor list builds = 19505
Dangerous builds not checked
Setting up Verlet run ...
  Unit style    : metal
  Current step  : 200000
  Time step     : 0.001
Per MPI rank memory allocation (min/avg/max) = 11.34 | 11.34 | 11.34 Mbytes
Step Temp Press TotEng PotEng Enthalpy 
  200000    2039.9679   -379.86559   -75754.178   -80935.882   -75948.953 
  200495    2019.4452   -392.68745   -75920.741   -81050.316   -76121.774 
Loop time of 22.4428 on 2 procs for 495 steps with 19652 atoms

Performance: 1.906 ns/day, 12.594 hours/ns, 22.056 timesteps/s
99.1% CPU use with 2 MPI tasks x no OpenMP threads

MPI task timing breakdown:
Section |  min time  |  avg time  |  max time  |%varavg| %total
---------------------------------------------------------------
Pair    | 10.63      | 10.67      | 10.709     |   1.2 | 47.54
Neigh   | 10.483     | 10.514     | 10.545     |   1.0 | 46.85
Comm    | 0.70261    | 0.71264    | 0.72267    |   1.2 |  3.18
Output  | 7.5102e-05 | 0.00010455 | 0.00013399 |   0.0 |  0.00
Modify  | 0.42799    | 0.43432    | 0.44065    |   1.0 |  1.94
Other   |            | 0.1119     |            |       |  0.50

Nlocal:    9826 ave 9846 max 9806 min
Histogram: 1 0 0 0 0 0 0 0 0 1
Nghost:    8874.5 ave 8893 max 8856 min
Histogram: 1 0 0 0 0 0 0 0 0 1
Neighs:    298968 ave 299947 max 297990 min
Histogram: 1 0 0 0 0 0 0 0 0 1

Total # of neighbors = 597937
Ave neighs/atom = 30.4263
Neighbor list builds = 495
Dangerous builds not checked
Setting up Verlet run ...
  Unit style    : metal
  Current step  : 200495
  Time step     : 0.001
Per MPI rank memory allocation (min/avg/max) = 11.34 | 11.34 | 11.34 Mbytes
Step Temp Press TotEng PotEng Enthalpy 
  200495    2019.4452   -392.68745   -75920.741   -81050.316   -76121.774 
  220000    2012.0126    50.836181   -75904.109   -81014.804   -75878.125 
Loop time of 864.358 on 2 procs for 19505 steps with 19652 atoms

Performance: 1.950 ns/day, 12.310 hours/ns, 22.566 timesteps/s
99.3% CPU use with 2 MPI tasks x no OpenMP threads

MPI task timing breakdown:
Section |  min time  |  avg time  |  max time  |%varavg| %total
---------------------------------------------------------------
Pair    | 409.96     | 413.43     | 416.91     |  17.1 | 47.83
Neigh   | 390.41     | 398.3      | 406.19     |  39.5 | 46.08
Comm    | 27.643     | 32.475     | 37.307     |  84.8 |  3.76
Output  | 0.05804    | 0.058055   | 0.058069   |   0.0 |  0.01
Modify  | 15.731     | 15.929     | 16.127     |   5.0 |  1.84
Other   |            | 4.16       |            |       |  0.48

Nlocal:    9826 ave 9834 max 9818 min
Histogram: 1 0 0 0 0 0 0 0 0 1
Nghost:    8891 ave 8892 max 8890 min
Histogram: 1 0 0 0 0 0 0 0 0 1
Neighs:    299220 ave 300172 max 298267 min
Histogram: 1 0 0 0 0 0 0 0 0 1

Total # of neighbors = 598439
Ave neighs/atom = 30.4518
Neighbor list builds = 19505
Dangerous builds not checked
Setting up Verlet run ...
  Unit style    : metal
  Current step  : 220000
  Time step     : 0.001
Per MPI rank memory allocation (min/avg/max) = 11.34 | 11.34 | 11.34 Mbytes
Step Temp Press TotEng PotEng Enthalpy 
  220000    2012.0126    50.836181   -75904.109   -81014.804   -75878.125 
  220495     1965.361    -149.2043   -76151.452   -81143.648   -76227.619 
Loop time of 21.6904 on 2 procs for 495 steps with 19652 atoms

Performance: 1.972 ns/day, 12.172 hours/ns, 22.821 timesteps/s
100.0% CPU use with 2 MPI tasks x no OpenMP threads

MPI task timing breakdown:
Section |  min time  |  avg time  |  max time  |%varavg| %total
---------------------------------------------------------------
Pair    | 10.214     | 10.396     | 10.577     |   5.6 | 47.93
Neigh   | 9.771      | 10.015     | 10.259     |   7.7 | 46.17
Comm    | 0.68738    | 0.7504     | 0.81342    |   7.3 |  3.46
Output  | 7.0095e-05 | 0.00010252 | 0.00013494 |   0.0 |  0.00
Modify  | 0.41227    | 0.41288    | 0.41349    |   0.1 |  1.90
Other   |            | 0.1162     |            |       |  0.54

Nlocal:    9826 ave 9844 max 9808 min
Histogram: 1 0 0 0 0 0 0 0 0 1
Nghost:    8904.5 ave 8914 max 8895 min
Histogram: 1 0 0 0 0 0 0 0 0 1
Neighs:    299556 ave 300895 max 298216 min
Histogram: 1 0 0 0 0 0 0 0 0 1

Total # of neighbors = 599111
Ave neighs/atom = 30.486
Neighbor list builds = 495
Dangerous builds not checked
Setting up Verlet run ...
  Unit style    : metal
  Current step  : 220495
  Time step     : 0.001
Per MPI rank memory allocation (min/avg/max) = 11.34 | 11.34 | 11.34 Mbytes
Step Temp Press TotEng PotEng Enthalpy 
  220495     1965.361    -149.2043   -76151.452   -81143.648   -76227.619 
  240000    1955.8772    458.24998   -76221.276   -81189.383   -75988.113 
Loop time of 924.51 on 2 procs for 19505 steps with 19652 atoms

Performance: 1.823 ns/day, 13.166 hours/ns, 21.098 timesteps/s
98.3% CPU use with 2 MPI tasks x no OpenMP threads

MPI task timing breakdown:
Section |  min time  |  avg time  |  max time  |%varavg| %total
---------------------------------------------------------------
Pair    | 433.53     | 442.74     | 451.95     |  43.8 | 47.89
Neigh   | 415.79     | 423.07     | 430.36     |  35.4 | 45.76
Comm    | 35.399     | 37.538     | 39.676     |  34.9 |  4.06
Output  | 0.061115   | 0.061138   | 0.06116    |   0.0 |  0.01
Modify  | 16.605     | 16.679     | 16.752     |   1.8 |  1.80
Other   |            | 4.421      |            |       |  0.48

Nlocal:    9826 ave 9859 max 9793 min
Histogram: 1 0 0 0 0 0 0 0 0 1
Nghost:    8929 ave 8941 max 8917 min
Histogram: 1 0 0 0 0 0 0 0 0 1
Neighs:    300749 ave 301122 max 300376 min
Histogram: 1 0 0 0 0 0 0 0 0 1

Total # of neighbors = 601498
Ave neighs/atom = 30.6075
Neighbor list builds = 19505
Dangerous builds not checked
Setting up Verlet run ...
  Unit style    : metal
  Current step  : 240000
  Time step     : 0.001
Per MPI rank memory allocation (min/avg/max) = 11.35 | 11.35 | 11.35 Mbytes
Step Temp Press TotEng PotEng Enthalpy 
  240000    1955.8772    458.24998   -76221.276   -81189.383   -75988.113 
  240495    1913.2404    447.06763   -76429.877   -81289.683   -76202.692 
Loop time of 26.6145 on 2 procs for 495 steps with 19652 atoms

Performance: 1.607 ns/day, 14.935 hours/ns, 18.599 timesteps/s
91.8% CPU use with 2 MPI tasks x no OpenMP threads

MPI task timing breakdown:
Section |  min time  |  avg time  |  max time  |%varavg| %total
---------------------------------------------------------------
Pair    | 12.569     | 13.116     | 13.663     |  15.1 | 49.28
Neigh   | 9.8313     | 11.302     | 12.773     |  43.8 | 42.47
Comm    | 0.63489    | 1.6133     | 2.5917     |  77.0 |  6.06
Output  | 8.7976e-05 | 0.00011694 | 0.00014591 |   0.0 |  0.00
Modify  | 0.42517    | 0.46365    | 0.50213    |   5.7 |  1.74
Other   |            | 0.1195     |            |       |  0.45

Nlocal:    9826 ave 9850 max 9802 min
Histogram: 1 0 0 0 0 0 0 0 0 1
Nghost:    8927 ave 8928 max 8926 min
Histogram: 1 0 0 0 0 0 0 0 0 1
Neighs:    300850 ave 301516 max 300184 min
Histogram: 1 0 0 0 0 0 0 0 0 1

Total # of neighbors = 601700
Ave neighs/atom = 30.6177
Neighbor list builds = 495
Dangerous builds not checked
Setting up Verlet run ...
  Unit style    : metal
  Current step  : 240495
  Time step     : 0.001
Per MPI rank memory allocation (min/avg/max) = 11.35 | 11.35 | 11.35 Mbytes
Step Temp Press TotEng PotEng Enthalpy 
  240495    1913.2404    447.06763   -76429.877   -81289.683   -76202.692 
  260000    1904.7656   -274.44662   -76490.786   -81329.064    -76630.47 
Loop time of 923.402 on 2 procs for 19505 steps with 19652 atoms

Performance: 1.825 ns/day, 13.151 hours/ns, 21.123 timesteps/s
98.5% CPU use with 2 MPI tasks x no OpenMP threads

MPI task timing breakdown:
Section |  min time  |  avg time  |  max time  |%varavg| %total
---------------------------------------------------------------
Pair    | 434.45     | 437.38     | 440.3      |  14.0 | 47.37
Neigh   | 423.01     | 430.56     | 438.11     |  36.4 | 46.63
Comm    | 29.906     | 34.675     | 39.444     |  81.0 |  3.76
Output  | 0.055046   | 0.055058   | 0.055071   |   0.0 |  0.01
Modify  | 16.349     | 16.47      | 16.59      |   3.0 |  1.78
Other   |            | 4.269      |            |       |  0.46

Nlocal:    9826 ave 9828 max 9824 min
Histogram: 1 0 0 0 0 0 0 0 0 1
Nghost:    8917.5 ave 8918 max 8917 min
Histogram: 1 0 0 0 0 0 0 0 0 1
Neighs:    300478 ave 302974 max 297981 min
Histogram: 1 0 0 0 0 0 0 0 0 1

Total # of neighbors = 600955
Ave neighs/atom = 30.5798
Neighbor list builds = 19505
Dangerous builds not checked
Setting up Verlet run ...
  Unit style    : metal
  Current step  : 260000
  Time step     : 0.001
Per MPI rank memory allocation (min/avg/max) = 11.35 | 11.35 | 11.35 Mbytes
Step Temp Press TotEng PotEng Enthalpy 
  260000    1904.7656   -274.44662   -76490.786   -81329.064    -76630.47 
  260495    1865.2478    -463.0461   -76581.941    -81319.84   -76817.693 
Loop time of 22.7648 on 2 procs for 495 steps with 19652 atoms

Performance: 1.879 ns/day, 12.775 hours/ns, 21.744 timesteps/s
100.0% CPU use with 2 MPI tasks x no OpenMP threads

MPI task timing breakdown:
Section |  min time  |  avg time  |  max time  |%varavg| %total
---------------------------------------------------------------
Pair    | 10.598     | 10.728     | 10.857     |   4.0 | 47.12
Neigh   | 10.246     | 10.714     | 11.182     |  14.3 | 47.06
Comm    | 0.44594    | 0.81113    | 1.1763     |  40.5 |  3.56
Output  | 8.7023e-05 | 0.00011504 | 0.00014305 |   0.0 |  0.00
Modify  | 0.38285    | 0.40405    | 0.42525    |   3.3 |  1.77
Other   |            | 0.1081     |            |       |  0.47

Nlocal:    9826 ave 9830 max 9822 min
Histogram: 1 0 0 0 0 0 0 0 0 1
Nghost:    8885.5 ave 8891 max 8880 min
Histogram: 1 0 0 0 0 0 0 0 0 1
Neighs:    300692 ave 302821 max 298564 min
Histogram: 1 0 0 0 0 0 0 0 0 1

Total # of neighbors = 601385
Ave neighs/atom = 30.6017
Neighbor list builds = 495
Dangerous builds not checked
Setting up Verlet run ...
  Unit style    : metal
  Current step  : 260495
  Time step     : 0.001
Per MPI rank memory allocation (min/avg/max) = 11.35 | 11.35 | 11.35 Mbytes
Step Temp Press TotEng PotEng Enthalpy 
  260495    1865.2478    -463.0461   -76581.941    -81319.84   -76817.693 
  280000     1851.461    968.92573   -76734.541   -81437.421   -76244.582 
Loop time of 921.836 on 2 procs for 19505 steps with 19652 atoms

Performance: 1.828 ns/day, 13.128 hours/ns, 21.159 timesteps/s
99.2% CPU use with 2 MPI tasks x no OpenMP threads

MPI task timing breakdown:
Section |  min time  |  avg time  |  max time  |%varavg| %total
---------------------------------------------------------------
Pair    | 424.65     | 435.16     | 445.67     |  50.4 | 47.21
Neigh   | 428.98     | 432.04     | 435.1      |  14.7 | 46.87
Comm    | 26.54      | 34.272     | 42.005     | 132.1 |  3.72
Output  | 0.059646   | 0.059661   | 0.059677   |   0.0 |  0.01
Modify  | 15.938     | 16.079     | 16.22      |   3.5 |  1.74
Other   |            | 4.225      |            |       |  0.46

Nlocal:    9826 ave 9842 max 9810 min
Histogram: 1 0 0 0 0 0 0 0 0 1
Nghost:    8934 ave 8943 max 8925 min
Histogram: 1 0 0 0 0 0 0 0 0 1
Neighs:    302350 ave 304080 max 300621 min
Histogram: 1 0 0 0 0 0 0 0 0 1

Total # of neighbors = 604701
Ave neighs/atom = 30.7705
Neighbor list builds = 19505
Dangerous builds not checked
Setting up Verlet run ...
  Unit style    : metal
  Current step  : 280000
  Time step     : 0.001
Per MPI rank memory allocation (min/avg/max) = 11.35 | 11.35 | 11.35 Mbytes
Step Temp Press TotEng PotEng Enthalpy 
  280000     1851.461    968.92573   -76734.541   -81437.421   -76244.582 
  280495    1802.7733    690.08813   -76909.162   -81488.371   -76560.309 
Loop time of 22.0019 on 2 procs for 495 steps with 19652 atoms

Performance: 1.944 ns/day, 12.347 hours/ns, 22.498 timesteps/s
98.6% CPU use with 2 MPI tasks x no OpenMP threads

MPI task timing breakdown:
Section |  min time  |  avg time  |  max time  |%varavg| %total
---------------------------------------------------------------
Pair    | 10.336     | 10.353     | 10.37      |   0.5 | 47.05
Neigh   | 10.444     | 10.521     | 10.599     |   2.4 | 47.82
Comm    | 0.52848    | 0.59163    | 0.65479    |   8.2 |  2.69
Output  | 7.8917e-05 | 0.00011194 | 0.00014496 |   0.0 |  0.00
Modify  | 0.41631    | 0.41812    | 0.41993    |   0.3 |  1.90
Other   |            | 0.1178     |            |       |  0.54

Nlocal:    9826 ave 9854 max 9798 min
Histogram: 1 0 0 0 0 0 0 0 0 1
Nghost:    8931 ave 8947 max 8915 min
Histogram: 1 0 0 0 0 0 0 0 0 1
Neighs:    302510 ave 306006 max 299014 min
Histogram: 1 0 0 0 0 0 0 0 0 1

Total # of neighbors = 605020
Ave neighs/atom = 30.7867
Neighbor list builds = 495
Dangerous builds not checked
Setting up Verlet run ...
  Unit style    : metal
  Current step  : 280495
  Time step     : 0.001
Per MPI rank memory allocation (min/avg/max) = 11.35 | 11.35 | 11.35 Mbytes
Step Temp Press TotEng PotEng Enthalpy 
  280495    1802.7733    690.08813   -76909.162   -81488.371   -76560.309 
  300000    1812.5537    8.5773339   -76941.325   -81545.376   -76936.983 
Loop time of 1005.88 on 2 procs for 19505 steps with 19652 atoms

Performance: 1.675 ns/day, 14.325 hours/ns, 19.391 timesteps/s
97.1% CPU use with 2 MPI tasks x no OpenMP threads

MPI task timing breakdown:
Section |  min time  |  avg time  |  max time  |%varavg| %total
---------------------------------------------------------------
Pair    | 482.89     | 489.62     | 496.36     |  30.4 | 48.68
Neigh   | 429.89     | 448.49     | 467.09     |  87.8 | 44.59
Comm    | 32.754     | 44.962     | 57.17      | 182.1 |  4.47
Output  | 0.055036   | 0.055055   | 0.055075   |   0.0 |  0.01
Modify  | 17.777     | 18.097     | 18.416     |   7.5 |  1.80
Other   |            | 4.655      |            |       |  0.46

Nlocal:    9826 ave 9841 max 9811 min
Histogram: 1 0 0 0 0 0 0 0 0 1
Nghost:    8920.5 ave 8943 max 8898 min
Histogram: 1 0 0 0 0 0 0 0 0 1
Neighs:    302101 ave 303627 max 300575 min
Histogram: 1 0 0 0 0 0 0 0 0 1

Total # of neighbors = 604202
Ave neighs/atom = 30.7451
Neighbor list builds = 19505
Dangerous builds not checked
Setting up Verlet run ...
  Unit style    : metal
  Current step  : 300000
  Time step     : 0.001
Per MPI rank memory allocation (min/avg/max) = 11.35 | 11.35 | 11.36 Mbytes
Step Temp Press TotEng PotEng Enthalpy 
  300000    1812.5537    8.5773339   -76941.325   -81545.376   -76936.983 
  300495    1745.3977    8.7714981   -77143.464   -81576.934    -77139.03 
Loop time of 23.3231 on 2 procs for 495 steps with 19652 atoms

Performance: 1.834 ns/day, 13.088 hours/ns, 21.224 timesteps/s
99.4% CPU use with 2 MPI tasks x no OpenMP threads

MPI task timing breakdown:
Section |  min time  |  avg time  |  max time  |%varavg| %total
---------------------------------------------------------------
Pair    | 10.47      | 10.951     | 11.431     |  14.5 | 46.95
Neigh   | 10.76      | 10.781     | 10.802     |   0.6 | 46.22
Comm    | 0.54711    | 1.0518     | 1.5564     |  49.2 |  4.51
Output  | 7.6056e-05 | 0.00010097 | 0.00012589 |   0.0 |  0.00
Modify  | 0.42611    | 0.42718    | 0.42825    |   0.2 |  1.83
Other   |            | 0.1127     |            |       |  0.48

Nlocal:    9826 ave 9834 max 9818 min
Histogram: 1 0 0 0 0 0 0 0 0 1
Nghost:    8929 ave 8939 max 8919 min
Histogram: 1 0 0 0 0 0 0 0 0 1
Neighs:    302637 ave 304599 max 300675 min
Histogram: 1 0 0 0 0 0 0 0 0 1

Total # of neighbors = 605274
Ave neighs/atom = 30.7996
Neighbor list builds = 495
Dangerous builds not checked
Setting up Verlet run ...
  Unit style    : metal
  Current step  : 300495
  Time step     : 0.001
Per MPI rank memory allocation (min/avg/max) = 11.35 | 11.35 | 11.36 Mbytes
Step Temp Press TotEng PotEng Enthalpy 
  300495    1745.3977    8.7714981   -77143.464   -81576.934    -77139.03 
  320000     1747.583    65.697006   -77222.896   -81661.916   -77189.719 
Loop time of 1010.5 on 2 procs for 19505 steps with 19652 atoms

Performance: 1.668 ns/day, 14.391 hours/ns, 19.302 timesteps/s
99.0% CPU use with 2 MPI tasks x no OpenMP threads

MPI task timing breakdown:
Section |  min time  |  avg time  |  max time  |%varavg| %total
---------------------------------------------------------------
Pair    | 487.7      | 491.4      | 495.1      |  16.7 | 48.63
Neigh   | 443.84     | 447.17     | 450.51     |  15.8 | 44.25
Comm    | 49.41      | 49.848     | 50.286     |   6.2 |  4.93
Output  | 0.05556    | 0.055586   | 0.055611   |   0.0 |  0.01
Modify  | 17.275     | 17.334     | 17.393     |   1.4 |  1.72
Other   |            | 4.682      |            |       |  0.46

Nlocal:    9826 ave 9859 max 9793 min
Histogram: 1 0 0 0 0 0 0 0 0 1
Nghost:    8947.5 ave 8969 max 8926 min
Histogram: 1 0 0 0 0 0 0 0 0 1
Neighs:    302914 ave 306646 max 299183 min
Histogram: 1 0 0 0 0 0 0 0 0 1

Total # of neighbors = 605829
Ave neighs/atom = 30.8279
Neighbor list builds = 19505
Dangerous builds not checked
Setting up Verlet run ...
  Unit style    : metal
  Current step  : 320000
  Time step     : 0.001
Per MPI rank memory allocation (min/avg/max) = 11.36 | 11.36 | 11.36 Mbytes
Step Temp Press TotEng PotEng Enthalpy 
  320000     1747.583    65.697006   -77222.896   -81661.916   -77189.719 
  320495    1703.1171    352.51597   -77385.778   -81711.851   -77208.153 
Loop time of 25.6639 on 2 procs for 495 steps with 19652 atoms

Performance: 1.666 ns/day, 14.402 hours/ns, 19.288 timesteps/s
99.7% CPU use with 2 MPI tasks x no OpenMP threads

MPI task timing breakdown:
Section |  min time  |  avg time  |  max time  |%varavg| %total
---------------------------------------------------------------
Pair    | 12.573     | 12.731     | 12.889     |   4.4 | 49.61
Neigh   | 11.381     | 11.385     | 11.389     |   0.1 | 44.36
Comm    | 0.80407    | 0.97685    | 1.1496     |  17.5 |  3.81
Output  | 6.7949e-05 | 0.00010693 | 0.00014591 |   0.0 |  0.00
Modify  | 0.43006    | 0.44291    | 0.45576    |   1.9 |  1.73
Other   |            | 0.1281     |            |       |  0.50

Nlocal:    9826 ave 9830 max 9822 min
Histogram: 1 0 0 0 0 0 0 0 0 1
Nghost:    8932.5 ave 8949 max 8916 min
Histogram: 1 0 0 0 0 0 0 0 0 1
Neighs:    303474 ave 306256 max 300693 min
Histogram: 1 0 0 0 0 0 0 0 0 1

Total # of neighbors = 606949
Ave neighs/atom = 30.8848
Neighbor list builds = 495
Dangerous builds not checked
Setting up Verlet run ...
  Unit style    : metal
  Current step  : 320495
  Time step     : 0.001
Per MPI rank memory allocation (min/avg/max) = 11.36 | 11.36 | 11.36 Mbytes
Step Temp Press TotEng PotEng Enthalpy 
  320495    1703.1171    352.51597   -77385.778   -81711.851   -77208.153 
  340000     1694.743    -346.1264   -77484.708    -81789.51   -77659.304 
Loop time of 949.157 on 2 procs for 19505 steps with 19652 atoms

Performance: 1.776 ns/day, 13.517 hours/ns, 20.550 timesteps/s
98.8% CPU use with 2 MPI tasks x no OpenMP threads

MPI task timing breakdown:
Section |  min time  |  avg time  |  max time  |%varavg| %total
---------------------------------------------------------------
Pair    | 455.01     | 455.22     | 455.43     |   1.0 | 47.96
Neigh   | 422.13     | 432.24     | 442.36     |  48.6 | 45.54
Comm    | 30.315     | 40.548     | 50.781     | 160.7 |  4.27
Output  | 0.058399   | 0.058424   | 0.05845    |   0.0 |  0.01
Modify  | 16.444     | 16.649     | 16.854     |   5.0 |  1.75
Other   |            | 4.438      |            |       |  0.47

Nlocal:    9826 ave 9842 max 9810 min
Histogram: 1 0 0 0 0 0 0 0 0 1
Nghost:    8912.5 ave 8927 max 8898 min
Histogram: 1 0 0 0 0 0 0 0 0 1
Neighs:    303279 ave 306242 max 300316 min
Histogram: 1 0 0 0 0 0 0 0 0 1

Total # of neighbors = 606558
Ave neighs/atom = 30.865
Neighbor list builds = 19505
Dangerous builds not checked
Setting up Verlet run ...
  Unit style    : metal
  Current step  : 340000
  Time step     : 0.001
Per MPI rank memory allocation (min/avg/max) = 11.36 | 11.36 | 11.36 Mbytes
Step Temp Press TotEng PotEng Enthalpy 
  340000     1694.743    -346.1264   -77484.708    -81789.51   -77659.304 
  340495    1667.3376   -118.95025   -77642.685   -81877.874   -77702.582 
Loop time of 26.5252 on 2 procs for 495 steps with 19652 atoms

Performance: 1.612 ns/day, 14.885 hours/ns, 18.662 timesteps/s
95.0% CPU use with 2 MPI tasks x no OpenMP threads

MPI task timing breakdown:
Section |  min time  |  avg time  |  max time  |%varavg| %total
---------------------------------------------------------------
Pair    | 12.855     | 12.858     | 12.861     |   0.1 | 48.47
Neigh   | 10.624     | 11.54      | 12.455     |  27.0 | 43.50
Comm    | 0.57521    | 1.5214     | 2.4675     |  76.7 |  5.74
Output  | 7.4863e-05 | 0.00011289 | 0.00015092 |   0.0 |  0.00
Modify  | 0.46202    | 0.47896    | 0.4959     |   2.4 |  1.81
Other   |            | 0.1272     |            |       |  0.48

Nlocal:    9826 ave 9831 max 9821 min
Histogram: 1 0 0 0 0 0 0 0 0 1
Nghost:    8906 ave 8912 max 8900 min
Histogram: 1 0 0 0 0 0 0 0 0 1
Neighs:    303536 ave 306369 max 300702 min
Histogram: 1 0 0 0 0 0 0 0 0 1

Total # of neighbors = 607071
Ave neighs/atom = 30.8911
Neighbor list builds = 495
Dangerous builds not checked
Setting up Verlet run ...
  Unit style    : metal
  Current step  : 340495
  Time step     : 0.001
Per MPI rank memory allocation (min/avg/max) = 11.36 | 11.36 | 11.36 Mbytes
Step Temp Press TotEng PotEng Enthalpy 
  340495    1667.3376   -118.95025   -77642.685   -81877.874   -77702.582 
  360000    1641.6628    433.03316   -77724.327     -81894.3   -77506.856 
Loop time of 965.254 on 2 procs for 19505 steps with 19652 atoms

Performance: 1.746 ns/day, 13.747 hours/ns, 20.207 timesteps/s
98.2% CPU use with 2 MPI tasks x no OpenMP threads

MPI task timing breakdown:
Section |  min time  |  avg time  |  max time  |%varavg| %total
---------------------------------------------------------------
Pair    | 461.63     | 466.45     | 471.27     |  22.3 | 48.32
Neigh   | 426.09     | 435.42     | 444.75     |  44.7 | 45.11
Comm    | 37.193     | 41.679     | 46.165     |  69.5 |  4.32
Output  | 0.059607   | 0.059631   | 0.059654   |   0.0 |  0.01
Modify  | 17.096     | 17.132     | 17.168     |   0.9 |  1.77
Other   |            | 4.518      |            |       |  0.47

Nlocal:    9826 ave 9836 max 9816 min
Histogram: 1 0 0 0 0 0 0 0 0 1
Nghost:    8943.5 ave 8965 max 8922 min
Histogram: 1 0 0 0 0 0 0 0 0 1
Neighs:    304592 ave 307478 max 301706 min
Histogram: 1 0 0 0 0 0 0 0 0 1

Total # of neighbors = 609184
Ave neighs/atom = 30.9986
Neighbor list builds = 19505
Dangerous builds not checked
Setting up Verlet run ...
  Unit style    : metal
  Current step  : 360000
  Time step     : 0.001
Per MPI rank memory allocation (min/avg/max) = 11.36 | 11.36 | 11.36 Mbytes
Step Temp Press TotEng PotEng Enthalpy 
  360000    1641.6628    433.03316   -77724.327     -81894.3   -77506.856 
  360495    1609.9932    327.58554   -77869.721    -81959.25   -77705.439 
Loop time of 25.3793 on 2 procs for 495 steps with 19652 atoms

Performance: 1.685 ns/day, 14.242 hours/ns, 19.504 timesteps/s
96.8% CPU use with 2 MPI tasks x no OpenMP threads

MPI task timing breakdown:
Section |  min time  |  avg time  |  max time  |%varavg| %total
---------------------------------------------------------------
Pair    | 12.034     | 12.388     | 12.742     |  10.1 | 48.81
Neigh   | 10.856     | 11.247     | 11.638     |  11.6 | 44.32
Comm    | 1.1051     | 1.1479     | 1.1907     |   4.0 |  4.52
Output  | 8.2016e-05 | 0.00011694 | 0.00015187 |   0.0 |  0.00
Modify  | 0.45957    | 0.46238    | 0.46519    |   0.4 |  1.82
Other   |            | 0.134      |            |       |  0.53

Nlocal:    9826 ave 9849 max 9803 min
Histogram: 1 0 0 0 0 0 0 0 0 1
Nghost:    8977.5 ave 8998 max 8957 min
Histogram: 1 0 0 0 0 0 0 0 0 1
Neighs:    304733 ave 308017 max 301449 min
Histogram: 1 0 0 0 0 0 0 0 0 1

Total # of neighbors = 609466
Ave neighs/atom = 31.0129
Neighbor list builds = 495
Dangerous builds not checked
Setting up Verlet run ...
  Unit style    : metal
  Current step  : 360495
  Time step     : 0.001
Per MPI rank memory allocation (min/avg/max) = 11.36 | 11.36 | 11.36 Mbytes
Step Temp Press TotEng PotEng Enthalpy 
  360495    1609.9932    327.58554   -77869.721    -81959.25   -77705.439 
  380000    1605.8318    190.64549   -77951.164   -82030.123   -77855.587 
Loop time of 998.309 on 2 procs for 19505 steps with 19652 atoms

Performance: 1.688 ns/day, 14.217 hours/ns, 19.538 timesteps/s
97.9% CPU use with 2 MPI tasks x no OpenMP threads

MPI task timing breakdown:
Section |  min time  |  avg time  |  max time  |%varavg| %total
---------------------------------------------------------------
Pair    | 479.58     | 484.36     | 489.13     |  21.7 | 48.52
Neigh   | 437.16     | 443.41     | 449.65     |  29.7 | 44.42
Comm    | 36.988     | 48.475     | 59.963     | 165.0 |  4.86
Output  | 0.052627   | 0.052642   | 0.052658   |   0.0 |  0.01
Modify  | 17.077     | 17.389     | 17.701     |   7.5 |  1.74
Other   |            | 4.629      |            |       |  0.46

Nlocal:    9826 ave 9830 max 9822 min
Histogram: 1 0 0 0 0 0 0 0 0 1
Nghost:    8970 ave 8981 max 8959 min
Histogram: 1 0 0 0 0 0 0 0 0 1
Neighs:    305005 ave 307723 max 302287 min
Histogram: 1 0 0 0 0 0 0 0 0 1

Total # of neighbors = 610010
Ave neighs/atom = 31.0406
Neighbor list builds = 19505
Dangerous builds not checked
Setting up Verlet run ...
  Unit style    : metal
  Current step  : 380000
  Time step     : 0.001
Per MPI rank memory allocation (min/avg/max) = 11.36 | 11.36 | 11.36 Mbytes
Step Temp Press TotEng PotEng Enthalpy 
  380000    1605.8318    190.64549   -77951.164   -82030.123   -77855.587 
  380495    1566.9712    335.86182    -78102.96    -82083.21   -77934.863 
Loop time of 28.2829 on 2 procs for 495 steps with 19652 atoms

Performance: 1.512 ns/day, 15.871 hours/ns, 17.502 timesteps/s
93.4% CPU use with 2 MPI tasks x no OpenMP threads

MPI task timing breakdown:
Section |  min time  |  avg time  |  max time  |%varavg| %total
---------------------------------------------------------------
Pair    | 13.547     | 13.902     | 14.257     |   9.5 | 49.15
Neigh   | 10.442     | 11.587     | 12.731     |  33.6 | 40.97
Comm    | 0.64269    | 2.1901     | 3.7375     | 104.6 |  7.74
Output  | 8.2016e-05 | 0.00010943 | 0.00013685 |   0.0 |  0.00
Modify  | 0.44701    | 0.47401    | 0.50101    |   3.9 |  1.68
Other   |            | 0.1296     |            |       |  0.46

Nlocal:    9826 ave 9834 max 9818 min
Histogram: 1 0 0 0 0 0 0 0 0 1
Nghost:    8938.5 ave 8954 max 8923 min
Histogram: 1 0 0 0 0 0 0 0 0 1
Neighs:    305560 ave 308434 max 302686 min
Histogram: 1 0 0 0 0 0 0 0 0 1

Total # of neighbors = 611120
Ave neighs/atom = 31.0971
Neighbor list builds = 495
Dangerous builds not checked
Setting up Verlet run ...
  Unit style    : metal
  Current step  : 380495
  Time step     : 0.001
Per MPI rank memory allocation (min/avg/max) = 11.36 | 11.36 | 11.36 Mbytes
Step Temp Press TotEng PotEng Enthalpy 
  380495    1566.9712    335.86182    -78102.96    -82083.21   -77934.863 
  400000    1550.6773    73.478522   -78161.349   -82100.211    -78124.56 
Loop time of 1042.74 on 2 procs for 19505 steps with 19652 atoms

Performance: 1.616 ns/day, 14.850 hours/ns, 18.705 timesteps/s
98.5% CPU use with 2 MPI tasks x no OpenMP threads

MPI task timing breakdown:
Section |  min time  |  avg time  |  max time  |%varavg| %total
---------------------------------------------------------------
Pair    | 492.66     | 509.23     | 525.8      |  73.4 | 48.84
Neigh   | 455.64     | 456.46     | 457.28     |   3.8 | 43.78
Comm    | 36.307     | 54.297     | 72.287     | 244.1 |  5.21
Output  | 0.054121   | 0.054137   | 0.054152   |   0.0 |  0.01
Modify  | 17.638     | 17.975     | 18.312     |   7.9 |  1.72
Other   |            | 4.721      |            |       |  0.45

Nlocal:    9826 ave 9827 max 9825 min
Histogram: 1 0 0 0 0 0 0 0 0 1
Nghost:    8929.5 ave 8949 max 8910 min
Histogram: 1 0 0 0 0 0 0 0 0 1
Neighs:    305355 ave 308145 max 302565 min
Histogram: 1 0 0 0 0 0 0 0 0 1

Total # of neighbors = 610710
Ave neighs/atom = 31.0762
Neighbor list builds = 19505
Dangerous builds not checked
Setting up Verlet run ...
  Unit style    : metal
  Current step  : 400000
  Time step     : 0.001
Per MPI rank memory allocation (min/avg/max) = 11.36 | 11.36 | 11.36 Mbytes
Step Temp Press TotEng PotEng Enthalpy 
  400000    1550.6773    73.478522   -78161.349   -82100.211    -78124.56 
  400495     1530.672    121.92445   -78371.035   -82259.081   -78310.137 
Loop time of 25.8625 on 2 procs for 495 steps with 19652 atoms

Performance: 1.654 ns/day, 14.513 hours/ns, 19.140 timesteps/s
98.7% CPU use with 2 MPI tasks x no OpenMP threads

MPI task timing breakdown:
Section |  min time  |  avg time  |  max time  |%varavg| %total
---------------------------------------------------------------
Pair    | 12.354     | 12.778     | 13.201     |  11.9 | 49.41
Neigh   | 11.044     | 11.052     | 11.059     |   0.2 | 42.73
Comm    | 1.0046     | 1.4281     | 1.8515     |  35.4 |  5.52
Output  | 0.00010204 | 0.00014055 | 0.00017905 |   0.0 |  0.00
Modify  | 0.47266    | 0.4789     | 0.48514    |   0.9 |  1.85
Other   |            | 0.126      |            |       |  0.49

Nlocal:    9826 ave 9830 max 9822 min
Histogram: 1 0 0 0 0 0 0 0 0 1
Nghost:    8969.5 ave 8971 max 8968 min
Histogram: 1 0 0 0 0 0 0 0 0 1
Neighs:    305972 ave 308796 max 303148 min
Histogram: 1 0 0 0 0 0 0 0 0 1

Total # of neighbors = 611944
Ave neighs/atom = 31.139
Neighbor list builds = 495
Dangerous builds not checked
Setting up Verlet run ...
  Unit style    : metal
  Current step  : 400495
  Time step     : 0.001
Per MPI rank memory allocation (min/avg/max) = 11.36 | 11.36 | 11.36 Mbytes
Step Temp Press TotEng PotEng Enthalpy 
  400495     1530.672    121.92445   -78371.035   -82259.081   -78310.137 
  420000    1499.5998    28.876432   -78396.985   -82206.105   -78382.551 
Loop time of 1426.76 on 2 procs for 19505 steps with 19652 atoms

Performance: 1.181 ns/day, 20.319 hours/ns, 13.671 timesteps/s
79.2% CPU use with 2 MPI tasks x no OpenMP threads

MPI task timing breakdown:
Section |  min time  |  avg time  |  max time  |%varavg| %total
---------------------------------------------------------------
Pair    | 702.32     | 714.17     | 726.02     |  44.4 | 50.06
Neigh   | 537.68     | 549.04     | 560.4      |  48.5 | 38.48
Comm    | 128.54     | 129.25     | 129.95     |   6.2 |  9.06
Output  | 0.10698    | 0.107      | 0.10703    |   0.0 |  0.01
Modify  | 28.449     | 28.611     | 28.773     |   3.0 |  2.01
Other   |            | 5.588      |            |       |  0.39

Nlocal:    9826 ave 9848 max 9804 min
Histogram: 1 0 0 0 0 0 0 0 0 1
Nghost:    8955.5 ave 8977 max 8934 min
Histogram: 1 0 0 0 0 0 0 0 0 1
Neighs:    305840 ave 309162 max 302519 min
Histogram: 1 0 0 0 0 0 0 0 0 1

Total # of neighbors = 611681
Ave neighs/atom = 31.1256
Neighbor list builds = 19505
Dangerous builds not checked
Setting up Verlet run ...
  Unit style    : metal
  Current step  : 420000
  Time step     : 0.001
Per MPI rank memory allocation (min/avg/max) = 11.36 | 11.36 | 11.36 Mbytes
Step Temp Press TotEng PotEng Enthalpy 
  420000    1499.5998    28.876432   -78396.985   -82206.105   -78382.551 
  420495    1455.3116    299.14383   -78616.649   -82313.273   -78467.539 
Loop time of 47.0246 on 2 procs for 495 steps with 19652 atoms

Performance: 0.909 ns/day, 26.389 hours/ns, 10.526 timesteps/s
65.9% CPU use with 2 MPI tasks x no OpenMP threads

MPI task timing breakdown:
Section |  min time  |  avg time  |  max time  |%varavg| %total
---------------------------------------------------------------
Pair    | 22.857     | 23.666     | 24.476     |  16.6 | 50.33
Neigh   | 15.764     | 17.58      | 19.397     |  43.3 | 37.39
Comm    | 3.618      | 4.6187     | 5.6193     |  46.6 |  9.82
Output  | 8.2016e-05 | 0.00010097 | 0.00011992 |   0.0 |  0.00
Modify  | 1.0012     | 1.0068     | 1.0124     |   0.6 |  2.14
Other   |            | 0.152      |            |       |  0.32

Nlocal:    9826 ave 9839 max 9813 min
Histogram: 1 0 0 0 0 0 0 0 0 1
Nghost:    8977.5 ave 9003 max 8952 min
Histogram: 1 0 0 0 0 0 0 0 0 1
Neighs:    306684 ave 309891 max 303476 min
Histogram: 1 0 0 0 0 0 0 0 0 1

Total # of neighbors = 613367
Ave neighs/atom = 31.2114
Neighbor list builds = 495
Dangerous builds not checked
Setting up Verlet run ...
  Unit style    : metal
  Current step  : 420495
  Time step     : 0.001
Per MPI rank memory allocation (min/avg/max) = 11.36 | 11.36 | 11.36 Mbytes
Step Temp Press TotEng PotEng Enthalpy 
  420495    1455.3116    299.14383   -78616.649   -82313.273   -78467.539 
  440000    1449.0959    137.82686   -78704.357   -82385.192    -78635.72 
Loop time of 1563.43 on 2 procs for 19505 steps with 19652 atoms

Performance: 1.078 ns/day, 22.265 hours/ns, 12.476 timesteps/s
75.3% CPU use with 2 MPI tasks x no OpenMP threads

MPI task timing breakdown:
Section |  min time  |  avg time  |  max time  |%varavg| %total
---------------------------------------------------------------
Pair    | 769.88     | 778.07     | 786.26     |  29.4 | 49.77
Neigh   | 538.87     | 561.42     | 583.97     |  95.2 | 35.91
Comm    | 172.4      | 187.28     | 202.17     | 108.8 | 11.98
Output  | 0.23422    | 0.23424    | 0.23426    |   0.0 |  0.01
Modify  | 30.397     | 30.792     | 31.186     |   7.1 |  1.97
Other   |            | 5.63       |            |       |  0.36

Nlocal:    9826 ave 9828 max 9824 min
Histogram: 1 0 0 0 0 0 0 0 0 1
Nghost:    8968 ave 9003 max 8933 min
Histogram: 1 0 0 0 0 0 0 0 0 1
Neighs:    307008 ave 308990 max 305025 min
Histogram: 1 0 0 0 0 0 0 0 0 1

Total # of neighbors = 614015
Ave neighs/atom = 31.2444
Neighbor list builds = 19505
Dangerous builds not checked
Setting up Verlet run ...
  Unit style    : metal
  Current step  : 440000
  Time step     : 0.001
Per MPI rank memory allocation (min/avg/max) = 11.36 | 11.36 | 11.36 Mbytes
Step Temp Press TotEng PotEng Enthalpy 
  440000    1449.0959    137.82686   -78704.357   -82385.192    -78635.72 
  440495    1412.7074      154.908   -78844.003   -82432.408   -78766.931 
Loop time of 48.9984 on 2 procs for 495 steps with 19652 atoms

Performance: 0.873 ns/day, 27.496 hours/ns, 10.102 timesteps/s
66.2% CPU use with 2 MPI tasks x no OpenMP threads

MPI task timing breakdown:
Section |  min time  |  avg time  |  max time  |%varavg| %total
---------------------------------------------------------------
Pair    | 24.722     | 24.875     | 25.028     |   3.1 | 50.77
Neigh   | 16.777     | 17.019     | 17.261     |   5.9 | 34.73
Comm    | 5.6353     | 5.7119     | 5.7885     |   3.2 | 11.66
Output  | 8.2016e-05 | 0.00010753 | 0.00013304 |   0.0 |  0.00
Modify  | 1.1847     | 1.1848     | 1.1849     |   0.0 |  2.42
Other   |            | 0.2078     |            |       |  0.42

Nlocal:    9826 ave 9832 max 9820 min
Histogram: 1 0 0 0 0 0 0 0 0 1
Nghost:    8998 ave 9007 max 8989 min
Histogram: 1 0 0 0 0 0 0 0 0 1
Neighs:    307202 ave 309305 max 305098 min
Histogram: 1 0 0 0 0 0 0 0 0 1

Total # of neighbors = 614403
Ave neighs/atom = 31.2641
Neighbor list builds = 495
Dangerous builds not checked
Setting up Verlet run ...
  Unit style    : metal
  Current step  : 440495
  Time step     : 0.001
Per MPI rank memory allocation (min/avg/max) = 11.36 | 11.36 | 11.36 Mbytes
Step Temp Press TotEng PotEng Enthalpy 
  440495    1412.7074      154.908   -78844.003   -82432.408   -78766.931 
  460000    1396.1133   -546.64149   -78963.649   -82509.904   -79235.905 
Loop time of 1414.58 on 2 procs for 19505 steps with 19652 atoms

Performance: 1.191 ns/day, 20.146 hours/ns, 13.789 timesteps/s
79.2% CPU use with 2 MPI tasks x no OpenMP threads

MPI task timing breakdown:
Section |  min time  |  avg time  |  max time  |%varavg| %total
---------------------------------------------------------------
Pair    | 708.02     | 713        | 717.97     |  18.6 | 50.40
Neigh   | 498.85     | 517.08     | 535.31     |  80.2 | 36.55
Comm    | 139.14     | 152.61     | 166.07     | 109.0 | 10.79
Output  | 0.053572   | 0.053591   | 0.053611   |   0.0 |  0.00
Modify  | 26.621     | 26.658     | 26.695     |   0.7 |  1.88
Other   |            | 5.185      |            |       |  0.37

Nlocal:    9826 ave 9834 max 9818 min
Histogram: 1 0 0 0 0 0 0 0 0 1
Nghost:    8975 ave 8982 max 8968 min
Histogram: 1 0 0 0 0 0 0 0 0 1
Neighs:    306992 ave 309291 max 304692 min
Histogram: 1 0 0 0 0 0 0 0 0 1

Total # of neighbors = 613983
Ave neighs/atom = 31.2428
Neighbor list builds = 19505
Dangerous builds not checked
Setting up Verlet run ...
  Unit style    : metal
  Current step  : 460000
  Time step     : 0.001
Per MPI rank memory allocation (min/avg/max) = 11.36 | 11.36 | 11.36 Mbytes
Step Temp Press TotEng PotEng Enthalpy 
  460000    1396.1133   -546.64149   -78963.649   -82509.904   -79235.905 
  460495    1354.1746   -362.85444   -79083.072   -82522.799   -79263.605 
Loop time of 15.6636 on 2 procs for 495 steps with 19652 atoms

Performance: 2.730 ns/day, 8.790 hours/ns, 31.602 timesteps/s
100.0% CPU use with 2 MPI tasks x no OpenMP threads

MPI task timing breakdown:
Section |  min time  |  avg time  |  max time  |%varavg| %total
---------------------------------------------------------------
Pair    | 6.9497     | 7.0027     | 7.0557     |   2.0 | 44.71
Neigh   | 7.8172     | 7.9209     | 8.0246     |   3.7 | 50.57
Comm    | 0.34458    | 0.40232    | 0.46007    |   9.1 |  2.57
Output  | 8.6069e-05 | 0.00011206 | 0.00013804 |   0.0 |  0.00
Modify  | 0.26048    | 0.2658     | 0.27112    |   1.0 |  1.70
Other   |            | 0.0718     |            |       |  0.46

Nlocal:    9826 ave 9841 max 9811 min
Histogram: 1 0 0 0 0 0 0 0 0 1
Nghost:    8952.5 ave 8979 max 8926 min
Histogram: 1 0 0 0 0 0 0 0 0 1
Neighs:    307353 ave 309367 max 305339 min
Histogram: 1 0 0 0 0 0 0 0 0 1

Total # of neighbors = 614706
Ave neighs/atom = 31.2796
Neighbor list builds = 495
Dangerous builds not checked
Setting up Verlet run ...
  Unit style    : metal
  Current step  : 460495
  Time step     : 0.001
Per MPI rank memory allocation (min/avg/max) = 11.36 | 11.36 | 11.36 Mbytes
Step Temp Press TotEng PotEng Enthalpy 
  460495    1354.1746   -362.85444   -79083.072   -82522.799   -79263.605 
  480000    1334.9758   -197.02402   -79197.258   -82588.218   -79295.134 
Loop time of 1402.21 on 2 procs for 19505 steps with 19652 atoms

Performance: 1.202 ns/day, 19.969 hours/ns, 13.910 timesteps/s
80.0% CPU use with 2 MPI tasks x no OpenMP threads

MPI task timing breakdown:
Section |  min time  |  avg time  |  max time  |%varavg| %total
---------------------------------------------------------------
Pair    | 704.82     | 708.8      | 712.77     |  14.9 | 50.55
Neigh   | 523.07     | 524.24     | 525.42     |   5.1 | 37.39
Comm    | 132.09     | 137.71     | 143.34     |  48.0 |  9.82
Output  | 0.094938   | 0.094954   | 0.094971   |   0.0 |  0.01
Modify  | 25.77      | 26.176     | 26.582     |   7.9 |  1.87
Other   |            | 5.186      |            |       |  0.37

Nlocal:    9826 ave 9833 max 9819 min
Histogram: 1 0 0 0 0 0 0 0 0 1
Nghost:    8990 ave 9002 max 8978 min
Histogram: 1 0 0 0 0 0 0 0 0 1
Neighs:    307866 ave 309580 max 306153 min
Histogram: 1 0 0 0 0 0 0 0 0 1

Total # of neighbors = 615733
Ave neighs/atom = 31.3318
Neighbor list builds = 19505
Dangerous builds not checked
Setting up Verlet run ...
  Unit style    : metal
  Current step  : 480000
  Time step     : 0.001
Per MPI rank memory allocation (min/avg/max) = 11.37 | 11.37 | 11.37 Mbytes
Step Temp Press TotEng PotEng Enthalpy 
  480000    1334.9758   -197.02402   -79197.258   -82588.218   -79295.134 
  480495    1309.7849   -38.880649   -79340.555   -82667.528   -79359.834 
Loop time of 32.6053 on 2 procs for 495 steps with 19652 atoms

Performance: 1.312 ns/day, 18.297 hours/ns, 15.182 timesteps/s
83.0% CPU use with 2 MPI tasks x no OpenMP threads

MPI task timing breakdown:
Section |  min time  |  avg time  |  max time  |%varavg| %total
---------------------------------------------------------------
Pair    | 16.076     | 16.315     | 16.555     |   5.9 | 50.04
Neigh   | 12.114     | 12.348     | 12.582     |   6.7 | 37.87
Comm    | 3.1568     | 3.1792     | 3.2016     |   1.3 |  9.75
Output  | 0.00011611 | 0.00014055 | 0.00016499 |   0.0 |  0.00
Modify  | 0.63399    | 0.64399    | 0.65399    |   1.2 |  1.98
Other   |            | 0.1188     |            |       |  0.36

Nlocal:    9826 ave 9829 max 9823 min
Histogram: 1 0 0 0 0 0 0 0 0 1
Nghost:    9027.5 ave 9044 max 9011 min
Histogram: 1 0 0 0 0 0 0 0 0 1
Neighs:    308192 ave 310656 max 305727 min
Histogram: 1 0 0 0 0 0 0 0 0 1

Total # of neighbors = 616383
Ave neighs/atom = 31.3649
Neighbor list builds = 495
Dangerous builds not checked
Setting up Verlet run ...
  Unit style    : metal
  Current step  : 480495
  Time step     : 0.001
Per MPI rank memory allocation (min/avg/max) = 11.37 | 11.37 | 11.37 Mbytes
Step Temp Press TotEng PotEng Enthalpy 
  480495    1309.7849   -38.880649   -79340.555   -82667.528   -79359.834 
  500000    1311.4282   -144.41061   -79400.424   -82731.571   -79471.995 
Loop time of 1526.47 on 2 procs for 19505 steps with 19652 atoms

Performance: 1.104 ns/day, 21.739 hours/ns, 12.778 timesteps/s
76.5% CPU use with 2 MPI tasks x no OpenMP threads

MPI task timing breakdown:
Section |  min time  |  avg time  |  max time  |%varavg| %total
---------------------------------------------------------------
Pair    | 765.99     | 768.04     | 770.09     |   7.4 | 50.31
Neigh   | 567.46     | 567.83     | 568.19     |   1.5 | 37.20
Comm    | 151.55     | 153.62     | 155.69     |  16.7 | 10.06
Output  | 0.082706   | 0.08272    | 0.082734   |   0.0 |  0.01
Modify  | 30.886     | 31.166     | 31.445     |   5.0 |  2.04
Other   |            | 5.737      |            |       |  0.38

Nlocal:    9826 ave 9841 max 9811 min
Histogram: 1 0 0 0 0 0 0 0 0 1
Nghost:    8971.5 ave 8978 max 8965 min
Histogram: 1 0 0 0 0 0 0 0 0 1
Neighs:    308241 ave 309870 max 306612 min
Histogram: 1 0 0 0 0 0 0 0 0 1

Total # of neighbors = 616482
Ave neighs/atom = 31.3699
Neighbor list builds = 19505
Dangerous builds not checked
Setting up Verlet run ...
  Unit style    : metal
  Current step  : 500000
  Time step     : 0.001
Per MPI rank memory allocation (min/avg/max) = 11.37 | 11.37 | 11.37 Mbytes
Step Temp Press TotEng PotEng Enthalpy 
  500000    1311.4282   -144.41061   -79400.424   -82731.571   -79471.995 
  500495    1260.2154   -371.82634   -79596.303   -82797.365   -79780.352 
Loop time of 39.1187 on 2 procs for 495 steps with 19652 atoms

Performance: 1.093 ns/day, 21.952 hours/ns, 12.654 timesteps/s
73.2% CPU use with 2 MPI tasks x no OpenMP threads

MPI task timing breakdown:
Section |  min time  |  avg time  |  max time  |%varavg| %total
---------------------------------------------------------------
Pair    | 19.502     | 19.565     | 19.628     |   1.4 | 50.02
Neigh   | 14.158     | 14.933     | 15.709     |  20.1 | 38.17
Comm    | 2.9041     | 3.6828     | 4.4615     |  40.6 |  9.41
Output  | 7.2002e-05 | 0.00011301 | 0.00015402 |   0.0 |  0.00
Modify  | 0.74311    | 0.78828    | 0.83346    |   5.1 |  2.02
Other   |            | 0.1491     |            |       |  0.38

Nlocal:    9826 ave 9839 max 9813 min
Histogram: 1 0 0 0 0 0 0 0 0 1
Nghost:    8993.5 ave 8997 max 8990 min
Histogram: 1 0 0 0 0 0 0 0 0 1
Neighs:    308870 ave 310790 max 306950 min
Histogram: 1 0 0 0 0 0 0 0 0 1

Total # of neighbors = 617740
Ave neighs/atom = 31.434
Neighbor list builds = 495
Dangerous builds not checked
Setting up Verlet run ...
  Unit style    : metal
  Current step  : 500495
  Time step     : 0.001
Per MPI rank memory allocation (min/avg/max) = 11.37 | 11.37 | 11.37 Mbytes
Step Temp Press TotEng PotEng Enthalpy 
  500495    1260.2154   -371.82634   -79596.303   -82797.365   -79780.352 
  520000    1258.5111    56.669612   -79688.126   -82884.859   -79660.137 
Loop time of 1007.85 on 2 procs for 19505 steps with 19652 atoms

Performance: 1.672 ns/day, 14.353 hours/ns, 19.353 timesteps/s
98.4% CPU use with 2 MPI tasks x no OpenMP threads

MPI task timing breakdown:
Section |  min time  |  avg time  |  max time  |%varavg| %total
---------------------------------------------------------------
Pair    | 491.23     | 493.17     | 495.11     |   8.7 | 48.93
Neigh   | 422.22     | 426        | 429.78     |  18.3 | 42.27
Comm    | 65.983     | 67.448     | 68.914     |  17.8 |  6.69
Output  | 0.05241    | 0.052437   | 0.052463   |   0.0 |  0.01
Modify  | 16.563     | 16.871     | 17.178     |   7.5 |  1.67
Other   |            | 4.309      |            |       |  0.43

Nlocal:    9826 ave 9837 max 9815 min
Histogram: 1 0 0 0 0 0 0 0 0 1
Nghost:    9012 ave 9014 max 9010 min
Histogram: 1 0 0 0 0 0 0 0 0 1
Neighs:    309347 ave 311169 max 307525 min
Histogram: 1 0 0 0 0 0 0 0 0 1

Total # of neighbors = 618694
Ave neighs/atom = 31.4825
Neighbor list builds = 19505
Dangerous builds not checked
Setting up Verlet run ...
  Unit style    : metal
  Current step  : 520000
  Time step     : 0.001
Per MPI rank memory allocation (min/avg/max) = 11.37 | 11.37 | 11.37 Mbytes
Step Temp Press TotEng PotEng Enthalpy 
  520000    1258.5111    56.669612   -79688.126   -82884.859   -79660.137 
  520495    1215.8198   -99.522693   -79873.831   -82962.124   -79922.926 
Loop time of 29.4842 on 2 procs for 495 steps with 19652 atoms

Performance: 1.451 ns/day, 16.546 hours/ns, 16.789 timesteps/s
98.0% CPU use with 2 MPI tasks x no OpenMP threads

MPI task timing breakdown:
Section |  min time  |  avg time  |  max time  |%varavg| %total
---------------------------------------------------------------
Pair    | 14.274     | 14.819     | 15.364     |  14.2 | 50.26
Neigh   | 9.6982     | 11.262     | 12.827     |  46.6 | 38.20
Comm    | 0.65979    | 2.8198     | 4.9797     | 128.6 |  9.56
Output  | 9.7036e-05 | 0.00015402 | 0.000211   |   0.0 |  0.00
Modify  | 0.43021    | 0.4658     | 0.5014     |   5.2 |  1.58
Other   |            | 0.1173     |            |       |  0.40

Nlocal:    9826 ave 9833 max 9819 min
Histogram: 1 0 0 0 0 0 0 0 0 1
Nghost:    9033 ave 9055 max 9011 min
Histogram: 1 0 0 0 0 0 0 0 0 1
Neighs:    309796 ave 312147 max 307445 min
Histogram: 1 0 0 0 0 0 0 0 0 1

Total # of neighbors = 619592
Ave neighs/atom = 31.5282
Neighbor list builds = 495
Dangerous builds not checked
Setting up Verlet run ...
  Unit style    : metal
  Current step  : 520495
  Time step     : 0.001
Per MPI rank memory allocation (min/avg/max) = 11.37 | 11.37 | 11.37 Mbytes
Step Temp Press TotEng PotEng Enthalpy 
  520495    1215.8198   -99.522693   -79873.831   -82962.124   -79922.926 
  540000    1209.2688   -69.656869   -79917.542   -82989.195   -79951.884 
Loop time of 995.663 on 2 procs for 19505 steps with 19652 atoms

Performance: 1.693 ns/day, 14.180 hours/ns, 19.590 timesteps/s
99.2% CPU use with 2 MPI tasks x no OpenMP threads

MPI task timing breakdown:
Section |  min time  |  avg time  |  max time  |%varavg| %total
---------------------------------------------------------------
Pair    | 487.07     | 489.01     | 490.95     |   8.8 | 49.11
Neigh   | 402.42     | 427.9      | 453.38     | 123.2 | 42.98
Comm    | 33.561     | 57.822     | 82.083     | 319.1 |  5.81
Output  | 0.19928    | 0.19931    | 0.19933    |   0.0 |  0.02
Modify  | 15.906     | 16.398     | 16.89      |  12.2 |  1.65
Other   |            | 4.338      |            |       |  0.44

Nlocal:    9826 ave 9827 max 9825 min
Histogram: 1 0 0 0 0 0 0 0 0 1
Nghost:    9041.5 ave 9044 max 9039 min
Histogram: 1 0 0 0 0 0 0 0 0 1
Neighs:    309922 ave 312341 max 307503 min
Histogram: 1 0 0 0 0 0 0 0 0 1

Total # of neighbors = 619844
Ave neighs/atom = 31.541
Neighbor list builds = 19505
Dangerous builds not checked
Setting up Verlet run ...
  Unit style    : metal
  Current step  : 540000
  Time step     : 0.001
Per MPI rank memory allocation (min/avg/max) = 11.37 | 11.37 | 11.37 Mbytes
Step Temp Press TotEng PotEng Enthalpy 
  540000    1209.2688   -69.656869   -79917.542   -82989.195   -79951.884 
  540495    1157.2006    46.289479   -80124.246   -83063.641   -80101.471 
Loop time of 26.4312 on 2 procs for 495 steps with 19652 atoms

Performance: 1.618 ns/day, 14.832 hours/ns, 18.728 timesteps/s
96.1% CPU use with 2 MPI tasks x no OpenMP threads

MPI task timing breakdown:
Section |  min time  |  avg time  |  max time  |%varavg| %total
---------------------------------------------------------------
Pair    | 12.994     | 13.032     | 13.07      |   1.1 | 49.30
Neigh   | 11.033     | 11.513     | 11.994     |  14.2 | 43.56
Comm    | 0.76391    | 1.3083     | 1.8526     |  47.6 |  4.95
Output  | 8.297e-05  | 0.00012088 | 0.00015879 |   0.0 |  0.00
Modify  | 0.43819    | 0.45602    | 0.47385    |   2.6 |  1.73
Other   |            | 0.1216     |            |       |  0.46

Nlocal:    9826 ave 9847 max 9805 min
Histogram: 1 0 0 0 0 0 0 0 0 1
Nghost:    9051 ave 9051 max 9051 min
Histogram: 2 0 0 0 0 0 0 0 0 0
Neighs:    310293 ave 312009 max 308577 min
Histogram: 1 0 0 0 0 0 0 0 0 1

Total # of neighbors = 620586
Ave neighs/atom = 31.5788
Neighbor list builds = 495
Dangerous builds not checked
Setting up Verlet run ...
  Unit style    : metal
  Current step  : 540495
  Time step     : 0.001
Per MPI rank memory allocation (min/avg/max) = 11.37 | 11.37 | 11.37 Mbytes
Step Temp Press TotEng PotEng Enthalpy 
  540495    1157.2006    46.289479   -80124.246   -83063.641   -80101.471 
  560000    1152.0449    482.77122   -80176.258   -83102.558    -79939.25 
Loop time of 970.706 on 2 procs for 19505 steps with 19652 atoms

Performance: 1.736 ns/day, 13.824 hours/ns, 20.094 timesteps/s
98.8% CPU use with 2 MPI tasks x no OpenMP threads

MPI task timing breakdown:
Section |  min time  |  avg time  |  max time  |%varavg| %total
---------------------------------------------------------------
Pair    | 471.32     | 474.54     | 477.75     |  14.8 | 48.89
Neigh   | 419.75     | 427.41     | 435.07     |  37.1 | 44.03
Comm    | 43.485     | 48.044     | 52.604     |  65.8 |  4.95
Output  | 0.1322     | 0.13222    | 0.13223    |   0.0 |  0.01
Modify  | 16.177     | 16.278     | 16.378     |   2.5 |  1.68
Other   |            | 4.302      |            |       |  0.44

Nlocal:    9826 ave 9827 max 9825 min
Histogram: 1 0 0 0 0 0 0 0 0 1
Nghost:    9020 ave 9031 max 9009 min
Histogram: 1 0 0 0 0 0 0 0 0 1
Neighs:    311123 ave 313844 max 308402 min
Histogram: 1 0 0 0 0 0 0 0 0 1

Total # of neighbors = 622246
Ave neighs/atom = 31.6632
Neighbor list builds = 19505
Dangerous builds not checked
Setting up Verlet run ...
  Unit style    : metal
  Current step  : 560000
  Time step     : 0.001
Per MPI rank memory allocation (min/avg/max) = 11.37 | 11.37 | 11.37 Mbytes
Step Temp Press TotEng PotEng Enthalpy 
  560000    1152.0449    482.77122   -80176.258   -83102.558    -79939.25 
  560495    1113.3407    494.41898   -80367.203    -83195.19   -80124.833 
Loop time of 24.8753 on 2 procs for 495 steps with 19652 atoms

[...]
Nghost:    9166.5 ave 9169 max 9164 min
Histogram: 1 0 0 0 0 0 0 0 0 1
Neighs:    319362 ave 321594 max 317130 min
Histogram: 1 0 0 0 0 0 0 0 0 1

Total # of neighbors = 638724
Ave neighs/atom = 32.5017
Neighbor list builds = 19505
Dangerous builds not checked
Setting up Verlet run ...
  Unit style    : metal
  Current step  : 840000
  Time step     : 0.001
Per MPI rank memory allocation (min/avg/max) = 11.37 | 11.37 | 11.37 Mbytes
Step Temp Press TotEng PotEng Enthalpy 
  840000    456.06318   -120.80347   -84073.485   -85231.927   -84130.907 
  840495    419.98596   -111.31852   -84241.835   -85308.637   -84294.662 
Loop time of 26.2207 on 2 procs for 495 steps with 19652 atoms

Performance: 1.631 ns/day, 14.714 hours/ns, 18.878 timesteps/s
99.3% CPU use with 2 MPI tasks x no OpenMP threads

MPI task timing breakdown:
Section |  min time  |  avg time  |  max time  |%varavg| %total
---------------------------------------------------------------
Pair    | 13.154     | 13.177     | 13.201     |   0.7 | 50.26
Neigh   | 10.346     | 10.883     | 11.419     |  16.3 | 41.50
Comm    | 0.99889    | 1.5824     | 2.1658     |  46.4 |  6.03
Output  | 8.2016e-05 | 0.00011599 | 0.00014997 |   0.0 |  0.00
Modify  | 0.44673    | 0.4651     | 0.48347    |   2.7 |  1.77
Other   |            | 0.1132     |            |       |  0.43

Nlocal:    9826 ave 9847 max 9805 min
Histogram: 1 0 0 0 0 0 0 0 0 1
Nghost:    9158.5 ave 9192 max 9125 min
Histogram: 1 0 0 0 0 0 0 0 0 1
Neighs:    319682 ave 321290 max 318075 min
Histogram: 1 0 0 0 0 0 0 0 0 1

Total # of neighbors = 639365
Ave neighs/atom = 32.5343
Neighbor list builds = 495
Dangerous builds not checked
Setting up Verlet run ...
  Unit style    : metal
  Current step  : 840495
  Time step     : 0.001
Per MPI rank memory allocation (min/avg/max) = 11.37 | 11.37 | 11.37 Mbytes
Step Temp Press TotEng PotEng Enthalpy 
  840495    419.98596   -111.31852   -84241.835   -85308.637   -84294.662 
  860000     402.5223    492.28026   -84419.081   -85441.524   -84186.356 
Loop time of 1010.82 on 2 procs for 19505 steps with 19652 atoms

Performance: 1.667 ns/day, 14.395 hours/ns, 19.296 timesteps/s
99.2% CPU use with 2 MPI tasks x no OpenMP threads

MPI task timing breakdown:
Section |  min time  |  avg time  |  max time  |%varavg| %total
---------------------------------------------------------------
Pair    | 502.57     | 503.21     | 503.84     |   2.8 | 49.78
Neigh   | 429.04     | 434.7      | 440.37     |  27.2 | 43.00
Comm    | 44.516     | 50.92      | 57.324     |  89.7 |  5.04
Output  | 0.15672    | 0.15674    | 0.15676    |   0.0 |  0.02
Modify  | 17.273     | 17.381     | 17.489     |   2.6 |  1.72
Other   |            | 4.454      |            |       |  0.44

Nlocal:    9826 ave 9827 max 9825 min
Histogram: 1 0 0 0 0 0 0 0 0 1
Nghost:    9182 ave 9184 max 9180 min
Histogram: 1 0 0 0 0 0 0 0 0 1
Neighs:    320572 ave 322916 max 318227 min
Histogram: 1 0 0 0 0 0 0 0 0 1

Total # of neighbors = 641143
Ave neighs/atom = 32.6248
Neighbor list builds = 19505
Dangerous builds not checked
Setting up Verlet run ...
  Unit style    : metal
  Current step  : 860000
  Time step     : 0.001
Per MPI rank memory allocation (min/avg/max) = 11.37 | 11.37 | 11.37 Mbytes
Step Temp Press TotEng PotEng Enthalpy 
  860000     402.5223    492.28026   -84419.081   -85441.524   -84186.356 
  860495    371.30994    390.36157   -84566.895   -85510.056   -84382.551 
Loop time of 24.2369 on 2 procs for 495 steps with 19652 atoms

Performance: 1.765 ns/day, 13.601 hours/ns, 20.423 timesteps/s
99.8% CPU use with 2 MPI tasks x no OpenMP threads

MPI task timing breakdown:
Section |  min time  |  avg time  |  max time  |%varavg| %total
---------------------------------------------------------------
Pair    | 11.732     | 11.791     | 11.85      |   1.7 | 48.65
Neigh   | 10.848     | 10.966     | 11.084     |   3.6 | 45.25
Comm    | 0.77371    | 0.95393    | 1.1341     |  18.5 |  3.94
Output  | 8.7976e-05 | 0.00012195 | 0.00015593 |   0.0 |  0.00
Modify  | 0.41057    | 0.41542    | 0.42026    |   0.8 |  1.71
Other   |            | 0.1107     |            |       |  0.46

Nlocal:    9826 ave 9842 max 9810 min
Histogram: 1 0 0 0 0 0 0 0 0 1
Nghost:    9163.5 ave 9172 max 9155 min
Histogram: 1 0 0 0 0 0 0 0 0 1
Neighs:    320913 ave 323956 max 317870 min
Histogram: 1 0 0 0 0 0 0 0 0 1

Total # of neighbors = 641826
Ave neighs/atom = 32.6596
Neighbor list builds = 495
Dangerous builds not checked
Setting up Verlet run ...
  Unit style    : metal
  Current step  : 860495
  Time step     : 0.001
Per MPI rank memory allocation (min/avg/max) = 11.37 | 11.37 | 11.37 Mbytes
Step Temp Press TotEng PotEng Enthalpy 
  860495    371.30994    390.36157   -84566.895   -85510.056   -84382.551 
  880000    348.47403   -207.92827   -84751.647   -85636.803   -84849.871 
Loop time of 989.079 on 2 procs for 19505 steps with 19652 atoms

Performance: 1.704 ns/day, 14.086 hours/ns, 19.720 timesteps/s
99.5% CPU use with 2 MPI tasks x no OpenMP threads

MPI task timing breakdown:
Section |  min time  |  avg time  |  max time  |%varavg| %total
---------------------------------------------------------------
Pair    | 484.91     | 491.01     | 497.11     |  27.5 | 49.64
Neigh   | 419.4      | 428.11     | 436.82     |  42.1 | 43.28
Comm    | 45.903     | 48.677     | 51.451     |  39.8 |  4.92
Output  | 0.0432     | 0.043218   | 0.043235   |   0.0 |  0.00
Modify  | 16.763     | 16.835     | 16.908     |   1.8 |  1.70
Other   |            | 4.408      |            |       |  0.45

Nlocal:    9826 ave 9836 max 9816 min
Histogram: 1 0 0 0 0 0 0 0 0 1
Nghost:    9169 ave 9170 max 9168 min
Histogram: 1 0 0 0 0 0 0 0 0 1
Neighs:    320408 ave 322456 max 318360 min
Histogram: 1 0 0 0 0 0 0 0 0 1

Total # of neighbors = 640816
Ave neighs/atom = 32.6082
Neighbor list builds = 19505
Dangerous builds not checked
Setting up Verlet run ...
  Unit style    : metal
  Current step  : 880000
  Time step     : 0.001
Per MPI rank memory allocation (min/avg/max) = 11.37 | 11.37 | 11.37 Mbytes
Step Temp Press TotEng PotEng Enthalpy 
  880000    348.47403   -207.92827   -84751.647   -85636.803   -84849.871 
  880495    321.79081   -111.93805   -84894.641   -85712.019   -84947.454 
Loop time of 23.6705 on 2 procs for 495 steps with 19652 atoms

Performance: 1.807 ns/day, 13.283 hours/ns, 20.912 timesteps/s
99.8% CPU use with 2 MPI tasks x no OpenMP threads

MPI task timing breakdown:
Section |  min time  |  avg time  |  max time  |%varavg| %total
---------------------------------------------------------------
Pair    | 11.496     | 11.559     | 11.622     |   1.8 | 48.83
Neigh   | 10.143     | 10.453     | 10.763     |   9.6 | 44.16
Comm    | 0.8827     | 1.1414     | 1.4001     |  24.2 |  4.82
Output  | 8.5115e-05 | 0.00012708 | 0.00016904 |   0.0 |  0.00
Modify  | 0.39382    | 0.40402    | 0.41422    |   1.6 |  1.71
Other   |            | 0.1132     |            |       |  0.48

Nlocal:    9826 ave 9843 max 9809 min
Histogram: 1 0 0 0 0 0 0 0 0 1
Nghost:    9177.5 ave 9196 max 9159 min
Histogram: 1 0 0 0 0 0 0 0 0 1
Neighs:    320646 ave 322648 max 318643 min
Histogram: 1 0 0 0 0 0 0 0 0 1

Total # of neighbors = 641291
Ave neighs/atom = 32.6324
Neighbor list builds = 495
Dangerous builds not checked
Setting up Verlet run ...
  Unit style    : metal
  Current step  : 880495
  Time step     : 0.001
Per MPI rank memory allocation (min/avg/max) = 11.37 | 11.37 | 11.37 Mbytes
Step Temp Press TotEng PotEng Enthalpy 
  880495    321.79081   -111.93805   -84894.641   -85712.019   -84947.454 
  900000    298.84663   -202.25679   -85094.767   -85853.865   -85190.035 
Loop time of 945.224 on 2 procs for 19505 steps with 19652 atoms

Performance: 1.783 ns/day, 13.461 hours/ns, 20.635 timesteps/s
99.3% CPU use with 2 MPI tasks x no OpenMP threads

MPI task timing breakdown:
Section |  min time  |  avg time  |  max time  |%varavg| %total
---------------------------------------------------------------
Pair    | 452.84     | 458.5      | 464.15     |  26.4 | 48.51
Neigh   | 413.48     | 418.32     | 423.17     |  23.7 | 44.26
Comm    | 46.582     | 47.385     | 48.189     |  11.7 |  5.01
Output  | 0.15387    | 0.15388    | 0.15389    |   0.0 |  0.02
Modify  | 16.527     | 16.555     | 16.583     |   0.7 |  1.75
Other   |            | 4.313      |            |       |  0.46

Nlocal:    9826 ave 9832 max 9820 min
Histogram: 1 0 0 0 0 0 0 0 0 1
Nghost:    9180 ave 9200 max 9160 min
Histogram: 1 0 0 0 0 0 0 0 0 1
Neighs:    320996 ave 323248 max 318743 min
Histogram: 1 0 0 0 0 0 0 0 0 1

Total # of neighbors = 641991
Ave neighs/atom = 32.668
Neighbor list builds = 19505
Dangerous builds not checked
Setting up Verlet run ...
  Unit style    : metal
  Current step  : 900000
  Time step     : 0.001
Per MPI rank memory allocation (min/avg/max) = 11.37 | 11.37 | 11.37 Mbytes
Step Temp Press TotEng PotEng Enthalpy 
  900000    298.84663   -202.25679   -85094.767   -85853.865   -85190.035 
  900495    274.45048    110.21754   -85222.209   -85919.338   -85170.413 
Loop time of 23.1983 on 2 procs for 495 steps with 19652 atoms

Performance: 1.844 ns/day, 13.018 hours/ns, 21.338 timesteps/s
96.6% CPU use with 2 MPI tasks x no OpenMP threads

MPI task timing breakdown:
Section |  min time  |  avg time  |  max time  |%varavg| %total
---------------------------------------------------------------
Pair    | 11.295     | 11.456     | 11.617     |   4.8 | 49.38
Neigh   | 9.5594     | 9.8702     | 10.181     |   9.9 | 42.55
Comm    | 0.88743    | 1.3699     | 1.8523     |  41.2 |  5.91
Output  | 8.6069e-05 | 0.000108   | 0.00012994 |   0.0 |  0.00
Modify  | 0.38957    | 0.40145    | 0.41333    |   1.9 |  1.73
Other   |            | 0.1006     |            |       |  0.43

Nlocal:    9826 ave 9834 max 9818 min
Histogram: 1 0 0 0 0 0 0 0 0 1
Nghost:    9177.5 ave 9181 max 9174 min
Histogram: 1 0 0 0 0 0 0 0 0 1
Neighs:    321566 ave 324433 max 318699 min
Histogram: 1 0 0 0 0 0 0 0 0 1

Total # of neighbors = 643132
Ave neighs/atom = 32.726
Neighbor list builds = 495
Dangerous builds not checked
Setting up Verlet run ...
  Unit style    : metal
  Current step  : 900495
  Time step     : 0.001
Per MPI rank memory allocation (min/avg/max) = 11.37 | 11.37 | 11.37 Mbytes
Step Temp Press TotEng PotEng Enthalpy 
  900495    274.45048    110.21754   -85222.209   -85919.338   -85170.413 
  920000    249.78486    172.45861   -85413.223   -86047.699   -85332.349 
Loop time of 950.866 on 2 procs for 19505 steps with 19652 atoms

Performance: 1.772 ns/day, 13.542 hours/ns, 20.513 timesteps/s
98.0% CPU use with 2 MPI tasks x no OpenMP threads

MPI task timing breakdown:
Section |  min time  |  avg time  |  max time  |%varavg| %total
---------------------------------------------------------------
Pair    | 455.08     | 458.35     | 461.62     |  15.3 | 48.20
Neigh   | 403.06     | 412.2      | 421.35     |  45.0 | 43.35
Comm    | 52.599     | 58.592     | 64.585     |  78.3 |  6.16
Output  | 0.20884    | 0.20886    | 0.20888    |   0.0 |  0.02
Modify  | 17.217     | 17.35      | 17.483     |   3.2 |  1.82
Other   |            | 4.161      |            |       |  0.44

Nlocal:    9826 ave 9828 max 9824 min
Histogram: 1 0 0 0 0 0 0 0 0 1
Nghost:    9183.5 ave 9185 max 9182 min
Histogram: 1 0 0 0 0 0 0 0 0 1
Neighs:    321933 ave 324346 max 319520 min
Histogram: 1 0 0 0 0 0 0 0 0 1

Total # of neighbors = 643866
Ave neighs/atom = 32.7634
Neighbor list builds = 19505
Dangerous builds not checked
Setting up Verlet run ...
  Unit style    : metal
  Current step  : 920000
  Time step     : 0.001
Per MPI rank memory allocation (min/avg/max) = 11.37 | 11.37 | 11.37 Mbytes
Step Temp Press TotEng PotEng Enthalpy 
  920000    249.78486    172.45861   -85413.223   -86047.699   -85332.349 
  920495    222.80881    -165.5576   -85535.671   -86101.626   -85613.322 
Loop time of 26.3014 on 2 procs for 495 steps with 19652 atoms

Performance: 1.626 ns/day, 14.759 hours/ns, 18.820 timesteps/s
97.5% CPU use with 2 MPI tasks x no OpenMP threads

MPI task timing breakdown:
Section |  min time  |  avg time  |  max time  |%varavg| %total
---------------------------------------------------------------
Pair    | 13.013     | 13.082     | 13.15      |   1.9 | 49.74
Neigh   | 10.774     | 11.237     | 11.7       |  13.8 | 42.72
Comm    | 0.83455    | 1.3892     | 1.9438     |  47.1 |  5.28
Output  | 5.3167e-05 | 7.4148e-05 | 9.5129e-05 |   0.0 |  0.00
Modify  | 0.45616    | 0.47879    | 0.50142    |   3.3 |  1.82
Other   |            | 0.115      |            |       |  0.44

Nlocal:    9826 ave 9837 max 9815 min
Histogram: 1 0 0 0 0 0 0 0 0 1
Nghost:    9205 ave 9210 max 9200 min
Histogram: 1 0 0 0 0 0 0 0 0 1
Neighs:    322058 ave 324202 max 319913 min
Histogram: 1 0 0 0 0 0 0 0 0 1

Total # of neighbors = 644115
Ave neighs/atom = 32.7761
Neighbor list builds = 495
Dangerous builds not checked
Setting up Verlet run ...
  Unit style    : metal
  Current step  : 920495
  Time step     : 0.001
Per MPI rank memory allocation (min/avg/max) = 11.37 | 11.37 | 11.37 Mbytes
Step Temp Press TotEng PotEng Enthalpy 
  920495    222.80881    -165.5576   -85535.671   -86101.626   -85613.322 
  940000    199.48945   -8.1210704   -85705.586   -86212.307   -85709.386 
Loop time of 985.277 on 2 procs for 19505 steps with 19652 atoms

Performance: 1.710 ns/day, 14.032 hours/ns, 19.796 timesteps/s
99.2% CPU use with 2 MPI tasks x no OpenMP threads

MPI task timing breakdown:
Section |  min time  |  avg time  |  max time  |%varavg| %total
---------------------------------------------------------------
Pair    | 483.6      | 485.73     | 487.87     |   9.7 | 49.30
Neigh   | 426.17     | 430.37     | 434.57     |  20.2 | 43.68
Comm    | 45.237     | 47.319     | 49.401     |  30.3 |  4.80
Output  | 0.056375   | 0.056399   | 0.056423   |   0.0 |  0.01
Modify  | 17.251     | 17.267     | 17.282     |   0.4 |  1.75
Other   |            | 4.53       |            |       |  0.46

Nlocal:    9826 ave 9829 max 9823 min
Histogram: 1 0 0 0 0 0 0 0 0 1
Nghost:    9199.5 ave 9202 max 9197 min
Histogram: 1 0 0 0 0 0 0 0 0 1
Neighs:    322509 ave 324916 max 320102 min
Histogram: 1 0 0 0 0 0 0 0 0 1

Total # of neighbors = 645018
Ave neighs/atom = 32.822
Neighbor list builds = 19505
Dangerous builds not checked
Setting up Verlet run ...
  Unit style    : metal
  Current step  : 940000
  Time step     : 0.001
Per MPI rank memory allocation (min/avg/max) = 11.37 | 11.37 | 11.37 Mbytes
Step Temp Press TotEng PotEng Enthalpy 
  940000    199.48945   -8.1210704   -85705.586   -86212.307   -85709.386 
  940495     176.6319   -12.652565   -85828.987   -86277.648   -85834.901 
Loop time of 28.011 on 2 procs for 495 steps with 19652 atoms

Performance: 1.527 ns/day, 15.719 hours/ns, 17.672 timesteps/s
94.1% CPU use with 2 MPI tasks x no OpenMP threads

MPI task timing breakdown:
Section |  min time  |  avg time  |  max time  |%varavg| %total
---------------------------------------------------------------
Pair    | 13.542     | 13.969     | 14.396     |  11.4 | 49.87
Neigh   | 10.611     | 11.508     | 12.405     |  26.4 | 41.08
Comm    | 1.3561     | 1.8694     | 2.3827     |  37.5 |  6.67
Output  | 9.5844e-05 | 0.00013196 | 0.00016809 |   0.0 |  0.00
Modify  | 0.50928    | 0.54312    | 0.57695    |   4.6 |  1.94
Other   |            | 0.1217     |            |       |  0.43

Nlocal:    9826 ave 9827 max 9825 min
Histogram: 1 0 0 0 0 0 0 0 0 1
Nghost:    9205 ave 9207 max 9203 min
Histogram: 1 0 0 0 0 0 0 0 0 1
Neighs:    322705 ave 325318 max 320092 min
Histogram: 1 0 0 0 0 0 0 0 0 1

Total # of neighbors = 645410
Ave neighs/atom = 32.8419
Neighbor list builds = 495
Dangerous builds not checked
Setting up Verlet run ...
  Unit style    : metal
  Current step  : 940495
  Time step     : 0.001
Per MPI rank memory allocation (min/avg/max) = 11.37 | 11.37 | 11.37 Mbytes
Step Temp Press TotEng PotEng Enthalpy 
  940495     176.6319   -12.652565   -85828.987   -86277.648   -85834.901 
  960000    149.95982     212.6322   -85993.166   -86374.078   -85893.985 
Loop time of 932.395 on 2 procs for 19505 steps with 19652 atoms

Performance: 1.807 ns/day, 13.279 hours/ns, 20.919 timesteps/s
99.4% CPU use with 2 MPI tasks x no OpenMP threads

MPI task timing breakdown:
Section |  min time  |  avg time  |  max time  |%varavg| %total
---------------------------------------------------------------
Pair    | 444.03     | 451.95     | 459.88     |  37.3 | 48.47
Neigh   | 382.03     | 400.46     | 418.88     |  92.1 | 42.95
Comm    | 32.355     | 59.666     | 86.977     | 353.6 |  6.40
Output  | 0.057511   | 0.057533   | 0.057554   |   0.0 |  0.01
Modify  | 15.532     | 16.083     | 16.634     |  13.7 |  1.72
Other   |            | 4.179      |            |       |  0.45

Nlocal:    9826 ave 9840 max 9812 min
Histogram: 1 0 0 0 0 0 0 0 0 1
Nghost:    9216.5 ave 9222 max 9211 min
Histogram: 1 0 0 0 0 0 0 0 0 1
Neighs:    323432 ave 325525 max 321340 min
Histogram: 1 0 0 0 0 0 0 0 0 1

Total # of neighbors = 646865
Ave neighs/atom = 32.916
Neighbor list builds = 19505
Dangerous builds not checked
Setting up Verlet run ...
  Unit style    : metal
  Current step  : 960000
  Time step     : 0.001
Per MPI rank memory allocation (min/avg/max) = 11.37 | 11.37 | 11.37 Mbytes
Step Temp Press TotEng PotEng Enthalpy 
  960000    149.95982     212.6322   -85993.166   -86374.078   -85893.985 
  960495    127.59285   -110.92254   -86107.372   -86431.469   -86159.116 
Loop time of 21.8374 on 2 procs for 495 steps with 19652 atoms

Performance: 1.958 ns/day, 12.254 hours/ns, 22.668 timesteps/s
99.6% CPU use with 2 MPI tasks x no OpenMP threads

MPI task timing breakdown:
Section |  min time  |  avg time  |  max time  |%varavg| %total
---------------------------------------------------------------
Pair    | 10.325     | 10.363     | 10.401     |   1.2 | 47.46
Neigh   | 9.4296     | 9.8377     | 10.246     |  13.0 | 45.05
Comm    | 0.68553    | 1.1506     | 1.6156     |  43.4 |  5.27
Output  | 8.7976e-05 | 0.00012147 | 0.00015497 |   0.0 |  0.00
Modify  | 0.37219    | 0.38173    | 0.39126    |   1.5 |  1.75
Other   |            | 0.1041     |            |       |  0.48

Nlocal:    9826 ave 9831 max 9821 min
Histogram: 1 0 0 0 0 0 0 0 0 1
Nghost:    9200 ave 9210 max 9190 min
Histogram: 1 0 0 0 0 0 0 0 0 1
Neighs:    323243 ave 325398 max 321088 min
Histogram: 1 0 0 0 0 0 0 0 0 1

Total # of neighbors = 646486
Ave neighs/atom = 32.8967
Neighbor list builds = 495
Dangerous builds not checked
Setting up Verlet run ...
  Unit style    : metal
  Current step  : 960495
  Time step     : 0.001
Per MPI rank memory allocation (min/avg/max) = 11.37 | 11.37 | 11.37 Mbytes
Step Temp Press TotEng PotEng Enthalpy 
  960495    127.59285   -110.92254   -86107.372   -86431.469   -86159.116 
  980000    99.080877   -199.67726   -86270.553   -86522.227   -86363.599 
Loop time of 930.15 on 2 procs for 19505 steps with 19652 atoms

Performance: 1.812 ns/day, 13.247 hours/ns, 20.970 timesteps/s
97.1% CPU use with 2 MPI tasks x no OpenMP threads

MPI task timing breakdown:
Section |  min time  |  avg time  |  max time  |%varavg| %total
---------------------------------------------------------------
Pair    | 445.85     | 450.09     | 454.33     |  20.0 | 48.39
Neigh   | 397.18     | 404.76     | 412.34     |  37.7 | 43.52
Comm    | 50.9       | 54.679     | 58.458     |  51.1 |  5.88
Output  | 0.098466   | 0.098485   | 0.098505   |   0.0 |  0.01
Modify  | 16.116     | 16.35      | 16.584     |   5.8 |  1.76
Other   |            | 4.177      |            |       |  0.45

Nlocal:    9826 ave 9830 max 9822 min
Histogram: 1 0 0 0 0 0 0 0 0 1
Nghost:    9214.5 ave 9220 max 9209 min
Histogram: 1 0 0 0 0 0 0 0 0 1
Neighs:    323772 ave 326133 max 321410 min
Histogram: 1 0 0 0 0 0 0 0 0 1

Total # of neighbors = 647543
Ave neighs/atom = 32.9505
Neighbor list builds = 19505
Dangerous builds not checked
Total wall time: 14:06:24
