LAMMPS (12 Dec 2018)
Lattice spacing in x,y,z = 4 4 4
Created orthogonal box = (0 0 0) to (68 68 68)
  1 by 1 by 2 MPI processor grid
Created 19652 atoms
  Time spent = 0.00202918 secs
Setting atom values ...
  19480 settings made for type/fraction
Neighbor list info ...
  update every 1 steps, delay 0 steps, check no
  max neighbors/atom: 2000, page size: 100000
  master list distance cutoff = 8.5
  ghost atom cutoff = 8.5
  binsize = 4.25, bins = 16 16 16
  1 neighbor lists, perpetual/occasional/extra = 1 0 0
  (1) pair eam/alloy, perpetual
      attributes: half, newton on
      pair build: half/bin/atomonly/newton
      stencil: half/bin/3d/newton
      bin: standard
Setting up Verlet run ...
  Unit style    : metal
  Current step  : 0
  Time step     : 0.001
Per MPI rank memory allocation (min/avg/max) = 11.15 | 11.15 | 11.15 Mbytes
Step Temp Press TotEng PotEng Enthalpy 
       0          300    15950.205   -65977.094   -66739.122   -62846.818 
    1000    153.16334    22671.584   -65976.911    -66365.96   -61527.544 
Loop time of 102.59 on 2 procs for 1000 steps with 19652 atoms

Performance: 0.842 ns/day, 28.497 hours/ns, 9.748 timesteps/s
98.7% CPU use with 2 MPI tasks x no OpenMP threads

MPI task timing breakdown:
Section |  min time  |  avg time  |  max time  |%varavg| %total
---------------------------------------------------------------
Pair    | 59.078     | 60.228     | 61.379     |  14.8 | 58.71
Neigh   | 37.066     | 37.474     | 37.881     |   6.7 | 36.53
Comm    | 2.7588     | 4.3419     | 5.9251     |  76.0 |  4.23
Output  | 0.00014901 | 0.00023353 | 0.00031805 |   0.0 |  0.00
Modify  | 0.25863    | 0.27469    | 0.29074    |   3.1 |  0.27
Other   |            | 0.2712     |            |       |  0.26

Nlocal:    9826 ave 9828 max 9824 min
Histogram: 1 0 0 0 0 0 0 0 0 1
Nghost:    14211 ave 14213 max 14209 min
Histogram: 1 0 0 0 0 0 0 0 0 1
Neighs:    786557 ave 786560 max 786554 min
Histogram: 1 0 0 0 0 0 0 0 0 1

Total # of neighbors = 1573114
Ave neighs/atom = 80.0485
Neighbor list builds = 1000
Dangerous builds not checked
Setting up Verlet run ...
  Unit style    : metal
  Current step  : 1000
  Time step     : 0.001
Per MPI rank memory allocation (min/avg/max) = 11.15 | 11.15 | 11.15 Mbytes
Step Temp Press TotEng PotEng Enthalpy 
    1000    153.16334    22671.584   -65976.911    -66365.96   -61527.544 
    2000    298.31554    57.582089   -65220.725   -65978.474   -65208.958 
Loop time of 101.455 on 2 procs for 1000 steps with 19652 atoms

Performance: 0.852 ns/day, 28.182 hours/ns, 9.857 timesteps/s
99.0% CPU use with 2 MPI tasks x no OpenMP threads

MPI task timing breakdown:
Section |  min time  |  avg time  |  max time  |%varavg| %total
---------------------------------------------------------------
Pair    | 58.237     | 58.474     | 58.712     |   3.1 | 57.64
Neigh   | 36.412     | 36.884     | 37.357     |   7.8 | 36.36
Comm    | 4.5929     | 4.8438     | 5.0947     |  11.4 |  4.77
Output  | 8.8215e-05 | 0.00013208 | 0.00017595 |   0.0 |  0.00
Modify  | 0.97206    | 0.97236    | 0.97266    |   0.0 |  0.96
Other   |            | 0.2801     |            |       |  0.28

Nlocal:    9826 ave 9835 max 9817 min
Histogram: 1 0 0 0 0 0 0 0 0 1
Nghost:    14210 ave 14218 max 14202 min
Histogram: 1 0 0 0 0 0 0 0 0 1
Neighs:    729336 ave 730152 max 728521 min
Histogram: 1 0 0 0 0 0 0 0 0 1

Total # of neighbors = 1458673
Ave neighs/atom = 74.2252
Neighbor list builds = 1000
Dangerous builds not checked
Setting up Verlet run ...
  Unit style    : metal
  Current step  : 2000
  Time step     : 0.001
Per MPI rank memory allocation (min/avg/max) = 11.15 | 11.15 | 11.15 Mbytes
Step Temp Press TotEng PotEng Enthalpy 
    2000    298.31554    57.582089   -65220.725   -65978.474   -65208.958 
   10000    2448.6683    193.94836   -50955.312   -57175.153   -50901.121 
Loop time of 810.601 on 2 procs for 8000 steps with 19652 atoms

Performance: 0.853 ns/day, 28.146 hours/ns, 9.869 timesteps/s
96.9% CPU use with 2 MPI tasks x no OpenMP threads

MPI task timing breakdown:
Section |  min time  |  avg time  |  max time  |%varavg| %total
---------------------------------------------------------------
Pair    | 444.73     | 453.11     | 461.49     |  39.4 | 55.90
Neigh   | 300.38     | 304.58     | 308.78     |  24.1 | 37.57
Comm    | 30.182     | 42.9       | 55.619     | 194.2 |  5.29
Output  | 0.0001061  | 0.00014508 | 0.00018406 |   0.0 |  0.00
Modify  | 7.8121     | 7.8711     | 7.93       |   2.1 |  0.97
Other   |            | 2.139      |            |       |  0.26

Nlocal:    9826 ave 9832 max 9820 min
Histogram: 1 0 0 0 0 0 0 0 0 1
Nghost:    11415 ave 11429 max 11401 min
Histogram: 1 0 0 0 0 0 0 0 0 1
Neighs:    551145 ave 555698 max 546592 min
Histogram: 1 0 0 0 0 0 0 0 0 1

Total # of neighbors = 1102290
Ave neighs/atom = 56.0905
Neighbor list builds = 8000
Dangerous builds not checked
Setting up Verlet run ...
  Unit style    : metal
  Current step  : 10000
  Time step     : 0.001
Per MPI rank memory allocation (min/avg/max) = 11.15 | 11.15 | 11.15 Mbytes
Step Temp Press TotEng PotEng Enthalpy 
   10000    2448.6683    193.94836   -50955.312   -57175.153   -50901.121 
   40000    2416.2526    641.63841   -51072.808    -57210.31   -50893.869 
Loop time of 3071.52 on 2 procs for 30000 steps with 19652 atoms

Performance: 0.844 ns/day, 28.440 hours/ns, 9.767 timesteps/s
97.2% CPU use with 2 MPI tasks x no OpenMP threads

MPI task timing breakdown:
Section |  min time  |  avg time  |  max time  |%varavg| %total
---------------------------------------------------------------
Pair    | 1728.8     | 1745.6     | 1762.3     |  40.1 | 56.83
Neigh   | 1118       | 1122.3     | 1126.6     |  12.8 | 36.54
Comm    | 141.6      | 162.66     | 183.73     | 165.2 |  5.30
Output  | 8.7976e-05 | 0.00013351 | 0.00017905 |   0.0 |  0.00
Modify  | 32.634     | 32.706     | 32.778     |   1.3 |  1.06
Other   |            | 8.31       |            |       |  0.27

Nlocal:    9826 ave 9854 max 9798 min
Histogram: 1 0 0 0 0 0 0 0 0 1
Nghost:    11297 ave 11299 max 11295 min
Histogram: 1 0 0 0 0 0 0 0 0 1
Neighs:    551998 ave 555030 max 548966 min
Histogram: 1 0 0 0 0 0 0 0 0 1

Total # of neighbors = 1103996
Ave neighs/atom = 56.1773
Neighbor list builds = 30000
Dangerous builds not checked
Setting up Verlet run ...
  Unit style    : metal
  Current step  : 40000
  Time step     : 0.001
Per MPI rank memory allocation (min/avg/max) = 11.16 | 11.16 | 11.16 Mbytes
Step Temp Press TotEng PotEng Enthalpy 
   40000    2416.2526    641.63841   -51072.808    -57210.31   -50893.869 
   40495    2408.5772    -1058.461   -51085.252   -57203.257   -51381.637 
Loop time of 44.69 on 2 procs for 495 steps with 19652 atoms

Performance: 0.957 ns/day, 25.079 hours/ns, 11.076 timesteps/s
99.8% CPU use with 2 MPI tasks x no OpenMP threads

MPI task timing breakdown:
Section |  min time  |  avg time  |  max time  |%varavg| %total
---------------------------------------------------------------
Pair    | 24.72      | 24.866     | 25.011     |   2.9 | 55.64
Neigh   | 17.063     | 17.271     | 17.478     |   5.0 | 38.65
Comm    | 1.8964     | 1.9605     | 2.0246     |   4.6 |  4.39
Output  | 0.00012803 | 0.00017655 | 0.00022507 |   0.0 |  0.00
Modify  | 0.46201    | 0.46271    | 0.46342    |   0.1 |  1.04
Other   |            | 0.1305     |            |       |  0.29

Nlocal:    9826 ave 9834 max 9818 min
Histogram: 1 0 0 0 0 0 0 0 0 1
Nghost:    11303 ave 11357 max 11249 min
Histogram: 1 0 0 0 0 0 0 0 0 1
Neighs:    549715 ave 551759 max 547671 min
Histogram: 1 0 0 0 0 0 0 0 0 1

Total # of neighbors = 1099430
Ave neighs/atom = 55.9449
Neighbor list builds = 495
Dangerous builds not checked
Setting up Verlet run ...
  Unit style    : metal
  Current step  : 40495
  Time step     : 0.001
Per MPI rank memory allocation (min/avg/max) = 11.16 | 11.16 | 11.16 Mbytes
Step Temp Press TotEng PotEng Enthalpy 
   40495    2408.5772    -1058.461   -51085.252   -57203.257   -51381.637 
   50000    2405.2205    1351.0329   -51194.221     -57303.7   -50819.094 
   90000    2393.9717   -544.99991   -51161.645   -57242.551    -51313.73 
Loop time of 5483.43 on 2 procs for 49505 steps with 19652 atoms

Performance: 0.780 ns/day, 30.768 hours/ns, 9.028 timesteps/s
98.2% CPU use with 2 MPI tasks x no OpenMP threads

MPI task timing breakdown:
Section |  min time  |  avg time  |  max time  |%varavg| %total
---------------------------------------------------------------
Pair    | 3093.3     | 3118.3     | 3143.3     |  44.8 | 56.87
Neigh   | 1984.3     | 2004.6     | 2024.8     |  45.2 | 36.56
Comm    | 244.67     | 290.47     | 336.27     | 268.7 |  5.30
Output  | 0.056823   | 0.056867   | 0.056911   |   0.0 |  0.00
Modify  | 53.821     | 54.06      | 54.3       |   3.3 |  0.99
Other   |            | 15.97      |            |       |  0.29

Nlocal:    9826 ave 9840 max 9812 min
Histogram: 1 0 0 0 0 0 0 0 0 1
Nghost:    11355 ave 11380 max 11330 min
Histogram: 1 0 0 0 0 0 0 0 0 1
Neighs:    551534 ave 554780 max 548288 min
Histogram: 1 0 0 0 0 0 0 0 0 1

Total # of neighbors = 1103068
Ave neighs/atom = 56.1301
Neighbor list builds = 49505
Dangerous builds not checked
Setting up Verlet run ...
  Unit style    : metal
  Current step  : 90000
  Time step     : 0.001
Per MPI rank memory allocation (min/avg/max) = 11.3 | 11.3 | 11.3 Mbytes
Step Temp Press TotEng PotEng Enthalpy 
   90000    2393.9717   -544.99991   -51161.645   -57242.551    -51313.73 
   90495    2344.6715    651.98301   -51428.199   -57383.879     -51247.7 
Loop time of 61.0868 on 2 procs for 495 steps with 19652 atoms

Performance: 0.700 ns/day, 34.280 hours/ns, 8.103 timesteps/s
98.0% CPU use with 2 MPI tasks x no OpenMP threads

MPI task timing breakdown:
Section |  min time  |  avg time  |  max time  |%varavg| %total
---------------------------------------------------------------
Pair    | 34.835     | 35.809     | 36.783     |  16.3 | 58.62
Neigh   | 19.326     | 20.652     | 21.978     |  29.2 | 33.81
Comm    | 1.4052     | 3.7481     | 6.091      | 121.0 |  6.14
Output  | 0.00013399 | 0.00015497 | 0.00017595 |   0.0 |  0.00
Modify  | 0.64833    | 0.66262    | 0.6769     |   1.8 |  1.08
Other   |            | 0.2149     |            |       |  0.35

Nlocal:    9826 ave 9833 max 9819 min
Histogram: 1 0 0 0 0 0 0 0 0 1
Nghost:    11425 ave 11436 max 11414 min
Histogram: 1 0 0 0 0 0 0 0 0 1
Neighs:    556282 ave 560847 max 551716 min
Histogram: 1 0 0 0 0 0 0 0 0 1

Total # of neighbors = 1112563
Ave neighs/atom = 56.6132
Neighbor list builds = 495
Dangerous builds not checked
Setting up Verlet run ...
  Unit style    : metal
  Current step  : 90495
  Time step     : 0.001
Per MPI rank memory allocation (min/avg/max) = 11.3 | 11.3 | 11.3 Mbytes
Step Temp Press TotEng PotEng Enthalpy 
   90495    2344.6715    651.98301   -51428.199   -57383.879     -51247.7 
  100000    2348.3175    323.61333   -51492.781   -57457.721    -51403.32 
  140000    2349.5242   -976.59366   -51404.515   -57372.521   -51675.922 
Loop time of 6019.24 on 2 procs for 49505 steps with 19652 atoms

Performance: 0.711 ns/day, 33.775 hours/ns, 8.224 timesteps/s
98.6% CPU use with 2 MPI tasks x no OpenMP threads

MPI task timing breakdown:
Section |  min time  |  avg time  |  max time  |%varavg| %total
---------------------------------------------------------------
Pair    | 3462.3     | 3505       | 3547.7     |  72.1 | 58.23
Neigh   | 2065.9     | 2110.1     | 2154.4     |  96.3 | 35.06
Comm    | 237.84     | 325.5      | 413.16     | 485.9 |  5.41
Output  | 0.036519   | 0.036585   | 0.036651   |   0.0 |  0.00
Modify  | 59.097     | 59.512     | 59.927     |   5.4 |  0.99
Other   |            | 19.09      |            |       |  0.32

Nlocal:    9826 ave 9840 max 9812 min
Histogram: 1 0 0 0 0 0 0 0 0 1
Nghost:    11443.5 ave 11446 max 11441 min
Histogram: 1 0 0 0 0 0 0 0 0 1
Neighs:    554258 ave 562229 max 546288 min
Histogram: 1 0 0 0 0 0 0 0 0 1

Total # of neighbors = 1108517
Ave neighs/atom = 56.4073
Neighbor list builds = 49505
Dangerous builds not checked
Setting up Verlet run ...
  Unit style    : metal
  Current step  : 140000
  Time step     : 0.001
Per MPI rank memory allocation (min/avg/max) = 11.34 | 11.34 | 11.34 Mbytes
Step Temp Press TotEng PotEng Enthalpy 
  140000    2349.5242   -976.59366   -51404.515   -57372.521   -51675.922 
  140495    2309.8007    455.99651   -51676.204   -57543.309   -51550.666 
Loop time of 52.9957 on 2 procs for 495 steps with 19652 atoms

Performance: 0.807 ns/day, 29.739 hours/ns, 9.340 timesteps/s
99.5% CPU use with 2 MPI tasks x no OpenMP threads

MPI task timing breakdown:
Section |  min time  |  avg time  |  max time  |%varavg| %total
---------------------------------------------------------------
Pair    | 30.326     | 30.509     | 30.693     |   3.3 | 57.57
Neigh   | 17.204     | 18.444     | 19.684     |  28.9 | 34.80
Comm    | 1.8448     | 3.3076     | 4.7704     |  80.4 |  6.24
Output  | 8.4162e-05 | 0.00011563 | 0.0001471  |   0.0 |  0.00
Modify  | 0.5288     | 0.55786    | 0.58692    |   3.9 |  1.05
Other   |            | 0.1768     |            |       |  0.33

Nlocal:    9826 ave 9867 max 9785 min
Histogram: 1 0 0 0 0 0 0 0 0 1
Nghost:    11495 ave 11512 max 11478 min
Histogram: 1 0 0 0 0 0 0 0 0 1
Neighs:    559230 ave 568799 max 549661 min
Histogram: 1 0 0 0 0 0 0 0 0 1

Total # of neighbors = 1118460
Ave neighs/atom = 56.9133
Neighbor list builds = 495
Dangerous builds not checked
Setting up Verlet run ...
  Unit style    : metal
  Current step  : 140495
  Time step     : 0.001
Per MPI rank memory allocation (min/avg/max) = 11.34 | 11.34 | 11.34 Mbytes
Step Temp Press TotEng PotEng Enthalpy 
  140495    2309.8007    455.99651   -51676.204   -57543.309   -51550.666 
  150000    2320.9641    551.74984   -51698.817   -57594.277   -51547.185 
  190000    2298.9314   -65.444207   -51739.279   -57578.775   -51757.302 
Loop time of 5666.29 on 2 procs for 49505 steps with 19652 atoms

Performance: 0.755 ns/day, 31.794 hours/ns, 8.737 timesteps/s
99.0% CPU use with 2 MPI tasks x no OpenMP threads

MPI task timing breakdown:
Section |  min time  |  avg time  |  max time  |%varavg| %total
---------------------------------------------------------------
Pair    | 3251.9     | 3280.1     | 3308.3     |  49.2 | 57.89
Neigh   | 1972.1     | 1985.9     | 1999.7     |  31.0 | 35.05
Comm    | 286.32     | 328.17     | 370.03     | 231.0 |  5.79
Output  | 0.059822   | 0.059853   | 0.059884   |   0.0 |  0.00
Modify  | 54.007     | 54.119     | 54.231     |   1.5 |  0.96
Other   |            | 17.9       |            |       |  0.32

Nlocal:    9826 ave 9869 max 9783 min
Histogram: 1 0 0 0 0 0 0 0 0 1
Nghost:    11500 ave 11535 max 11465 min
Histogram: 1 0 0 0 0 0 0 0 0 1
Neighs:    559400 ave 560072 max 558728 min
Histogram: 1 0 0 0 0 0 0 0 0 1

Total # of neighbors = 1118800
Ave neighs/atom = 56.9306
Neighbor list builds = 49505
Dangerous builds not checked
Setting up Verlet run ...
  Unit style    : metal
  Current step  : 190000
  Time step     : 0.001
Per MPI rank memory allocation (min/avg/max) = 11.35 | 11.35 | 11.35 Mbytes
Step Temp Press TotEng PotEng Enthalpy 
  190000    2298.9314   -65.444207   -51739.279   -57578.775   -51757.302 
  190495    2257.3244    289.46425   -51951.068   -57684.877   -51871.777 
Loop time of 48.7978 on 2 procs for 495 steps with 19652 atoms

Performance: 0.876 ns/day, 27.384 hours/ns, 10.144 timesteps/s
99.6% CPU use with 2 MPI tasks x no OpenMP threads

MPI task timing breakdown:
Section |  min time  |  avg time  |  max time  |%varavg| %total
---------------------------------------------------------------
Pair    | 27.753     | 28.058     | 28.363     |   5.8 | 57.50
Neigh   | 16.33      | 16.553     | 16.775     |   5.5 | 33.92
Comm    | 3.4089     | 3.4885     | 3.5681     |   4.3 |  7.15
Output  | 0.00011301 | 0.00014448 | 0.00017595 |   0.0 |  0.00
Modify  | 0.51211    | 0.51418    | 0.51625    |   0.3 |  1.05
Other   |            | 0.1844     |            |       |  0.38

Nlocal:    9826 ave 9844 max 9808 min
Histogram: 1 0 0 0 0 0 0 0 0 1
Nghost:    11482 ave 11495 max 11469 min
Histogram: 1 0 0 0 0 0 0 0 0 1
Neighs:    562571 ave 565344 max 559798 min
Histogram: 1 0 0 0 0 0 0 0 0 1

Total # of neighbors = 1125142
Ave neighs/atom = 57.2533
Neighbor list builds = 495
Dangerous builds not checked
Setting up Verlet run ...
  Unit style    : metal
  Current step  : 190495
  Time step     : 0.001
Per MPI rank memory allocation (min/avg/max) = 11.35 | 11.35 | 11.35 Mbytes
Step Temp Press TotEng PotEng Enthalpy 
  190495    2257.3244    289.46425   -51951.068   -57684.877   -51871.777 
  200000    2233.3858   -48.770012   -52122.057    -57795.06   -52135.378 
  240000    2254.2119    101.95156   -51999.259   -57725.163   -51971.356 
Loop time of 7459.17 on 2 procs for 49505 steps with 19652 atoms

Performance: 0.573 ns/day, 41.854 hours/ns, 6.637 timesteps/s
82.9% CPU use with 2 MPI tasks x no OpenMP threads

MPI task timing breakdown:
Section |  min time  |  avg time  |  max time  |%varavg| %total
---------------------------------------------------------------
Pair    | 4270.6     | 4273.7     | 4276.7     |   4.7 | 57.29
Neigh   | 2342.5     | 2369       | 2395.5     |  54.4 | 31.76
Comm    | 690.82     | 715.02     | 739.23     |  90.5 |  9.59
Output  | 0.057462   | 0.0575     | 0.057538   |   0.0 |  0.00
Modify  | 81.379     | 81.729     | 82.08      |   3.9 |  1.10
Other   |            | 19.7       |            |       |  0.26

Nlocal:    9826 ave 9834 max 9818 min
Histogram: 1 0 0 0 0 0 0 0 0 1
Nghost:    11476.5 ave 11496 max 11457 min
Histogram: 1 0 0 0 0 0 0 0 0 1
Neighs:    562914 ave 567525 max 558304 min
Histogram: 1 0 0 0 0 0 0 0 0 1

Total # of neighbors = 1125829
Ave neighs/atom = 57.2883
Neighbor list builds = 49505
Dangerous builds not checked
Setting up Verlet run ...
  Unit style    : metal
  Current step  : 240000
  Time step     : 0.001
Per MPI rank memory allocation (min/avg/max) = 11.35 | 11.35 | 11.35 Mbytes
Step Temp Press TotEng PotEng Enthalpy 
  240000    2254.2119    101.95156   -51999.259   -57725.163   -51971.356 
  240495    2216.1206   -109.49474    -52185.75   -57814.898   -52215.605 
Loop time of 72.5921 on 2 procs for 495 steps with 19652 atoms

Performance: 0.589 ns/day, 40.736 hours/ns, 6.819 timesteps/s
79.0% CPU use with 2 MPI tasks x no OpenMP threads

MPI task timing breakdown:
Section |  min time  |  avg time  |  max time  |%varavg| %total
---------------------------------------------------------------
Pair    | 40.867     | 41.125     | 41.383     |   4.0 | 56.65
Neigh   | 22.853     | 23.476     | 24.098     |  12.8 | 32.34
Comm    | 6.6121     | 6.9904     | 7.3687     |  14.3 |  9.63
Output  | 9.7036e-05 | 0.00013554 | 0.00017405 |   0.0 |  0.00
Modify  | 0.80308    | 0.80796    | 0.81283    |   0.5 |  1.11
Other   |            | 0.1928     |            |       |  0.27

Nlocal:    9826 ave 9830 max 9822 min
Histogram: 1 0 0 0 0 0 0 0 0 1
Nghost:    11507 ave 11524 max 11490 min
Histogram: 1 0 0 0 0 0 0 0 0 1
Neighs:    564973 ave 570260 max 559686 min
Histogram: 1 0 0 0 0 0 0 0 0 1

Total # of neighbors = 1129946
Ave neighs/atom = 57.4978
Neighbor list builds = 495
Dangerous builds not checked
Setting up Verlet run ...
  Unit style    : metal
  Current step  : 240495
  Time step     : 0.001
Per MPI rank memory allocation (min/avg/max) = 11.35 | 11.35 | 11.35 Mbytes
Step Temp Press TotEng PotEng Enthalpy 
  240495    2216.1206   -109.49474    -52185.75   -57814.898   -52215.605 
  250000    2209.2257   -1207.1357   -52192.187   -57803.822   -52522.271 
  290000    2217.4959   -306.39001   -52195.344   -57827.985   -52278.927 
Loop time of 5302.7 on 2 procs for 49505 steps with 19652 atoms

Performance: 0.807 ns/day, 29.754 hours/ns, 9.336 timesteps/s
97.3% CPU use with 2 MPI tasks x no OpenMP threads

MPI task timing breakdown:
Section |  min time  |  avg time  |  max time  |%varavg| %total
---------------------------------------------------------------
Pair    | 3007.2     | 3024.9     | 3042.6     |  32.1 | 57.04
Neigh   | 1892.8     | 1896.5     | 1900.1     |   8.5 | 35.76
Comm    | 300.31     | 314.31     | 328.31     |  79.0 |  5.93
Output  | 0.073358   | 0.073421   | 0.073483   |   0.0 |  0.00
Modify  | 51.678     | 51.757     | 51.835     |   1.1 |  0.98
Other   |            | 15.2       |            |       |  0.29

Nlocal:    9826 ave 9838 max 9814 min
Histogram: 1 0 0 0 0 0 0 0 0 1
Nghost:    11486.5 ave 11494 max 11479 min
Histogram: 1 0 0 0 0 0 0 0 0 1
Neighs:    564861 ave 571368 max 558354 min
Histogram: 1 0 0 0 0 0 0 0 0 1

Total # of neighbors = 1129722
Ave neighs/atom = 57.4864
Neighbor list builds = 49505
Dangerous builds not checked
Setting up Verlet run ...
  Unit style    : metal
  Current step  : 290000
  Time step     : 0.001
Per MPI rank memory allocation (min/avg/max) = 11.35 | 11.35 | 11.35 Mbytes
Step Temp Press TotEng PotEng Enthalpy 
  290000    2217.4959   -306.39001   -52195.344   -57827.985   -52278.927 
  290495    2159.8169   -226.54582   -52443.196   -57929.328   -52504.695 
Loop time of 40.4541 on 2 procs for 495 steps with 19652 atoms

Performance: 1.057 ns/day, 22.702 hours/ns, 12.236 timesteps/s
99.8% CPU use with 2 MPI tasks x no OpenMP threads

MPI task timing breakdown:
Section |  min time  |  avg time  |  max time  |%varavg| %total
---------------------------------------------------------------
Pair    | 22.589     | 22.634     | 22.68      |   1.0 | 55.95
Neigh   | 13.355     | 14.743     | 16.13      |  36.1 | 36.44
Comm    | 1.1918     | 2.5583     | 3.9249     |  85.4 |  6.32
Output  | 9.4891e-05 | 0.00015092 | 0.00020695 |   0.0 |  0.00
Modify  | 0.3668     | 0.38728    | 0.40777    |   3.3 |  0.96
Other   |            | 0.1313     |            |       |  0.32

Nlocal:    9826 ave 9839 max 9813 min
Histogram: 1 0 0 0 0 0 0 0 0 1
Nghost:    11523 ave 11556 max 11490 min
Histogram: 1 0 0 0 0 0 0 0 0 1
Neighs:    567570 ave 573957 max 561183 min
Histogram: 1 0 0 0 0 0 0 0 0 1

Total # of neighbors = 1135140
Ave neighs/atom = 57.7621
Neighbor list builds = 495
Dangerous builds not checked
Setting up Verlet run ...
  Unit style    : metal
  Current step  : 290495
  Time step     : 0.001
Per MPI rank memory allocation (min/avg/max) = 11.35 | 11.35 | 11.35 Mbytes
Step Temp Press TotEng PotEng Enthalpy 
  290495    2159.8169   -226.54582   -52443.196   -57929.328   -52504.695 
  300000    2165.6142    275.78543   -52534.076   -58034.933   -52459.557 
  340000    2151.4185    607.26124   -52539.755   -58004.554   -52375.597 
Loop time of 3773.1 on 2 procs for 49505 steps with 19652 atoms

Performance: 1.134 ns/day, 21.171 hours/ns, 13.121 timesteps/s
99.7% CPU use with 2 MPI tasks x no OpenMP threads

MPI task timing breakdown:
Section |  min time  |  avg time  |  max time  |%varavg| %total
---------------------------------------------------------------
Pair    | 2068.7     | 2079.9     | 2091.1     |  24.6 | 55.12
Neigh   | 1445.3     | 1455.4     | 1465.6     |  26.6 | 38.57
Comm    | 189.56     | 190.78     | 191.99     |   8.8 |  5.06
Output  | 0.063115   | 0.063167   | 0.063219   |   0.0 |  0.00
Modify  | 35.197     | 35.287     | 35.377     |   1.5 |  0.94
Other   |            | 11.64      |            |       |  0.31

Nlocal:    9826 ave 9828 max 9824 min
Histogram: 1 0 0 0 0 0 0 0 0 1
Nghost:    11509.5 ave 11513 max 11506 min
Histogram: 1 0 0 0 0 0 0 0 0 1
Neighs:    569992 ave 576817 max 563167 min
Histogram: 1 0 0 0 0 0 0 0 0 1

Total # of neighbors = 1139984
Ave neighs/atom = 58.0085
Neighbor list builds = 49505
Dangerous builds not checked
Setting up Verlet run ...
  Unit style    : metal
  Current step  : 340000
  Time step     : 0.001
Per MPI rank memory allocation (min/avg/max) = 11.35 | 11.35 | 11.35 Mbytes
Step Temp Press TotEng PotEng Enthalpy 
  340000    2151.4185    607.26124   -52539.755   -58004.554   -52375.597 
  340495    2131.0431   -168.92393   -52757.271   -58170.314   -52802.739 
Loop time of 32.1156 on 2 procs for 495 steps with 19652 atoms

Performance: 1.332 ns/day, 18.022 hours/ns, 15.413 timesteps/s
99.8% CPU use with 2 MPI tasks x no OpenMP threads

MPI task timing breakdown:
Section |  min time  |  avg time  |  max time  |%varavg| %total
---------------------------------------------------------------
Pair    | 17         | 17.081     | 17.163     |   2.0 | 53.19
Neigh   | 12.738     | 13.155     | 13.572     |  11.5 | 40.96
Comm    | 1.103      | 1.4464     | 1.7897     |  28.6 |  4.50
Output  | 5.5075e-05 | 7.7605e-05 | 0.00010014 |   0.0 |  0.00
Modify  | 0.31294    | 0.31861    | 0.32428    |   1.0 |  0.99
Other   |            | 0.1138     |            |       |  0.35

Nlocal:    9826 ave 9842 max 9810 min
Histogram: 1 0 0 0 0 0 0 0 0 1
Nghost:    11539.5 ave 11541 max 11538 min
Histogram: 1 0 0 0 0 0 0 0 0 1
Neighs:    572722 ave 577873 max 567572 min
Histogram: 1 0 0 0 0 0 0 0 0 1

Total # of neighbors = 1145445
Ave neighs/atom = 58.2864
Neighbor list builds = 495
Dangerous builds not checked
Setting up Verlet run ...
  Unit style    : metal
  Current step  : 340495
  Time step     : 0.001
Per MPI rank memory allocation (min/avg/max) = 11.35 | 11.35 | 11.35 Mbytes
Step Temp Press TotEng PotEng Enthalpy 
  340495    2131.0431   -168.92393   -52757.271   -58170.314   -52802.739 
  350000    2116.3848    132.95031   -52829.994   -58205.804   -52794.261 
  390000    2114.5453   -36.413398   -52788.635   -58159.773   -52798.432 
Loop time of 3196.41 on 2 procs for 49505 steps with 19652 atoms

Performance: 1.338 ns/day, 17.935 hours/ns, 15.488 timesteps/s
99.9% CPU use with 2 MPI tasks x no OpenMP threads

MPI task timing breakdown:
Section |  min time  |  avg time  |  max time  |%varavg| %total
---------------------------------------------------------------
Pair    | 1710.5     | 1712       | 1713.5     |   3.6 | 53.56
Neigh   | 1314       | 1314.4     | 1314.7     |   1.0 | 41.12
Comm    | 128.11     | 129.25     | 130.38     |  10.0 |  4.04
Output  | 0.042192   | 0.042246   | 0.0423     |   0.0 |  0.00
Modify  | 30.534     | 30.58      | 30.627     |   0.8 |  0.96
Other   |            | 10.16      |            |       |  0.32

Nlocal:    9826 ave 9831 max 9821 min
Histogram: 1 0 0 0 0 0 0 0 0 1
Nghost:    11572.5 ave 11591 max 11554 min
Histogram: 1 0 0 0 0 0 0 0 0 1
Neighs:    573114 ave 578701 max 567527 min
Histogram: 1 0 0 0 0 0 0 0 0 1

Total # of neighbors = 1146228
Ave neighs/atom = 58.3263
Neighbor list builds = 49505
Dangerous builds not checked
Setting up Verlet run ...
  Unit style    : metal
  Current step  : 390000
  Time step     : 0.001
Per MPI rank memory allocation (min/avg/max) = 11.35 | 11.35 | 11.35 Mbytes
Step Temp Press TotEng PotEng Enthalpy 
  390000    2114.5453   -36.413398   -52788.635   -58159.773   -52798.432 
  390495    2063.6848   -416.26722   -53019.731   -58261.679   -53131.386 
Loop time of 30.4716 on 2 procs for 495 steps with 19652 atoms

Performance: 1.404 ns/day, 17.100 hours/ns, 16.245 timesteps/s
99.9% CPU use with 2 MPI tasks x no OpenMP threads

MPI task timing breakdown:
Section |  min time  |  avg time  |  max time  |%varavg| %total
---------------------------------------------------------------
Pair    | 15.913     | 16.032     | 16.151     |   3.0 | 52.61
Neigh   | 12.745     | 12.836     | 12.926     |   2.5 | 42.12
Comm    | 0.99276    | 1.2049     | 1.417      |  19.3 |  3.95
Output  | 6.1989e-05 | 0.00010502 | 0.00014806 |   0.0 |  0.00
Modify  | 0.30222    | 0.3041     | 0.30597    |   0.3 |  1.00
Other   |            | 0.09452    |            |       |  0.31

Nlocal:    9826 ave 9843 max 9809 min
Histogram: 1 0 0 0 0 0 0 0 0 1
Nghost:    11538 ave 11566 max 11510 min
Histogram: 1 0 0 0 0 0 0 0 0 1
Neighs:    574697 ave 578548 max 570846 min
Histogram: 1 0 0 0 0 0 0 0 0 1

Total # of neighbors = 1149394
Ave neighs/atom = 58.4874
Neighbor list builds = 495
Dangerous builds not checked
Setting up Verlet run ...
  Unit style    : metal
  Current step  : 390495
  Time step     : 0.001
Per MPI rank memory allocation (min/avg/max) = 11.35 | 11.35 | 11.35 Mbytes
Step Temp Press TotEng PotEng Enthalpy 
  390495    2063.6848   -416.26722   -53019.731   -58261.679   -53131.386 
  400000    2040.4713    306.58774   -53142.347    -58325.33   -53060.466 
  440000    2053.7943    492.00704   -53167.083   -58383.908   -53035.909 
Loop time of 2994.05 on 2 procs for 49505 steps with 19652 atoms

Performance: 1.429 ns/day, 16.800 hours/ns, 16.534 timesteps/s
98.3% CPU use with 2 MPI tasks x no OpenMP threads

MPI task timing breakdown:
Section |  min time  |  avg time  |  max time  |%varavg| %total
---------------------------------------------------------------
Pair    | 1561.6     | 1563.2     | 1564.8     |   4.0 | 52.21
Neigh   | 1243.8     | 1252.5     | 1261.2     |  24.6 | 41.83
Comm    | 125.81     | 133.75     | 141.68     |  68.6 |  4.47
Output  | 0.040028   | 0.04007    | 0.040112   |   0.0 |  0.00
Modify  | 33.923     | 34.676     | 35.43      |  12.8 |  1.16
Other   |            | 9.877      |            |       |  0.33

Nlocal:    9826 ave 9850 max 9802 min
Histogram: 1 0 0 0 0 0 0 0 0 1
Nghost:    11612.5 ave 11654 max 11571 min
Histogram: 1 0 0 0 0 0 0 0 0 1
Neighs:    578113 ave 586683 max 569543 min
Histogram: 1 0 0 0 0 0 0 0 0 1

Total # of neighbors = 1156226
Ave neighs/atom = 58.835
Neighbor list builds = 49505
Dangerous builds not checked
Setting up Verlet run ...
  Unit style    : metal
  Current step  : 440000
  Time step     : 0.001
Per MPI rank memory allocation (min/avg/max) = 11.35 | 11.35 | 11.35 Mbytes
Step Temp Press TotEng PotEng Enthalpy 
  440000    2053.7943    492.00704   -53167.083   -58383.908   -53035.909 
  440495    2015.5704    459.53769   -53259.678   -58379.411   -53137.098 
Loop time of 31.1214 on 2 procs for 495 steps with 19652 atoms

Performance: 1.374 ns/day, 17.464 hours/ns, 15.905 timesteps/s
99.8% CPU use with 2 MPI tasks x no OpenMP threads

MPI task timing breakdown:
Section |  min time  |  avg time  |  max time  |%varavg| %total
---------------------------------------------------------------
Pair    | 16.133     | 16.429     | 16.725     |   7.3 | 52.79
Neigh   | 12.222     | 12.656     | 13.089     |  12.2 | 40.67
Comm    | 0.88941    | 1.637      | 2.3846     |  58.4 |  5.26
Output  | 6.1989e-05 | 8.0466e-05 | 9.8944e-05 |   0.0 |  0.00
Modify  | 0.29639    | 0.30481    | 0.31322    |   1.5 |  0.98
Other   |            | 0.09515    |            |       |  0.31

Nlocal:    9826 ave 9833 max 9819 min
Histogram: 1 0 0 0 0 0 0 0 0 1
Nghost:    11600.5 ave 11657 max 11544 min
Histogram: 1 0 0 0 0 0 0 0 0 1
Neighs:    577875 ave 583672 max 572078 min
Histogram: 1 0 0 0 0 0 0 0 0 1

Total # of neighbors = 1155750
Ave neighs/atom = 58.8108
Neighbor list builds = 495
Dangerous builds not checked
Setting up Verlet run ...
  Unit style    : metal
  Current step  : 440495
  Time step     : 0.001
Per MPI rank memory allocation (min/avg/max) = 11.35 | 11.35 | 11.35 Mbytes
Step Temp Press TotEng PotEng Enthalpy 
  440495    2015.5704    459.53769   -53259.678   -58379.411   -53137.098 
  450000    2006.3489    394.95694   -53418.829   -58515.138       -53314 
  490000    2025.0515    286.29629   -53284.759   -58428.574   -53208.502 
Loop time of 3127.76 on 2 procs for 49505 steps with 19652 atoms

Performance: 1.368 ns/day, 17.550 hours/ns, 15.828 timesteps/s
98.6% CPU use with 2 MPI tasks x no OpenMP threads

MPI task timing breakdown:
Section |  min time  |  avg time  |  max time  |%varavg| %total
---------------------------------------------------------------
Pair    | 1660.3     | 1662       | 1663.7     |   4.1 | 53.14
Neigh   | 1279.4     | 1291.8     | 1304.2     |  34.5 | 41.30
Comm    | 119.33     | 133.78     | 148.23     | 124.9 |  4.28
Output  | 0.11483    | 0.11486    | 0.11489    |   0.0 |  0.00
Modify  | 30.33      | 30.676     | 31.023     |   6.3 |  0.98
Other   |            | 9.373      |            |       |  0.30

Nlocal:    9826 ave 9858 max 9794 min
Histogram: 1 0 0 0 0 0 0 0 0 1
Nghost:    11658 ave 11668 max 11648 min
Histogram: 1 0 0 0 0 0 0 0 0 1
Neighs:    578520 ave 586835 max 570206 min
Histogram: 1 0 0 0 0 0 0 0 0 1

Total # of neighbors = 1157041
Ave neighs/atom = 58.8765
Neighbor list builds = 49505
Dangerous builds not checked
Setting up Verlet run ...
  Unit style    : metal
  Current step  : 490000
  Time step     : 0.001
Per MPI rank memory allocation (min/avg/max) = 11.35 | 11.35 | 11.35 Mbytes
Step Temp Press TotEng PotEng Enthalpy 
  490000    2025.0515    286.29629   -53284.759   -58428.574   -53208.502 
  490495    1949.6349    957.80883   -53586.481   -58538.731   -53332.937 
Loop time of 26.1603 on 2 procs for 495 steps with 19652 atoms

Performance: 1.635 ns/day, 14.680 hours/ns, 18.922 timesteps/s
100.0% CPU use with 2 MPI tasks x no OpenMP threads

MPI task timing breakdown:
Section |  min time  |  avg time  |  max time  |%varavg| %total
---------------------------------------------------------------
Pair    | 13.588     | 13.591     | 13.594     |   0.1 | 51.95
Neigh   | 11.729     | 11.776     | 11.822     |   1.4 | 45.01
Comm    | 0.37648    | 0.42721    | 0.47793    |   7.8 |  1.63
Output  | 5.0068e-05 | 7.2002e-05 | 9.3937e-05 |   0.0 |  0.00
Modify  | 0.26888    | 0.26918    | 0.26947    |   0.1 |  1.03
Other   |            | 0.09672    |            |       |  0.37

Nlocal:    9826 ave 9843 max 9809 min
Histogram: 1 0 0 0 0 0 0 0 0 1
Nghost:    11579.5 ave 11603 max 11556 min
Histogram: 1 0 0 0 0 0 0 0 0 1
Neighs:    582567 ave 586407 max 578727 min
Histogram: 1 0 0 0 0 0 0 0 0 1

Total # of neighbors = 1165134
Ave neighs/atom = 59.2883
Neighbor list builds = 495
Dangerous builds not checked
Setting up Verlet run ...
  Unit style    : metal
  Current step  : 490495
  Time step     : 0.001
Per MPI rank memory allocation (min/avg/max) = 11.35 | 11.35 | 11.35 Mbytes
Step Temp Press TotEng PotEng Enthalpy 
  490495    1949.6349    957.80883   -53586.481   -58538.731   -53332.937 
  500000    1944.4468    -527.7162   -53649.564   -58588.635   -53789.411 
  540000    1950.9154    636.86285   -53634.213   -58589.716   -53465.881 
Loop time of 2981.66 on 2 procs for 49505 steps with 19652 atoms

Performance: 1.435 ns/day, 16.730 hours/ns, 16.603 timesteps/s
99.8% CPU use with 2 MPI tasks x no OpenMP threads

MPI task timing breakdown:
Section |  min time  |  avg time  |  max time  |%varavg| %total
---------------------------------------------------------------
Pair    | 1560.9     | 1566.2     | 1571.5     |  13.3 | 52.53
Neigh   | 1265.8     | 1272.7     | 1279.6     |  19.3 | 42.68
Comm    | 103.47     | 105.13     | 106.8      |  16.2 |  3.53
Output  | 0.045027   | 0.045072   | 0.045117   |   0.0 |  0.00
Modify  | 28.59      | 28.755     | 28.921     |   3.1 |  0.96
Other   |            | 8.815      |            |       |  0.30

Nlocal:    9826 ave 9833 max 9819 min
Histogram: 1 0 0 0 0 0 0 0 0 1
Nghost:    11680 ave 11688 max 11672 min
Histogram: 1 0 0 0 0 0 0 0 0 1
Neighs:    583471 ave 587482 max 579460 min
Histogram: 1 0 0 0 0 0 0 0 0 1

Total # of neighbors = 1166942
Ave neighs/atom = 59.3803
Neighbor list builds = 49505
Dangerous builds not checked
Setting up Verlet run ...
  Unit style    : metal
  Current step  : 540000
  Time step     : 0.001
Per MPI rank memory allocation (min/avg/max) = 11.35 | 11.35 | 11.35 Mbytes
Step Temp Press TotEng PotEng Enthalpy 
  540000    1950.9154    636.86285   -53634.213   -58589.716   -53465.881 
  540495    1917.8335    326.97291   -53837.937   -58709.409   -53751.803 
Loop time of 25.2817 on 2 procs for 495 steps with 19652 atoms

Performance: 1.692 ns/day, 14.187 hours/ns, 19.579 timesteps/s
100.0% CPU use with 2 MPI tasks x no OpenMP threads

MPI task timing breakdown:
Section |  min time  |  avg time  |  max time  |%varavg| %total
---------------------------------------------------------------
Pair    | 12.632     | 12.792     | 12.953     |   4.5 | 50.60
Neigh   | 11.544     | 11.561     | 11.577     |   0.5 | 45.73
Comm    | 0.41503    | 0.59796    | 0.78089    |  23.7 |  2.37
Output  | 8.297e-05  | 0.00010645 | 0.00012994 |   0.0 |  0.00
Modify  | 0.25203    | 0.25243    | 0.25284    |   0.1 |  1.00
Other   |            | 0.07796    |            |       |  0.31

Nlocal:    9826 ave 9844 max 9808 min
Histogram: 1 0 0 0 0 0 0 0 0 1
Nghost:    11699 ave 11719 max 11679 min
Histogram: 1 0 0 0 0 0 0 0 0 1
Neighs:    585301 ave 591972 max 578630 min
Histogram: 1 0 0 0 0 0 0 0 0 1

Total # of neighbors = 1170602
Ave neighs/atom = 59.5666
Neighbor list builds = 495
Dangerous builds not checked
Setting up Verlet run ...
  Unit style    : metal
  Current step  : 540495
  Time step     : 0.001
Per MPI rank memory allocation (min/avg/max) = 11.35 | 11.35 | 11.35 Mbytes
Step Temp Press TotEng PotEng Enthalpy 
  540495    1917.8335    326.97291   -53837.937   -58709.409   -53751.803 
  550000    1916.4297   -362.64598   -53809.323    -58677.23   -53905.039 
  590000    1895.6823   -231.68662   -53968.295   -58783.501   -54029.185 
Loop time of 2691.01 on 2 procs for 49505 steps with 19652 atoms

Performance: 1.589 ns/day, 15.100 hours/ns, 18.396 timesteps/s
99.9% CPU use with 2 MPI tasks x no OpenMP threads

MPI task timing breakdown:
Section |  min time  |  avg time  |  max time  |%varavg| %total
---------------------------------------------------------------
Pair    | 1378.7     | 1383.1     | 1387.5     |  11.7 | 51.40
Neigh   | 1207.8     | 1209.1     | 1210.3     |   3.6 | 44.93
Comm    | 59.225     | 64.819     | 70.413     |  69.5 |  2.41
Output  | 0.28364    | 0.28366    | 0.28369    |   0.0 |  0.01
Modify  | 25.826     | 25.847     | 25.868     |   0.4 |  0.96
Other   |            | 7.904      |            |       |  0.29

Nlocal:    9826 ave 9833 max 9819 min
Histogram: 1 0 0 0 0 0 0 0 0 1
Nghost:    11689.5 ave 11742 max 11637 min
Histogram: 1 0 0 0 0 0 0 0 0 1
Neighs:    586817 ave 592598 max 581036 min
Histogram: 1 0 0 0 0 0 0 0 0 1

Total # of neighbors = 1173634
Ave neighs/atom = 59.7208
Neighbor list builds = 49505
Dangerous builds not checked
Setting up Verlet run ...
  Unit style    : metal
  Current step  : 590000
  Time step     : 0.001
Per MPI rank memory allocation (min/avg/max) = 11.35 | 11.35 | 11.35 Mbytes
Step Temp Press TotEng PotEng Enthalpy 
  590000    1895.6823   -231.68662   -53968.295   -58783.501   -54029.185 
  590495    1872.4919   -417.60283   -54124.629   -58880.929   -54234.054 
Loop time of 27.4719 on 2 procs for 495 steps with 19652 atoms

Performance: 1.557 ns/day, 15.416 hours/ns, 18.018 timesteps/s
95.8% CPU use with 2 MPI tasks x no OpenMP threads

MPI task timing breakdown:
Section |  min time  |  avg time  |  max time  |%varavg| %total
---------------------------------------------------------------
Pair    | 14.098     | 14.148     | 14.198     |   1.3 | 51.50
Neigh   | 11.564     | 11.644     | 11.723     |   2.3 | 42.38
Comm    | 1.0806     | 1.1875     | 1.2945     |   9.8 |  4.32
Output  | 5.2929e-05 | 6.8903e-05 | 8.4877e-05 |   0.0 |  0.00
Modify  | 0.38465    | 0.40715    | 0.42965    |   3.5 |  1.48
Other   |            | 0.08566    |            |       |  0.31

Nlocal:    9826 ave 9829 max 9823 min
Histogram: 1 0 0 0 0 0 0 0 0 1
Nghost:    11710.5 ave 11718 max 11703 min
Histogram: 1 0 0 0 0 0 0 0 0 1
Neighs:    588411 ave 594755 max 582067 min
Histogram: 1 0 0 0 0 0 0 0 0 1

Total # of neighbors = 1176822
Ave neighs/atom = 59.8831
Neighbor list builds = 495
Dangerous builds not checked
Setting up Verlet run ...
  Unit style    : metal
  Current step  : 590495
  Time step     : 0.001
Per MPI rank memory allocation (min/avg/max) = 11.35 | 11.35 | 11.35 Mbytes
Step Temp Press TotEng PotEng Enthalpy 
  590495    1872.4919   -417.60283   -54124.629   -58880.929   -54234.054 
  600000    1864.0945   -433.41655   -54092.622   -58827.592   -54206.499 
  640000    1844.3722   -477.71145   -54186.237   -58871.111   -54311.427 
Loop time of 2885.37 on 2 procs for 49505 steps with 19652 atoms

Performance: 1.482 ns/day, 16.190 hours/ns, 17.157 timesteps/s
98.2% CPU use with 2 MPI tasks x no OpenMP threads

MPI task timing breakdown:
Section |  min time  |  avg time  |  max time  |%varavg| %total
---------------------------------------------------------------
Pair    | 1473.1     | 1475.5     | 1478       |   6.3 | 51.14
Neigh   | 1226.3     | 1239.9     | 1253.6     |  38.6 | 42.97
Comm    | 112.68     | 128.89     | 145.1      | 142.7 |  4.47
Output  | 3.3902     | 3.3903     | 3.3903     |   0.0 |  0.12
Modify  | 29.597     | 29.855     | 30.113     |   4.7 |  1.03
Other   |            | 7.758      |            |       |  0.27

Nlocal:    9826 ave 9835 max 9817 min
Histogram: 1 0 0 0 0 0 0 0 0 1
Nghost:    11653 ave 11694 max 11612 min
Histogram: 1 0 0 0 0 0 0 0 0 1
Neighs:    588760 ave 594030 max 583491 min
Histogram: 1 0 0 0 0 0 0 0 0 1

Total # of neighbors = 1177521
Ave neighs/atom = 59.9186
Neighbor list builds = 49505
Dangerous builds not checked
Setting up Verlet run ...
  Unit style    : metal
  Current step  : 640000
  Time step     : 0.001
Per MPI rank memory allocation (min/avg/max) = 11.35 | 11.35 | 11.35 Mbytes
Step Temp Press TotEng PotEng Enthalpy 
  640000    1844.3722   -477.71145   -54186.237   -58871.111   -54311.427 
  640495    1807.7191    1016.9639   -54426.457   -59018.228   -54162.041 
Loop time of 30.7415 on 2 procs for 495 steps with 19652 atoms

Performance: 1.391 ns/day, 17.251 hours/ns, 16.102 timesteps/s
100.0% CPU use with 2 MPI tasks x no OpenMP threads

MPI task timing breakdown:
Section |  min time  |  avg time  |  max time  |%varavg| %total
---------------------------------------------------------------
Pair    | 16.12      | 16.13      | 16.139     |   0.2 | 52.47
Neigh   | 12.992     | 13.144     | 13.296     |   4.2 | 42.76
Comm    | 0.90838    | 1.075      | 1.2416     |  16.1 |  3.50
Output  | 4.8876e-05 | 6.485e-05  | 8.0824e-05 |   0.0 |  0.00
Modify  | 0.2988     | 0.30242    | 0.30604    |   0.7 |  0.98
Other   |            | 0.09047    |            |       |  0.29

Nlocal:    9826 ave 9832 max 9820 min
Histogram: 1 0 0 0 0 0 0 0 0 1
Nghost:    11706 ave 11726 max 11686 min
Histogram: 1 0 0 0 0 0 0 0 0 1
Neighs:    593408 ave 599103 max 587714 min
Histogram: 1 0 0 0 0 0 0 0 0 1

Total # of neighbors = 1186817
Ave neighs/atom = 60.3917
Neighbor list builds = 495
Dangerous builds not checked
Setting up Verlet run ...
  Unit style    : metal
  Current step  : 640495
  Time step     : 0.001
Per MPI rank memory allocation (min/avg/max) = 11.35 | 11.35 | 11.35 Mbytes
Step Temp Press TotEng PotEng Enthalpy 
  640495    1807.7191    1016.9639   -54426.457   -59018.228   -54162.041 
  650000    1790.4231    904.91535   -54510.578   -59058.416   -54275.677 
  690000    1803.9258    57.457493   -54509.158   -59091.294   -54494.234 
Loop time of 2800.98 on 2 procs for 49505 steps with 19652 atoms

Performance: 1.527 ns/day, 15.717 hours/ns, 17.674 timesteps/s
99.5% CPU use with 2 MPI tasks x no OpenMP threads

MPI task timing breakdown:
Section |  min time  |  avg time  |  max time  |%varavg| %total
---------------------------------------------------------------
Pair    | 1428.4     | 1436.4     | 1444.5     |  21.3 | 51.28
Neigh   | 1233.6     | 1239.5     | 1245.3     |  16.7 | 44.25
Comm    | 74.969     | 89.637     | 104.31     | 154.9 |  3.20
Output  | 0.071375   | 0.071413   | 0.071451   |   0.0 |  0.00
Modify  | 26.91      | 27.592     | 28.274     |  13.0 |  0.99
Other   |            | 7.781      |            |       |  0.28

Nlocal:    9826 ave 9835 max 9817 min
Histogram: 1 0 0 0 0 0 0 0 0 1
Nghost:    11695 ave 11735 max 11655 min
Histogram: 1 0 0 0 0 0 0 0 0 1
Neighs:    593752 ave 597599 max 589904 min
Histogram: 1 0 0 0 0 0 0 0 0 1

Total # of neighbors = 1187503
Ave neighs/atom = 60.4266
Neighbor list builds = 49505
Dangerous builds not checked
Setting up Verlet run ...
  Unit style    : metal
  Current step  : 690000
  Time step     : 0.001
Per MPI rank memory allocation (min/avg/max) = 11.35 | 11.35 | 11.35 Mbytes
Step Temp Press TotEng PotEng Enthalpy 
  690000    1803.9258    57.457493   -54509.158   -59091.294   -54494.234 
  690495    1765.8268    215.73781   -54708.328   -59193.689   -54652.508 
Loop time of 24.7581 on 2 procs for 495 steps with 19652 atoms

Performance: 1.727 ns/day, 13.893 hours/ns, 19.993 timesteps/s
100.0% CPU use with 2 MPI tasks x no OpenMP threads

MPI task timing breakdown:
Section |  min time  |  avg time  |  max time  |%varavg| %total
---------------------------------------------------------------
Pair    | 12.318     | 12.467     | 12.615     |   4.2 | 50.35
Neigh   | 11.423     | 11.456     | 11.488     |   1.0 | 46.27
Comm    | 0.33215    | 0.51828    | 0.7044     |  25.9 |  2.09
Output  | 5.4836e-05 | 8.0943e-05 | 0.00010705 |   0.0 |  0.00
Modify  | 0.24535    | 0.24545    | 0.24554    |   0.0 |  0.99
Other   |            | 0.07213    |            |       |  0.29

Nlocal:    9826 ave 9860 max 9792 min
Histogram: 1 0 0 0 0 0 0 0 0 1
Nghost:    11786 ave 11804 max 11768 min
Histogram: 1 0 0 0 0 0 0 0 0 1
Neighs:    596302 ave 599074 max 593529 min
Histogram: 1 0 0 0 0 0 0 0 0 1

Total # of neighbors = 1192603
Ave neighs/atom = 60.6861
Neighbor list builds = 495
Dangerous builds not checked
Setting up Verlet run ...
  Unit style    : metal
  Current step  : 690495
  Time step     : 0.001
Per MPI rank memory allocation (min/avg/max) = 11.35 | 11.35 | 11.35 Mbytes
Step Temp Press TotEng PotEng Enthalpy 
  690495    1765.8268    215.73781   -54708.328   -59193.689   -54652.508 
  700000     1752.965   -387.28945   -54777.471   -59230.162   -54877.612 
  740000    1741.1512    672.23031   -54855.115   -59277.798   -54682.005 
Loop time of 2700.67 on 2 procs for 49505 steps with 19652 atoms

Performance: 1.584 ns/day, 15.154 hours/ns, 18.331 timesteps/s
99.6% CPU use with 2 MPI tasks x no OpenMP threads

MPI task timing breakdown:
Section |  min time  |  avg time  |  max time  |%varavg| %total
---------------------------------------------------------------
Pair    | 1374.1     | 1379.6     | 1385.2     |  14.9 | 51.08
Neigh   | 1196.5     | 1208.1     | 1219.6     |  33.2 | 44.73
Comm    | 62.086     | 79.238     | 96.39      | 192.7 |  2.93
Output  | 0.21944    | 0.21949    | 0.21954    |   0.0 |  0.01
Modify  | 25.833     | 25.932     | 26.031     |   1.9 |  0.96
Other   |            | 7.586      |            |       |  0.28

Nlocal:    9826 ave 9834 max 9818 min
Histogram: 1 0 0 0 0 0 0 0 0 1
Nghost:    11709 ave 11721 max 11697 min
Histogram: 1 0 0 0 0 0 0 0 0 1
Neighs:    599309 ave 605201 max 593417 min
Histogram: 1 0 0 0 0 0 0 0 0 1

Total # of neighbors = 1198618
Ave neighs/atom = 60.9922
Neighbor list builds = 49505
Dangerous builds not checked
Setting up Verlet run ...
  Unit style    : metal
  Current step  : 740000
  Time step     : 0.001
Per MPI rank memory allocation (min/avg/max) = 11.35 | 11.35 | 11.35 Mbytes
Step Temp Press TotEng PotEng Enthalpy 
  740000    1741.1512    672.23031   -54855.115   -59277.798   -54682.005 
  740495    1708.3572    640.68492    -55002.73   -59342.113   -54838.132 
Loop time of 28.5317 on 2 procs for 495 steps with 19652 atoms

Performance: 1.499 ns/day, 16.011 hours/ns, 17.349 timesteps/s
100.0% CPU use with 2 MPI tasks x no OpenMP threads

MPI task timing breakdown:
Section |  min time  |  avg time  |  max time  |%varavg| %total
---------------------------------------------------------------
Pair    | 14.561     | 14.875     | 15.189     |   8.1 | 52.13
Neigh   | 11.614     | 12.26      | 12.906     |  18.5 | 42.97
Comm    | 0.68986    | 1.0344     | 1.3789     |  33.9 |  3.63
Output  | 5.4121e-05 | 8.0585e-05 | 0.00010705 |   0.0 |  0.00
Modify  | 0.26653    | 0.27983    | 0.29313    |   2.5 |  0.98
Other   |            | 0.0825     |            |       |  0.29

Nlocal:    9826 ave 9829 max 9823 min
Histogram: 1 0 0 0 0 0 0 0 0 1
Nghost:    11754.5 ave 11758 max 11751 min
Histogram: 1 0 0 0 0 0 0 0 0 1
Neighs:    600648 ave 606012 max 595284 min
Histogram: 1 0 0 0 0 0 0 0 0 1

Total # of neighbors = 1201296
Ave neighs/atom = 61.1284
Neighbor list builds = 495
Dangerous builds not checked
Setting up Verlet run ...
  Unit style    : metal
  Current step  : 740495
  Time step     : 0.001
Per MPI rank memory allocation (min/avg/max) = 11.35 | 11.35 | 11.35 Mbytes
Step Temp Press TotEng PotEng Enthalpy 
  740495    1708.3572    640.68492    -55002.73   -59342.113   -54838.132 
  750000    1693.9633    155.50679    -55034.82   -59337.641   -54994.819 
  790000    1699.5629    642.57797   -55102.313   -59419.358   -54937.669 
Loop time of 2845.95 on 2 procs for 49505 steps with 19652 atoms

Performance: 1.503 ns/day, 15.969 hours/ns, 17.395 timesteps/s
99.9% CPU use with 2 MPI tasks x no OpenMP threads

MPI task timing breakdown:
Section |  min time  |  avg time  |  max time  |%varavg| %total
---------------------------------------------------------------
Pair    | 1472.1     | 1480.8     | 1489.6     |  22.8 | 52.03
Neigh   | 1222       | 1240.2     | 1258.5     |  51.8 | 43.58
Comm    | 62.6       | 89.879     | 117.16     | 287.7 |  3.16
Output  | 0.059232   | 0.059259   | 0.059286   |   0.0 |  0.00
Modify  | 26.777     | 26.978     | 27.179     |   3.9 |  0.95
Other   |            | 7.969      |            |       |  0.28

Nlocal:    9826 ave 9852 max 9800 min
Histogram: 1 0 0 0 0 0 0 0 0 1
Nghost:    11817 ave 11832 max 11802 min
Histogram: 1 0 0 0 0 0 0 0 0 1
Neighs:    602126 ave 605252 max 598999 min
Histogram: 1 0 0 0 0 0 0 0 0 1

Total # of neighbors = 1204251
Ave neighs/atom = 61.2788
Neighbor list builds = 49505
Dangerous builds not checked
Setting up Verlet run ...
  Unit style    : metal
  Current step  : 790000
  Time step     : 0.001
Per MPI rank memory allocation (min/avg/max) = 11.35 | 11.35 | 11.35 Mbytes
Step Temp Press TotEng PotEng Enthalpy 
  790000    1699.5629    642.57797   -55102.313   -59419.358   -54937.669 
  790495    1661.7644    1235.4745   -55289.655   -59510.688   -54974.327 
Loop time of 27.3913 on 2 procs for 495 steps with 19652 atoms

Performance: 1.561 ns/day, 15.371 hours/ns, 18.071 timesteps/s
99.9% CPU use with 2 MPI tasks x no OpenMP threads

MPI task timing breakdown:
Section |  min time  |  avg time  |  max time  |%varavg| %total
---------------------------------------------------------------
Pair    | 14.021     | 14.14      | 14.258     |   3.1 | 51.62
Neigh   | 12.321     | 12.337     | 12.354     |   0.5 | 45.04
Comm    | 0.42333    | 0.55924    | 0.69515    |  18.2 |  2.04
Output  | 5.0068e-05 | 6.2585e-05 | 7.5102e-05 |   0.0 |  0.00
Modify  | 0.27148    | 0.27226    | 0.27305    |   0.2 |  0.99
Other   |            | 0.08281    |            |       |  0.30

Nlocal:    9826 ave 9844 max 9808 min
Histogram: 1 0 0 0 0 0 0 0 0 1
Nghost:    11791.5 ave 11803 max 11780 min
Histogram: 1 0 0 0 0 0 0 0 0 1
Neighs:    604872 ave 612622 max 597123 min
Histogram: 1 0 0 0 0 0 0 0 0 1

Total # of neighbors = 1209745
Ave neighs/atom = 61.5584
Neighbor list builds = 495
Dangerous builds not checked
Setting up Verlet run ...
  Unit style    : metal
  Current step  : 790495
  Time step     : 0.001
Per MPI rank memory allocation (min/avg/max) = 11.35 | 11.35 | 11.35 Mbytes
Step Temp Press TotEng PotEng Enthalpy 
  790495    1661.7644    1235.4745   -55289.655   -59510.688   -54974.327 
  800000    1633.5304   -831.75363   -55425.751   -59575.067    -55638.18 
  840000    1642.6498   -645.11438   -55402.482   -59574.963   -55567.202 
Loop time of 2598.93 on 2 procs for 49505 steps with 19652 atoms

Performance: 1.646 ns/day, 14.583 hours/ns, 19.048 timesteps/s
99.2% CPU use with 2 MPI tasks x no OpenMP threads

MPI task timing breakdown:
Section |  min time  |  avg time  |  max time  |%varavg| %total
---------------------------------------------------------------
Pair    | 1316.2     | 1321.8     | 1327.3     |  15.3 | 50.86
Neigh   | 1168.6     | 1176.2     | 1183.8     |  22.2 | 45.26
Comm    | 52.373     | 65.594     | 78.815     | 163.2 |  2.52
Output  | 2.1626     | 2.1626     | 2.1627     |   0.0 |  0.08
Modify  | 25.844     | 25.875     | 25.907     |   0.6 |  1.00
Other   |            | 7.305      |            |       |  0.28

Nlocal:    9826 ave 9829 max 9823 min
Histogram: 1 0 0 0 0 0 0 0 0 1
Nghost:    11828.5 ave 11847 max 11810 min
Histogram: 1 0 0 0 0 0 0 0 0 1
Neighs:    604800 ave 610656 max 598944 min
Histogram: 1 0 0 0 0 0 0 0 0 1

Total # of neighbors = 1209600
Ave neighs/atom = 61.551
Neighbor list builds = 49505
Dangerous builds not checked
Setting up Verlet run ...
  Unit style    : metal
  Current step  : 840000
  Time step     : 0.001
Per MPI rank memory allocation (min/avg/max) = 11.35 | 11.35 | 11.35 Mbytes
Step Temp Press TotEng PotEng Enthalpy 
  840000    1642.6498   -645.11438   -55402.482   -59574.963   -55567.202 
  840495    1608.9024   -76.777638   -55542.785   -59629.543   -55562.336 
Loop time of 25.1228 on 2 procs for 495 steps with 19652 atoms

Performance: 1.702 ns/day, 14.098 hours/ns, 19.703 timesteps/s
100.0% CPU use with 2 MPI tasks x no OpenMP threads

MPI task timing breakdown:
Section |  min time  |  avg time  |  max time  |%varavg| %total
---------------------------------------------------------------
Pair    | 12.734     | 12.839     | 12.945     |   2.9 | 51.11
Neigh   | 11.488     | 11.507     | 11.526     |   0.6 | 45.80
Comm    | 0.32688    | 0.45424    | 0.58159    |  18.9 |  1.81
Output  | 5.1022e-05 | 7.8559e-05 | 0.0001061  |   0.0 |  0.00
Modify  | 0.24746    | 0.24762    | 0.24777    |   0.0 |  0.99
Other   |            | 0.07452    |            |       |  0.30

Nlocal:    9826 ave 9840 max 9812 min
Histogram: 1 0 0 0 0 0 0 0 0 1
Nghost:    11805.5 ave 11820 max 11791 min
Histogram: 1 0 0 0 0 0 0 0 0 1
Neighs:    606238 ave 609637 max 602840 min
Histogram: 1 0 0 0 0 0 0 0 0 1

Total # of neighbors = 1212477
Ave neighs/atom = 61.6974
Neighbor list builds = 495
Dangerous builds not checked
Setting up Verlet run ...
  Unit style    : metal
  Current step  : 840495
  Time step     : 0.001
Per MPI rank memory allocation (min/avg/max) = 11.35 | 11.35 | 11.35 Mbytes
Step Temp Press TotEng PotEng Enthalpy 
  840495    1608.9024   -76.777638   -55542.785   -59629.543   -55562.336 
  850000    1606.5759    695.53153   -55604.453   -59685.302   -55427.981 
  890000    1584.3324    136.32053   -55687.999   -59712.347   -55653.422 
Loop time of 2699.47 on 2 procs for 49505 steps with 19652 atoms

Performance: 1.584 ns/day, 15.147 hours/ns, 18.339 timesteps/s
99.9% CPU use with 2 MPI tasks x no OpenMP threads

MPI task timing breakdown:
Section |  min time  |  avg time  |  max time  |%varavg| %total
---------------------------------------------------------------
Pair    | 1391.2     | 1398.6     | 1406       |  19.8 | 51.81
Neigh   | 1190.8     | 1200.9     | 1211       |  29.2 | 44.49
Comm    | 48.601     | 66.231     | 83.862     | 216.6 |  2.45
Output  | 0.12691    | 0.12695    | 0.12699    |   0.0 |  0.00
Modify  | 25.703     | 25.79      | 25.877     |   1.7 |  0.96
Other   |            | 7.785      |            |       |  0.29

Nlocal:    9826 ave 9848 max 9804 min
Histogram: 1 0 0 0 0 0 0 0 0 1
Nghost:    11859 ave 11879 max 11839 min
Histogram: 1 0 0 0 0 0 0 0 0 1
Neighs:    608740 ave 612310 max 605169 min
Histogram: 1 0 0 0 0 0 0 0 0 1

Total # of neighbors = 1217479
Ave neighs/atom = 61.9519
Neighbor list builds = 49505
Dangerous builds not checked
Setting up Verlet run ...
  Unit style    : metal
  Current step  : 890000
  Time step     : 0.001
Per MPI rank memory allocation (min/avg/max) = 11.35 | 11.35 | 11.35 Mbytes
Step Temp Press TotEng PotEng Enthalpy 
  890000    1584.3324    136.32053   -55687.999   -59712.347   -55653.422 
  890495    1558.1234    246.13229   -55841.234    -59799.01    -55779.02 
Loop time of 33.1585 on 2 procs for 495 steps with 19652 atoms

Performance: 1.290 ns/day, 18.607 hours/ns, 14.928 timesteps/s
99.9% CPU use with 2 MPI tasks x no OpenMP threads

MPI task timing breakdown:
Section |  min time  |  avg time  |  max time  |%varavg| %total
---------------------------------------------------------------
Pair    | 17.641     | 17.88      | 18.118     |   5.6 | 53.92
Neigh   | 13.037     | 13.092     | 13.147     |   1.5 | 39.48
Comm    | 1.4999     | 1.798      | 2.0961     |  22.2 |  5.42
Output  | 5.1975e-05 | 8.1539e-05 | 0.0001111  |   0.0 |  0.00
Modify  | 0.30397    | 0.30751    | 0.31106    |   0.6 |  0.93
Other   |            | 0.08097    |            |       |  0.24

Nlocal:    9826 ave 9840 max 9812 min
Histogram: 1 0 0 0 0 0 0 0 0 1
Nghost:    11876.5 ave 11910 max 11843 min
Histogram: 1 0 0 0 0 0 0 0 0 1
Neighs:    610766 ave 618959 max 602574 min
Histogram: 1 0 0 0 0 0 0 0 0 1

Total # of neighbors = 1221533
Ave neighs/atom = 62.1582
Neighbor list builds = 495
Dangerous builds not checked
Setting up Verlet run ...
  Unit style    : metal
  Current step  : 890495
  Time step     : 0.001
Per MPI rank memory allocation (min/avg/max) = 11.35 | 11.35 | 11.35 Mbytes
Step Temp Press TotEng PotEng Enthalpy 
  890495    1558.1234    246.13229   -55841.234    -59799.01    -55779.02 
  900000    1552.7789    -830.3242   -55930.803   -59875.003   -56140.582 
  940000    1548.9164   -379.01225   -55931.197   -59865.585   -56026.895 
Loop time of 2712.21 on 2 procs for 49505 steps with 19652 atoms

Performance: 1.577 ns/day, 15.219 hours/ns, 18.253 timesteps/s
99.9% CPU use with 2 MPI tasks x no OpenMP threads

MPI task timing breakdown:
Section |  min time  |  avg time  |  max time  |%varavg| %total
---------------------------------------------------------------
Pair    | 1403       | 1409.8     | 1416.6     |  18.2 | 51.98
Neigh   | 1195.3     | 1200.4     | 1205.5     |  14.7 | 44.26
Comm    | 56.008     | 68.066     | 80.124     | 146.2 |  2.51
Output  | 0.14089    | 0.14094    | 0.14099    |   0.0 |  0.01
Modify  | 25.759     | 25.784     | 25.809     |   0.5 |  0.95
Other   |            | 8.023      |            |       |  0.30

Nlocal:    9826 ave 9844 max 9808 min
Histogram: 1 0 0 0 0 0 0 0 0 1
Nghost:    11877.5 ave 11916 max 11839 min
Histogram: 1 0 0 0 0 0 0 0 0 1
Neighs:    611759 ave 618700 max 604818 min
Histogram: 1 0 0 0 0 0 0 0 0 1

Total # of neighbors = 1223518
Ave neighs/atom = 62.2592
Neighbor list builds = 49505
Dangerous builds not checked
Setting up Verlet run ...
  Unit style    : metal
  Current step  : 940000
  Time step     : 0.001
Per MPI rank memory allocation (min/avg/max) = 11.35 | 11.35 | 11.35 Mbytes
Step Temp Press TotEng PotEng Enthalpy 
  940000    1548.9164   -379.01225   -55931.197   -59865.585   -56026.895 
  940495    1509.8968    361.27065   -56132.345    -59967.62    -56041.58 
Loop time of 25.362 on 2 procs for 495 steps with 19652 atoms

Performance: 1.686 ns/day, 14.232 hours/ns, 19.517 timesteps/s
100.0% CPU use with 2 MPI tasks x no OpenMP threads

MPI task timing breakdown:
Section |  min time  |  avg time  |  max time  |%varavg| %total
---------------------------------------------------------------
Pair    | 12.974     | 13.035     | 13.096     |   1.7 | 51.40
Neigh   | 11.546     | 11.565     | 11.584     |   0.6 | 45.60
Comm    | 0.3576     | 0.43326    | 0.50892    |  11.5 |  1.71
Output  | 5.2929e-05 | 7.5459e-05 | 9.799e-05  |   0.0 |  0.00
Modify  | 0.24912    | 0.25023    | 0.25134    |   0.2 |  0.99
Other   |            | 0.07868    |            |       |  0.31

Nlocal:    9826 ave 9835 max 9817 min
Histogram: 1 0 0 0 0 0 0 0 0 1
Nghost:    11857 ave 11897 max 11817 min
Histogram: 1 0 0 0 0 0 0 0 0 1
Neighs:    614864 ave 620449 max 609279 min
Histogram: 1 0 0 0 0 0 0 0 0 1

Total # of neighbors = 1229728
Ave neighs/atom = 62.5752
Neighbor list builds = 495
Dangerous builds not checked
Setting up Verlet run ...
  Unit style    : metal
  Current step  : 940495
  Time step     : 0.001
Per MPI rank memory allocation (min/avg/max) = 11.35 | 11.35 | 11.35 Mbytes
Step Temp Press TotEng PotEng Enthalpy 
  940495    1509.8968    361.27065   -56132.345    -59967.62    -56041.58 
  950000    1502.2502    41.981961   -56257.951   -60073.804   -56247.435 
  990000    1489.0977   -750.23388   -56267.956     -60050.4   -56456.201 
Loop time of 2678.66 on 2 procs for 49505 steps with 19652 atoms

Performance: 1.597 ns/day, 15.030 hours/ns, 18.481 timesteps/s
99.9% CPU use with 2 MPI tasks x no OpenMP threads

MPI task timing breakdown:
Section |  min time  |  avg time  |  max time  |%varavg| %total
---------------------------------------------------------------
Pair    | 1386.5     | 1391.7     | 1396.9     |  13.9 | 51.95
Neigh   | 1186       | 1192.9     | 1199.8     |  20.1 | 44.53
Comm    | 48.197     | 60.575     | 72.952     | 159.0 |  2.26
Output  | 0.23049    | 0.23052    | 0.23055    |   0.0 |  0.01
Modify  | 25.354     | 25.427     | 25.501     |   1.5 |  0.95
Other   |            | 7.852      |            |       |  0.29

Nlocal:    9826 ave 9838 max 9814 min
Histogram: 1 0 0 0 0 0 0 0 0 1
Nghost:    11889.5 ave 11906 max 11873 min
Histogram: 1 0 0 0 0 0 0 0 0 1
Neighs:    615890 ave 620141 max 611640 min
Histogram: 1 0 0 0 0 0 0 0 0 1

Total # of neighbors = 1231781
Ave neighs/atom = 62.6797
Neighbor list builds = 49505
Dangerous builds not checked
Setting up Verlet run ...
  Unit style    : metal
  Current step  : 990000
  Time step     : 0.001
Per MPI rank memory allocation (min/avg/max) = 11.35 | 11.35 | 11.35 Mbytes
Step Temp Press TotEng PotEng Enthalpy 
  990000    1489.0977   -750.23388   -56267.956     -60050.4   -56456.201 
  990495    1469.3165   -737.07699   -56431.096   -60163.293   -56615.357 
Loop time of 25.7188 on 2 procs for 495 steps with 19652 atoms

Performance: 1.663 ns/day, 14.433 hours/ns, 19.247 timesteps/s
100.0% CPU use with 2 MPI tasks x no OpenMP threads

MPI task timing breakdown:
Section |  min time  |  avg time  |  max time  |%varavg| %total
---------------------------------------------------------------
Pair    | 13.204     | 13.293     | 13.382     |   2.4 | 51.69
Neigh   | 11.506     | 11.585     | 11.664     |   2.3 | 45.04
Comm    | 0.34266    | 0.5073     | 0.67195    |  23.1 |  1.97
Output  | 5.0068e-05 | 6.9499e-05 | 8.893e-05  |   0.0 |  0.00
Modify  | 0.25182    | 0.25252    | 0.25322    |   0.1 |  0.98
Other   |            | 0.08088    |            |       |  0.31

Nlocal:    9826 ave 9843 max 9809 min
Histogram: 1 0 0 0 0 0 0 0 0 1
Nghost:    11916 ave 11945 max 11887 min
Histogram: 1 0 0 0 0 0 0 0 0 1
Neighs:    618105 ave 622316 max 613894 min
Histogram: 1 0 0 0 0 0 0 0 0 1

Total # of neighbors = 1236210
Ave neighs/atom = 62.905
Neighbor list builds = 495
Dangerous builds not checked
Setting up Verlet run ...
  Unit style    : metal
  Current step  : 990495
  Time step     : 0.001
Per MPI rank memory allocation (min/avg/max) = 11.35 | 11.35 | 11.35 Mbytes
Step Temp Press TotEng PotEng Enthalpy 
  990495    1469.3165   -737.07699   -56431.096   -60163.293   -56615.357 
 1000000    1460.6328    571.45457   -56504.101   -60214.242   -56361.906 
 1040000    1449.7938   -458.77908   -56522.796   -60205.405    -56637.21 
Loop time of 2714.75 on 2 procs for 49505 steps with 19652 atoms

Performance: 1.576 ns/day, 15.233 hours/ns, 18.236 timesteps/s
99.7% CPU use with 2 MPI tasks x no OpenMP threads

MPI task timing breakdown:
Section |  min time  |  avg time  |  max time  |%varavg| %total
---------------------------------------------------------------
Pair    | 1400.9     | 1406.9     | 1412.9     |  16.0 | 51.82
Neigh   | 1184.6     | 1195.6     | 1206.7     |  31.8 | 44.04
Comm    | 60.851     | 78.117     | 95.383     | 195.4 |  2.88
Output  | 0.042726   | 0.042767   | 0.042808   |   0.0 |  0.00
Modify  | 26.166     | 26.277     | 26.388     |   2.2 |  0.97
Other   |            | 7.763      |            |       |  0.29

Nlocal:    9826 ave 9828 max 9824 min
Histogram: 1 0 0 0 0 0 0 0 0 1
Nghost:    11955 ave 11984 max 11926 min
Histogram: 1 0 0 0 0 0 0 0 0 1
Neighs:    619396 ave 625151 max 613640 min
Histogram: 1 0 0 0 0 0 0 0 0 1

Total # of neighbors = 1238791
Ave neighs/atom = 63.0364
Neighbor list builds = 49505
Dangerous builds not checked
Setting up Verlet run ...
  Unit style    : metal
  Current step  : 1040000
  Time step     : 0.001
Per MPI rank memory allocation (min/avg/max) = 11.35 | 11.35 | 11.35 Mbytes
Step Temp Press TotEng PotEng Enthalpy 
 1040000    1449.7938   -458.77908   -56522.796   -60205.405    -56637.21 
 1040495    1415.7112    -202.2473   -56721.438   -60317.474   -56771.644 
Loop time of 26.2491 on 2 procs for 495 steps with 19652 atoms

Performance: 1.629 ns/day, 14.730 hours/ns, 18.858 timesteps/s
100.0% CPU use with 2 MPI tasks x no OpenMP threads

MPI task timing breakdown:
Section |  min time  |  avg time  |  max time  |%varavg| %total
---------------------------------------------------------------
Pair    | 13.326     | 13.55      | 13.774     |   6.1 | 51.62
Neigh   | 11.427     | 11.592     | 11.758     |   4.9 | 44.16
Comm    | 0.37498    | 0.77433    | 1.1737     |  45.4 |  2.95
Output  | 6.0081e-05 | 8.7619e-05 | 0.00011516 |   0.0 |  0.00
Modify  | 0.25106    | 0.25305    | 0.25505    |   0.4 |  0.96
Other   |            | 0.07904    |            |       |  0.30

Nlocal:    9826 ave 9860 max 9792 min
Histogram: 1 0 0 0 0 0 0 0 0 1
Nghost:    11948 ave 11977 max 11919 min
Histogram: 1 0 0 0 0 0 0 0 0 1
Neighs:    622565 ave 626250 max 618880 min
Histogram: 1 0 0 0 0 0 0 0 0 1

Total # of neighbors = 1245130
Ave neighs/atom = 63.3589
Neighbor list builds = 495
Dangerous builds not checked
Setting up Verlet run ...
  Unit style    : metal
  Current step  : 1040495
  Time step     : 0.001
Per MPI rank memory allocation (min/avg/max) = 11.35 | 11.35 | 11.35 Mbytes
Step Temp Press TotEng PotEng Enthalpy 
 1040495    1415.7112    -202.2473   -56721.438   -60317.474   -56771.644 
 1050000     1412.645    244.24045    -56762.97   -60351.217   -56702.463 
 1090000    1400.7852    -10.47068   -56806.313   -60364.435   -56808.907 
Loop time of 2696.72 on 2 procs for 49505 steps with 19652 atoms

Performance: 1.586 ns/day, 15.132 hours/ns, 18.357 timesteps/s
100.0% CPU use with 2 MPI tasks x no OpenMP threads

MPI task timing breakdown:
Section |  min time  |  avg time  |  max time  |%varavg| %total
---------------------------------------------------------------
Pair    | 1401.8     | 1408.1     | 1414.3     |  16.7 | 52.21
Neigh   | 1189.1     | 1195.9     | 1202.6     |  19.5 | 44.35
Comm    | 46.243     | 59.359     | 72.475     | 170.2 |  2.20
Output  | 0.049748   | 0.04979    | 0.049832   |   0.0 |  0.00
Modify  | 25.457     | 25.513     | 25.569     |   1.1 |  0.95
Other   |            | 7.852      |            |       |  0.29

Nlocal:    9826 ave 9845 max 9807 min
Histogram: 1 0 0 0 0 0 0 0 0 1
Nghost:    11929 ave 11951 max 11907 min
Histogram: 1 0 0 0 0 0 0 0 0 1
Neighs:    623903 ave 627508 max 620298 min
Histogram: 1 0 0 0 0 0 0 0 0 1

Total # of neighbors = 1247806
Ave neighs/atom = 63.4951
Neighbor list builds = 49505
Dangerous builds not checked
Setting up Verlet run ...
  Unit style    : metal
  Current step  : 1090000
  Time step     : 0.001
Per MPI rank memory allocation (min/avg/max) = 11.35 | 11.35 | 11.35 Mbytes
Step Temp Press TotEng PotEng Enthalpy 
 1090000    1400.7852    -10.47068   -56806.313   -60364.435   -56808.907 
 1090495    1368.0296   -529.26621   -57007.129   -60482.048   -57137.775 
Loop time of 25.8628 on 2 procs for 495 steps with 19652 atoms

Performance: 1.654 ns/day, 14.513 hours/ns, 19.139 timesteps/s
100.0% CPU use with 2 MPI tasks x no OpenMP threads

MPI task timing breakdown:
Section |  min time  |  avg time  |  max time  |%varavg| %total
---------------------------------------------------------------
Pair    | 13.202     | 13.36      | 13.517     |   4.3 | 51.66
Neigh   | 11.555     | 11.596     | 11.638     |   1.2 | 44.84
Comm    | 0.36745    | 0.57503    | 0.78261    |  27.4 |  2.22
Output  | 5.3167e-05 | 7.6532e-05 | 9.9897e-05 |   0.0 |  0.00
Modify  | 0.25012    | 0.25158    | 0.25304    |   0.3 |  0.97
Other   |            | 0.08021    |            |       |  0.31

Nlocal:    9826 ave 9827 max 9825 min
Histogram: 1 0 0 0 0 0 0 0 0 1
Nghost:    11996 ave 11999 max 11993 min
Histogram: 1 0 0 0 0 0 0 0 0 1
Neighs:    626412 ave 632013 max 620812 min
Histogram: 1 0 0 0 0 0 0 0 0 1

Total # of neighbors = 1252825
Ave neighs/atom = 63.7505
Neighbor list builds = 495
Dangerous builds not checked
Setting up Verlet run ...
  Unit style    : metal
  Current step  : 1090495
  Time step     : 0.001
Per MPI rank memory allocation (min/avg/max) = 11.35 | 11.35 | 11.35 Mbytes
Step Temp Press TotEng PotEng Enthalpy 
 1090495    1368.0296   -529.26621   -57007.129   -60482.048   -57137.775 
 1100000    1348.0017    179.61388   -57136.812   -60560.859    -57092.64 
 1140000    1365.0438    980.14694    -57070.35   -60537.685   -56829.386 
Loop time of 2807.28 on 2 procs for 49505 steps with 19652 atoms

Performance: 1.524 ns/day, 15.752 hours/ns, 17.635 timesteps/s
99.9% CPU use with 2 MPI tasks x no OpenMP threads

MPI task timing breakdown:
Section |  min time  |  avg time  |  max time  |%varavg| %total
---------------------------------------------------------------
Pair    | 1469.2     | 1478.7     | 1488.3     |  24.8 | 52.68
Neigh   | 1213.3     | 1217.5     | 1221.7     |  12.0 | 43.37
Comm    | 62.111     | 75.775     | 89.438     | 157.0 |  2.70
Output  | 0.17271    | 0.17274    | 0.17277    |   0.0 |  0.01
Modify  | 26.783     | 26.803     | 26.823     |   0.4 |  0.95
Other   |            | 8.252      |            |       |  0.29

Nlocal:    9826 ave 9837 max 9815 min
Histogram: 1 0 0 0 0 0 0 0 0 1
Nghost:    12009.5 ave 12023 max 11996 min
Histogram: 1 0 0 0 0 0 0 0 0 1
Neighs:    628912 ave 635802 max 622021 min
Histogram: 1 0 0 0 0 0 0 0 0 1

Total # of neighbors = 1257823
Ave neighs/atom = 64.0048
Neighbor list builds = 49505
Dangerous builds not checked
Setting up Verlet run ...
  Unit style    : metal
  Current step  : 1140000
  Time step     : 0.001
Per MPI rank memory allocation (min/avg/max) = 11.35 | 11.35 | 11.35 Mbytes
Step Temp Press TotEng PotEng Enthalpy 
 1140000    1365.0438    980.14694    -57070.35   -60537.685   -56829.386 
 1140495    1326.6141    829.88452   -57304.071   -60673.791   -57101.002 
Loop time of 25.1125 on 2 procs for 495 steps with 19652 atoms

Performance: 1.703 ns/day, 14.092 hours/ns, 19.711 timesteps/s
100.0% CPU use with 2 MPI tasks x no OpenMP threads

MPI task timing breakdown:
Section |  min time  |  avg time  |  max time  |%varavg| %total
---------------------------------------------------------------
Pair    | 12.815     | 12.921     | 13.027     |   2.9 | 51.45
Neigh   | 11.411     | 11.444     | 11.476     |   1.0 | 45.57
Comm    | 0.29557    | 0.43486    | 0.57414    |  21.1 |  1.73
Output  | 5.0068e-05 | 7.4029e-05 | 9.799e-05  |   0.0 |  0.00
Modify  | 0.24348    | 0.24355    | 0.24362    |   0.0 |  0.97
Other   |            | 0.06974    |            |       |  0.28

Nlocal:    9826 ave 9842 max 9810 min
Histogram: 1 0 0 0 0 0 0 0 0 1
Nghost:    12056 ave 12062 max 12050 min
Histogram: 1 0 0 0 0 0 0 0 0 1
Neighs:    631985 ave 636170 max 627800 min
Histogram: 1 0 0 0 0 0 0 0 0 1

Total # of neighbors = 1263970
Ave neighs/atom = 64.3176
Neighbor list builds = 495
Dangerous builds not checked
Setting up Verlet run ...
  Unit style    : metal
  Current step  : 1140495
  Time step     : 0.001
Per MPI rank memory allocation (min/avg/max) = 11.35 | 11.35 | 11.35 Mbytes
Step Temp Press TotEng PotEng Enthalpy 
 1140495    1326.6141    829.88452   -57304.071   -60673.791   -57101.002 
 1150000    1299.1547    449.47768   -57422.102   -60722.073   -57312.237 
 1190000    1325.4459    283.34255    -57345.63   -60712.384   -57276.317 
Loop time of 2866.55 on 2 procs for 49505 steps with 19652 atoms

Performance: 1.492 ns/day, 16.085 hours/ns, 17.270 timesteps/s
99.8% CPU use with 2 MPI tasks x no OpenMP threads

MPI task timing breakdown:
Section |  min time  |  avg time  |  max time  |%varavg| %total
---------------------------------------------------------------
Pair    | 1496.3     | 1505.1     | 1514       |  22.8 | 52.51
Neigh   | 1239.9     | 1241.7     | 1243.4     |   4.9 | 43.32
Comm    | 77.09      | 84.127     | 91.165     |  76.7 |  2.93
Output  | 0.039818   | 0.039853   | 0.039888   |   0.0 |  0.00
Modify  | 27.467     | 27.583     | 27.699     |   2.2 |  0.96
Other   |            | 8.022      |            |       |  0.28

Nlocal:    9826 ave 9852 max 9800 min
Histogram: 1 0 0 0 0 0 0 0 0 1
Nghost:    12021 ave 12069 max 11973 min
Histogram: 1 0 0 0 0 0 0 0 0 1
Neighs:    632243 ave 636574 max 627912 min
Histogram: 1 0 0 0 0 0 0 0 0 1

Total # of neighbors = 1264486
Ave neighs/atom = 64.3439
Neighbor list builds = 49505
Dangerous builds not checked
Setting up Verlet run ...
  Unit style    : metal
  Current step  : 1190000
  Time step     : 0.001
Per MPI rank memory allocation (min/avg/max) = 11.35 | 11.35 | 11.35 Mbytes
Step Temp Press TotEng PotEng Enthalpy 
 1190000    1325.4459    283.34255    -57345.63   -60712.384   -57276.317 
 1190495    1270.8383    177.94627   -57614.429   -60842.474    -57571.09 
Loop time of 31.0362 on 2 procs for 495 steps with 19652 atoms

Performance: 1.378 ns/day, 17.417 hours/ns, 15.949 timesteps/s
99.5% CPU use with 2 MPI tasks x no OpenMP threads

MPI task timing breakdown:
Section |  min time  |  avg time  |  max time  |%varavg| %total
---------------------------------------------------------------
Pair    | 16.371     | 16.597     | 16.823     |   5.5 | 53.48
Neigh   | 12.282     | 12.805     | 13.329     |  14.6 | 41.26
Comm    | 0.93572    | 1.2432     | 1.5507     |  27.6 |  4.01
Output  | 5.6028e-05 | 7.093e-05  | 8.5831e-05 |   0.0 |  0.00
Modify  | 0.29106    | 0.29797    | 0.30488    |   1.3 |  0.96
Other   |            | 0.09219    |            |       |  0.30

Nlocal:    9826 ave 9841 max 9811 min
Histogram: 1 0 0 0 0 0 0 0 0 1
Nghost:    12041.5 ave 12049 max 12034 min
Histogram: 1 0 0 0 0 0 0 0 0 1
Neighs:    635140 ave 639384 max 630896 min
Histogram: 1 0 0 0 0 0 0 0 0 1

Total # of neighbors = 1270280
Ave neighs/atom = 64.6387
Neighbor list builds = 495
Dangerous builds not checked
Setting up Verlet run ...
  Unit style    : metal
  Current step  : 1190495
  Time step     : 0.001
Per MPI rank memory allocation (min/avg/max) = 11.35 | 11.35 | 11.35 Mbytes
Step Temp Press TotEng PotEng Enthalpy 
 1190495    1270.8383    177.94627   -57614.429   -60842.474    -57571.09 
 1200000    1254.1736   -116.00273   -57688.607   -60874.322   -57716.815 
 1240000    1242.6887   -495.99803   -57747.854   -60904.396   -57868.468 
Loop time of 2713.33 on 2 procs for 49505 steps with 19652 atoms

Performance: 1.576 ns/day, 15.225 hours/ns, 18.245 timesteps/s
100.0% CPU use with 2 MPI tasks x no OpenMP threads

MPI task timing breakdown:
Section |  min time  |  avg time  |  max time  |%varavg| %total
---------------------------------------------------------------
Pair    | 1411.1     | 1418.5     | 1425.8     |  19.5 | 52.28
Neigh   | 1191.9     | 1199.4     | 1206.9     |  21.8 | 44.20
Comm    | 47.182     | 62.067     | 76.953     | 188.9 |  2.29
Output  | 0.061815   | 0.061866   | 0.061917   |   0.0 |  0.00
Modify  | 25.629     | 25.678     | 25.726     |   1.0 |  0.95
Other   |            | 7.663      |            |       |  0.28

Nlocal:    9826 ave 9831 max 9821 min
Histogram: 1 0 0 0 0 0 0 0 0 1
Nghost:    12062 ave 12065 max 12059 min
Histogram: 1 0 0 0 0 0 0 0 0 1
Neighs:    635994 ave 642483 max 629505 min
Histogram: 1 0 0 0 0 0 0 0 0 1

Total # of neighbors = 1271988
Ave neighs/atom = 64.7256
Neighbor list builds = 49505
Dangerous builds not checked
Setting up Verlet run ...
  Unit style    : metal
  Current step  : 1240000
  Time step     : 0.001
Per MPI rank memory allocation (min/avg/max) = 11.35 | 11.35 | 11.35 Mbytes
Step Temp Press TotEng PotEng Enthalpy 
 1240000    1242.6887   -495.99803   -57747.854   -60904.396   -57868.468 
 1240495    1218.7851   -272.92494   -57917.186   -61013.011   -57983.264 
Loop time of 25.9753 on 2 procs for 495 steps with 19652 atoms

Performance: 1.646 ns/day, 14.576 hours/ns, 19.057 timesteps/s
100.0% CPU use with 2 MPI tasks x no OpenMP threads

MPI task timing breakdown:
Section |  min time  |  avg time  |  max time  |%varavg| %total
---------------------------------------------------------------
Pair    | 13.41      | 13.5       | 13.59      |   2.5 | 51.97
Neigh   | 11.445     | 11.604     | 11.763     |   4.7 | 44.67
Comm    | 0.30259    | 0.5547     | 0.80681    |  33.9 |  2.14
Output  | 4.8876e-05 | 7.534e-05  | 0.0001018  |   0.0 |  0.00
Modify  | 0.24484    | 0.24677    | 0.24871    |   0.4 |  0.95
Other   |            | 0.07013    |            |       |  0.27

Nlocal:    9826 ave 9831 max 9821 min
Histogram: 1 0 0 0 0 0 0 0 0 1
Nghost:    12055 ave 12057 max 12053 min
Histogram: 1 0 0 0 0 0 0 0 0 1
Neighs:    639344 ave 646101 max 632586 min
Histogram: 1 0 0 0 0 0 0 0 0 1

Total # of neighbors = 1278687
Ave neighs/atom = 65.0665
Neighbor list builds = 495
Dangerous builds not checked
Setting up Verlet run ...
  Unit style    : metal
  Current step  : 1240495
  Time step     : 0.001
Per MPI rank memory allocation (min/avg/max) = 11.35 | 11.35 | 11.35 Mbytes
Step Temp Press TotEng PotEng Enthalpy 
 1240495    1218.7851   -272.92494   -57917.186   -61013.011   -57983.264 
 1250000    1196.9224    -133.1274   -58043.082   -61083.374    -58075.21 
 1290000    1191.7925   -380.57625   -58034.796   -61062.057   -58126.807 
Loop time of 2761.42 on 2 procs for 49505 steps with 19652 atoms

Performance: 1.549 ns/day, 15.495 hours/ns, 17.927 timesteps/s
99.9% CPU use with 2 MPI tasks x no OpenMP threads

MPI task timing breakdown:
Section |  min time  |  avg time  |  max time  |%varavg| %total
---------------------------------------------------------------
Pair    | 1435.8     | 1445.2     | 1454.7     |  24.7 | 52.34
Neigh   | 1199.1     | 1205.8     | 1212.5     |  19.3 | 43.67
Comm    | 59.918     | 76.2       | 92.481     | 186.5 |  2.76
Output  | 0.049072   | 0.049109   | 0.049146   |   0.0 |  0.00
Modify  | 26.104     | 26.237     | 26.37      |   2.6 |  0.95
Other   |            | 7.853      |            |       |  0.28

Nlocal:    9826 ave 9853 max 9799 min
Histogram: 1 0 0 0 0 0 0 0 0 1
Nghost:    12114.5 ave 12124 max 12105 min
Histogram: 1 0 0 0 0 0 0 0 0 1
Neighs:    640032 ave 642576 max 637489 min
Histogram: 1 0 0 0 0 0 0 0 0 1

Total # of neighbors = 1280065
Ave neighs/atom = 65.1366
Neighbor list builds = 49505
Dangerous builds not checked
Setting up Verlet run ...
  Unit style    : metal
  Current step  : 1290000
  Time step     : 0.001
Per MPI rank memory allocation (min/avg/max) = 11.35 | 11.35 | 11.35 Mbytes
Step Temp Press TotEng PotEng Enthalpy 
 1290000    1191.7925   -380.57625   -58034.796   -61062.057   -58126.807 
 1290495    1162.3224    -152.3688   -58232.765   -61185.169   -58269.421 
Loop time of 29.0163 on 2 procs for 495 steps with 19652 atoms

Performance: 1.474 ns/day, 16.283 hours/ns, 17.059 timesteps/s
99.9% CPU use with 2 MPI tasks x no OpenMP threads

MPI task timing breakdown:
Section |  min time  |  avg time  |  max time  |%varavg| %total
---------------------------------------------------------------
Pair    | 15.198     | 15.402     | 15.605     |   5.2 | 53.08
Neigh   | 11.62      | 12.332     | 13.043     |  20.3 | 42.50
Comm    | 0.38922    | 0.92143    | 1.4536     |  55.4 |  3.18
Output  | 5.3883e-05 | 7.689e-05  | 9.9897e-05 |   0.0 |  0.00
Modify  | 0.26697    | 0.27985    | 0.29274    |   2.4 |  0.96
Other   |            | 0.08186    |            |       |  0.28

Nlocal:    9826 ave 9832 max 9820 min
Histogram: 1 0 0 0 0 0 0 0 0 1
Nghost:    12059 ave 12073 max 12045 min
Histogram: 1 0 0 0 0 0 0 0 0 1
Neighs:    643428 ave 649103 max 637754 min
[...]
Loop time of 37.3156 on 2 procs for 495 steps with 19652 atoms

Performance: 1.146 ns/day, 20.940 hours/ns, 13.265 timesteps/s
99.5% CPU use with 2 MPI tasks x no OpenMP threads

MPI task timing breakdown:
Section |  min time  |  avg time  |  max time  |%varavg| %total
---------------------------------------------------------------
Pair    | 20.25      | 20.335     | 20.421     |   1.9 | 54.50
Neigh   | 13.528     | 14.301     | 15.075     |  20.5 | 38.32
Comm    | 1.3841     | 2.2517     | 3.1192     |  57.8 |  6.03
Output  | 7.3195e-05 | 9.8109e-05 | 0.00012302 |   0.0 |  0.00
Modify  | 0.32641    | 0.33544    | 0.34446    |   1.6 |  0.90
Other   |            | 0.09191    |            |       |  0.25

Nlocal:    9826 ave 9832 max 9820 min
Histogram: 1 0 0 0 0 0 0 0 0 1
Nghost:    12740 ave 12768 max 12712 min
Histogram: 1 0 0 0 0 0 0 0 0 1
Neighs:    724598 ave 726219 max 722977 min
Histogram: 1 0 0 0 0 0 0 0 0 1

Total # of neighbors = 1449196
Ave neighs/atom = 73.7429
Neighbor list builds = 495
Dangerous builds not checked
Setting up Verlet run ...
  Unit style    : metal
  Current step  : 2040495
  Time step     : 0.001
Per MPI rank memory allocation (min/avg/max) = 11.35 | 11.36 | 11.36 Mbytes
Step Temp Press TotEng PotEng Enthalpy 
 2040495    423.94865    170.46024   -63406.237   -64483.105   -63369.717 
 2050000    402.87138    682.50182   -63586.649   -64609.979   -63441.098 
 2090000    398.46338   -290.25055   -63764.356    -64776.49   -63826.036 
Loop time of 3409.23 on 2 procs for 49505 steps with 19652 atoms

Performance: 1.255 ns/day, 19.130 hours/ns, 14.521 timesteps/s
99.7% CPU use with 2 MPI tasks x no OpenMP threads

MPI task timing breakdown:
Section |  min time  |  avg time  |  max time  |%varavg| %total
---------------------------------------------------------------
Pair    | 1840.6     | 1841.5     | 1842.4     |   2.1 | 54.01
Neigh   | 1362.8     | 1371.7     | 1380.6     |  24.0 | 40.23
Comm    | 146.16     | 156.15     | 166.13     |  79.9 |  4.58
Output  | 0.040844   | 0.040907   | 0.04097    |   0.0 |  0.00
Modify  | 30.844     | 30.959     | 31.073     |   2.1 |  0.91
Other   |            | 8.914      |            |       |  0.26

Nlocal:    9826 ave 9855 max 9797 min
Histogram: 1 0 0 0 0 0 0 0 0 1
Nghost:    12808.5 ave 12822 max 12795 min
Histogram: 1 0 0 0 0 0 0 0 0 1
Neighs:    727796 ave 730874 max 724717 min
Histogram: 1 0 0 0 0 0 0 0 0 1

Total # of neighbors = 1455591
Ave neighs/atom = 74.0683
Neighbor list builds = 49505
Dangerous builds not checked
Setting up Verlet run ...
  Unit style    : metal
  Current step  : 2090000
  Time step     : 0.001
Per MPI rank memory allocation (min/avg/max) = 11.35 | 11.36 | 11.36 Mbytes
Step Temp Press TotEng PotEng Enthalpy 
 2090000    398.46338   -290.25055   -63764.356    -64776.49   -63826.036 
 2090495    374.66281   -290.29406   -63912.425   -64864.103   -63973.942 
Loop time of 36.5848 on 2 procs for 495 steps with 19652 atoms

Performance: 1.169 ns/day, 20.530 hours/ns, 13.530 timesteps/s
99.6% CPU use with 2 MPI tasks x no OpenMP threads

MPI task timing breakdown:
Section |  min time  |  avg time  |  max time  |%varavg| %total
---------------------------------------------------------------
Pair    | 19.886     | 19.9       | 19.915     |   0.3 | 54.40
Neigh   | 14.059     | 14.522     | 14.984     |  12.1 | 39.69
Comm    | 1.2374     | 1.7303     | 2.2232     |  37.5 |  4.73
Output  | 5.1975e-05 | 8.893e-05  | 0.00012589 |   0.0 |  0.00
Modify  | 0.33015    | 0.33897    | 0.3478     |   1.5 |  0.93
Other   |            | 0.09331    |            |       |  0.26

Nlocal:    9826 ave 9834 max 9818 min
Histogram: 1 0 0 0 0 0 0 0 0 1
Nghost:    12841.5 ave 12848 max 12835 min
Histogram: 1 0 0 0 0 0 0 0 0 1
Neighs:    729818 ave 731114 max 728523 min
Histogram: 1 0 0 0 0 0 0 0 0 1

Total # of neighbors = 1459637
Ave neighs/atom = 74.2742
Neighbor list builds = 495
Dangerous builds not checked
Setting up Verlet run ...
  Unit style    : metal
  Current step  : 2090495
  Time step     : 0.001
Per MPI rank memory allocation (min/avg/max) = 11.35 | 11.36 | 11.36 Mbytes
Step Temp Press TotEng PotEng Enthalpy 
 2090495    374.66281   -290.29406   -63912.425   -64864.103   -63973.942 
 2100000    349.72837   -490.24435    -64077.05   -64965.392    -64180.66 
 2140000    347.60227   -682.77321   -64129.913   -65012.855   -64274.029 
Loop time of 3499.47 on 2 procs for 49505 steps with 19652 atoms

Performance: 1.222 ns/day, 19.636 hours/ns, 14.146 timesteps/s
99.6% CPU use with 2 MPI tasks x no OpenMP threads

MPI task timing breakdown:
Section |  min time  |  avg time  |  max time  |%varavg| %total
---------------------------------------------------------------
Pair    | 1898.9     | 1899.4     | 1899.9     |   1.1 | 54.28
Neigh   | 1383.4     | 1394.7     | 1406       |  30.3 | 39.85
Comm    | 152.42     | 164.4      | 176.38     |  93.4 |  4.70
Output  | 0.044365   | 0.044447   | 0.044529   |   0.0 |  0.00
Modify  | 31.686     | 31.958     | 32.229     |   4.8 |  0.91
Other   |            | 8.975      |            |       |  0.26

Nlocal:    9826 ave 9828 max 9824 min
Histogram: 1 0 0 0 0 0 0 0 0 1
Nghost:    12860 ave 12887 max 12833 min
Histogram: 1 0 0 0 0 0 0 0 0 1
Neighs:    731355 ave 731719 max 730991 min
Histogram: 1 0 0 0 0 0 0 0 0 1

Total # of neighbors = 1462710
Ave neighs/atom = 74.4306
Neighbor list builds = 49505
Dangerous builds not checked
Setting up Verlet run ...
  Unit style    : metal
  Current step  : 2140000
  Time step     : 0.001
Per MPI rank memory allocation (min/avg/max) = 11.35 | 11.36 | 11.36 Mbytes
Step Temp Press TotEng PotEng Enthalpy 
 2140000    347.60227   -682.77321   -64129.913   -65012.855   -64274.029 
 2140495    322.71816   -189.40188   -64277.545   -65097.278   -64317.389 
Loop time of 41.3696 on 2 procs for 495 steps with 19652 atoms

Performance: 1.034 ns/day, 23.215 hours/ns, 11.965 timesteps/s
98.8% CPU use with 2 MPI tasks x no OpenMP threads

MPI task timing breakdown:
Section |  min time  |  avg time  |  max time  |%varavg| %total
---------------------------------------------------------------
Pair    | 22.485     | 22.586     | 22.687     |   2.1 | 54.60
Neigh   | 14.872     | 15.325     | 15.778     |  11.6 | 37.04
Comm    | 2.327      | 2.8946     | 3.4623     |  33.4 |  7.00
Output  | 0.00010014 | 0.00015354 | 0.00020695 |   0.0 |  0.00
Modify  | 0.45477    | 0.46545    | 0.47613    |   1.6 |  1.13
Other   |            | 0.09814    |            |       |  0.24

Nlocal:    9826 ave 9842 max 9810 min
Histogram: 1 0 0 0 0 0 0 0 0 1
Nghost:    12864 ave 12893 max 12835 min
Histogram: 1 0 0 0 0 0 0 0 0 1
Neighs:    733328 ave 735514 max 731142 min
Histogram: 1 0 0 0 0 0 0 0 0 1

Total # of neighbors = 1466656
Ave neighs/atom = 74.6314
Neighbor list builds = 495
Dangerous builds not checked
Setting up Verlet run ...
  Unit style    : metal
  Current step  : 2140495
  Time step     : 0.001
Per MPI rank memory allocation (min/avg/max) = 11.35 | 11.36 | 11.36 Mbytes
Step Temp Press TotEng PotEng Enthalpy 
 2140495    322.71816   -189.40188   -64277.545   -65097.278   -64317.389 
 2150000    298.33514   -413.44952   -64424.986   -65182.785   -64511.772 
 2190000    300.02218    469.44086   -64442.625   -65204.709    -64344.27 
Loop time of 3294.45 on 2 procs for 49505 steps with 19652 atoms

Performance: 1.298 ns/day, 18.485 hours/ns, 15.027 timesteps/s
99.7% CPU use with 2 MPI tasks x no OpenMP threads

MPI task timing breakdown:
Section |  min time  |  avg time  |  max time  |%varavg| %total
---------------------------------------------------------------
Pair    | 1774.4     | 1778       | 1781.5     |   8.4 | 53.97
Neigh   | 1333.6     | 1342.1     | 1350.7     |  23.4 | 40.74
Comm    | 130.61     | 135.63     | 140.65     |  43.1 |  4.12
Output  | 0.055804   | 0.055863   | 0.055922   |   0.0 |  0.00
Modify  | 29.665     | 29.853     | 30.04      |   3.4 |  0.91
Other   |            | 8.802      |            |       |  0.27

Nlocal:    9826 ave 9839 max 9813 min
Histogram: 1 0 0 0 0 0 0 0 0 1
Nghost:    12894.5 ave 12915 max 12874 min
Histogram: 1 0 0 0 0 0 0 0 0 1
Neighs:    735701 ave 737502 max 733900 min
Histogram: 1 0 0 0 0 0 0 0 0 1

Total # of neighbors = 1471402
Ave neighs/atom = 74.8729
Neighbor list builds = 49505
Dangerous builds not checked
Setting up Verlet run ...
  Unit style    : metal
  Current step  : 2190000
  Time step     : 0.001
Per MPI rank memory allocation (min/avg/max) = 11.35 | 11.36 | 11.36 Mbytes
Step Temp Press TotEng PotEng Enthalpy 
 2190000    300.02218    469.44086   -64442.625   -65204.709    -64344.27 
 2190495    275.39676   -189.27118    -64582.82   -65282.353   -64622.411 
Loop time of 32.1797 on 2 procs for 495 steps with 19652 atoms

Performance: 1.329 ns/day, 18.058 hours/ns, 15.382 timesteps/s
99.6% CPU use with 2 MPI tasks x no OpenMP threads

MPI task timing breakdown:
Section |  min time  |  avg time  |  max time  |%varavg| %total
---------------------------------------------------------------
Pair    | 17.086     | 17.26      | 17.434     |   4.2 | 53.64
Neigh   | 13.189     | 13.337     | 13.484     |   4.0 | 41.44
Comm    | 0.86535    | 1.1977     | 1.53       |  30.4 |  3.72
Output  | 6.4135e-05 | 9.2506e-05 | 0.00012088 |   0.0 |  0.00
Modify  | 0.29245    | 0.29797    | 0.30349    |   1.0 |  0.93
Other   |            | 0.08714    |            |       |  0.27

Nlocal:    9826 ave 9843 max 9809 min
Histogram: 1 0 0 0 0 0 0 0 0 1
Nghost:    12916 ave 12926 max 12906 min
Histogram: 1 0 0 0 0 0 0 0 0 1
Neighs:    736760 ave 739031 max 734488 min
Histogram: 1 0 0 0 0 0 0 0 0 1

Total # of neighbors = 1473519
Ave neighs/atom = 74.9806
Neighbor list builds = 495
Dangerous builds not checked
Setting up Verlet run ...
  Unit style    : metal
  Current step  : 2190495
  Time step     : 0.001
Per MPI rank memory allocation (min/avg/max) = 11.35 | 11.36 | 11.36 Mbytes
Step Temp Press TotEng PotEng Enthalpy 
 2190495    275.39676   -189.27118    -64582.82   -65282.353   -64622.411 
 2200000    249.75249    263.66651    -64722.01   -65356.404   -64667.012 
 2240000    250.17963    677.42903   -64730.034   -65365.513   -64588.855 
Loop time of 3535.63 on 2 procs for 49505 steps with 19652 atoms

Performance: 1.210 ns/day, 19.839 hours/ns, 14.002 timesteps/s
99.0% CPU use with 2 MPI tasks x no OpenMP threads

MPI task timing breakdown:
Section |  min time  |  avg time  |  max time  |%varavg| %total
---------------------------------------------------------------
Pair    | 1922.2     | 1924.9     | 1927.6     |   6.2 | 54.44
Neigh   | 1386       | 1405.6     | 1425.2     |  52.3 | 39.75
Comm    | 140.67     | 163.45     | 186.24     | 178.3 |  4.62
Output  | 0.055316   | 0.055359   | 0.055402   |   0.0 |  0.00
Modify  | 32.137     | 32.423     | 32.708     |   5.0 |  0.92
Other   |            | 9.259      |            |       |  0.26

Nlocal:    9826 ave 9840 max 9812 min
Histogram: 1 0 0 0 0 0 0 0 0 1
Nghost:    12905.5 ave 12938 max 12873 min
Histogram: 1 0 0 0 0 0 0 0 0 1
Neighs:    738611 ave 740513 max 736709 min
Histogram: 1 0 0 0 0 0 0 0 0 1

Total # of neighbors = 1477222
Ave neighs/atom = 75.169
Neighbor list builds = 49505
Dangerous builds not checked
Setting up Verlet run ...
  Unit style    : metal
  Current step  : 2240000
  Time step     : 0.001
Per MPI rank memory allocation (min/avg/max) = 11.35 | 11.36 | 11.36 Mbytes
Step Temp Press TotEng PotEng Enthalpy 
 2240000    250.17963    677.42903   -64730.034   -65365.513   -64588.855 
 2240495    223.66661   -497.84456    -64864.05   -65432.184   -64967.754 
Loop time of 36.0659 on 2 procs for 495 steps with 19652 atoms

Performance: 1.186 ns/day, 20.239 hours/ns, 13.725 timesteps/s
99.5% CPU use with 2 MPI tasks x no OpenMP threads

MPI task timing breakdown:
Section |  min time  |  avg time  |  max time  |%varavg| %total
---------------------------------------------------------------
Pair    | 19.504     | 19.716     | 19.929     |   4.8 | 54.67
Neigh   | 13.477     | 14.096     | 14.714     |  16.5 | 39.08
Comm    | 1.4114     | 1.8288     | 2.2462     |  30.9 |  5.07
Output  | 6.1989e-05 | 8.7976e-05 | 0.00011396 |   0.0 |  0.00
Modify  | 0.31871    | 0.33182    | 0.34494    |   2.3 |  0.92
Other   |            | 0.09313    |            |       |  0.26

Nlocal:    9826 ave 9842 max 9810 min
Histogram: 1 0 0 0 0 0 0 0 0 1
Nghost:    12936.5 ave 12953 max 12920 min
Histogram: 1 0 0 0 0 0 0 0 0 1
Neighs:    738942 ave 741004 max 736879 min
Histogram: 1 0 0 0 0 0 0 0 0 1

Total # of neighbors = 1477883
Ave neighs/atom = 75.2027
Neighbor list builds = 495
Dangerous builds not checked
Setting up Verlet run ...
  Unit style    : metal
  Current step  : 2240495
  Time step     : 0.001
Per MPI rank memory allocation (min/avg/max) = 11.35 | 11.36 | 11.36 Mbytes
Step Temp Press TotEng PotEng Enthalpy 
 2240495    223.66661   -497.84456    -64864.05   -65432.184   -64967.754 
 2250000    198.98736   -614.94719   -65001.021   -65506.467   -65128.828 
 2290000    198.20112    34.043546   -65003.428   -65506.876   -64996.358 
Loop time of 3556.88 on 2 procs for 49505 steps with 19652 atoms

Performance: 1.203 ns/day, 19.958 hours/ns, 13.918 timesteps/s
99.3% CPU use with 2 MPI tasks x no OpenMP threads

MPI task timing breakdown:
Section |  min time  |  avg time  |  max time  |%varavg| %total
---------------------------------------------------------------
Pair    | 1935.9     | 1936.4     | 1936.8     |   1.0 | 54.44
Neigh   | 1394.7     | 1399.5     | 1404.2     |  12.7 | 39.35
Comm    | 173.14     | 177.5      | 181.87     |  32.8 |  4.99
Output  | 0.076668   | 0.076705   | 0.076742   |   0.0 |  0.00
Modify  | 34.079     | 34.222     | 34.364     |   2.4 |  0.96
Other   |            | 9.238      |            |       |  0.26

Nlocal:    9826 ave 9838 max 9814 min
Histogram: 1 0 0 0 0 0 0 0 0 1
Nghost:    12950.5 ave 12990 max 12911 min
Histogram: 1 0 0 0 0 0 0 0 0 1
Neighs:    740842 ave 742532 max 739153 min
Histogram: 1 0 0 0 0 0 0 0 0 1

Total # of neighbors = 1481685
Ave neighs/atom = 75.3961
Neighbor list builds = 49505
Dangerous builds not checked
Setting up Verlet run ...
  Unit style    : metal
  Current step  : 2290000
  Time step     : 0.001
Per MPI rank memory allocation (min/avg/max) = 11.35 | 11.36 | 11.36 Mbytes
Step Temp Press TotEng PotEng Enthalpy 
 2290000    198.20112    34.043546   -65003.428   -65506.876   -64996.358 
 2290495    175.63443    52.185667   -65130.415   -65576.543   -65119.602 
Loop time of 35.1492 on 2 procs for 495 steps with 19652 atoms

Performance: 1.217 ns/day, 19.725 hours/ns, 14.083 timesteps/s
99.2% CPU use with 2 MPI tasks x no OpenMP threads

MPI task timing breakdown:
Section |  min time  |  avg time  |  max time  |%varavg| %total
---------------------------------------------------------------
Pair    | 19.074     | 19.229     | 19.383     |   3.5 | 54.71
Neigh   | 13.894     | 14.079     | 14.265     |   5.0 | 40.06
Comm    | 1.4075     | 1.4397     | 1.4719     |   2.7 |  4.10
Output  | 8.7976e-05 | 0.00013399 | 0.00018001 |   0.0 |  0.00
Modify  | 0.31734    | 0.31763    | 0.31793    |   0.1 |  0.90
Other   |            | 0.08378    |            |       |  0.24

Nlocal:    9826 ave 9848 max 9804 min
Histogram: 1 0 0 0 0 0 0 0 0 1
Nghost:    12978.5 ave 13005 max 12952 min
Histogram: 1 0 0 0 0 0 0 0 0 1
Neighs:    742014 ave 744220 max 739808 min
Histogram: 1 0 0 0 0 0 0 0 0 1

Total # of neighbors = 1484028
Ave neighs/atom = 75.5154
Neighbor list builds = 495
Dangerous builds not checked
Setting up Verlet run ...
  Unit style    : metal
  Current step  : 2290495
  Time step     : 0.001
Per MPI rank memory allocation (min/avg/max) = 11.35 | 11.36 | 11.36 Mbytes
Step Temp Press TotEng PotEng Enthalpy 
 2290495    175.63443    52.185667   -65130.415   -65576.543   -65119.602 
 2300000    150.84116    247.88039    -65269.76    -65652.91    -65218.52 
 2340000     150.4057     166.6145   -65267.471   -65649.515   -65233.026 
Loop time of 3448.42 on 2 procs for 49505 steps with 19652 atoms

Performance: 1.240 ns/day, 19.349 hours/ns, 14.356 timesteps/s
99.6% CPU use with 2 MPI tasks x no OpenMP threads

MPI task timing breakdown:
Section |  min time  |  avg time  |  max time  |%varavg| %total
---------------------------------------------------------------
Pair    | 1876.4     | 1877.7     | 1879       |   3.0 | 54.45
Neigh   | 1358.4     | 1368.6     | 1378.8     |  27.6 | 39.69
Comm    | 149.85     | 161.48     | 173.12     |  91.5 |  4.68
Output  | 0.044775   | 0.044827   | 0.044878   |   0.0 |  0.00
Modify  | 31.325     | 31.59      | 31.855     |   4.7 |  0.92
Other   |            | 9.032      |            |       |  0.26

Nlocal:    9826 ave 9839 max 9813 min
Histogram: 1 0 0 0 0 0 0 0 0 1
Nghost:    12977 ave 13010 max 12944 min
Histogram: 1 0 0 0 0 0 0 0 0 1
Neighs:    743692 ave 745407 max 741978 min
Histogram: 1 0 0 0 0 0 0 0 0 1

Total # of neighbors = 1487385
Ave neighs/atom = 75.6862
Neighbor list builds = 49505
Dangerous builds not checked
Setting up Verlet run ...
  Unit style    : metal
  Current step  : 2340000
  Time step     : 0.001
Per MPI rank memory allocation (min/avg/max) = 11.35 | 11.36 | 11.36 Mbytes
Step Temp Press TotEng PotEng Enthalpy 
 2340000     150.4057     166.6145   -65267.471   -65649.515   -65233.026 
 2340495    127.03374   -115.53541   -65387.991   -65710.669   -65411.836 
Loop time of 31.3206 on 2 procs for 495 steps with 19652 atoms

Performance: 1.365 ns/day, 17.576 hours/ns, 15.804 timesteps/s
100.0% CPU use with 2 MPI tasks x no OpenMP threads

MPI task timing breakdown:
Section |  min time  |  avg time  |  max time  |%varavg| %total
---------------------------------------------------------------
Pair    | 16.804     | 16.885     | 16.966     |   2.0 | 53.91
Neigh   | 12.528     | 13.025     | 13.523     |  13.8 | 41.59
Comm    | 0.61764    | 1.0416     | 1.4655     |  41.5 |  3.33
Output  | 8.7023e-05 | 0.00013196 | 0.00017691 |   0.0 |  0.00
Modify  | 0.27516    | 0.28442    | 0.29368    |   1.7 |  0.91
Other   |            | 0.08446    |            |       |  0.27

Nlocal:    9826 ave 9842 max 9810 min
Histogram: 1 0 0 0 0 0 0 0 0 1
Nghost:    12977.5 ave 13010 max 12945 min
Histogram: 1 0 0 0 0 0 0 0 0 1
Neighs:    744802 ave 746396 max 743209 min
Histogram: 1 0 0 0 0 0 0 0 0 1

Total # of neighbors = 1489605
Ave neighs/atom = 75.7992
Neighbor list builds = 495
Dangerous builds not checked
Setting up Verlet run ...
  Unit style    : metal
  Current step  : 2340495
  Time step     : 0.001
Per MPI rank memory allocation (min/avg/max) = 11.35 | 11.36 | 11.36 Mbytes
Step Temp Press TotEng PotEng Enthalpy 
 2340495    127.03374   -115.53541   -65387.991   -65710.669   -65411.836 
 2350000    100.56772    293.48275   -65531.158   -65786.609   -65470.757 
 2390000    100.01085   -177.38104   -65528.611   -65782.648   -65565.148 
Loop time of 3439.6 on 2 procs for 49505 steps with 19652 atoms

Performance: 1.244 ns/day, 19.300 hours/ns, 14.393 timesteps/s
99.6% CPU use with 2 MPI tasks x no OpenMP threads

MPI task timing breakdown:
Section |  min time  |  avg time  |  max time  |%varavg| %total
---------------------------------------------------------------
Pair    | 1870.4     | 1875.8     | 1881.1     |  12.3 | 54.53
Neigh   | 1371.9     | 1374.1     | 1376.2     |   5.8 | 39.95
Comm    | 145.9      | 149.2      | 152.5      |  27.0 |  4.34
Output  | 0.047708   | 0.047765   | 0.047822   |   0.0 |  0.00
Modify  | 31.578     | 31.641     | 31.704     |   1.1 |  0.92
Other   |            | 8.869      |            |       |  0.26

Nlocal:    9826 ave 9846 max 9806 min
Histogram: 1 0 0 0 0 0 0 0 0 1
Nghost:    12982 ave 13008 max 12956 min
Histogram: 1 0 0 0 0 0 0 0 0 1
Neighs:    745834 ave 747945 max 743722 min
Histogram: 1 0 0 0 0 0 0 0 0 1

Total # of neighbors = 1491667
Ave neighs/atom = 75.9041
Neighbor list builds = 49505
Dangerous builds not checked
Total wall time: 47:03:11
