LAMMPS (12 Dec 2018)
Lattice spacing in x,y,z = 4 4 4
Created orthogonal box = (0 0 0) to (68 68 68)
  1 by 1 by 2 MPI processor grid
Created 19652 atoms
  Time spent = 0.00147891 secs
Setting atom values ...
  19652 settings made for type/fraction
Neighbor list info ...
  update every 1 steps, delay 0 steps, check no
  max neighbors/atom: 2000, page size: 100000
  master list distance cutoff = 10
  ghost atom cutoff = 10
  binsize = 5, bins = 14 14 14
  1 neighbor lists, perpetual/occasional/extra = 1 0 0
  (1) pair eam/fs, perpetual
      attributes: half, newton on
      pair build: half/bin/atomonly/newton
      stencil: half/bin/3d/newton
      bin: standard
Setting up Verlet run ...
  Unit style    : metal
  Current step  : 0
  Time step     : 0.001
Per MPI rank memory allocation (min/avg/max) = 12.91 | 12.92 | 12.92 Mbytes
Step Temp Press TotEng PotEng Enthalpy Volume 
       0          300    1544502.8    6089.0621    5327.0348    309202.42       314432 
     667    149.30271    1539070.6    6089.1735     5709.931    308136.44       314432 
    1000    150.20641    1538551.5    6089.1743    5707.6364    308034.58       314432 
Loop time of 159.226 on 2 procs for 1000 steps with 19652 atoms

Performance: 0.543 ns/day, 44.229 hours/ns, 6.280 timesteps/s
97.5% CPU use with 2 MPI tasks x no OpenMP threads

MPI task timing breakdown:
Section |  min time  |  avg time  |  max time  |%varavg| %total
---------------------------------------------------------------
Pair    | 97.495     | 98.366     | 99.236     |   8.8 | 61.78
Neigh   | 55.72      | 56.031     | 56.343     |   4.2 | 35.19
Comm    | 3.1773     | 4.3561     | 5.535      |  56.5 |  2.74
Output  | 0.039801   | 0.039883   | 0.039966   |   0.0 |  0.03
Modify  | 0.21603    | 0.21645    | 0.21686    |   0.1 |  0.14
Other   |            | 0.2162     |            |       |  0.14

Nlocal:    9826 ave 9832 max 9820 min
Histogram: 1 0 0 0 0 0 0 0 0 1
Nghost:    16295.5 ave 16340 max 16251 min
Histogram: 1 0 0 0 0 0 0 0 0 1
Neighs:    1.21907e+06 ave 1.23825e+06 max 1.19989e+06 min
Histogram: 1 0 0 0 0 0 0 0 0 1

Total # of neighbors = 2438147
Ave neighs/atom = 124.066
Neighbor list builds = 1000
Dangerous builds not checked
Setting up Verlet run ...
  Unit style    : metal
  Current step  : 1000
  Time step     : 0.001
Per MPI rank memory allocation (min/avg/max) = 12.92 | 12.93 | 12.93 Mbytes
Step Temp Press TotEng PotEng Enthalpy Volume 
    1000    150.20641    1538551.5    6089.1743    5707.6364    308034.58       314432 
    1334     165.4287    97005.229   -93073.201   -93493.405   -56315.705    607101.26 
    2000    291.42143    19.086509   -94905.726   -95645.963   -94897.265    710306.43 
Loop time of 95.864 on 2 procs for 1000 steps with 19652 atoms

Performance: 0.901 ns/day, 26.629 hours/ns, 10.431 timesteps/s
98.6% CPU use with 2 MPI tasks x no OpenMP threads

MPI task timing breakdown:
Section |  min time  |  avg time  |  max time  |%varavg| %total
---------------------------------------------------------------
Pair    | 55.226     | 55.625     | 56.023     |   5.3 | 58.02
Neigh   | 35.703     | 35.902     | 36.1       |   3.3 | 37.45
Comm    | 2.6628     | 3.2026     | 3.7424     |  30.2 |  3.34
Output  | 0.028563   | 0.028601   | 0.028638   |   0.0 |  0.03
Modify  | 0.84825    | 0.90451    | 0.96078    |   5.9 |  0.94
Other   |            | 0.202      |            |       |  0.21

Nlocal:    9826 ave 9828 max 9824 min
Histogram: 1 0 0 0 0 0 0 0 0 1
Nghost:    10378 ave 10382 max 10374 min
Histogram: 1 0 0 0 0 0 0 0 0 1
Neighs:    596782 ave 602448 max 591116 min
Histogram: 1 0 0 0 0 0 0 0 0 1

Total # of neighbors = 1193564
Ave neighs/atom = 60.735
Neighbor list builds = 1000
Dangerous builds not checked
Setting up Verlet run ...
  Unit style    : metal
  Current step  : 2000
  Time step     : 0.001
Per MPI rank memory allocation (min/avg/max) = 12.94 | 12.94 | 12.95 Mbytes
Step Temp Press TotEng PotEng Enthalpy Volume 
    2000    291.42143    19.086509   -94905.726   -95645.963   -94897.265    710306.43 
    2001    291.43242    17.825187   -94905.724   -95645.989   -94897.822    710306.45 
    2668    400.40998    96.750359   -94472.186   -95489.263   -94429.227    711397.19 
    3335    587.87367    161.96591   -93532.345   -95025.597   -93460.168     713972.2 
    4002    809.53018   -335.40878   -92410.299    -94466.58    -92560.67    718290.74 
    4669    1003.9434   -504.14744   -91404.298   -93954.405   -91631.315    721460.74 
    5336     1189.383   -722.56534   -90431.815   -93452.956    -90758.79    725016.73 
    6003    1359.2396   -356.33239    -89502.79   -92955.383     -89664.7    727994.85 
    6670    1547.5369   -451.29428   -88543.271   -92474.155    -88749.38    731725.21 
    7337      1718.78   -151.95744   -87629.959   -91995.816   -87699.653    734827.26 
    8004      1922.68    227.03439   -86542.162   -91425.944   -86437.532     738371.1 
    8671    2095.6215     789.8426   -85699.153   -91022.222   -85333.858    740991.36 
    9338    2274.6803    152.21658   -84587.898   -90365.793   -84516.957    746691.89 
   10000    2440.5372   -1587.2951   -83476.639   -89675.826   -84224.384    754755.51 
Loop time of 649.048 on 2 procs for 8000 steps with 19652 atoms

Performance: 1.065 ns/day, 22.536 hours/ns, 12.326 timesteps/s
98.1% CPU use with 2 MPI tasks x no OpenMP threads

MPI task timing breakdown:
Section |  min time  |  avg time  |  max time  |%varavg| %total
---------------------------------------------------------------
Pair    | 380.98     | 383.33     | 385.68     |  12.0 | 59.06
Neigh   | 236.26     | 236.77     | 237.28     |   3.3 | 36.48
Comm    | 18.848     | 20.609     | 22.369     |  38.8 |  3.18
Output  | 0.41369    | 0.414      | 0.41431    |   0.0 |  0.06
Modify  | 6.2805     | 6.3436     | 6.4066     |   2.5 |  0.98
Other   |            | 1.582      |            |       |  0.24

Nlocal:    9826 ave 9830 max 9822 min
Histogram: 1 0 0 0 0 0 0 0 0 1
Nghost:    10600.5 ave 10617 max 10584 min
Histogram: 1 0 0 0 0 0 0 0 0 1
Neighs:    532665 ave 533387 max 531943 min
Histogram: 1 0 0 0 0 0 0 0 0 1

Total # of neighbors = 1065330
Ave neighs/atom = 54.2097
Neighbor list builds = 8000
Dangerous builds not checked
Setting up Verlet run ...
  Unit style    : metal
  Current step  : 10000
  Time step     : 0.001
Per MPI rank memory allocation (min/avg/max) = 12.95 | 12.96 | 12.96 Mbytes
Step Temp Press TotEng PotEng Enthalpy Volume 
   10000    2440.5372   -1587.2951   -83476.639   -89675.826   -84224.384    754755.51 
   10005    2436.0096   -1555.0043   -83476.573   -89664.259   -84209.102    754750.44 
   10672    2433.9762    517.50079   -83521.799    -89704.32   -83279.279    750838.04 
   11339     2454.115     868.7944   -83400.278   -89633.954   -82993.067     750953.3 
   12006    2431.3966   -676.73675   -83592.248   -89768.217   -83910.049    752395.24 
   12673     2461.891   -184.67858   -83432.826   -89686.253    -83519.55    752379.75 
   13340    2463.9983    104.95445   -83518.185   -89776.966   -83468.978    751165.12 
   14007    2419.4421   -764.60794   -83541.925   -89687.529   -83901.345    753136.94 
   14674    2471.3763   -418.94918   -83450.464   -89727.985   -83647.163    752230.71 
   15341    2456.0875    495.49918   -83447.462   -89686.148   -83215.221    750941.97 
   16008    2486.6508   -1323.0552   -83383.946   -89700.265   -84006.733    754175.03 
   16675    2444.3367   -133.50173   -83409.659   -89618.497    -83472.36    752481.76 
   17342    2461.3613    473.17701   -83446.096   -89698.178   -83224.295    751018.88 
   18009    2456.4149    -909.1258    -83451.88   -89691.397    -83879.64     753853.4 
   18676    2472.3321    -318.1681   -83440.493   -89720.441   -83589.925    752488.68 
   19343    2454.2805    825.57154   -83461.383   -89695.479   -83074.704    750422.56 
   20010    2463.9796   -620.13476   -83517.545   -89776.277   -83808.926    752811.82 
   20677    2462.6662    -433.7184   -83420.209   -89675.606   -83623.894     752421.7 
   21344    2451.1181    772.00194   -83423.143   -89649.207   -83061.314    750923.76 
   22011    2454.6437   -1575.4018   -83463.903   -89698.922   -84205.941    754649.63 
   22678    2439.5937    530.29461   -83544.422   -89741.212   -83295.867    750958.44 
   23345    2421.2435    687.07703   -83468.194   -89618.373   -83146.028    751248.28 
   24012    2455.8549   -143.52978    -83506.15   -89744.245    -83573.51    751923.47 
   24679    2473.5831   -500.25159   -83486.252   -89769.379   -83721.155    752332.38 
   25346    2444.3444    172.17322   -83490.263    -89699.12   -83409.505    751504.35 
   26013    2452.8702   -276.16286   -83469.408   -89699.922    -83599.09    752357.37 
   26680    2455.2741    972.23474   -83488.716   -89725.336   -83033.385     750354.7 
   27347    2456.6254   -311.69546   -83523.692   -89763.745   -83669.976    751927.03 
   28014    2435.3214   -775.55266   -83555.707   -89741.645   -83920.163    752910.72 
   28681    2472.5996    552.86733   -83451.467   -89732.095   -83192.381     750816.2 
   29348    2445.1122    583.92506   -83452.099   -89662.906   -83178.386    751015.52 
   30015    2451.8337   -1867.7598   -83512.218   -89740.099   -84391.971    754657.86 
   30682    2445.1943    893.01734   -83510.298   -89721.314   -83092.139    750224.76 
   31349    2464.1697    72.420359   -83440.599   -89699.814   -83406.625    751606.55 
   32016    2441.4613   -726.48202   -83519.428   -89720.962   -83860.752     752752.1 
   32683    2480.9937    825.20486    -83323.93    -89625.88   -82937.037    751171.89 
   33350    2426.4401   -498.96417   -83549.954   -89713.332    -83784.24    752293.83 
   34017    2448.5445   -403.27806   -83355.403   -89574.929   -83544.991    753214.43 
   34684    2471.0691     1533.147   -83453.041   -89729.781   -82735.954    749373.07 
   35351     2450.436   -523.34494   -83516.493   -89740.824     -83762.2    752211.56 
   36018    2448.6047   -202.61288   -83547.377   -89767.056   -83642.426    751602.99 
   36685     2447.065    1094.3764   -83589.865   -89805.633   -83077.897    749525.94 
   37352     2441.138   -296.91868    -83461.67   -89662.383   -83601.081    752263.09 
   38019    2447.9754    -1245.367   -83506.996   -89725.077   -84092.848    753704.18 
   38686    2434.8029    1049.7412   -83491.309    -89675.93   -82999.899    750018.49 
   39353    2418.5993   -264.75557   -83519.196   -89662.659   -83643.541    752474.94 
   40000     2444.281   -536.61455   -83507.816   -89716.513   -83759.869    752557.19 
Loop time of 2311.85 on 2 procs for 30000 steps with 19652 atoms

Performance: 1.121 ns/day, 21.406 hours/ns, 12.977 timesteps/s
98.4% CPU use with 2 MPI tasks x no OpenMP threads

MPI task timing breakdown:
Section |  min time  |  avg time  |  max time  |%varavg| %total
---------------------------------------------------------------
Pair    | 1384.7     | 1388.7     | 1392.8     |  10.9 | 60.07
Neigh   | 825.79     | 826.73     | 827.67     |   3.3 | 35.76
Comm    | 58.971     | 64.033     | 69.096     |  63.3 |  2.77
Output  | 2.1549     | 2.1566     | 2.1583     |   0.1 |  0.09
Modify  | 24.108     | 24.153     | 24.199     |   0.9 |  1.04
Other   |            | 6.041      |            |       |  0.26

Nlocal:    9826 ave 9827 max 9825 min
Histogram: 1 0 0 0 0 0 0 0 0 1
Nghost:    10481 ave 10500 max 10462 min
Histogram: 1 0 0 0 0 0 0 0 0 1
Neighs:    534687 ave 534836 max 534538 min
Histogram: 1 0 0 0 0 0 0 0 0 1

Total # of neighbors = 1069374
Ave neighs/atom = 54.4155
Neighbor list builds = 30000
Dangerous builds not checked
Setting up Verlet run ...
  Unit style    : metal
  Current step  : 40000
  Time step     : 0.001
Per MPI rank memory allocation (min/avg/max) = 12.95 | 12.96 | 12.96 Mbytes
Step Temp Press TotEng PotEng Enthalpy Volume 
   40000     2444.281   -536.61455   -83507.816   -89716.513   -83759.869    752557.19 
   40020    2438.4921   -520.24049   -83507.098    -89701.09   -83751.451    752530.22 
   40495    2403.6897   -538.23255   -83718.415   -89824.006   -83970.813     751322.4 
Loop time of 38.0586 on 2 procs for 495 steps with 19652 atoms

Performance: 1.124 ns/day, 21.357 hours/ns, 13.006 timesteps/s
98.6% CPU use with 2 MPI tasks x no OpenMP threads

MPI task timing breakdown:
Section |  min time  |  avg time  |  max time  |%varavg| %total
---------------------------------------------------------------
Pair    | 22.892     | 22.969     | 23.047     |   1.6 | 60.35
Neigh   | 13.491     | 13.544     | 13.596     |   1.4 | 35.59
Comm    | 0.88763    | 1.0192     | 1.1508     |  13.0 |  2.68
Output  | 0.034998   | 0.0351     | 0.035202   |   0.1 |  0.09
Modify  | 0.38927    | 0.39112    | 0.39297    |   0.3 |  1.03
Other   |            | 0.1003     |            |       |  0.26

Nlocal:    9826 ave 9829 max 9823 min
Histogram: 1 0 0 0 0 0 0 0 0 1
Nghost:    10478.5 ave 10493 max 10464 min
Histogram: 1 0 0 0 0 0 0 0 0 1
Neighs:    535610 ave 535738 max 535481 min
Histogram: 1 0 0 0 0 0 0 0 0 1

Total # of neighbors = 1071219
Ave neighs/atom = 54.5094
Neighbor list builds = 495
Dangerous builds not checked
Setting up Verlet run ...
  Unit style    : metal
  Current step  : 40495
  Time step     : 0.001
Per MPI rank memory allocation (min/avg/max) = 12.95 | 12.96 | 12.96 Mbytes
Step Temp Press TotEng PotEng Enthalpy Volume 
   40495    2403.6897   -538.23255   -83718.415   -89824.006   -83970.813     751322.4 
   40667    2386.3476    28.266106   -83809.739   -89871.279     -83796.5    750385.85 
Loop time of 12.9208 on 2 procs for 172 steps with 19652 atoms

Performance: 1.150 ns/day, 20.867 hours/ns, 13.312 timesteps/s
99.9% CPU use with 2 MPI tasks x no OpenMP threads

MPI task timing breakdown:
Section |  min time  |  avg time  |  max time  |%varavg| %total
---------------------------------------------------------------
Pair    | 7.719      | 7.7789     | 7.8387     |   2.1 | 60.20
Neigh   | 4.625      | 4.6466     | 4.6681     |   1.0 | 35.96
Comm    | 0.23933    | 0.3217     | 0.40408    |  14.5 |  2.49
Output  | 8.297e-05  | 0.00017488 | 0.00026679 |   0.0 |  0.00
Modify  | 0.13775    | 0.13821    | 0.13867    |   0.1 |  1.07
Other   |            | 0.03526    |            |       |  0.27

Nlocal:    9826 ave 9842 max 9810 min
Histogram: 1 0 0 0 0 0 0 0 0 1
Nghost:    10500 ave 10512 max 10488 min
Histogram: 1 0 0 0 0 0 0 0 0 1
Neighs:    536395 ave 537566 max 535224 min
Histogram: 1 0 0 0 0 0 0 0 0 1

Total # of neighbors = 1072790
Ave neighs/atom = 54.5894
Neighbor list builds = 172
Dangerous builds not checked
Setting up Verlet run ...
  Unit style    : metal
  Current step  : 40667
  Time step     : 0.001
Per MPI rank memory allocation (min/avg/max) = 12.95 | 12.96 | 12.96 Mbytes
Step Temp Press TotEng PotEng Enthalpy Volume 
   40667    2386.3476    28.266106   -83809.739   -89871.279     -83796.5    750385.85 
   40687    2393.1068   -11.054225   -83808.634   -89887.344   -83813.812    750386.49 
   41162    2363.3187    518.49341   -84037.994   -90041.038   -83795.766    748497.22 
Loop time of 38.204 on 2 procs for 495 steps with 19652 atoms

Performance: 1.119 ns/day, 21.439 hours/ns, 12.957 timesteps/s
98.5% CPU use with 2 MPI tasks x no OpenMP threads

MPI task timing breakdown:
Section |  min time  |  avg time  |  max time  |%varavg| %total
---------------------------------------------------------------
Pair    | 22.565     | 22.637     | 22.709     |   1.5 | 59.25
Neigh   | 13.398     | 13.408     | 13.418     |   0.3 | 35.10
Comm    | 1.5295     | 1.6045     | 1.6795     |   5.9 |  4.20
Output  | 0.036248   | 0.036349   | 0.03645    |   0.1 |  0.10
Modify  | 0.40346    | 0.41779    | 0.43211    |   2.2 |  1.09
Other   |            | 0.1001     |            |       |  0.26

Nlocal:    9826 ave 9898 max 9754 min
Histogram: 1 0 0 0 0 0 0 0 0 1
Nghost:    10508.5 ave 10564 max 10453 min
Histogram: 1 0 0 0 0 0 0 0 0 1
Neighs:    538478 ave 544697 max 532260 min
Histogram: 1 0 0 0 0 0 0 0 0 1

Total # of neighbors = 1076957
Ave neighs/atom = 54.8014
Neighbor list builds = 495
Dangerous builds not checked
Setting up Verlet run ...
  Unit style    : metal
  Current step  : 41162
  Time step     : 0.001
Per MPI rank memory allocation (min/avg/max) = 12.95 | 12.96 | 12.96 Mbytes
Step Temp Press TotEng PotEng Enthalpy Volume 
   41162    2363.3187    518.49341   -84037.994   -90041.038   -83795.766    748497.22 
   41334    2331.2806   -274.89245   -84128.966   -90050.631   -84257.571    749560.37 
Loop time of 12.5093 on 2 procs for 172 steps with 19652 atoms

Performance: 1.188 ns/day, 20.202 hours/ns, 13.750 timesteps/s
99.0% CPU use with 2 MPI tasks x no OpenMP threads

MPI task timing breakdown:
Section |  min time  |  avg time  |  max time  |%varavg| %total
---------------------------------------------------------------
Pair    | 7.4987     | 7.5144     | 7.5302     |   0.6 | 60.07
Neigh   | 4.5924     | 4.6066     | 4.6208     |   0.7 | 36.83
Comm    | 0.18819    | 0.21842    | 0.24864    |   6.5 |  1.75
Output  | 7.2002e-05 | 0.00010192 | 0.00013185 |   0.0 |  0.00
Modify  | 0.13503    | 0.13509    | 0.13516    |   0.0 |  1.08
Other   |            | 0.0347     |            |       |  0.28

Nlocal:    9826 ave 9857 max 9795 min
Histogram: 1 0 0 0 0 0 0 0 0 1
Nghost:    10504 ave 10510 max 10498 min
Histogram: 1 0 0 0 0 0 0 0 0 1
Neighs:    537220 ave 540445 max 533994 min
Histogram: 1 0 0 0 0 0 0 0 0 1

Total # of neighbors = 1074439
Ave neighs/atom = 54.6733
Neighbor list builds = 172
Dangerous builds not checked
Setting up Verlet run ...
  Unit style    : metal
  Current step  : 41334
  Time step     : 0.001
Per MPI rank memory allocation (min/avg/max) = 12.95 | 12.96 | 12.96 Mbytes
Step Temp Press TotEng PotEng Enthalpy Volume 
   41334    2331.2806   -274.89245   -84128.966   -90050.631   -84257.571    749560.37 
   41354    2329.9234   -236.63252   -84127.095   -90045.313   -84237.799    749546.63 
   41829    2311.3234   -212.55746   -84332.088    -90203.06   -84431.418     748712.2 
Loop time of 37.9633 on 2 procs for 495 steps with 19652 atoms

Performance: 1.127 ns/day, 21.304 hours/ns, 13.039 timesteps/s
98.7% CPU use with 2 MPI tasks x no OpenMP threads

MPI task timing breakdown:
Section |  min time  |  avg time  |  max time  |%varavg| %total
---------------------------------------------------------------
Pair    | 22.38      | 22.493     | 22.607     |   2.4 | 59.25
Neigh   | 13.476     | 13.506     | 13.537     |   0.8 | 35.58
Comm    | 0.76195    | 0.84339    | 0.92484    |   8.9 |  2.22
Output  | 0.63138    | 0.63147    | 0.63156    |   0.0 |  1.66
Modify  | 0.38697    | 0.38853    | 0.39009    |   0.3 |  1.02
Other   |            | 0.1001     |            |       |  0.26

Nlocal:    9826 ave 9832 max 9820 min
Histogram: 1 0 0 0 0 0 0 0 0 1
Nghost:    10464 ave 10465 max 10463 min
Histogram: 1 0 0 0 0 0 0 0 0 1
Neighs:    538261 ave 538837 max 537685 min
Histogram: 1 0 0 0 0 0 0 0 0 1

Total # of neighbors = 1076522
Ave neighs/atom = 54.7793
Neighbor list builds = 495
Dangerous builds not checked
Setting up Verlet run ...
  Unit style    : metal
  Current step  : 41829
  Time step     : 0.001
Per MPI rank memory allocation (min/avg/max) = 12.95 | 12.96 | 12.96 Mbytes
Step Temp Press TotEng PotEng Enthalpy Volume 
   41829    2311.3234   -212.55746   -84332.088    -90203.06   -84431.418     748712.2 
   42001    2281.5162    309.33341    -84402.41   -90197.669   -84258.047    747720.84 
Loop time of 12.4073 on 2 procs for 172 steps with 19652 atoms

Performance: 1.198 ns/day, 20.038 hours/ns, 13.863 timesteps/s
99.9% CPU use with 2 MPI tasks x no OpenMP threads

MPI task timing breakdown:
Section |  min time  |  avg time  |  max time  |%varavg| %total
---------------------------------------------------------------
Pair    | 7.478      | 7.4852     | 7.4924     |   0.3 | 60.33
Neigh   | 4.5413     | 4.565      | 4.5887     |   1.1 | 36.79
Comm    | 0.15574    | 0.1884     | 0.22106    |   7.5 |  1.52
Output  | 8.1062e-05 | 0.00011456 | 0.00014806 |   0.0 |  0.00
Modify  | 0.13273    | 0.1343     | 0.13586    |   0.4 |  1.08
Other   |            | 0.03428    |            |       |  0.28

Nlocal:    9826 ave 9840 max 9812 min
Histogram: 1 0 0 0 0 0 0 0 0 1
Nghost:    10475 ave 10495 max 10455 min
Histogram: 1 0 0 0 0 0 0 0 0 1
Neighs:    539299 ave 539865 max 538733 min
Histogram: 1 0 0 0 0 0 0 0 0 1

Total # of neighbors = 1078598
Ave neighs/atom = 54.8849
Neighbor list builds = 172
Dangerous builds not checked
Setting up Verlet run ...
  Unit style    : metal
  Current step  : 42001
  Time step     : 0.001
Per MPI rank memory allocation (min/avg/max) = 12.95 | 12.96 | 12.96 Mbytes
Step Temp Press TotEng PotEng Enthalpy Volume 
   42001    2281.5162    309.33341    -84402.41   -90197.669   -84258.047    747720.84 
   42021    2296.2459    292.15532     -84401.1   -90233.774    -84264.75    747737.55 
   42496    2251.4104    424.71511   -84609.386   -90328.174   -84411.548    746316.12 
Loop time of 36.7731 on 2 procs for 495 steps with 19652 atoms

Performance: 1.163 ns/day, 20.636 hours/ns, 13.461 timesteps/s
98.5% CPU use with 2 MPI tasks x no OpenMP threads

MPI task timing breakdown:
Section |  min time  |  avg time  |  max time  |%varavg| %total
---------------------------------------------------------------
Pair    | 21.911     | 21.976     | 22.042     |   1.4 | 59.76
Neigh   | 13.097     | 13.255     | 13.412     |   4.3 | 36.04
Comm    | 0.79657    | 1.0236     | 1.2507     |  22.4 |  2.78
Output  | 0.034533   | 0.034692   | 0.034851   |   0.1 |  0.09
Modify  | 0.38221    | 0.38535    | 0.38849    |   0.5 |  1.05
Other   |            | 0.09828    |            |       |  0.27

Nlocal:    9826 ave 9834 max 9818 min
Histogram: 1 0 0 0 0 0 0 0 0 1
Nghost:    10488.5 ave 10493 max 10484 min
Histogram: 1 0 0 0 0 0 0 0 0 1
Neighs:    540502 ave 541513 max 539492 min
Histogram: 1 0 0 0 0 0 0 0 0 1

Total # of neighbors = 1081005
Ave neighs/atom = 55.0074
Neighbor list builds = 495
Dangerous builds not checked
Setting up Verlet run ...
  Unit style    : metal
  Current step  : 42496
  Time step     : 0.001
Per MPI rank memory allocation (min/avg/max) = 12.95 | 12.96 | 12.96 Mbytes
Step Temp Press TotEng PotEng Enthalpy Volume 
   42496    2251.4104    424.71511   -84609.386   -90328.174   -84411.548    746316.12 
   42668    2250.7347   -246.10018   -84690.859    -90407.93   -84805.596    746970.81 
Loop time of 12.4016 on 2 procs for 172 steps with 19652 atoms

Performance: 1.198 ns/day, 20.028 hours/ns, 13.869 timesteps/s
100.0% CPU use with 2 MPI tasks x no OpenMP threads

MPI task timing breakdown:
Section |  min time  |  avg time  |  max time  |%varavg| %total
---------------------------------------------------------------
Pair    | 7.4193     | 7.4508     | 7.4822     |   1.2 | 60.08
Neigh   | 4.5087     | 4.5495     | 4.5903     |   1.9 | 36.69
Comm    | 0.1585     | 0.23217    | 0.30585    |  15.3 |  1.87
Output  | 7.6056e-05 | 0.00011802 | 0.00015998 |   0.0 |  0.00
Modify  | 0.13382    | 0.13491    | 0.136      |   0.3 |  1.09
Other   |            | 0.03407    |            |       |  0.27

Nlocal:    9826 ave 9842 max 9810 min
Histogram: 1 0 0 0 0 0 0 0 0 1
Nghost:    10481 ave 10498 max 10464 min
Histogram: 1 0 0 0 0 0 0 0 0 1
Neighs:    540046 ave 541722 max 538371 min
Histogram: 1 0 0 0 0 0 0 0 0 1

Total # of neighbors = 1080093
Ave neighs/atom = 54.961
Neighbor list builds = 172
Dangerous builds not checked
Setting up Verlet run ...
  Unit style    : metal
  Current step  : 42668
  Time step     : 0.001
Per MPI rank memory allocation (min/avg/max) = 12.95 | 12.96 | 12.96 Mbytes
Step Temp Press TotEng PotEng Enthalpy Volume 
   42668    2250.7347   -246.10018   -84690.859    -90407.93   -84805.596    746970.81 
   42688    2250.0814   -222.64464   -84691.029   -90406.441   -84794.829    746957.44 
   43163    2219.1364   -52.256018     -84922.4   -90559.209   -84946.716    745509.66 
Loop time of 36.7386 on 2 procs for 495 steps with 19652 atoms

Performance: 1.164 ns/day, 20.616 hours/ns, 13.474 timesteps/s
98.4% CPU use with 2 MPI tasks x no OpenMP threads

MPI task timing breakdown:
Section |  min time  |  avg time  |  max time  |%varavg| %total
---------------------------------------------------------------
Pair    | 21.664     | 21.758     | 21.852     |   2.0 | 59.22
Neigh   | 13.14      | 13.153     | 13.165     |   0.3 | 35.80
Comm    | 1.2274     | 1.3095     | 1.3917     |   7.2 |  3.56
Output  | 0.0363     | 0.036353   | 0.036405   |   0.0 |  0.10
Modify  | 0.38428    | 0.3848     | 0.38532    |   0.1 |  1.05
Other   |            | 0.09732    |            |       |  0.26

Nlocal:    9826 ave 9836 max 9816 min
Histogram: 1 0 0 0 0 0 0 0 0 1
Nghost:    10446 ave 10462 max 10430 min
Histogram: 1 0 0 0 0 0 0 0 0 1
Neighs:    541512 ave 542542 max 540483 min
Histogram: 1 0 0 0 0 0 0 0 0 1

Total # of neighbors = 1083025
Ave neighs/atom = 55.1102
Neighbor list builds = 495
Dangerous builds not checked
Setting up Verlet run ...
  Unit style    : metal
  Current step  : 43163
  Time step     : 0.001
Per MPI rank memory allocation (min/avg/max) = 12.95 | 12.96 | 12.96 Mbytes
Step Temp Press TotEng PotEng Enthalpy Volume 
   43163    2219.1364   -52.256018     -84922.4   -90559.209   -84946.716    745509.66 
   43335     2204.722    37.211033   -84977.258   -90577.452   -84959.951    745179.74 
Loop time of 12.404 on 2 procs for 172 steps with 19652 atoms

Performance: 1.198 ns/day, 20.032 hours/ns, 13.867 timesteps/s
99.9% CPU use with 2 MPI tasks x no OpenMP threads

MPI task timing breakdown:
Section |  min time  |  avg time  |  max time  |%varavg| %total
---------------------------------------------------------------
Pair    | 7.4631     | 7.4638     | 7.4646     |   0.0 | 60.17
Neigh   | 4.4964     | 4.552      | 4.6075     |   2.6 | 36.70
Comm    | 0.16277    | 0.21896    | 0.27515    |  12.0 |  1.77
Output  | 7.7963e-05 | 0.000157   | 0.00023603 |   0.0 |  0.00
Modify  | 0.13385    | 0.13469    | 0.13554    |   0.2 |  1.09
Other   |            | 0.03434    |            |       |  0.28

Nlocal:    9826 ave 9854 max 9798 min
Histogram: 1 0 0 0 0 0 0 0 0 1
Nghost:    10467.5 ave 10480 max 10455 min
Histogram: 1 0 0 0 0 0 0 0 0 1
Neighs:    541688 ave 543656 max 539719 min
Histogram: 1 0 0 0 0 0 0 0 0 1

Total # of neighbors = 1083375
Ave neighs/atom = 55.128
Neighbor list builds = 172
Dangerous builds not checked
Setting up Verlet run ...
  Unit style    : metal
  Current step  : 43335
  Time step     : 0.001
Per MPI rank memory allocation (min/avg/max) = 12.95 | 12.96 | 12.96 Mbytes
Step Temp Press TotEng PotEng Enthalpy Volume 
   43335     2204.722    37.211033   -84977.258   -90577.452   -84959.951    745179.74 
   43355    2207.9395   -30.934557   -84977.936   -90586.303   -84992.324    745180.87 
   43830    2154.3363   -339.52497    -85200.86    -90673.07   -85358.619    744446.64 
Loop time of 37.4473 on 2 procs for 495 steps with 19652 atoms

Performance: 1.142 ns/day, 21.014 hours/ns, 13.219 timesteps/s
97.2% CPU use with 2 MPI tasks x no OpenMP threads

MPI task timing breakdown:
Section |  min time  |  avg time  |  max time  |%varavg| %total
---------------------------------------------------------------
Pair    | 22.248     | 22.317     | 22.386     |   1.5 | 59.59
Neigh   | 13.112     | 13.22      | 13.329     |   3.0 | 35.30
Comm    | 1.2086     | 1.389      | 1.5694     |  15.3 |  3.71
Output  | 0.035916   | 0.03597    | 0.036024   |   0.0 |  0.10
Modify  | 0.38612    | 0.38696    | 0.38781    |   0.1 |  1.03
Other   |            | 0.09841    |            |       |  0.26

Nlocal:    9826 ave 9850 max 9802 min
Histogram: 1 0 0 0 0 0 0 0 0 1
Nghost:    10459.5 ave 10475 max 10444 min
Histogram: 1 0 0 0 0 0 0 0 0 1
Neighs:    542692 ave 544450 max 540933 min
Histogram: 1 0 0 0 0 0 0 0 0 1

Total # of neighbors = 1085383
Ave neighs/atom = 55.2302
Neighbor list builds = 495
Dangerous builds not checked
Setting up Verlet run ...
  Unit style    : metal
  Current step  : 43830
  Time step     : 0.001
Per MPI rank memory allocation (min/avg/max) = 12.95 | 12.96 | 12.96 Mbytes
Step Temp Press TotEng PotEng Enthalpy Volume 
   43830    2154.3363   -339.52497    -85200.86    -90673.07   -85358.619    744446.64 
   44002     2148.356    144.87512   -85266.661   -90723.681   -85199.412    743702.26 
Loop time of 12.5 on 2 procs for 172 steps with 19652 atoms

Performance: 1.189 ns/day, 20.187 hours/ns, 13.760 timesteps/s
99.9% CPU use with 2 MPI tasks x no OpenMP threads

MPI task timing breakdown:
Section |  min time  |  avg time  |  max time  |%varavg| %total
---------------------------------------------------------------
Pair    | 7.5102     | 7.5321     | 7.554      |   0.8 | 60.26
Neigh   | 4.4867     | 4.5063     | 4.5259     |   0.9 | 36.05
Comm    | 0.25108    | 0.29337    | 0.33566    |   7.8 |  2.35
Output  | 7.8917e-05 | 0.00016046 | 0.00024199 |   0.0 |  0.00
Modify  | 0.13344    | 0.13392    | 0.1344     |   0.1 |  1.07
Other   |            | 0.03416    |            |       |  0.27

Nlocal:    9826 ave 9827 max 9825 min
Histogram: 1 0 0 0 0 0 0 0 0 1
Nghost:    10484.5 ave 10501 max 10468 min
Histogram: 1 0 0 0 0 0 0 0 0 1
Neighs:    543550 ave 543873 max 543227 min
Histogram: 1 0 0 0 0 0 0 0 0 1

Total # of neighbors = 1087100
Ave neighs/atom = 55.3175
Neighbor list builds = 172
Dangerous builds not checked
Setting up Verlet run ...
  Unit style    : metal
  Current step  : 44002
  Time step     : 0.001
Per MPI rank memory allocation (min/avg/max) = 12.95 | 12.96 | 12.96 Mbytes
Step Temp Press TotEng PotEng Enthalpy Volume 
   44002     2148.356    144.87512   -85266.661   -90723.681   -85199.412    743702.26 
   44022    2153.4373    25.043003   -85266.776   -90736.703   -85255.151    743708.26 
   44497    2102.9751    248.40364   -85478.065   -90819.814   -85362.941    742537.78 
Loop time of 37.2818 on 2 procs for 495 steps with 19652 atoms

Performance: 1.147 ns/day, 20.921 hours/ns, 13.277 timesteps/s
99.0% CPU use with 2 MPI tasks x no OpenMP threads

MPI task timing breakdown:
Section |  min time  |  avg time  |  max time  |%varavg| %total
---------------------------------------------------------------
Pair    | 22.513     | 22.614     | 22.714     |   2.1 | 60.66
Neigh   | 13.234     | 13.403     | 13.572     |   4.6 | 35.95
Comm    | 0.46598    | 0.7408     | 1.0156     |  31.9 |  1.99
Output  | 0.035554   | 0.035597   | 0.03564    |   0.0 |  0.10
Modify  | 0.38597    | 0.38948    | 0.39299    |   0.6 |  1.04
Other   |            | 0.09916    |            |       |  0.27

Nlocal:    9826 ave 9861 max 9791 min
Histogram: 1 0 0 0 0 0 0 0 0 1
Nghost:    10461 ave 10490 max 10432 min
Histogram: 1 0 0 0 0 0 0 0 0 1
Neighs:    544675 ave 547295 max 542055 min
Histogram: 1 0 0 0 0 0 0 0 0 1

Total # of neighbors = 1089350
Ave neighs/atom = 55.432
Neighbor list builds = 495
Dangerous builds not checked
Setting up Verlet run ...
  Unit style    : metal
  Current step  : 44497
  Time step     : 0.001
Per MPI rank memory allocation (min/avg/max) = 12.95 | 12.96 | 12.96 Mbytes
Step Temp Press TotEng PotEng Enthalpy Volume 
   44497    2102.9751    248.40364   -85478.065   -90819.814   -85362.941    742537.78 
   44669    2094.9371   -187.20926    -85547.38   -90868.711   -85634.194    742974.75 
Loop time of 13.4345 on 2 procs for 172 steps with 19652 atoms

Performance: 1.106 ns/day, 21.696 hours/ns, 12.803 timesteps/s
95.2% CPU use with 2 MPI tasks x no OpenMP threads

MPI task timing breakdown:
Section |  min time  |  avg time  |  max time  |%varavg| %total
---------------------------------------------------------------
Pair    | 8.2507     | 8.3319     | 8.4132     |   2.8 | 62.02
Neigh   | 4.5136     | 4.6005     | 4.6875     |   4.1 | 34.24
Comm    | 0.16184    | 0.33213    | 0.50242    |  29.5 |  2.47
Output  | 7.5102e-05 | 0.00010955 | 0.000144   |   0.0 |  0.00
Modify  | 0.13355    | 0.13496    | 0.13636    |   0.4 |  1.00
Other   |            | 0.03483    |            |       |  0.26

Nlocal:    9826 ave 9865 max 9787 min
Histogram: 1 0 0 0 0 0 0 0 0 1
Nghost:    10459 ave 10481 max 10437 min
Histogram: 1 0 0 0 0 0 0 0 0 1
Neighs:    544311 ave 547373 max 541249 min
Histogram: 1 0 0 0 0 0 0 0 0 1

Total # of neighbors = 1088622
Ave neighs/atom = 55.395
Neighbor list builds = 172
Dangerous builds not checked
Setting up Verlet run ...
  Unit style    : metal
  Current step  : 44669
  Time step     : 0.001
Per MPI rank memory allocation (min/avg/max) = 12.95 | 12.96 | 12.96 Mbytes
Step Temp Press TotEng PotEng Enthalpy Volume 
   44669    2094.9371   -187.20926    -85547.38   -90868.711   -85634.194    742974.75 
   44689    2107.7771   -222.16899   -85547.413   -90901.359   -85650.437    742963.03 
   45164    2052.7021    400.13481   -85775.274   -90989.324    -85590.12    741375.07 
Loop time of 37.2586 on 2 procs for 495 steps with 19652 atoms

Performance: 1.148 ns/day, 20.908 hours/ns, 13.286 timesteps/s
98.1% CPU use with 2 MPI tasks x no OpenMP threads

MPI task timing breakdown:
Section |  min time  |  avg time  |  max time  |%varavg| %total
---------------------------------------------------------------
Pair    | 22.612     | 22.721     | 22.829     |   2.3 | 60.98
Neigh   | 13.191     | 13.308     | 13.426     |   3.2 | 35.72
Comm    | 0.47753    | 0.70742    | 0.9373     |  27.3 |  1.90
Output  | 0.035699   | 0.035749   | 0.0358     |   0.0 |  0.10
Modify  | 0.3839     | 0.38737    | 0.39084    |   0.6 |  1.04
Other   |            | 0.09898    |            |       |  0.27

Nlocal:    9826 ave 9830 max 9822 min
Histogram: 1 0 0 0 0 0 0 0 0 1
Nghost:    10466 ave 10477 max 10455 min
Histogram: 1 0 0 0 0 0 0 0 0 1
Neighs:    546284 ave 546539 max 546028 min
Histogram: 1 0 0 0 0 0 0 0 0 1

Total # of neighbors = 1092567
Ave neighs/atom = 55.5957
Neighbor list builds = 495
Dangerous builds not checked
Setting up Verlet run ...
  Unit style    : metal
  Current step  : 45164
  Time step     : 0.001
Per MPI rank memory allocation (min/avg/max) = 12.95 | 12.96 | 12.96 Mbytes
Step Temp Press TotEng PotEng Enthalpy Volume 
   45164    2052.7021    400.13481   -85775.274   -90989.324    -85590.12    741375.07 
   45336    2036.5672   -543.42073   -85840.116   -91013.182   -86091.867    742241.58 
Loop time of 13.021 on 2 procs for 172 steps with 19652 atoms

Performance: 1.141 ns/day, 21.029 hours/ns, 13.209 timesteps/s
96.7% CPU use with 2 MPI tasks x no OpenMP threads

MPI task timing breakdown:
Section |  min time  |  avg time  |  max time  |%varavg| %total
---------------------------------------------------------------
Pair    | 7.9826     | 7.9884     | 7.9942     |   0.2 | 61.35
Neigh   | 4.6044     | 4.6201     | 4.6357     |   0.7 | 35.48
Comm    | 0.23079    | 0.24095    | 0.2511     |   2.1 |  1.85
Output  | 8.4877e-05 | 0.00015187 | 0.00021887 |   0.0 |  0.00
Modify  | 0.13628    | 0.13648    | 0.13668    |   0.1 |  1.05
Other   |            | 0.035      |            |       |  0.27

Nlocal:    9826 ave 9881 max 9771 min
Histogram: 1 0 0 0 0 0 0 0 0 1
Nghost:    10467 ave 10512 max 10422 min
Histogram: 1 0 0 0 0 0 0 0 0 1
Neighs:    545316 ave 548322 max 542309 min
Histogram: 1 0 0 0 0 0 0 0 0 1

Total # of neighbors = 1090631
Ave neighs/atom = 55.4972
Neighbor list builds = 172
Dangerous builds not checked
Setting up Verlet run ...
  Unit style    : metal
  Current step  : 45336
  Time step     : 0.001
Per MPI rank memory allocation (min/avg/max) = 12.95 | 12.96 | 12.96 Mbytes
Step Temp Press TotEng PotEng Enthalpy Volume 
   45336    2036.5672   -543.42073   -85840.116   -91013.182   -86091.867    742241.58 
   45356    2036.0854    -508.9216   -85838.804   -91010.646   -86074.562    742209.65 
   45831    2025.0791    253.94898   -85986.359   -91130.244   -85868.967    740632.82 
Loop time of 37.7321 on 2 procs for 495 steps with 19652 atoms

Performance: 1.133 ns/day, 21.174 hours/ns, 13.119 timesteps/s
98.2% CPU use with 2 MPI tasks x no OpenMP threads

MPI task timing breakdown:
Section |  min time  |  avg time  |  max time  |%varavg| %total
---------------------------------------------------------------
Pair    | 22.584     | 22.652     | 22.72      |   1.4 | 60.03
Neigh   | 13.507     | 13.557     | 13.606     |   1.4 | 35.93
Comm    | 0.98086    | 0.99917    | 1.0175     |   1.8 |  2.65
Output  | 0.035711   | 0.03582    | 0.035928   |   0.1 |  0.09
Modify  | 0.38878    | 0.38895    | 0.38912    |   0.0 |  1.03
Other   |            | 0.09954    |            |       |  0.26

Nlocal:    9826 ave 9836 max 9816 min
Histogram: 1 0 0 0 0 0 0 0 0 1
Nghost:    10489.5 ave 10503 max 10476 min
Histogram: 1 0 0 0 0 0 0 0 0 1
Neighs:    547092 ave 548214 max 545969 min
Histogram: 1 0 0 0 0 0 0 0 0 1

Total # of neighbors = 1094183
Ave neighs/atom = 55.6779
Neighbor list builds = 495
Dangerous builds not checked
Setting up Verlet run ...
  Unit style    : metal
  Current step  : 45831
  Time step     : 0.001
Per MPI rank memory allocation (min/avg/max) = 12.95 | 12.96 | 12.96 Mbytes
Step Temp Press TotEng PotEng Enthalpy Volume 
   45831    2025.0791    253.94898   -85986.359   -91130.244   -85868.967    740632.82 
   46003    1996.9434   -154.39699    -86081.25   -91153.668   -86152.652    740935.33 
Loop time of 12.7038 on 2 procs for 172 steps with 19652 atoms

Performance: 1.170 ns/day, 20.516 hours/ns, 13.539 timesteps/s
99.3% CPU use with 2 MPI tasks x no OpenMP threads

MPI task timing breakdown:
Section |  min time  |  avg time  |  max time  |%varavg| %total
---------------------------------------------------------------
Pair    | 7.6439     | 7.6686     | 7.6933     |   0.9 | 60.36
Neigh   | 4.5509     | 4.5883     | 4.6258     |   1.8 | 36.12
Comm    | 0.21061    | 0.27552    | 0.34043    |  12.4 |  2.17
Output  | 8.2016e-05 | 0.00012207 | 0.00016212 |   0.0 |  0.00
Modify  | 0.13429    | 0.13689    | 0.1395     |   0.7 |  1.08
Other   |            | 0.03432    |            |       |  0.27

Nlocal:    9826 ave 9866 max 9786 min
Histogram: 1 0 0 0 0 0 0 0 0 1
Nghost:    10497.5 ave 10526 max 10469 min
Histogram: 1 0 0 0 0 0 0 0 0 1
Neighs:    546510 ave 549396 max 543624 min
Histogram: 1 0 0 0 0 0 0 0 0 1

Total # of neighbors = 1093020
Ave neighs/atom = 55.6188
Neighbor list builds = 172
Dangerous builds not checked
Setting up Verlet run ...
  Unit style    : metal
  Current step  : 46003
  Time step     : 0.001
Per MPI rank memory allocation (min/avg/max) = 12.95 | 12.96 | 12.96 Mbytes
Step Temp Press TotEng PotEng Enthalpy Volume 
   46003    1996.9434   -154.39699    -86081.25   -91153.668   -86152.652    740935.33 
   46023    1990.2995   -164.74384   -86080.774   -91136.316   -86156.959    740926.13 
   46498    1972.1193   -53.297174   -86300.857    -91310.22    -86325.46    739604.94 
Loop time of 37.1114 on 2 procs for 495 steps with 19652 atoms

Performance: 1.152 ns/day, 20.826 hours/ns, 13.338 timesteps/s
99.9% CPU use with 2 MPI tasks x no OpenMP threads

MPI task timing breakdown:
Section |  min time  |  avg time  |  max time  |%varavg| %total
---------------------------------------------------------------
Pair    | 22.347     | 22.39      | 22.433     |   0.9 | 60.33
Neigh   | 13.293     | 13.44      | 13.587     |   4.0 | 36.22
Comm    | 0.56752    | 0.75965    | 0.95178    |  22.0 |  2.05
Output  | 0.035204   | 0.035352   | 0.035499   |   0.1 |  0.10
Modify  | 0.3866     | 0.38817    | 0.38974    |   0.3 |  1.05
Other   |            | 0.09864    |            |       |  0.27

Nlocal:    9826 ave 9827 max 9825 min
Histogram: 1 0 0 0 0 0 0 0 0 1
Nghost:    10475.5 ave 10481 max 10470 min
Histogram: 1 0 0 0 0 0 0 0 0 1
Neighs:    548344 ave 548785 max 547902 min
Histogram: 1 0 0 0 0 0 0 0 0 1

Total # of neighbors = 1096687
Ave neighs/atom = 55.8054
Neighbor list builds = 495
Dangerous builds not checked
Setting up Verlet run ...
  Unit style    : metal
  Current step  : 46498
  Time step     : 0.001
Per MPI rank memory allocation (min/avg/max) = 12.95 | 12.96 | 12.96 Mbytes
Step Temp Press TotEng PotEng Enthalpy Volume 
   46498    1972.1193   -53.297174   -86300.857    -91310.22    -86325.46    739604.94 
   46670    1940.2037   -158.70046   -86375.689   -91303.983   -86448.912     739233.8 
Loop time of 13.0383 on 2 procs for 172 steps with 19652 atoms

Performance: 1.140 ns/day, 21.057 hours/ns, 13.192 timesteps/s
99.9% CPU use with 2 MPI tasks x no OpenMP threads

MPI task timing breakdown:
Section |  min time  |  avg time  |  max time  |%varavg| %total
---------------------------------------------------------------
Pair    | 7.8669     | 7.8688     | 7.8706     |   0.1 | 60.35
Neigh   | 4.6181     | 4.6619     | 4.7058     |   2.0 | 35.76
Comm    | 0.29165    | 0.33436    | 0.37707    |   7.4 |  2.56
Output  | 7.5102e-05 | 0.00012004 | 0.00016499 |   0.0 |  0.00
Modify  | 0.13737    | 0.13807    | 0.13877    |   0.2 |  1.06
Other   |            | 0.03507    |            |       |  0.27

Nlocal:    9826 ave 9829 max 9823 min
Histogram: 1 0 0 0 0 0 0 0 0 1
Nghost:    10453.5 ave 10459 max 10448 min
Histogram: 1 0 0 0 0 0 0 0 0 1
Neighs:    548741 ave 548917 max 548565 min
Histogram: 1 0 0 0 0 0 0 0 0 1

Total # of neighbors = 1097482
Ave neighs/atom = 55.8458
Neighbor list builds = 172
Dangerous builds not checked
Setting up Verlet run ...
  Unit style    : metal
  Current step  : 46670
  Time step     : 0.001
Per MPI rank memory allocation (min/avg/max) = 12.95 | 12.96 | 12.96 Mbytes
Step Temp Press TotEng PotEng Enthalpy Volume 
   46670    1940.2037   -158.70046   -86375.689   -91303.983   -86448.912     739233.8 
   46690    1938.9426   -130.94996   -86374.695   -91299.786   -86435.114    739224.54 
   47165    1913.2444    373.15647   -86572.774   -91432.589   -86400.846    738187.91 
Loop time of 37.7699 on 2 procs for 495 steps with 19652 atoms

Performance: 1.132 ns/day, 21.195 hours/ns, 13.106 timesteps/s
99.3% CPU use with 2 MPI tasks x no OpenMP threads

MPI task timing breakdown:
Section |  min time  |  avg time  |  max time  |%varavg| %total
---------------------------------------------------------------
Pair    | 22.979     | 22.986     | 22.993     |   0.1 | 60.86
Neigh   | 13.332     | 13.396     | 13.46      |   1.7 | 35.47
Comm    | 0.773      | 0.82787    | 0.88275    |   6.0 |  2.19
Output  | 0.061491   | 0.063486   | 0.065481   |   0.8 |  0.17
Modify  | 0.39232    | 0.39681    | 0.40129    |   0.7 |  1.05
Other   |            | 0.0997     |            |       |  0.26

Nlocal:    9826 ave 9874 max 9778 min
Histogram: 1 0 0 0 0 0 0 0 0 1
Nghost:    10483 ave 10529 max 10437 min
Histogram: 1 0 0 0 0 0 0 0 0 1
Neighs:    549938 ave 552831 max 547044 min
Histogram: 1 0 0 0 0 0 0 0 0 1

Total # of neighbors = 1099875
Ave neighs/atom = 55.9676
Neighbor list builds = 495
Dangerous builds not checked
Setting up Verlet run ...
  Unit style    : metal
  Current step  : 47165
  Time step     : 0.001
Per MPI rank memory allocation (min/avg/max) = 12.95 | 12.96 | 12.96 Mbytes
Step Temp Press TotEng PotEng Enthalpy Volume 
   47165    1913.2444    373.15647   -86572.774   -91432.589   -86400.846    738187.91 
   47337    1894.1664   -295.45711    -86652.65   -91464.005   -86788.846    738548.47 
Loop time of 13.1645 on 2 procs for 172 steps with 19652 atoms

Performance: 1.129 ns/day, 21.260 hours/ns, 13.065 timesteps/s
99.8% CPU use with 2 MPI tasks x no OpenMP threads

MPI task timing breakdown:
Section |  min time  |  avg time  |  max time  |%varavg| %total
---------------------------------------------------------------
Pair    | 7.8949     | 7.9318     | 7.9688     |   1.3 | 60.25
Neigh   | 4.604      | 4.6548     | 4.7055     |   2.4 | 35.36
Comm    | 0.39031    | 0.40445    | 0.4186     |   2.2 |  3.07
Output  | 7.7009e-05 | 0.000126   | 0.000175   |   0.0 |  0.00
Modify  | 0.13685    | 0.13762    | 0.13838    |   0.2 |  1.05
Other   |            | 0.03567    |            |       |  0.27

Nlocal:    9826 ave 9831 max 9821 min
Histogram: 1 0 0 0 0 0 0 0 0 1
Nghost:    10451 ave 10462 max 10440 min
Histogram: 1 0 0 0 0 0 0 0 0 1
Neighs:    549537 ave 549736 max 549338 min
Histogram: 1 0 0 0 0 0 0 0 0 1

Total # of neighbors = 1099074
Ave neighs/atom = 55.9268
Neighbor list builds = 172
Dangerous builds not checked
Setting up Verlet run ...
  Unit style    : metal
  Current step  : 47337
  Time step     : 0.001
Per MPI rank memory allocation (min/avg/max) = 12.95 | 12.96 | 12.96 Mbytes
Step Temp Press TotEng PotEng Enthalpy Volume 
   47337    1894.1664   -295.45711    -86652.65   -91464.005   -86788.846    738548.47 
   47357     1890.642   -196.78546   -86651.989   -91454.392   -86742.699    738531.66 
   47832    1859.4933    178.08095   -86869.484   -91592.766   -86787.609    736620.12 
Loop time of 37.653 on 2 procs for 495 steps with 19652 atoms

Performance: 1.136 ns/day, 21.130 hours/ns, 13.146 timesteps/s
98.2% CPU use with 2 MPI tasks x no OpenMP threads

MPI task timing breakdown:
Section |  min time  |  avg time  |  max time  |%varavg| %total
---------------------------------------------------------------
Pair    | 23.052     | 23.113     | 23.175     |   1.3 | 61.39
Neigh   | 13.304     | 13.307     | 13.31      |   0.1 | 35.34
Comm    | 0.64941    | 0.70957    | 0.76974    |   7.1 |  1.88
Output  | 0.034071   | 0.034213   | 0.034356   |   0.1 |  0.09
Modify  | 0.38706    | 0.38885    | 0.39064    |   0.3 |  1.03
Other   |            | 0.0995     |            |       |  0.26

Nlocal:    9826 ave 9830 max 9822 min
Histogram: 1 0 0 0 0 0 0 0 0 1
Nghost:    10435 ave 10440 max 10430 min
Histogram: 1 0 0 0 0 0 0 0 0 1
Neighs:    551934 ave 552362 max 551507 min
Histogram: 1 0 0 0 0 0 0 0 0 1

Total # of neighbors = 1103869
Ave neighs/atom = 56.1708
Neighbor list builds = 495
Dangerous builds not checked
Setting up Verlet run ...
  Unit style    : metal
  Current step  : 47832
  Time step     : 0.001
Per MPI rank memory allocation (min/avg/max) = 12.95 | 12.96 | 12.96 Mbytes
Step Temp Press TotEng PotEng Enthalpy Volume 
   47832    1859.4933    178.08095   -86869.484   -91592.766   -86787.609    736620.12 
   48004    1842.7089   -154.75605   -86945.491   -91626.139   -87016.686    737074.96 
Loop time of 12.7371 on 2 procs for 172 steps with 19652 atoms

Performance: 1.167 ns/day, 20.570 hours/ns, 13.504 timesteps/s
99.8% CPU use with 2 MPI tasks x no OpenMP threads

MPI task timing breakdown:
Section |  min time  |  avg time  |  max time  |%varavg| %total
---------------------------------------------------------------
Pair    | 7.651      | 7.7035     | 7.7559     |   1.9 | 60.48
Neigh   | 4.5235     | 4.5468     | 4.5702     |   1.1 | 35.70
Comm    | 0.24162    | 0.31835    | 0.39507    |  13.6 |  2.50
Output  | 8.2016e-05 | 0.00010645 | 0.00013089 |   0.0 |  0.00
Modify  | 0.13295    | 0.13351    | 0.13407    |   0.2 |  1.05
Other   |            | 0.0348     |            |       |  0.27

Nlocal:    9826 ave 9836 max 9816 min
Histogram: 1 0 0 0 0 0 0 0 0 1
Nghost:    10453.5 ave 10458 max 10449 min
Histogram: 1 0 0 0 0 0 0 0 0 1
Neighs:    551716 ave 552545 max 550887 min
Histogram: 1 0 0 0 0 0 0 0 0 1

Total # of neighbors = 1103432
Ave neighs/atom = 56.1486
Neighbor list builds = 172
Dangerous builds not checked
Setting up Verlet run ...
  Unit style    : metal
  Current step  : 48004
  Time step     : 0.001
Per MPI rank memory allocation (min/avg/max) = 12.95 | 12.96 | 12.96 Mbytes
Step Temp Press TotEng PotEng Enthalpy Volume 
   48004    1842.7089   -154.75605   -86945.491   -91626.139   -87016.686    737074.96 
   48024    1843.1774   -162.40037   -86944.822    -91626.66   -87019.532    737064.78 
   48499    1814.6792    161.57216   -87117.305   -91726.755   -87043.072    736106.68 
Loop time of 37.6622 on 2 procs for 495 steps with 19652 atoms

Performance: 1.136 ns/day, 21.135 hours/ns, 13.143 timesteps/s
98.7% CPU use with 2 MPI tasks x no OpenMP threads

MPI task timing breakdown:
Section |  min time  |  avg time  |  max time  |%varavg| %total
---------------------------------------------------------------
Pair    | 22.405     | 22.51      | 22.615     |   2.2 | 59.77
Neigh   | 13.084     | 13.14      | 13.196     |   1.5 | 34.89
Comm    | 1.3333     | 1.4954     | 1.6575     |  13.3 |  3.97
Output  | 0.032846   | 0.03291    | 0.032973   |   0.0 |  0.09
Modify  | 0.38381    | 0.38599    | 0.38817    |   0.4 |  1.02
Other   |            | 0.09827    |            |       |  0.26

Nlocal:    9826 ave 9858 max 9794 min
Histogram: 1 0 0 0 0 0 0 0 0 1
Nghost:    10436.5 ave 10471 max 10402 min
Histogram: 1 0 0 0 0 0 0 0 0 1
Neighs:    552822 ave 554829 max 550816 min
Histogram: 1 0 0 0 0 0 0 0 0 1

Total # of neighbors = 1105645
Ave neighs/atom = 56.2612
Neighbor list builds = 495
Dangerous builds not checked
Setting up Verlet run ...
  Unit style    : metal
  Current step  : 48499
  Time step     : 0.001
Per MPI rank memory allocation (min/avg/max) = 12.95 | 12.96 | 12.96 Mbytes
Step Temp Press TotEng PotEng Enthalpy Volume 
   48499    1814.6792    161.57216   -87117.305   -91726.755   -87043.072    736106.68 
   48671    1807.0243   -63.066011   -87181.025   -91771.031   -87209.991    735877.53 
Loop time of 12.7092 on 2 procs for 172 steps with 19652 atoms

Performance: 1.169 ns/day, 20.525 hours/ns, 13.533 timesteps/s
98.2% CPU use with 2 MPI tasks x no OpenMP threads

MPI task timing breakdown:
Section |  min time  |  avg time  |  max time  |%varavg| %total
---------------------------------------------------------------
Pair    | 7.6265     | 7.6747     | 7.7228     |   1.7 | 60.39
Neigh   | 4.5228     | 4.5453     | 4.5678     |   1.1 | 35.76
Comm    | 0.25022    | 0.32226    | 0.3943     |  12.7 |  2.54
Output  | 8.7976e-05 | 0.00014138 | 0.00019479 |   0.0 |  0.00
Modify  | 0.13034    | 0.13258    | 0.13482    |   0.6 |  1.04
Other   |            | 0.03426    |            |       |  0.27

Nlocal:    9826 ave 9855 max 9797 min
Histogram: 1 0 0 0 0 0 0 0 0 1
Nghost:    10438.5 ave 10468 max 10409 min
Histogram: 1 0 0 0 0 0 0 0 0 1
Neighs:    552991 ave 555151 max 550831 min
Histogram: 1 0 0 0 0 0 0 0 0 1

Total # of neighbors = 1105982
Ave neighs/atom = 56.2783
Neighbor list builds = 172
Dangerous builds not checked
Setting up Verlet run ...
  Unit style    : metal
  Current step  : 48671
  Time step     : 0.001
Per MPI rank memory allocation (min/avg/max) = 12.95 | 12.96 | 12.96 Mbytes
Step Temp Press TotEng PotEng Enthalpy Volume 
   48671    1807.0243   -63.066011   -87181.025   -91771.031   -87209.991    735877.53 
   48691    1806.0968   -21.234215   -87181.833   -91769.484   -87191.586    735874.33 
   49166    1762.7629   -18.536076    -87383.72   -91861.298   -87392.224    735019.94 
Loop time of 39.2799 on 2 procs for 495 steps with 19652 atoms

Performance: 1.089 ns/day, 22.043 hours/ns, 12.602 timesteps/s
95.9% CPU use with 2 MPI tasks x no OpenMP threads

MPI task timing breakdown:
Section |  min time  |  avg time  |  max time  |%varavg| %total
---------------------------------------------------------------
Pair    | 21.694     | 21.821     | 21.949     |   2.7 | 55.55
Neigh   | 12.722     | 12.862     | 13.002     |   3.9 | 32.74
Comm    | 1.3778     | 1.6489     | 1.9201     |  21.1 |  4.20
Output  | 2.4727     | 2.4727     | 2.4727     |   0.0 |  6.30
Modify  | 0.37669    | 0.37964    | 0.3826     |   0.5 |  0.97
Other   |            | 0.09558    |            |       |  0.24

Nlocal:    9826 ave 9837 max 9815 min
Histogram: 1 0 0 0 0 0 0 0 0 1
Nghost:    10421 ave 10440 max 10402 min
Histogram: 1 0 0 0 0 0 0 0 0 1
Neighs:    554115 ave 554413 max 553817 min
Histogram: 1 0 0 0 0 0 0 0 0 1

Total # of neighbors = 1108230
Ave neighs/atom = 56.3927
Neighbor list builds = 495
Dangerous builds not checked
Setting up Verlet run ...
  Unit style    : metal
  Current step  : 49166
  Time step     : 0.001
Per MPI rank memory allocation (min/avg/max) = 12.95 | 12.96 | 12.96 Mbytes
Step Temp Press TotEng PotEng Enthalpy Volume 
   49166    1762.7629   -18.536076    -87383.72   -91861.298   -87392.224    735019.94 
   49338     1738.874    33.532331   -87459.162   -91876.061   -87443.785    734725.43 
Loop time of 13.28 on 2 procs for 172 steps with 19652 atoms

Performance: 1.119 ns/day, 21.447 hours/ns, 12.952 timesteps/s
95.2% CPU use with 2 MPI tasks x no OpenMP threads

MPI task timing breakdown:
Section |  min time  |  avg time  |  max time  |%varavg| %total
---------------------------------------------------------------
Pair    | 7.6721     | 7.6869     | 7.7016     |   0.5 | 57.88
Neigh   | 4.5681     | 4.5773     | 4.5864     |   0.4 | 34.47
Comm    | 0.82247    | 0.84684    | 0.8712     |   2.6 |  6.38
Output  | 8.0824e-05 | 0.00012743 | 0.00017405 |   0.0 |  0.00
Modify  | 0.13396    | 0.13453    | 0.13509    |   0.2 |  1.01
Other   |            | 0.03433    |            |       |  0.26

Nlocal:    9826 ave 9829 max 9823 min
Histogram: 1 0 0 0 0 0 0 0 0 1
Nghost:    10443 ave 10453 max 10433 min
Histogram: 1 0 0 0 0 0 0 0 0 1
Neighs:    554620 ave 555412 max 553828 min
Histogram: 1 0 0 0 0 0 0 0 0 1

Total # of neighbors = 1109240
Ave neighs/atom = 56.4441
Neighbor list builds = 172
Dangerous builds not checked
Setting up Verlet run ...
  Unit style    : metal
  Current step  : 49338
  Time step     : 0.001
Per MPI rank memory allocation (min/avg/max) = 12.95 | 12.96 | 12.96 Mbytes
Step Temp Press TotEng PotEng Enthalpy Volume 
   49338     1738.874    33.532331   -87459.162   -91876.061   -87443.785    734725.43 
   49358    1739.1729    13.609322   -87458.059   -91875.717   -87451.818    734727.38 
   49833    1721.5488    229.96745   -87647.413   -92020.304   -87542.098    733730.49 
Loop time of 36.5448 on 2 procs for 495 steps with 19652 atoms

Performance: 1.170 ns/day, 20.508 hours/ns, 13.545 timesteps/s
99.4% CPU use with 2 MPI tasks x no OpenMP threads

MPI task timing breakdown:
Section |  min time  |  avg time  |  max time  |%varavg| %total
---------------------------------------------------------------
Pair    | 21.995     | 22.099     | 22.204     |   2.2 | 60.47
Neigh   | 13.174     | 13.195     | 13.217     |   0.6 | 36.11
Comm    | 0.60202    | 0.72942    | 0.85682    |  14.9 |  2.00
Output  | 0.037124   | 0.037179   | 0.037234   |   0.0 |  0.10
Modify  | 0.38353    | 0.38476    | 0.38598    |   0.2 |  1.05
Other   |            | 0.09862    |            |       |  0.27

Nlocal:    9826 ave 9836 max 9816 min
Histogram: 1 0 0 0 0 0 0 0 0 1
Nghost:    10450.5 ave 10460 max 10441 min
Histogram: 1 0 0 0 0 0 0 0 0 1
Neighs:    555904 ave 556866 max 554942 min
Histogram: 1 0 0 0 0 0 0 0 0 1

Total # of neighbors = 1111808
Ave neighs/atom = 56.5748
Neighbor list builds = 495
Dangerous builds not checked
Setting up Verlet run ...
  Unit style    : metal
  Current step  : 49833
  Time step     : 0.001
Per MPI rank memory allocation (min/avg/max) = 12.95 | 12.96 | 12.96 Mbytes
Step Temp Press TotEng PotEng Enthalpy Volume 
   49833    1721.5488    229.96745   -87647.413   -92020.304   -87542.098    733730.49 
   50005      1703.78   -140.69796   -87715.009   -92042.765   -87779.469    734035.65 
Loop time of 12.9015 on 2 procs for 172 steps with 19652 atoms

Performance: 1.152 ns/day, 20.836 hours/ns, 13.332 timesteps/s
97.1% CPU use with 2 MPI tasks x no OpenMP threads

MPI task timing breakdown:
Section |  min time  |  avg time  |  max time  |%varavg| %total
---------------------------------------------------------------
Pair    | 7.5415     | 7.5636     | 7.5858     |   0.8 | 58.63
Neigh   | 4.4822     | 4.5259     | 4.5696     |   2.1 | 35.08
Comm    | 0.57537    | 0.64308    | 0.71079    |   8.4 |  4.98
Output  | 7.7009e-05 | 0.00011408 | 0.00015116 |   0.0 |  0.00
Modify  | 0.13263    | 0.13411    | 0.13559    |   0.4 |  1.04
Other   |            | 0.03463    |            |       |  0.27

Nlocal:    9826 ave 9897 max 9755 min
Histogram: 1 0 0 0 0 0 0 0 0 1
Nghost:    10439.5 ave 10499 max 10380 min
Histogram: 1 0 0 0 0 0 0 0 0 1
Neighs:    555668 ave 560646 max 550689 min
Histogram: 1 0 0 0 0 0 0 0 0 1

Total # of neighbors = 1111335
Ave neighs/atom = 56.5507
Neighbor list builds = 172
Dangerous builds not checked
Setting up Verlet run ...
  Unit style    : metal
  Current step  : 50005
  Time step     : 0.001
Per MPI rank memory allocation (min/avg/max) = 12.95 | 12.96 | 12.96 Mbytes
Step Temp Press TotEng PotEng Enthalpy Volume 
   50005      1703.78   -140.69796   -87715.009   -92042.765   -87779.469    734035.65 
   50025     1702.616   -138.77094   -87715.452   -92040.252   -87779.029    734025.94 
   50500     1662.669   -156.00147   -87915.961   -92139.292    -87987.36    733284.93 
Loop time of 37.8163 on 2 procs for 495 steps with 19652 atoms

Performance: 1.131 ns/day, 21.221 hours/ns, 13.090 timesteps/s
98.0% CPU use with 2 MPI tasks x no OpenMP threads

MPI task timing breakdown:
Section |  min time  |  avg time  |  max time  |%varavg| %total
---------------------------------------------------------------
Pair    | 22.499     | 22.531     | 22.564     |   0.7 | 59.58
Neigh   | 13.29      | 13.388     | 13.486     |   2.7 | 35.40
Comm    | 1.1627     | 1.297      | 1.4313     |  11.8 |  3.43
Output  | 0.034013   | 0.034065   | 0.034116   |   0.0 |  0.09
Modify  | 0.46231    | 0.46619    | 0.47007    |   0.6 |  1.23
Other   |            | 0.09976    |            |       |  0.26

Nlocal:    9826 ave 9843 max 9809 min
Histogram: 1 0 0 0 0 0 0 0 0 1
Nghost:    10441.5 ave 10475 max 10408 min
Histogram: 1 0 0 0 0 0 0 0 0 1
Neighs:    556510 ave 557650 max 555370 min
Histogram: 1 0 0 0 0 0 0 0 0 1

Total # of neighbors = 1113020
Ave neighs/atom = 56.6365
Neighbor list builds = 495
Dangerous builds not checked
Setting up Verlet run ...
  Unit style    : metal
  Current step  : 50500
  Time step     : 0.001
Per MPI rank memory allocation (min/avg/max) = 12.95 | 12.96 | 12.96 Mbytes
Step Temp Press TotEng PotEng Enthalpy Volume 
   50500     1662.669   -156.00147   -87915.961   -92139.292    -87987.36    733284.93 
   50672    1639.7683   0.15234817   -87979.788   -92144.949   -87979.719    732909.64 
Loop time of 13.3564 on 2 procs for 172 steps with 19652 atoms

Performance: 1.113 ns/day, 21.570 hours/ns, 12.878 timesteps/s
95.5% CPU use with 2 MPI tasks x no OpenMP threads

MPI task timing breakdown:
Section |  min time  |  avg time  |  max time  |%varavg| %total
---------------------------------------------------------------
Pair    | 8.0444     | 8.0492     | 8.0539     |   0.2 | 60.26
Neigh   | 4.5618     | 4.5668     | 4.5718     |   0.2 | 34.19
Comm    | 0.56106    | 0.57111    | 0.58116    |   1.3 |  4.28
Output  | 7.7009e-05 | 0.00012159 | 0.00016618 |   0.0 |  0.00
Modify  | 0.1342     | 0.13469    | 0.13518    |   0.1 |  1.01
Other   |            | 0.03455    |            |       |  0.26

Nlocal:    9826 ave 9841 max 9811 min
Histogram: 1 0 0 0 0 0 0 0 0 1
Nghost:    10445.5 ave 10469 max 10422 min
Histogram: 1 0 0 0 0 0 0 0 0 1
Neighs:    556824 ave 557428 max 556220 min
Histogram: 1 0 0 0 0 0 0 0 0 1

Total # of neighbors = 1113648
Ave neighs/atom = 56.6684
Neighbor list builds = 172
Dangerous builds not checked
Setting up Verlet run ...
  Unit style    : metal
  Current step  : 50672
  Time step     : 0.001
Per MPI rank memory allocation (min/avg/max) = 12.95 | 12.96 | 12.96 Mbytes
Step Temp Press TotEng PotEng Enthalpy Volume 
   50672    1639.7683   0.15234817   -87979.788   -92144.949   -87979.719    732909.64 
   50692    1649.9583   -75.150454    -87979.14   -92170.184   -88013.517    732907.56 
   51167    1624.3447   -79.167368   -88188.788   -92314.771   -88224.948     731803.7 
Loop time of 38.4969 on 2 procs for 495 steps with 19652 atoms

Performance: 1.111 ns/day, 21.603 hours/ns, 12.858 timesteps/s
96.9% CPU use with 2 MPI tasks x no OpenMP threads

MPI task timing breakdown:
Section |  min time  |  avg time  |  max time  |%varavg| %total
---------------------------------------------------------------
Pair    | 23.576     | 23.647     | 23.718     |   1.5 | 61.43
Neigh   | 13.375     | 13.458     | 13.542     |   2.3 | 34.96
Comm    | 0.84516    | 0.85791    | 0.87067    |   1.4 |  2.23
Output  | 0.033662   | 0.033815   | 0.033967   |   0.1 |  0.09
Modify  | 0.39811    | 0.39869    | 0.39926    |   0.1 |  1.04
Other   |            | 0.1011     |            |       |  0.26

Nlocal:    9826 ave 9832 max 9820 min
Histogram: 1 0 0 0 0 0 0 0 0 1
Nghost:    10448 ave 10458 max 10438 min
Histogram: 1 0 0 0 0 0 0 0 0 1
Neighs:    558624 ave 559502 max 557745 min
Histogram: 1 0 0 0 0 0 0 0 0 1

Total # of neighbors = 1117247
Ave neighs/atom = 56.8516
Neighbor list builds = 495
Dangerous builds not checked
Setting up Verlet run ...
  Unit style    : metal
  Current step  : 51167
  Time step     : 0.001
Per MPI rank memory allocation (min/avg/max) = 12.95 | 12.96 | 12.96 Mbytes
Step Temp Press TotEng PotEng Enthalpy Volume 
   51167    1624.3447   -79.167368   -88188.788   -92314.771   -88224.948     731803.7 
   51339    1581.0831    27.742901   -88253.824   -92269.919   -88241.149    731980.86 
Loop time of 12.7136 on 2 procs for 172 steps with 19652 atoms

Performance: 1.169 ns/day, 20.532 hours/ns, 13.529 timesteps/s
100.0% CPU use with 2 MPI tasks x no OpenMP threads

MPI task timing breakdown:
Section |  min time  |  avg time  |  max time  |%varavg| %total
---------------------------------------------------------------
Pair    | 7.7243     | 7.7445     | 7.7647     |   0.7 | 60.91
Neigh   | 4.5207     | 4.5631     | 4.6056     |   2.0 | 35.89
Comm    | 0.21098    | 0.23549    | 0.26001    |   5.1 |  1.85
Output  | 8.2016e-05 | 0.00016749 | 0.00025296 |   0.0 |  0.00
Modify  | 0.13398    | 0.13579    | 0.13759    |   0.5 |  1.07
Other   |            | 0.03454    |            |       |  0.27

Nlocal:    9826 ave 9834 max 9818 min
Histogram: 1 0 0 0 0 0 0 0 0 1
Nghost:    10438.5 ave 10464 max 10413 min
Histogram: 1 0 0 0 0 0 0 0 0 1
Neighs:    558270 ave 558507 max 558033 min
Histogram: 1 0 0 0 0 0 0 0 0 1

Total # of neighbors = 1116540
Ave neighs/atom = 56.8156
Neighbor list builds = 172
Dangerous builds not checked
Setting up Verlet run ...
  Unit style    : metal
  Current step  : 51339
  Time step     : 0.001
Per MPI rank memory allocation (min/avg/max) = 12.95 | 12.96 | 12.96 Mbytes
Step Temp Press TotEng PotEng Enthalpy Volume 
   51339    1581.0831    27.742901   -88253.824   -92269.919   -88241.149    731980.86 
   51359    1582.2868   -74.874895   -88251.953   -92271.106   -88286.161    731980.76 
   51834    1571.7028   -103.19364   -88452.799   -92445.068   -88499.877    730929.65 
Loop time of 37.8534 on 2 procs for 495 steps with 19652 atoms

Performance: 1.130 ns/day, 21.242 hours/ns, 13.077 timesteps/s
98.7% CPU use with 2 MPI tasks x no OpenMP threads

MPI task timing breakdown:
Section |  min time  |  avg time  |  max time  |%varavg| %total
---------------------------------------------------------------
Pair    | 22.951     | 22.973     | 22.994     |   0.4 | 60.69
Neigh   | 13.318     | 13.41      | 13.502     |   2.5 | 35.43
Comm    | 0.5552     | 0.62724    | 0.69928    |   9.1 |  1.66
Output  | 0.35321    | 0.35326    | 0.35331    |   0.0 |  0.93
Modify  | 0.38918    | 0.39008    | 0.39099    |   0.1 |  1.03
Other   |            | 0.09986    |            |       |  0.26

Nlocal:    9826 ave 9880 max 9772 min
Histogram: 1 0 0 0 0 0 0 0 0 1
Nghost:    10441.5 ave 10507 max 10376 min
Histogram: 1 0 0 0 0 0 0 0 0 1
Neighs:    559776 ave 563273 max 556279 min
Histogram: 1 0 0 0 0 0 0 0 0 1

Total # of neighbors = 1119552
Ave neighs/atom = 56.9689
Neighbor list builds = 495
Dangerous builds not checked
Setting up Verlet run ...
  Unit style    : metal
  Current step  : 51834
  Time step     : 0.001
Per MPI rank memory allocation (min/avg/max) = 12.95 | 12.96 | 12.96 Mbytes
Step Temp Press TotEng PotEng Enthalpy Volume 
   51834    1571.7028   -103.19364   -88452.799   -92445.068   -88499.877    730929.65 
   52006     1567.533   -200.23603   -88496.497   -92478.174    -88587.85    730958.67 
Loop time of 12.8324 on 2 procs for 172 steps with 19652 atoms

Performance: 1.158 ns/day, 20.724 hours/ns, 13.404 timesteps/s
98.6% CPU use with 2 MPI tasks x no OpenMP threads

MPI task timing breakdown:
Section |  min time  |  avg time  |  max time  |%varavg| %total
---------------------------------------------------------------
Pair    | 7.8478     | 7.8567     | 7.8656     |   0.3 | 61.23
Neigh   | 4.5598     | 4.5676     | 4.5753     |   0.4 | 35.59
Comm    | 0.23938    | 0.23976    | 0.24014    |   0.1 |  1.87
Output  | 7.6056e-05 | 0.00016546 | 0.00025487 |   0.0 |  0.00
Modify  | 0.13285    | 0.13375    | 0.13466    |   0.2 |  1.04
Other   |            | 0.03443    |            |       |  0.27

Nlocal:    9826 ave 9833 max 9819 min
Histogram: 1 0 0 0 0 0 0 0 0 1
Nghost:    10456 ave 10456 max 10456 min
Histogram: 2 0 0 0 0 0 0 0 0 0
Neighs:    559618 ave 560455 max 558780 min
Histogram: 1 0 0 0 0 0 0 0 0 1

Total # of neighbors = 1119235
Ave neighs/atom = 56.9527
Neighbor list builds = 172
Dangerous builds not checked
Setting up Verlet run ...
  Unit style    : metal
  Current step  : 52006
  Time step     : 0.001
Per MPI rank memory allocation (min/avg/max) = 12.95 | 12.96 | 12.96 Mbytes
Step Temp Press TotEng PotEng Enthalpy Volume 
   52006     1567.533   -200.23603   -88496.497   -92478.174    -88587.85    730958.67 
   52026    1565.7807   -191.30963   -88498.397   -92475.623   -88585.676    730943.34 
   52501     1503.825    84.227073   -88694.541   -92514.393   -88656.168    729927.31 
Loop time of 37.8206 on 2 procs for 495 steps with 19652 atoms

Performance: 1.131 ns/day, 21.224 hours/ns, 13.088 timesteps/s
98.6% CPU use with 2 MPI tasks x no OpenMP threads

MPI task timing breakdown:
Section |  min time  |  avg time  |  max time  |%varavg| %total
---------------------------------------------------------------
Pair    | 22.698     | 22.74      | 22.783     |   0.9 | 60.13
Neigh   | 13.404     | 13.412     | 13.42      |   0.2 | 35.46
Comm    | 1.0886     | 1.1229     | 1.1571     |   3.2 |  2.97
Output  | 0.047766   | 0.050298   | 0.05283    |   1.1 |  0.13
Modify  | 0.39316    | 0.39626    | 0.39937    |   0.5 |  1.05
Other   |            | 0.09901    |            |       |  0.26

Nlocal:    9826 ave 9840 max 9812 min
Histogram: 1 0 0 0 0 0 0 0 0 1
Nghost:    10440 ave 10463 max 10417 min
Histogram: 1 0 0 0 0 0 0 0 0 1
Neighs:    561262 ave 562113 max 560410 min
Histogram: 1 0 0 0 0 0 0 0 0 1

Total # of neighbors = 1122523
Ave neighs/atom = 57.12
Neighbor list builds = 495
Dangerous builds not checked
Setting up Verlet run ...
  Unit style    : metal
  Current step  : 52501
  Time step     : 0.001
Per MPI rank memory allocation (min/avg/max) = 12.95 | 12.96 | 12.96 Mbytes
Step Temp Press TotEng PotEng Enthalpy Volume 
   52501     1503.825    84.227073   -88694.541   -92514.393   -88656.168    729927.31 
   52673    1511.4471   -134.71758   -88767.255   -92606.468   -88828.621    729814.14 
Loop time of 12.8426 on 2 procs for 172 steps with 19652 atoms

Performance: 1.157 ns/day, 20.741 hours/ns, 13.393 timesteps/s
98.8% CPU use with 2 MPI tasks x no OpenMP threads

MPI task timing breakdown:
Section |  min time  |  avg time  |  max time  |%varavg| %total
---------------------------------------------------------------
Pair    | 7.6128     | 7.6378     | 7.6629     |   0.9 | 59.47
Neigh   | 4.5505     | 4.5521     | 4.5537     |   0.1 | 35.45
Comm    | 0.45635    | 0.48341    | 0.51048    |   3.9 |  3.76
Output  | 8.4877e-05 | 0.000121   | 0.00015712 |   0.0 |  0.00
Modify  | 0.13445    | 0.13467    | 0.13489    |   0.1 |  1.05
Other   |            | 0.03443    |            |       |  0.27

Nlocal:    9826 ave 9836 max 9816 min
Histogram: 1 0 0 0 0 0 0 0 0 1
Nghost:    10460.5 ave 10471 max 10450 min
Histogram: 1 0 0 0 0 0 0 0 0 1
Neighs:    561612 ave 561635 max 561590 min
Histogram: 1 0 0 0 0 0 0 0 0 1

Total # of neighbors = 1123225
Ave neighs/atom = 57.1558
Neighbor list builds = 172
Dangerous builds not checked
Setting up Verlet run ...
  Unit style    : metal
  Current step  : 52673
  Time step     : 0.001
Per MPI rank memory allocation (min/avg/max) = 12.95 | 12.96 | 12.96 Mbytes
Step Temp Press TotEng PotEng Enthalpy Volume 
   52673    1511.4471   -134.71758   -88767.255   -92606.468   -88828.621    729814.14 
   52693    1512.7826   -143.21496   -88768.625   -92611.231   -88833.861    729802.95 
   53168    1443.6168   -167.92607   -88977.496   -92644.414   -89053.912    729083.43 
Loop time of 38.4466 on 2 procs for 495 steps with 19652 atoms

Performance: 1.112 ns/day, 21.575 hours/ns, 12.875 timesteps/s
98.7% CPU use with 2 MPI tasks x no OpenMP threads

MPI task timing breakdown:
Section |  min time  |  avg time  |  max time  |%varavg| %total
---------------------------------------------------------------
Pair    | 23.037     | 23.144     | 23.251     |   2.2 | 60.20
Neigh   | 13.921     | 13.945     | 13.97      |   0.7 | 36.27
Comm    | 0.7551     | 0.83683    | 0.91855    |   8.9 |  2.18
Output  | 0.034985   | 0.035084   | 0.035183   |   0.1 |  0.09
Modify  | 0.38609    | 0.38659    | 0.38709    |   0.1 |  1.01
Other   |            | 0.09874    |            |       |  0.26

Nlocal:    9826 ave 9866 max 9786 min
Histogram: 1 0 0 0 0 0 0 0 0 1
Nghost:    10436 ave 10484 max 10388 min
Histogram: 1 0 0 0 0 0 0 0 0 1
Neighs:    562697 ave 565835 max 559559 min
Histogram: 1 0 0 0 0 0 0 0 0 1

Total # of neighbors = 1125394
Ave neighs/atom = 57.2661
Neighbor list builds = 495
Dangerous builds not checked
Setting up Verlet run ...
  Unit style    : metal
  Current step  : 53168
  Time step     : 0.001
Per MPI rank memory allocation (min/avg/max) = 12.95 | 12.96 | 12.96 Mbytes
Step Temp Press TotEng PotEng Enthalpy Volume 
   53168    1443.6168   -167.92607   -88977.496   -92644.414   -89053.912    729083.43 
   53340    1450.4298    193.56864   -89041.679   -92725.902   -88953.671     728439.5 
Loop time of 13.4059 on 2 procs for 172 steps with 19652 atoms

Performance: 1.109 ns/day, 21.650 hours/ns, 12.830 timesteps/s
99.9% CPU use with 2 MPI tasks x no OpenMP threads

MPI task timing breakdown:
Section |  min time  |  avg time  |  max time  |%varavg| %total
---------------------------------------------------------------
Pair    | 7.8438     | 7.8668     | 7.8899     |   0.8 | 58.68
Neigh   | 5.045      | 5.1255     | 5.206      |   3.6 | 38.23
Comm    | 0.14011    | 0.24519    | 0.35028    |  21.2 |  1.83
Output  | 8.3208e-05 | 0.00017214 | 0.00026107 |   0.0 |  0.00
Modify  | 0.13233    | 0.1338     | 0.13528    |   0.4 |  1.00
Other   |            | 0.03441    |            |       |  0.26

Nlocal:    9826 ave 9857 max 9795 min
Histogram: 1 0 0 0 0 0 0 0 0 1
Nghost:    10442 ave 10473 max 10411 min
Histogram: 1 0 0 0 0 0 0 0 0 1
Neighs:    563690 ave 571555 max 555825 min
Histogram: 1 0 0 0 0 0 0 0 0 1

Total # of neighbors = 1127380
Ave neighs/atom = 57.3672
Neighbor list builds = 172
Dangerous builds not checked
Setting up Verlet run ...
  Unit style    : metal
  Current step  : 53340
  Time step     : 0.001
Per MPI rank memory allocation (min/avg/max) = 12.95 | 12.96 | 12.96 Mbytes
Step Temp Press TotEng PotEng Enthalpy Volume 
   53340    1450.4298    193.56864   -89041.679   -92725.902   -88953.671     728439.5 
   53360    1445.3124    143.70666   -89041.635   -92712.861   -88976.297    728454.16 
   53835    1405.5558    9.1052655   -89224.274   -92794.513   -89220.136    727976.31 
Loop time of 40.0503 on 2 procs for 495 steps with 19652 atoms

Performance: 1.068 ns/day, 22.475 hours/ns, 12.359 timesteps/s
99.3% CPU use with 2 MPI tasks x no OpenMP threads

MPI task timing breakdown:
Section |  min time  |  avg time  |  max time  |%varavg| %total
---------------------------------------------------------------
Pair    | 22.722     | 22.903     | 23.084     |   3.8 | 57.19
Neigh   | 15.152     | 15.43      | 15.709     |   7.1 | 38.53
Comm    | 0.74033    | 1.2069     | 1.6735     |  42.5 |  3.01
Output  | 0.034908   | 0.034944   | 0.034981   |   0.0 |  0.09
Modify  | 0.37374    | 0.37917    | 0.3846     |   0.9 |  0.95
Other   |            | 0.09595    |            |       |  0.24

Nlocal:    9826 ave 9848 max 9804 min
Histogram: 1 0 0 0 0 0 0 0 0 1
Nghost:    10423 ave 10439 max 10407 min
Histogram: 1 0 0 0 0 0 0 0 0 1
Neighs:    564532 ave 571241 max 557822 min
Histogram: 1 0 0 0 0 0 0 0 0 1

Total # of neighbors = 1129063
Ave neighs/atom = 57.4528
Neighbor list builds = 495
Dangerous builds not checked
Setting up Verlet run ...
  Unit style    : metal
  Current step  : 53835
  Time step     : 0.001
Per MPI rank memory allocation (min/avg/max) = 12.95 | 12.96 | 12.96 Mbytes
Step Temp Press TotEng PotEng Enthalpy Volume 
   53835    1405.5558    9.1052655   -89224.274   -92794.513   -89220.136    727976.31 
   54007    1410.6477    55.274491   -89285.578   -92868.752   -89260.485    727321.62 
Loop time of 13.9548 on 2 procs for 172 steps with 19652 atoms

Performance: 1.065 ns/day, 22.537 hours/ns, 12.325 timesteps/s
97.5% CPU use with 2 MPI tasks x no OpenMP threads

MPI task timing breakdown:
Section |  min time  |  avg time  |  max time  |%varavg| %total
---------------------------------------------------------------
Pair    | 8.1411     | 8.2024     | 8.2637     |   2.1 | 58.78
Neigh   | 5.2714     | 5.2786     | 5.2858     |   0.3 | 37.83
Comm    | 0.23652    | 0.30592    | 0.37531    |  12.5 |  2.19
Output  | 7.4863e-05 | 0.00011694 | 0.00015903 |   0.0 |  0.00
Modify  | 0.13279    | 0.13365    | 0.13452    |   0.2 |  0.96
Other   |            | 0.03418    |            |       |  0.24

Nlocal:    9826 ave 9840 max 9812 min
Histogram: 1 0 0 0 0 0 0 0 0 1
Nghost:    10435.5 ave 10444 max 10427 min
Histogram: 1 0 0 0 0 0 0 0 0 1
Neighs:    565468 ave 571219 max 559716 min
Histogram: 1 0 0 0 0 0 0 0 0 1

Total # of neighbors = 1130935
Ave neighs/atom = 57.5481
Neighbor list builds = 172
Dangerous builds not checked
Setting up Verlet run ...
  Unit style    : metal
  Current step  : 54007
  Time step     : 0.001
Per MPI rank memory allocation (min/avg/max) = 12.95 | 12.96 | 12.96 Mbytes
Step Temp Press TotEng PotEng Enthalpy Volume 
   54007    1410.6477    55.274491   -89285.578   -92868.752   -89260.485    727321.62 
   54027     1413.095    29.157859   -89286.916   -92876.306    -89273.68    727324.92 
   54502    1363.3501   -401.96669   -89483.868   -92946.902   -89666.406    727565.87 
Loop time of 40.2588 on 2 procs for 495 steps with 19652 atoms

Performance: 1.062 ns/day, 22.592 hours/ns, 12.295 timesteps/s
99.4% CPU use with 2 MPI tasks x no OpenMP threads

MPI task timing breakdown:
Section |  min time  |  avg time  |  max time  |%varavg| %total
---------------------------------------------------------------
Pair    | 22.812     | 22.933     | 23.055     |   2.5 | 56.96
Neigh   | 15.27      | 15.349     | 15.428     |   2.0 | 38.13
Comm    | 1.2665     | 1.4674     | 1.6682     |  16.6 |  3.64
Output  | 0.034208   | 0.034348   | 0.034489   |   0.1 |  0.09
Modify  | 0.37793    | 0.37851    | 0.37909    |   0.1 |  0.94
Other   |            | 0.0961     |            |       |  0.24

Nlocal:    9826 ave 9860 max 9792 min
Histogram: 1 0 0 0 0 0 0 0 0 1
Nghost:    10418.5 ave 10454 max 10383 min
Histogram: 1 0 0 0 0 0 0 0 0 1
Neighs:    565266 ave 573054 max 557477 min
Histogram: 1 0 0 0 0 0 0 0 0 1

Total # of neighbors = 1130531
Ave neighs/atom = 57.5275
Neighbor list builds = 495
Dangerous builds not checked
Setting up Verlet run ...
  Unit style    : metal
  Current step  : 54502
  Time step     : 0.001
Per MPI rank memory allocation (min/avg/max) = 12.95 | 12.96 | 12.96 Mbytes
Step Temp Press TotEng PotEng Enthalpy Volume 
   54502    1363.3501   -401.96669   -89483.868   -92946.902   -89666.406    727565.87 
   54674    1362.9934    338.00878   -89535.759   -92997.886   -89382.524    726340.36 
Loop time of 13.6319 on 2 procs for 172 steps with 19652 atoms

Performance: 1.090 ns/day, 22.015 hours/ns, 12.618 timesteps/s
99.9% CPU use with 2 MPI tasks x no OpenMP threads

MPI task timing breakdown:
Section |  min time  |  avg time  |  max time  |%varavg| %total
---------------------------------------------------------------
Pair    | 7.8216     | 7.9237     | 8.0258     |   3.6 | 58.13
Neigh   | 5.2598     | 5.3036     | 5.3475     |   1.9 | 38.91
Comm    | 0.1795     | 0.23745    | 0.2954     |  11.9 |  1.74
Output  | 7.6056e-05 | 0.00015962 | 0.00024319 |   0.0 |  0.00
Modify  | 0.1326     | 0.13279    | 0.13297    |   0.1 |  0.97
Other   |            | 0.03412    |            |       |  0.25

Nlocal:    9826 ave 9827 max 9825 min
Histogram: 1 0 0 0 0 0 0 0 0 1
Nghost:    10418 ave 10426 max 10410 min
Histogram: 1 0 0 0 0 0 0 0 0 1
Neighs:    567006 ave 572155 max 561856 min
Histogram: 1 0 0 0 0 0 0 0 0 1

Total # of neighbors = 1134011
Ave neighs/atom = 57.7046
Neighbor list builds = 172
Dangerous builds not checked
Setting up Verlet run ...
  Unit style    : metal
  Current step  : 54674
  Time step     : 0.001
Per MPI rank memory allocation (min/avg/max) = 12.95 | 12.96 | 12.96 Mbytes
Step Temp Press TotEng PotEng Enthalpy Volume 
   54674    1362.9934    338.00878   -89535.759   -92997.886   -89382.524    726340.36 
   54694    1363.6141    291.91123   -89537.254   -93000.958   -89404.912    726368.46 
   55169    1310.9354    -822.9189   -89735.074   -93064.969   -90108.501    727041.56 
Loop time of 39.8333 on 2 procs for 495 steps with 19652 atoms

Performance: 1.074 ns/day, 22.353 hours/ns, 12.427 timesteps/s
99.7% CPU use with 2 MPI tasks x no OpenMP threads

MPI task timing breakdown:
Section |  min time  |  avg time  |  max time  |%varavg| %total
---------------------------------------------------------------
Pair    | 23         | 23.098     | 23.196     |   2.0 | 57.99
Neigh   | 15.23      | 15.301     | 15.372     |   1.8 | 38.41
Comm    | 0.89208    | 0.91864    | 0.9452     |   2.8 |  2.31
Output  | 0.036      | 0.036093   | 0.036187   |   0.0 |  0.09
Modify  | 0.38228    | 0.38236    | 0.38245    |   0.0 |  0.96
Other   |            | 0.09687    |            |       |  0.24

Nlocal:    9826 ave 9862 max 9790 min
Histogram: 1 0 0 0 0 0 0 0 0 1
Nghost:    10408 ave 10440 max 10376 min
Histogram: 1 0 0 0 0 0 0 0 0 1
Neighs:    566369 ave 569018 max 563720 min
Histogram: 1 0 0 0 0 0 0 0 0 1

Total # of neighbors = 1132738
Ave neighs/atom = 57.6398
Neighbor list builds = 495
Dangerous builds not checked
Setting up Verlet run ...
  Unit style    : metal
  Current step  : 55169
  Time step     : 0.001
Per MPI rank memory allocation (min/avg/max) = 12.95 | 12.96 | 12.96 Mbytes
Step Temp Press TotEng PotEng Enthalpy Volume 
   55169    1310.9354    -822.9189   -89735.074   -93064.969   -90108.501    727041.56 
   55341    1295.9441    1030.6646   -89804.207   -93096.024   -89338.259    724321.13 
Loop time of 14.2587 on 2 procs for 172 steps with 19652 atoms

Performance: 1.042 ns/day, 23.028 hours/ns, 12.063 timesteps/s
97.0% CPU use with 2 MPI tasks x no OpenMP threads

MPI task timing breakdown:
Section |  min time  |  avg time  |  max time  |%varavg| %total
---------------------------------------------------------------
Pair    | 8.3376     | 8.4266     | 8.5156     |   3.1 | 59.10
Neigh   | 5.3388     | 5.4037     | 5.4686     |   2.8 | 37.90
Comm    | 0.23271    | 0.25512    | 0.27754    |   4.4 |  1.79
Output  | 7.6056e-05 | 0.00011504 | 0.00015402 |   0.0 |  0.00
Modify  | 0.13706    | 0.13856    | 0.14007    |   0.4 |  0.97
Other   |            | 0.03457    |            |       |  0.24

Nlocal:    9826 ave 9844 max 9808 min
Histogram: 1 0 0 0 0 0 0 0 0 1
Nghost:    10416.5 ave 10441 max 10392 min
Histogram: 1 0 0 0 0 0 0 0 0 1
Neighs:    569680 ave 573600 max 565761 min
Histogram: 1 0 0 0 0 0 0 0 0 1

Total # of neighbors = 1139361
Ave neighs/atom = 57.9768
Neighbor list builds = 172
Dangerous builds not checked
Setting up Verlet run ...
  Unit style    : metal
[...]
Pair    | 23.868     | 24.09      | 24.312     |   4.5 | 59.40
Neigh   | 14.902     | 14.936     | 14.969     |   0.9 | 36.83
Comm    | 0.74467    | 1.0032     | 1.2616     |  25.8 |  2.47
Output  | 0.03606    | 0.036165   | 0.03627    |   0.1 |  0.09
Modify  | 0.38703    | 0.38918    | 0.39132    |   0.3 |  0.96
Other   |            | 0.1012     |            |       |  0.25

Nlocal:    9826 ave 9834 max 9818 min
Histogram: 1 0 0 0 0 0 0 0 0 1
Nghost:    11225.5 ave 11241 max 11210 min
Histogram: 1 0 0 0 0 0 0 0 0 1
Neighs:    586668 ave 591908 max 581429 min
Histogram: 1 0 0 0 0 0 0 0 0 1

Total # of neighbors = 1173337
Ave neighs/atom = 59.7057
Neighbor list builds = 495
Dangerous builds not checked
Setting up Verlet run ...
  Unit style    : metal
  Current step  : 67175
  Time step     : 0.001
Per MPI rank memory allocation (min/avg/max) = 12.95 | 12.96 | 12.96 Mbytes
Step Temp Press TotEng PotEng Enthalpy Volume 
   67175    423.42481    -32.84147   -94490.172    -95565.71   -94504.748    711099.11 
   67347     412.7666   -125.45743   -94548.034   -95596.499   -94603.713    711056.94 
Loop time of 13.868 on 2 procs for 172 steps with 19652 atoms

Performance: 1.072 ns/day, 22.397 hours/ns, 12.403 timesteps/s
98.7% CPU use with 2 MPI tasks x no OpenMP threads

MPI task timing breakdown:
Section |  min time  |  avg time  |  max time  |%varavg| %total
---------------------------------------------------------------
Pair    | 8.0646     | 8.2028     | 8.3409     |   4.8 | 59.15
Neigh   | 5.1866     | 5.196      | 5.2054     |   0.4 | 37.47
Comm    | 0.15001    | 0.29826    | 0.44651    |  27.1 |  2.15
Output  | 8.0109e-05 | 0.00011957 | 0.00015903 |   0.0 |  0.00
Modify  | 0.13527    | 0.13602    | 0.13678    |   0.2 |  0.98
Other   |            | 0.03487    |            |       |  0.25

Nlocal:    9826 ave 9835 max 9817 min
Histogram: 1 0 0 0 0 0 0 0 0 1
Nghost:    11226.5 ave 11288 max 11165 min
Histogram: 1 0 0 0 0 0 0 0 0 1
Neighs:    586164 ave 591562 max 580765 min
Histogram: 1 0 0 0 0 0 0 0 0 1

Total # of neighbors = 1172327
Ave neighs/atom = 59.6543
Neighbor list builds = 172
Dangerous builds not checked
Setting up Verlet run ...
  Unit style    : metal
  Current step  : 67347
  Time step     : 0.001
Per MPI rank memory allocation (min/avg/max) = 12.95 | 12.96 | 12.96 Mbytes
Step Temp Press TotEng PotEng Enthalpy Volume 
   67347     412.7666   -125.45743   -94548.034   -95596.499   -94603.713    711056.94 
   67367    412.95586   -110.73916   -94549.478   -95598.423   -94598.622    711021.75 
   67842    374.03646   -211.54227   -94768.685   -95718.772    -94862.48    710383.16 
Loop time of 41.1844 on 2 procs for 495 steps with 19652 atoms

Performance: 1.038 ns/day, 23.111 hours/ns, 12.019 timesteps/s
97.3% CPU use with 2 MPI tasks x no OpenMP threads

MPI task timing breakdown:
Section |  min time  |  avg time  |  max time  |%varavg| %total
---------------------------------------------------------------
Pair    | 24.328     | 24.573     | 24.819     |   4.9 | 59.67
Neigh   | 14.698     | 14.828     | 14.957     |   3.4 | 36.00
Comm    | 0.88088    | 1.2603     | 1.6398     |  33.8 |  3.06
Output  | 0.036142   | 0.036223   | 0.036304   |   0.0 |  0.09
Modify  | 0.38288    | 0.38747    | 0.39207    |   0.7 |  0.94
Other   |            | 0.09933    |            |       |  0.24

Nlocal:    9826 ave 9832 max 9820 min
Histogram: 1 0 0 0 0 0 0 0 0 1
Nghost:    11276 ave 11290 max 11262 min
Histogram: 1 0 0 0 0 0 0 0 0 1
Neighs:    586041 ave 590891 max 581191 min
Histogram: 1 0 0 0 0 0 0 0 0 1

Total # of neighbors = 1172082
Ave neighs/atom = 59.6419
Neighbor list builds = 495
Dangerous builds not checked
Setting up Verlet run ...
  Unit style    : metal
  Current step  : 67842
  Time step     : 0.001
Per MPI rank memory allocation (min/avg/max) = 12.95 | 12.96 | 12.96 Mbytes
Step Temp Press TotEng PotEng Enthalpy Volume 
   67842    374.03646   -211.54227   -94768.685   -95718.772    -94862.48    710383.16 
   68014    363.64644   -204.98324   -94828.125    -95751.82   -94918.993    710235.48 
Loop time of 14.2293 on 2 procs for 172 steps with 19652 atoms

Performance: 1.044 ns/day, 22.980 hours/ns, 12.088 timesteps/s
98.7% CPU use with 2 MPI tasks x no OpenMP threads

MPI task timing breakdown:
Section |  min time  |  avg time  |  max time  |%varavg| %total
---------------------------------------------------------------
Pair    | 8.4729     | 8.494      | 8.5151     |   0.7 | 59.69
Neigh   | 5.1557     | 5.2376     | 5.3195     |   3.6 | 36.81
Comm    | 0.21923    | 0.32374    | 0.42825    |  18.4 |  2.28
Output  | 8.3208e-05 | 0.00017715 | 0.00027108 |   0.0 |  0.00
Modify  | 0.13712    | 0.13866    | 0.14019    |   0.4 |  0.97
Other   |            | 0.0351     |            |       |  0.25

Nlocal:    9826 ave 9841 max 9811 min
Histogram: 1 0 0 0 0 0 0 0 0 1
Nghost:    11315 ave 11316 max 11314 min
Histogram: 1 0 0 0 0 0 0 0 0 1
Neighs:    585692 ave 590295 max 581089 min
Histogram: 1 0 0 0 0 0 0 0 0 1

Total # of neighbors = 1171384
Ave neighs/atom = 59.6064
Neighbor list builds = 172
Dangerous builds not checked
Setting up Verlet run ...
  Unit style    : metal
  Current step  : 68014
  Time step     : 0.001
Per MPI rank memory allocation (min/avg/max) = 12.95 | 12.96 | 12.96 Mbytes
Step Temp Press TotEng PotEng Enthalpy Volume 
   68014    363.64644   -204.98324   -94828.125    -95751.82   -94918.993    710235.48 
   68034    364.31896   -158.87933    -94829.69   -95755.093   -94900.114    710172.02 
   68509    327.32648   -414.17328   -95046.812   -95878.251   -95230.277    709712.14 
Loop time of 39.9591 on 2 procs for 495 steps with 19652 atoms

Performance: 1.070 ns/day, 22.424 hours/ns, 12.388 timesteps/s
98.7% CPU use with 2 MPI tasks x no OpenMP threads

MPI task timing breakdown:
Section |  min time  |  avg time  |  max time  |%varavg| %total
---------------------------------------------------------------
Pair    | 23.71      | 23.929     | 24.149     |   4.5 | 59.88
Neigh   | 14.41      | 14.511     | 14.611     |   2.6 | 36.31
Comm    | 0.6791     | 1.003      | 1.3269     |  32.3 |  2.51
Output  | 0.032728   | 0.032792   | 0.032855   |   0.0 |  0.08
Modify  | 0.3813     | 0.38502    | 0.38874    |   0.6 |  0.96
Other   |            | 0.0982     |            |       |  0.25

Nlocal:    9826 ave 9836 max 9816 min
Histogram: 1 0 0 0 0 0 0 0 0 1
Nghost:    11348.5 ave 11394 max 11303 min
Histogram: 1 0 0 0 0 0 0 0 0 1
Neighs:    585860 ave 592036 max 579684 min
Histogram: 1 0 0 0 0 0 0 0 0 1

Total # of neighbors = 1171720
Ave neighs/atom = 59.6234
Neighbor list builds = 495
Dangerous builds not checked
Setting up Verlet run ...
  Unit style    : metal
  Current step  : 68509
  Time step     : 0.001
Per MPI rank memory allocation (min/avg/max) = 12.95 | 12.96 | 12.96 Mbytes
Step Temp Press TotEng PotEng Enthalpy Volume 
   68509    327.32648   -414.17328   -95046.812   -95878.251   -95230.277    709712.14 
   68681    316.07997   -189.37496   -95101.832   -95904.703   -95185.667    709275.37 
Loop time of 13.8402 on 2 procs for 172 steps with 19652 atoms

Performance: 1.074 ns/day, 22.352 hours/ns, 12.428 timesteps/s
98.0% CPU use with 2 MPI tasks x no OpenMP threads

MPI task timing breakdown:
Section |  min time  |  avg time  |  max time  |%varavg| %total
---------------------------------------------------------------
Pair    | 8.1497     | 8.2475     | 8.3453     |   3.4 | 59.59
Neigh   | 4.9101     | 4.9884     | 5.0667     |   3.5 | 36.04
Comm    | 0.25846    | 0.43512    | 0.61177    |  26.8 |  3.14
Output  | 7.2956e-05 | 0.00011253 | 0.00015211 |   0.0 |  0.00
Modify  | 0.13443    | 0.13491    | 0.13538    |   0.1 |  0.97
Other   |            | 0.03419    |            |       |  0.25

Nlocal:    9826 ave 9834 max 9818 min
Histogram: 1 0 0 0 0 0 0 0 0 1
Nghost:    11358.5 ave 11376 max 11341 min
Histogram: 1 0 0 0 0 0 0 0 0 1
Neighs:    585944 ave 592376 max 579512 min
Histogram: 1 0 0 0 0 0 0 0 0 1

Total # of neighbors = 1171888
Ave neighs/atom = 59.632
Neighbor list builds = 172
Dangerous builds not checked
Setting up Verlet run ...
  Unit style    : metal
  Current step  : 68681
  Time step     : 0.001
Per MPI rank memory allocation (min/avg/max) = 12.95 | 12.96 | 12.96 Mbytes
Step Temp Press TotEng PotEng Enthalpy Volume 
   68681    316.07997   -189.37496   -95101.832   -95904.703   -95185.667    709275.37 
   68701     317.1791   -154.81764   -95103.703   -95909.367   -95172.233    709205.35 
   69176       274.66    124.04677    -95315.64   -96013.301   -95260.787    708473.07 
Loop time of 39.625 on 2 procs for 495 steps with 19652 atoms

Performance: 1.079 ns/day, 22.236 hours/ns, 12.492 timesteps/s
99.4% CPU use with 2 MPI tasks x no OpenMP threads

MPI task timing breakdown:
Section |  min time  |  avg time  |  max time  |%varavg| %total
---------------------------------------------------------------
Pair    | 23.419     | 23.508     | 23.598     |   1.8 | 59.33
Neigh   | 14.399     | 14.547     | 14.696     |   3.9 | 36.71
Comm    | 0.98414    | 1.0457     | 1.1074     |   6.0 |  2.64
Output  | 0.035784   | 0.035891   | 0.035998   |   0.1 |  0.09
Modify  | 0.38695    | 0.38822    | 0.38949    |   0.2 |  0.98
Other   |            | 0.09961    |            |       |  0.25

Nlocal:    9826 ave 9833 max 9819 min
Histogram: 1 0 0 0 0 0 0 0 0 1
Nghost:    11423.5 ave 11448 max 11399 min
Histogram: 1 0 0 0 0 0 0 0 0 1
Neighs:    585833 ave 592166 max 579500 min
Histogram: 1 0 0 0 0 0 0 0 0 1

Total # of neighbors = 1171666
Ave neighs/atom = 59.6207
Neighbor list builds = 495
Dangerous builds not checked
Setting up Verlet run ...
  Unit style    : metal
  Current step  : 69176
  Time step     : 0.001
Per MPI rank memory allocation (min/avg/max) = 12.95 | 12.96 | 12.96 Mbytes
Step Temp Press TotEng PotEng Enthalpy Volume 
   69176       274.66    124.04677    -95315.64   -96013.301   -95260.787    708473.07 
   69348    265.83349   -57.927782   -95369.912   -96045.153   -95395.524    708391.53 
Loop time of 14.1392 on 2 procs for 172 steps with 19652 atoms

Performance: 1.051 ns/day, 22.835 hours/ns, 12.165 timesteps/s
96.3% CPU use with 2 MPI tasks x no OpenMP threads

MPI task timing breakdown:
Section |  min time  |  avg time  |  max time  |%varavg| %total
---------------------------------------------------------------
Pair    | 8.0652     | 8.0868     | 8.1083     |   0.8 | 57.19
Neigh   | 4.9307     | 5.0104     | 5.09       |   3.6 | 35.44
Comm    | 0.81312    | 0.87398    | 0.93484    |   6.5 |  6.18
Output  | 8.1062e-05 | 0.00011957 | 0.00015807 |   0.0 |  0.00
Modify  | 0.1319     | 0.13375    | 0.13559    |   0.5 |  0.95
Other   |            | 0.03417    |            |       |  0.24

Nlocal:    9826 ave 9838 max 9814 min
Histogram: 1 0 0 0 0 0 0 0 0 1
Nghost:    11404 ave 11447 max 11361 min
Histogram: 1 0 0 0 0 0 0 0 0 1
Neighs:    585880 ave 592660 max 579101 min
Histogram: 1 0 0 0 0 0 0 0 0 1

Total # of neighbors = 1171761
Ave neighs/atom = 59.6255
Neighbor list builds = 172
Dangerous builds not checked
Setting up Verlet run ...
  Unit style    : metal
  Current step  : 69348
  Time step     : 0.001
Per MPI rank memory allocation (min/avg/max) = 12.95 | 12.96 | 12.96 Mbytes
Step Temp Press TotEng PotEng Enthalpy Volume 
   69348    265.83349   -57.927782   -95369.912   -96045.153   -95395.524    708391.53 
   69368    267.04935   -75.791713   -95371.767   -96050.097   -95405.277    708360.85 
   69843    226.36811    64.780924   -95578.091   -96153.087   -95549.484    707510.24 
Loop time of 40.2512 on 2 procs for 495 steps with 19652 atoms

Performance: 1.063 ns/day, 22.588 hours/ns, 12.298 timesteps/s
98.2% CPU use with 2 MPI tasks x no OpenMP threads

MPI task timing breakdown:
Section |  min time  |  avg time  |  max time  |%varavg| %total
---------------------------------------------------------------
Pair    | 24.127     | 24.238     | 24.348     |   2.2 | 60.22
Neigh   | 14.313     | 14.398     | 14.483     |   2.2 | 35.77
Comm    | 1.0746     | 1.0981     | 1.1216     |   2.2 |  2.73
Output  | 0.032134   | 0.032244   | 0.032353   |   0.1 |  0.08
Modify  | 0.38466    | 0.386      | 0.38735    |   0.2 |  0.96
Other   |            | 0.09937    |            |       |  0.25

Nlocal:    9826 ave 9831 max 9821 min
Histogram: 1 0 0 0 0 0 0 0 0 1
Nghost:    11445 ave 11466 max 11424 min
Histogram: 1 0 0 0 0 0 0 0 0 1
Neighs:    586291 ave 591259 max 581323 min
Histogram: 1 0 0 0 0 0 0 0 0 1

Total # of neighbors = 1172582
Ave neighs/atom = 59.6673
Neighbor list builds = 495
Dangerous builds not checked
Setting up Verlet run ...
  Unit style    : metal
  Current step  : 69843
  Time step     : 0.001
Per MPI rank memory allocation (min/avg/max) = 12.95 | 12.96 | 12.96 Mbytes
Step Temp Press TotEng PotEng Enthalpy Volume 
   69843    226.36811    64.780924   -95578.091   -96153.087   -95549.484    707510.24 
   70015    217.96197   -56.649037   -95630.991   -96184.635   -95656.005    707437.62 
Loop time of 14.1564 on 2 procs for 172 steps with 19652 atoms

Performance: 1.050 ns/day, 22.862 hours/ns, 12.150 timesteps/s
96.1% CPU use with 2 MPI tasks x no OpenMP threads

MPI task timing breakdown:
Section |  min time  |  avg time  |  max time  |%varavg| %total
---------------------------------------------------------------
Pair    | 8.2649     | 8.3306     | 8.3964     |   2.3 | 58.85
Neigh   | 4.9422     | 4.9468     | 4.9515     |   0.2 | 34.94
Comm    | 0.63993    | 0.71171    | 0.7835     |   8.5 |  5.03
Output  | 7.4148e-05 | 0.00011158 | 0.00014901 |   0.0 |  0.00
Modify  | 0.13146    | 0.1327     | 0.13394    |   0.3 |  0.94
Other   |            | 0.03434    |            |       |  0.24

Nlocal:    9826 ave 9829 max 9823 min
Histogram: 1 0 0 0 0 0 0 0 0 1
Nghost:    11435 ave 11483 max 11387 min
Histogram: 1 0 0 0 0 0 0 0 0 1
Neighs:    586280 ave 591671 max 580890 min
Histogram: 1 0 0 0 0 0 0 0 0 1

Total # of neighbors = 1172561
Ave neighs/atom = 59.6662
Neighbor list builds = 172
Dangerous builds not checked
Setting up Verlet run ...
  Unit style    : metal
  Current step  : 70015
  Time step     : 0.001
Per MPI rank memory allocation (min/avg/max) = 12.95 | 12.96 | 12.96 Mbytes
Step Temp Press TotEng PotEng Enthalpy Volume 
   70015    217.96197   -56.649037   -95630.991   -96184.635   -95656.005    707437.62 
   70035    218.53295   -42.488975   -95633.091   -96188.185   -95651.851    707406.02 
   70510    177.52556   -88.212975   -95833.019   -96283.951   -95871.927    706667.76 
Loop time of 39.6124 on 2 procs for 495 steps with 19652 atoms

Performance: 1.080 ns/day, 22.229 hours/ns, 12.496 timesteps/s
98.5% CPU use with 2 MPI tasks x no OpenMP threads

MPI task timing breakdown:
Section |  min time  |  avg time  |  max time  |%varavg| %total
---------------------------------------------------------------
Pair    | 23.462     | 23.612     | 23.763     |   3.1 | 59.61
Neigh   | 14.292     | 14.335     | 14.378     |   1.1 | 36.19
Comm    | 1.0385     | 1.1458     | 1.2531     |  10.0 |  2.89
Output  | 0.035526   | 0.03558    | 0.035634   |   0.0 |  0.09
Modify  | 0.38362    | 0.38427    | 0.38492    |   0.1 |  0.97
Other   |            | 0.09967    |            |       |  0.25

Nlocal:    9826 ave 9835 max 9817 min
Histogram: 1 0 0 0 0 0 0 0 0 1
Nghost:    11465.5 ave 11489 max 11442 min
Histogram: 1 0 0 0 0 0 0 0 0 1
Neighs:    587234 ave 592013 max 582456 min
Histogram: 1 0 0 0 0 0 0 0 0 1

Total # of neighbors = 1174469
Ave neighs/atom = 59.7633
Neighbor list builds = 495
Dangerous builds not checked
Setting up Verlet run ...
  Unit style    : metal
  Current step  : 70510
  Time step     : 0.001
Per MPI rank memory allocation (min/avg/max) = 12.95 | 12.96 | 12.96 Mbytes
Step Temp Press TotEng PotEng Enthalpy Volume 
   70510    177.52556   -88.212975   -95833.019   -96283.951   -95871.927    706667.76 
   70682    170.16733    59.492185   -95886.034   -96318.275    -95859.81     706229.1 
Loop time of 14.0709 on 2 procs for 172 steps with 19652 atoms

Performance: 1.056 ns/day, 22.724 hours/ns, 12.224 timesteps/s
97.2% CPU use with 2 MPI tasks x no OpenMP threads

MPI task timing breakdown:
Section |  min time  |  avg time  |  max time  |%varavg| %total
---------------------------------------------------------------
Pair    | 8.4543     | 8.5237     | 8.5932     |   2.4 | 60.58
Neigh   | 4.8531     | 4.8599     | 4.8666     |   0.3 | 34.54
Comm    | 0.44306    | 0.52044    | 0.59781    |  10.7 |  3.70
Output  | 7.5102e-05 | 0.00010908 | 0.00014305 |   0.0 |  0.00
Modify  | 0.13174    | 0.13282    | 0.1339     |   0.3 |  0.94
Other   |            | 0.0339     |            |       |  0.24

Nlocal:    9826 ave 9828 max 9824 min
Histogram: 1 0 0 0 0 0 0 0 0 1
Nghost:    11476 ave 11501 max 11451 min
Histogram: 1 0 0 0 0 0 0 0 0 1
Neighs:    587889 ave 593027 max 582751 min
Histogram: 1 0 0 0 0 0 0 0 0 1

Total # of neighbors = 1175778
Ave neighs/atom = 59.8299
Neighbor list builds = 172
Dangerous builds not checked
Setting up Verlet run ...
  Unit style    : metal
  Current step  : 70682
  Time step     : 0.001
Per MPI rank memory allocation (min/avg/max) = 12.95 | 12.96 | 12.96 Mbytes
Step Temp Press TotEng PotEng Enthalpy Volume 
   70682    170.16733    59.492185   -95886.034   -96318.275    -95859.81     706229.1 
   70702     170.1773     9.544275   -95888.404    -96320.67   -95884.197    706264.22 
   71177    131.85366    55.876236    -96081.58   -96416.501   -96056.977    705485.38 
Loop time of 38.1675 on 2 procs for 495 steps with 19652 atoms

Performance: 1.121 ns/day, 21.418 hours/ns, 12.969 timesteps/s
99.7% CPU use with 2 MPI tasks x no OpenMP threads

MPI task timing breakdown:
Section |  min time  |  avg time  |  max time  |%varavg| %total
---------------------------------------------------------------
Pair    | 22.321     | 22.565     | 22.808     |   5.1 | 59.12
Neigh   | 13.564     | 13.641     | 13.719     |   2.1 | 35.74
Comm    | 1.1249     | 1.29       | 1.4551     |  14.5 |  3.38
Output  | 0.035804   | 0.035834   | 0.035864   |   0.0 |  0.09
Modify  | 0.54221    | 0.54222    | 0.54223    |   0.0 |  1.42
Other   |            | 0.09314    |            |       |  0.24

Nlocal:    9826 ave 9830 max 9822 min
Histogram: 1 0 0 0 0 0 0 0 0 1
Nghost:    11483 ave 11504 max 11462 min
Histogram: 1 0 0 0 0 0 0 0 0 1
Neighs:    588794 ave 594112 max 583477 min
Histogram: 1 0 0 0 0 0 0 0 0 1

Total # of neighbors = 1177589
Ave neighs/atom = 59.9221
Neighbor list builds = 495
Dangerous builds not checked
Setting up Verlet run ...
  Unit style    : metal
  Current step  : 71177
  Time step     : 0.001
Per MPI rank memory allocation (min/avg/max) = 12.95 | 12.96 | 12.96 Mbytes
Step Temp Press TotEng PotEng Enthalpy Volume 
   71177    131.85366    55.876236    -96081.58   -96416.501   -96056.977    705485.38 
   71349    121.82336    36.093811   -96134.541   -96443.984    -96118.65    705397.14 
Loop time of 13.6525 on 2 procs for 172 steps with 19652 atoms

Performance: 1.088 ns/day, 22.049 hours/ns, 12.598 timesteps/s
99.4% CPU use with 2 MPI tasks x no OpenMP threads

MPI task timing breakdown:
Section |  min time  |  avg time  |  max time  |%varavg| %total
---------------------------------------------------------------
Pair    | 8.0106     | 8.1423     | 8.2741     |   4.6 | 59.64
Neigh   | 4.6195     | 4.8307     | 5.042      |   9.6 | 35.38
Comm    | 0.43038    | 0.5139     | 0.59742    |  11.7 |  3.76
Output  | 7.7963e-05 | 0.00010538 | 0.0001328  |   0.0 |  0.00
Modify  | 0.1289     | 0.13163    | 0.13436    |   0.8 |  0.96
Other   |            | 0.03382    |            |       |  0.25

Nlocal:    9826 ave 9828 max 9824 min
Histogram: 1 0 0 0 0 0 0 0 0 1
Nghost:    11471 ave 11475 max 11467 min
Histogram: 1 0 0 0 0 0 0 0 0 1
Neighs:    588688 ave 594274 max 583102 min
Histogram: 1 0 0 0 0 0 0 0 0 1

Total # of neighbors = 1177376
Ave neighs/atom = 59.9113
Neighbor list builds = 172
Dangerous builds not checked
Total wall time: 1:34:57
