LAMMPS (12 Dec 2018)
Lattice spacing in x,y,z = 4 4 4
Created orthogonal box = (0 0 0) to (68 68 68)
  1 by 1 by 1 MPI processor grid
Created 19652 atoms
  Time spent = 0.002913 secs
Setting atom values ...
  19281 settings made for type/fraction
Neighbor list info ...
  update every 1 steps, delay 0 steps, check no
  max neighbors/atom: 2000, page size: 100000
  master list distance cutoff = 8.5
  ghost atom cutoff = 8.5
  binsize = 4.25, bins = 16 16 16
  1 neighbor lists, perpetual/occasional/extra = 1 0 0
  (1) pair eam/alloy, perpetual
      attributes: half, newton on
      pair build: half/bin/atomonly/newton
      stencil: half/bin/3d/newton
      bin: standard
Setting up Verlet run ...
  Unit style    : metal
  Current step  : 0
  Time step     : 0.001
Per MPI rank memory allocation (min/avg/max) = 18.19 | 18.19 | 18.19 Mbytes
Step Temp Press TotEng PotEng Enthalpy Volume 
       0          300    56881.345   -55279.362   -56041.389   -44116.225       314432 
    1000    156.57878    63536.272   -55279.313   -55677.038   -42810.127       314432 
Loop time of 134.414 on 1 procs for 1000 steps with 19652 atoms

Performance: 0.643 ns/day, 37.337 hours/ns, 7.440 timesteps/s
99.7% CPU use with 1 MPI tasks x no OpenMP threads

MPI task timing breakdown:
Section |  min time  |  avg time  |  max time  |%varavg| %total
---------------------------------------------------------------
Pair    | 79.524     | 79.524     | 79.524     |   0.0 | 59.16
Neigh   | 52.701     | 52.701     | 52.701     |   0.0 | 39.21
Comm    | 1.3271     | 1.3271     | 1.3271     |   0.0 |  0.99
Output  | 0.041195   | 0.041195   | 0.041195   |   0.0 |  0.03
Modify  | 0.46421    | 0.46421    | 0.46421    |   0.0 |  0.35
Other   |            | 0.3573     |            |       |  0.27

Nlocal:    19652 ave 19652 max 19652 min
Histogram: 1 0 0 0 0 0 0 0 0 0
Nghost:    20102 ave 20102 max 20102 min
Histogram: 1 0 0 0 0 0 0 0 0 0
Neighs:    1.57365e+06 ave 1.57365e+06 max 1.57365e+06 min
Histogram: 1 0 0 0 0 0 0 0 0 0

Total # of neighbors = 1573647
Ave neighs/atom = 80.0757
Neighbor list builds = 1000
Dangerous builds not checked
Setting up Verlet run ...
  Unit style    : metal
  Current step  : 1000
  Time step     : 0.001
Per MPI rank memory allocation (min/avg/max) = 18.19 | 18.19 | 18.19 Mbytes
Step Temp Press TotEng PotEng Enthalpy Volume 
    1000    156.57878    63536.272   -55279.313   -55677.038   -42810.127       314432 
    2000    294.21489   -181.21187   -54794.684   -55542.017   -54832.725    336329.71 
Loop time of 129.078 on 1 procs for 1000 steps with 19652 atoms

Performance: 0.669 ns/day, 35.855 hours/ns, 7.747 timesteps/s
99.7% CPU use with 1 MPI tasks x no OpenMP threads

MPI task timing breakdown:
Section |  min time  |  avg time  |  max time  |%varavg| %total
---------------------------------------------------------------
Pair    | 74.099     | 74.099     | 74.099     |   0.0 | 57.41
Neigh   | 51.863     | 51.863     | 51.863     |   0.0 | 40.18
Comm    | 1.2408     | 1.2408     | 1.2408     |   0.0 |  0.96
Output  | 0.040711   | 0.040711   | 0.040711   |   0.0 |  0.03
Modify  | 1.4812     | 1.4812     | 1.4812     |   0.0 |  1.15
Other   |            | 0.3526     |            |       |  0.27

Nlocal:    19652 ave 19652 max 19652 min
Histogram: 1 0 0 0 0 0 0 0 0 0
Nghost:    20091 ave 20091 max 20091 min
Histogram: 1 0 0 0 0 0 0 0 0 0
Neighs:    1.41256e+06 ave 1.41256e+06 max 1.41256e+06 min
Histogram: 1 0 0 0 0 0 0 0 0 0

Total # of neighbors = 1412565
Ave neighs/atom = 71.8789
Neighbor list builds = 1000
Dangerous builds not checked
Setting up Verlet run ...
  Unit style    : metal
  Current step  : 2000
  Time step     : 0.001
Per MPI rank memory allocation (min/avg/max) = 18.19 | 18.19 | 18.19 Mbytes
Step Temp Press TotEng PotEng Enthalpy Volume 
    2000    294.21489   -181.21187   -54794.684   -55542.017   -54832.725    336329.71 
    3000    472.74473    788.86271    -53853.69   -55054.504   -53686.147    340279.31 
    4000    798.87259    111.76241   -51990.087   -54019.296   -51965.652    350281.08 
    5000    1086.6977    95.574728   -50155.418   -52915.729   -50133.852    361525.92 
    6000     1352.321   -860.03403    -48093.62   -51528.638   -48296.032    377078.08 
    7000    1620.7569    20.201763   -45344.398   -49461.268   -45339.314    403216.24 
    8000    1914.5559    65.307767   -43365.124   -48228.271   -43347.941    421543.56 
    9000    2164.7206   -1129.9667   -41748.741   -47247.329   -42057.827    438252.24 
   10000     2424.663     -1046.73   -40105.071   -46263.936   -40402.967     455975.1 
Loop time of 980.638 on 1 procs for 8000 steps with 19652 atoms

Performance: 0.705 ns/day, 34.050 hours/ns, 8.158 timesteps/s
99.4% CPU use with 1 MPI tasks x no OpenMP threads

MPI task timing breakdown:
Section |  min time  |  avg time  |  max time  |%varavg| %total
---------------------------------------------------------------
Pair    | 541.32     | 541.32     | 541.32     |   0.0 | 55.20
Neigh   | 414.76     | 414.76     | 414.76     |   0.0 | 42.29
Comm    | 9.5048     | 9.5048     | 9.5048     |   0.0 |  0.97
Output  | 0.33506    | 0.33506    | 0.33506    |   0.0 |  0.03
Modify  | 11.949     | 11.949     | 11.949     |   0.0 |  1.22
Other   |            | 2.777      |            |       |  0.28

Nlocal:    19652 ave 19652 max 19652 min
Histogram: 1 0 0 0 0 0 0 0 0 0
Nghost:    16195 ave 16195 max 16195 min
Histogram: 1 0 0 0 0 0 0 0 0 0
Neighs:    1.08366e+06 ave 1.08366e+06 max 1.08366e+06 min
Histogram: 1 0 0 0 0 0 0 0 0 0

Total # of neighbors = 1083658
Ave neighs/atom = 55.1424
Neighbor list builds = 8000
Dangerous builds not checked
Setting up Verlet run ...
  Unit style    : metal
  Current step  : 10000
  Time step     : 0.001
Per MPI rank memory allocation (min/avg/max) = 18.2 | 18.2 | 18.2 Mbytes
Step Temp Press TotEng PotEng Enthalpy Volume 
   10000     2424.663     -1046.73   -40105.071   -46263.936   -40402.967     455975.1 
   11000    2460.9542    386.99492   -39846.342    -46097.39    -39735.58    458558.55 
   12000     2431.819     46.05728   -39884.321   -46061.363   -39871.132    458799.29 
   13000    2440.7854    517.22784   -39904.266   -46104.083   -39756.471    457811.86 
   14000    2451.5581    -349.9855   -39868.156   -46095.336   -39968.353    458689.92 
   15000    2448.7367   -633.22988   -39820.554   -46040.569   -40002.285    459808.93 
   16000     2453.521    54.641679   -39941.835   -46174.002   -39926.257    456766.84 
   17000    2443.1836    1223.4937   -39934.328   -46140.237    -39585.49    456806.88 
   18000    2444.0622    509.29526   -40003.039   -46211.179   -39858.008    456246.02 
   19000    2437.9967   -1038.8075   -39848.477   -46041.211   -40146.712    459973.72 
   20000    2447.1445   -473.16284   -39887.327   -46103.297   -40022.902     459073.1 
   21000    2457.1604    -200.2713   -39911.775   -46153.187    -39968.98    457639.65 
   22000     2442.557    436.21838   -39856.361   -46060.678   -39731.275    459425.36 
   23000    2447.9189    337.58071   -39897.649   -46115.586   -39801.224    457641.41 
   24000    2414.8457   -314.50443   -40044.912    -46178.84   -40134.622    457009.58 
   25000    2448.1324    193.40048   -39935.472   -46153.951   -39880.255     457430.9 
   26000    2477.1274   -191.07951   -39814.796   -46106.925   -39869.484    458553.13 
   27000    2431.6552    387.90648   -39962.809   -46139.435    -39852.02    457595.06 
   28000    2447.9321   -527.85426   -39963.968   -46181.938   -40114.518    456958.36 
   29000    2451.8498    518.93201   -39920.775   -46148.697   -39772.624    457409.61 
   30000    2445.3591    64.165706   -39961.069   -46172.504    -39942.76    457154.78 
   31000    2449.5814   -93.047331   -39952.487   -46174.647   -39979.052    457423.77 
   32000    2429.9031   -352.08754   -39917.245    -46089.42   -40018.147    459155.49 
   33000    2440.5198    1869.6732   -39981.635   -46180.777   -39449.983     455587.1 
   34000    2451.2042    1213.7698   -39895.351   -46121.633   -39548.953    457245.55 
   35000    2447.7759   -286.88652   -39884.115   -46101.689   -39966.222     458543.2 
   36000    2449.3273    48.069784    -39884.67   -46106.185   -39870.934     457841.1 
   37000     2452.119    553.24305   -39885.672   -46114.277    -39727.83    457104.77 
   38000    2476.9002    231.64655   -39782.056   -46073.608   -39715.615    459534.94 
   39000    2482.5577   -252.41406    -39711.58   -46017.503   -39784.153    460646.84 
   40000    2444.9779   -676.06036   -39879.128   -46089.594   -40073.186    459892.86 
Loop time of 3239.77 on 1 procs for 30000 steps with 19652 atoms

Performance: 0.800 ns/day, 29.998 hours/ns, 9.260 timesteps/s
99.5% CPU use with 1 MPI tasks x no OpenMP threads

MPI task timing breakdown:
Section |  min time  |  avg time  |  max time  |%varavg| %total
---------------------------------------------------------------
Pair    | 1764.9     | 1764.9     | 1764.9     |   0.0 | 54.48
Neigh   | 1385.4     | 1385.4     | 1385.4     |   0.0 | 42.76
Comm    | 33.659     | 33.659     | 33.659     |   0.0 |  1.04
Output  | 1.2181     | 1.2181     | 1.2181     |   0.0 |  0.04
Modify  | 44.415     | 44.415     | 44.415     |   0.0 |  1.37
Other   |            | 10.14      |            |       |  0.31

Nlocal:    19652 ave 19652 max 19652 min
Histogram: 1 0 0 0 0 0 0 0 0 0
Nghost:    16061 ave 16061 max 16061 min
Histogram: 1 0 0 0 0 0 0 0 0 0
Neighs:    1.07424e+06 ave 1.07424e+06 max 1.07424e+06 min
Histogram: 1 0 0 0 0 0 0 0 0 0

Total # of neighbors = 1074243
Ave neighs/atom = 54.6633
Neighbor list builds = 30000
Dangerous builds not checked
Setting up Verlet run ...
  Unit style    : metal
  Current step  : 40000
  Time step     : 0.001
Per MPI rank memory allocation (min/avg/max) = 18.2 | 18.2 | 18.2 Mbytes
Step Temp Press TotEng PotEng Enthalpy Volume 
   40000    2444.9779   -676.06036   -39879.128   -46089.594   -40073.186    459892.86 
   40495    2405.0606    342.46598   -40084.947    -46194.02   -39987.394    456384.72 
Loop time of 51.8429 on 1 procs for 495 steps with 19652 atoms

Performance: 0.825 ns/day, 29.093 hours/ns, 9.548 timesteps/s
99.3% CPU use with 1 MPI tasks x no OpenMP threads

MPI task timing breakdown:
Section |  min time  |  avg time  |  max time  |%varavg| %total
---------------------------------------------------------------
Pair    | 28.115     | 28.115     | 28.115     |   0.0 | 54.23
Neigh   | 22.341     | 22.341     | 22.341     |   0.0 | 43.09
Comm    | 0.49698    | 0.49698    | 0.49698    |   0.0 |  0.96
Output  | 0.00019693 | 0.00019693 | 0.00019693 |   0.0 |  0.00
Modify  | 0.72684    | 0.72684    | 0.72684    |   0.0 |  1.40
Other   |            | 0.1633     |            |       |  0.31

Nlocal:    19652 ave 19652 max 19652 min
Histogram: 1 0 0 0 0 0 0 0 0 0
Nghost:    16007 ave 16007 max 16007 min
Histogram: 1 0 0 0 0 0 0 0 0 0
Neighs:    1.08254e+06 ave 1.08254e+06 max 1.08254e+06 min
Histogram: 1 0 0 0 0 0 0 0 0 0

Total # of neighbors = 1082539
Ave neighs/atom = 55.0854
Neighbor list builds = 495
Dangerous builds not checked
Setting up Verlet run ...
  Unit style    : metal
  Current step  : 40495
  Time step     : 0.001
Per MPI rank memory allocation (min/avg/max) = 18.2 | 18.2 | 18.2 Mbytes
Step Temp Press TotEng PotEng Enthalpy Volume 
   40495    2405.0606    342.46598   -40084.947    -46194.02   -39987.394    456384.72 
   41000    2401.6861    695.14623   -40233.025   -46333.527   -40036.126    453813.41 
Loop time of 52.7723 on 1 procs for 505 steps with 19652 atoms

Performance: 0.827 ns/day, 29.028 hours/ns, 9.569 timesteps/s
99.8% CPU use with 1 MPI tasks x no OpenMP threads

MPI task timing breakdown:
Section |  min time  |  avg time  |  max time  |%varavg| %total
---------------------------------------------------------------
Pair    | 28.635     | 28.635     | 28.635     |   0.0 | 54.26
Neigh   | 22.679     | 22.679     | 22.679     |   0.0 | 42.98
Comm    | 0.51902    | 0.51902    | 0.51902    |   0.0 |  0.98
Output  | 0.039807   | 0.039807   | 0.039807   |   0.0 |  0.08
Modify  | 0.73138    | 0.73138    | 0.73138    |   0.0 |  1.39
Other   |            | 0.1685     |            |       |  0.32

Nlocal:    19652 ave 19652 max 19652 min
Histogram: 1 0 0 0 0 0 0 0 0 0
Nghost:    16065 ave 16065 max 16065 min
Histogram: 1 0 0 0 0 0 0 0 0 0
Neighs:    1.08939e+06 ave 1.08939e+06 max 1.08939e+06 min
Histogram: 1 0 0 0 0 0 0 0 0 0

Total # of neighbors = 1089393
Ave neighs/atom = 55.4342
Neighbor list builds = 505
Dangerous builds not checked
Setting up Verlet run ...
  Unit style    : metal
  Current step  : 41000
  Time step     : 0.001
Per MPI rank memory allocation (min/avg/max) = 18.2 | 18.2 | 18.2 Mbytes
Step Temp Press TotEng PotEng Enthalpy Volume 
   41000    2401.6861    695.14623   -40233.025   -46333.527   -40036.126    453813.41 
   41495    2358.0053     8.819356   -40455.904   -46445.452   -40453.411    452818.11 
Loop time of 52.6671 on 1 procs for 495 steps with 19652 atoms

Performance: 0.812 ns/day, 29.555 hours/ns, 9.399 timesteps/s
98.0% CPU use with 1 MPI tasks x no OpenMP threads

MPI task timing breakdown:
Section |  min time  |  avg time  |  max time  |%varavg| %total
---------------------------------------------------------------
Pair    | 28.659     | 28.659     | 28.659     |   0.0 | 54.42
Neigh   | 22.619     | 22.619     | 22.619     |   0.0 | 42.95
Comm    | 0.50568    | 0.50568    | 0.50568    |   0.0 |  0.96
Output  | 0.00021482 | 0.00021482 | 0.00021482 |   0.0 |  0.00
Modify  | 0.71639    | 0.71639    | 0.71639    |   0.0 |  1.36
Other   |            | 0.1661     |            |       |  0.32

Nlocal:    19652 ave 19652 max 19652 min
Histogram: 1 0 0 0 0 0 0 0 0 0
Nghost:    16055 ave 16055 max 16055 min
Histogram: 1 0 0 0 0 0 0 0 0 0
Neighs:    1.0915e+06 ave 1.0915e+06 max 1.0915e+06 min
Histogram: 1 0 0 0 0 0 0 0 0 0

Total # of neighbors = 1091497
Ave neighs/atom = 55.5413
Neighbor list builds = 495
Dangerous builds not checked
Setting up Verlet run ...
  Unit style    : metal
  Current step  : 41495
  Time step     : 0.001
Per MPI rank memory allocation (min/avg/max) = 18.2 | 18.2 | 18.2 Mbytes
Step Temp Press TotEng PotEng Enthalpy Volume 
   41495    2358.0053     8.819356   -40455.904   -46445.452   -40453.411    452818.11 
   42000      2348.82   -837.28045   -40480.556   -46446.773   -40717.216       452861 
Loop time of 52.6898 on 1 procs for 505 steps with 19652 atoms

Performance: 0.828 ns/day, 28.982 hours/ns, 9.584 timesteps/s
99.9% CPU use with 1 MPI tasks x no OpenMP threads

MPI task timing breakdown:
Section |  min time  |  avg time  |  max time  |%varavg| %total
---------------------------------------------------------------
Pair    | 28.645     | 28.645     | 28.645     |   0.0 | 54.37
Neigh   | 22.6       | 22.6       | 22.6       |   0.0 | 42.89
Comm    | 0.5174     | 0.5174     | 0.5174     |   0.0 |  0.98
Output  | 0.040401   | 0.040401   | 0.040401   |   0.0 |  0.08
Modify  | 0.72172    | 0.72172    | 0.72172    |   0.0 |  1.37
Other   |            | 0.1652     |            |       |  0.31

Nlocal:    19652 ave 19652 max 19652 min
Histogram: 1 0 0 0 0 0 0 0 0 0
Nghost:    16164 ave 16164 max 16164 min
Histogram: 1 0 0 0 0 0 0 0 0 0
Neighs:    1.0916e+06 ave 1.0916e+06 max 1.0916e+06 min
Histogram: 1 0 0 0 0 0 0 0 0 0

Total # of neighbors = 1091605
Ave neighs/atom = 55.5468
Neighbor list builds = 505
Dangerous builds not checked
Setting up Verlet run ...
  Unit style    : metal
  Current step  : 42000
  Time step     : 0.001
Per MPI rank memory allocation (min/avg/max) = 18.2 | 18.2 | 18.2 Mbytes
Step Temp Press TotEng PotEng Enthalpy Volume 
   42000      2348.82   -837.28045   -40480.556   -46446.773   -40717.216       452861 
   42495    2301.0725    1159.6838   -40758.852   -46603.786   -40434.127    448627.44 
Loop time of 51.9372 on 1 procs for 495 steps with 19652 atoms

Performance: 0.823 ns/day, 29.145 hours/ns, 9.531 timesteps/s
99.8% CPU use with 1 MPI tasks x no OpenMP threads

MPI task timing breakdown:
Section |  min time  |  avg time  |  max time  |%varavg| %total
---------------------------------------------------------------
Pair    | 28.322     | 28.322     | 28.322     |   0.0 | 54.53
Neigh   | 22.226     | 22.226     | 22.226     |   0.0 | 42.79
Comm    | 0.50866    | 0.50866    | 0.50866    |   0.0 |  0.98
Output  | 0.00021696 | 0.00021696 | 0.00021696 |   0.0 |  0.00
Modify  | 0.7155     | 0.7155     | 0.7155     |   0.0 |  1.38
Other   |            | 0.1648     |            |       |  0.32

Nlocal:    19652 ave 19652 max 19652 min
Histogram: 1 0 0 0 0 0 0 0 0 0
Nghost:    16185 ave 16185 max 16185 min
Histogram: 1 0 0 0 0 0 0 0 0 0
Neighs:    1.10176e+06 ave 1.10176e+06 max 1.10176e+06 min
Histogram: 1 0 0 0 0 0 0 0 0 0

Total # of neighbors = 1101762
Ave neighs/atom = 56.0636
Neighbor list builds = 495
Dangerous builds not checked
Setting up Verlet run ...
  Unit style    : metal
  Current step  : 42495
  Time step     : 0.001
Per MPI rank memory allocation (min/avg/max) = 18.2 | 18.2 | 18.2 Mbytes
Step Temp Press TotEng PotEng Enthalpy Volume 
   42495    2301.0725    1159.6838   -40758.852   -46603.786   -40434.127    448627.44 
   43000    2330.2468    215.01203   -40744.079   -46663.118   -40683.955    448017.93 
Loop time of 53.143 on 1 procs for 505 steps with 19652 atoms

Performance: 0.821 ns/day, 29.232 hours/ns, 9.503 timesteps/s
99.9% CPU use with 1 MPI tasks x no OpenMP threads

MPI task timing breakdown:
Section |  min time  |  avg time  |  max time  |%varavg| %total
---------------------------------------------------------------
Pair    | 29.001     | 29.001     | 29.001     |   0.0 | 54.57
Neigh   | 22.682     | 22.682     | 22.682     |   0.0 | 42.68
Comm    | 0.52327    | 0.52327    | 0.52327    |   0.0 |  0.98
Output  | 0.040222   | 0.040222   | 0.040222   |   0.0 |  0.08
Modify  | 0.7285     | 0.7285     | 0.7285     |   0.0 |  1.37
Other   |            | 0.1679     |            |       |  0.32

Nlocal:    19652 ave 19652 max 19652 min
Histogram: 1 0 0 0 0 0 0 0 0 0
Nghost:    16235 ave 16235 max 16235 min
Histogram: 1 0 0 0 0 0 0 0 0 0
Neighs:    1.10266e+06 ave 1.10266e+06 max 1.10266e+06 min
Histogram: 1 0 0 0 0 0 0 0 0 0

Total # of neighbors = 1102655
Ave neighs/atom = 56.109
Neighbor list builds = 505
Dangerous builds not checked
Setting up Verlet run ...
  Unit style    : metal
  Current step  : 43000
  Time step     : 0.001
Per MPI rank memory allocation (min/avg/max) = 18.2 | 18.2 | 18.2 Mbytes
Step Temp Press TotEng PotEng Enthalpy Volume 
   43000    2330.2468    215.01203   -40744.079   -46663.118   -40683.955    448017.93 
   43495    2266.7367   -296.56238    -41011.41   -46769.127   -41094.073    446588.24 
Loop time of 52.95 on 1 procs for 495 steps with 19652 atoms

Performance: 0.808 ns/day, 29.714 hours/ns, 9.348 timesteps/s
99.3% CPU use with 1 MPI tasks x no OpenMP threads

MPI task timing breakdown:
Section |  min time  |  avg time  |  max time  |%varavg| %total
---------------------------------------------------------------
Pair    | 28.665     | 28.665     | 28.665     |   0.0 | 54.14
Neigh   | 22.895     | 22.895     | 22.895     |   0.0 | 43.24
Comm    | 0.51002    | 0.51002    | 0.51002    |   0.0 |  0.96
Output  | 0.00019407 | 0.00019407 | 0.00019407 |   0.0 |  0.00
Modify  | 0.71586    | 0.71586    | 0.71586    |   0.0 |  1.35
Other   |            | 0.1636     |            |       |  0.31

Nlocal:    19652 ave 19652 max 19652 min
Histogram: 1 0 0 0 0 0 0 0 0 0
Nghost:    16279 ave 16279 max 16279 min
Histogram: 1 0 0 0 0 0 0 0 0 0
Neighs:    1.10597e+06 ave 1.10597e+06 max 1.10597e+06 min
Histogram: 1 0 0 0 0 0 0 0 0 0

Total # of neighbors = 1105973
Ave neighs/atom = 56.2779
Neighbor list builds = 495
Dangerous builds not checked
Setting up Verlet run ...
  Unit style    : metal
  Current step  : 43495
  Time step     : 0.001
Per MPI rank memory allocation (min/avg/max) = 18.2 | 18.2 | 18.2 Mbytes
Step Temp Press TotEng PotEng Enthalpy Volume 
   43495    2266.7367   -296.56238    -41011.41   -46769.127   -41094.073    446588.24 
   44000    2257.3919    1914.8116   -41173.329    -46907.31   -40644.652    442358.85 
Loop time of 55.2729 on 1 procs for 505 steps with 19652 atoms

Performance: 0.789 ns/day, 30.403 hours/ns, 9.136 timesteps/s
99.7% CPU use with 1 MPI tasks x no OpenMP threads

MPI task timing breakdown:
Section |  min time  |  avg time  |  max time  |%varavg| %total
---------------------------------------------------------------
Pair    | 29.285     | 29.285     | 29.285     |   0.0 | 52.98
Neigh   | 24.534     | 24.534     | 24.534     |   0.0 | 44.39
Comm    | 0.51847    | 0.51847    | 0.51847    |   0.0 |  0.94
Output  | 0.040145   | 0.040145   | 0.040145   |   0.0 |  0.07
Modify  | 0.7294     | 0.7294     | 0.7294     |   0.0 |  1.32
Other   |            | 0.1663     |            |       |  0.30

Nlocal:    19652 ave 19652 max 19652 min
Histogram: 1 0 0 0 0 0 0 0 0 0
Nghost:    16331 ave 16331 max 16331 min
Histogram: 1 0 0 0 0 0 0 0 0 0
Neighs:    1.11768e+06 ave 1.11768e+06 max 1.11768e+06 min
Histogram: 1 0 0 0 0 0 0 0 0 0

Total # of neighbors = 1117675
Ave neighs/atom = 56.8733
Neighbor list builds = 505
Dangerous builds not checked
Setting up Verlet run ...
  Unit style    : metal
  Current step  : 44000
  Time step     : 0.001
Per MPI rank memory allocation (min/avg/max) = 18.2 | 18.2 | 18.2 Mbytes
Step Temp Press TotEng PotEng Enthalpy Volume 
   44000    2257.3919    1914.8116   -41173.329    -46907.31   -40644.652    442358.85 
   44495    2207.5095   -142.99444   -41364.261   -46971.536   -41403.773     442710.8 
Loop time of 54.633 on 1 procs for 495 steps with 19652 atoms

Performance: 0.783 ns/day, 30.658 hours/ns, 9.060 timesteps/s
98.9% CPU use with 1 MPI tasks x no OpenMP threads

MPI task timing breakdown:
Section |  min time  |  avg time  |  max time  |%varavg| %total
---------------------------------------------------------------
Pair    | 28.908     | 28.908     | 28.908     |   0.0 | 52.91
Neigh   | 24.322     | 24.322     | 24.322     |   0.0 | 44.52
Comm    | 0.51699    | 0.51699    | 0.51699    |   0.0 |  0.95
Output  | 0.00018716 | 0.00018716 | 0.00018716 |   0.0 |  0.00
Modify  | 0.72236    | 0.72236    | 0.72236    |   0.0 |  1.32
Other   |            | 0.1638     |            |       |  0.30

Nlocal:    19652 ave 19652 max 19652 min
Histogram: 1 0 0 0 0 0 0 0 0 0
Nghost:    16301 ave 16301 max 16301 min
Histogram: 1 0 0 0 0 0 0 0 0 0
Neighs:    1.11648e+06 ave 1.11648e+06 max 1.11648e+06 min
Histogram: 1 0 0 0 0 0 0 0 0 0

Total # of neighbors = 1116481
Ave neighs/atom = 56.8126
Neighbor list builds = 495
Dangerous builds not checked
Setting up Verlet run ...
  Unit style    : metal
  Current step  : 44495
  Time step     : 0.001
Per MPI rank memory allocation (min/avg/max) = 18.2 | 18.2 | 18.2 Mbytes
Step Temp Press TotEng PotEng Enthalpy Volume 
   44495    2207.5095   -142.99444   -41364.261   -46971.536   -41403.773     442710.8 
   45000    2193.5101    1063.0315   -41482.011   -47053.727   -41189.841    440352.99 
Loop time of 55.3799 on 1 procs for 505 steps with 19652 atoms

Performance: 0.788 ns/day, 30.462 hours/ns, 9.119 timesteps/s
99.8% CPU use with 1 MPI tasks x no OpenMP threads

MPI task timing breakdown:
Section |  min time  |  avg time  |  max time  |%varavg| %total
---------------------------------------------------------------
Pair    | 29.391     | 29.391     | 29.391     |   0.0 | 53.07
Neigh   | 24.526     | 24.526     | 24.526     |   0.0 | 44.29
Comm    | 0.52412    | 0.52412    | 0.52412    |   0.0 |  0.95
Output  | 0.040499   | 0.040499   | 0.040499   |   0.0 |  0.07
Modify  | 0.72976    | 0.72976    | 0.72976    |   0.0 |  1.32
Other   |            | 0.1681     |            |       |  0.30

Nlocal:    19652 ave 19652 max 19652 min
Histogram: 1 0 0 0 0 0 0 0 0 0
Nghost:    16322 ave 16322 max 16322 min
Histogram: 1 0 0 0 0 0 0 0 0 0
Neighs:    1.1227e+06 ave 1.1227e+06 max 1.1227e+06 min
Histogram: 1 0 0 0 0 0 0 0 0 0

Total # of neighbors = 1122704
Ave neighs/atom = 57.1292
Neighbor list builds = 505
Dangerous builds not checked
Setting up Verlet run ...
  Unit style    : metal
  Current step  : 45000
  Time step     : 0.001
Per MPI rank memory allocation (min/avg/max) = 18.2 | 18.2 | 18.2 Mbytes
Step Temp Press TotEng PotEng Enthalpy Volume 
   45000    2193.5101    1063.0315   -41482.011   -47053.727   -41189.841    440352.99 
   45495     2152.808   -389.34582   -41741.519   -47209.848   -41848.125    438685.92 
Loop time of 54.7203 on 1 procs for 495 steps with 19652 atoms

Performance: 0.782 ns/day, 30.707 hours/ns, 9.046 timesteps/s
99.9% CPU use with 1 MPI tasks x no OpenMP threads

MPI task timing breakdown:
Section |  min time  |  avg time  |  max time  |%varavg| %total
---------------------------------------------------------------
Pair    | 29.131     | 29.131     | 29.131     |   0.0 | 53.24
Neigh   | 24.159     | 24.159     | 24.159     |   0.0 | 44.15
Comm    | 0.52927    | 0.52927    | 0.52927    |   0.0 |  0.97
Output  | 0.00020814 | 0.00020814 | 0.00020814 |   0.0 |  0.00
Modify  | 0.72533    | 0.72533    | 0.72533    |   0.0 |  1.33
Other   |            | 0.1756     |            |       |  0.32

Nlocal:    19652 ave 19652 max 19652 min
Histogram: 1 0 0 0 0 0 0 0 0 0
Nghost:    16377 ave 16377 max 16377 min
Histogram: 1 0 0 0 0 0 0 0 0 0
Neighs:    1.1273e+06 ave 1.1273e+06 max 1.1273e+06 min
Histogram: 1 0 0 0 0 0 0 0 0 0

Total # of neighbors = 1127296
Ave neighs/atom = 57.3629
Neighbor list builds = 495
Dangerous builds not checked
Setting up Verlet run ...
  Unit style    : metal
  Current step  : 45495
  Time step     : 0.001
Per MPI rank memory allocation (min/avg/max) = 18.2 | 18.2 | 18.2 Mbytes
Step Temp Press TotEng PotEng Enthalpy Volume 
   45495     2152.808   -389.34582   -41741.519   -47209.848   -41848.125    438685.92 
   46000    2132.3566   -1525.9778   -41715.331   -47131.711   -42135.165    440798.49 
Loop time of 56.1065 on 1 procs for 505 steps with 19652 atoms

Performance: 0.778 ns/day, 30.862 hours/ns, 9.001 timesteps/s
99.6% CPU use with 1 MPI tasks x no OpenMP threads

MPI task timing breakdown:
Section |  min time  |  avg time  |  max time  |%varavg| %total
---------------------------------------------------------------
Pair    | 29.846     | 29.846     | 29.846     |   0.0 | 53.20
Neigh   | 24.748     | 24.748     | 24.748     |   0.0 | 44.11
Comm    | 0.5581     | 0.5581     | 0.5581     |   0.0 |  0.99
Output  | 0.040952   | 0.040952   | 0.040952   |   0.0 |  0.07
Modify  | 0.74344    | 0.74344    | 0.74344    |   0.0 |  1.33
Other   |            | 0.1705     |            |       |  0.30

Nlocal:    19652 ave 19652 max 19652 min
Histogram: 1 0 0 0 0 0 0 0 0 0
Nghost:    16355 ave 16355 max 16355 min
Histogram: 1 0 0 0 0 0 0 0 0 0
Neighs:    1.12142e+06 ave 1.12142e+06 max 1.12142e+06 min
Histogram: 1 0 0 0 0 0 0 0 0 0

Total # of neighbors = 1121424
Ave neighs/atom = 57.0641
Neighbor list builds = 505
Dangerous builds not checked
Setting up Verlet run ...
  Unit style    : metal
  Current step  : 46000
  Time step     : 0.001
Per MPI rank memory allocation (min/avg/max) = 18.2 | 18.2 | 18.2 Mbytes
Step Temp Press TotEng PotEng Enthalpy Volume 
   46000    2132.3566   -1525.9778   -41715.331   -47131.711   -42135.165    440798.49 
   46495    2101.0652    130.70791   -41997.254   -47334.151   -41961.688    435964.45 
Loop time of 55.4206 on 1 procs for 495 steps with 19652 atoms

Performance: 0.772 ns/day, 31.100 hours/ns, 8.932 timesteps/s
99.0% CPU use with 1 MPI tasks x no OpenMP threads

MPI task timing breakdown:
Section |  min time  |  avg time  |  max time  |%varavg| %total
---------------------------------------------------------------
Pair    | 29.585     | 29.585     | 29.585     |   0.0 | 53.38
Neigh   | 24.382     | 24.382     | 24.382     |   0.0 | 43.99
Comm    | 0.55041    | 0.55041    | 0.55041    |   0.0 |  0.99
Output  | 0.00020885 | 0.00020885 | 0.00020885 |   0.0 |  0.00
Modify  | 0.73631    | 0.73631    | 0.73631    |   0.0 |  1.33
Other   |            | 0.1674     |            |       |  0.30

Nlocal:    19652 ave 19652 max 19652 min
Histogram: 1 0 0 0 0 0 0 0 0 0
Nghost:    16472 ave 16472 max 16472 min
Histogram: 1 0 0 0 0 0 0 0 0 0
Neighs:    1.13411e+06 ave 1.13411e+06 max 1.13411e+06 min
Histogram: 1 0 0 0 0 0 0 0 0 0

Total # of neighbors = 1134106
Ave neighs/atom = 57.7094
Neighbor list builds = 495
Dangerous builds not checked
Setting up Verlet run ...
  Unit style    : metal
  Current step  : 46495
  Time step     : 0.001
Per MPI rank memory allocation (min/avg/max) = 18.2 | 18.2 | 18.2 Mbytes
Step Temp Press TotEng PotEng Enthalpy Volume 
   46495    2101.0652    130.70791   -41997.254   -47334.151   -41961.688    435964.45 
   47000     2121.694    1830.4301   -42005.824    -47395.12   -41510.037    433962.11 
Loop time of 57.536 on 1 procs for 505 steps with 19652 atoms

Performance: 0.758 ns/day, 31.648 hours/ns, 8.777 timesteps/s
97.9% CPU use with 1 MPI tasks x no OpenMP threads

MPI task timing breakdown:
Section |  min time  |  avg time  |  max time  |%varavg| %total
---------------------------------------------------------------
Pair    | 30.829     | 30.829     | 30.829     |   0.0 | 53.58
Neigh   | 25.136     | 25.136     | 25.136     |   0.0 | 43.69
Comm    | 0.57475    | 0.57475    | 0.57475    |   0.0 |  1.00
Output  | 0.040642   | 0.040642   | 0.040642   |   0.0 |  0.07
Modify  | 0.78167    | 0.78167    | 0.78167    |   0.0 |  1.36
Other   |            | 0.1744     |            |       |  0.30

Nlocal:    19652 ave 19652 max 19652 min
Histogram: 1 0 0 0 0 0 0 0 0 0
Nghost:    16466 ave 16466 max 16466 min
Histogram: 1 0 0 0 0 0 0 0 0 0
Neighs:    1.13919e+06 ave 1.13919e+06 max 1.13919e+06 min
Histogram: 1 0 0 0 0 0 0 0 0 0

Total # of neighbors = 1139194
Ave neighs/atom = 57.9683
Neighbor list builds = 505
Dangerous builds not checked
Setting up Verlet run ...
  Unit style    : metal
  Current step  : 47000
  Time step     : 0.001
Per MPI rank memory allocation (min/avg/max) = 18.2 | 18.2 | 18.2 Mbytes
Step Temp Press TotEng PotEng Enthalpy Volume 
   47000     2121.694    1830.4301   -42005.824    -47395.12   -41510.037    433962.11 
   47495    2071.0958   -521.95998   -42246.851   -47507.623   -42388.184    433826.45 
Loop time of 55.5856 on 1 procs for 495 steps with 19652 atoms

Performance: 0.769 ns/day, 31.193 hours/ns, 8.905 timesteps/s
99.5% CPU use with 1 MPI tasks x no OpenMP threads

MPI task timing breakdown:
Section |  min time  |  avg time  |  max time  |%varavg| %total
---------------------------------------------------------------
Pair    | 29.785     | 29.785     | 29.785     |   0.0 | 53.58
Neigh   | 24.352     | 24.352     | 24.352     |   0.0 | 43.81
Comm    | 0.54927    | 0.54927    | 0.54927    |   0.0 |  0.99
Output  | 0.00020194 | 0.00020194 | 0.00020194 |   0.0 |  0.00
Modify  | 0.73208    | 0.73208    | 0.73208    |   0.0 |  1.32
Other   |            | 0.1664     |            |       |  0.30

Nlocal:    19652 ave 19652 max 19652 min
Histogram: 1 0 0 0 0 0 0 0 0 0
Nghost:    16461 ave 16461 max 16461 min
Histogram: 1 0 0 0 0 0 0 0 0 0
Neighs:    1.14007e+06 ave 1.14007e+06 max 1.14007e+06 min
Histogram: 1 0 0 0 0 0 0 0 0 0

Total # of neighbors = 1140074
Ave neighs/atom = 58.0131
Neighbor list builds = 495
Dangerous builds not checked
Setting up Verlet run ...
  Unit style    : metal
  Current step  : 47495
  Time step     : 0.001
Per MPI rank memory allocation (min/avg/max) = 18.2 | 18.2 | 18.2 Mbytes
Step Temp Press TotEng PotEng Enthalpy Volume 
   47495    2071.0958   -521.95998   -42246.851   -47507.623   -42388.184    433826.45 
   48000    2044.7647    850.57778   -42362.887   -47556.776   -42133.543    431999.77 
Loop time of 56.573 on 1 procs for 505 steps with 19652 atoms

Performance: 0.771 ns/day, 31.118 hours/ns, 8.927 timesteps/s
99.7% CPU use with 1 MPI tasks x no OpenMP threads

MPI task timing breakdown:
Section |  min time  |  avg time  |  max time  |%varavg| %total
---------------------------------------------------------------
Pair    | 30.269     | 30.269     | 30.269     |   0.0 | 53.51
Neigh   | 24.761     | 24.761     | 24.761     |   0.0 | 43.77
Comm    | 0.57279    | 0.57279    | 0.57279    |   0.0 |  1.01
Output  | 0.041087   | 0.041087   | 0.041087   |   0.0 |  0.07
Modify  | 0.7562     | 0.7562     | 0.7562     |   0.0 |  1.34
Other   |            | 0.1728     |            |       |  0.31

Nlocal:    19652 ave 19652 max 19652 min
Histogram: 1 0 0 0 0 0 0 0 0 0
Nghost:    16404 ave 16404 max 16404 min
Histogram: 1 0 0 0 0 0 0 0 0 0
Neighs:    1.1446e+06 ave 1.1446e+06 max 1.1446e+06 min
Histogram: 1 0 0 0 0 0 0 0 0 0

Total # of neighbors = 1144605
Ave neighs/atom = 58.2437
Neighbor list builds = 505
Dangerous builds not checked
Setting up Verlet run ...
  Unit style    : metal
  Current step  : 48000
  Time step     : 0.001
Per MPI rank memory allocation (min/avg/max) = 18.2 | 18.2 | 18.2 Mbytes
Step Temp Press TotEng PotEng Enthalpy Volume 
   48000    2044.7647    850.57778   -42362.887   -47556.776   -42133.543    431999.77 
   48495    2026.6227    764.72746   -42573.772   -47721.579   -42368.691    429665.36 
Loop time of 55.0629 on 1 procs for 495 steps with 19652 atoms

Performance: 0.777 ns/day, 30.900 hours/ns, 8.990 timesteps/s
99.4% CPU use with 1 MPI tasks x no OpenMP threads

MPI task timing breakdown:
Section |  min time  |  avg time  |  max time  |%varavg| %total
---------------------------------------------------------------
Pair    | 29.384     | 29.384     | 29.384     |   0.0 | 53.36
Neigh   | 24.273     | 24.273     | 24.273     |   0.0 | 44.08
Comm    | 0.51938    | 0.51938    | 0.51938    |   0.0 |  0.94
Output  | 0.00019908 | 0.00019908 | 0.00019908 |   0.0 |  0.00
Modify  | 0.72105    | 0.72105    | 0.72105    |   0.0 |  1.31
Other   |            | 0.1649     |            |       |  0.30

Nlocal:    19652 ave 19652 max 19652 min
Histogram: 1 0 0 0 0 0 0 0 0 0
Nghost:    16367 ave 16367 max 16367 min
Histogram: 1 0 0 0 0 0 0 0 0 0
Neighs:    1.15113e+06 ave 1.15113e+06 max 1.15113e+06 min
Histogram: 1 0 0 0 0 0 0 0 0 0

Total # of neighbors = 1151126
Ave neighs/atom = 58.5755
Neighbor list builds = 495
Dangerous builds not checked
Setting up Verlet run ...
  Unit style    : metal
  Current step  : 48495
  Time step     : 0.001
Per MPI rank memory allocation (min/avg/max) = 18.2 | 18.2 | 18.2 Mbytes
Step Temp Press TotEng PotEng Enthalpy Volume 
   48495    2026.6227    764.72746   -42573.772   -47721.579   -42368.691    429665.36 
   49000    1998.9703    561.81525   -42722.134     -47799.7   -42571.929    428350.94 
Loop time of 56.8862 on 1 procs for 505 steps with 19652 atoms

Performance: 0.767 ns/day, 31.291 hours/ns, 8.877 timesteps/s
99.6% CPU use with 1 MPI tasks x no OpenMP threads

MPI task timing breakdown:
Section |  min time  |  avg time  |  max time  |%varavg| %total
---------------------------------------------------------------
Pair    | 30.503     | 30.503     | 30.503     |   0.0 | 53.62
Neigh   | 24.863     | 24.863     | 24.863     |   0.0 | 43.71
Comm    | 0.56057    | 0.56057    | 0.56057    |   0.0 |  0.99
Output  | 0.041166   | 0.041166   | 0.041166   |   0.0 |  0.07
Modify  | 0.74564    | 0.74564    | 0.74564    |   0.0 |  1.31
Other   |            | 0.1721     |            |       |  0.30

Nlocal:    19652 ave 19652 max 19652 min
Histogram: 1 0 0 0 0 0 0 0 0 0
Nghost:    16499 ave 16499 max 16499 min
Histogram: 1 0 0 0 0 0 0 0 0 0
Neighs:    1.1552e+06 ave 1.1552e+06 max 1.1552e+06 min
Histogram: 1 0 0 0 0 0 0 0 0 0

Total # of neighbors = 1155200
Ave neighs/atom = 58.7828
Neighbor list builds = 505
Dangerous builds not checked
Setting up Verlet run ...
  Unit style    : metal
  Current step  : 49000
  Time step     : 0.001
Per MPI rank memory allocation (min/avg/max) = 18.2 | 18.2 | 18.2 Mbytes
Step Temp Press TotEng PotEng Enthalpy Volume 
   49000    1998.9703    561.81525   -42722.134     -47799.7   -42571.929    428350.94 
   49495    1961.6212   -50.942264   -42880.863    -47863.56   -42894.453    427399.51 
Loop time of 55.9198 on 1 procs for 495 steps with 19652 atoms

Performance: 0.765 ns/day, 31.380 hours/ns, 8.852 timesteps/s
99.3% CPU use with 1 MPI tasks x no OpenMP threads

MPI task timing breakdown:
Section |  min time  |  avg time  |  max time  |%varavg| %total
---------------------------------------------------------------
Pair    | 30.082     | 30.082     | 30.082     |   0.0 | 53.80
Neigh   | 24.375     | 24.375     | 24.375     |   0.0 | 43.59
Comm    | 0.56057    | 0.56057    | 0.56057    |   0.0 |  1.00
Output  | 0.00018597 | 0.00018597 | 0.00018597 |   0.0 |  0.00
Modify  | 0.73435    | 0.73435    | 0.73435    |   0.0 |  1.31
Other   |            | 0.1679     |            |       |  0.30

Nlocal:    19652 ave 19652 max 19652 min
Histogram: 1 0 0 0 0 0 0 0 0 0
Nghost:    16577 ave 16577 max 16577 min
Histogram: 1 0 0 0 0 0 0 0 0 0
Neighs:    1.1577e+06 ave 1.1577e+06 max 1.1577e+06 min
Histogram: 1 0 0 0 0 0 0 0 0 0

Total # of neighbors = 1157703
Ave neighs/atom = 58.9102
Neighbor list builds = 495
Dangerous builds not checked
Setting up Verlet run ...
  Unit style    : metal
  Current step  : 49495
  Time step     : 0.001
Per MPI rank memory allocation (min/avg/max) = 18.2 | 18.2 | 18.2 Mbytes
Step Temp Press TotEng PotEng Enthalpy Volume 
   49495    1961.6212   -50.942264   -42880.863    -47863.56   -42894.453    427399.51 
   50000    1954.2449    248.64575   -42980.024   -47943.984   -42913.893    426127.02 
Loop time of 57.029 on 1 procs for 505 steps with 19652 atoms

Performance: 0.765 ns/day, 31.369 hours/ns, 8.855 timesteps/s
99.6% CPU use with 1 MPI tasks x no OpenMP threads

MPI task timing breakdown:
Section |  min time  |  avg time  |  max time  |%varavg| %total
---------------------------------------------------------------
Pair    | 30.659     | 30.659     | 30.659     |   0.0 | 53.76
Neigh   | 24.834     | 24.834     | 24.834     |   0.0 | 43.55
Comm    | 0.5625     | 0.5625     | 0.5625     |   0.0 |  0.99
Output  | 0.040648   | 0.040648   | 0.040648   |   0.0 |  0.07
Modify  | 0.75942    | 0.75942    | 0.75942    |   0.0 |  1.33
Other   |            | 0.174      |            |       |  0.31

Nlocal:    19652 ave 19652 max 19652 min
Histogram: 1 0 0 0 0 0 0 0 0 0
Nghost:    16627 ave 16627 max 16627 min
Histogram: 1 0 0 0 0 0 0 0 0 0
Neighs:    1.16109e+06 ave 1.16109e+06 max 1.16109e+06 min
Histogram: 1 0 0 0 0 0 0 0 0 0

Total # of neighbors = 1161092
Ave neighs/atom = 59.0826
Neighbor list builds = 505
Dangerous builds not checked
Setting up Verlet run ...
  Unit style    : metal
  Current step  : 50000
  Time step     : 0.001
Per MPI rank memory allocation (min/avg/max) = 18.2 | 18.2 | 18.2 Mbytes
Step Temp Press TotEng PotEng Enthalpy Volume 
   50000    1954.2449    248.64575   -42980.024   -47943.984   -42913.893    426127.02 
   50495    1921.9971    480.22632   -43201.422    -48083.47   -43074.412    423743.25 
Loop time of 55.9331 on 1 procs for 495 steps with 19652 atoms

Performance: 0.765 ns/day, 31.388 hours/ns, 8.850 timesteps/s
99.6% CPU use with 1 MPI tasks x no OpenMP threads

MPI task timing breakdown:
Section |  min time  |  avg time  |  max time  |%varavg| %total
---------------------------------------------------------------
Pair    | 30.152     | 30.152     | 30.152     |   0.0 | 53.91
Neigh   | 24.335     | 24.335     | 24.335     |   0.0 | 43.51
Comm    | 0.54788    | 0.54788    | 0.54788    |   0.0 |  0.98
Output  | 0.0002079  | 0.0002079  | 0.0002079  |   0.0 |  0.00
Modify  | 0.73052    | 0.73052    | 0.73052    |   0.0 |  1.31
Other   |            | 0.1668     |            |       |  0.30

Nlocal:    19652 ave 19652 max 19652 min
Histogram: 1 0 0 0 0 0 0 0 0 0
Nghost:    16634 ave 16634 max 16634 min
Histogram: 1 0 0 0 0 0 0 0 0 0
Neighs:    1.16817e+06 ave 1.16817e+06 max 1.16817e+06 min
Histogram: 1 0 0 0 0 0 0 0 0 0

Total # of neighbors = 1168168
Ave neighs/atom = 59.4427
Neighbor list builds = 495
Dangerous builds not checked
Setting up Verlet run ...
  Unit style    : metal
  Current step  : 50495
  Time step     : 0.001
Per MPI rank memory allocation (min/avg/max) = 18.2 | 18.2 | 18.2 Mbytes
Step Temp Press TotEng PotEng Enthalpy Volume 
   50495    1921.9971    480.22632   -43201.422    -48083.47   -43074.412    423743.25 
   51000    1913.7772    88.875078   -43234.758   -48095.927   -43211.255    423707.92 
Loop time of 57.1341 on 1 procs for 505 steps with 19652 atoms

Performance: 0.764 ns/day, 31.427 hours/ns, 8.839 timesteps/s
99.8% CPU use with 1 MPI tasks x no OpenMP threads

MPI task timing breakdown:
Section |  min time  |  avg time  |  max time  |%varavg| %total
---------------------------------------------------------------
Pair    | 30.786     | 30.786     | 30.786     |   0.0 | 53.88
Neigh   | 24.828     | 24.828     | 24.828     |   0.0 | 43.46
Comm    | 0.56101    | 0.56101    | 0.56101    |   0.0 |  0.98
Output  | 0.040388   | 0.040388   | 0.040388   |   0.0 |  0.07
Modify  | 0.74756    | 0.74756    | 0.74756    |   0.0 |  1.31
Other   |            | 0.1709     |            |       |  0.30

Nlocal:    19652 ave 19652 max 19652 min
Histogram: 1 0 0 0 0 0 0 0 0 0
Nghost:    16597 ave 16597 max 16597 min
Histogram: 1 0 0 0 0 0 0 0 0 0
Neighs:    1.16769e+06 ave 1.16769e+06 max 1.16769e+06 min
Histogram: 1 0 0 0 0 0 0 0 0 0

Total # of neighbors = 1167691
Ave neighs/atom = 59.4184
Neighbor list builds = 505
Dangerous builds not checked
Setting up Verlet run ...
  Unit style    : metal
  Current step  : 51000
  Time step     : 0.001
Per MPI rank memory allocation (min/avg/max) = 18.2 | 18.2 | 18.2 Mbytes
Step Temp Press TotEng PotEng Enthalpy Volume 
   51000    1913.7772    88.875078   -43234.758   -48095.927   -43211.255    423707.92 
   51495    1873.2554   -174.55164   -43476.013   -48234.253   -43521.971    421833.79 
Loop time of 55.9721 on 1 procs for 495 steps with 19652 atoms

Performance: 0.764 ns/day, 31.410 hours/ns, 8.844 timesteps/s
99.7% CPU use with 1 MPI tasks x no OpenMP threads

MPI task timing breakdown:
Section |  min time  |  avg time  |  max time  |%varavg| %total
---------------------------------------------------------------
Pair    | 30.215     | 30.215     | 30.215     |   0.0 | 53.98
Neigh   | 24.312     | 24.312     | 24.312     |   0.0 | 43.44
Comm    | 0.54495    | 0.54495    | 0.54495    |   0.0 |  0.97
Output  | 0.00018096 | 0.00018096 | 0.00018096 |   0.0 |  0.00
Modify  | 0.73225    | 0.73225    | 0.73225    |   0.0 |  1.31
Other   |            | 0.1677     |            |       |  0.30

Nlocal:    19652 ave 19652 max 19652 min
Histogram: 1 0 0 0 0 0 0 0 0 0
Nghost:    16619 ave 16619 max 16619 min
Histogram: 1 0 0 0 0 0 0 0 0 0
Neighs:    1.17372e+06 ave 1.17372e+06 max 1.17372e+06 min
Histogram: 1 0 0 0 0 0 0 0 0 0

Total # of neighbors = 1173715
Ave neighs/atom = 59.725
Neighbor list builds = 495
Dangerous builds not checked
Setting up Verlet run ...
  Unit style    : metal
  Current step  : 51495
  Time step     : 0.001
Per MPI rank memory allocation (min/avg/max) = 18.2 | 18.2 | 18.2 Mbytes
Step Temp Press TotEng PotEng Enthalpy Volume 
   51495    1873.2554   -174.55164   -43476.013   -48234.253   -43521.971    421833.79 
   52000    1836.3028    1046.1052   -43641.465   -48305.842   -43367.269    419949.43 
Loop time of 57.7098 on 1 procs for 505 steps with 19652 atoms

Performance: 0.756 ns/day, 31.744 hours/ns, 8.751 timesteps/s
99.0% CPU use with 1 MPI tasks x no OpenMP threads

MPI task timing breakdown:
Section |  min time  |  avg time  |  max time  |%varavg| %total
---------------------------------------------------------------
Pair    | 31.214     | 31.214     | 31.214     |   0.0 | 54.09
Neigh   | 24.948     | 24.948     | 24.948     |   0.0 | 43.23
Comm    | 0.5772     | 0.5772     | 0.5772     |   0.0 |  1.00
Output  | 0.041027   | 0.041027   | 0.041027   |   0.0 |  0.07
Modify  | 0.7563     | 0.7563     | 0.7563     |   0.0 |  1.31
Other   |            | 0.1737     |            |       |  0.30

Nlocal:    19652 ave 19652 max 19652 min
Histogram: 1 0 0 0 0 0 0 0 0 0
Nghost:    16624 ave 16624 max 16624 min
Histogram: 1 0 0 0 0 0 0 0 0 0
Neighs:    1.17897e+06 ave 1.17897e+06 max 1.17897e+06 min
Histogram: 1 0 0 0 0 0 0 0 0 0

Total # of neighbors = 1178967
Ave neighs/atom = 59.9922
Neighbor list builds = 505
Dangerous builds not checked
Setting up Verlet run ...
  Unit style    : metal
  Current step  : 52000
  Time step     : 0.001
Per MPI rank memory allocation (min/avg/max) = 18.2 | 18.2 | 18.2 Mbytes
Step Temp Press TotEng PotEng Enthalpy Volume 
   52000    1836.3028    1046.1052   -43641.465   -48305.842   -43367.269    419949.43 
   52495    1818.1275    662.60264   -43841.408   -48459.618    -43668.58    417899.21 
Loop time of 56.435 on 1 procs for 495 steps with 19652 atoms

Performance: 0.758 ns/day, 31.669 hours/ns, 8.771 timesteps/s
99.2% CPU use with 1 MPI tasks x no OpenMP threads

MPI task timing breakdown:
Section |  min time  |  avg time  |  max time  |%varavg| %total
---------------------------------------------------------------
Pair    | 30.616     | 30.616     | 30.616     |   0.0 | 54.25
Neigh   | 24.365     | 24.365     | 24.365     |   0.0 | 43.17
Comm    | 0.54929    | 0.54929    | 0.54929    |   0.0 |  0.97
Output  | 0.00020695 | 0.00020695 | 0.00020695 |   0.0 |  0.00
Modify  | 0.73735    | 0.73735    | 0.73735    |   0.0 |  1.31
Other   |            | 0.1677     |            |       |  0.30

Nlocal:    19652 ave 19652 max 19652 min
Histogram: 1 0 0 0 0 0 0 0 0 0
Nghost:    16715 ave 16715 max 16715 min
Histogram: 1 0 0 0 0 0 0 0 0 0
Neighs:    1.1847e+06 ave 1.1847e+06 max 1.1847e+06 min
Histogram: 1 0 0 0 0 0 0 0 0 0

Total # of neighbors = 1184705
Ave neighs/atom = 60.2842
Neighbor list builds = 495
Dangerous builds not checked
Setting up Verlet run ...
  Unit style    : metal
  Current step  : 52495
  Time step     : 0.001
Per MPI rank memory allocation (min/avg/max) = 18.2 | 18.2 | 18.2 Mbytes
Step Temp Press TotEng PotEng Enthalpy Volume 
   52495    1818.1275    662.60264   -43841.408   -48459.618    -43668.58    417899.21 
   53000    1789.8484    702.47028   -43960.306   -48506.684    -43777.53    416872.16 
Loop time of 57.2319 on 1 procs for 505 steps with 19652 atoms

Performance: 0.762 ns/day, 31.481 hours/ns, 8.824 timesteps/s
99.9% CPU use with 1 MPI tasks x no OpenMP threads

MPI task timing breakdown:
Section |  min time  |  avg time  |  max time  |%varavg| %total
---------------------------------------------------------------
Pair    | 30.961     | 30.961     | 30.961     |   0.0 | 54.10
Neigh   | 24.769     | 24.769     | 24.769     |   0.0 | 43.28
Comm    | 0.55003    | 0.55003    | 0.55003    |   0.0 |  0.96
Output  | 0.040936   | 0.040936   | 0.040936   |   0.0 |  0.07
Modify  | 0.74059    | 0.74059    | 0.74059    |   0.0 |  1.29
Other   |            | 0.1694     |            |       |  0.30

Nlocal:    19652 ave 19652 max 19652 min
Histogram: 1 0 0 0 0 0 0 0 0 0
Nghost:    16648 ave 16648 max 16648 min
Histogram: 1 0 0 0 0 0 0 0 0 0
Neighs:    1.18823e+06 ave 1.18823e+06 max 1.18823e+06 min
Histogram: 1 0 0 0 0 0 0 0 0 0

Total # of neighbors = 1188233
Ave neighs/atom = 60.4637
Neighbor list builds = 505
Dangerous builds not checked
Setting up Verlet run ...
  Unit style    : metal
  Current step  : 53000
  Time step     : 0.001
Per MPI rank memory allocation (min/avg/max) = 18.2 | 18.2 | 18.2 Mbytes
Step Temp Press TotEng PotEng Enthalpy Volume 
   53000    1789.8484    702.47028   -43960.306   -48506.684    -43777.53    416872.16 
   53495     1767.948    -127.2613   -44140.143   -48630.892   -44173.175    415858.91 
Loop time of 56.4744 on 1 procs for 495 steps with 19652 atoms

Performance: 0.757 ns/day, 31.692 hours/ns, 8.765 timesteps/s
99.9% CPU use with 1 MPI tasks x no OpenMP threads

MPI task timing breakdown:
Section |  min time  |  avg time  |  max time  |%varavg| %total
---------------------------------------------------------------
Pair    | 30.63      | 30.63      | 30.63      |   0.0 | 54.24
Neigh   | 24.351     | 24.351     | 24.351     |   0.0 | 43.12
Comm    | 0.56821    | 0.56821    | 0.56821    |   0.0 |  1.01
Output  | 0.0002048  | 0.0002048  | 0.0002048  |   0.0 |  0.00
Modify  | 0.75382    | 0.75382    | 0.75382    |   0.0 |  1.33
Other   |            | 0.1716     |            |       |  0.30

Nlocal:    19652 ave 19652 max 19652 min
Histogram: 1 0 0 0 0 0 0 0 0 0
Nghost:    16812 ave 16812 max 16812 min
Histogram: 1 0 0 0 0 0 0 0 0 0
Neighs:    1.1911e+06 ave 1.1911e+06 max 1.1911e+06 min
Histogram: 1 0 0 0 0 0 0 0 0 0

Total # of neighbors = 1191105
Ave neighs/atom = 60.6099
Neighbor list builds = 495
Dangerous builds not checked
Setting up Verlet run ...
  Unit style    : metal
  Current step  : 53495
  Time step     : 0.001
Per MPI rank memory allocation (min/avg/max) = 18.2 | 18.2 | 18.2 Mbytes
Step Temp Press TotEng PotEng Enthalpy Volume 
   53495     1767.948    -127.2613   -44140.143   -48630.892   -44173.175    415858.91 
   54000    1756.2292   -426.66865    -44250.23   -48711.212   -44360.722    414905.47 
Loop time of 57.9066 on 1 procs for 505 steps with 19652 atoms

Performance: 0.753 ns/day, 31.852 hours/ns, 8.721 timesteps/s
99.4% CPU use with 1 MPI tasks x no OpenMP threads

MPI task timing breakdown:
Section |  min time  |  avg time  |  max time  |%varavg| %total
---------------------------------------------------------------
Pair    | 31.411     | 31.411     | 31.411     |   0.0 | 54.24
Neigh   | 24.952     | 24.952     | 24.952     |   0.0 | 43.09
Comm    | 0.57349    | 0.57349    | 0.57349    |   0.0 |  0.99
Output  | 0.040643   | 0.040643   | 0.040643   |   0.0 |  0.07
Modify  | 0.7531     | 0.7531     | 0.7531     |   0.0 |  1.30
Other   |            | 0.1756     |            |       |  0.30

Nlocal:    19652 ave 19652 max 19652 min
Histogram: 1 0 0 0 0 0 0 0 0 0
Nghost:    16802 ave 16802 max 16802 min
Histogram: 1 0 0 0 0 0 0 0 0 0
Neighs:    1.19363e+06 ave 1.19363e+06 max 1.19363e+06 min
Histogram: 1 0 0 0 0 0 0 0 0 0

Total # of neighbors = 1193628
Ave neighs/atom = 60.7382
Neighbor list builds = 505
Dangerous builds not checked
Setting up Verlet run ...
  Unit style    : metal
  Current step  : 54000
  Time step     : 0.001
Per MPI rank memory allocation (min/avg/max) = 18.2 | 18.2 | 18.2 Mbytes
Step Temp Press TotEng PotEng Enthalpy Volume 
   54000    1756.2292   -426.66865    -44250.23   -48711.212   -44360.722    414905.47 
   54495    1710.9092    2.8255507   -44472.901   -48818.766   -44472.173    412813.58 
Loop time of 56.572 on 1 procs for 495 steps with 19652 atoms

Performance: 0.756 ns/day, 31.746 hours/ns, 8.750 timesteps/s
99.9% CPU use with 1 MPI tasks x no OpenMP threads

MPI task timing breakdown:
Section |  min time  |  avg time  |  max time  |%varavg| %total
---------------------------------------------------------------
Pair    | 30.781     | 30.781     | 30.781     |   0.0 | 54.41
Neigh   | 24.319     | 24.319     | 24.319     |   0.0 | 42.99
Comm    | 0.56269    | 0.56269    | 0.56269    |   0.0 |  0.99
Output  | 0.00021291 | 0.00021291 | 0.00021291 |   0.0 |  0.00
Modify  | 0.73889    | 0.73889    | 0.73889    |   0.0 |  1.31
Other   |            | 0.1696     |            |       |  0.30

Nlocal:    19652 ave 19652 max 19652 min
Histogram: 1 0 0 0 0 0 0 0 0 0
Nghost:    16779 ave 16779 max 16779 min
Histogram: 1 0 0 0 0 0 0 0 0 0
Neighs:    1.20019e+06 ave 1.20019e+06 max 1.20019e+06 min
Histogram: 1 0 0 0 0 0 0 0 0 0

Total # of neighbors = 1200194
Ave neighs/atom = 61.0724
Neighbor list builds = 495
Dangerous builds not checked
Setting up Verlet run ...
  Unit style    : metal
  Current step  : 54495
  Time step     : 0.001
Per MPI rank memory allocation (min/avg/max) = 18.2 | 18.2 | 18.2 Mbytes
Step Temp Press TotEng PotEng Enthalpy Volume 
   54495    1710.9092    2.8255507   -44472.901   -48818.766   -44472.173    412813.58 
   55000    1704.8085    616.01946   -44492.539   -48822.908   -44334.016    412295.54 
Loop time of 58.2001 on 1 procs for 505 steps with 19652 atoms

Performance: 0.750 ns/day, 32.013 hours/ns, 8.677 timesteps/s
99.3% CPU use with 1 MPI tasks x no OpenMP threads

MPI task timing breakdown:
Section |  min time  |  avg time  |  max time  |%varavg| %total
---------------------------------------------------------------
Pair    | 31.672     | 31.672     | 31.672     |   0.0 | 54.42
Neigh   | 24.988     | 24.988     | 24.988     |   0.0 | 42.94
Comm    | 0.57109    | 0.57109    | 0.57109    |   0.0 |  0.98
Output  | 0.044756   | 0.044756   | 0.044756   |   0.0 |  0.08
Modify  | 0.75084    | 0.75084    | 0.75084    |   0.0 |  1.29
Other   |            | 0.1729     |            |       |  0.30

Nlocal:    19652 ave 19652 max 19652 min
Histogram: 1 0 0 0 0 0 0 0 0 0
Nghost:    16673 ave 16673 max 16673 min
Histogram: 1 0 0 0 0 0 0 0 0 0
Neighs:    1.20139e+06 ave 1.20139e+06 max 1.20139e+06 min
Histogram: 1 0 0 0 0 0 0 0 0 0

Total # of neighbors = 1201391
Ave neighs/atom = 61.1333
Neighbor list builds = 505
Dangerous builds not checked
Setting up Verlet run ...
  Unit style    : metal
  Current step  : 55000
  Time step     : 0.001
Per MPI rank memory allocation (min/avg/max) = 18.2 | 18.2 | 18.2 Mbytes
Step Temp Press TotEng PotEng Enthalpy Volume 
   55000    1704.8085    616.01946   -44492.539   -48822.908   -44334.016    412295.54 
   55495    1664.1503    471.75276   -44738.797    -48965.89   -44617.948    410428.53 
Loop time of 56.9847 on 1 procs for 495 steps with 19652 atoms

Performance: 0.751 ns/day, 31.978 hours/ns, 8.687 timesteps/s
99.4% CPU use with 1 MPI tasks x no OpenMP threads

MPI task timing breakdown:
Section |  min time  |  avg time  |  max time  |%varavg| %total
---------------------------------------------------------------
Pair    | 30.999     | 30.999     | 30.999     |   0.0 | 54.40
Neigh   | 24.5       | 24.5       | 24.5       |   0.0 | 42.99
Comm    | 0.57322    | 0.57322    | 0.57322    |   0.0 |  1.01
Output  | 0.00020504 | 0.00020504 | 0.00020504 |   0.0 |  0.00
Modify  | 0.74192    | 0.74192    | 0.74192    |   0.0 |  1.30
Other   |            | 0.1708     |            |       |  0.30

Nlocal:    19652 ave 19652 max 19652 min
Histogram: 1 0 0 0 0 0 0 0 0 0
Nghost:    16734 ave 16734 max 16734 min
Histogram: 1 0 0 0 0 0 0 0 0 0
Neighs:    1.20609e+06 ave 1.20609e+06 max 1.20609e+06 min
Histogram: 1 0 0 0 0 0 0 0 0 0

Total # of neighbors = 1206091
Ave neighs/atom = 61.3724
Neighbor list builds = 495
Dangerous builds not checked
Setting up Verlet run ...
  Unit style    : metal
  Current step  : 55495
  Time step     : 0.001
Per MPI rank memory allocation (min/avg/max) = 18.2 | 18.2 | 18.2 Mbytes
Step Temp Press TotEng PotEng Enthalpy Volume 
   55495    1664.1503    471.75276   -44738.797    -48965.89   -44617.948    410428.53 
   56000    1652.8378    704.26436   -44854.438   -49052.797   -44674.574    409184.78 
Loop time of 57.9569 on 1 procs for 505 steps with 19652 atoms

Performance: 0.753 ns/day, 31.879 hours/ns, 8.713 timesteps/s
99.9% CPU use with 1 MPI tasks x no OpenMP threads

MPI task timing breakdown:
Section |  min time  |  avg time  |  max time  |%varavg| %total
---------------------------------------------------------------
Pair    | 31.576     | 31.576     | 31.576     |   0.0 | 54.48
Neigh   | 24.856     | 24.856     | 24.856     |   0.0 | 42.89
Comm    | 0.56869    | 0.56869    | 0.56869    |   0.0 |  0.98
Output  | 0.040928   | 0.040928   | 0.040928   |   0.0 |  0.07
Modify  | 0.74501    | 0.74501    | 0.74501    |   0.0 |  1.29
Other   |            | 0.1705     |            |       |  0.29

Nlocal:    19652 ave 19652 max 19652 min
Histogram: 1 0 0 0 0 0 0 0 0 0
Nghost:    16854 ave 16854 max 16854 min
Histogram: 1 0 0 0 0 0 0 0 0 0
Neighs:    1.21027e+06 ave 1.21027e+06 max 1.21027e+06 min
Histogram: 1 0 0 0 0 0 0 0 0 0

Total # of neighbors = 1210267
Ave neighs/atom = 61.5849
Neighbor list builds = 505
Dangerous builds not checked
Setting up Verlet run ...
  Unit style    : metal
  Current step  : 56000
  Time step     : 0.001
Per MPI rank memory allocation (min/avg/max) = 18.2 | 18.2 | 18.2 Mbytes
Step Temp Press TotEng PotEng Enthalpy Volume 
   56000    1652.8378    704.26436   -44854.438   -49052.797   -44674.574    409184.78 
   56495    1604.4264    687.18908   -45083.261    -49158.65   -44908.423    407633.73 
Loop time of 56.7347 on 1 procs for 495 steps with 19652 atoms

Performance: 0.754 ns/day, 31.838 hours/ns, 8.725 timesteps/s
99.9% CPU use with 1 MPI tasks x no OpenMP threads

MPI task timing breakdown:
Section |  min time  |  avg time  |  max time  |%varavg| %total
---------------------------------------------------------------
Pair    | 30.934     | 30.934     | 30.934     |   0.0 | 54.52
Neigh   | 24.362     | 24.362     | 24.362     |   0.0 | 42.94
Comm    | 0.54324    | 0.54324    | 0.54324    |   0.0 |  0.96
Output  | 0.00020599 | 0.00020599 | 0.00020599 |   0.0 |  0.00
Modify  | 0.72787    | 0.72787    | 0.72787    |   0.0 |  1.28
Other   |            | 0.1674     |            |       |  0.30

Nlocal:    19652 ave 19652 max 19652 min
Histogram: 1 0 0 0 0 0 0 0 0 0
Nghost:    16879 ave 16879 max 16879 min
Histogram: 1 0 0 0 0 0 0 0 0 0
Neighs:    1.21571e+06 ave 1.21571e+06 max 1.21571e+06 min
Histogram: 1 0 0 0 0 0 0 0 0 0

Total # of neighbors = 1215709
Ave neighs/atom = 61.8618
Neighbor list builds = 495
Dangerous builds not checked
Setting up Verlet run ...
  Unit style    : metal
  Current step  : 56495
  Time step     : 0.001
Per MPI rank memory allocation (min/avg/max) = 18.2 | 18.2 | 18.2 Mbytes
Step Temp Press TotEng PotEng Enthalpy Volume 
   56495    1604.4264    687.18908   -45083.261    -49158.65   -44908.423    407633.73 
   57000     1596.635    482.24278   -45212.261   -49267.859   -45089.995    406209.35 
Loop time of 58.3546 on 1 procs for 505 steps with 19652 atoms

Performance: 0.748 ns/day, 32.098 hours/ns, 8.654 timesteps/s
99.5% CPU use with 1 MPI tasks x no OpenMP threads

MPI task timing breakdown:
Section |  min time  |  avg time  |  max time  |%varavg| %total
---------------------------------------------------------------
Pair    | 31.857     | 31.857     | 31.857     |   0.0 | 54.59
Neigh   | 24.958     | 24.958     | 24.958     |   0.0 | 42.77
Comm    | 0.57029    | 0.57029    | 0.57029    |   0.0 |  0.98
Output  | 0.040881   | 0.040881   | 0.040881   |   0.0 |  0.07
Modify  | 0.75487    | 0.75487    | 0.75487    |   0.0 |  1.29
Other   |            | 0.1735     |            |       |  0.30

Nlocal:    19652 ave 19652 max 19652 min
Histogram: 1 0 0 0 0 0 0 0 0 0
Nghost:    16914 ave 16914 max 16914 min
Histogram: 1 0 0 0 0 0 0 0 0 0
Neighs:    1.2211e+06 ave 1.2211e+06 max 1.2211e+06 min
Histogram: 1 0 0 0 0 0 0 0 0 0

Total # of neighbors = 1221096
Ave neighs/atom = 62.136
Neighbor list builds = 505
Dangerous builds not checked
Setting up Verlet run ...
  Unit style    : metal
  Current step  : 57000
  Time step     : 0.001
Per MPI rank memory allocation (min/avg/max) = 18.2 | 18.2 | 18.2 Mbytes
Step Temp Press TotEng PotEng Enthalpy Volume 
   57000     1596.635    482.24278   -45212.261   -49267.859   -45089.995    406209.35 
   57495    1564.2631    587.35802   -45370.167   -49343.538   -45221.615    405214.34 
Loop time of 58.2293 on 1 procs for 495 steps with 19652 atoms

Performance: 0.734 ns/day, 32.676 hours/ns, 8.501 timesteps/s
97.8% CPU use with 1 MPI tasks x no OpenMP threads

MPI task timing breakdown:
Section |  min time  |  avg time  |  max time  |%varavg| %total
---------------------------------------------------------------
Pair    | 31.817     | 31.817     | 31.817     |   0.0 | 54.64
Neigh   | 24.939     | 24.939     | 24.939     |   0.0 | 42.83
Comm    | 0.56817    | 0.56817    | 0.56817    |   0.0 |  0.98
Output  | 0.00021005 | 0.00021005 | 0.00021005 |   0.0 |  0.00
Modify  | 0.73474    | 0.73474    | 0.73474    |   0.0 |  1.26
Other   |            | 0.1702     |            |       |  0.29

Nlocal:    19652 ave 19652 max 19652 min
Histogram: 1 0 0 0 0 0 0 0 0 0
Nghost:    16982 ave 16982 max 16982 min
Histogram: 1 0 0 0 0 0 0 0 0 0
Neighs:    1.22356e+06 ave 1.22356e+06 max 1.22356e+06 min
Histogram: 1 0 0 0 0 0 0 0 0 0

Total # of neighbors = 1223559
Ave neighs/atom = 62.2613
Neighbor list builds = 495
Dangerous builds not checked
Setting up Verlet run ...
  Unit style    : metal
  Current step  : 57495
  Time step     : 0.001
Per MPI rank memory allocation (min/avg/max) = 18.2 | 18.2 | 18.2 Mbytes
Step Temp Press TotEng PotEng Enthalpy Volume 
   57495    1564.2631    587.35802   -45370.167   -49343.538   -45221.615    405214.34 
   58000    1542.4213      81.1903   -45519.186   -49437.076   -45498.717    403931.83 
Loop time of 58.5728 on 1 procs for 505 steps with 19652 atoms

Performance: 0.745 ns/day, 32.218 hours/ns, 8.622 timesteps/s
99.6% CPU use with 1 MPI tasks x no OpenMP threads

MPI task timing breakdown:
Section |  min time  |  avg time  |  max time  |%varavg| %total
---------------------------------------------------------------
Pair    | 32.069     | 32.069     | 32.069     |   0.0 | 54.75
Neigh   | 24.958     | 24.958     | 24.958     |   0.0 | 42.61
Comm    | 0.57423    | 0.57423    | 0.57423    |   0.0 |  0.98
Output  | 0.040916   | 0.040916   | 0.040916   |   0.0 |  0.07
Modify  | 0.75706    | 0.75706    | 0.75706    |   0.0 |  1.29
Other   |            | 0.174      |            |       |  0.30

Nlocal:    19652 ave 19652 max 19652 min
Histogram: 1 0 0 0 0 0 0 0 0 0
Nghost:    16921 ave 16921 max 16921 min
Histogram: 1 0 0 0 0 0 0 0 0 0
Neighs:    1.2278e+06 ave 1.2278e+06 max 1.2278e+06 min
Histogram: 1 0 0 0 0 0 0 0 0 0

Total # of neighbors = 1227801
Ave neighs/atom = 62.4772
Neighbor list builds = 505
Dangerous builds not checked
Setting up Verlet run ...
  Unit style    : metal
  Current step  : 58000
  Time step     : 0.001
Per MPI rank memory allocation (min/avg/max) = 18.2 | 18.2 | 18.2 Mbytes
Step Temp Press TotEng PotEng Enthalpy Volume 
   58000    1542.4213      81.1903   -45519.186   -49437.076   -45498.717    403931.83 
   58495    1519.8456    351.28944   -45685.987   -49546.533   -45597.733    402511.33 
Loop time of 57.2082 on 1 procs for 495 steps with 19652 atoms

Performance: 0.748 ns/day, 32.103 hours/ns, 8.653 timesteps/s
99.8% CPU use with 1 MPI tasks x no OpenMP threads

MPI task timing breakdown:
Section |  min time  |  avg time  |  max time  |%varavg| %total
---------------------------------------------------------------
Pair    | 31.308     | 31.308     | 31.308     |   0.0 | 54.73
Neigh   | 24.417     | 24.417     | 24.417     |   0.0 | 42.68
Comm    | 0.56647    | 0.56647    | 0.56647    |   0.0 |  0.99
Output  | 0.00020385 | 0.00020385 | 0.00020385 |   0.0 |  0.00
Modify  | 0.74541    | 0.74541    | 0.74541    |   0.0 |  1.30
Other   |            | 0.1706     |            |       |  0.30

Nlocal:    19652 ave 19652 max 19652 min
Histogram: 1 0 0 0 0 0 0 0 0 0
Nghost:    16905 ave 16905 max 16905 min
Histogram: 1 0 0 0 0 0 0 0 0 0
Neighs:    1.23138e+06 ave 1.23138e+06 max 1.23138e+06 min
Histogram: 1 0 0 0 0 0 0 0 0 0

Total # of neighbors = 1231378
Ave neighs/atom = 62.6592
Neighbor list builds = 495
Dangerous builds not checked
Setting up Verlet run ...
  Unit style    : metal
  Current step  : 58495
  Time step     : 0.001
Per MPI rank memory allocation (min/avg/max) = 18.2 | 18.2 | 18.2 Mbytes
Step Temp Press TotEng PotEng Enthalpy Volume 
   58495    1519.8456    351.28944   -45685.987   -49546.533   -45597.733    402511.33 
   59000    1496.5278    100.26146   -45861.945   -49663.262   -45836.845    401097.98 
Loop time of 58.4901 on 1 procs for 505 steps with 19652 atoms

Performance: 0.746 ns/day, 32.173 hours/ns, 8.634 timesteps/s
99.9% CPU use with 1 MPI tasks x no OpenMP threads

MPI task timing breakdown:
Section |  min time  |  avg time  |  max time  |%varavg| %total
---------------------------------------------------------------
Pair    | 32.051     | 32.051     | 32.051     |   0.0 | 54.80
Neigh   | 24.919     | 24.919     | 24.919     |   0.0 | 42.60
Comm    | 0.56255    | 0.56255    | 0.56255    |   0.0 |  0.96
Output  | 0.040787   | 0.040787   | 0.040787   |   0.0 |  0.07
Modify  | 0.74516    | 0.74516    | 0.74516    |   0.0 |  1.27
Other   |            | 0.1714     |            |       |  0.29

Nlocal:    19652 ave 19652 max 19652 min
Histogram: 1 0 0 0 0 0 0 0 0 0
Nghost:    16888 ave 16888 max 16888 min
Histogram: 1 0 0 0 0 0 0 0 0 0
Neighs:    1.23652e+06 ave 1.23652e+06 max 1.23652e+06 min
Histogram: 1 0 0 0 0 0 0 0 0 0

Total # of neighbors = 1236515
Ave neighs/atom = 62.9206
Neighbor list builds = 505
Dangerous builds not checked
Setting up Verlet run ...
  Unit style    : metal
  Current step  : 59000
  Time step     : 0.001
Per MPI rank memory allocation (min/avg/max) = 18.2 | 18.2 | 18.2 Mbytes
Step Temp Press TotEng PotEng Enthalpy Volume 
   59000    1496.5278    100.26146   -45861.945   -49663.262   -45836.845    401097.98 
   59495     1464.868    282.34956   -46006.068   -49726.966   -45935.581    399972.42 
Loop time of 57.3649 on 1 procs for 495 steps with 19652 atoms

Performance: 0.746 ns/day, 32.191 hours/ns, 8.629 timesteps/s
99.9% CPU use with 1 MPI tasks x no OpenMP threads

MPI task timing breakdown:
Section |  min time  |  avg time  |  max time  |%varavg| %total
---------------------------------------------------------------
Pair    | 31.53      | 31.53      | 31.53      |   0.0 | 54.96
Neigh   | 24.362     | 24.362     | 24.362     |   0.0 | 42.47
Comm    | 0.56417    | 0.56417    | 0.56417    |   0.0 |  0.98
Output  | 0.00021601 | 0.00021601 | 0.00021601 |   0.0 |  0.00
Modify  | 0.73845    | 0.73845    | 0.73845    |   0.0 |  1.29
Other   |            | 0.1699     |            |       |  0.30

Nlocal:    19652 ave 19652 max 19652 min
Histogram: 1 0 0 0 0 0 0 0 0 0
Nghost:    16947 ave 16947 max 16947 min
Histogram: 1 0 0 0 0 0 0 0 0 0
Neighs:    1.23979e+06 ave 1.23979e+06 max 1.23979e+06 min
Histogram: 1 0 0 0 0 0 0 0 0 0

Total # of neighbors = 1239789
Ave neighs/atom = 63.0872
Neighbor list builds = 495
Dangerous builds not checked
Setting up Verlet run ...
  Unit style    : metal
  Current step  : 59495
  Time step     : 0.001
Per MPI rank memory allocation (min/avg/max) = 18.2 | 18.2 | 18.2 Mbytes
Step Temp Press TotEng PotEng Enthalpy Volume 
   59495     1464.868    282.34956   -46006.068   -49726.966   -45935.581    399972.42 
   60000    1456.5116     460.2359   -46158.606   -49858.278    -46044.18    398341.48 
Loop time of 58.5077 on 1 procs for 505 steps with 19652 atoms

Performance: 0.746 ns/day, 32.182 hours/ns, 8.631 timesteps/s
99.9% CPU use with 1 MPI tasks x no OpenMP threads

MPI task timing breakdown:
Section |  min time  |  avg time  |  max time  |%varavg| %total
---------------------------------------------------------------
Pair    | 32.137     | 32.137     | 32.137     |   0.0 | 54.93
Neigh   | 24.842     | 24.842     | 24.842     |   0.0 | 42.46
Comm    | 0.56832    | 0.56832    | 0.56832    |   0.0 |  0.97
Output  | 0.040851   | 0.040851   | 0.040851   |   0.0 |  0.07
Modify  | 0.74787    | 0.74787    | 0.74787    |   0.0 |  1.28
Other   |            | 0.1718     |            |       |  0.29

Nlocal:    19652 ave 19652 max 19652 min
Histogram: 1 0 0 0 0 0 0 0 0 0
Nghost:    17026 ave 17026 max 17026 min
Histogram: 1 0 0 0 0 0 0 0 0 0
Neighs:    1.24534e+06 ave 1.24534e+06 max 1.24534e+06 min
Histogram: 1 0 0 0 0 0 0 0 0 0

Total # of neighbors = 1245342
Ave neighs/atom = 63.3697
Neighbor list builds = 505
Dangerous builds not checked
Setting up Verlet run ...
  Unit style    : metal
  Current step  : 60000
  Time step     : 0.001
Per MPI rank memory allocation (min/avg/max) = 18.2 | 18.2 | 18.2 Mbytes
Step Temp Press TotEng PotEng Enthalpy Volume 
   60000    1456.5116     460.2359   -46158.606   -49858.278    -46044.18    398341.48 
   60495    1426.0967    756.42538   -46324.467   -49946.883   -46137.079    396904.82 
Loop time of 57.4332 on 1 procs for 495 steps with 19652 atoms

Performance: 0.745 ns/day, 32.230 hours/ns, 8.619 timesteps/s
99.6% CPU use with 1 MPI tasks x no OpenMP threads

MPI task timing breakdown:
Section |  min time  |  avg time  |  max time  |%varavg| %total
---------------------------------------------------------------
Pair    | 31.573     | 31.573     | 31.573     |   0.0 | 54.97
Neigh   | 24.42      | 24.42      | 24.42      |   0.0 | 42.52
Comm    | 0.54335    | 0.54335    | 0.54335    |   0.0 |  0.95
Output  | 0.00020194 | 0.00020194 | 0.00020194 |   0.0 |  0.00
Modify  | 0.72931    | 0.72931    | 0.72931    |   0.0 |  1.27
Other   |            | 0.167      |            |       |  0.29

Nlocal:    19652 ave 19652 max 19652 min
Histogram: 1 0 0 0 0 0 0 0 0 0
Nghost:    17054 ave 17054 max 17054 min
Histogram: 1 0 0 0 0 0 0 0 0 0
Neighs:    1.24991e+06 ave 1.24991e+06 max 1.24991e+06 min
Histogram: 1 0 0 0 0 0 0 0 0 0

Total # of neighbors = 1249910
Ave neighs/atom = 63.6022
Neighbor list builds = 495
Dangerous builds not checked
Setting up Verlet run ...
  Unit style    : metal
  Current step  : 60495
  Time step     : 0.001
Per MPI rank memory allocation (min/avg/max) = 18.2 | 18.2 | 18.2 Mbytes
Step Temp Press TotEng PotEng Enthalpy Volume 
   60495    1426.0967    756.42538   -46324.467   -49946.883   -46137.079    396904.82 
   61000    1394.5189    680.47772   -46463.652   -50005.857   -46295.449    396032.73 
Loop time of 58.7699 on 1 procs for 505 steps with 19652 atoms

Performance: 0.742 ns/day, 32.327 hours/ns, 8.593 timesteps/s
99.9% CPU use with 1 MPI tasks x no OpenMP threads

MPI task timing breakdown:
Section |  min time  |  avg time  |  max time  |%varavg| %total
---------------------------------------------------------------
Pair    | 32.373     | 32.373     | 32.373     |   0.0 | 55.08
Neigh   | 24.875     | 24.875     | 24.875     |   0.0 | 42.33
Comm    | 0.56441    | 0.56441    | 0.56441    |   0.0 |  0.96
Output  | 0.040994   | 0.040994   | 0.040994   |   0.0 |  0.07
Modify  | 0.7456     | 0.7456     | 0.7456     |   0.0 |  1.27
Other   |            | 0.1712     |            |       |  0.29

Nlocal:    19652 ave 19652 max 19652 min
Histogram: 1 0 0 0 0 0 0 0 0 0
Nghost:    17053 ave 17053 max 17053 min
Histogram: 1 0 0 0 0 0 0 0 0 0
Neighs:    1.25296e+06 ave 1.25296e+06 max 1.25296e+06 min
Histogram: 1 0 0 0 0 0 0 0 0 0

Total # of neighbors = 1252962
Ave neighs/atom = 63.7575
Neighbor list builds = 505
Dangerous builds not checked
Setting up Verlet run ...
  Unit style    : metal
  Current step  : 61000
  Time step     : 0.001
Per MPI rank memory allocation (min/avg/max) = 18.2 | 18.2 | 18.2 Mbytes
Step Temp Press TotEng PotEng Enthalpy Volume 
   61000    1394.5189    680.47772   -46463.652   -50005.857   -46295.449    396032.73 
   61495    1355.2104    467.45065   -46629.644   -50072.002   -46514.332    395231.38 
Loop time of 57.6719 on 1 procs for 495 steps with 19652 atoms

Performance: 0.742 ns/day, 32.364 hours/ns, 8.583 timesteps/s
99.9% CPU use with 1 MPI tasks x no OpenMP threads

MPI task timing breakdown:
Section |  min time  |  avg time  |  max time  |%varavg| %total
---------------------------------------------------------------
Pair    | 31.777     | 31.777     | 31.777     |   0.0 | 55.10
Neigh   | 24.399     | 24.399     | 24.399     |   0.0 | 42.31
Comm    | 0.57629    | 0.57629    | 0.57629    |   0.0 |  1.00
Output  | 0.00021195 | 0.00021195 | 0.00021195 |   0.0 |  0.00
Modify  | 0.74719    | 0.74719    | 0.74719    |   0.0 |  1.30
Other   |            | 0.1721     |            |       |  0.30

Nlocal:    19652 ave 19652 max 19652 min
Histogram: 1 0 0 0 0 0 0 0 0 0
Nghost:    17050 ave 17050 max 17050 min
Histogram: 1 0 0 0 0 0 0 0 0 0
Neighs:    1.25561e+06 ave 1.25561e+06 max 1.25561e+06 min
Histogram: 1 0 0 0 0 0 0 0 0 0

Total # of neighbors = 1255609
Ave neighs/atom = 63.8922
Neighbor list builds = 495
Dangerous builds not checked
Setting up Verlet run ...
  Unit style    : metal
  Current step  : 61495
  Time step     : 0.001
Per MPI rank memory allocation (min/avg/max) = 18.2 | 18.2 | 18.2 Mbytes
Step Temp Press TotEng PotEng Enthalpy Volume 
   61495    1355.2104    467.45065   -46629.644   -50072.002   -46514.332    395231.38 
   62000    1348.6478   -302.42288       -46765   -50190.689   -46839.385    394077.81 
Loop time of 58.8179 on 1 procs for 505 steps with 19652 atoms

Performance: 0.742 ns/day, 32.353 hours/ns, 8.586 timesteps/s
99.9% CPU use with 1 MPI tasks x no OpenMP threads

MPI task timing breakdown:
Section |  min time  |  avg time  |  max time  |%varavg| %total
---------------------------------------------------------------
Pair    | 32.431     | 32.431     | 32.431     |   0.0 | 55.14
Neigh   | 24.859     | 24.859     | 24.859     |   0.0 | 42.26
Comm    | 0.56825    | 0.56825    | 0.56825    |   0.0 |  0.97
Output  | 0.040904   | 0.040904   | 0.040904   |   0.0 |  0.07
Modify  | 0.74667    | 0.74667    | 0.74667    |   0.0 |  1.27
Other   |            | 0.1721     |            |       |  0.29

Nlocal:    19652 ave 19652 max 19652 min
Histogram: 1 0 0 0 0 0 0 0 0 0
Nghost:    17000 ave 17000 max 17000 min
Histogram: 1 0 0 0 0 0 0 0 0 0
Neighs:    1.25983e+06 ave 1.25983e+06 max 1.25983e+06 min
Histogram: 1 0 0 0 0 0 0 0 0 0

Total # of neighbors = 1259830
Ave neighs/atom = 64.107
Neighbor list builds = 505
Dangerous builds not checked
Setting up Verlet run ...
  Unit style    : metal
  Current step  : 62000
  Time step     : 0.001
Per MPI rank memory allocation (min/avg/max) = 18.2 | 18.2 | 18.2 Mbytes
Step Temp Press TotEng PotEng Enthalpy Volume 
   62000    1348.6478   -302.42288       -46765   -50190.689   -46839.385    394077.81 
   62495    1305.8632   -295.94001    -46952.99   -50270.002   -47025.592    393055.91 
Loop time of 58.2504 on 1 procs for 495 steps with 19652 atoms

Performance: 0.734 ns/day, 32.688 hours/ns, 8.498 timesteps/s
99.1% CPU use with 1 MPI tasks x no OpenMP threads

MPI task timing breakdown:
Section |  min time  |  avg time  |  max time  |%varavg| %total
---------------------------------------------------------------
Pair    | 32.167     | 32.167     | 32.167     |   0.0 | 55.22
Neigh   | 24.633     | 24.633     | 24.633     |   0.0 | 42.29
Comm    | 0.54863    | 0.54863    | 0.54863    |   0.0 |  0.94
Output  | 0.00019002 | 0.00019002 | 0.00019002 |   0.0 |  0.00
Modify  | 0.73347    | 0.73347    | 0.73347    |   0.0 |  1.26
Other   |            | 0.1681     |            |       |  0.29

Nlocal:    19652 ave 19652 max 19652 min
Histogram: 1 0 0 0 0 0 0 0 0 0
Nghost:    17083 ave 17083 max 17083 min
Histogram: 1 0 0 0 0 0 0 0 0 0
Neighs:    1.26302e+06 ave 1.26302e+06 max 1.26302e+06 min
Histogram: 1 0 0 0 0 0 0 0 0 0

Total # of neighbors = 1263025
Ave neighs/atom = 64.2695
Neighbor list builds = 495
Dangerous builds not checked
Setting up Verlet run ...
  Unit style    : metal
  Current step  : 62495
  Time step     : 0.001
Per MPI rank memory allocation (min/avg/max) = 18.2 | 18.2 | 18.2 Mbytes
Step Temp Press TotEng PotEng Enthalpy Volume 
   62495    1305.8632   -295.94001    -46952.99   -50270.002   -47025.592    393055.91 
   63000     1296.464   -1187.1447    -47109.48   -50402.617   -47399.862    391900.27 
Loop time of 59.1383 on 1 procs for 505 steps with 19652 atoms

Performance: 0.738 ns/day, 32.529 hours/ns, 8.539 timesteps/s
99.7% CPU use with 1 MPI tasks x no OpenMP threads

MPI task timing breakdown:
Section |  min time  |  avg time  |  max time  |%varavg| %total
---------------------------------------------------------------
Pair    | 32.659     | 32.659     | 32.659     |   0.0 | 55.23
Neigh   | 24.953     | 24.953     | 24.953     |   0.0 | 42.19
Comm    | 0.56805    | 0.56805    | 0.56805    |   0.0 |  0.96
Output  | 0.041258   | 0.041258   | 0.041258   |   0.0 |  0.07
Modify  | 0.74498    | 0.74498    | 0.74498    |   0.0 |  1.26
Other   |            | 0.1721     |            |       |  0.29

Nlocal:    19652 ave 19652 max 19652 min
Histogram: 1 0 0 0 0 0 0 0 0 0
Nghost:    17060 ave 17060 max 17060 min
Histogram: 1 0 0 0 0 0 0 0 0 0
Neighs:    1.26746e+06 ave 1.26746e+06 max 1.26746e+06 min
Histogram: 1 0 0 0 0 0 0 0 0 0

Total # of neighbors = 1267463
Ave neighs/atom = 64.4954
Neighbor list builds = 505
Dangerous builds not checked
Setting up Verlet run ...
  Unit style    : metal
  Current step  : 63000
  Time step     : 0.001
Per MPI rank memory allocation (min/avg/max) = 18.2 | 18.2 | 18.2 Mbytes
Step Temp Press TotEng PotEng Enthalpy Volume 
   63000     1296.464   -1187.1447    -47109.48   -50402.617   -47399.862    391900.27 
   63495    1267.9435   -684.92064   -47262.952   -50483.644   -47429.961    390670.64 
Loop time of 57.9719 on 1 procs for 495 steps with 19652 atoms

Performance: 0.738 ns/day, 32.532 hours/ns, 8.539 timesteps/s
99.8% CPU use with 1 MPI tasks x no OpenMP threads

MPI task timing breakdown:
Section |  min time  |  avg time  |  max time  |%varavg| %total
---------------------------------------------------------------
Pair    | 32.035     | 32.035     | 32.035     |   0.0 | 55.26
Neigh   | 24.47      | 24.47      | 24.47      |   0.0 | 42.21
Comm    | 0.55787    | 0.55787    | 0.55787    |   0.0 |  0.96
Output  | 0.00019407 | 0.00019407 | 0.00019407 |   0.0 |  0.00
Modify  | 0.73721    | 0.73721    | 0.73721    |   0.0 |  1.27
Other   |            | 0.1711     |            |       |  0.30

Nlocal:    19652 ave 19652 max 19652 min
Histogram: 1 0 0 0 0 0 0 0 0 0
Nghost:    17124 ave 17124 max 17124 min
Histogram: 1 0 0 0 0 0 0 0 0 0
Neighs:    1.27168e+06 ave 1.27168e+06 max 1.27168e+06 min
Histogram: 1 0 0 0 0 0 0 0 0 0

Total # of neighbors = 1271683
Ave neighs/atom = 64.7101
Neighbor list builds = 495
Dangerous builds not checked
Setting up Verlet run ...
  Unit style    : metal
  Current step  : 63495
  Time step     : 0.001
Per MPI rank memory allocation (min/avg/max) = 18.2 | 18.2 | 18.2 Mbytes
Step Temp Press TotEng PotEng Enthalpy Volume 
   63495    1267.9435   -684.92064   -47262.952   -50483.644   -47429.961    390670.64 
   64000    1248.7285    33.216028   -47409.188   -50581.072   -47401.125    388932.34 
Loop time of 59.357 on 1 procs for 505 steps with 19652 atoms

Performance: 0.735 ns/day, 32.650 hours/ns, 8.508 timesteps/s
99.8% CPU use with 1 MPI tasks x no OpenMP threads

MPI task timing breakdown:
Section |  min time  |  avg time  |  max time  |%varavg| %total
---------------------------------------------------------------
Pair    | 32.88      | 32.88      | 32.88      |   0.0 | 55.39
Neigh   | 24.965     | 24.965     | 24.965     |   0.0 | 42.06
Comm    | 0.55547    | 0.55547    | 0.55547    |   0.0 |  0.94
Output  | 0.040798   | 0.040798   | 0.040798   |   0.0 |  0.07
Modify  | 0.74451    | 0.74451    | 0.74451    |   0.0 |  1.25
Other   |            | 0.1718     |            |       |  0.29

Nlocal:    19652 ave 19652 max 19652 min
Histogram: 1 0 0 0 0 0 0 0 0 0
Nghost:    17147 ave 17147 max 17147 min
Histogram: 1 0 0 0 0 0 0 0 0 0
Neighs:    1.27772e+06 ave 1.27772e+06 max 1.27772e+06 min
Histogram: 1 0 0 0 0 0 0 0 0 0

Total # of neighbors = 1277716
Ave neighs/atom = 65.0171
Neighbor list builds = 505
Dangerous builds not checked
Setting up Verlet run ...
  Unit style    : metal
  Current step  : 64000
  Time step     : 0.001
Per MPI rank memory allocation (min/avg/max) = 18.2 | 18.2 | 18.2 Mbytes
Step Temp Press TotEng PotEng Enthalpy Volume 
   64000    1248.7285    33.216028   -47409.188   -50581.072   -47401.125    388932.34 
   64495     1207.564    589.46936   -47607.527    -50674.85   -47464.977    387451.17 
Loop time of 58.1303 on 1 procs for 495 steps with 19652 atoms

Performance: 0.736 ns/day, 32.621 hours/ns, 8.515 timesteps/s
99.7% CPU use with 1 MPI tasks x no OpenMP threads

[...]
Loop time of 62.2233 on 1 procs for 495 steps with 19652 atoms

Performance: 0.687 ns/day, 34.918 hours/ns, 7.955 timesteps/s
99.8% CPU use with 1 MPI tasks x no OpenMP threads

MPI task timing breakdown:
Section |  min time  |  avg time  |  max time  |%varavg| %total
---------------------------------------------------------------
Pair    | 34.119     | 34.119     | 34.119     |   0.0 | 54.83
Neigh   | 26.612     | 26.612     | 26.612     |   0.0 | 42.77
Comm    | 0.5724     | 0.5724     | 0.5724     |   0.0 |  0.92
Output  | 0.00019312 | 0.00019312 | 0.00019312 |   0.0 |  0.00
Modify  | 0.74725    | 0.74725    | 0.74725    |   0.0 |  1.20
Other   |            | 0.1731     |            |       |  0.28

Nlocal:    19652 ave 19652 max 19652 min
Histogram: 1 0 0 0 0 0 0 0 0 0
Nghost:    17842 ave 17842 max 17842 min
Histogram: 1 0 0 0 0 0 0 0 0 0
Neighs:    1.41531e+06 ave 1.41531e+06 max 1.41531e+06 min
Histogram: 1 0 0 0 0 0 0 0 0 0

Total # of neighbors = 1415314
Ave neighs/atom = 72.0188
Neighbor list builds = 495
Dangerous builds not checked
Setting up Verlet run ...
  Unit style    : metal
  Current step  : 80495
  Time step     : 0.001
Per MPI rank memory allocation (min/avg/max) = 18.2 | 18.2 | 18.2 Mbytes
Step Temp Press TotEng PotEng Enthalpy Volume 
   80495    421.54912     578.9265   -52843.263   -53914.036    -52716.13    351840.94 
   81000    396.40469     -17.4696   -52994.368   -54001.272   -52998.198    351245.56 
Loop time of 63.4843 on 1 procs for 505 steps with 19652 atoms

Performance: 0.687 ns/day, 34.920 hours/ns, 7.955 timesteps/s
99.7% CPU use with 1 MPI tasks x no OpenMP threads

MPI task timing breakdown:
Section |  min time  |  avg time  |  max time  |%varavg| %total
---------------------------------------------------------------
Pair    | 34.738     | 34.738     | 34.738     |   0.0 | 54.72
Neigh   | 27.202     | 27.202     | 27.202     |   0.0 | 42.85
Comm    | 0.5741     | 0.5741     | 0.5741     |   0.0 |  0.90
Output  | 0.040928   | 0.040928   | 0.040928   |   0.0 |  0.06
Modify  | 0.75413    | 0.75413    | 0.75413    |   0.0 |  1.19
Other   |            | 0.1749     |            |       |  0.28

Nlocal:    19652 ave 19652 max 19652 min
Histogram: 1 0 0 0 0 0 0 0 0 0
Nghost:    17913 ave 17913 max 17913 min
Histogram: 1 0 0 0 0 0 0 0 0 0
Neighs:    1.41823e+06 ave 1.41823e+06 max 1.41823e+06 min
Histogram: 1 0 0 0 0 0 0 0 0 0

Total # of neighbors = 1418234
Ave neighs/atom = 72.1674
Neighbor list builds = 505
Dangerous builds not checked
Setting up Verlet run ...
  Unit style    : metal
  Current step  : 81000
  Time step     : 0.001
Per MPI rank memory allocation (min/avg/max) = 18.2 | 18.2 | 18.2 Mbytes
Step Temp Press TotEng PotEng Enthalpy Volume 
   81000    396.40469     -17.4696   -52994.368   -54001.272   -52998.198    351245.56 
   81495    368.35084    656.91563   -53140.314   -54075.959   -52996.711    350238.99 
Loop time of 62.1458 on 1 procs for 495 steps with 19652 atoms

Performance: 0.688 ns/day, 34.874 hours/ns, 7.965 timesteps/s
99.8% CPU use with 1 MPI tasks x no OpenMP threads

MPI task timing breakdown:
Section |  min time  |  avg time  |  max time  |%varavg| %total
---------------------------------------------------------------
Pair    | 34.023     | 34.023     | 34.023     |   0.0 | 54.75
Neigh   | 26.631     | 26.631     | 26.631     |   0.0 | 42.85
Comm    | 0.57372    | 0.57372    | 0.57372    |   0.0 |  0.92
Output  | 0.00020695 | 0.00020695 | 0.00020695 |   0.0 |  0.00
Modify  | 0.74474    | 0.74474    | 0.74474    |   0.0 |  1.20
Other   |            | 0.173      |            |       |  0.28

Nlocal:    19652 ave 19652 max 19652 min
Histogram: 1 0 0 0 0 0 0 0 0 0
Nghost:    17940 ave 17940 max 17940 min
Histogram: 1 0 0 0 0 0 0 0 0 0
Neighs:    1.42195e+06 ave 1.42195e+06 max 1.42195e+06 min
Histogram: 1 0 0 0 0 0 0 0 0 0

Total # of neighbors = 1421953
Ave neighs/atom = 72.3567
Neighbor list builds = 495
Dangerous builds not checked
Setting up Verlet run ...
  Unit style    : metal
  Current step  : 81495
  Time step     : 0.001
Per MPI rank memory allocation (min/avg/max) = 18.2 | 18.2 | 18.2 Mbytes
Step Temp Press TotEng PotEng Enthalpy Volume 
   81495    368.35084    656.91563   -53140.314   -54075.959   -52996.711    350238.99 
   82000     348.8771   -158.21046   -53291.281   -54177.461   -53325.805    349619.26 
Loop time of 64.3605 on 1 procs for 505 steps with 19652 atoms

Performance: 0.678 ns/day, 35.402 hours/ns, 7.846 timesteps/s
98.4% CPU use with 1 MPI tasks x no OpenMP threads

MPI task timing breakdown:
Section |  min time  |  avg time  |  max time  |%varavg| %total
---------------------------------------------------------------
Pair    | 35.222     | 35.222     | 35.222     |   0.0 | 54.73
Neigh   | 27.599     | 27.599     | 27.599     |   0.0 | 42.88
Comm    | 0.5754     | 0.5754     | 0.5754     |   0.0 |  0.89
Output  | 0.040512   | 0.040512   | 0.040512   |   0.0 |  0.06
Modify  | 0.74965    | 0.74965    | 0.74965    |   0.0 |  1.16
Other   |            | 0.1746     |            |       |  0.27

Nlocal:    19652 ave 19652 max 19652 min
Histogram: 1 0 0 0 0 0 0 0 0 0
Nghost:    17948 ave 17948 max 17948 min
Histogram: 1 0 0 0 0 0 0 0 0 0
Neighs:    1.42414e+06 ave 1.42414e+06 max 1.42414e+06 min
Histogram: 1 0 0 0 0 0 0 0 0 0

Total # of neighbors = 1424141
Ave neighs/atom = 72.468
Neighbor list builds = 505
Dangerous builds not checked
Setting up Verlet run ...
  Unit style    : metal
  Current step  : 82000
  Time step     : 0.001
Per MPI rank memory allocation (min/avg/max) = 18.2 | 18.2 | 18.2 Mbytes
Step Temp Press TotEng PotEng Enthalpy Volume 
   82000     348.8771   -158.21046   -53291.281   -54177.461   -53325.805    349619.26 
   82495    321.33297    464.14413   -53432.642   -54248.857   -53331.635    348667.56 
Loop time of 62.9341 on 1 procs for 495 steps with 19652 atoms

Performance: 0.680 ns/day, 35.317 hours/ns, 7.865 timesteps/s
98.5% CPU use with 1 MPI tasks x no OpenMP threads

MPI task timing breakdown:
Section |  min time  |  avg time  |  max time  |%varavg| %total
---------------------------------------------------------------
Pair    | 34.364     | 34.364     | 34.364     |   0.0 | 54.60
Neigh   | 27.07      | 27.07      | 27.07      |   0.0 | 43.01
Comm    | 0.58386    | 0.58386    | 0.58386    |   0.0 |  0.93
Output  | 0.000211   | 0.000211   | 0.000211   |   0.0 |  0.00
Modify  | 0.74377    | 0.74377    | 0.74377    |   0.0 |  1.18
Other   |            | 0.1725     |            |       |  0.27

Nlocal:    19652 ave 19652 max 19652 min
Histogram: 1 0 0 0 0 0 0 0 0 0
Nghost:    17940 ave 17940 max 17940 min
Histogram: 1 0 0 0 0 0 0 0 0 0
Neighs:    1.42824e+06 ave 1.42824e+06 max 1.42824e+06 min
Histogram: 1 0 0 0 0 0 0 0 0 0

Total # of neighbors = 1428235
Ave neighs/atom = 72.6763
Neighbor list builds = 495
Dangerous builds not checked
Setting up Verlet run ...
  Unit style    : metal
  Current step  : 82495
  Time step     : 0.001
Per MPI rank memory allocation (min/avg/max) = 18.2 | 18.2 | 18.2 Mbytes
Step Temp Press TotEng PotEng Enthalpy Volume 
   82495    321.33297    464.14413   -53432.642   -54248.857   -53331.635    348667.56 
   83000    298.27008    104.39445   -53579.639   -54337.272   -53556.967    347946.36 
Loop time of 63.782 on 1 procs for 505 steps with 19652 atoms

Performance: 0.684 ns/day, 35.084 hours/ns, 7.918 timesteps/s
99.4% CPU use with 1 MPI tasks x no OpenMP threads

MPI task timing breakdown:
Section |  min time  |  avg time  |  max time  |%varavg| %total
---------------------------------------------------------------
Pair    | 34.975     | 34.975     | 34.975     |   0.0 | 54.84
Neigh   | 27.265     | 27.265     | 27.265     |   0.0 | 42.75
Comm    | 0.57554    | 0.57554    | 0.57554    |   0.0 |  0.90
Output  | 0.04127    | 0.04127    | 0.04127    |   0.0 |  0.06
Modify  | 0.75128    | 0.75128    | 0.75128    |   0.0 |  1.18
Other   |            | 0.1743     |            |       |  0.27

Nlocal:    19652 ave 19652 max 19652 min
Histogram: 1 0 0 0 0 0 0 0 0 0
Nghost:    17980 ave 17980 max 17980 min
Histogram: 1 0 0 0 0 0 0 0 0 0
Neighs:    1.43121e+06 ave 1.43121e+06 max 1.43121e+06 min
Histogram: 1 0 0 0 0 0 0 0 0 0

Total # of neighbors = 1431212
Ave neighs/atom = 72.8278
Neighbor list builds = 505
Dangerous builds not checked
Setting up Verlet run ...
  Unit style    : metal
  Current step  : 83000
  Time step     : 0.001
Per MPI rank memory allocation (min/avg/max) = 18.2 | 18.2 | 18.2 Mbytes
Step Temp Press TotEng PotEng Enthalpy Volume 
   83000    298.27008    104.39445   -53579.639   -54337.272   -53556.967    347946.36 
   83495      274.147   -227.31562   -53716.329   -54412.687   -53765.617    347395.33 
Loop time of 62.3977 on 1 procs for 495 steps with 19652 atoms

Performance: 0.685 ns/day, 35.016 hours/ns, 7.933 timesteps/s
99.4% CPU use with 1 MPI tasks x no OpenMP threads

MPI task timing breakdown:
Section |  min time  |  avg time  |  max time  |%varavg| %total
---------------------------------------------------------------
Pair    | 34.345     | 34.345     | 34.345     |   0.0 | 55.04
Neigh   | 26.588     | 26.588     | 26.588     |   0.0 | 42.61
Comm    | 0.56089    | 0.56089    | 0.56089    |   0.0 |  0.90
Output  | 0.00020003 | 0.00020003 | 0.00020003 |   0.0 |  0.00
Modify  | 0.73258    | 0.73258    | 0.73258    |   0.0 |  1.17
Other   |            | 0.1711     |            |       |  0.27

Nlocal:    19652 ave 19652 max 19652 min
Histogram: 1 0 0 0 0 0 0 0 0 0
Nghost:    17990 ave 17990 max 17990 min
Histogram: 1 0 0 0 0 0 0 0 0 0
Neighs:    1.43326e+06 ave 1.43326e+06 max 1.43326e+06 min
Histogram: 1 0 0 0 0 0 0 0 0 0

Total # of neighbors = 1433262
Ave neighs/atom = 72.9321
Neighbor list builds = 495
Dangerous builds not checked
Setting up Verlet run ...
  Unit style    : metal
  Current step  : 83495
  Time step     : 0.001
Per MPI rank memory allocation (min/avg/max) = 18.2 | 18.2 | 18.2 Mbytes
Step Temp Press TotEng PotEng Enthalpy Volume 
   83495      274.147   -227.31562   -53716.329   -54412.687   -53765.617    347395.33 
   84000    250.12204   -235.50193   -53855.285   -54490.618   -53906.239     346647.9 
Loop time of 63.3612 on 1 procs for 505 steps with 19652 atoms

Performance: 0.689 ns/day, 34.852 hours/ns, 7.970 timesteps/s
99.9% CPU use with 1 MPI tasks x no OpenMP threads

MPI task timing breakdown:
Section |  min time  |  avg time  |  max time  |%varavg| %total
---------------------------------------------------------------
Pair    | 34.703     | 34.703     | 34.703     |   0.0 | 54.77
Neigh   | 27.082     | 27.082     | 27.082     |   0.0 | 42.74
Comm    | 0.58996    | 0.58996    | 0.58996    |   0.0 |  0.93
Output  | 0.040952   | 0.040952   | 0.040952   |   0.0 |  0.06
Modify  | 0.76898    | 0.76898    | 0.76898    |   0.0 |  1.21
Other   |            | 0.1769     |            |       |  0.28

Nlocal:    19652 ave 19652 max 19652 min
Histogram: 1 0 0 0 0 0 0 0 0 0
Nghost:    17973 ave 17973 max 17973 min
Histogram: 1 0 0 0 0 0 0 0 0 0
Neighs:    1.43609e+06 ave 1.43609e+06 max 1.43609e+06 min
Histogram: 1 0 0 0 0 0 0 0 0 0

Total # of neighbors = 1436091
Ave neighs/atom = 73.0761
Neighbor list builds = 505
Dangerous builds not checked
Setting up Verlet run ...
  Unit style    : metal
  Current step  : 84000
  Time step     : 0.001
Per MPI rank memory allocation (min/avg/max) = 18.2 | 18.2 | 18.2 Mbytes
Step Temp Press TotEng PotEng Enthalpy Volume 
   84000    250.12204   -235.50193   -53855.285   -54490.618   -53906.239     346647.9 
   84495     224.6366   -493.39091   -53992.554   -54563.151   -54099.126    346067.96 
Loop time of 62.1819 on 1 procs for 495 steps with 19652 atoms

Performance: 0.688 ns/day, 34.894 hours/ns, 7.961 timesteps/s
99.6% CPU use with 1 MPI tasks x no OpenMP threads

MPI task timing breakdown:
Section |  min time  |  avg time  |  max time  |%varavg| %total
---------------------------------------------------------------
Pair    | 34.129     | 34.129     | 34.129     |   0.0 | 54.89
Neigh   | 26.594     | 26.594     | 26.594     |   0.0 | 42.77
Comm    | 0.55502    | 0.55502    | 0.55502    |   0.0 |  0.89
Output  | 0.00021195 | 0.00021195 | 0.00021195 |   0.0 |  0.00
Modify  | 0.73408    | 0.73408    | 0.73408    |   0.0 |  1.18
Other   |            | 0.1697     |            |       |  0.27

Nlocal:    19652 ave 19652 max 19652 min
Histogram: 1 0 0 0 0 0 0 0 0 0
Nghost:    17993 ave 17993 max 17993 min
Histogram: 1 0 0 0 0 0 0 0 0 0
Neighs:    1.43831e+06 ave 1.43831e+06 max 1.43831e+06 min
Histogram: 1 0 0 0 0 0 0 0 0 0

Total # of neighbors = 1438313
Ave neighs/atom = 73.1891
Neighbor list builds = 495
Dangerous builds not checked
Setting up Verlet run ...
  Unit style    : metal
  Current step  : 84495
  Time step     : 0.001
Per MPI rank memory allocation (min/avg/max) = 18.2 | 18.2 | 18.2 Mbytes
Step Temp Press TotEng PotEng Enthalpy Volume 
   84495     224.6366   -493.39091   -53992.554   -54563.151   -54099.126    346067.96 
   85000    200.67359    662.32215   -54130.528   -54640.258   -53987.938    344930.26 
Loop time of 63.5819 on 1 procs for 505 steps with 19652 atoms

Performance: 0.686 ns/day, 34.974 hours/ns, 7.943 timesteps/s
99.6% CPU use with 1 MPI tasks x no OpenMP threads

MPI task timing breakdown:
Section |  min time  |  avg time  |  max time  |%varavg| %total
---------------------------------------------------------------
Pair    | 34.871     | 34.871     | 34.871     |   0.0 | 54.84
Neigh   | 27.187     | 27.187     | 27.187     |   0.0 | 42.76
Comm    | 0.56457    | 0.56457    | 0.56457    |   0.0 |  0.89
Output  | 0.040837   | 0.040837   | 0.040837   |   0.0 |  0.06
Modify  | 0.74556    | 0.74556    | 0.74556    |   0.0 |  1.17
Other   |            | 0.173      |            |       |  0.27

Nlocal:    19652 ave 19652 max 19652 min
Histogram: 1 0 0 0 0 0 0 0 0 0
Nghost:    18010 ave 18010 max 18010 min
Histogram: 1 0 0 0 0 0 0 0 0 0
Neighs:    1.44275e+06 ave 1.44275e+06 max 1.44275e+06 min
Histogram: 1 0 0 0 0 0 0 0 0 0

Total # of neighbors = 1442749
Ave neighs/atom = 73.4149
Neighbor list builds = 505
Dangerous builds not checked
Setting up Verlet run ...
  Unit style    : metal
  Current step  : 85000
  Time step     : 0.001
Per MPI rank memory allocation (min/avg/max) = 18.2 | 18.2 | 18.2 Mbytes
Step Temp Press TotEng PotEng Enthalpy Volume 
   85000    200.67359    662.32215   -54130.528   -54640.258   -53987.938    344930.26 
   85495    176.60007   -50.100305   -54260.157   -54708.737   -54270.931    344557.17 
Loop time of 62.1535 on 1 procs for 495 steps with 19652 atoms

Performance: 0.688 ns/day, 34.878 hours/ns, 7.964 timesteps/s
99.7% CPU use with 1 MPI tasks x no OpenMP threads

MPI task timing breakdown:
Section |  min time  |  avg time  |  max time  |%varavg| %total
---------------------------------------------------------------
Pair    | 34.128     | 34.128     | 34.128     |   0.0 | 54.91
Neigh   | 26.565     | 26.565     | 26.565     |   0.0 | 42.74
Comm    | 0.55661    | 0.55661    | 0.55661    |   0.0 |  0.90
Output  | 0.000211   | 0.000211   | 0.000211   |   0.0 |  0.00
Modify  | 0.73327    | 0.73327    | 0.73327    |   0.0 |  1.18
Other   |            | 0.1703     |            |       |  0.27

Nlocal:    19652 ave 19652 max 19652 min
Histogram: 1 0 0 0 0 0 0 0 0 0
Nghost:    18009 ave 18009 max 18009 min
Histogram: 1 0 0 0 0 0 0 0 0 0
Neighs:    1.44393e+06 ave 1.44393e+06 max 1.44393e+06 min
Histogram: 1 0 0 0 0 0 0 0 0 0

Total # of neighbors = 1443927
Ave neighs/atom = 73.4748
Neighbor list builds = 495
Dangerous builds not checked
Setting up Verlet run ...
  Unit style    : metal
  Current step  : 85495
  Time step     : 0.001
Per MPI rank memory allocation (min/avg/max) = 18.2 | 18.2 | 18.2 Mbytes
Step Temp Press TotEng PotEng Enthalpy Volume 
   85495    176.60007   -50.100305   -54260.157   -54708.737   -54270.931    344557.17 
   86000    153.16598    -345.1893   -54396.928   -54785.984    -54471.03    343939.56 
Loop time of 63.4563 on 1 procs for 505 steps with 19652 atoms

Performance: 0.688 ns/day, 34.904 hours/ns, 7.958 timesteps/s
99.7% CPU use with 1 MPI tasks x no OpenMP threads

MPI task timing breakdown:
Section |  min time  |  avg time  |  max time  |%varavg| %total
---------------------------------------------------------------
Pair    | 34.882     | 34.882     | 34.882     |   0.0 | 54.97
Neigh   | 27.025     | 27.025     | 27.025     |   0.0 | 42.59
Comm    | 0.57892    | 0.57892    | 0.57892    |   0.0 |  0.91
Output  | 0.04077    | 0.04077    | 0.04077    |   0.0 |  0.06
Modify  | 0.75307    | 0.75307    | 0.75307    |   0.0 |  1.19
Other   |            | 0.1759     |            |       |  0.28

Nlocal:    19652 ave 19652 max 19652 min
Histogram: 1 0 0 0 0 0 0 0 0 0
Nghost:    18078 ave 18078 max 18078 min
Histogram: 1 0 0 0 0 0 0 0 0 0
Neighs:    1.44648e+06 ave 1.44648e+06 max 1.44648e+06 min
Histogram: 1 0 0 0 0 0 0 0 0 0

Total # of neighbors = 1446482
Ave neighs/atom = 73.6048
Neighbor list builds = 505
Dangerous builds not checked
Setting up Verlet run ...
  Unit style    : metal
  Current step  : 86000
  Time step     : 0.001
Per MPI rank memory allocation (min/avg/max) = 18.2 | 18.2 | 18.2 Mbytes
Step Temp Press TotEng PotEng Enthalpy Volume 
   86000    153.16598    -345.1893   -54396.928   -54785.984    -54471.03    343939.56 
   86495    127.87581    -224.9412   -54522.521   -54847.337   -54570.727    343355.69 
Loop time of 62.2172 on 1 procs for 495 steps with 19652 atoms

Performance: 0.687 ns/day, 34.914 hours/ns, 7.956 timesteps/s
99.5% CPU use with 1 MPI tasks x no OpenMP threads

MPI task timing breakdown:
Section |  min time  |  avg time  |  max time  |%varavg| %total
---------------------------------------------------------------
Pair    | 34.233     | 34.233     | 34.233     |   0.0 | 55.02
Neigh   | 26.528     | 26.528     | 26.528     |   0.0 | 42.64
Comm    | 0.55286    | 0.55286    | 0.55286    |   0.0 |  0.89
Output  | 0.00019622 | 0.00019622 | 0.00019622 |   0.0 |  0.00
Modify  | 0.72926    | 0.72926    | 0.72926    |   0.0 |  1.17
Other   |            | 0.1738     |            |       |  0.28

Nlocal:    19652 ave 19652 max 19652 min
Histogram: 1 0 0 0 0 0 0 0 0 0
Nghost:    18056 ave 18056 max 18056 min
Histogram: 1 0 0 0 0 0 0 0 0 0
Neighs:    1.44913e+06 ave 1.44913e+06 max 1.44913e+06 min
Histogram: 1 0 0 0 0 0 0 0 0 0

Total # of neighbors = 1449133
Ave neighs/atom = 73.7397
Neighbor list builds = 495
Dangerous builds not checked
Setting up Verlet run ...
  Unit style    : metal
  Current step  : 86495
  Time step     : 0.001
Per MPI rank memory allocation (min/avg/max) = 18.2 | 18.2 | 18.2 Mbytes
Step Temp Press TotEng PotEng Enthalpy Volume 
   86495    127.87581    -224.9412   -54522.521   -54847.337   -54570.727    343355.69 
   87000    102.81419   -60.993704   -54654.402    -54915.56   -54667.446     342648.2 
Loop time of 64.227 on 1 procs for 505 steps with 19652 atoms

Performance: 0.679 ns/day, 35.328 hours/ns, 7.863 timesteps/s
98.2% CPU use with 1 MPI tasks x no OpenMP threads

MPI task timing breakdown:
Section |  min time  |  avg time  |  max time  |%varavg| %total
---------------------------------------------------------------
Pair    | 35.352     | 35.352     | 35.352     |   0.0 | 55.04
Neigh   | 27.33      | 27.33      | 27.33      |   0.0 | 42.55
Comm    | 0.57214    | 0.57214    | 0.57214    |   0.0 |  0.89
Output  | 0.040971   | 0.040971   | 0.040971   |   0.0 |  0.06
Modify  | 0.75177    | 0.75177    | 0.75177    |   0.0 |  1.17
Other   |            | 0.1798     |            |       |  0.28

Nlocal:    19652 ave 19652 max 19652 min
Histogram: 1 0 0 0 0 0 0 0 0 0
Nghost:    18110 ave 18110 max 18110 min
Histogram: 1 0 0 0 0 0 0 0 0 0
Neighs:    1.4518e+06 ave 1.4518e+06 max 1.4518e+06 min
Histogram: 1 0 0 0 0 0 0 0 0 0

Total # of neighbors = 1451801
Ave neighs/atom = 73.8755
Neighbor list builds = 505
Dangerous builds not checked
Total wall time: 2:47:36
