LAMMPS (12 Dec 2018)
Lattice spacing in x,y,z = 4 4 4
Created orthogonal box = (0 0 0) to (68 68 68)
  1 by 1 by 1 MPI processor grid
Created 19652 atoms
  Time spent = 0.00365305 secs
Setting atom values ...
  206 settings made for type/fraction
Neighbor list info ...
  update every 1 steps, delay 0 steps, check no
  max neighbors/atom: 2000, page size: 100000
  master list distance cutoff = 8.5
  ghost atom cutoff = 8.5
  binsize = 4.25, bins = 16 16 16
  1 neighbor lists, perpetual/occasional/extra = 1 0 0
  (1) pair eam/alloy, perpetual
      attributes: half, newton on
      pair build: half/bin/atomonly/newton
      stencil: half/bin/3d/newton
      bin: standard
Setting up Verlet run ...
  Unit style    : metal
  Current step  : 0
  Time step     : 0.001
Per MPI rank memory allocation (min/avg/max) = 18.19 | 18.19 | 18.19 Mbytes
Step Temp Press TotEng PotEng Enthalpy Volume 
       0          300   -288627.19   -74006.034   -74768.061      -130650       314432 
     667    1081.4709   -72150.148   -74006.221   -76753.256   -88165.907       314432 
    1000    1292.4586   -51207.904   -74006.301   -77289.263   -84056.007       314432 
Loop time of 126.391 on 1 procs for 1000 steps with 19652 atoms

Performance: 0.684 ns/day, 35.109 hours/ns, 7.912 timesteps/s
99.9% CPU use with 1 MPI tasks x no OpenMP threads

MPI task timing breakdown:
Section |  min time  |  avg time  |  max time  |%varavg| %total
---------------------------------------------------------------
Pair    | 69.445     | 69.445     | 69.445     |   0.0 | 54.94
Neigh   | 55.348     | 55.348     | 55.348     |   0.0 | 43.79
Comm    | 0.92379    | 0.92379    | 0.92379    |   0.0 |  0.73
Output  | 0.077746   | 0.077746   | 0.077746   |   0.0 |  0.06
Modify  | 0.30505    | 0.30505    | 0.30505    |   0.0 |  0.24
Other   |            | 0.2913     |            |       |  0.23

Nlocal:    19652 ave 19652 max 19652 min
Histogram: 1 0 0 0 0 0 0 0 0 0
Nghost:    18921 ave 18921 max 18921 min
Histogram: 1 0 0 0 0 0 0 0 0 0
Neighs:    1.62407e+06 ave 1.62407e+06 max 1.62407e+06 min
Histogram: 1 0 0 0 0 0 0 0 0 0

Total # of neighbors = 1624069
Ave neighs/atom = 82.6414
Neighbor list builds = 1000
Dangerous builds not checked
Setting up Verlet run ...
  Unit style    : metal
  Current step  : 1000
  Time step     : 0.001
Per MPI rank memory allocation (min/avg/max) = 18.19 | 18.19 | 18.19 Mbytes
Step Temp Press TotEng PotEng Enthalpy Volume 
    1000    1292.4586   -51207.904   -74006.301   -77289.263   -84056.007       314432 
    1334     809.6213   -13027.924   -78551.275   -80607.787   -80793.677    275770.99 
    2000    393.54169   -3335.9966    -82530.96   -83530.592    -83039.05     244019.9 
Loop time of 146.933 on 1 procs for 1000 steps with 19652 atoms

Performance: 0.588 ns/day, 40.815 hours/ns, 6.806 timesteps/s
99.9% CPU use with 1 MPI tasks x no OpenMP threads

MPI task timing breakdown:
Section |  min time  |  avg time  |  max time  |%varavg| %total
---------------------------------------------------------------
Pair    | 80.645     | 80.645     | 80.645     |   0.0 | 54.89
Neigh   | 63.912     | 63.912     | 63.912     |   0.0 | 43.50
Comm    | 0.83425    | 0.83425    | 0.83425    |   0.0 |  0.57
Output  | 0.27091    | 0.27091    | 0.27091    |   0.0 |  0.18
Modify  | 0.99156    | 0.99156    | 0.99156    |   0.0 |  0.67
Other   |            | 0.2789     |            |       |  0.19

Nlocal:    19652 ave 19652 max 19652 min
Histogram: 1 0 0 0 0 0 0 0 0 0
Nghost:    20830 ave 20830 max 20830 min
Histogram: 1 0 0 0 0 0 0 0 0 0
Neighs:    2.05932e+06 ave 2.05932e+06 max 2.05932e+06 min
Histogram: 1 0 0 0 0 0 0 0 0 0

Total # of neighbors = 2059323
Ave neighs/atom = 104.789
Neighbor list builds = 1000
Dangerous builds not checked
Setting up Verlet run ...
  Unit style    : metal
  Current step  : 2000
  Time step     : 0.001
Per MPI rank memory allocation (min/avg/max) = 19.35 | 19.35 | 19.35 Mbytes
Step Temp Press TotEng PotEng Enthalpy Volume 
    2000    393.54169   -3335.9966    -82530.96   -83530.592    -83039.05     244019.9 
    2001    394.19911   -3480.6774   -82530.992   -83532.294   -83061.117    244019.53 
    2668    464.87547   -411.23778   -82985.934    -84166.76   -83045.795    233216.73 
    3335    642.10232   -228.03953   -82458.395   -84089.394   -82491.168    230255.33 
    4002    810.40715   -855.85646   -81756.705   -83815.213   -81879.781    230400.76 
    4669    990.73873   -3584.5406   -80847.083   -83363.649   -81366.964     232370.6 
    5336    1172.5956   -1826.4134   -79789.381    -82767.88   -80056.823    234606.76 
    6003    1345.5573   -1322.5285   -78640.489   -82058.327   -78836.501    237457.96 
    6670    1530.2425    548.03459   -77382.475   -81269.431   -77300.178    240595.07 
    7337    1710.7282    966.12921   -76043.474    -80388.88   -75896.047    244484.91 
    8004    1902.3774    163.54975    -74789.21   -79621.422   -74763.872    248220.19 
    8671    2064.9975   -2765.8318   -73595.107   -78840.389   -74030.765    252365.69 
    9338    2242.6951   -1736.1875   -72474.038   -78170.688   -72750.914    255504.08 
   10000    2457.3946    738.11224    -71351.67   -77593.676   -71232.749    258134.75 
Loop time of 1399.52 on 1 procs for 8000 steps with 19652 atoms

Performance: 0.494 ns/day, 48.595 hours/ns, 5.716 timesteps/s
99.5% CPU use with 1 MPI tasks x no OpenMP threads

MPI task timing breakdown:
Section |  min time  |  avg time  |  max time  |%varavg| %total
---------------------------------------------------------------
Pair    | 772.38     | 772.38     | 772.38     |   0.0 | 55.19
Neigh   | 605.65     | 605.65     | 605.65     |   0.0 | 43.28
Comm    | 7.5695     | 7.5695     | 7.5695     |   0.0 |  0.54
Output  | 2.2714     | 2.2714     | 2.2714     |   0.0 |  0.16
Modify  | 9.0935     | 9.0935     | 9.0935     |   0.0 |  0.65
Other   |            | 2.558      |            |       |  0.18

Nlocal:    19652 ave 19652 max 19652 min
Histogram: 1 0 0 0 0 0 0 0 0 0
Nghost:    20279 ave 20279 max 20279 min
Histogram: 1 0 0 0 0 0 0 0 0 0
Neighs:    1.91063e+06 ave 1.91063e+06 max 1.91063e+06 min
Histogram: 1 0 0 0 0 0 0 0 0 0

Total # of neighbors = 1910629
Ave neighs/atom = 97.2231
Neighbor list builds = 8000
Dangerous builds not checked
Setting up Verlet run ...
  Unit style    : metal
  Current step  : 10000
  Time step     : 0.001
Per MPI rank memory allocation (min/avg/max) = 19.73 | 19.73 | 19.73 Mbytes
Step Temp Press TotEng PotEng Enthalpy Volume 
   10000    2457.3946    738.11224    -71351.67   -77593.676   -71232.749    258134.75 
   10005    2457.6481    701.27963   -71351.714   -77594.364   -71238.727    258135.03 
   10672    2449.7462     959.1471   -71283.464   -77506.042   -71128.693    258531.68 
   11339    2458.9693    1651.8076   -71194.819   -77440.825   -70928.092    258712.92 
   12006    2447.4466   -3743.4809   -71297.817   -77514.554   -71903.651    259291.87 
   12673    2449.1142   -376.75689   -71238.702   -77459.675    -71299.59    258929.51 
   13340    2459.0485    925.36219   -71249.767   -77495.975   -71100.448    258533.03 
   14007    2469.4244   -3321.9221    -71162.38   -77434.943   -71700.839    259701.03 
   14674    2480.2794   -1260.9216   -71195.784    -77495.92   -71399.579    258949.77 
   15341    2449.9653     123.9062   -71286.865       -77510   -71266.862    258643.45 
   16008     2458.605   -1347.6936   -71228.125   -77473.206   -71446.074    259104.18 
   16675    2447.5733    3104.5534   -71248.835   -77465.894   -70748.661    258126.31 
   17342    2443.9886   -2042.4892   -71286.757    -77494.71   -71616.981    259035.48 
   18009    2459.4837    2094.1828   -71253.789   -77501.102   -70916.094    258356.86 
   18676    2413.8543   -2761.2185   -71378.915   -77510.325   -71825.246    258980.26 
   19343    2454.6047    563.22159   -71204.882   -77439.802   -71113.885    258856.08 
   20010    2447.1356   -72.599211   -71301.789   -77517.737   -71313.509     258645.6 
   20677    2433.3918    1106.3765   -71313.607   -77494.644   -71135.109    258488.86 
   21344    2451.8128  -0.84118497   -71229.522    -77457.35   -71229.658    258832.73 
   22011    2427.4982   -743.70601   -71275.504    -77441.57   -71395.744     259035.8 
   22678    2451.0002    2318.9532   -71281.122   -77506.886   -70907.431    258185.15 
   23345    2462.8316   -1854.5466    -71182.72   -77438.537   -71482.829    259269.77 
   24012    2452.6725    -1073.936    -71156.03   -77386.042   -71329.935    259444.49 
   24679    2439.5176   -492.63843   -71194.622   -77391.219   -71274.329     259226.3 
   25346    2453.7019     -815.663    -71289.56   -77522.187   -71421.318    258807.37 
   26013    2440.9978   -2112.4739   -71231.118   -77431.475   -71573.104    259374.52 
   26680    2435.9478    1227.2903   -71229.998   -77417.527   -71031.897    258612.51 
   27347    2435.5658   -359.28056   -71265.751    -77452.31   -71323.821    258955.89 
   28014      2447.04    -1915.799   -71285.399   -77501.104   -71594.966    258890.14 
   28681    2444.0352    853.55821    -71236.27   -77444.342   -71098.419    258754.16 
   29348    2440.2657    405.57539   -71282.012    -77480.51   -71216.569    258526.03 
   30015    2455.2073   -1057.5813   -71282.676   -77519.127   -71453.514    258810.33 
   30682    2448.8811    2562.9332   -71335.024   -77555.405   -70922.456    257909.84 
   31349    2432.4243    781.18991   -71353.026   -77531.605   -71227.024    258421.73 
   32016    2441.1882   -117.47118   -71346.204   -77547.044   -71365.151    258427.65 
   32683    2499.4835    2295.2441    -71140.87   -77489.786   -70770.566    258487.23 
   33350     2456.313   -1511.1745   -71303.234   -77542.492   -71547.221    258679.68 
   34017    2447.7066     48.10912   -71192.571   -77409.969   -71184.794    259009.24 
   34684    2461.1969    854.28149   -71203.695   -77455.359   -71065.717    258773.58 
   35351    2464.1766   -2452.6646   -71145.617    -77404.85   -71542.988    259578.11 
   36018    2452.6051   -322.70042   -71223.652   -77453.493   -71275.795    258882.07 
   36685    2457.3765   -1715.4749   -71231.682   -77473.642   -71509.232    259219.01 
   37352    2446.0824    2248.5651   -71249.471   -77462.743    -70886.65     258522.1 
   38019    2436.2718   -1437.8989   -71352.491   -77540.843   -71584.709    258748.59 
   38686    2451.7383   -39.141886   -71270.169   -77497.808   -71276.487    258577.37 
   39353    2456.7275     113.8411   -71228.784   -77469.095    -71210.39    258871.87 
   40000    2470.5919    723.16908   -71185.619   -77461.147   -71068.855    258689.86 
Loop time of 4910.79 on 1 procs for 30000 steps with 19652 atoms

Performance: 0.528 ns/day, 45.470 hours/ns, 6.109 timesteps/s
99.7% CPU use with 1 MPI tasks x no OpenMP threads

MPI task timing breakdown:
Section |  min time  |  avg time  |  max time  |%varavg| %total
---------------------------------------------------------------
Pair    | 2642.3     | 2642.3     | 2642.3     |   0.0 | 53.81
Neigh   | 2196.1     | 2196.1     | 2196.1     |   0.0 | 44.72
Comm    | 27.604     | 27.604     | 27.604     |   0.0 |  0.56
Output  | 3.2748     | 3.2748     | 3.2748     |   0.0 |  0.07
Modify  | 32.307     | 32.307     | 32.307     |   0.0 |  0.66
Other   |            | 9.295      |            |       |  0.19

Nlocal:    19652 ave 19652 max 19652 min
Histogram: 1 0 0 0 0 0 0 0 0 0
Nghost:    20302 ave 20302 max 20302 min
Histogram: 1 0 0 0 0 0 0 0 0 0
Neighs:    1.90683e+06 ave 1.90683e+06 max 1.90683e+06 min
Histogram: 1 0 0 0 0 0 0 0 0 0

Total # of neighbors = 1906827
Ave neighs/atom = 97.0297
Neighbor list builds = 30000
Dangerous builds not checked
Setting up Verlet run ...
  Unit style    : metal
  Current step  : 40000
  Time step     : 0.001
Per MPI rank memory allocation (min/avg/max) = 19.73 | 19.73 | 19.73 Mbytes
Step Temp Press TotEng PotEng Enthalpy Volume 
   40000    2470.5919    723.16908   -71185.619   -77461.147   -71068.855    258689.86 
   40020    2479.9577    278.73078   -71187.863   -77487.182   -71142.858    258693.87 
   40495    2410.6458    730.07453   -71482.182   -77605.442   -71364.624     257987.1 
Loop time of 72.0326 on 1 procs for 495 steps with 19652 atoms

Performance: 0.594 ns/day, 40.422 hours/ns, 6.872 timesteps/s
100.0% CPU use with 1 MPI tasks x no OpenMP threads

MPI task timing breakdown:
Section |  min time  |  avg time  |  max time  |%varavg| %total
---------------------------------------------------------------
Pair    | 38.117     | 38.117     | 38.117     |   0.0 | 52.92
Neigh   | 32.858     | 32.858     | 32.858     |   0.0 | 45.62
Comm    | 0.39256    | 0.39256    | 0.39256    |   0.0 |  0.54
Output  | 0.056811   | 0.056811   | 0.056811   |   0.0 |  0.08
Modify  | 0.47561    | 0.47561    | 0.47561    |   0.0 |  0.66
Other   |            | 0.1323     |            |       |  0.18

Nlocal:    19652 ave 19652 max 19652 min
Histogram: 1 0 0 0 0 0 0 0 0 0
Nghost:    20266 ave 20266 max 20266 min
Histogram: 1 0 0 0 0 0 0 0 0 0
Neighs:    1.91157e+06 ave 1.91157e+06 max 1.91157e+06 min
Histogram: 1 0 0 0 0 0 0 0 0 0

Total # of neighbors = 1911567
Ave neighs/atom = 97.2709
Neighbor list builds = 495
Dangerous builds not checked
Setting up Verlet run ...
  Unit style    : metal
  Current step  : 40495
  Time step     : 0.001
Per MPI rank memory allocation (min/avg/max) = 19.73 | 19.73 | 19.73 Mbytes
Step Temp Press TotEng PotEng Enthalpy Volume 
   40495    2410.6458    730.07453   -71482.182   -77605.442   -71364.624     257987.1 
   40667    2410.9892   -1619.8872   -71586.299   -77710.431   -71847.058    257908.04 
Loop time of 24.5113 on 1 procs for 172 steps with 19652 atoms

Performance: 0.606 ns/day, 39.585 hours/ns, 7.017 timesteps/s
100.0% CPU use with 1 MPI tasks x no OpenMP threads

MPI task timing breakdown:
Section |  min time  |  avg time  |  max time  |%varavg| %total
---------------------------------------------------------------
Pair    | 13.059     | 13.059     | 13.059     |   0.0 | 53.28
Neigh   | 11.108     | 11.108     | 11.108     |   0.0 | 45.32
Comm    | 0.13308    | 0.13308    | 0.13308    |   0.0 |  0.54
Output  | 0.00012398 | 0.00012398 | 0.00012398 |   0.0 |  0.00
Modify  | 0.16492    | 0.16492    | 0.16492    |   0.0 |  0.67
Other   |            | 0.04623    |            |       |  0.19

Nlocal:    19652 ave 19652 max 19652 min
Histogram: 1 0 0 0 0 0 0 0 0 0
Nghost:    20284 ave 20284 max 20284 min
Histogram: 1 0 0 0 0 0 0 0 0 0
Neighs:    1.91154e+06 ave 1.91154e+06 max 1.91154e+06 min
Histogram: 1 0 0 0 0 0 0 0 0 0

Total # of neighbors = 1911540
Ave neighs/atom = 97.2695
Neighbor list builds = 172
Dangerous builds not checked
Setting up Verlet run ...
  Unit style    : metal
  Current step  : 40667
  Time step     : 0.001
Per MPI rank memory allocation (min/avg/max) = 19.73 | 19.73 | 19.73 Mbytes
Step Temp Press TotEng PotEng Enthalpy Volume 
   40667    2410.9892   -1619.8872   -71586.299   -77710.431   -71847.058    257908.04 
   40687    2404.2833   -883.57605   -71587.283   -77694.381    -71729.51     257899.1 
   41162    2344.3331    279.33754   -71830.483   -77785.302   -71785.652    257132.35 
Loop time of 70.954 on 1 procs for 495 steps with 19652 atoms

Performance: 0.603 ns/day, 39.817 hours/ns, 6.976 timesteps/s
100.0% CPU use with 1 MPI tasks x no OpenMP threads

MPI task timing breakdown:
Section |  min time  |  avg time  |  max time  |%varavg| %total
---------------------------------------------------------------
Pair    | 37.678     | 37.678     | 37.678     |   0.0 | 53.10
Neigh   | 32.215     | 32.215     | 32.215     |   0.0 | 45.40
Comm    | 0.38832    | 0.38832    | 0.38832    |   0.0 |  0.55
Output  | 0.063389   | 0.063389   | 0.063389   |   0.0 |  0.09
Modify  | 0.4761     | 0.4761     | 0.4761     |   0.0 |  0.67
Other   |            | 0.1334     |            |       |  0.19

Nlocal:    19652 ave 19652 max 19652 min
Histogram: 1 0 0 0 0 0 0 0 0 0
Nghost:    20362 ave 20362 max 20362 min
Histogram: 1 0 0 0 0 0 0 0 0 0
Neighs:    1.91781e+06 ave 1.91781e+06 max 1.91781e+06 min
Histogram: 1 0 0 0 0 0 0 0 0 0

Total # of neighbors = 1917812
Ave neighs/atom = 97.5886
Neighbor list builds = 495
Dangerous builds not checked
Setting up Verlet run ...
  Unit style    : metal
  Current step  : 41162
  Time step     : 0.001
Per MPI rank memory allocation (min/avg/max) = 19.73 | 19.73 | 19.73 Mbytes
Step Temp Press TotEng PotEng Enthalpy Volume 
   41162    2344.3331    279.33754   -71830.483   -77785.302   -71785.652    257132.35 
   41334      2335.19    672.13283   -71871.442   -77803.038   -71763.603    257059.77 
Loop time of 27.2713 on 1 procs for 172 steps with 19652 atoms

Performance: 0.545 ns/day, 44.043 hours/ns, 6.307 timesteps/s
100.0% CPU use with 1 MPI tasks x no OpenMP threads

MPI task timing breakdown:
Section |  min time  |  avg time  |  max time  |%varavg| %total
---------------------------------------------------------------
Pair    | 14.661     | 14.661     | 14.661     |   0.0 | 53.76
Neigh   | 12.203     | 12.203     | 12.203     |   0.0 | 44.75
Comm    | 0.15927    | 0.15927    | 0.15927    |   0.0 |  0.58
Output  | 0.00015187 | 0.00015187 | 0.00015187 |   0.0 |  0.00
Modify  | 0.18918    | 0.18918    | 0.18918    |   0.0 |  0.69
Other   |            | 0.05876    |            |       |  0.22

Nlocal:    19652 ave 19652 max 19652 min
Histogram: 1 0 0 0 0 0 0 0 0 0
Nghost:    20401 ave 20401 max 20401 min
Histogram: 1 0 0 0 0 0 0 0 0 0
Neighs:    1.91864e+06 ave 1.91864e+06 max 1.91864e+06 min
Histogram: 1 0 0 0 0 0 0 0 0 0

Total # of neighbors = 1918641
Ave neighs/atom = 97.6308
Neighbor list builds = 172
Dangerous builds not checked
Setting up Verlet run ...
  Unit style    : metal
  Current step  : 41334
  Time step     : 0.001
Per MPI rank memory allocation (min/avg/max) = 19.73 | 19.73 | 19.73 Mbytes
Step Temp Press TotEng PotEng Enthalpy Volume 
   41334      2335.19    672.13283   -71871.442   -77803.038   -71763.603    257059.77 
   41354     2341.119    610.21723   -71870.238   -77816.893   -71772.331    257063.63 
   41829    2295.6409    2436.2233   -72103.171   -77934.308   -71713.934     255980.7 
Loop time of 95.9664 on 1 procs for 495 steps with 19652 atoms

Performance: 0.446 ns/day, 53.853 hours/ns, 5.158 timesteps/s
99.9% CPU use with 1 MPI tasks x no OpenMP threads

MPI task timing breakdown:
Section |  min time  |  avg time  |  max time  |%varavg| %total
---------------------------------------------------------------
Pair    | 51.78      | 51.78      | 51.78      |   0.0 | 53.96
Neigh   | 42.718     | 42.718     | 42.718     |   0.0 | 44.51
Comm    | 0.54077    | 0.54077    | 0.54077    |   0.0 |  0.56
Output  | 0.083357   | 0.083357   | 0.083357   |   0.0 |  0.09
Modify  | 0.6488     | 0.6488     | 0.6488     |   0.0 |  0.68
Other   |            | 0.1961     |            |       |  0.20

Nlocal:    19652 ave 19652 max 19652 min
Histogram: 1 0 0 0 0 0 0 0 0 0
Nghost:    20488 ave 20488 max 20488 min
Histogram: 1 0 0 0 0 0 0 0 0 0
Neighs:    1.92693e+06 ave 1.92693e+06 max 1.92693e+06 min
Histogram: 1 0 0 0 0 0 0 0 0 0

Total # of neighbors = 1926928
Ave neighs/atom = 98.0525
Neighbor list builds = 495
Dangerous builds not checked
Setting up Verlet run ...
  Unit style    : metal
  Current step  : 41829
  Time step     : 0.001
Per MPI rank memory allocation (min/avg/max) = 19.73 | 19.73 | 19.73 Mbytes
Step Temp Press TotEng PotEng Enthalpy Volume 
   41829    2295.6409    2436.2233   -72103.171   -77934.308   -71713.934     255980.7 
   42001    2278.5236   -839.71916   -72170.612    -77958.27   -72305.028    256465.35 
Loop time of 31.653 on 1 procs for 172 steps with 19652 atoms

Performance: 0.469 ns/day, 51.119 hours/ns, 5.434 timesteps/s
100.0% CPU use with 1 MPI tasks x no OpenMP threads

MPI task timing breakdown:
Section |  min time  |  avg time  |  max time  |%varavg| %total
---------------------------------------------------------------
Pair    | 17.112     | 17.112     | 17.112     |   0.0 | 54.06
Neigh   | 14.079     | 14.079     | 14.079     |   0.0 | 44.48
Comm    | 0.17904    | 0.17904    | 0.17904    |   0.0 |  0.57
Output  | 0.00015378 | 0.00015378 | 0.00015378 |   0.0 |  0.00
Modify  | 0.21775    | 0.21775    | 0.21775    |   0.0 |  0.69
Other   |            | 0.0657     |            |       |  0.21

Nlocal:    19652 ave 19652 max 19652 min
Histogram: 1 0 0 0 0 0 0 0 0 0
Nghost:    20422 ave 20422 max 20422 min
Histogram: 1 0 0 0 0 0 0 0 0 0
Neighs:    1.92278e+06 ave 1.92278e+06 max 1.92278e+06 min
Histogram: 1 0 0 0 0 0 0 0 0 0

Total # of neighbors = 1922775
Ave neighs/atom = 97.8412
Neighbor list builds = 172
Dangerous builds not checked
Setting up Verlet run ...
  Unit style    : metal
  Current step  : 42001
  Time step     : 0.001
Per MPI rank memory allocation (min/avg/max) = 19.73 | 19.73 | 19.73 Mbytes
Step Temp Press TotEng PotEng Enthalpy Volume 
   42001    2278.5236   -839.71916   -72170.612    -77958.27   -72305.028    256465.35 
   42021    2278.6683   -745.21763   -72168.403   -77956.428    -72287.69    256460.52 
   42496    2262.1736    793.74931    -72380.76   -78126.887   -72254.274    255310.89 
Loop time of 78.1936 on 1 procs for 495 steps with 19652 atoms

Performance: 0.547 ns/day, 43.880 hours/ns, 6.330 timesteps/s
100.0% CPU use with 1 MPI tasks x no OpenMP threads

MPI task timing breakdown:
Section |  min time  |  avg time  |  max time  |%varavg| %total
---------------------------------------------------------------
Pair    | 41.851     | 41.851     | 41.851     |   0.0 | 53.52
Neigh   | 35.137     | 35.137     | 35.137     |   0.0 | 44.94
Comm    | 0.44495    | 0.44495    | 0.44495    |   0.0 |  0.57
Output  | 0.088161   | 0.088161   | 0.088161   |   0.0 |  0.11
Modify  | 0.52078    | 0.52078    | 0.52078    |   0.0 |  0.67
Other   |            | 0.1521     |            |       |  0.19

Nlocal:    19652 ave 19652 max 19652 min
Histogram: 1 0 0 0 0 0 0 0 0 0
Nghost:    20434 ave 20434 max 20434 min
Histogram: 1 0 0 0 0 0 0 0 0 0
Neighs:    1.93177e+06 ave 1.93177e+06 max 1.93177e+06 min
Histogram: 1 0 0 0 0 0 0 0 0 0

Total # of neighbors = 1931772
Ave neighs/atom = 98.299
Neighbor list builds = 495
Dangerous builds not checked
Setting up Verlet run ...
  Unit style    : metal
  Current step  : 42496
  Time step     : 0.001
Per MPI rank memory allocation (min/avg/max) = 19.73 | 19.73 | 19.73 Mbytes
Step Temp Press TotEng PotEng Enthalpy Volume 
   42496    2262.1736    793.74931    -72380.76   -78126.887   -72254.274    255310.89 
   42668    2242.4354   -1651.9304   -72459.914   -78155.904   -72723.416    255565.29 
Loop time of 25.1577 on 1 procs for 172 steps with 19652 atoms

Performance: 0.591 ns/day, 40.629 hours/ns, 6.837 timesteps/s
100.0% CPU use with 1 MPI tasks x no OpenMP threads

MPI task timing breakdown:
Section |  min time  |  avg time  |  max time  |%varavg| %total
---------------------------------------------------------------
Pair    | 13.498     | 13.498     | 13.498     |   0.0 | 53.65
Neigh   | 11.304     | 11.304     | 11.304     |   0.0 | 44.93
Comm    | 0.1395     | 0.1395     | 0.1395     |   0.0 |  0.55
Output  | 0.00012302 | 0.00012302 | 0.00012302 |   0.0 |  0.00
Modify  | 0.16949    | 0.16949    | 0.16949    |   0.0 |  0.67
Other   |            | 0.04676    |            |       |  0.19

Nlocal:    19652 ave 19652 max 19652 min
Histogram: 1 0 0 0 0 0 0 0 0 0
Nghost:    20434 ave 20434 max 20434 min
Histogram: 1 0 0 0 0 0 0 0 0 0
Neighs:    1.92965e+06 ave 1.92965e+06 max 1.92965e+06 min
Histogram: 1 0 0 0 0 0 0 0 0 0

Total # of neighbors = 1929651
Ave neighs/atom = 98.1911
Neighbor list builds = 172
Dangerous builds not checked
Setting up Verlet run ...
  Unit style    : metal
  Current step  : 42668
  Time step     : 0.001
Per MPI rank memory allocation (min/avg/max) = 19.73 | 19.73 | 19.73 Mbytes
Step Temp Press TotEng PotEng Enthalpy Volume 
   42668    2242.4354   -1651.9304   -72459.914   -78155.904   -72723.416    255565.29 
   42688     2246.076   -1264.8516   -72459.275   -78164.513   -72661.026    255555.72 
   43163    2206.1465   -733.43616   -72686.519   -78290.332   -72803.113    254697.08 
Loop time of 71.9479 on 1 procs for 495 steps with 19652 atoms

Performance: 0.594 ns/day, 40.375 hours/ns, 6.880 timesteps/s
100.0% CPU use with 1 MPI tasks x no OpenMP threads

MPI task timing breakdown:
Section |  min time  |  avg time  |  max time  |%varavg| %total
---------------------------------------------------------------
Pair    | 38.429     | 38.429     | 38.429     |   0.0 | 53.41
Neigh   | 32.447     | 32.447     | 32.447     |   0.0 | 45.10
Comm    | 0.39794    | 0.39794    | 0.39794    |   0.0 |  0.55
Output  | 0.061138   | 0.061138   | 0.061138   |   0.0 |  0.08
Modify  | 0.47971    | 0.47971    | 0.47971    |   0.0 |  0.67
Other   |            | 0.1339     |            |       |  0.19

Nlocal:    19652 ave 19652 max 19652 min
Histogram: 1 0 0 0 0 0 0 0 0 0
Nghost:    20431 ave 20431 max 20431 min
Histogram: 1 0 0 0 0 0 0 0 0 0
Neighs:    1.93603e+06 ave 1.93603e+06 max 1.93603e+06 min
Histogram: 1 0 0 0 0 0 0 0 0 0

Total # of neighbors = 1936034
Ave neighs/atom = 98.5159
Neighbor list builds = 495
Dangerous builds not checked
Setting up Verlet run ...
  Unit style    : metal
  Current step  : 43163
  Time step     : 0.001
Per MPI rank memory allocation (min/avg/max) = 19.73 | 19.73 | 19.73 Mbytes
Step Temp Press TotEng PotEng Enthalpy Volume 
   43163    2206.1465   -733.43616   -72686.519   -78290.332   -72803.113    254697.08 
   43335    2198.8676    1234.7533   -72778.846    -78364.17   -72582.951    254187.93 
Loop time of 25.8324 on 1 procs for 172 steps with 19652 atoms

Performance: 0.575 ns/day, 41.719 hours/ns, 6.658 timesteps/s
100.0% CPU use with 1 MPI tasks x no OpenMP threads

MPI task timing breakdown:
Section |  min time  |  avg time  |  max time  |%varavg| %total
---------------------------------------------------------------
Pair    | 13.858     | 13.858     | 13.858     |   0.0 | 53.65
Neigh   | 11.608     | 11.608     | 11.608     |   0.0 | 44.94
Comm    | 0.14277    | 0.14277    | 0.14277    |   0.0 |  0.55
Output  | 0.00012708 | 0.00012708 | 0.00012708 |   0.0 |  0.00
Modify  | 0.17435    | 0.17435    | 0.17435    |   0.0 |  0.67
Other   |            | 0.04857    |            |       |  0.19

Nlocal:    19652 ave 19652 max 19652 min
Histogram: 1 0 0 0 0 0 0 0 0 0
Nghost:    20437 ave 20437 max 20437 min
Histogram: 1 0 0 0 0 0 0 0 0 0
Neighs:    1.93954e+06 ave 1.93954e+06 max 1.93954e+06 min
Histogram: 1 0 0 0 0 0 0 0 0 0

Total # of neighbors = 1939538
Ave neighs/atom = 98.6942
Neighbor list builds = 172
Dangerous builds not checked
Setting up Verlet run ...
  Unit style    : metal
  Current step  : 43335
  Time step     : 0.001
Per MPI rank memory allocation (min/avg/max) = 19.73 | 19.73 | 19.73 Mbytes
Step Temp Press TotEng PotEng Enthalpy Volume 
   43335    2198.8676    1234.7533   -72778.846    -78364.17   -72582.951    254187.93 
   43355    2193.2964     1628.867   -72778.087    -78349.26   -72519.654    254198.02 
   43830    2150.2381    1749.5005    -72997.71   -78459.511   -72720.976    253430.31 
Loop time of 72.9088 on 1 procs for 495 steps with 19652 atoms

Performance: 0.587 ns/day, 40.914 hours/ns, 6.789 timesteps/s
100.0% CPU use with 1 MPI tasks x no OpenMP threads

MPI task timing breakdown:
Section |  min time  |  avg time  |  max time  |%varavg| %total
---------------------------------------------------------------
Pair    | 38.941     | 38.941     | 38.941     |   0.0 | 53.41
Neigh   | 32.886     | 32.886     | 32.886     |   0.0 | 45.11
Comm    | 0.40337    | 0.40337    | 0.40337    |   0.0 |  0.55
Output  | 0.066907   | 0.066907   | 0.066907   |   0.0 |  0.09
Modify  | 0.47895    | 0.47895    | 0.47895    |   0.0 |  0.66
Other   |            | 0.1333     |            |       |  0.18

Nlocal:    19652 ave 19652 max 19652 min
Histogram: 1 0 0 0 0 0 0 0 0 0
Nghost:    20484 ave 20484 max 20484 min
Histogram: 1 0 0 0 0 0 0 0 0 0
Neighs:    1.94628e+06 ave 1.94628e+06 max 1.94628e+06 min
Histogram: 1 0 0 0 0 0 0 0 0 0

Total # of neighbors = 1946283
Ave neighs/atom = 99.0374
Neighbor list builds = 495
Dangerous builds not checked
Setting up Verlet run ...
  Unit style    : metal
  Current step  : 43830
  Time step     : 0.001
Per MPI rank memory allocation (min/avg/max) = 19.73 | 19.73 | 19.73 Mbytes
Step Temp Press TotEng PotEng Enthalpy Volume 
   43830    2150.2381    1749.5005    -72997.71   -78459.511   -72720.976    253430.31 
   44002    2144.9676   -1323.6155   -73064.153   -78512.566   -73273.879    253864.19 
Loop time of 24.7528 on 1 procs for 172 steps with 19652 atoms

Performance: 0.600 ns/day, 39.975 hours/ns, 6.949 timesteps/s
100.0% CPU use with 1 MPI tasks x no OpenMP threads

MPI task timing breakdown:
Section |  min time  |  avg time  |  max time  |%varavg| %total
---------------------------------------------------------------
Pair    | 13.268     | 13.268     | 13.268     |   0.0 | 53.60
Neigh   | 11.136     | 11.136     | 11.136     |   0.0 | 44.99
Comm    | 0.13705    | 0.13705    | 0.13705    |   0.0 |  0.55
Output  | 0.0001049  | 0.0001049  | 0.0001049  |   0.0 |  0.00
Modify  | 0.16551    | 0.16551    | 0.16551    |   0.0 |  0.67
Other   |            | 0.04623    |            |       |  0.19

Nlocal:    19652 ave 19652 max 19652 min
Histogram: 1 0 0 0 0 0 0 0 0 0
Nghost:    20534 ave 20534 max 20534 min
Histogram: 1 0 0 0 0 0 0 0 0 0
Neighs:    1.94244e+06 ave 1.94244e+06 max 1.94244e+06 min
Histogram: 1 0 0 0 0 0 0 0 0 0

Total # of neighbors = 1942436
Ave neighs/atom = 98.8416
Neighbor list builds = 172
Dangerous builds not checked
Setting up Verlet run ...
  Unit style    : metal
  Current step  : 44002
  Time step     : 0.001
Per MPI rank memory allocation (min/avg/max) = 19.73 | 19.73 | 19.73 Mbytes
Step Temp Press TotEng PotEng Enthalpy Volume 
   44002    2144.9676   -1323.6155   -73064.153   -78512.566   -73273.879    253864.19 
   44022    2157.4129   -1897.6745   -73064.152   -78544.177   -73364.826    253854.53 
   44497    2126.7587   -1042.9781   -73309.972   -78712.133   -73474.573       252853 
Loop time of 72.1022 on 1 procs for 495 steps with 19652 atoms

Performance: 0.593 ns/day, 40.461 hours/ns, 6.865 timesteps/s
100.0% CPU use with 1 MPI tasks x no OpenMP threads

MPI task timing breakdown:
Section |  min time  |  avg time  |  max time  |%varavg| %total
---------------------------------------------------------------
Pair    | 38.432     | 38.432     | 38.432     |   0.0 | 53.30
Neigh   | 32.61      | 32.61      | 32.61      |   0.0 | 45.23
Comm    | 0.3899     | 0.3899     | 0.3899     |   0.0 |  0.54
Output  | 0.063293   | 0.063293   | 0.063293   |   0.0 |  0.09
Modify  | 0.47465    | 0.47465    | 0.47465    |   0.0 |  0.66
Other   |            | 0.1323     |            |       |  0.18

Nlocal:    19652 ave 19652 max 19652 min
Histogram: 1 0 0 0 0 0 0 0 0 0
Nghost:    20462 ave 20462 max 20462 min
Histogram: 1 0 0 0 0 0 0 0 0 0
Neighs:    1.95033e+06 ave 1.95033e+06 max 1.95033e+06 min
Histogram: 1 0 0 0 0 0 0 0 0 0

Total # of neighbors = 1950334
Ave neighs/atom = 99.2435
Neighbor list builds = 495
Dangerous builds not checked
Setting up Verlet run ...
  Unit style    : metal
  Current step  : 44497
  Time step     : 0.001
Per MPI rank memory allocation (min/avg/max) = 19.73 | 19.73 | 19.73 Mbytes
Step Temp Press TotEng PotEng Enthalpy Volume 
   44497    2126.7587   -1042.9781   -73309.972   -78712.133   -73474.573       252853 
   44669    2091.8392   -106.50766   -73397.724   -78711.186   -73414.519    252645.61 
Loop time of 24.6177 on 1 procs for 172 steps with 19652 atoms

Performance: 0.604 ns/day, 39.757 hours/ns, 6.987 timesteps/s
100.0% CPU use with 1 MPI tasks x no OpenMP threads

MPI task timing breakdown:
Section |  min time  |  avg time  |  max time  |%varavg| %total
---------------------------------------------------------------
Pair    | 13.191     | 13.191     | 13.191     |   0.0 | 53.58
Neigh   | 11.083     | 11.083     | 11.083     |   0.0 | 45.02
Comm    | 0.13244    | 0.13244    | 0.13244    |   0.0 |  0.54
Output  | 0.00012398 | 0.00012398 | 0.00012398 |   0.0 |  0.00
Modify  | 0.16487    | 0.16487    | 0.16487    |   0.0 |  0.67
Other   |            | 0.04593    |            |       |  0.19

Nlocal:    19652 ave 19652 max 19652 min
Histogram: 1 0 0 0 0 0 0 0 0 0
Nghost:    20512 ave 20512 max 20512 min
Histogram: 1 0 0 0 0 0 0 0 0 0
Neighs:    1.95209e+06 ave 1.95209e+06 max 1.95209e+06 min
Histogram: 1 0 0 0 0 0 0 0 0 0

Total # of neighbors = 1952089
Ave neighs/atom = 99.3328
Neighbor list builds = 172
Dangerous builds not checked
Setting up Verlet run ...
  Unit style    : metal
  Current step  : 44669
  Time step     : 0.001
Per MPI rank memory allocation (min/avg/max) = 19.73 | 19.73 | 19.73 Mbytes
Step Temp Press TotEng PotEng Enthalpy Volume 
   44669    2091.8392   -106.50766   -73397.724   -78711.186   -73414.519    252645.61 
   44689     2079.266    736.09105    -73396.35   -78677.875   -73280.276    252647.13 
   45164    2064.5408    -1069.858   -73623.331   -78867.452   -73791.589    251977.32 
Loop time of 76.7703 on 1 procs for 495 steps with 19652 atoms

Performance: 0.557 ns/day, 43.081 hours/ns, 6.448 timesteps/s
100.0% CPU use with 1 MPI tasks x no OpenMP threads

MPI task timing breakdown:
Section |  min time  |  avg time  |  max time  |%varavg| %total
---------------------------------------------------------------
Pair    | 41.464     | 41.464     | 41.464     |   0.0 | 54.01
Neigh   | 34.146     | 34.146     | 34.146     |   0.0 | 44.48
Comm    | 0.43099    | 0.43099    | 0.43099    |   0.0 |  0.56
Output  | 0.054365   | 0.054365   | 0.054365   |   0.0 |  0.07
Modify  | 0.51621    | 0.51621    | 0.51621    |   0.0 |  0.67
Other   |            | 0.1588     |            |       |  0.21

Nlocal:    19652 ave 19652 max 19652 min
Histogram: 1 0 0 0 0 0 0 0 0 0
Nghost:    20577 ave 20577 max 20577 min
Histogram: 1 0 0 0 0 0 0 0 0 0
Neighs:    1.95666e+06 ave 1.95666e+06 max 1.95666e+06 min
Histogram: 1 0 0 0 0 0 0 0 0 0

Total # of neighbors = 1956664
Ave neighs/atom = 99.5656
Neighbor list builds = 495
Dangerous builds not checked
Setting up Verlet run ...
  Unit style    : metal
  Current step  : 45164
  Time step     : 0.001
Per MPI rank memory allocation (min/avg/max) = 19.73 | 19.73 | 19.73 Mbytes
Step Temp Press TotEng PotEng Enthalpy Volume 
   45164    2064.5408    -1069.858   -73623.331   -78867.452   -73791.589    251977.32 
   45336    2054.2513   -536.19684    -73693.56   -78911.545   -73777.808     251736.7 
Loop time of 25.0562 on 1 procs for 172 steps with 19652 atoms

Performance: 0.593 ns/day, 40.465 hours/ns, 6.865 timesteps/s
100.0% CPU use with 1 MPI tasks x no OpenMP threads

MPI task timing breakdown:
Section |  min time  |  avg time  |  max time  |%varavg| %total
---------------------------------------------------------------
Pair    | 13.504     | 13.504     | 13.504     |   0.0 | 53.90
Neigh   | 11.188     | 11.188     | 11.188     |   0.0 | 44.65
Comm    | 0.1407     | 0.1407     | 0.1407     |   0.0 |  0.56
Output  | 0.00014186 | 0.00014186 | 0.00014186 |   0.0 |  0.00
Modify  | 0.16933    | 0.16933    | 0.16933    |   0.0 |  0.68
Other   |            | 0.05334    |            |       |  0.21

Nlocal:    19652 ave 19652 max 19652 min
Histogram: 1 0 0 0 0 0 0 0 0 0
Nghost:    20577 ave 20577 max 20577 min
Histogram: 1 0 0 0 0 0 0 0 0 0
Neighs:    1.95924e+06 ave 1.95924e+06 max 1.95924e+06 min
Histogram: 1 0 0 0 0 0 0 0 0 0

Total # of neighbors = 1959235
Ave neighs/atom = 99.6965
Neighbor list builds = 172
Dangerous builds not checked
Setting up Verlet run ...
  Unit style    : metal
  Current step  : 45336
  Time step     : 0.001
Per MPI rank memory allocation (min/avg/max) = 19.73 | 19.73 | 19.73 Mbytes
Step Temp Press TotEng PotEng Enthalpy Volume 
   45336    2054.2513   -536.19684    -73693.56   -78911.545   -73777.808     251736.7 
   45356    2047.3558    40.380162     -73693.4    -78893.87   -73687.055    251735.37 
   45831    2014.9398    967.58841   -73946.683   -79064.814   -73795.323    250628.49 
Loop time of 76.0016 on 1 procs for 495 steps with 19652 atoms

Performance: 0.563 ns/day, 42.650 hours/ns, 6.513 timesteps/s
100.0% CPU use with 1 MPI tasks x no OpenMP threads

MPI task timing breakdown:
Section |  min time  |  avg time  |  max time  |%varavg| %total
---------------------------------------------------------------
Pair    | 41.009     | 41.009     | 41.009     |   0.0 | 53.96
Neigh   | 33.843     | 33.843     | 33.843     |   0.0 | 44.53
Comm    | 0.42816    | 0.42816    | 0.42816    |   0.0 |  0.56
Output  | 0.061301   | 0.061301   | 0.061301   |   0.0 |  0.08
Modify  | 0.50416    | 0.50416    | 0.50416    |   0.0 |  0.66
Other   |            | 0.1565     |            |       |  0.21

Nlocal:    19652 ave 19652 max 19652 min
Histogram: 1 0 0 0 0 0 0 0 0 0
Nghost:    20533 ave 20533 max 20533 min
Histogram: 1 0 0 0 0 0 0 0 0 0
Neighs:    1.96679e+06 ave 1.96679e+06 max 1.96679e+06 min
Histogram: 1 0 0 0 0 0 0 0 0 0

Total # of neighbors = 1966787
Ave neighs/atom = 100.081
Neighbor list builds = 495
Dangerous builds not checked
Setting up Verlet run ...
  Unit style    : metal
  Current step  : 45831
  Time step     : 0.001
Per MPI rank memory allocation (min/avg/max) = 19.73 | 19.73 | 19.73 Mbytes
Step Temp Press TotEng PotEng Enthalpy Volume 
   45831    2014.9398    967.58841   -73946.683   -79064.814   -73795.323    250628.49 
   46003     1994.108   -1784.9977   -74023.213   -79088.429   -74302.841    250988.21 
Loop time of 27.4694 on 1 procs for 172 steps with 19652 atoms

Performance: 0.541 ns/day, 44.363 hours/ns, 6.262 timesteps/s
99.9% CPU use with 1 MPI tasks x no OpenMP threads

MPI task timing breakdown:
Section |  min time  |  avg time  |  max time  |%varavg| %total
---------------------------------------------------------------
Pair    | 14.897     | 14.897     | 14.897     |   0.0 | 54.23
Neigh   | 12.175     | 12.175     | 12.175     |   0.0 | 44.32
Comm    | 0.15445    | 0.15445    | 0.15445    |   0.0 |  0.56
Output  | 0.00014114 | 0.00014114 | 0.00014114 |   0.0 |  0.00
Modify  | 0.18599    | 0.18599    | 0.18599    |   0.0 |  0.68
Other   |            | 0.05712    |            |       |  0.21

Nlocal:    19652 ave 19652 max 19652 min
Histogram: 1 0 0 0 0 0 0 0 0 0
Nghost:    20569 ave 20569 max 20569 min
Histogram: 1 0 0 0 0 0 0 0 0 0
Neighs:    1.96414e+06 ave 1.96414e+06 max 1.96414e+06 min
Histogram: 1 0 0 0 0 0 0 0 0 0

Total # of neighbors = 1964144
Ave neighs/atom = 99.9463
Neighbor list builds = 172
Dangerous builds not checked
Setting up Verlet run ...
  Unit style    : metal
  Current step  : 46003
  Time step     : 0.001
Per MPI rank memory allocation (min/avg/max) = 19.73 | 19.73 | 19.73 Mbytes
Step Temp Press TotEng PotEng Enthalpy Volume 
   46003     1994.108   -1784.9977   -74023.213   -79088.429   -74302.841    250988.21 
   46023    2001.0453   -1846.1317   -74022.846   -79105.684   -74312.037    250975.66 
   46498    1952.1837    -213.2665   -74228.725    -79187.45   -74262.042    250292.22 
Loop time of 91.225 on 1 procs for 495 steps with 19652 atoms

Performance: 0.469 ns/day, 51.192 hours/ns, 5.426 timesteps/s
96.4% CPU use with 1 MPI tasks x no OpenMP threads

MPI task timing breakdown:
Section |  min time  |  avg time  |  max time  |%varavg| %total
---------------------------------------------------------------
Pair    | 47.998     | 47.998     | 47.998     |   0.0 | 52.61
Neigh   | 38.701     | 38.701     | 38.701     |   0.0 | 42.42
Comm    | 0.49325    | 0.49325    | 0.49325    |   0.0 |  0.54
Output  | 3.2745     | 3.2745     | 3.2745     |   0.0 |  3.59
Modify  | 0.58197    | 0.58197    | 0.58197    |   0.0 |  0.64
Other   |            | 0.1768     |            |       |  0.19

Nlocal:    19652 ave 19652 max 19652 min
Histogram: 1 0 0 0 0 0 0 0 0 0
Nghost:    20541 ave 20541 max 20541 min
Histogram: 1 0 0 0 0 0 0 0 0 0
Neighs:    1.96999e+06 ave 1.96999e+06 max 1.96999e+06 min
Histogram: 1 0 0 0 0 0 0 0 0 0

Total # of neighbors = 1969991
Ave neighs/atom = 100.244
Neighbor list builds = 495
Dangerous builds not checked
Setting up Verlet run ...
  Unit style    : metal
  Current step  : 46498
  Time step     : 0.001
Per MPI rank memory allocation (min/avg/max) = 19.73 | 19.73 | 19.73 Mbytes
Step Temp Press TotEng PotEng Enthalpy Volume 
   46498    1952.1837    -213.2665   -74228.725    -79187.45   -74262.042    250292.22 
   46670    1935.7277      566.498   -74312.343   -79229.267    -74223.97    249936.55 
Loop time of 26.7912 on 1 procs for 172 steps with 19652 atoms

Performance: 0.555 ns/day, 43.267 hours/ns, 6.420 timesteps/s
100.0% CPU use with 1 MPI tasks x no OpenMP threads

MPI task timing breakdown:
Section |  min time  |  avg time  |  max time  |%varavg| %total
---------------------------------------------------------------
Pair    | 14.568     | 14.568     | 14.568     |   0.0 | 54.38
Neigh   | 11.832     | 11.832     | 11.832     |   0.0 | 44.17
Comm    | 0.15333    | 0.15333    | 0.15333    |   0.0 |  0.57
Output  | 0.00017595 | 0.00017595 | 0.00017595 |   0.0 |  0.00
Modify  | 0.18099    | 0.18099    | 0.18099    |   0.0 |  0.68
Other   |            | 0.05601    |            |       |  0.21

Nlocal:    19652 ave 19652 max 19652 min
Histogram: 1 0 0 0 0 0 0 0 0 0
Nghost:    20646 ave 20646 max 20646 min
Histogram: 1 0 0 0 0 0 0 0 0 0
Neighs:    1.97267e+06 ave 1.97267e+06 max 1.97267e+06 min
Histogram: 1 0 0 0 0 0 0 0 0 0

Total # of neighbors = 1972668
Ave neighs/atom = 100.38
Neighbor list builds = 172
Dangerous builds not checked
Setting up Verlet run ...
  Unit style    : metal
  Current step  : 46670
  Time step     : 0.001
Per MPI rank memory allocation (min/avg/max) = 19.73 | 19.73 | 19.73 Mbytes
Step Temp Press TotEng PotEng Enthalpy Volume 
   46670    1935.7277      566.498   -74312.343   -79229.267    -74223.97    249936.55 
   46690    1943.6502   -6.1362934   -74311.084   -79248.133   -74312.041    249939.66 
   47165     1916.438   -1482.4197   -74560.695   -79428.622   -74791.361    249300.17 
Loop time of 77.8318 on 1 procs for 495 steps with 19652 atoms

Performance: 0.549 ns/day, 43.677 hours/ns, 6.360 timesteps/s
99.3% CPU use with 1 MPI tasks x no OpenMP threads

MPI task timing breakdown:
Section |  min time  |  avg time  |  max time  |%varavg| %total
---------------------------------------------------------------
Pair    | 41.995     | 41.995     | 41.995     |   0.0 | 53.96
Neigh   | 34.318     | 34.318     | 34.318     |   0.0 | 44.09
Comm    | 0.42981    | 0.42981    | 0.42981    |   0.0 |  0.55
Output  | 0.42342    | 0.42342    | 0.42342    |   0.0 |  0.54
Modify  | 0.51612    | 0.51612    | 0.51612    |   0.0 |  0.66
Other   |            | 0.1502     |            |       |  0.19

Nlocal:    19652 ave 19652 max 19652 min
Histogram: 1 0 0 0 0 0 0 0 0 0
Nghost:    20699 ave 20699 max 20699 min
Histogram: 1 0 0 0 0 0 0 0 0 0
Neighs:    1.97768e+06 ave 1.97768e+06 max 1.97768e+06 min
Histogram: 1 0 0 0 0 0 0 0 0 0

Total # of neighbors = 1977683
Ave neighs/atom = 100.635
Neighbor list builds = 495
Dangerous builds not checked
Setting up Verlet run ...
  Unit style    : metal
  Current step  : 47165
  Time step     : 0.001
Per MPI rank memory allocation (min/avg/max) = 19.73 | 19.73 | 19.73 Mbytes
Step Temp Press TotEng PotEng Enthalpy Volume 
   47165     1916.438   -1482.4197   -74560.695   -79428.622   -74791.361    249300.17 
   47337    1911.0789   -113.20597     -74629.1   -79483.414    -74646.69    248957.27 
Loop time of 25.1413 on 1 procs for 172 steps with 19652 atoms

Performance: 0.591 ns/day, 40.603 hours/ns, 6.841 timesteps/s
100.0% CPU use with 1 MPI tasks x no OpenMP threads

MPI task timing breakdown:
Section |  min time  |  avg time  |  max time  |%varavg| %total
---------------------------------------------------------------
Pair    | 13.534     | 13.534     | 13.534     |   0.0 | 53.83
Neigh   | 11.258     | 11.258     | 11.258     |   0.0 | 44.78
Comm    | 0.135      | 0.135      | 0.135      |   0.0 |  0.54
Output  | 0.00012994 | 0.00012994 | 0.00012994 |   0.0 |  0.00
Modify  | 0.16744    | 0.16744    | 0.16744    |   0.0 |  0.67
Other   |            | 0.04664    |            |       |  0.19

Nlocal:    19652 ave 19652 max 19652 min
Histogram: 1 0 0 0 0 0 0 0 0 0
Nghost:    20653 ave 20653 max 20653 min
Histogram: 1 0 0 0 0 0 0 0 0 0
Neighs:    1.98088e+06 ave 1.98088e+06 max 1.98088e+06 min
Histogram: 1 0 0 0 0 0 0 0 0 0

Total # of neighbors = 1980882
Ave neighs/atom = 100.798
Neighbor list builds = 172
Dangerous builds not checked
Setting up Verlet run ...
  Unit style    : metal
  Current step  : 47337
  Time step     : 0.001
Per MPI rank memory allocation (min/avg/max) = 19.73 | 19.73 | 19.73 Mbytes
Step Temp Press TotEng PotEng Enthalpy Volume 
   47337    1911.0789   -113.20597     -74629.1   -79483.414    -74646.69    248957.27 
   47357    1904.1165    171.93593   -74630.159   -79466.788   -74603.442     248957.1 
   47832    1865.0293   -793.41592   -74866.146   -79603.491   -74989.169    248425.19 
Loop time of 75.6844 on 1 procs for 495 steps with 19652 atoms

Performance: 0.565 ns/day, 42.472 hours/ns, 6.540 timesteps/s
99.2% CPU use with 1 MPI tasks x no OpenMP threads

MPI task timing breakdown:
Section |  min time  |  avg time  |  max time  |%varavg| %total
---------------------------------------------------------------
Pair    | 40.521     | 40.521     | 40.521     |   0.0 | 53.54
Neigh   | 33.607     | 33.607     | 33.607     |   0.0 | 44.40
Comm    | 0.40555    | 0.40555    | 0.40555    |   0.0 |  0.54
Output  | 0.51996    | 0.51996    | 0.51996    |   0.0 |  0.69
Modify  | 0.49329    | 0.49329    | 0.49329    |   0.0 |  0.65
Other   |            | 0.138      |            |       |  0.18

Nlocal:    19652 ave 19652 max 19652 min
Histogram: 1 0 0 0 0 0 0 0 0 0
Nghost:    20586 ave 20586 max 20586 min
Histogram: 1 0 0 0 0 0 0 0 0 0
Neighs:    1.98371e+06 ave 1.98371e+06 max 1.98371e+06 min
Histogram: 1 0 0 0 0 0 0 0 0 0

Total # of neighbors = 1983706
Ave neighs/atom = 100.942
Neighbor list builds = 495
Dangerous builds not checked
Setting up Verlet run ...
  Unit style    : metal
  Current step  : 47832
  Time step     : 0.001
Per MPI rank memory allocation (min/avg/max) = 19.73 | 19.73 | 19.73 Mbytes
Step Temp Press TotEng PotEng Enthalpy Volume 
   47832    1865.0293   -793.41592   -74866.146   -79603.491   -74989.169    248425.19 
   48004     1844.128   -755.13264   -74950.544   -79634.797   -75067.502    248150.54 
Loop time of 25.2338 on 1 procs for 172 steps with 19652 atoms

Performance: 0.589 ns/day, 40.752 hours/ns, 6.816 timesteps/s
100.0% CPU use with 1 MPI tasks x no OpenMP threads

MPI task timing breakdown:
Section |  min time  |  avg time  |  max time  |%varavg| %total
---------------------------------------------------------------
Pair    | 13.618     | 13.618     | 13.618     |   0.0 | 53.97
Neigh   | 11.263     | 11.263     | 11.263     |   0.0 | 44.64
Comm    | 0.13656    | 0.13656    | 0.13656    |   0.0 |  0.54
Output  | 0.00012016 | 0.00012016 | 0.00012016 |   0.0 |  0.00
Modify  | 0.16881    | 0.16881    | 0.16881    |   0.0 |  0.67
Other   |            | 0.04723    |            |       |  0.19

Nlocal:    19652 ave 19652 max 19652 min
Histogram: 1 0 0 0 0 0 0 0 0 0
Nghost:    20599 ave 20599 max 20599 min
Histogram: 1 0 0 0 0 0 0 0 0 0
Neighs:    1.98652e+06 ave 1.98652e+06 max 1.98652e+06 min
Histogram: 1 0 0 0 0 0 0 0 0 0

Total # of neighbors = 1986516
Ave neighs/atom = 101.085
Neighbor list builds = 172
Dangerous builds not checked
Setting up Verlet run ...
  Unit style    : metal
  Current step  : 48004
  Time step     : 0.001
Per MPI rank memory allocation (min/avg/max) = 19.73 | 19.73 | 19.73 Mbytes
Step Temp Press TotEng PotEng Enthalpy Volume 
   48004     1844.128   -755.13264   -74950.544   -79634.797   -75067.502    248150.54 
   48024    1856.4889   -1153.2912   -74950.366   -79666.017   -75128.987    248144.25 
   48499    1817.4761   -1046.4495   -75193.004   -79809.559   -75354.645    247481.91 
Loop time of 88.1862 on 1 procs for 495 steps with 19652 atoms

Performance: 0.485 ns/day, 49.487 hours/ns, 5.613 timesteps/s
93.4% CPU use with 1 MPI tasks x no OpenMP threads

MPI task timing breakdown:
Section |  min time  |  avg time  |  max time  |%varavg| %total
---------------------------------------------------------------
Pair    | 44.822     | 44.822     | 44.822     |   0.0 | 50.83
Neigh   | 36.674     | 36.674     | 36.674     |   0.0 | 41.59
Comm    | 0.4522     | 0.4522     | 0.4522     |   0.0 |  0.51
Output  | 5.5368     | 5.5368     | 5.5368     |   0.0 |  6.28
Modify  | 0.54816    | 0.54816    | 0.54816    |   0.0 |  0.62
Other   |            | 0.153      |            |       |  0.17

Nlocal:    19652 ave 19652 max 19652 min
Histogram: 1 0 0 0 0 0 0 0 0 0
Nghost:    20720 ave 20720 max 20720 min
Histogram: 1 0 0 0 0 0 0 0 0 0
Neighs:    1.99202e+06 ave 1.99202e+06 max 1.99202e+06 min
Histogram: 1 0 0 0 0 0 0 0 0 0

Total # of neighbors = 1992023
Ave neighs/atom = 101.365
Neighbor list builds = 495
Dangerous builds not checked
Setting up Verlet run ...
  Unit style    : metal
  Current step  : 48499
  Time step     : 0.001
Per MPI rank memory allocation (min/avg/max) = 19.73 | 19.73 | 19.73 Mbytes
Step Temp Press TotEng PotEng Enthalpy Volume 
   48499    1817.4761   -1046.4495   -75193.004   -79809.559   -75354.645    247481.91 
   48671    1811.4391   -324.52615   -75278.938   -79880.158   -75328.976    247039.01 
Loop time of 26.3758 on 1 procs for 172 steps with 19652 atoms

Performance: 0.563 ns/day, 42.597 hours/ns, 6.521 timesteps/s
99.8% CPU use with 1 MPI tasks x no OpenMP threads

MPI task timing breakdown:
Section |  min time  |  avg time  |  max time  |%varavg| %total
---------------------------------------------------------------
Pair    | 14.332     | 14.332     | 14.332     |   0.0 | 54.34
Neigh   | 11.676     | 11.676     | 11.676     |   0.0 | 44.27
Comm    | 0.14345    | 0.14345    | 0.14345    |   0.0 |  0.54
Output  | 0.00013709 | 0.00013709 | 0.00013709 |   0.0 |  0.00
Modify  | 0.17514    | 0.17514    | 0.17514    |   0.0 |  0.66
Other   |            | 0.04902    |            |       |  0.19

Nlocal:    19652 ave 19652 max 19652 min
Histogram: 1 0 0 0 0 0 0 0 0 0
Nghost:    20750 ave 20750 max 20750 min
Histogram: 1 0 0 0 0 0 0 0 0 0
Neighs:    1.99533e+06 ave 1.99533e+06 max 1.99533e+06 min
Histogram: 1 0 0 0 0 0 0 0 0 0

Total # of neighbors = 1995330
Ave neighs/atom = 101.533
Neighbor list builds = 172
Dangerous builds not checked
Setting up Verlet run ...
  Unit style    : metal
  Current step  : 48671
  Time step     : 0.001
Per MPI rank memory allocation (min/avg/max) = 19.73 | 19.73 | 19.73 Mbytes
Step Temp Press TotEng PotEng Enthalpy Volume 
   48671    1811.4391   -324.52615   -75278.938   -79880.158   -75328.976    247039.01 
   48691    1804.4741   -280.99291   -75279.924   -79863.453    -75323.25    247036.66 
   49166    1767.6076    651.79059   -75523.546    -80013.43   -75423.345    246306.23 
Loop time of 79.3408 on 1 procs for 495 steps with 19652 atoms

Performance: 0.539 ns/day, 44.523 hours/ns, 6.239 timesteps/s
99.7% CPU use with 1 MPI tasks x no OpenMP threads

MPI task timing breakdown:
Section |  min time  |  avg time  |  max time  |%varavg| %total
---------------------------------------------------------------
Pair    | 42.989     | 42.989     | 42.989     |   0.0 | 54.18
Neigh   | 35.05      | 35.05      | 35.05      |   0.0 | 44.18
Comm    | 0.43041    | 0.43041    | 0.43041    |   0.0 |  0.54
Output  | 0.19402    | 0.19402    | 0.19402    |   0.0 |  0.24
Modify  | 0.5308     | 0.5308     | 0.5308     |   0.0 |  0.67
Other   |            | 0.1467     |            |       |  0.18

Nlocal:    19652 ave 19652 max 19652 min
Histogram: 1 0 0 0 0 0 0 0 0 0
Nghost:    20679 ave 20679 max 20679 min
Histogram: 1 0 0 0 0 0 0 0 0 0
Neighs:    2.00208e+06 ave 2.00208e+06 max 2.00208e+06 min
Histogram: 1 0 0 0 0 0 0 0 0 0

Total # of neighbors = 2002081
Ave neighs/atom = 101.877
Neighbor list builds = 495
Dangerous builds not checked
Setting up Verlet run ...
  Unit style    : metal
  Current step  : 49166
  Time step     : 0.001
Per MPI rank memory allocation (min/avg/max) = 19.73 | 19.73 | 19.73 Mbytes
Step Temp Press TotEng PotEng Enthalpy Volume 
   49166    1767.6076    651.79059   -75523.546    -80013.43   -75423.345    246306.23 
   49338    1760.3736   -1040.4084   -75600.775   -80072.284   -75760.744    246345.35 
Loop time of 25.1171 on 1 procs for 172 steps with 19652 atoms

Performance: 0.592 ns/day, 40.564 hours/ns, 6.848 timesteps/s
100.0% CPU use with 1 MPI tasks x no OpenMP threads

MPI task timing breakdown:
Section |  min time  |  avg time  |  max time  |%varavg| %total
---------------------------------------------------------------
Pair    | 13.602     | 13.602     | 13.602     |   0.0 | 54.16
Neigh   | 11.167     | 11.167     | 11.167     |   0.0 | 44.46
Comm    | 0.13518    | 0.13518    | 0.13518    |   0.0 |  0.54
Output  | 0.00012898 | 0.00012898 | 0.00012898 |   0.0 |  0.00
Modify  | 0.16632    | 0.16632    | 0.16632    |   0.0 |  0.66
Other   |            | 0.04666    |            |       |  0.19

Nlocal:    19652 ave 19652 max 19652 min
Histogram: 1 0 0 0 0 0 0 0 0 0
Nghost:    20681 ave 20681 max 20681 min
Histogram: 1 0 0 0 0 0 0 0 0 0
Neighs:    2.00155e+06 ave 2.00155e+06 max 2.00155e+06 min
Histogram: 1 0 0 0 0 0 0 0 0 0

Total # of neighbors = 2001546
Ave neighs/atom = 101.849
Neighbor list builds = 172
Dangerous builds not checked
Setting up Verlet run ...
  Unit style    : metal
  Current step  : 49338
  Time step     : 0.001
Per MPI rank memory allocation (min/avg/max) = 19.73 | 19.73 | 19.73 Mbytes
Step Temp Press TotEng PotEng Enthalpy Volume 
   49338    1760.3736   -1040.4084   -75600.775   -80072.284   -75760.744    246345.35 
   49358    1755.9281   -1074.0003   -75601.692    -80061.91   -75766.821    246337.25 
   49833    1707.6783     -1251.61   -75852.485   -80190.143   -76044.409    245681.02 
Loop time of 78.1138 on 1 procs for 495 steps with 19652 atoms

Performance: 0.548 ns/day, 43.835 hours/ns, 6.337 timesteps/s
99.3% CPU use with 1 MPI tasks x no OpenMP threads

MPI task timing breakdown:
Section |  min time  |  avg time  |  max time  |%varavg| %total
---------------------------------------------------------------
Pair    | 42.339     | 42.339     | 42.339     |   0.0 | 54.20
Neigh   | 34.519     | 34.519     | 34.519     |   0.0 | 44.19
Comm    | 0.42164    | 0.42164    | 0.42164    |   0.0 |  0.54
Output  | 0.17804    | 0.17804    | 0.17804    |   0.0 |  0.23
Modify  | 0.51208    | 0.51208    | 0.51208    |   0.0 |  0.66
Other   |            | 0.144      |            |       |  0.18

Nlocal:    19652 ave 19652 max 19652 min
Histogram: 1 0 0 0 0 0 0 0 0 0
Nghost:    20769 ave 20769 max 20769 min
Histogram: 1 0 0 0 0 0 0 0 0 0
Neighs:    2.00607e+06 ave 2.00607e+06 max 2.00607e+06 min
Histogram: 1 0 0 0 0 0 0 0 0 0

Total # of neighbors = 2006073
Ave neighs/atom = 102.08
Neighbor list builds = 495
Dangerous builds not checked
Setting up Verlet run ...
  Unit style    : metal
  Current step  : 49833
  Time step     : 0.001
Per MPI rank memory allocation (min/avg/max) = 19.73 | 19.73 | 19.73 Mbytes
Step Temp Press TotEng PotEng Enthalpy Volume 
   49833    1707.6783     -1251.61   -75852.485   -80190.143   -76044.409    245681.02 
   50005    1704.9573    537.73483   -75930.789   -80261.536   -75848.541    245056.14 
Loop time of 29.4555 on 1 procs for 172 steps with 19652 atoms

Performance: 0.505 ns/day, 47.570 hours/ns, 5.839 timesteps/s
99.9% CPU use with 1 MPI tasks x no OpenMP threads

MPI task timing breakdown:
Section |  min time  |  avg time  |  max time  |%varavg| %total
---------------------------------------------------------------
Pair    | 16.186     | 16.186     | 16.186     |   0.0 | 54.95
Neigh   | 12.846     | 12.846     | 12.846     |   0.0 | 43.61
Comm    | 0.1669     | 0.1669     | 0.1669     |   0.0 |  0.57
Output  | 0.00012612 | 0.00012612 | 0.00012612 |   0.0 |  0.00
Modify  | 0.19684    | 0.19684    | 0.19684    |   0.0 |  0.67
Other   |            | 0.05998    |            |       |  0.20

Nlocal:    19652 ave 19652 max 19652 min
Histogram: 1 0 0 0 0 0 0 0 0 0
Nghost:    20715 ave 20715 max 20715 min
Histogram: 1 0 0 0 0 0 0 0 0 0
Neighs:    2.01177e+06 ave 2.01177e+06 max 2.01177e+06 min
Histogram: 1 0 0 0 0 0 0 0 0 0

Total # of neighbors = 2011771
Ave neighs/atom = 102.37
Neighbor list builds = 172
Dangerous builds not checked
Setting up Verlet run ...
  Unit style    : metal
  Current step  : 50005
  Time step     : 0.001
Per MPI rank memory allocation (min/avg/max) = 19.73 | 19.73 | 19.73 Mbytes
Step Temp Press TotEng PotEng Enthalpy Volume 
   50005    1704.9573    537.73483   -75930.789   -80261.536   -75848.541    245056.14 
   50025    1704.3968    783.10577   -75931.428   -80260.751   -75811.648     245060.5 
   50500    1657.6295    1871.4362   -76193.443   -80403.973   -75908.082     244303.6 
Loop time of 79.6622 on 1 procs for 495 steps with 19652 atoms

Performance: 0.537 ns/day, 44.704 hours/ns, 6.214 timesteps/s
100.0% CPU use with 1 MPI tasks x no OpenMP threads

MPI task timing breakdown:
Section |  min time  |  avg time  |  max time  |%varavg| %total
---------------------------------------------------------------
Pair    | 43.52      | 43.52      | 43.52      |   0.0 | 54.63
Neigh   | 34.956     | 34.956     | 34.956     |   0.0 | 43.88
Comm    | 0.44433    | 0.44433    | 0.44433    |   0.0 |  0.56
Output  | 0.058877   | 0.058877   | 0.058877   |   0.0 |  0.07
Modify  | 0.52119    | 0.52119    | 0.52119    |   0.0 |  0.65
Other   |            | 0.1623     |            |       |  0.20

Nlocal:    19652 ave 19652 max 19652 min
Histogram: 1 0 0 0 0 0 0 0 0 0
Nghost:    20830 ave 20830 max 20830 min
Histogram: 1 0 0 0 0 0 0 0 0 0
Neighs:    2.01874e+06 ave 2.01874e+06 max 2.01874e+06 min
Histogram: 1 0 0 0 0 0 0 0 0 0

Total # of neighbors = 2018741
Ave neighs/atom = 102.724
Neighbor list builds = 495
Dangerous builds not checked
Setting up Verlet run ...
  Unit style    : metal
  Current step  : 50500
  Time step     : 0.001
Per MPI rank memory allocation (min/avg/max) = 19.73 | 19.73 | 19.73 Mbytes
Step Temp Press TotEng PotEng Enthalpy Volume 
   50500    1657.6295    1871.4362   -76193.443   -80403.973   -75908.082     244303.6 
   50672     1658.937   -1718.6465   -76269.444   -80483.295   -76531.747    244527.17 
Loop time of 25.7793 on 1 procs for 172 steps with 19652 atoms

Performance: 0.576 ns/day, 41.633 hours/ns, 6.672 timesteps/s
100.0% CPU use with 1 MPI tasks x no OpenMP threads

MPI task timing breakdown:
Section |  min time  |  avg time  |  max time  |%varavg| %total
---------------------------------------------------------------
Pair    | 14.065     | 14.065     | 14.065     |   0.0 | 54.56
Neigh   | 11.343     | 11.343     | 11.343     |   0.0 | 44.00
Comm    | 0.14545    | 0.14545    | 0.14545    |   0.0 |  0.56
Output  | 0.00014186 | 0.00014186 | 0.00014186 |   0.0 |  0.00
Modify  | 0.17155    | 0.17155    | 0.17155    |   0.0 |  0.67
Other   |            | 0.05369    |            |       |  0.21

Nlocal:    19652 ave 19652 max 19652 min
Histogram: 1 0 0 0 0 0 0 0 0 0
Nghost:    20793 ave 20793 max 20793 min
Histogram: 1 0 0 0 0 0 0 0 0 0
Neighs:    2.01573e+06 ave 2.01573e+06 max 2.01573e+06 min
Histogram: 1 0 0 0 0 0 0 0 0 0

Total # of neighbors = 2015726
Ave neighs/atom = 102.571
Neighbor list builds = 172
Dangerous builds not checked
Setting up Verlet run ...
  Unit style    : metal
  Current step  : 50672
  Time step     : 0.001
Per MPI rank memory allocation (min/avg/max) = 19.73 | 19.73 | 19.73 Mbytes
Step Temp Press TotEng PotEng Enthalpy Volume 
   50672     1658.937   -1718.6465   -76269.444   -80483.295   -76531.747    244527.17 
   50692    1641.9054   -933.71013   -76269.642   -80440.232    -76412.14    244516.45 
   51167    1625.5111   -526.11092   -76533.936   -80662.883   -76613.902    243520.07 
Loop time of 87.8283 on 1 procs for 495 steps with 19652 atoms

Performance: 0.487 ns/day, 49.286 hours/ns, 5.636 timesteps/s
96.0% CPU use with 1 MPI tasks x no OpenMP threads

MPI task timing breakdown:
Section |  min time  |  avg time  |  max time  |%varavg| %total
---------------------------------------------------------------
Pair    | 46.311     | 46.311     | 46.311     |   0.0 | 52.73
Neigh   | 36.837     | 36.837     | 36.837     |   0.0 | 41.94
Comm    | 0.48228    | 0.48228    | 0.48228    |   0.0 |  0.55
Output  | 3.4522     | 3.4522     | 3.4522     |   0.0 |  3.93
Modify  | 0.57176    | 0.57176    | 0.57176    |   0.0 |  0.65
Other   |            | 0.1742     |            |       |  0.20

Nlocal:    19652 ave 19652 max 19652 min
Histogram: 1 0 0 0 0 0 0 0 0 0
Nghost:    20823 ave 20823 max 20823 min
Histogram: 1 0 0 0 0 0 0 0 0 0
Neighs:    2.02471e+06 ave 2.02471e+06 max 2.02471e+06 min
Histogram: 1 0 0 0 0 0 0 0 0 0

Total # of neighbors = 2024711
Ave neighs/atom = 103.028
Neighbor list builds = 495
Dangerous builds not checked
Setting up Verlet run ...
  Unit style    : metal
  Current step  : 51167
  Time step     : 0.001
Per MPI rank memory allocation (min/avg/max) = 19.73 | 19.73 | 19.73 Mbytes
Step Temp Press TotEng PotEng Enthalpy Volume 
   51167    1625.5111   -526.11092   -76533.936   -80662.883   -76613.902    243520.07 
   51339    1609.6989   -1103.8838   -76592.587   -80681.368   -76760.344    243482.42 
Loop time of 27.2122 on 1 procs for 172 steps with 19652 atoms

Performance: 0.546 ns/day, 43.947 hours/ns, 6.321 timesteps/s
100.0% CPU use with 1 MPI tasks x no OpenMP threads

MPI task timing breakdown:
Section |  min time  |  avg time  |  max time  |%varavg| %total
---------------------------------------------------------------
Pair    | 14.881     | 14.881     | 14.881     |   0.0 | 54.68
Neigh   | 11.94      | 11.94      | 11.94      |   0.0 | 43.88
Comm    | 0.15243    | 0.15243    | 0.15243    |   0.0 |  0.56
Output  | 0.00013709 | 0.00013709 | 0.00013709 |   0.0 |  0.00
Modify  | 0.18246    | 0.18246    | 0.18246    |   0.0 |  0.67
Other   |            | 0.05683    |            |       |  0.21

Nlocal:    19652 ave 19652 max 19652 min
Histogram: 1 0 0 0 0 0 0 0 0 0
Nghost:    20817 ave 20817 max 20817 min
Histogram: 1 0 0 0 0 0 0 0 0 0
Neighs:    2.02483e+06 ave 2.02483e+06 max 2.02483e+06 min
Histogram: 1 0 0 0 0 0 0 0 0 0

Total # of neighbors = 2024834
Ave neighs/atom = 103.035
Neighbor list builds = 172
Dangerous builds not checked
Setting up Verlet run ...
  Unit style    : metal
  Current step  : 51339
  Time step     : 0.001
Per MPI rank memory allocation (min/avg/max) = 19.73 | 19.73 | 19.73 Mbytes
Step Temp Press TotEng PotEng Enthalpy Volume 
   51339    1609.6989   -1103.8838   -76592.587   -80681.368   -76760.344    243482.42 
   51359    1595.8962   -428.90131   -76593.205   -80646.926   -76658.383    243475.17 
   51834    1567.0893   -218.57104   -76864.325   -80844.875   -76897.418    242575.86 
Loop time of 84.0714 on 1 procs for 495 steps with 19652 atoms

Performance: 0.509 ns/day, 47.178 hours/ns, 5.888 timesteps/s
97.3% CPU use with 1 MPI tasks x no OpenMP threads

MPI task timing breakdown:
Section |  min time  |  avg time  |  max time  |%varavg| %total
---------------------------------------------------------------
Pair    | 44.882     | 44.882     | 44.882     |   0.0 | 53.39
Neigh   | 35.752     | 35.752     | 35.752     |   0.0 | 42.53
Comm    | 0.45731    | 0.45731    | 0.45731    |   0.0 |  0.54
Output  | 2.2765     | 2.2765     | 2.2765     |   0.0 |  2.71
Modify  | 0.53983    | 0.53983    | 0.53983    |   0.0 |  0.64
Other   |            | 0.1638     |            |       |  0.19

Nlocal:    19652 ave 19652 max 19652 min
Histogram: 1 0 0 0 0 0 0 0 0 0
Nghost:    20892 ave 20892 max 20892 min
Histogram: 1 0 0 0 0 0 0 0 0 0
Neighs:    2.03299e+06 ave 2.03299e+06 max 2.03299e+06 min
Histogram: 1 0 0 0 0 0 0 0 0 0

Total # of neighbors = 2032987
Ave neighs/atom = 103.449
Neighbor list builds = 495
Dangerous builds not checked
Setting up Verlet run ...
  Unit style    : metal
  Current step  : 51834
  Time step     : 0.001
Per MPI rank memory allocation (min/avg/max) = 19.73 | 19.73 | 19.73 Mbytes
Step Temp Press TotEng PotEng Enthalpy Volume 
   51834    1567.0893   -218.57104   -76864.325   -80844.875   -76897.418    242575.86 
   52006    1552.1693    432.15801   -76939.926   -80882.578   -76874.567    242310.12 
Loop time of 25.6838 on 1 procs for 172 steps with 19652 atoms

Performance: 0.579 ns/day, 41.479 hours/ns, 6.697 timesteps/s
100.0% CPU use with 1 MPI tasks x no OpenMP threads

MPI task timing breakdown:
Section |  min time  |  avg time  |  max time  |%varavg| %total
---------------------------------------------------------------
Pair    | 14.05      | 14.05      | 14.05      |   0.0 | 54.70
Neigh   | 11.267     | 11.267     | 11.267     |   0.0 | 43.87
Comm    | 0.14268    | 0.14268    | 0.14268    |   0.0 |  0.56
Output  | 0.0001471  | 0.0001471  | 0.0001471  |   0.0 |  0.00
Modify  | 0.17042    | 0.17042    | 0.17042    |   0.0 |  0.66
Other   |            | 0.0537     |            |       |  0.21

Nlocal:    19652 ave 19652 max 19652 min
Histogram: 1 0 0 0 0 0 0 0 0 0
Nghost:    20868 ave 20868 max 20868 min
Histogram: 1 0 0 0 0 0 0 0 0 0
Neighs:    2.03559e+06 ave 2.03559e+06 max 2.03559e+06 min
Histogram: 1 0 0 0 0 0 0 0 0 0

Total # of neighbors = 2035594
Ave neighs/atom = 103.582
Neighbor list builds = 172
Dangerous builds not checked
Setting up Verlet run ...
  Unit style    : metal
  Current step  : 52006
  Time step     : 0.001
Per MPI rank memory allocation (min/avg/max) = 19.73 | 19.73 | 19.73 Mbytes
Step Temp Press TotEng PotEng Enthalpy Volume 
   52006    1552.1693    432.15801   -76939.926   -80882.578   -76874.567    242310.12 
   52026    1564.2261   -136.32943   -76940.475   -80913.751   -76961.093    242312.56 
   52501     1516.562   -48.040774   -77155.961   -81008.166   -77163.213    241871.89 
Loop time of 80.4623 on 1 procs for 495 steps with 19652 atoms

Performance: 0.532 ns/day, 45.153 hours/ns, 6.152 timesteps/s
98.5% CPU use with 1 MPI tasks x no OpenMP threads

MPI task timing breakdown:
Section |  min time  |  avg time  |  max time  |%varavg| %total
---------------------------------------------------------------
Pair    | 43.426     | 43.426     | 43.426     |   0.0 | 53.97
Neigh   | 34.781     | 34.781     | 34.781     |   0.0 | 43.23
Comm    | 0.43972    | 0.43972    | 0.43972    |   0.0 |  0.55
Output  | 1.137      | 1.137      | 1.137      |   0.0 |  1.41
Modify  | 0.51907    | 0.51907    | 0.51907    |   0.0 |  0.65
Other   |            | 0.1593     |            |       |  0.20

Nlocal:    19652 ave 19652 max 19652 min
Histogram: 1 0 0 0 0 0 0 0 0 0
Nghost:    20997 ave 20997 max 20997 min
Histogram: 1 0 0 0 0 0 0 0 0 0
Neighs:    2.03884e+06 ave 2.03884e+06 max 2.03884e+06 min
Histogram: 1 0 0 0 0 0 0 0 0 0

Total # of neighbors = 2038843
Ave neighs/atom = 103.747
Neighbor list builds = 495
Dangerous builds not checked
Setting up Verlet run ...
  Unit style    : metal
  Current step  : 52501
  Time step     : 0.001
Per MPI rank memory allocation (min/avg/max) = 19.73 | 19.73 | 19.73 Mbytes
Step Temp Press TotEng PotEng Enthalpy Volume 
   52501     1516.562   -48.040774   -77155.961   -81008.166   -77163.213    241871.89 
   52673    1513.6899   -709.67644   -77231.555   -81076.465   -77338.574    241608.97 
Loop time of 27.1963 on 1 procs for 172 steps with 19652 atoms

Performance: 0.546 ns/day, 43.922 hours/ns, 6.324 timesteps/s
100.0% CPU use with 1 MPI tasks x no OpenMP threads

MPI task timing breakdown:
Section |  min time  |  avg time  |  max time  |%varavg| %total
---------------------------------------------------------------
Pair    | 14.957     | 14.957     | 14.957     |   0.0 | 55.00
Neigh   | 11.849     | 11.849     | 11.849     |   0.0 | 43.57
Comm    | 0.15188    | 0.15188    | 0.15188    |   0.0 |  0.56
Output  | 0.00014305 | 0.00014305 | 0.00014305 |   0.0 |  0.00
Modify  | 0.18119    | 0.18119    | 0.18119    |   0.0 |  0.67
Other   |            | 0.05654    |            |       |  0.21

Nlocal:    19652 ave 19652 max 19652 min
Histogram: 1 0 0 0 0 0 0 0 0 0
Nghost:    20911 ave 20911 max 20911 min
Histogram: 1 0 0 0 0 0 0 0 0 0
Neighs:    2.04113e+06 ave 2.04113e+06 max 2.04113e+06 min
Histogram: 1 0 0 0 0 0 0 0 0 0

Total # of neighbors = 2041126
Ave neighs/atom = 103.864
Neighbor list builds = 172
Dangerous builds not checked
Setting up Verlet run ...
  Unit style    : metal
  Current step  : 52673
  Time step     : 0.001
Per MPI rank memory allocation (min/avg/max) = 19.73 | 19.73 | 19.73 Mbytes
Step Temp Press TotEng PotEng Enthalpy Volume 
   52673    1513.6899   -709.67644   -77231.555   -81076.465   -77338.574    241608.97 
   52693    1503.5105   -283.02487   -77232.545   -81051.598   -77275.224    241604.13 
   53168    1468.7511    203.76861   -77505.606   -81236.368   -77474.987    240753.34 
Loop time of 81.6635 on 1 procs for 495 steps with 19652 atoms

Performance: 0.524 ns/day, 45.827 hours/ns, 6.061 timesteps/s
99.9% CPU use with 1 MPI tasks x no OpenMP threads

MPI task timing breakdown:
Section |  min time  |  avg time  |  max time  |%varavg| %total
---------------------------------------------------------------
Pair    | 44.95      | 44.95      | 44.95      |   0.0 | 55.04
Neigh   | 35.401     | 35.401     | 35.401     |   0.0 | 43.35
Comm    | 0.46483    | 0.46483    | 0.46483    |   0.0 |  0.57
Output  | 0.14746    | 0.14746    | 0.14746    |   0.0 |  0.18
Modify  | 0.53508    | 0.53508    | 0.53508    |   0.0 |  0.66
Other   |            | 0.1649     |            |       |  0.20

Nlocal:    19652 ave 19652 max 19652 min
Histogram: 1 0 0 0 0 0 0 0 0 0
Nghost:    20991 ave 20991 max 20991 min
Histogram: 1 0 0 0 0 0 0 0 0 0
Neighs:    2.04828e+06 ave 2.04828e+06 max 2.04828e+06 min
Histogram: 1 0 0 0 0 0 0 0 0 0

Total # of neighbors = 2048282
Ave neighs/atom = 104.228
Neighbor list builds = 495
Dangerous builds not checked
Setting up Verlet run ...
  Unit style    : metal
  Current step  : 53168
  Time step     : 0.001
Per MPI rank memory allocation (min/avg/max) = 19.73 | 19.73 | 19.73 Mbytes
Step Temp Press TotEng PotEng Enthalpy Volume 
   53168    1468.7511    203.76861   -77505.606   -81236.368   -77474.987    240753.34 
   53340    1458.2112   -12.150231   -77592.644   -81296.634   -77594.468    240500.52 
Loop time of 26.5201 on 1 procs for 172 steps with 19652 atoms

Performance: 0.560 ns/day, 42.830 hours/ns, 6.486 timesteps/s
100.0% CPU use with 1 MPI tasks x no OpenMP threads

MPI task timing breakdown:
Section |  min time  |  avg time  |  max time  |%varavg| %total
---------------------------------------------------------------
Pair    | 14.544     | 14.544     | 14.544     |   0.0 | 54.84
Neigh   | 11.6       | 11.6       | 11.6       |   0.0 | 43.74
Comm    | 0.14643    | 0.14643    | 0.14643    |   0.0 |  0.55
Output  | 0.00016284 | 0.00016284 | 0.00016284 |   0.0 |  0.00
Modify  | 0.17522    | 0.17522    | 0.17522    |   0.0 |  0.66
Other   |            | 0.05458    |            |       |  0.21

Nlocal:    19652 ave 19652 max 19652 min
Histogram: 1 0 0 0 0 0 0 0 0 0
Nghost:    20959 ave 20959 max 20959 min
Histogram: 1 0 0 0 0 0 0 0 0 0
Neighs:    2.05019e+06 ave 2.05019e+06 max 2.05019e+06 min
Histogram: 1 0 0 0 0 0 0 0 0 0

Total # of neighbors = 2050186
Ave neighs/atom = 104.325
Neighbor list builds = 172
Dangerous builds not checked
Setting up Verlet run ...
  Unit style    : metal
  Current step  : 53340
  Time step     : 0.001
Per MPI rank memory allocation (min/avg/max) = 19.73 | 19.73 | 19.73 Mbytes
Step Temp Press TotEng PotEng Enthalpy Volume 
   53340    1458.2112   -12.150231   -77592.644   -81296.634   -77594.468    240500.52 
   53360    1460.9503   -135.54023    -77593.67   -81304.617   -77614.016    240500.45 
   53835    1421.4946    515.69599   -77873.891   -81484.617   -77796.766    239613.58 
Loop time of 82.239 on 1 procs for 495 steps with 19652 atoms

Performance: 0.520 ns/day, 46.150 hours/ns, 6.019 timesteps/s
99.9% CPU use with 1 MPI tasks x no OpenMP threads

MPI task timing breakdown:
Section |  min time  |  avg time  |  max time  |%varavg| %total
---------------------------------------------------------------
Pair    | 45.393     | 45.393     | 45.393     |   0.0 | 55.20
Neigh   | 35.591     | 35.591     | 35.591     |   0.0 | 43.28
Comm    | 0.4593     | 0.4593     | 0.4593     |   0.0 |  0.56
Output  | 0.090091   | 0.090091   | 0.090091   |   0.0 |  0.11
Modify  | 0.54087    | 0.54087    | 0.54087    |   0.0 |  0.66
Other   |            | 0.1648     |            |       |  0.20

Nlocal:    19652 ave 19652 max 19652 min
Histogram: 1 0 0 0 0 0 0 0 0 0
Nghost:    21004 ave 21004 max 21004 min
Histogram: 1 0 0 0 0 0 0 0 0 0
Neighs:    2.05842e+06 ave 2.05842e+06 max 2.05842e+06 min
Histogram: 1 0 0 0 0 0 0 0 0 0

Total # of neighbors = 2058415
Ave neighs/atom = 104.743
Neighbor list builds = 495
Dangerous builds not checked
Setting up Verlet run ...
  Unit style    : metal
  Current step  : 53835
  Time step     : 0.001
Per MPI rank memory allocation (min/avg/max) = 19.73 | 19.73 | 19.73 Mbytes
Step Temp Press TotEng PotEng Enthalpy Volume 
   53835    1421.4946    515.69599   -77873.891   -81484.617   -77796.766    239613.58 
   54007     1400.688   -38.355354   -77948.124   -81505.999   -77953.859     239593.4 
Loop time of 28.4465 on 1 procs for 172 steps with 19652 atoms

Performance: 0.522 ns/day, 45.941 hours/ns, 6.046 timesteps/s
100.0% CPU use with 1 MPI tasks x no OpenMP threads

MPI task timing breakdown:
Section |  min time  |  avg time  |  max time  |%varavg| %total
---------------------------------------------------------------
Pair    | 15.729     | 15.729     | 15.729     |   0.0 | 55.29
Neigh   | 12.309     | 12.309     | 12.309     |   0.0 | 43.27
Comm    | 0.16221    | 0.16221    | 0.16221    |   0.0 |  0.57
Output  | 0.00015521 | 0.00015521 | 0.00015521 |   0.0 |  0.00
Modify  | 0.18852    | 0.18852    | 0.18852    |   0.0 |  0.66
Other   |            | 0.05796    |            |       |  0.20

Nlocal:    19652 ave 19652 max 19652 min
Histogram: 1 0 0 0 0 0 0 0 0 0
Nghost:    20943 ave 20943 max 20943 min
Histogram: 1 0 0 0 0 0 0 0 0 0
Neighs:    2.05785e+06 ave 2.05785e+06 max 2.05785e+06 min
Histogram: 1 0 0 0 0 0 0 0 0 0

Total # of neighbors = 2057853
Ave neighs/atom = 104.715
Neighbor list builds = 172
Dangerous builds not checked
Setting up Verlet run ...
  Unit style    : metal
  Current step  : 54007
  Time step     : 0.001
Per MPI rank memory allocation (min/avg/max) = 19.73 | 19.73 | 19.73 Mbytes
Step Temp Press TotEng PotEng Enthalpy Volume 
   54007     1400.688   -38.355354   -77948.124   -81505.999   -77953.859     239593.4 
   54027     1409.837   -202.87462   -77948.439   -81529.554   -77978.778    239593.49 
   54502    1370.3167   -631.30656   -78208.076   -81688.805   -78302.199    238872.21 
Loop time of 84.605 on 1 procs for 495 steps with 19652 atoms

Performance: 0.506 ns/day, 47.478 hours/ns, 5.851 timesteps/s
99.9% CPU use with 1 MPI tasks x no OpenMP threads

MPI task timing breakdown:
Section |  min time  |  avg time  |  max time  |%varavg| %total
---------------------------------------------------------------
Pair    | 46.804     | 46.804     | 46.804     |   0.0 | 55.32
Neigh   | 36.485     | 36.485     | 36.485     |   0.0 | 43.12
Comm    | 0.48277    | 0.48277    | 0.48277    |   0.0 |  0.57
Output  | 0.1095     | 0.1095     | 0.1095     |   0.0 |  0.13
Modify  | 0.55407    | 0.55407    | 0.55407    |   0.0 |  0.65
Other   |            | 0.1698     |            |       |  0.20

Nlocal:    19652 ave 19652 max 19652 min
Histogram: 1 0 0 0 0 0 0 0 0 0
Nghost:    20999 ave 20999 max 20999 min
Histogram: 1 0 0 0 0 0 0 0 0 0
Neighs:    2.06381e+06 ave 2.06381e+06 max 2.06381e+06 min
Histogram: 1 0 0 0 0 0 0 0 0 0

Total # of neighbors = 2063814
Ave neighs/atom = 105.018
Neighbor list builds = 495
Dangerous builds not checked
Setting up Verlet run ...
  Unit style    : metal
  Current step  : 54502
  Time step     : 0.001
Per MPI rank memory allocation (min/avg/max) = 19.73 | 19.73 | 19.73 Mbytes
Step Temp Press TotEng PotEng Enthalpy Volume 
   54502    1370.3167   -631.30656   -78208.076   -81688.805   -78302.199    238872.21 
   54674    1360.7718    76.135936   -78280.661   -81737.145   -78269.324    238567.48 
Loop time of 29.8009 on 1 procs for 172 steps with 19652 atoms

Performance: 0.499 ns/day, 48.128 hours/ns, 5.772 timesteps/s
100.0% CPU use with 1 MPI tasks x no OpenMP threads

MPI task timing breakdown:
Section |  min time  |  avg time  |  max time  |%varavg| %total
---------------------------------------------------------------
Pair    | 16.598     | 16.598     | 16.598     |   0.0 | 55.70
Neigh   | 12.775     | 12.775     | 12.775     |   0.0 | 42.87
Comm    | 0.17239    | 0.17239    | 0.17239    |   0.0 |  0.58
Output  | 0.000139   | 0.000139   | 0.000139   |   0.0 |  0.00
Modify  | 0.19542    | 0.19542    | 0.19542    |   0.0 |  0.66
Other   |            | 0.06021    |            |       |  0.20

Nlocal:    19652 ave 19652 max 19652 min
Histogram: 1 0 0 0 0 0 0 0 0 0
Nghost:    20971 ave 20971 max 20971 min
Histogram: 1 0 0 0 0 0 0 0 0 0
Neighs:    2.0671e+06 ave 2.0671e+06 max 2.0671e+06 min
Histogram: 1 0 0 0 0 0 0 0 0 0

Total # of neighbors = 2067098
Ave neighs/atom = 105.185
Neighbor list builds = 172
Dangerous builds not checked
Setting up Verlet run ...
  Unit style    : metal
  Current step  : 54674
  Time step     : 0.001
Per MPI rank memory allocation (min/avg/max) = 19.73 | 19.73 | 19.73 Mbytes
Step Temp Press TotEng PotEng Enthalpy Volume 
   54674    1360.7718    76.135936   -78280.661   -81737.145   -78269.324    238567.48 
   54694    1361.2459     139.0947    -78281.81   -81739.499   -78261.098    238568.75 
   55169    1329.5344   -114.86932    -78515.72   -81892.859    -78532.78    237943.72 
Loop time of 76.8497 on 1 procs for 495 steps with 19652 atoms

Performance: 0.557 ns/day, 43.126 hours/ns, 6.441 timesteps/s
99.9% CPU use with 1 MPI tasks x no OpenMP threads

MPI task timing breakdown:
Section |  min time  |  avg time  |  max time  |%varavg| %total
---------------------------------------------------------------
Pair    | 42.33      | 42.33      | 42.33      |   0.0 | 55.08
Neigh   | 33.321     | 33.321     | 33.321     |   0.0 | 43.36
Comm    | 0.43414    | 0.43414    | 0.43414    |   0.0 |  0.56
Output  | 0.10323    | 0.10323    | 0.10323    |   0.0 |  0.13
Modify  | 0.50411    | 0.50411    | 0.50411    |   0.0 |  0.66
Other   |            | 0.157      |            |       |  0.20

Nlocal:    19652 ave 19652 max 19652 min
Histogram: 1 0 0 0 0 0 0 0 0 0
Nghost:    20988 ave 20988 max 20988 min
Histogram: 1 0 0 0 0 0 0 0 0 0
Neighs:    2.07256e+06 ave 2.07256e+06 max 2.07256e+06 min
Histogram: 1 0 0 0 0 0 0 0 0 0

Total # of neighbors = 2072561
Ave neighs/atom = 105.463
Neighbor list builds = 495
Dangerous builds not checked
Setting up Verlet run ...
  Unit style    : metal
  Current step  : 55169
  Time step     : 0.001
Per MPI rank memory allocation (min/avg/max) = 19.73 | 19.73 | 19.73 Mbytes
Step Temp Press TotEng PotEng Enthalpy Volume 
   55169    1329.5344   -114.86932    -78515.72   -81892.859    -78532.78    237943.72 
   55341    1300.5693    165.74102    -78595.34   -81898.905   -78570.731     237888.1 
Loop time of 26.6754 on 1 procs for 172 steps with 19652 atoms

Performance: 0.557 ns/day, 43.080 hours/ns, 6.448 timesteps/s
100.0% CPU use with 1 MPI tasks x no OpenMP threads

MPI task timing breakdown:
Section |  min time  |  avg time  |  max time  |%varavg| %total
[...]
Modify  | 0.47454    | 0.47454    | 0.47454    |   0.0 |  0.62
Other   |            | 0.1331     |            |       |  0.17

Nlocal:    19652 ave 19652 max 19652 min
Histogram: 1 0 0 0 0 0 0 0 0 0
Nghost:    21597 ave 21597 max 21597 min
Histogram: 1 0 0 0 0 0 0 0 0 0
Neighs:    2.21563e+06 ave 2.21563e+06 max 2.21563e+06 min
Histogram: 1 0 0 0 0 0 0 0 0 0

Total # of neighbors = 2215633
Ave neighs/atom = 112.743
Neighbor list builds = 495
Dangerous builds not checked
Setting up Verlet run ...
  Unit style    : metal
  Current step  : 67175
  Time step     : 0.001
Per MPI rank memory allocation (min/avg/max) = 20.11 | 20.11 | 20.11 Mbytes
Step Temp Press TotEng PotEng Enthalpy Volume 
   67175    424.60744   -532.82256   -84288.516   -85367.058   -84363.058    224143.46 
   67347      411.927   -254.90495   -84343.709   -85390.041   -84379.351    224021.08 
Loop time of 26.5219 on 1 procs for 172 steps with 19652 atoms

Performance: 0.560 ns/day, 42.833 hours/ns, 6.485 timesteps/s
100.0% CPU use with 1 MPI tasks x no OpenMP threads

MPI task timing breakdown:
Section |  min time  |  avg time  |  max time  |%varavg| %total
---------------------------------------------------------------
Pair    | 14.957     | 14.957     | 14.957     |   0.0 | 56.39
Neigh   | 11.219     | 11.219     | 11.219     |   0.0 | 42.30
Comm    | 0.13523    | 0.13523    | 0.13523    |   0.0 |  0.51
Output  | 0.00012422 | 0.00012422 | 0.00012422 |   0.0 |  0.00
Modify  | 0.16497    | 0.16497    | 0.16497    |   0.0 |  0.62
Other   |            | 0.04629    |            |       |  0.17

Nlocal:    19652 ave 19652 max 19652 min
Histogram: 1 0 0 0 0 0 0 0 0 0
Nghost:    21635 ave 21635 max 21635 min
Histogram: 1 0 0 0 0 0 0 0 0 0
Neighs:    2.21649e+06 ave 2.21649e+06 max 2.21649e+06 min
Histogram: 1 0 0 0 0 0 0 0 0 0

Total # of neighbors = 2216494
Ave neighs/atom = 112.787
Neighbor list builds = 172
Dangerous builds not checked
Setting up Verlet run ...
  Unit style    : metal
  Current step  : 67347
  Time step     : 0.001
Per MPI rank memory allocation (min/avg/max) = 20.11 | 20.11 | 20.11 Mbytes
Step Temp Press TotEng PotEng Enthalpy Volume 
   67347      411.927   -254.90495   -84343.709   -85390.041   -84379.351    224021.08 
   67367    411.03186   -292.51803   -84345.017   -85389.075   -84385.916    224013.43 
   67842      374.075    228.51399   -84557.521   -85507.705   -84525.642    223509.18 
Loop time of 77.093 on 1 procs for 495 steps with 19652 atoms

Performance: 0.555 ns/day, 43.262 hours/ns, 6.421 timesteps/s
100.0% CPU use with 1 MPI tasks x no OpenMP threads

MPI task timing breakdown:
Section |  min time  |  avg time  |  max time  |%varavg| %total
---------------------------------------------------------------
Pair    | 43.518     | 43.518     | 43.518     |   0.0 | 56.45
Neigh   | 32.507     | 32.507     | 32.507     |   0.0 | 42.17
Comm    | 0.39393    | 0.39393    | 0.39393    |   0.0 |  0.51
Output  | 0.058491   | 0.058491   | 0.058491   |   0.0 |  0.08
Modify  | 0.47916    | 0.47916    | 0.47916    |   0.0 |  0.62
Other   |            | 0.1359     |            |       |  0.18

Nlocal:    19652 ave 19652 max 19652 min
Histogram: 1 0 0 0 0 0 0 0 0 0
Nghost:    21606 ave 21606 max 21606 min
Histogram: 1 0 0 0 0 0 0 0 0 0
Neighs:    2.22265e+06 ave 2.22265e+06 max 2.22265e+06 min
Histogram: 1 0 0 0 0 0 0 0 0 0

Total # of neighbors = 2222648
Ave neighs/atom = 113.1
Neighbor list builds = 495
Dangerous builds not checked
Setting up Verlet run ...
  Unit style    : metal
  Current step  : 67842
  Time step     : 0.001
Per MPI rank memory allocation (min/avg/max) = 20.11 | 20.11 | 20.11 Mbytes
Step Temp Press TotEng PotEng Enthalpy Volume 
   67842      374.075    228.51399   -84557.521   -85507.705   -84525.642    223509.18 
   68014    362.36664    300.63524   -84611.423   -85531.868   -84569.505    223393.37 
Loop time of 26.4939 on 1 procs for 172 steps with 19652 atoms

Performance: 0.561 ns/day, 42.787 hours/ns, 6.492 timesteps/s
100.0% CPU use with 1 MPI tasks x no OpenMP threads

MPI task timing breakdown:
Section |  min time  |  avg time  |  max time  |%varavg| %total
---------------------------------------------------------------
Pair    | 14.975     | 14.975     | 14.975     |   0.0 | 56.52
Neigh   | 11.171     | 11.171     | 11.171     |   0.0 | 42.16
Comm    | 0.13533    | 0.13533    | 0.13533    |   0.0 |  0.51
Output  | 0.00012994 | 0.00012994 | 0.00012994 |   0.0 |  0.00
Modify  | 0.16546    | 0.16546    | 0.16546    |   0.0 |  0.62
Other   |            | 0.04694    |            |       |  0.18

Nlocal:    19652 ave 19652 max 19652 min
Histogram: 1 0 0 0 0 0 0 0 0 0
Nghost:    21580 ave 21580 max 21580 min
Histogram: 1 0 0 0 0 0 0 0 0 0
Neighs:    2.22379e+06 ave 2.22379e+06 max 2.22379e+06 min
Histogram: 1 0 0 0 0 0 0 0 0 0

Total # of neighbors = 2223787
Ave neighs/atom = 113.158
Neighbor list builds = 172
Dangerous builds not checked
Setting up Verlet run ...
  Unit style    : metal
  Current step  : 68014
  Time step     : 0.001
Per MPI rank memory allocation (min/avg/max) = 20.11 | 20.11 | 20.11 Mbytes
Step Temp Press TotEng PotEng Enthalpy Volume 
   68014    362.36664    300.63524   -84611.423   -85531.868   -84569.505    223393.37 
   68034    363.73987    102.81004   -84612.851   -85536.783   -84598.515    223401.34 
   68509    325.20216    339.34916   -84825.049   -85651.092    -84777.83     222935.7 
Loop time of 77.0031 on 1 procs for 495 steps with 19652 atoms

Performance: 0.555 ns/day, 43.212 hours/ns, 6.428 timesteps/s
100.0% CPU use with 1 MPI tasks x no OpenMP threads

MPI task timing breakdown:
Section |  min time  |  avg time  |  max time  |%varavg| %total
---------------------------------------------------------------
Pair    | 43.475     | 43.475     | 43.475     |   0.0 | 56.46
Neigh   | 32.44      | 32.44      | 32.44      |   0.0 | 42.13
Comm    | 0.38996    | 0.38996    | 0.38996    |   0.0 |  0.51
Output  | 0.083021   | 0.083021   | 0.083021   |   0.0 |  0.11
Modify  | 0.47815    | 0.47815    | 0.47815    |   0.0 |  0.62
Other   |            | 0.1362     |            |       |  0.18

Nlocal:    19652 ave 19652 max 19652 min
Histogram: 1 0 0 0 0 0 0 0 0 0
Nghost:    21663 ave 21663 max 21663 min
Histogram: 1 0 0 0 0 0 0 0 0 0
Neighs:    2.22899e+06 ave 2.22899e+06 max 2.22899e+06 min
Histogram: 1 0 0 0 0 0 0 0 0 0

Total # of neighbors = 2228992
Ave neighs/atom = 113.423
Neighbor list builds = 495
Dangerous builds not checked
Setting up Verlet run ...
  Unit style    : metal
  Current step  : 68509
  Time step     : 0.001
Per MPI rank memory allocation (min/avg/max) = 20.11 | 20.11 | 20.11 Mbytes
Step Temp Press TotEng PotEng Enthalpy Volume 
   68509    325.20216    339.34916   -84825.049   -85651.092    -84777.83     222935.7 
   68681    314.76982    507.38255   -84879.096    -85678.64   -84808.527    222838.91 
Loop time of 29.8358 on 1 procs for 172 steps with 19652 atoms

Performance: 0.498 ns/day, 48.184 hours/ns, 5.765 timesteps/s
100.0% CPU use with 1 MPI tasks x no OpenMP threads

MPI task timing breakdown:
Section |  min time  |  avg time  |  max time  |%varavg| %total
---------------------------------------------------------------
Pair    | 17.045     | 17.045     | 17.045     |   0.0 | 57.13
Neigh   | 12.379     | 12.379     | 12.379     |   0.0 | 41.49
Comm    | 0.16303    | 0.16303    | 0.16303    |   0.0 |  0.55
Output  | 0.00012803 | 0.00012803 | 0.00012803 |   0.0 |  0.00
Modify  | 0.18986    | 0.18986    | 0.18986    |   0.0 |  0.64
Other   |            | 0.05881    |            |       |  0.20

Nlocal:    19652 ave 19652 max 19652 min
Histogram: 1 0 0 0 0 0 0 0 0 0
Nghost:    21673 ave 21673 max 21673 min
Histogram: 1 0 0 0 0 0 0 0 0 0
Neighs:    2.23094e+06 ave 2.23094e+06 max 2.23094e+06 min
Histogram: 1 0 0 0 0 0 0 0 0 0

Total # of neighbors = 2230939
Ave neighs/atom = 113.522
Neighbor list builds = 172
Dangerous builds not checked
Setting up Verlet run ...
  Unit style    : metal
  Current step  : 68681
  Time step     : 0.001
Per MPI rank memory allocation (min/avg/max) = 20.11 | 20.11 | 20.11 Mbytes
Step Temp Press TotEng PotEng Enthalpy Volume 
   68681    314.76982    507.38255   -84879.096    -85678.64   -84808.527    222838.91 
   68701    315.88792     247.5366   -84880.804   -85683.188   -84846.373    222855.34 
   69176    275.10011    330.46345   -85088.764   -85787.544   -85042.881     222452.7 
Loop time of 81.6911 on 1 procs for 495 steps with 19652 atoms

Performance: 0.524 ns/day, 45.842 hours/ns, 6.059 timesteps/s
100.0% CPU use with 1 MPI tasks x no OpenMP threads

MPI task timing breakdown:
Section |  min time  |  avg time  |  max time  |%varavg| %total
---------------------------------------------------------------
Pair    | 46.408     | 46.408     | 46.408     |   0.0 | 56.81
Neigh   | 34.079     | 34.079     | 34.079     |   0.0 | 41.72
Comm    | 0.44362    | 0.44362    | 0.44362    |   0.0 |  0.54
Output  | 0.081124   | 0.081124   | 0.081124   |   0.0 |  0.10
Modify  | 0.51843    | 0.51843    | 0.51843    |   0.0 |  0.63
Other   |            | 0.1616     |            |       |  0.20

Nlocal:    19652 ave 19652 max 19652 min
Histogram: 1 0 0 0 0 0 0 0 0 0
Nghost:    21713 ave 21713 max 21713 min
Histogram: 1 0 0 0 0 0 0 0 0 0
Neighs:    2.23568e+06 ave 2.23568e+06 max 2.23568e+06 min
Histogram: 1 0 0 0 0 0 0 0 0 0

Total # of neighbors = 2235676
Ave neighs/atom = 113.763
Neighbor list builds = 495
Dangerous builds not checked
Setting up Verlet run ...
  Unit style    : metal
  Current step  : 69176
  Time step     : 0.001
Per MPI rank memory allocation (min/avg/max) = 20.11 | 20.11 | 20.11 Mbytes
Step Temp Press TotEng PotEng Enthalpy Volume 
   69176    275.10011    330.46345   -85088.764   -85787.544   -85042.881     222452.7 
   69348      263.907    298.03255   -85143.327   -85813.674   -85101.962    222369.54 
Loop time of 26.8867 on 1 procs for 172 steps with 19652 atoms

Performance: 0.553 ns/day, 43.422 hours/ns, 6.397 timesteps/s
100.0% CPU use with 1 MPI tasks x no OpenMP threads

MPI task timing breakdown:
Section |  min time  |  avg time  |  max time  |%varavg| %total
---------------------------------------------------------------
Pair    | 15.265     | 15.265     | 15.265     |   0.0 | 56.78
Neigh   | 11.256     | 11.256     | 11.256     |   0.0 | 41.86
Comm    | 0.14207    | 0.14207    | 0.14207    |   0.0 |  0.53
Output  | 0.00014496 | 0.00014496 | 0.00014496 |   0.0 |  0.00
Modify  | 0.16977    | 0.16977    | 0.16977    |   0.0 |  0.63
Other   |            | 0.05387    |            |       |  0.20

Nlocal:    19652 ave 19652 max 19652 min
Histogram: 1 0 0 0 0 0 0 0 0 0
Nghost:    21657 ave 21657 max 21657 min
Histogram: 1 0 0 0 0 0 0 0 0 0
Neighs:    2.2366e+06 ave 2.2366e+06 max 2.2366e+06 min
Histogram: 1 0 0 0 0 0 0 0 0 0

Total # of neighbors = 2236600
Ave neighs/atom = 113.81
Neighbor list builds = 172
Dangerous builds not checked
Setting up Verlet run ...
  Unit style    : metal
  Current step  : 69348
  Time step     : 0.001
Per MPI rank memory allocation (min/avg/max) = 20.11 | 20.11 | 20.11 Mbytes
Step Temp Press TotEng PotEng Enthalpy Volume 
   69348      263.907    298.03255   -85143.327   -85813.674   -85101.962    222369.54 
   69368    263.93642    163.62781   -85144.867    -85815.29   -85122.156    222382.68 
   69843    225.96743      30.5128   -85346.143    -85920.12   -85341.915    221997.55 
Loop time of 81.4366 on 1 procs for 495 steps with 19652 atoms

Performance: 0.525 ns/day, 45.700 hours/ns, 6.078 timesteps/s
100.0% CPU use with 1 MPI tasks x no OpenMP threads

MPI task timing breakdown:
Section |  min time  |  avg time  |  max time  |%varavg| %total
---------------------------------------------------------------
Pair    | 46.337     | 46.337     | 46.337     |   0.0 | 56.90
Neigh   | 33.922     | 33.922     | 33.922     |   0.0 | 41.65
Comm    | 0.43937    | 0.43937    | 0.43937    |   0.0 |  0.54
Output  | 0.065392   | 0.065392   | 0.065392   |   0.0 |  0.08
Modify  | 0.5128     | 0.5128     | 0.5128     |   0.0 |  0.63
Other   |            | 0.1607     |            |       |  0.20

Nlocal:    19652 ave 19652 max 19652 min
Histogram: 1 0 0 0 0 0 0 0 0 0
Nghost:    21734 ave 21734 max 21734 min
Histogram: 1 0 0 0 0 0 0 0 0 0
Neighs:    2.24097e+06 ave 2.24097e+06 max 2.24097e+06 min
Histogram: 1 0 0 0 0 0 0 0 0 0

Total # of neighbors = 2240967
Ave neighs/atom = 114.033
Neighbor list builds = 495
Dangerous builds not checked
Setting up Verlet run ...
  Unit style    : metal
  Current step  : 69843
  Time step     : 0.001
Per MPI rank memory allocation (min/avg/max) = 20.11 | 20.11 | 20.11 Mbytes
Step Temp Press TotEng PotEng Enthalpy Volume 
   69843    225.96743      30.5128   -85346.143    -85920.12   -85341.915    221997.55 
   70015    216.01567    43.310717   -85399.515   -85948.214   -85393.516    221896.82 
Loop time of 26.7847 on 1 procs for 172 steps with 19652 atoms

Performance: 0.555 ns/day, 43.257 hours/ns, 6.422 timesteps/s
100.0% CPU use with 1 MPI tasks x no OpenMP threads

MPI task timing breakdown:
Section |  min time  |  avg time  |  max time  |%varavg| %total
---------------------------------------------------------------
Pair    | 15.177     | 15.177     | 15.177     |   0.0 | 56.66
Neigh   | 11.254     | 11.254     | 11.254     |   0.0 | 42.02
Comm    | 0.13774    | 0.13774    | 0.13774    |   0.0 |  0.51
Output  | 0.00012207 | 0.00012207 | 0.00012207 |   0.0 |  0.00
Modify  | 0.16744    | 0.16744    | 0.16744    |   0.0 |  0.63
Other   |            | 0.04838    |            |       |  0.18

Nlocal:    19652 ave 19652 max 19652 min
Histogram: 1 0 0 0 0 0 0 0 0 0
Nghost:    21717 ave 21717 max 21717 min
Histogram: 1 0 0 0 0 0 0 0 0 0
Neighs:    2.24205e+06 ave 2.24205e+06 max 2.24205e+06 min
Histogram: 1 0 0 0 0 0 0 0 0 0

Total # of neighbors = 2242050
Ave neighs/atom = 114.088
Neighbor list builds = 172
Dangerous builds not checked
Setting up Verlet run ...
  Unit style    : metal
  Current step  : 70015
  Time step     : 0.001
Per MPI rank memory allocation (min/avg/max) = 20.11 | 20.11 | 20.11 Mbytes
Step Temp Press TotEng PotEng Enthalpy Volume 
   70015    216.01567    43.310717   -85399.515   -85948.214   -85393.516    221896.82 
   70035    216.61122   -9.1547736   -85401.411   -85951.623   -85402.678    221897.38 
   70510    178.57782   -13.171102    -85600.32   -86053.924   -85602.142     221525.2 
Loop time of 78.4981 on 1 procs for 495 steps with 19652 atoms

Performance: 0.545 ns/day, 44.051 hours/ns, 6.306 timesteps/s
100.0% CPU use with 1 MPI tasks x no OpenMP threads

MPI task timing breakdown:
Section |  min time  |  avg time  |  max time  |%varavg| %total
---------------------------------------------------------------
Pair    | 44.491     | 44.491     | 44.491     |   0.0 | 56.68
Neigh   | 32.914     | 32.914     | 32.914     |   0.0 | 41.93
Comm    | 0.39967    | 0.39967    | 0.39967    |   0.0 |  0.51
Output  | 0.061229   | 0.061229   | 0.061229   |   0.0 |  0.08
Modify  | 0.48875    | 0.48875    | 0.48875    |   0.0 |  0.62
Other   |            | 0.1427     |            |       |  0.18

Nlocal:    19652 ave 19652 max 19652 min
Histogram: 1 0 0 0 0 0 0 0 0 0
Nghost:    21696 ave 21696 max 21696 min
Histogram: 1 0 0 0 0 0 0 0 0 0
Neighs:    2.24695e+06 ave 2.24695e+06 max 2.24695e+06 min
Histogram: 1 0 0 0 0 0 0 0 0 0

Total # of neighbors = 2246951
Ave neighs/atom = 114.337
Neighbor list builds = 495
Dangerous builds not checked
Setting up Verlet run ...
  Unit style    : metal
  Current step  : 70510
  Time step     : 0.001
Per MPI rank memory allocation (min/avg/max) = 20.11 | 20.11 | 20.11 Mbytes
Step Temp Press TotEng PotEng Enthalpy Volume 
   70510    178.57782   -13.171102    -85600.32   -86053.924   -85602.142     221525.2 
   70682    169.46445   -144.03332   -85653.546   -86084.001   -85673.453    221441.96 
Loop time of 27.8045 on 1 procs for 172 steps with 19652 atoms

Performance: 0.534 ns/day, 44.904 hours/ns, 6.186 timesteps/s
100.0% CPU use with 1 MPI tasks x no OpenMP threads

MPI task timing breakdown:
Section |  min time  |  avg time  |  max time  |%varavg| %total
---------------------------------------------------------------
Pair    | 15.81      | 15.81      | 15.81      |   0.0 | 56.86
Neigh   | 11.612     | 11.612     | 11.612     |   0.0 | 41.76
Comm    | 0.14864    | 0.14864    | 0.14864    |   0.0 |  0.53
Output  | 0.0001502  | 0.0001502  | 0.0001502  |   0.0 |  0.00
Modify  | 0.1778     | 0.1778     | 0.1778     |   0.0 |  0.64
Other   |            | 0.05607    |            |       |  0.20

Nlocal:    19652 ave 19652 max 19652 min
Histogram: 1 0 0 0 0 0 0 0 0 0
Nghost:    21711 ave 21711 max 21711 min
Histogram: 1 0 0 0 0 0 0 0 0 0
Neighs:    2.24789e+06 ave 2.24789e+06 max 2.24789e+06 min
Histogram: 1 0 0 0 0 0 0 0 0 0

Total # of neighbors = 2247891
Ave neighs/atom = 114.385
Neighbor list builds = 172
Dangerous builds not checked
Setting up Verlet run ...
  Unit style    : metal
  Current step  : 70682
  Time step     : 0.001
Per MPI rank memory allocation (min/avg/max) = 20.11 | 20.11 | 20.11 Mbytes
Step Temp Press TotEng PotEng Enthalpy Volume 
   70682    169.46445   -144.03332   -85653.546   -86084.001   -85673.453    221441.96 
   70702    168.89631   -126.73828   -85655.809   -86084.821   -85673.325    221430.68 
   71177    130.62371   -120.55456   -85850.229   -86182.025   -85866.864    221078.82 
Loop time of 84.5004 on 1 procs for 495 steps with 19652 atoms

Performance: 0.506 ns/day, 47.419 hours/ns, 5.858 timesteps/s
99.7% CPU use with 1 MPI tasks x no OpenMP threads

MPI task timing breakdown:
Section |  min time  |  avg time  |  max time  |%varavg| %total
---------------------------------------------------------------
Pair    | 48.093     | 48.093     | 48.093     |   0.0 | 56.91
Neigh   | 35.011     | 35.011     | 35.011     |   0.0 | 41.43
Comm    | 0.44952    | 0.44952    | 0.44952    |   0.0 |  0.53
Output  | 0.23926    | 0.23926    | 0.23926    |   0.0 |  0.28
Modify  | 0.54195    | 0.54195    | 0.54195    |   0.0 |  0.64
Other   |            | 0.1664     |            |       |  0.20

Nlocal:    19652 ave 19652 max 19652 min
Histogram: 1 0 0 0 0 0 0 0 0 0
Nghost:    21764 ave 21764 max 21764 min
Histogram: 1 0 0 0 0 0 0 0 0 0
Neighs:    2.25198e+06 ave 2.25198e+06 max 2.25198e+06 min
Histogram: 1 0 0 0 0 0 0 0 0 0

Total # of neighbors = 2251982
Ave neighs/atom = 114.593
Neighbor list builds = 495
Dangerous builds not checked
Setting up Verlet run ...
  Unit style    : metal
  Current step  : 71177
  Time step     : 0.001
Per MPI rank memory allocation (min/avg/max) = 20.12 | 20.12 | 20.12 Mbytes
Step Temp Press TotEng PotEng Enthalpy Volume 
   71177    130.62371   -120.55456   -85850.229   -86182.025   -85866.864    221078.82 
   71349    121.71718   -87.899432   -85902.806   -86211.978   -85914.929    220970.24 
Loop time of 27.0355 on 1 procs for 172 steps with 19652 atoms

Performance: 0.550 ns/day, 43.662 hours/ns, 6.362 timesteps/s
100.0% CPU use with 1 MPI tasks x no OpenMP threads

MPI task timing breakdown:
Section |  min time  |  avg time  |  max time  |%varavg| %total
---------------------------------------------------------------
Pair    | 15.384     | 15.384     | 15.384     |   0.0 | 56.90
Neigh   | 11.293     | 11.293     | 11.293     |   0.0 | 41.77
Comm    | 0.1389     | 0.1389     | 0.1389     |   0.0 |  0.51
Output  | 0.00011611 | 0.00011611 | 0.00011611 |   0.0 |  0.00
Modify  | 0.16923    | 0.16923    | 0.16923    |   0.0 |  0.63
Other   |            | 0.04982    |            |       |  0.18

Nlocal:    19652 ave 19652 max 19652 min
Histogram: 1 0 0 0 0 0 0 0 0 0
Nghost:    21757 ave 21757 max 21757 min
Histogram: 1 0 0 0 0 0 0 0 0 0
Neighs:    2.2533e+06 ave 2.2533e+06 max 2.2533e+06 min
Histogram: 1 0 0 0 0 0 0 0 0 0

Total # of neighbors = 2253303
Ave neighs/atom = 114.66
Neighbor list builds = 172
Dangerous builds not checked
Total wall time: 3:15:04
