LAMMPS (12 Dec 2018)
Lattice spacing in x,y,z = 4 4 4
Created orthogonal box = (0 0 0) to (68 68 68)
  1 by 1 by 2 MPI processor grid
Created 19652 atoms
  Time spent = 0.00165606 secs
Setting atom values ...
  19281 settings made for type/fraction
Neighbor list info ...
  update every 1 steps, delay 0 steps, check no
  max neighbors/atom: 2000, page size: 100000
  master list distance cutoff = 8.5
  ghost atom cutoff = 8.5
  binsize = 4.25, bins = 16 16 16
  1 neighbor lists, perpetual/occasional/extra = 1 0 0
  (1) pair eam/alloy, perpetual
      attributes: half, newton on
      pair build: half/bin/atomonly/newton
      stencil: half/bin/3d/newton
      bin: standard
Setting up Verlet run ...
  Unit style    : metal
  Current step  : 0
  Time step     : 0.001
Per MPI rank memory allocation (min/avg/max) = 11.15 | 11.15 | 11.15 Mbytes
Step Temp Press TotEng PotEng Enthalpy 
       0          300   -166746.06   -61341.629   -62103.656   -94066.049 
    1000    411.51464   -80080.185   -61341.629   -62386.914   -77057.609 
Loop time of 91.5469 on 2 procs for 1000 steps with 19652 atoms

Performance: 0.944 ns/day, 25.430 hours/ns, 10.923 timesteps/s
98.1% CPU use with 2 MPI tasks x no OpenMP threads

MPI task timing breakdown:
Section |  min time  |  avg time  |  max time  |%varavg| %total
---------------------------------------------------------------
Pair    | 50.625     | 51.199     | 51.773     |   8.0 | 55.93
Neigh   | 33.024     | 34.28      | 35.535     |  21.4 | 37.45
Comm    | 3.7942     | 5.6515     | 7.5087     |  78.1 |  6.17
Output  | 8.2016e-05 | 0.00010252 | 0.00012302 |   0.0 |  0.00
Modify  | 0.19855    | 0.20806    | 0.21758    |   2.1 |  0.23
Other   |            | 0.2085     |            |       |  0.23

Nlocal:    9826 ave 9893 max 9759 min
Histogram: 1 0 0 0 0 0 0 0 0 1
Nghost:    13447 ave 13498 max 13396 min
Histogram: 1 0 0 0 0 0 0 0 0 1
Neighs:    788544 ave 790809 max 786278 min
Histogram: 1 0 0 0 0 0 0 0 0 1

Total # of neighbors = 1577087
Ave neighs/atom = 80.2507
Neighbor list builds = 1000
Dangerous builds not checked
Setting up Verlet run ...
  Unit style    : metal
  Current step  : 1000
  Time step     : 0.001
Per MPI rank memory allocation (min/avg/max) = 11.15 | 11.15 | 11.15 Mbytes
Step Temp Press TotEng PotEng Enthalpy 
    1000    411.51464   -80080.185   -61341.629   -62386.914   -77057.609 
    2000    396.39506   -1761.2794   -65394.878   -66401.758   -65663.554 
Loop time of 176.102 on 2 procs for 1000 steps with 19652 atoms

Performance: 0.491 ns/day, 48.917 hours/ns, 5.679 timesteps/s
80.9% CPU use with 2 MPI tasks x no OpenMP threads

MPI task timing breakdown:
Section |  min time  |  avg time  |  max time  |%varavg| %total
---------------------------------------------------------------
Pair    | 102.76     | 103.57     | 104.38     |   8.0 | 58.81
Neigh   | 50.9       | 54.763     | 58.625     |  52.2 | 31.10
Comm    | 13.184     | 16.283     | 19.383     |  76.8 |  9.25
Output  | 8.893e-05  | 0.00011599 | 0.00014305 |   0.0 |  0.00
Modify  | 1.1861     | 1.2119     | 1.2376     |   2.3 |  0.69
Other   |            | 0.2765     |            |       |  0.16

Nlocal:    9826 ave 9891 max 9761 min
Histogram: 1 0 0 0 0 0 0 0 0 1
Nghost:    14359 ave 14458 max 14260 min
Histogram: 1 0 0 0 0 0 0 0 0 1
Neighs:    1.00228e+06 ave 1.00836e+06 max 996197 min
Histogram: 1 0 0 0 0 0 0 0 0 1

Total # of neighbors = 2004558
Ave neighs/atom = 102.003
Neighbor list builds = 1000
Dangerous builds not checked
Setting up Verlet run ...
  Unit style    : metal
  Current step  : 2000
  Time step     : 0.001
Per MPI rank memory allocation (min/avg/max) = 11.92 | 11.92 | 11.92 Mbytes
Step Temp Press TotEng PotEng Enthalpy 
    2000    396.39506   -1761.2794   -65394.878   -66401.758   -65663.554 
   10000    2436.0539   -871.77972   -52573.392   -58761.191   -52735.214 
Loop time of 1418.12 on 2 procs for 8000 steps with 19652 atoms

Performance: 0.487 ns/day, 49.240 hours/ns, 5.641 timesteps/s
79.8% CPU use with 2 MPI tasks x no OpenMP threads

MPI task timing breakdown:
Section |  min time  |  avg time  |  max time  |%varavg| %total
---------------------------------------------------------------
Pair    | 765.97     | 772.38     | 778.78     |  23.0 | 54.46
Neigh   | 422.69     | 440.25     | 457.8      |  83.7 | 31.04
Comm    | 176.85     | 187.94     | 199.03     |  80.9 | 13.25
Output  | 9.4891e-05 | 0.00011945 | 0.000144   |   0.0 |  0.00
Modify  | 15.184     | 15.308     | 15.432     |   3.2 |  1.08
Other   |            | 2.246      |            |       |  0.16

Nlocal:    9826 ave 9867 max 9785 min
Histogram: 1 0 0 0 0 0 0 0 0 1
Nghost:    13518 ave 13564 max 13472 min
Histogram: 1 0 0 0 0 0 0 0 0 1
Neighs:    828428 ave 832146 max 824709 min
Histogram: 1 0 0 0 0 0 0 0 0 1

Total # of neighbors = 1656855
Ave neighs/atom = 84.3097
Neighbor list builds = 8000
Dangerous builds not checked
Setting up Verlet run ...
  Unit style    : metal
  Current step  : 10000
  Time step     : 0.001
Per MPI rank memory allocation (min/avg/max) = 11.92 | 11.92 | 11.92 Mbytes
Step Temp Press TotEng PotEng Enthalpy 
   10000    2436.0539   -871.77972   -52573.392   -58761.191   -52735.214 
   40000    2448.4101    423.61092   -52449.894   -58669.079   -52371.081 
Loop time of 4814.95 on 2 procs for 30000 steps with 19652 atoms

Performance: 0.538 ns/day, 44.583 hours/ns, 6.231 timesteps/s
80.1% CPU use with 2 MPI tasks x no OpenMP threads

MPI task timing breakdown:
Section |  min time  |  avg time  |  max time  |%varavg| %total
---------------------------------------------------------------
Pair    | 2675.6     | 2697.4     | 2719.2     |  41.9 | 56.02
Neigh   | 1620.8     | 1628.7     | 1636.6     |  19.6 | 33.83
Comm    | 414.31     | 428.12     | 441.94     |  66.8 |  8.89
Output  | 8.2016e-05 | 0.00010693 | 0.00013185 |   0.0 |  0.00
Modify  | 52.01      | 52.044     | 52.078     |   0.5 |  1.08
Other   |            | 8.633      |            |       |  0.18

Nlocal:    9826 ave 9856 max 9796 min
Histogram: 1 0 0 0 0 0 0 0 0 1
Nghost:    13551.5 ave 13568 max 13535 min
Histogram: 1 0 0 0 0 0 0 0 0 1
Neighs:    826568 ave 840003 max 813132 min
Histogram: 1 0 0 0 0 0 0 0 0 1

Total # of neighbors = 1653135
Ave neighs/atom = 84.1204
Neighbor list builds = 30000
Dangerous builds not checked
Setting up Verlet run ...
  Unit style    : metal
  Current step  : 40000
  Time step     : 0.001
Per MPI rank memory allocation (min/avg/max) = 11.92 | 11.92 | 11.92 Mbytes
Step Temp Press TotEng PotEng Enthalpy 
   40000    2448.4101    423.61092   -52449.894   -58669.079   -52371.081 
   40495    2428.6371    404.56922   -52644.246   -58813.205   -52569.312 
Loop time of 51.3824 on 2 procs for 495 steps with 19652 atoms

Performance: 0.832 ns/day, 28.834 hours/ns, 9.634 timesteps/s
99.7% CPU use with 2 MPI tasks x no OpenMP threads

MPI task timing breakdown:
Section |  min time  |  avg time  |  max time  |%varavg| %total
---------------------------------------------------------------
Pair    | 28.235     | 28.528     | 28.821     |   5.5 | 55.52
Neigh   | 19.5       | 20.202     | 20.905     |  15.6 | 39.32
Comm    | 1.72       | 2.1461     | 2.5723     |  29.1 |  4.18
Output  | 7.7963e-05 | 0.000108   | 0.00013804 |   0.0 |  0.00
Modify  | 0.38378    | 0.3943     | 0.40483    |   1.7 |  0.77
Other   |            | 0.1114     |            |       |  0.22

Nlocal:    9826 ave 9852 max 9800 min
Histogram: 1 0 0 0 0 0 0 0 0 1
Nghost:    13543.5 ave 13573 max 13514 min
Histogram: 1 0 0 0 0 0 0 0 0 1
Neighs:    830333 ave 843239 max 817427 min
Histogram: 1 0 0 0 0 0 0 0 0 1

Total # of neighbors = 1660666
Ave neighs/atom = 84.5037
Neighbor list builds = 495
Dangerous builds not checked
Setting up Verlet run ...
  Unit style    : metal
  Current step  : 40495
  Time step     : 0.001
Per MPI rank memory allocation (min/avg/max) = 11.92 | 11.92 | 11.92 Mbytes
Step Temp Press TotEng PotEng Enthalpy 
   40495    2428.6371    404.56922   -52644.246   -58813.205   -52569.312 
   50000    2395.9815   -1329.8663   -52713.006   -58799.017   -52959.613 
   90000    2424.6396   -36.667774   -52658.221   -58817.027   -52665.017 
Loop time of 5945.25 on 2 procs for 49505 steps with 19652 atoms

Performance: 0.719 ns/day, 33.359 hours/ns, 8.327 timesteps/s
90.1% CPU use with 2 MPI tasks x no OpenMP threads

MPI task timing breakdown:
Section |  min time  |  avg time  |  max time  |%varavg| %total
---------------------------------------------------------------
Pair    | 3060.3     | 3072.3     | 3084.4     |  21.7 | 51.68
Neigh   | 1986.9     | 1997.2     | 2007.5     |  23.0 | 33.59
Comm    | 772.7      | 774.78     | 776.85     |   7.5 | 13.03
Output  | 0.079219   | 0.11306    | 0.14689    |  10.1 |  0.00
Modify  | 89.219     | 89.914     | 90.609     |   7.3 |  1.51
Other   |            | 10.92      |            |       |  0.18

Nlocal:    9826 ave 9851 max 9801 min
Histogram: 1 0 0 0 0 0 0 0 0 1
Nghost:    13587 ave 13587 max 13587 min
Histogram: 2 0 0 0 0 0 0 0 0 0
Neighs:    829524 ave 842700 max 816348 min
Histogram: 1 0 0 0 0 0 0 0 0 1

Total # of neighbors = 1659048
Ave neighs/atom = 84.4213
Neighbor list builds = 49505
Dangerous builds not checked
Setting up Verlet run ...
  Unit style    : metal
  Current step  : 90000
  Time step     : 0.001
Per MPI rank memory allocation (min/avg/max) = 12.02 | 12.02 | 12.02 Mbytes
Step Temp Press TotEng PotEng Enthalpy 
   90000    2424.6396   -36.667774   -52658.221   -58817.027   -52665.017 
   90495     2378.582   -195.88646   -52947.692   -58989.507   -52983.816 
Loop time of 66.6053 on 2 procs for 495 steps with 19652 atoms

Performance: 0.642 ns/day, 37.377 hours/ns, 7.432 timesteps/s
80.8% CPU use with 2 MPI tasks x no OpenMP threads

MPI task timing breakdown:
Section |  min time  |  avg time  |  max time  |%varavg| %total
---------------------------------------------------------------
Pair    | 32.27      | 32.56      | 32.849     |   5.1 | 48.88
Neigh   | 18.273     | 18.338     | 18.404     |   1.5 | 27.53
Comm    | 11.96      | 13.301     | 14.642     |  36.8 | 19.97
Output  | 9.6083e-05 | 0.00011659 | 0.00013709 |   0.0 |  0.00
Modify  | 1.1915     | 2.3097     | 3.4279     |  73.6 |  3.47
Other   |            | 0.09642    |            |       |  0.14

Nlocal:    9826 ave 9853 max 9799 min
Histogram: 1 0 0 0 0 0 0 0 0 1
Nghost:    13618.5 ave 13630 max 13607 min
Histogram: 1 0 0 0 0 0 0 0 0 1
Neighs:    833553 ave 846751 max 820355 min
Histogram: 1 0 0 0 0 0 0 0 0 1

Total # of neighbors = 1667106
Ave neighs/atom = 84.8314
Neighbor list builds = 495
Dangerous builds not checked
Setting up Verlet run ...
  Unit style    : metal
  Current step  : 90495
  Time step     : 0.001
Per MPI rank memory allocation (min/avg/max) = 12.02 | 12.02 | 12.02 Mbytes
Step Temp Press TotEng PotEng Enthalpy 
   90495     2378.582   -195.88646   -52947.692   -58989.507   -52983.816 
  100000    2370.5117    2117.7074   -52999.324   -59020.639   -52610.153 
  140000    2366.7858    1738.8901   -53049.898    -59061.75   -52730.585 
Loop time of 5845.64 on 2 procs for 49505 steps with 19652 atoms

Performance: 0.732 ns/day, 32.801 hours/ns, 8.469 timesteps/s
91.4% CPU use with 2 MPI tasks x no OpenMP threads

MPI task timing breakdown:
Section |  min time  |  avg time  |  max time  |%varavg| %total
---------------------------------------------------------------
Pair    | 2979.8     | 2991.4     | 3003       |  21.2 | 51.17
Neigh   | 2008.2     | 2012.3     | 2016.5     |   9.3 | 34.42
Comm    | 736.84     | 749.88     | 762.91     |  47.6 | 12.83
Output  | 0.091908   | 0.091938   | 0.091968   |   0.0 |  0.00
Modify  | 78.61      | 81.334     | 84.058     |  30.2 |  1.39
Other   |            | 10.6       |            |       |  0.18

Nlocal:    9826 ave 9895 max 9757 min
Histogram: 1 0 0 0 0 0 0 0 0 1
Nghost:    13624 ave 13663 max 13585 min
Histogram: 1 0 0 0 0 0 0 0 0 1
Neighs:    837536 ave 837903 max 837168 min
Histogram: 1 0 0 0 0 0 0 0 0 1

Total # of neighbors = 1675071
Ave neighs/atom = 85.2367
Neighbor list builds = 49505
Dangerous builds not checked
Setting up Verlet run ...
  Unit style    : metal
  Current step  : 140000
  Time step     : 0.001
Per MPI rank memory allocation (min/avg/max) = 12.06 | 12.06 | 12.06 Mbytes
Step Temp Press TotEng PotEng Enthalpy 
  140000    2366.7858    1738.8901   -53049.898    -59061.75   -52730.585 
  140495     2337.844   -119.74122   -53092.855   -59031.192    -53114.89 
Loop time of 47.0456 on 2 procs for 495 steps with 19652 atoms

Performance: 0.909 ns/day, 26.400 hours/ns, 10.522 timesteps/s
99.4% CPU use with 2 MPI tasks x no OpenMP threads

MPI task timing breakdown:
Section |  min time  |  avg time  |  max time  |%varavg| %total
---------------------------------------------------------------
Pair    | 25.615     | 25.637     | 25.659     |   0.4 | 54.49
Neigh   | 19.123     | 19.301     | 19.48      |   4.1 | 41.03
Comm    | 1.4638     | 1.6247     | 1.7855     |  12.6 |  3.45
Output  | 7.1049e-05 | 8.4996e-05 | 9.8944e-05 |   0.0 |  0.00
Modify  | 0.37236    | 0.37312    | 0.37388    |   0.1 |  0.79
Other   |            | 0.1096     |            |       |  0.23

Nlocal:    9826 ave 9854 max 9798 min
Histogram: 1 0 0 0 0 0 0 0 0 1
Nghost:    13563 ave 13573 max 13553 min
Histogram: 1 0 0 0 0 0 0 0 0 1
Neighs:    835412 ave 839736 max 831087 min
Histogram: 1 0 0 0 0 0 0 0 0 1

Total # of neighbors = 1670823
Ave neighs/atom = 85.0205
Neighbor list builds = 495
Dangerous builds not checked
Setting up Verlet run ...
  Unit style    : metal
  Current step  : 140495
  Time step     : 0.001
Per MPI rank memory allocation (min/avg/max) = 12.06 | 12.06 | 12.06 Mbytes
Step Temp Press TotEng PotEng Enthalpy 
  140495     2337.844   -119.74122   -53092.855   -59031.192    -53114.89 
  150000    2301.9264   -773.46631   -53289.398   -59136.501   -53431.356 
  190000    2326.4327    417.79613   -53198.252   -59107.603   -53121.587 
Loop time of 5615.48 on 2 procs for 49505 steps with 19652 atoms

Performance: 0.762 ns/day, 31.509 hours/ns, 8.816 timesteps/s
96.1% CPU use with 2 MPI tasks x no OpenMP threads

MPI task timing breakdown:
Section |  min time  |  avg time  |  max time  |%varavg| %total
---------------------------------------------------------------
Pair    | 3058.2     | 3070.7     | 3083.1     |  22.4 | 54.68
Neigh   | 2076.9     | 2078.2     | 2079.6     |   3.0 | 37.01
Comm    | 385.42     | 394.29     | 403.17     |  44.7 |  7.02
Output  | 3.8034     | 3.8035     | 3.8035     |   0.0 |  0.07
Modify  | 52.592     | 57.399     | 62.207     |  63.5 |  1.02
Other   |            | 11.07      |            |       |  0.20

Nlocal:    9826 ave 9862 max 9790 min
Histogram: 1 0 0 0 0 0 0 0 0 1
Nghost:    13595.5 ave 13606 max 13585 min
Histogram: 1 0 0 0 0 0 0 0 0 1
Neighs:    838140 ave 852048 max 824231 min
Histogram: 1 0 0 0 0 0 0 0 0 1

Total # of neighbors = 1676279
Ave neighs/atom = 85.2981
Neighbor list builds = 49505
Dangerous builds not checked
Setting up Verlet run ...
  Unit style    : metal
  Current step  : 190000
  Time step     : 0.001
Per MPI rank memory allocation (min/avg/max) = 12.08 | 12.08 | 12.08 Mbytes
Step Temp Press TotEng PotEng Enthalpy 
  190000    2326.4327    417.79613   -53198.252   -59107.603   -53121.587 
  190495    2271.7039   -385.74787   -53488.662   -59258.997   -53559.151 
Loop time of 54.4557 on 2 procs for 495 steps with 19652 atoms

Performance: 0.785 ns/day, 30.559 hours/ns, 9.090 timesteps/s
98.3% CPU use with 2 MPI tasks x no OpenMP threads

MPI task timing breakdown:
Section |  min time  |  avg time  |  max time  |%varavg| %total
---------------------------------------------------------------
Pair    | 30.301     | 30.396     | 30.492     |   1.7 | 55.82
Neigh   | 20.346     | 20.989     | 21.632     |  14.0 | 38.54
Comm    | 1.5589     | 2.307      | 3.055      |  49.3 |  4.24
Output  | 9.7036e-05 | 0.00012743 | 0.00015783 |   0.0 |  0.00
Modify  | 0.64069    | 0.64957    | 0.65844    |   1.1 |  1.19
Other   |            | 0.114      |            |       |  0.21

Nlocal:    9826 ave 9844 max 9808 min
Histogram: 1 0 0 0 0 0 0 0 0 1
Nghost:    13570 ave 13575 max 13565 min
Histogram: 1 0 0 0 0 0 0 0 0 1
Neighs:    841148 ave 851393 max 830904 min
Histogram: 1 0 0 0 0 0 0 0 0 1

Total # of neighbors = 1682297
Ave neighs/atom = 85.6044
Neighbor list builds = 495
Dangerous builds not checked
Setting up Verlet run ...
  Unit style    : metal
  Current step  : 190495
  Time step     : 0.001
Per MPI rank memory allocation (min/avg/max) = 12.08 | 12.08 | 12.08 Mbytes
Step Temp Press TotEng PotEng Enthalpy 
  190495    2271.7039   -385.74787   -53488.662   -59258.997   -53559.151 
  200000    2264.8188    1283.6624   -53610.715   -59363.561   -53377.218 
  240000    2250.3622    1920.3759   -53579.102   -59295.227   -53229.363 
Loop time of 5905.55 on 2 procs for 49505 steps with 19652 atoms

Performance: 0.724 ns/day, 33.137 hours/ns, 8.383 timesteps/s
97.8% CPU use with 2 MPI tasks x no OpenMP threads

MPI task timing breakdown:
Section |  min time  |  avg time  |  max time  |%varavg| %total
---------------------------------------------------------------
Pair    | 3237.9     | 3275.2     | 3312.6     |  65.3 | 55.46
Neigh   | 2173.8     | 2191.7     | 2209.6     |  38.2 | 37.11
Comm    | 283.55     | 339.65     | 395.75     | 304.4 |  5.75
Output  | 0.089941   | 0.089986   | 0.090032   |   0.0 |  0.00
Modify  | 86.312     | 86.407     | 86.503     |   1.0 |  1.46
Other   |            | 12.45      |            |       |  0.21

Nlocal:    9826 ave 9835 max 9817 min
Histogram: 1 0 0 0 0 0 0 0 0 1
Nghost:    13687 ave 13711 max 13663 min
Histogram: 1 0 0 0 0 0 0 0 0 1
Neighs:    843964 ave 855449 max 832480 min
Histogram: 1 0 0 0 0 0 0 0 0 1

Total # of neighbors = 1687929
Ave neighs/atom = 85.891
Neighbor list builds = 49505
Dangerous builds not checked
Setting up Verlet run ...
  Unit style    : metal
  Current step  : 240000
  Time step     : 0.001
Per MPI rank memory allocation (min/avg/max) = 12.09 | 12.09 | 12.1 Mbytes
Step Temp Press TotEng PotEng Enthalpy 
  240000    2250.3622    1920.3759   -53579.102   -59295.227   -53229.363 
  240495    2226.1624    900.50714    -53779.06   -59433.715   -53615.503 
Loop time of 56.3999 on 2 procs for 495 steps with 19652 atoms

Performance: 0.758 ns/day, 31.650 hours/ns, 8.777 timesteps/s
99.3% CPU use with 2 MPI tasks x no OpenMP threads

MPI task timing breakdown:
Section |  min time  |  avg time  |  max time  |%varavg| %total
---------------------------------------------------------------
Pair    | 30.535     | 31.408     | 32.281     |  15.6 | 55.69
Neigh   | 21.572     | 21.897     | 22.221     |   6.9 | 38.82
Comm    | 1.3522     | 2.5531     | 3.7539     |  75.2 |  4.53
Output  | 8.7023e-05 | 0.00011051 | 0.00013399 |   0.0 |  0.00
Modify  | 0.41953    | 0.42225    | 0.42497    |   0.4 |  0.75
Other   |            | 0.12       |            |       |  0.21

Nlocal:    9826 ave 9862 max 9790 min
Histogram: 1 0 0 0 0 0 0 0 0 1
Nghost:    13653.5 ave 13719 max 13588 min
Histogram: 1 0 0 0 0 0 0 0 0 1
Neighs:    846172 ave 860312 max 832033 min
Histogram: 1 0 0 0 0 0 0 0 0 1

Total # of neighbors = 1692345
Ave neighs/atom = 86.1157
Neighbor list builds = 495
Dangerous builds not checked
Setting up Verlet run ...
  Unit style    : metal
  Current step  : 240495
  Time step     : 0.001
Per MPI rank memory allocation (min/avg/max) = 12.09 | 12.09 | 12.1 Mbytes
Step Temp Press TotEng PotEng Enthalpy 
  240495    2226.1624    900.50714    -53779.06   -59433.715   -53615.503 
  250000    2195.4871   -250.90712   -53938.539   -59515.276   -53984.015 
  290000    2207.7926    324.75592   -53881.746    -59489.74   -53822.837 
Loop time of 5693.36 on 2 procs for 49505 steps with 19652 atoms

Performance: 0.751 ns/day, 31.946 hours/ns, 8.695 timesteps/s
99.1% CPU use with 2 MPI tasks x no OpenMP threads

MPI task timing breakdown:
Section |  min time  |  avg time  |  max time  |%varavg| %total
---------------------------------------------------------------
Pair    | 3226.8     | 3227.9     | 3229.1     |   2.0 | 56.70
Neigh   | 2078.8     | 2098.7     | 2118.6     |  43.5 | 36.86
Comm    | 295.3      | 314.41     | 333.52     | 107.8 |  5.52
Output  | 0.057862   | 0.057909   | 0.057957   |   0.0 |  0.00
Modify  | 40.627     | 40.686     | 40.745     |   0.9 |  0.71
Other   |            | 11.64      |            |       |  0.20

Nlocal:    9826 ave 9826 max 9826 min
Histogram: 2 0 0 0 0 0 0 0 0 0
Nghost:    13683 ave 13714 max 13652 min
Histogram: 1 0 0 0 0 0 0 0 0 1
Neighs:    847452 ave 856320 max 838584 min
Histogram: 1 0 0 0 0 0 0 0 0 1

Total # of neighbors = 1694904
Ave neighs/atom = 86.2459
Neighbor list builds = 49505
Dangerous builds not checked
Setting up Verlet run ...
  Unit style    : metal
  Current step  : 290000
  Time step     : 0.001
Per MPI rank memory allocation (min/avg/max) = 12.1 | 12.1 | 12.1 Mbytes
Step Temp Press TotEng PotEng Enthalpy 
  290000    2207.7926    324.75592   -53881.746    -59489.74   -53822.837 
  290495    2168.1888     1038.711   -54086.218   -59593.615    -53898.63 
Loop time of 62.7895 on 2 procs for 495 steps with 19652 atoms

Performance: 0.681 ns/day, 35.235 hours/ns, 7.883 timesteps/s
94.5% CPU use with 2 MPI tasks x no OpenMP threads

MPI task timing breakdown:
Section |  min time  |  avg time  |  max time  |%varavg| %total
---------------------------------------------------------------
Pair    | 34.356     | 34.697     | 35.038     |   5.8 | 55.26
Neigh   | 20.39      | 21.431     | 22.471     |  22.5 | 34.13
Comm    | 4.7001     | 5.4602     | 6.2204     |  32.5 |  8.70
Output  | 8.7976e-05 | 0.0001024  | 0.00011683 |   0.0 |  0.00
Modify  | 1.0227     | 1.0773     | 1.1318     |   5.3 |  1.72
Other   |            | 0.1242     |            |       |  0.20

Nlocal:    9826 ave 9854 max 9798 min
Histogram: 1 0 0 0 0 0 0 0 0 1
Nghost:    13713 ave 13718 max 13708 min
Histogram: 1 0 0 0 0 0 0 0 0 1
Neighs:    851100 ave 857251 max 844948 min
Histogram: 1 0 0 0 0 0 0 0 0 1

Total # of neighbors = 1702199
Ave neighs/atom = 86.6171
Neighbor list builds = 495
Dangerous builds not checked
Setting up Verlet run ...
  Unit style    : metal
  Current step  : 290495
  Time step     : 0.001
Per MPI rank memory allocation (min/avg/max) = 12.1 | 12.1 | 12.1 Mbytes
Step Temp Press TotEng PotEng Enthalpy 
  290495    2168.1888     1038.711   -54086.218   -59593.615    -53898.63 
  300000    2176.3587   -985.35427   -54034.823   -59562.973   -54213.407 
  340000    2146.8012   -2265.4609   -54167.575   -59620.646   -54578.027 
Loop time of 5509.51 on 2 procs for 49505 steps with 19652 atoms

Performance: 0.776 ns/day, 30.914 hours/ns, 8.985 timesteps/s
98.4% CPU use with 2 MPI tasks x no OpenMP threads

MPI task timing breakdown:
Section |  min time  |  avg time  |  max time  |%varavg| %total
---------------------------------------------------------------
Pair    | 3100       | 3100.4     | 3100.8     |   0.7 | 56.27
Neigh   | 2011.6     | 2027.9     | 2044.1     |  36.1 | 36.81
Comm    | 309.89     | 326.31     | 342.72     |  90.9 |  5.92
Output  | 0.12285    | 0.1229     | 0.12294    |   0.0 |  0.00
Modify  | 43.572     | 43.727     | 43.881     |   2.3 |  0.79
Other   |            | 11.14      |            |       |  0.20

Nlocal:    9826 ave 9835 max 9817 min
Histogram: 1 0 0 0 0 0 0 0 0 1
Nghost:    13649.5 ave 13660 max 13639 min
Histogram: 1 0 0 0 0 0 0 0 0 1
Neighs:    848449 ave 858286 max 838612 min
Histogram: 1 0 0 0 0 0 0 0 0 1

Total # of neighbors = 1696898
Ave neighs/atom = 86.3473
Neighbor list builds = 49505
Dangerous builds not checked
Setting up Verlet run ...
  Unit style    : metal
  Current step  : 340000
  Time step     : 0.001
Per MPI rank memory allocation (min/avg/max) = 12.1 | 12.1 | 12.1 Mbytes
Step Temp Press TotEng PotEng Enthalpy 
  340000    2146.8012   -2265.4609   -54167.575   -59620.646   -54578.027 
  340495    2104.3866   -995.01086   -54374.064   -59719.397   -54553.445 
Loop time of 58.5173 on 2 procs for 495 steps with 19652 atoms

Performance: 0.731 ns/day, 32.838 hours/ns, 8.459 timesteps/s
93.8% CPU use with 2 MPI tasks x no OpenMP threads

MPI task timing breakdown:
Section |  min time  |  avg time  |  max time  |%varavg| %total
---------------------------------------------------------------
Pair    | 33.151     | 33.371     | 33.59      |   3.8 | 57.03
Neigh   | 21.075     | 21.357     | 21.64      |   6.1 | 36.50
Comm    | 2.5313     | 3.0352     | 3.5391     |  28.9 |  5.19
Output  | 7.987e-05  | 9.8348e-05 | 0.00011683 |   0.0 |  0.00
Modify  | 0.63452    | 0.63596    | 0.6374     |   0.2 |  1.09
Other   |            | 0.118      |            |       |  0.20

Nlocal:    9826 ave 9838 max 9814 min
Histogram: 1 0 0 0 0 0 0 0 0 1
Nghost:    13744 ave 13765 max 13723 min
Histogram: 1 0 0 0 0 0 0 0 0 1
Neighs:    852736 ave 863947 max 841524 min
Histogram: 1 0 0 0 0 0 0 0 0 1

Total # of neighbors = 1705471
Ave neighs/atom = 86.7836
Neighbor list builds = 495
Dangerous builds not checked
Setting up Verlet run ...
  Unit style    : metal
  Current step  : 340495
  Time step     : 0.001
Per MPI rank memory allocation (min/avg/max) = 12.1 | 12.1 | 12.1 Mbytes
Step Temp Press TotEng PotEng Enthalpy 
  340495    2104.3866   -995.01086   -54374.064   -59719.397   -54553.445 
  350000    2083.5936    -1784.902   -54516.404   -59808.921   -54837.775 
  390000    2108.4352   -1614.4902   -54365.068   -59720.686   -54656.329 
Loop time of 5834.17 on 2 procs for 49505 steps with 19652 atoms

Performance: 0.733 ns/day, 32.736 hours/ns, 8.485 timesteps/s
98.8% CPU use with 2 MPI tasks x no OpenMP threads

MPI task timing breakdown:
Section |  min time  |  avg time  |  max time  |%varavg| %total
---------------------------------------------------------------
Pair    | 3313.2     | 3316       | 3318.8     |   4.8 | 56.84
Neigh   | 2133.3     | 2159.5     | 2185.7     |  56.4 | 37.02
Comm    | 274.84     | 303.93     | 333.02     | 166.9 |  5.21
Output  | 0.3168     | 0.31686    | 0.31692    |   0.0 |  0.01
Modify  | 42.054     | 42.454     | 42.855     |   6.1 |  0.73
Other   |            | 11.94      |            |       |  0.20

Nlocal:    9826 ave 9853 max 9799 min
Histogram: 1 0 0 0 0 0 0 0 0 1
Nghost:    13668.5 ave 13674 max 13663 min
Histogram: 1 0 0 0 0 0 0 0 0 1
Neighs:    852030 ave 856904 max 847155 min
Histogram: 1 0 0 0 0 0 0 0 0 1

Total # of neighbors = 1704059
Ave neighs/atom = 86.7117
Neighbor list builds = 49505
Dangerous builds not checked
Setting up Verlet run ...
  Unit style    : metal
  Current step  : 390000
  Time step     : 0.001
Per MPI rank memory allocation (min/avg/max) = 12.11 | 12.11 | 12.11 Mbytes
Step Temp Press TotEng PotEng Enthalpy 
  390000    2108.4352   -1614.4902   -54365.068   -59720.686   -54656.329 
  390495     2051.567   -1551.3325   -54672.533     -59883.7   -54951.018 
Loop time of 53.6484 on 2 procs for 495 steps with 19652 atoms

Performance: 0.797 ns/day, 30.106 hours/ns, 9.227 timesteps/s
99.8% CPU use with 2 MPI tasks x no OpenMP threads

MPI task timing breakdown:
Section |  min time  |  avg time  |  max time  |%varavg| %total
---------------------------------------------------------------
Pair    | 29.771     | 29.958     | 30.145     |   3.4 | 55.84
Neigh   | 21.173     | 21.668     | 22.162     |  10.6 | 40.39
Comm    | 0.83526    | 1.51       | 2.1846     |  54.9 |  2.81
Output  | 8.6069e-05 | 0.00011706 | 0.00014806 |   0.0 |  0.00
Modify  | 0.38661    | 0.39609    | 0.40557    |   1.5 |  0.74
Other   |            | 0.1168     |            |       |  0.22

Nlocal:    9826 ave 9852 max 9800 min
Histogram: 1 0 0 0 0 0 0 0 0 1
Nghost:    13738 ave 13755 max 13721 min
Histogram: 1 0 0 0 0 0 0 0 0 1
Neighs:    856040 ave 859601 max 852479 min
Histogram: 1 0 0 0 0 0 0 0 0 1

Total # of neighbors = 1712080
Ave neighs/atom = 87.1199
Neighbor list builds = 495
Dangerous builds not checked
Setting up Verlet run ...
  Unit style    : metal
  Current step  : 390495
  Time step     : 0.001
Per MPI rank memory allocation (min/avg/max) = 12.11 | 12.11 | 12.11 Mbytes
Step Temp Press TotEng PotEng Enthalpy 
  390495     2051.567   -1551.3325   -54672.533     -59883.7   -54951.018 
  400000    2029.9615    1335.6684   -54795.786   -59952.073   -54557.146 
  440000    2040.5015    618.45685   -54750.488   -59933.548   -54639.878 
Loop time of 5796.88 on 2 procs for 49505 steps with 19652 atoms

Performance: 0.738 ns/day, 32.527 hours/ns, 8.540 timesteps/s
98.4% CPU use with 2 MPI tasks x no OpenMP threads

MPI task timing breakdown:
Section |  min time  |  avg time  |  max time  |%varavg| %total
---------------------------------------------------------------
Pair    | 3258.8     | 3267       | 3275.2     |  14.4 | 56.36
Neigh   | 2170.4     | 2187.5     | 2204.6     |  36.6 | 37.74
Comm    | 277.91     | 287.29     | 296.67     |  55.3 |  4.96
Output  | 1.0912     | 1.0913     | 1.0913     |   0.0 |  0.02
Modify  | 42.225     | 42.459     | 42.692     |   3.6 |  0.73
Other   |            | 11.51      |            |       |  0.20

Nlocal:    9826 ave 9872 max 9780 min
Histogram: 1 0 0 0 0 0 0 0 0 1
Nghost:    13718 ave 13731 max 13705 min
Histogram: 1 0 0 0 0 0 0 0 0 1
Neighs:    859307 ave 862527 max 856087 min
Histogram: 1 0 0 0 0 0 0 0 0 1

Total # of neighbors = 1718614
Ave neighs/atom = 87.4524
Neighbor list builds = 49505
Dangerous builds not checked
Setting up Verlet run ...
  Unit style    : metal
  Current step  : 440000
  Time step     : 0.001
Per MPI rank memory allocation (min/avg/max) = 12.11 | 12.11 | 12.11 Mbytes
Step Temp Press TotEng PotEng Enthalpy 
  440000    2040.5015    618.45685   -54750.488   -59933.548   -54639.878 
  440495    2019.9808    70.633873   -54979.259   -60110.194   -54966.674 
Loop time of 54.7922 on 2 procs for 495 steps with 19652 atoms

Performance: 0.781 ns/day, 30.748 hours/ns, 9.034 timesteps/s
99.1% CPU use with 2 MPI tasks x no OpenMP threads

MPI task timing breakdown:
Section |  min time  |  avg time  |  max time  |%varavg| %total
---------------------------------------------------------------
Pair    | 30.607     | 31.152     | 31.697     |   9.8 | 56.86
Neigh   | 20.49      | 20.816     | 21.142     |   7.1 | 37.99
Comm    | 1.4274     | 2.3081     | 3.1888     |  58.0 |  4.21
Output  | 9.2983e-05 | 0.000139   | 0.00018501 |   0.0 |  0.00
Modify  | 0.39759    | 0.4055     | 0.41342    |   1.2 |  0.74
Other   |            | 0.1104     |            |       |  0.20

Nlocal:    9826 ave 9844 max 9808 min
Histogram: 1 0 0 0 0 0 0 0 0 1
Nghost:    13757 ave 13761 max 13753 min
Histogram: 1 0 0 0 0 0 0 0 0 1
Neighs:    862497 ave 868601 max 856393 min
Histogram: 1 0 0 0 0 0 0 0 0 1

Total # of neighbors = 1724994
Ave neighs/atom = 87.777
Neighbor list builds = 495
Dangerous builds not checked
Setting up Verlet run ...
  Unit style    : metal
  Current step  : 440495
  Time step     : 0.001
Per MPI rank memory allocation (min/avg/max) = 12.11 | 12.11 | 12.11 Mbytes
Step Temp Press TotEng PotEng Enthalpy 
  440495    2019.9808    70.633873   -54979.259   -60110.194   -54966.674 
  450000    2001.0366     -105.881   -55037.094   -60119.909   -55055.947 
  490000    2009.7026   -210.09106   -55038.472     -60143.3   -55075.848 
Loop time of 5473.92 on 2 procs for 49505 steps with 19652 atoms

Performance: 0.781 ns/day, 30.715 hours/ns, 9.044 timesteps/s
97.2% CPU use with 2 MPI tasks x no OpenMP threads

MPI task timing breakdown:
Section |  min time  |  avg time  |  max time  |%varavg| %total
---------------------------------------------------------------
Pair    | 3016.4     | 3027.6     | 3038.7     |  20.3 | 55.31
Neigh   | 2014.9     | 2017.8     | 2020.7     |   6.5 | 36.86
Comm    | 357        | 371.53     | 386.06     |  75.4 |  6.79
Output  | 2.7381     | 2.7382     | 2.7382     |   0.0 |  0.05
Modify  | 43.23      | 43.696     | 44.161     |   7.0 |  0.80
Other   |            | 10.61      |            |       |  0.19

Nlocal:    9826 ave 9835 max 9817 min
Histogram: 1 0 0 0 0 0 0 0 0 1
Nghost:    13776 ave 13795 max 13757 min
Histogram: 1 0 0 0 0 0 0 0 0 1
Neighs:    863618 ave 874589 max 852647 min
Histogram: 1 0 0 0 0 0 0 0 0 1

Total # of neighbors = 1727236
Ave neighs/atom = 87.8911
Neighbor list builds = 49505
Dangerous builds not checked
Setting up Verlet run ...
  Unit style    : metal
  Current step  : 490000
  Time step     : 0.001
Per MPI rank memory allocation (min/avg/max) = 12.11 | 12.11 | 12.11 Mbytes
Step Temp Press TotEng PotEng Enthalpy 
  490000    2009.7026   -210.09106   -55038.472     -60143.3   -55075.848 
  490495    1972.1565    517.59873   -55263.117   -60272.574   -55171.383 
Loop time of 54.0617 on 2 procs for 495 steps with 19652 atoms

Performance: 0.791 ns/day, 30.338 hours/ns, 9.156 timesteps/s
99.5% CPU use with 2 MPI tasks x no OpenMP threads

MPI task timing breakdown:
Section |  min time  |  avg time  |  max time  |%varavg| %total
---------------------------------------------------------------
Pair    | 30.332     | 30.579     | 30.825     |   4.5 | 56.56
Neigh   | 20.502     | 20.587     | 20.671     |   1.9 | 38.08
Comm    | 2.2364     | 2.4007     | 2.565      |  10.6 |  4.44
Output  | 8.5831e-05 | 0.00011289 | 0.00013995 |   0.0 |  0.00
Modify  | 0.38786    | 0.38901    | 0.39017    |   0.2 |  0.72
Other   |            | 0.1067     |            |       |  0.20

Nlocal:    9826 ave 9845 max 9807 min
Histogram: 1 0 0 0 0 0 0 0 0 1
Nghost:    13784.5 ave 13812 max 13757 min
Histogram: 1 0 0 0 0 0 0 0 0 1
Neighs:    866251 ave 878486 max 854016 min
Histogram: 1 0 0 0 0 0 0 0 0 1

Total # of neighbors = 1732502
Ave neighs/atom = 88.1591
Neighbor list builds = 495
Dangerous builds not checked
Setting up Verlet run ...
  Unit style    : metal
  Current step  : 490495
  Time step     : 0.001
Per MPI rank memory allocation (min/avg/max) = 12.11 | 12.11 | 12.11 Mbytes
Step Temp Press TotEng PotEng Enthalpy 
  490495    1972.1565    517.59873   -55263.117   -60272.574   -55171.383 
  500000    1931.9177   -842.33101   -55340.892   -60248.139    -55490.38 
  540000    1951.7512    1645.9195   -55302.353   -60259.979   -55010.911 
Loop time of 4834.36 on 2 procs for 49505 steps with 19652 atoms

Performance: 0.885 ns/day, 27.126 hours/ns, 10.240 timesteps/s
98.9% CPU use with 2 MPI tasks x no OpenMP threads

MPI task timing breakdown:
Section |  min time  |  avg time  |  max time  |%varavg| %total
---------------------------------------------------------------
Pair    | 2666.6     | 2699.5     | 2732.3     |  63.2 | 55.84
Neigh   | 1795.5     | 1827.3     | 1859       |  74.2 | 37.80
Comm    | 198.69     | 263.59     | 328.5      | 399.7 |  5.45
Output  | 0.05575    | 0.055786   | 0.055821   |   0.0 |  0.00
Modify  | 34.43      | 34.513     | 34.596     |   1.4 |  0.71
Other   |            | 9.466      |            |       |  0.20

Nlocal:    9826 ave 9852 max 9800 min
Histogram: 1 0 0 0 0 0 0 0 0 1
Nghost:    13804.5 ave 13838 max 13771 min
Histogram: 1 0 0 0 0 0 0 0 0 1
Neighs:    867292 ave 879596 max 854988 min
Histogram: 1 0 0 0 0 0 0 0 0 1

Total # of neighbors = 1734584
Ave neighs/atom = 88.265
Neighbor list builds = 49505
Dangerous builds not checked
Setting up Verlet run ...
  Unit style    : metal
  Current step  : 540000
  Time step     : 0.001
Per MPI rank memory allocation (min/avg/max) = 12.11 | 12.11 | 12.11 Mbytes
Step Temp Press TotEng PotEng Enthalpy 
  540000    1951.7512    1645.9195   -55302.353   -60259.979   -55010.911 
  540495    1914.2019    478.28324   -55559.995   -60422.242   -55475.656 
Loop time of 48.5975 on 2 procs for 495 steps with 19652 atoms

Performance: 0.880 ns/day, 27.271 hours/ns, 10.186 timesteps/s
99.4% CPU use with 2 MPI tasks x no OpenMP threads

MPI task timing breakdown:
Section |  min time  |  avg time  |  max time  |%varavg| %total
---------------------------------------------------------------
Pair    | 26.916     | 27.363     | 27.81      |   8.5 | 56.31
Neigh   | 17.955     | 18.474     | 18.993     |  12.1 | 38.01
Comm    | 2.2367     | 2.3155     | 2.3944     |   5.2 |  4.76
Output  | 8.7023e-05 | 0.0001111  | 0.00013518 |   0.0 |  0.00
Modify  | 0.33668    | 0.34684    | 0.357      |   1.7 |  0.71
Other   |            | 0.09802    |            |       |  0.20

Nlocal:    9826 ave 9860 max 9792 min
Histogram: 1 0 0 0 0 0 0 0 0 1
Nghost:    13801 ave 13832 max 13770 min
Histogram: 1 0 0 0 0 0 0 0 0 1
Neighs:    870774 ave 884980 max 856569 min
Histogram: 1 0 0 0 0 0 0 0 0 1

Total # of neighbors = 1741549
Ave neighs/atom = 88.6194
Neighbor list builds = 495
Dangerous builds not checked
Setting up Verlet run ...
  Unit style    : metal
  Current step  : 540495
  Time step     : 0.001
Per MPI rank memory allocation (min/avg/max) = 12.11 | 12.11 | 12.11 Mbytes
Step Temp Press TotEng PotEng Enthalpy 
  540495    1914.2019    478.28324   -55559.995   -60422.242   -55475.656 
  550000    1915.8251   -259.03998   -55547.334   -60413.704    -55593.08 
  590000    1918.4553    1164.8339   -55589.187   -60462.239   -55384.121 
Loop time of 5074.13 on 2 procs for 49505 steps with 19652 atoms

Performance: 0.843 ns/day, 28.471 hours/ns, 9.756 timesteps/s
98.8% CPU use with 2 MPI tasks x no OpenMP threads

MPI task timing breakdown:
Section |  min time  |  avg time  |  max time  |%varavg| %total
---------------------------------------------------------------
Pair    | 2816.8     | 2835.1     | 2853.4     |  34.3 | 55.87
Neigh   | 1869.5     | 1904.7     | 1940       |  80.8 | 37.54
Comm    | 229.43     | 283.12     | 336.82     | 319.1 |  5.58
Output  | 0.056554   | 0.056597   | 0.056641   |   0.0 |  0.00
Modify  | 40.851     | 41.01      | 41.169     |   2.5 |  0.81
Other   |            | 10.1       |            |       |  0.20

Nlocal:    9826 ave 9848 max 9804 min
Histogram: 1 0 0 0 0 0 0 0 0 1
Nghost:    13792 ave 13793 max 13791 min
Histogram: 1 0 0 0 0 0 0 0 0 1
Neighs:    872180 ave 884757 max 859603 min
Histogram: 1 0 0 0 0 0 0 0 0 1

Total # of neighbors = 1744360
Ave neighs/atom = 88.7625
Neighbor list builds = 49505
Dangerous builds not checked
Setting up Verlet run ...
  Unit style    : metal
  Current step  : 590000
  Time step     : 0.001
Per MPI rank memory allocation (min/avg/max) = 12.11 | 12.11 | 12.11 Mbytes
Step Temp Press TotEng PotEng Enthalpy 
  590000    1918.4553    1164.8339   -55589.187   -60462.239   -55384.121 
  590495    1854.5834    2166.6715   -55816.562   -60527.373   -55436.129 
Loop time of 45.6247 on 2 procs for 495 steps with 19652 atoms

Performance: 0.937 ns/day, 25.603 hours/ns, 10.849 timesteps/s
100.0% CPU use with 2 MPI tasks x no OpenMP threads

MPI task timing breakdown:
Section |  min time  |  avg time  |  max time  |%varavg| %total
---------------------------------------------------------------
Pair    | 25.357     | 25.66      | 25.963     |   6.0 | 56.24
Neigh   | 16.904     | 17.375     | 17.845     |  11.3 | 38.08
Comm    | 2.0084     | 2.1819     | 2.3553     |  11.7 |  4.78
Output  | 5.0068e-05 | 7.6532e-05 | 0.000103   |   0.0 |  0.00
Modify  | 0.31199    | 0.31803    | 0.32406    |   1.1 |  0.70
Other   |            | 0.08972    |            |       |  0.20

Nlocal:    9826 ave 9858 max 9794 min
Histogram: 1 0 0 0 0 0 0 0 0 1
Nghost:    13837 ave 13860 max 13814 min
Histogram: 1 0 0 0 0 0 0 0 0 1
Neighs:    874668 ave 880033 max 869302 min
Histogram: 1 0 0 0 0 0 0 0 0 1

Total # of neighbors = 1749335
Ave neighs/atom = 89.0156
Neighbor list builds = 495
Dangerous builds not checked
Setting up Verlet run ...
  Unit style    : metal
  Current step  : 590495
  Time step     : 0.001
Per MPI rank memory allocation (min/avg/max) = 12.11 | 12.11 | 12.11 Mbytes
Step Temp Press TotEng PotEng Enthalpy 
  590495    1854.5834    2166.6715   -55816.562   -60527.373   -55436.129 
  600000    1866.8682   -305.05801   -55871.697   -60613.713   -55925.254 
  640000    1870.4847    900.13827   -55896.726   -60647.928   -55739.018 
Loop time of 4508.42 on 2 procs for 49505 steps with 19652 atoms

Performance: 0.949 ns/day, 25.297 hours/ns, 10.981 timesteps/s
98.7% CPU use with 2 MPI tasks x no OpenMP threads

MPI task timing breakdown:
Section |  min time  |  avg time  |  max time  |%varavg| %total
---------------------------------------------------------------
Pair    | 2461.9     | 2485.3     | 2508.6     |  46.8 | 55.12
Neigh   | 1739.6     | 1743.5     | 1747.5     |   9.4 | 38.67
Comm    | 209.03     | 235.74     | 262.46     | 174.0 |  5.23
Output  | 0.060416   | 0.060459   | 0.060502   |   0.0 |  0.00
Modify  | 34.313     | 34.923     | 35.533     |  10.3 |  0.77
Other   |            | 8.885      |            |       |  0.20

Nlocal:    9826 ave 9856 max 9796 min
Histogram: 1 0 0 0 0 0 0 0 0 1
Nghost:    13880 ave 13882 max 13878 min
Histogram: 1 0 0 0 0 0 0 0 0 1
Neighs:    876160 ave 880596 max 871725 min
Histogram: 1 0 0 0 0 0 0 0 0 1

Total # of neighbors = 1752321
Ave neighs/atom = 89.1676
Neighbor list builds = 49505
Dangerous builds not checked
Setting up Verlet run ...
  Unit style    : metal
  Current step  : 640000
  Time step     : 0.001
Per MPI rank memory allocation (min/avg/max) = 12.11 | 12.11 | 12.11 Mbytes
Step Temp Press TotEng PotEng Enthalpy 
  640000    1870.4847    900.13827   -55896.726   -60647.928   -55739.018 
  640495    1809.9087    309.55009    -56101.61   -60698.943   -56047.469 
Loop time of 48.1846 on 2 procs for 495 steps with 19652 atoms

Performance: 0.888 ns/day, 27.040 hours/ns, 10.273 timesteps/s
100.0% CPU use with 2 MPI tasks x no OpenMP threads

MPI task timing breakdown:
Section |  min time  |  avg time  |  max time  |%varavg| %total
---------------------------------------------------------------
Pair    | 27.148     | 27.189     | 27.231     |   0.8 | 56.43
Neigh   | 15.354     | 17.483     | 19.611     |  50.9 | 36.28
Comm    | 0.95437    | 3.0779     | 5.2015     | 121.0 |  6.39
Output  | 5.2214e-05 | 6.6161e-05 | 8.0109e-05 |   0.0 |  0.00
Modify  | 0.30821    | 0.33758    | 0.36695    |   5.1 |  0.70
Other   |            | 0.09711    |            |       |  0.20

Nlocal:    9826 ave 9845 max 9807 min
Histogram: 1 0 0 0 0 0 0 0 0 1
Nghost:    13875.5 ave 13907 max 13844 min
Histogram: 1 0 0 0 0 0 0 0 0 1
Neighs:    877746 ave 884558 max 870933 min
Histogram: 1 0 0 0 0 0 0 0 0 1

Total # of neighbors = 1755491
Ave neighs/atom = 89.3289
Neighbor list builds = 495
Dangerous builds not checked
Setting up Verlet run ...
  Unit style    : metal
  Current step  : 640495
  Time step     : 0.001
Per MPI rank memory allocation (min/avg/max) = 12.11 | 12.11 | 12.11 Mbytes
Step Temp Press TotEng PotEng Enthalpy 
  640495    1809.9087    309.55009    -56101.61   -60698.943   -56047.469 
  650000    1787.0427   -330.78767   -56225.348   -60764.599   -56283.155 
  690000    1814.4179    453.04297   -56188.654   -60797.441   -56109.608 
Loop time of 3761.82 on 2 procs for 49505 steps with 19652 atoms

Performance: 1.137 ns/day, 21.108 hours/ns, 13.160 timesteps/s
99.9% CPU use with 2 MPI tasks x no OpenMP threads

MPI task timing breakdown:
Section |  min time  |  avg time  |  max time  |%varavg| %total
---------------------------------------------------------------
Pair    | 2038.5     | 2057.5     | 2076.5     |  41.8 | 54.69
Neigh   | 1551.8     | 1559.7     | 1567.6     |  20.0 | 41.46
Comm    | 81.979     | 108.92     | 135.87     | 258.2 |  2.90
Output  | 0.057765   | 0.057796   | 0.057828   |   0.0 |  0.00
Modify  | 27.426     | 27.538     | 27.649     |   2.1 |  0.73
Other   |            | 8.085      |            |       |  0.21

Nlocal:    9826 ave 9826 max 9826 min
Histogram: 2 0 0 0 0 0 0 0 0 0
Nghost:    13851 ave 13853 max 13849 min
Histogram: 1 0 0 0 0 0 0 0 0 1
Neighs:    879672 ave 889729 max 869616 min
Histogram: 1 0 0 0 0 0 0 0 0 1

Total # of neighbors = 1759345
Ave neighs/atom = 89.525
Neighbor list builds = 49505
Dangerous builds not checked
Setting up Verlet run ...
  Unit style    : metal
  Current step  : 690000
  Time step     : 0.001
Per MPI rank memory allocation (min/avg/max) = 12.11 | 12.11 | 12.11 Mbytes
Step Temp Press TotEng PotEng Enthalpy 
  690000    1814.4179    453.04297   -56188.654   -60797.441   -56109.608 
  690495    1775.5729    599.42263   -56414.275   -60924.392   -56310.074 
Loop time of 35.4186 on 2 procs for 495 steps with 19652 atoms

Performance: 1.207 ns/day, 19.876 hours/ns, 13.976 timesteps/s
100.0% CPU use with 2 MPI tasks x no OpenMP threads

MPI task timing breakdown:
Section |  min time  |  avg time  |  max time  |%varavg| %total
---------------------------------------------------------------
Pair    | 19.064     | 19.249     | 19.433     |   4.2 | 54.35
Neigh   | 14.427     | 14.768     | 15.11      |   8.9 | 41.70
Comm    | 0.53527    | 1.0695     | 1.6038     |  51.7 |  3.02
Output  | 5.8889e-05 | 8.142e-05  | 0.00010395 |   0.0 |  0.00
Modify  | 0.25292    | 0.25695    | 0.26099    |   0.8 |  0.73
Other   |            | 0.07507    |            |       |  0.21

Nlocal:    9826 ave 9859 max 9793 min
Histogram: 1 0 0 0 0 0 0 0 0 1
Nghost:    13911.5 ave 13928 max 13895 min
Histogram: 1 0 0 0 0 0 0 0 0 1
Neighs:    882829 ave 888488 max 877170 min
Histogram: 1 0 0 0 0 0 0 0 0 1

Total # of neighbors = 1765658
Ave neighs/atom = 89.8462
Neighbor list builds = 495
Dangerous builds not checked
Setting up Verlet run ...
  Unit style    : metal
  Current step  : 690495
  Time step     : 0.001
Per MPI rank memory allocation (min/avg/max) = 12.11 | 12.11 | 12.11 Mbytes
Step Temp Press TotEng PotEng Enthalpy 
  690495    1775.5729    599.42263   -56414.275   -60924.392   -56310.074 
  700000    1752.2434    665.52471   -56484.558   -60935.416   -56368.907 
  740000    1745.1656   -827.85222   -56521.317   -60954.197   -56665.331 
Loop time of 3592.67 on 2 procs for 49505 steps with 19652 atoms

Performance: 1.191 ns/day, 20.159 hours/ns, 13.779 timesteps/s
100.0% CPU use with 2 MPI tasks x no OpenMP threads

MPI task timing breakdown:
Section |  min time  |  avg time  |  max time  |%varavg| %total
---------------------------------------------------------------
Pair    | 1941.7     | 1957.3     | 1972.9     |  35.2 | 54.48
Neigh   | 1495.9     | 1510.4     | 1524.9     |  37.3 | 42.04
Comm    | 60.848     | 91.154     | 121.46     | 317.4 |  2.54
Output  | 0.061354   | 0.061406   | 0.061459   |   0.0 |  0.00
Modify  | 25.688     | 25.876     | 26.065     |   3.7 |  0.72
Other   |            | 7.869      |            |       |  0.22

Nlocal:    9826 ave 9883 max 9769 min
Histogram: 1 0 0 0 0 0 0 0 0 1
Nghost:    13877.5 ave 13931 max 13824 min
Histogram: 1 0 0 0 0 0 0 0 0 1
Neighs:    882348 ave 884910 max 879786 min
Histogram: 1 0 0 0 0 0 0 0 0 1

Total # of neighbors = 1764696
Ave neighs/atom = 89.7973
Neighbor list builds = 49505
Dangerous builds not checked
Setting up Verlet run ...
  Unit style    : metal
  Current step  : 740000
  Time step     : 0.001
Per MPI rank memory allocation (min/avg/max) = 12.11 | 12.11 | 12.11 Mbytes
Step Temp Press TotEng PotEng Enthalpy 
  740000    1745.1656   -827.85222   -56521.317   -60954.197   -56665.331 
  740495    1714.5652   -470.30468   -56733.478    -61088.63   -56814.986 
Loop time of 33.1062 on 2 procs for 495 steps with 19652 atoms

Performance: 1.292 ns/day, 18.578 hours/ns, 14.952 timesteps/s
100.0% CPU use with 2 MPI tasks x no OpenMP threads

MPI task timing breakdown:
Section |  min time  |  avg time  |  max time  |%varavg| %total
---------------------------------------------------------------
Pair    | 17.664     | 17.891     | 18.118     |   5.4 | 54.04
Neigh   | 14.338     | 14.359     | 14.381     |   0.6 | 43.37
Comm    | 0.32964    | 0.53929    | 0.74894    |  28.5 |  1.63
Output  | 4.7922e-05 | 7.5936e-05 | 0.00010395 |   0.0 |  0.00
Modify  | 0.24196    | 0.24216    | 0.24236    |   0.0 |  0.73
Other   |            | 0.0747     |            |       |  0.23

Nlocal:    9826 ave 9830 max 9822 min
Histogram: 1 0 0 0 0 0 0 0 0 1
Nghost:    13917.5 ave 13948 max 13887 min
Histogram: 1 0 0 0 0 0 0 0 0 1
Neighs:    885636 ave 893703 max 877569 min
Histogram: 1 0 0 0 0 0 0 0 0 1

Total # of neighbors = 1771272
Ave neighs/atom = 90.1319
Neighbor list builds = 495
Dangerous builds not checked
Setting up Verlet run ...
  Unit style    : metal
  Current step  : 740495
  Time step     : 0.001
Per MPI rank memory allocation (min/avg/max) = 12.11 | 12.11 | 12.11 Mbytes
Step Temp Press TotEng PotEng Enthalpy 
  740495    1714.5652   -470.30468   -56733.478    -61088.63   -56814.986 
  750000     1681.665    -718.5956   -56867.084   -61138.666   -56991.403 
  790000    1683.7825    616.77469   -56881.308   -61158.269   -56774.786 
Loop time of 3611.79 on 2 procs for 49505 steps with 19652 atoms

Performance: 1.184 ns/day, 20.266 hours/ns, 13.706 timesteps/s
99.8% CPU use with 2 MPI tasks x no OpenMP threads

MPI task timing breakdown:
Section |  min time  |  avg time  |  max time  |%varavg| %total
---------------------------------------------------------------
Pair    | 1961.6     | 1969.4     | 1977.2     |  17.5 | 54.53
Neigh   | 1509.7     | 1513.7     | 1517.7     |  10.2 | 41.91
Comm    | 91.154     | 94.867     | 98.58      |  38.1 |  2.63
Output  | 0.045903   | 0.045941   | 0.04598    |   0.0 |  0.00
Modify  | 25.816     | 25.852     | 25.888     |   0.7 |  0.72
Other   |            | 7.925      |            |       |  0.22

Nlocal:    9826 ave 9840 max 9812 min
Histogram: 1 0 0 0 0 0 0 0 0 1
Nghost:    13905.5 ave 13911 max 13900 min
Histogram: 1 0 0 0 0 0 0 0 0 1
Neighs:    888734 ave 895873 max 881595 min
Histogram: 1 0 0 0 0 0 0 0 0 1

Total # of neighbors = 1777468
Ave neighs/atom = 90.4472
Neighbor list builds = 49505
Dangerous builds not checked
Setting up Verlet run ...
  Unit style    : metal
  Current step  : 790000
  Time step     : 0.001
Per MPI rank memory allocation (min/avg/max) = 12.11 | 12.11 | 12.11 Mbytes
Step Temp Press TotEng PotEng Enthalpy 
  790000    1683.7825    616.77469   -56881.308   -61158.269   -56774.786 
  790495    1672.5467    670.82568   -56982.258   -61230.679   -56866.638 
Loop time of 36.3946 on 2 procs for 495 steps with 19652 atoms

Performance: 1.175 ns/day, 20.423 hours/ns, 13.601 timesteps/s
99.9% CPU use with 2 MPI tasks x no OpenMP threads

MPI task timing breakdown:
Section |  min time  |  avg time  |  max time  |%varavg| %total
---------------------------------------------------------------
Pair    | 19.78      | 20.004     | 20.229     |   5.0 | 54.96
Neigh   | 14.93      | 15.032     | 15.134     |   2.6 | 41.30
Comm    | 0.68323    | 1.0165     | 1.3498     |  33.1 |  2.79
Output  | 4.8876e-05 | 7.5936e-05 | 0.000103   |   0.0 |  0.00
Modify  | 0.26134    | 0.26405    | 0.26676    |   0.5 |  0.73
Other   |            | 0.0776     |            |       |  0.21

Nlocal:    9826 ave 9836 max 9816 min
Histogram: 1 0 0 0 0 0 0 0 0 1
Nghost:    13921.5 ave 13922 max 13921 min
Histogram: 1 0 0 0 0 0 0 0 0 1
Neighs:    890572 ave 898353 max 882791 min
Histogram: 1 0 0 0 0 0 0 0 0 1

Total # of neighbors = 1781144
Ave neighs/atom = 90.6342
Neighbor list builds = 495
Dangerous builds not checked
Setting up Verlet run ...
  Unit style    : metal
  Current step  : 790495
  Time step     : 0.001
Per MPI rank memory allocation (min/avg/max) = 12.11 | 12.11 | 12.11 Mbytes
Step Temp Press TotEng PotEng Enthalpy 
  790495    1672.5467    670.82568   -56982.258   -61230.679   -56866.638 
  800000    1660.2357    307.14313   -57070.395   -61287.545   -57017.518 
  840000    1621.4034   -2235.2558   -57175.274   -61293.787   -57560.577 
Loop time of 3711.76 on 2 procs for 49505 steps with 19652 atoms

Performance: 1.152 ns/day, 20.827 hours/ns, 13.337 timesteps/s
100.0% CPU use with 2 MPI tasks x no OpenMP threads

MPI task timing breakdown:
Section |  min time  |  avg time  |  max time  |%varavg| %total
---------------------------------------------------------------
Pair    | 2018.4     | 2038.9     | 2059.3     |  45.2 | 54.93
Neigh   | 1524.7     | 1533.5     | 1542.3     |  22.5 | 41.31
Comm    | 75.542     | 104.98     | 134.41     | 287.3 |  2.83
Output  | 0.041159   | 0.041188   | 0.041216   |   0.0 |  0.00
Modify  | 26.297     | 26.416     | 26.534     |   2.3 |  0.71
Other   |            | 7.979      |            |       |  0.21

Nlocal:    9826 ave 9827 max 9825 min
Histogram: 1 0 0 0 0 0 0 0 0 1
Nghost:    13949 ave 13953 max 13945 min
Histogram: 1 0 0 0 0 0 0 0 0 1
Neighs:    890114 ave 899714 max 880514 min
Histogram: 1 0 0 0 0 0 0 0 0 1

Total # of neighbors = 1780228
Ave neighs/atom = 90.5876
Neighbor list builds = 49505
Dangerous builds not checked
Setting up Verlet run ...
  Unit style    : metal
  Current step  : 840000
  Time step     : 0.001
Per MPI rank memory allocation (min/avg/max) = 12.11 | 12.11 | 12.11 Mbytes
Step Temp Press TotEng PotEng Enthalpy 
  840000    1621.4034   -2235.2558   -57175.274   -61293.787   -57560.577 
  840495    1612.8073    46.213063   -57310.985   -61407.662   -57303.057 
Loop time of 34.3182 on 2 procs for 495 steps with 19652 atoms

Performance: 1.246 ns/day, 19.258 hours/ns, 14.424 timesteps/s
100.0% CPU use with 2 MPI tasks x no OpenMP threads

MPI task timing breakdown:
Section |  min time  |  avg time  |  max time  |%varavg| %total
---------------------------------------------------------------
Pair    | 18.657     | 18.762     | 18.867     |   2.4 | 54.67
Neigh   | 14.364     | 14.537     | 14.71      |   4.5 | 42.36
Comm    | 0.40571    | 0.68488    | 0.96405    |  33.7 |  2.00
Output  | 5.1975e-05 | 6.9499e-05 | 8.7023e-05 |   0.0 |  0.00
Modify  | 0.25116    | 0.25397    | 0.25678    |   0.6 |  0.74
Other   |            | 0.08068    |            |       |  0.24

Nlocal:    9826 ave 9832 max 9820 min
Histogram: 1 0 0 0 0 0 0 0 0 1
Nghost:    13956 ave 13965 max 13947 min
Histogram: 1 0 0 0 0 0 0 0 0 1
Neighs:    894101 ave 904821 max 883381 min
Histogram: 1 0 0 0 0 0 0 0 0 1

Total # of neighbors = 1788202
Ave neighs/atom = 90.9934
Neighbor list builds = 495
Dangerous builds not checked
Setting up Verlet run ...
  Unit style    : metal
  Current step  : 840495
  Time step     : 0.001
Per MPI rank memory allocation (min/avg/max) = 12.11 | 12.11 | 12.11 Mbytes
Step Temp Press TotEng PotEng Enthalpy 
  840495    1612.8073    46.213063   -57310.985   -61407.662   -57303.057 
  850000    1599.6763    433.69931   -57397.569   -61460.892    -57323.32 
  890000    1591.5317    -821.2845   -57452.063   -61494.698   -57592.749 
Loop time of 3555.52 on 2 procs for 49505 steps with 19652 atoms

Performance: 1.203 ns/day, 19.950 hours/ns, 13.923 timesteps/s
100.0% CPU use with 2 MPI tasks x no OpenMP threads

MPI task timing breakdown:
Section |  min time  |  avg time  |  max time  |%varavg| %total
---------------------------------------------------------------
Pair    | 1934.8     | 1946.7     | 1958.5     |  26.9 | 54.75
Neigh   | 1497.7     | 1499.7     | 1501.7     |   5.2 | 42.18
Comm    | 62.023     | 75.909     | 89.794     | 159.4 |  2.13
Output  | 0.039594   | 0.039624   | 0.039655   |   0.0 |  0.00
Modify  | 25.467     | 25.471     | 25.475     |   0.1 |  0.72
Other   |            | 7.742      |            |       |  0.22

Nlocal:    9826 ave 9834 max 9818 min
Histogram: 1 0 0 0 0 0 0 0 0 1
Nghost:    14000.5 ave 14033 max 13968 min
Histogram: 1 0 0 0 0 0 0 0 0 1
Neighs:    895097 ave 905055 max 885139 min
Histogram: 1 0 0 0 0 0 0 0 0 1

Total # of neighbors = 1790194
Ave neighs/atom = 91.0947
Neighbor list builds = 49505
Dangerous builds not checked
Setting up Verlet run ...
  Unit style    : metal
  Current step  : 890000
  Time step     : 0.001
Per MPI rank memory allocation (min/avg/max) = 12.11 | 12.11 | 12.11 Mbytes
Step Temp Press TotEng PotEng Enthalpy 
  890000    1591.5317    -821.2845   -57452.063   -61494.698   -57592.749 
  890495     1561.501   -102.91867   -57621.724   -61588.079   -57639.298 
Loop time of 33.4164 on 2 procs for 495 steps with 19652 atoms

Performance: 1.280 ns/day, 18.752 hours/ns, 14.813 timesteps/s
100.0% CPU use with 2 MPI tasks x no OpenMP threads

MPI task timing breakdown:
Section |  min time  |  avg time  |  max time  |%varavg| %total
---------------------------------------------------------------
Pair    | 18.289     | 18.31      | 18.331     |   0.5 | 54.79
Neigh   | 14.388     | 14.395     | 14.403     |   0.2 | 43.08
Comm    | 0.36156    | 0.38567    | 0.40978    |   3.9 |  1.15
Output  | 5.1022e-05 | 7.2956e-05 | 9.4891e-05 |   0.0 |  0.00
Modify  | 0.24585    | 0.24601    | 0.24617    |   0.0 |  0.74
Other   |            | 0.07908    |            |       |  0.24

Nlocal:    9826 ave 9842 max 9810 min
Histogram: 1 0 0 0 0 0 0 0 0 1
Nghost:    13985 ave 13997 max 13973 min
Histogram: 1 0 0 0 0 0 0 0 0 1
Neighs:    898062 ave 911980 max 884145 min
Histogram: 1 0 0 0 0 0 0 0 0 1

Total # of neighbors = 1796125
Ave neighs/atom = 91.3965
Neighbor list builds = 495
Dangerous builds not checked
Setting up Verlet run ...
  Unit style    : metal
  Current step  : 890495
  Time step     : 0.001
Per MPI rank memory allocation (min/avg/max) = 12.11 | 12.11 | 12.11 Mbytes
Step Temp Press TotEng PotEng Enthalpy 
  890495     1561.501   -102.91867   -57621.724   -61588.079   -57639.298 
  900000    1548.6225   -55.581333   -57697.099   -61630.741   -57706.573 
  940000     1565.746   -489.92504   -57669.186   -61646.323   -57752.721 
Loop time of 3684.82 on 2 procs for 49505 steps with 19652 atoms

Performance: 1.161 ns/day, 20.676 hours/ns, 13.435 timesteps/s
99.8% CPU use with 2 MPI tasks x no OpenMP threads

MPI task timing breakdown:
Section |  min time  |  avg time  |  max time  |%varavg| %total
---------------------------------------------------------------
Pair    | 2004.1     | 2018.9     | 2033.7     |  33.0 | 54.79
Neigh   | 1519.9     | 1525.1     | 1530.4     |  13.4 | 41.39
Comm    | 86.275     | 106.37     | 126.46     | 194.8 |  2.89
Output  | 0.26925    | 0.26929    | 0.26933    |   0.0 |  0.01
Modify  | 26.229     | 26.261     | 26.293     |   0.6 |  0.71
Other   |            | 7.845      |            |       |  0.21

Nlocal:    9826 ave 9835 max 9817 min
Histogram: 1 0 0 0 0 0 0 0 0 1
Nghost:    13965 ave 13998 max 13932 min
Histogram: 1 0 0 0 0 0 0 0 0 1
Neighs:    899328 ave 908943 max 889713 min
Histogram: 1 0 0 0 0 0 0 0 0 1

Total # of neighbors = 1798656
Ave neighs/atom = 91.5253
Neighbor list builds = 49505
Dangerous builds not checked
Setting up Verlet run ...
  Unit style    : metal
  Current step  : 940000
  Time step     : 0.001
Per MPI rank memory allocation (min/avg/max) = 12.11 | 12.11 | 12.11 Mbytes
Step Temp Press TotEng PotEng Enthalpy 
  940000     1565.746   -489.92504   -57669.186   -61646.323   -57752.721 
  940495    1524.2061    906.89188   -57926.981   -61798.604   -57773.218 
Loop time of 33.8313 on 2 procs for 495 steps with 19652 atoms

Performance: 1.264 ns/day, 18.985 hours/ns, 14.631 timesteps/s
100.0% CPU use with 2 MPI tasks x no OpenMP threads

MPI task timing breakdown:
Section |  min time  |  avg time  |  max time  |%varavg| %total
---------------------------------------------------------------
Pair    | 18.353     | 18.495     | 18.638     |   3.3 | 54.67
Neigh   | 14.375     | 14.467     | 14.559     |   2.4 | 42.76
Comm    | 0.4987     | 0.54698    | 0.59526    |   6.5 |  1.62
Output  | 5.1022e-05 | 7.2956e-05 | 9.4891e-05 |   0.0 |  0.00
Modify  | 0.24616    | 0.24712    | 0.24809    |   0.2 |  0.73
Other   |            | 0.07506    |            |       |  0.22

Nlocal:    9826 ave 9838 max 9814 min
Histogram: 1 0 0 0 0 0 0 0 0 1
Nghost:    14052 ave 14090 max 14014 min
Histogram: 1 0 0 0 0 0 0 0 0 1
Neighs:    904216 ave 915760 max 892671 min
Histogram: 1 0 0 0 0 0 0 0 0 1

Total # of neighbors = 1808431
Ave neighs/atom = 92.0227
Neighbor list builds = 495
Dangerous builds not checked
Setting up Verlet run ...
  Unit style    : metal
  Current step  : 940495
  Time step     : 0.001
Per MPI rank memory allocation (min/avg/max) = 12.11 | 12.11 | 12.11 Mbytes
Step Temp Press TotEng PotEng Enthalpy 
  940495    1524.2061    906.89188   -57926.981   -61798.604   -57773.218 
  950000    1509.3967     19.60815   -58015.653   -61849.658    -58012.33 
  990000    1493.5868   -207.59824   -58081.999   -61875.846   -58117.172 
Loop time of 3665.94 on 2 procs for 49505 steps with 19652 atoms

Performance: 1.167 ns/day, 20.570 hours/ns, 13.504 timesteps/s
99.9% CPU use with 2 MPI tasks x no OpenMP threads

MPI task timing breakdown:
Section |  min time  |  avg time  |  max time  |%varavg| %total
---------------------------------------------------------------
Pair    | 1996.7     | 2013.4     | 2030.1     |  37.2 | 54.92
Neigh   | 1517       | 1526.1     | 1535.1     |  23.1 | 41.63
Comm    | 66.296     | 92.226     | 118.16     | 270.0 |  2.52
Output  | 0.045304   | 0.045342   | 0.04538    |   0.0 |  0.00
Modify  | 26.163     | 26.257     | 26.351     |   1.8 |  0.72
Other   |            | 7.934      |            |       |  0.22

Nlocal:    9826 ave 9829 max 9823 min
Histogram: 1 0 0 0 0 0 0 0 0 1
Nghost:    14053 ave 14062 max 14044 min
Histogram: 1 0 0 0 0 0 0 0 0 1
Neighs:    904732 ave 913468 max 895996 min
Histogram: 1 0 0 0 0 0 0 0 0 1

Total # of neighbors = 1809464
Ave neighs/atom = 92.0753
Neighbor list builds = 49505
Dangerous builds not checked
Setting up Verlet run ...
  Unit style    : metal
  Current step  : 990000
  Time step     : 0.001
Per MPI rank memory allocation (min/avg/max) = 12.11 | 12.11 | 12.11 Mbytes
Step Temp Press TotEng PotEng Enthalpy 
  990000    1493.5868   -207.59824   -58081.999   -61875.846   -58117.172 
  990495    1458.8805    811.80707   -58238.385   -61944.074   -58101.215 
Loop time of 33.8452 on 2 procs for 495 steps with 19652 atoms

Performance: 1.264 ns/day, 18.993 hours/ns, 14.625 timesteps/s
100.0% CPU use with 2 MPI tasks x no OpenMP threads

MPI task timing breakdown:
Section |  min time  |  avg time  |  max time  |%varavg| %total
---------------------------------------------------------------
Pair    | 18.309     | 18.454     | 18.6       |   3.4 | 54.53
Neigh   | 14.423     | 14.475     | 14.526     |   1.3 | 42.77
Comm    | 0.4996     | 0.5941     | 0.6886     |  12.3 |  1.76
Output  | 5.1975e-05 | 7.3433e-05 | 9.4891e-05 |   0.0 |  0.00
Modify  | 0.24665    | 0.24763    | 0.24862    |   0.2 |  0.73
Other   |            | 0.0746     |            |       |  0.22

Nlocal:    9826 ave 9842 max 9810 min
Histogram: 1 0 0 0 0 0 0 0 0 1
Nghost:    14054.5 ave 14060 max 14049 min
Histogram: 1 0 0 0 0 0 0 0 0 1
Neighs:    907419 ave 914529 max 900309 min
Histogram: 1 0 0 0 0 0 0 0 0 1

Total # of neighbors = 1814838
Ave neighs/atom = 92.3488
Neighbor list builds = 495
Dangerous builds not checked
Setting up Verlet run ...
  Unit style    : metal
  Current step  : 990495
  Time step     : 0.001
Per MPI rank memory allocation (min/avg/max) = 12.11 | 12.11 | 12.11 Mbytes
Step Temp Press TotEng PotEng Enthalpy 
  990495    1458.8805    811.80707   -58238.385   -61944.074   -58101.215 
 1000000    1431.9677   -1392.8612   -58389.714   -62027.042   -58624.804 
 1040000    1450.1571   -337.75086   -58352.176   -62035.707   -58409.156 
Loop time of 3923.4 on 2 procs for 49505 steps with 19652 atoms

Performance: 1.090 ns/day, 22.015 hours/ns, 12.618 timesteps/s
99.9% CPU use with 2 MPI tasks x no OpenMP threads

MPI task timing breakdown:
Section |  min time  |  avg time  |  max time  |%varavg| %total
---------------------------------------------------------------
Pair    | 2145.9     | 2168       | 2190.2     |  47.5 | 55.26
Neigh   | 1592.7     | 1599.6     | 1606.5     |  17.4 | 40.77
Comm    | 90         | 119.4      | 148.81     | 269.1 |  3.04
Output  | 0.049382   | 0.049411   | 0.04944    |   0.0 |  0.00
Modify  | 28.062     | 28.101     | 28.14      |   0.7 |  0.72
Other   |            | 8.203      |            |       |  0.21

Nlocal:    9826 ave 9841 max 9811 min
Histogram: 1 0 0 0 0 0 0 0 0 1
Nghost:    14059.5 ave 14094 max 14025 min
Histogram: 1 0 0 0 0 0 0 0 0 1
Neighs:    908238 ave 919133 max 897342 min
Histogram: 1 0 0 0 0 0 0 0 0 1

Total # of neighbors = 1816475
Ave neighs/atom = 92.4321
Neighbor list builds = 49505
Dangerous builds not checked
Setting up Verlet run ...
  Unit style    : metal
  Current step  : 1040000
  Time step     : 0.001
Per MPI rank memory allocation (min/avg/max) = 12.11 | 12.11 | 12.11 Mbytes
Step Temp Press TotEng PotEng Enthalpy 
 1040000    1450.1571   -337.75086   -58352.176   -62035.707   -58409.156 
 1040495    1424.3008   -92.837125   -58531.456    -62149.31   -58547.059 
Loop time of 45.0611 on 2 procs for 495 steps with 19652 atoms

Performance: 0.949 ns/day, 25.287 hours/ns, 10.985 timesteps/s
99.7% CPU use with 2 MPI tasks x no OpenMP threads

MPI task timing breakdown:
Section |  min time  |  avg time  |  max time  |%varavg| %total
---------------------------------------------------------------
Pair    | 25.043     | 25.321     | 25.599     |   5.5 | 56.19
Neigh   | 17.3       | 17.424     | 17.549     |   3.0 | 38.67
Comm    | 1.4929     | 1.9009     | 2.309      |  29.6 |  4.22
Output  | 6.6996e-05 | 9.8944e-05 | 0.00013089 |   0.0 |  0.00
Modify  | 0.3223     | 0.32355    | 0.3248     |   0.2 |  0.72
Other   |            | 0.09105    |            |       |  0.20

Nlocal:    9826 ave 9851 max 9801 min
Histogram: 1 0 0 0 0 0 0 0 0 1
Nghost:    14103 ave 14105 max 14101 min
Histogram: 1 0 0 0 0 0 0 0 0 1
Neighs:    911894 ave 924502 max 899287 min
Histogram: 1 0 0 0 0 0 0 0 0 1

Total # of neighbors = 1823789
Ave neighs/atom = 92.8042
Neighbor list builds = 495
Dangerous builds not checked
Setting up Verlet run ...
  Unit style    : metal
  Current step  : 1040495
  Time step     : 0.001
Per MPI rank memory allocation (min/avg/max) = 12.11 | 12.11 | 12.11 Mbytes
Step Temp Press TotEng PotEng Enthalpy 
 1040495    1424.3008   -92.837125   -58531.456    -62149.31   -58547.059 
 1050000    1397.4321   -2470.0165   -58675.983   -62225.588   -59091.296 
 1090000    1388.5735   -1528.5791   -58686.265   -62213.368   -58943.173 
Loop time of 3997.46 on 2 procs for 49505 steps with 19652 atoms

Performance: 1.070 ns/day, 22.430 hours/ns, 12.384 timesteps/s
99.8% CPU use with 2 MPI tasks x no OpenMP threads

MPI task timing breakdown:
Section |  min time  |  avg time  |  max time  |%varavg| %total
---------------------------------------------------------------
Pair    | 2201.4     | 2216.9     | 2232.4     |  32.9 | 55.46
Neigh   | 1603.7     | 1616.3     | 1628.9     |  31.3 | 40.43
Comm    | 99.066     | 127.39     | 155.72     | 251.0 |  3.19
Output  | 0.060089   | 0.060133   | 0.060177   |   0.0 |  0.00
Modify  | 28.459     | 28.553     | 28.647     |   1.8 |  0.71
Other   |            | 8.298      |            |       |  0.21

Nlocal:    9826 ave 9833 max 9819 min
Histogram: 1 0 0 0 0 0 0 0 0 1
Nghost:    14163 ave 14167 max 14159 min
Histogram: 1 0 0 0 0 0 0 0 0 1
Neighs:    911490 ave 922301 max 900679 min
Histogram: 1 0 0 0 0 0 0 0 0 1

Total # of neighbors = 1822980
Ave neighs/atom = 92.7631
Neighbor list builds = 49505
Dangerous builds not checked
Setting up Verlet run ...
  Unit style    : metal
  Current step  : 1090000
  Time step     : 0.001
Per MPI rank memory allocation (min/avg/max) = 12.11 | 12.11 | 12.11 Mbytes
Step Temp Press TotEng PotEng Enthalpy 
 1090000    1388.5735   -1528.5791   -58686.265   -62213.368   -58943.173 
 1090495    1367.4261   -602.45947   -58828.508   -62301.895   -58929.403 
Loop time of 45.3734 on 2 procs for 495 steps with 19652 atoms

Performance: 0.943 ns/day, 25.462 hours/ns, 10.909 timesteps/s
99.7% CPU use with 2 MPI tasks x no OpenMP threads

MPI task timing breakdown:
Section |  min time  |  avg time  |  max time  |%varavg| %total
---------------------------------------------------------------
Pair    | 25.537     | 25.576     | 25.616     |   0.8 | 56.37
Neigh   | 17.231     | 17.423     | 17.616     |   4.6 | 38.40
Comm    | 1.7201     | 1.9541     | 2.1882     |  16.7 |  4.31
Output  | 6.6996e-05 | 9.0957e-05 | 0.00011492 |   0.0 |  0.00
Modify  | 0.32024    | 0.32426    | 0.32828    |   0.7 |  0.71
Other   |            | 0.0957     |            |       |  0.21

Nlocal:    9826 ave 9855 max 9797 min
Histogram: 1 0 0 0 0 0 0 0 0 1
Nghost:    14183.5 ave 14204 max 14163 min
Histogram: 1 0 0 0 0 0 0 0 0 1
Neighs:    914949 ave 930412 max 899486 min
Histogram: 1 0 0 0 0 0 0 0 0 1

Total # of neighbors = 1829898
Ave neighs/atom = 93.1151
Neighbor list builds = 495
Dangerous builds not checked
Setting up Verlet run ...
  Unit style    : metal
  Current step  : 1090495
  Time step     : 0.001
Per MPI rank memory allocation (min/avg/max) = 12.11 | 12.11 | 12.11 Mbytes
Step Temp Press TotEng PotEng Enthalpy 
 1090495    1367.4261   -602.45947   -58828.508   -62301.895   -58929.403 
 1100000    1356.5343    402.02857   -58978.467   -62424.188   -58911.395 
 1140000    1363.4666    278.13863   -58944.306   -62407.636   -58897.868 
Loop time of 4299.87 on 2 procs for 49505 steps with 19652 atoms

Performance: 0.995 ns/day, 24.127 hours/ns, 11.513 timesteps/s
99.7% CPU use with 2 MPI tasks x no OpenMP threads

MPI task timing breakdown:
Section |  min time  |  avg time  |  max time  |%varavg| %total
---------------------------------------------------------------
Pair    | 2387.2     | 2402       | 2416.7     |  30.1 | 55.86
Neigh   | 1682.6     | 1699.2     | 1715.8     |  40.2 | 39.52
Comm    | 126.72     | 158.38     | 190.04     | 251.6 |  3.68
Output  | 0.064762   | 0.0648     | 0.064838   |   0.0 |  0.00
Modify  | 31.161     | 31.319     | 31.477     |   2.8 |  0.73
Other   |            | 8.896      |            |       |  0.21

Nlocal:    9826 ave 9847 max 9805 min
Histogram: 1 0 0 0 0 0 0 0 0 1
Nghost:    14135 ave 14157 max 14113 min
Histogram: 1 0 0 0 0 0 0 0 0 1
Neighs:    917650 ave 930533 max 904766 min
Histogram: 1 0 0 0 0 0 0 0 0 1

Total # of neighbors = 1835299
Ave neighs/atom = 93.3899
Neighbor list builds = 49505
Dangerous builds not checked
Setting up Verlet run ...
  Unit style    : metal
  Current step  : 1140000
  Time step     : 0.001
Per MPI rank memory allocation (min/avg/max) = 12.11 | 12.11 | 12.11 Mbytes
Step Temp Press TotEng PotEng Enthalpy 
 1140000    1363.4666    278.13863   -58944.306   -62407.636   -58897.868 
 1140495    1310.3855    248.49569   -59181.648   -62510.146   -59140.297 
Loop time of 46.4137 on 2 procs for 495 steps with 19652 atoms

Performance: 0.921 ns/day, 26.046 hours/ns, 10.665 timesteps/s
99.6% CPU use with 2 MPI tasks x no OpenMP threads

MPI task timing breakdown:
Section |  min time  |  avg time  |  max time  |%varavg| %total
---------------------------------------------------------------
Pair    | 25.938     | 26.239     | 26.54      |   5.9 | 56.53
Neigh   | 16.998     | 17.736     | 18.475     |  17.5 | 38.21
Comm    | 1.5552     | 2.007      | 2.4588     |  31.9 |  4.32
Output  | 7.6056e-05 | 9.203e-05  | 0.000108   |   0.0 |  0.00
Modify  | 0.32708    | 0.3335     | 0.33993    |   1.1 |  0.72
Other   |            | 0.09764    |            |       |  0.21

Nlocal:    9826 ave 9837 max 9815 min
Histogram: 1 0 0 0 0 0 0 0 0 1
Nghost:    14163.5 ave 14175 max 14152 min
Histogram: 1 0 0 0 0 0 0 0 0 1
Neighs:    920552 ave 932894 max 908211 min
Histogram: 1 0 0 0 0 0 0 0 0 1

Total # of neighbors = 1841105
Ave neighs/atom = 93.6854
Neighbor list builds = 495
Dangerous builds not checked
Setting up Verlet run ...
  Unit style    : metal
  Current step  : 1140495
  Time step     : 0.001
Per MPI rank memory allocation (min/avg/max) = 12.11 | 12.11 | 12.11 Mbytes
Step Temp Press TotEng PotEng Enthalpy 
 1140495    1310.3855    248.49569   -59181.648   -62510.146   -59140.297 
 1150000    1299.1645    125.70907   -59320.584    -62620.58   -59299.718 
 1190000    1309.6842    1426.8787   -59279.627   -62606.344   -59043.022 
Loop time of 4653.51 on 2 procs for 49505 steps with 19652 atoms

Performance: 0.919 ns/day, 26.111 hours/ns, 10.638 timesteps/s
99.4% CPU use with 2 MPI tasks x no OpenMP threads

MPI task timing breakdown:
Section |  min time  |  avg time  |  max time  |%varavg| %total
---------------------------------------------------------------
Pair    | 2612.4     | 2618       | 2623.7     |  11.1 | 56.26
Neigh   | 1828.7     | 1831.6     | 1834.4     |   6.7 | 39.36
Comm    | 157.9      | 160.34     | 162.78     |  19.3 |  3.45
Output  | 0.059563   | 0.059595   | 0.059628   |   0.0 |  0.00
Modify  | 33.593     | 33.595     | 33.597     |   0.0 |  0.72
Other   |            | 9.92       |            |       |  0.21

Nlocal:    9826 ave 9853 max 9799 min
Histogram: 1 0 0 0 0 0 0 0 0 1
Nghost:    14212 ave 14217 max 14207 min
Histogram: 1 0 0 0 0 0 0 0 0 1
Neighs:    923696 ave 937355 max 910037 min
Histogram: 1 0 0 0 0 0 0 0 0 1

Total # of neighbors = 1847392
Ave neighs/atom = 94.0053
Neighbor list builds = 49505
Dangerous builds not checked
Setting up Verlet run ...
  Unit style    : metal
  Current step  : 1190000
  Time step     : 0.001
Per MPI rank memory allocation (min/avg/max) = 12.11 | 12.11 | 12.11 Mbytes
Step Temp Press TotEng PotEng Enthalpy 
 1190000    1309.6842    1426.8787   -59279.627   -62606.344   -59043.022 
 1190495    1262.9874    1596.2225   -59506.349   -62714.452   -59242.533 
Loop time of 44.9418 on 2 procs for 495 steps with 19652 atoms

Performance: 0.952 ns/day, 25.220 hours/ns, 11.014 timesteps/s
99.7% CPU use with 2 MPI tasks x no OpenMP threads

MPI task timing breakdown:
Section |  min time  |  avg time  |  max time  |%varavg| %total
---------------------------------------------------------------
Pair    | 25.302     | 25.37      | 25.439     |   1.4 | 56.45
Neigh   | 17.085     | 17.356     | 17.628     |   6.5 | 38.62
Comm    | 1.4539     | 1.7951     | 2.1362     |  25.5 |  3.99
Output  | 7.6056e-05 | 9.501e-05  | 0.00011396 |   0.0 |  0.00
Modify  | 0.31989    | 0.32338    | 0.32688    |   0.6 |  0.72
Other   |            | 0.09651    |            |       |  0.21

Nlocal:    9826 ave 9836 max 9816 min
Histogram: 1 0 0 0 0 0 0 0 0 1
Nghost:    14204 ave 14231 max 14177 min
Histogram: 1 0 0 0 0 0 0 0 0 1
Neighs:    926404 ave 938986 max 913823 min
Histogram: 1 0 0 0 0 0 0 0 0 1

Total # of neighbors = 1852809
Ave neighs/atom = 94.2809
Neighbor list builds = 495
Dangerous builds not checked
Setting up Verlet run ...
  Unit style    : metal
  Current step  : 1190495
  Time step     : 0.001
Per MPI rank memory allocation (min/avg/max) = 12.11 | 12.11 | 12.11 Mbytes
Step Temp Press TotEng PotEng Enthalpy 
 1190495    1262.9874    1596.2225   -59506.349   -62714.452   -59242.533 
 1200000    1254.9081   -838.88366   -59630.044   -62817.625   -59768.736 
 1240000    1244.9789   -771.78333   -59696.477   -62858.837    -59823.93 
Loop time of 4746.85 on 2 procs for 49505 steps with 19652 atoms

Performance: 0.901 ns/day, 26.635 hours/ns, 10.429 timesteps/s
99.3% CPU use with 2 MPI tasks x no OpenMP threads

MPI task timing breakdown:
Section |  min time  |  avg time  |  max time  |%varavg| %total
---------------------------------------------------------------
Pair    | 2663.4     | 2674.2     | 2685       |  21.0 | 56.34
Neigh   | 1862.4     | 1862.4     | 1862.5     |   0.1 | 39.24
Comm    | 154.83     | 165.54     | 176.25     |  83.2 |  3.49
Output  | 0.063978   | 0.064008   | 0.064038   |   0.0 |  0.00
Modify  | 34.564     | 34.581     | 34.597     |   0.3 |  0.73
Other   |            | 10.04      |            |       |  0.21

Nlocal:    9826 ave 9833 max 9819 min
Histogram: 1 0 0 0 0 0 0 0 0 1
Nghost:    14193.5 ave 14198 max 14189 min
Histogram: 1 0 0 0 0 0 0 0 0 1
Neighs:    926566 ave 936115 max 917017 min
Histogram: 1 0 0 0 0 0 0 0 0 1

Total # of neighbors = 1853132
Ave neighs/atom = 94.2974
Neighbor list builds = 49505
Dangerous builds not checked
Setting up Verlet run ...
  Unit style    : metal
  Current step  : 1240000
  Time step     : 0.001
Per MPI rank memory allocation (min/avg/max) = 12.11 | 12.11 | 12.11 Mbytes
Step Temp Press TotEng PotEng Enthalpy 
 1240000    1244.9789   -771.78333   -59696.477   -62858.837    -59823.93 
 1240495    1212.7494   -352.99666   -59856.161   -62936.655   -59914.277 
Loop time of 46.7801 on 2 procs for 495 steps with 19652 atoms

Performance: 0.914 ns/day, 26.251 hours/ns, 10.581 timesteps/s
99.9% CPU use with 2 MPI tasks x no OpenMP threads

MPI task timing breakdown:
Section |  min time  |  avg time  |  max time  |%varavg| %total
---------------------------------------------------------------
Pair    | 26.408     | 26.45      | 26.491     |   0.8 | 56.54
Neigh   | 18.118     | 18.22      | 18.322     |   2.4 | 38.95
Comm    | 1.5213     | 1.6666     | 1.812      |  11.3 |  3.56
Output  | 8.0109e-05 | 9.799e-05  | 0.00011587 |   0.0 |  0.00
Modify  | 0.33711    | 0.34154    | 0.34597    |   0.8 |  0.73
Other   |            | 0.1022     |            |       |  0.22

Nlocal:    9826 ave 9838 max 9814 min
Histogram: 1 0 0 0 0 0 0 0 0 1
Nghost:    14196 ave 14220 max 14172 min
Histogram: 1 0 0 0 0 0 0 0 0 1
Neighs:    929738 ave 940745 max 918730 min
Histogram: 1 0 0 0 0 0 0 0 0 1

Total # of neighbors = 1859475
Ave neighs/atom = 94.6201
Neighbor list builds = 495
Dangerous builds not checked
Setting up Verlet run ...
  Unit style    : metal
  Current step  : 1240495
  Time step     : 0.001
Per MPI rank memory allocation (min/avg/max) = 12.11 | 12.11 | 12.11 Mbytes
Step Temp Press TotEng PotEng Enthalpy 
 1240495    1212.7494   -352.99666   -59856.161   -62936.655   -59914.277 
 1250000    1195.3688    1092.4921   -59989.006   -63025.352     -59809.8 
 1290000    1192.5807    -168.4336    -60002.46   -63031.723   -60030.124 
Loop time of 4764.55 on 2 procs for 49505 steps with 19652 atoms

Performance: 0.898 ns/day, 26.734 hours/ns, 10.390 timesteps/s
99.4% CPU use with 2 MPI tasks x no OpenMP threads

MPI task timing breakdown:
Section |  min time  |  avg time  |  max time  |%varavg| %total
---------------------------------------------------------------
Pair    | 2667.9     | 2689.4     | 2710.9     |  41.4 | 56.45
Neigh   | 1849.8     | 1851       | 1852.1     |   2.7 | 38.85
Comm    | 159.64     | 179.97     | 200.29     | 151.5 |  3.78
Output  | 0.058213   | 0.058253   | 0.058292   |   0.0 |  0.00
Modify  | 34.211     | 34.294     | 34.378     |   1.4 |  0.72
Other   |            | 9.837      |            |       |  0.21

Nlocal:    9826 ave 9851 max 9801 min
Histogram: 1 0 0 0 0 0 0 0 0 1
Nghost:    14183 ave 14193 max 14173 min
Histogram: 1 0 0 0 0 0 0 0 0 1
Neighs:    931600 ave 944348 max 918851 min
Histogram: 1 0 0 0 0 0 0 0 0 1

Total # of neighbors = 1863199
Ave neighs/atom = 94.8096
Neighbor list builds = 49505
Dangerous builds not checked
Setting up Verlet run ...
  Unit style    : metal
  Current step  : 1290000
  Time step     : 0.001
Per MPI rank memory allocation (min/avg/max) = 12.11 | 12.11 | 12.11 Mbytes
Step Temp Press TotEng PotEng Enthalpy 
 1290000    1192.5807    -168.4336    -60002.46   -63031.723   -60030.124 
 1290495    1161.4683    226.23888   -60174.612   -63124.847   -60137.557 
Loop time of 50.999 on 2 procs for 495 steps with 19652 atoms

Performance: 0.839 ns/day, 28.619 hours/ns, 9.706 timesteps/s
99.8% CPU use with 2 MPI tasks x no OpenMP threads

MPI task timing breakdown:
Section |  min time  |  avg time  |  max time  |%varavg| %total
---------------------------------------------------------------
Pair    | 28.533     | 28.835     | 29.137     |   5.6 | 56.54
Neigh   | 19.915     | 19.966     | 20.017     |   1.1 | 39.15
Comm    | 1.3571     | 1.7116     | 2.0661     |  27.1 |  3.36
Output  | 6.6042e-05 | 9.954e-05  | 0.00013304 |   0.0 |  0.00
Modify  | 0.38121    | 0.3822     | 0.3832     |   0.2 |  0.75
Other   |            | 0.104      |            |       |  0.20

Nlocal:    9826 ave 9843 max 9809 min
Histogram: 1 0 0 0 0 0 0 0 0 1
Nghost:    14215 ave 14231 max 14199 min
Histogram: 1 0 0 0 0 0 0 0 0 1
Neighs:    934622 ave 947150 max 922095 min
[...]

MPI task timing breakdown:
Section |  min time  |  avg time  |  max time  |%varavg| %total
---------------------------------------------------------------
Pair    | 24.407     | 24.529     | 24.651     |   2.5 | 55.18
Neigh   | 17.179     | 17.762     | 18.344     |  13.8 | 39.95
Comm    | 1.3137     | 1.7858     | 2.2579     |  35.3 |  4.02
Output  | 4.9829e-05 | 6.485e-05  | 7.987e-05  |   0.0 |  0.00
Modify  | 0.28538    | 0.29215    | 0.29892    |   1.3 |  0.66
Other   |            | 0.0863     |            |       |  0.19

Nlocal:    9826 ave 9833 max 9819 min
Histogram: 1 0 0 0 0 0 0 0 0 1
Nghost:    14796.5 ave 14797 max 14796 min
Histogram: 1 0 0 0 0 0 0 0 0 1
Neighs:    1.01105e+06 ave 1.01149e+06 max 1.0106e+06 min
Histogram: 1 0 0 0 0 0 0 0 0 1

Total # of neighbors = 2022097
Ave neighs/atom = 102.895
Neighbor list builds = 495
Dangerous builds not checked
Setting up Verlet run ...
  Unit style    : metal
  Current step  : 2040495
  Time step     : 0.001
Per MPI rank memory allocation (min/avg/max) = 12.11 | 12.11 | 12.11 Mbytes
Step Temp Press TotEng PotEng Enthalpy 
 2040495    420.25902   -22.042463   -65570.292   -66637.788   -65573.616 
 2050000     403.7452   -262.00939   -65679.459   -66705.009   -65718.923 
 2090000    402.37167    493.04657   -65720.499   -66742.559   -65646.346 
Loop time of 4543.18 on 2 procs for 49505 steps with 19652 atoms

Performance: 0.941 ns/day, 25.492 hours/ns, 10.897 timesteps/s
98.7% CPU use with 2 MPI tasks x no OpenMP threads

MPI task timing breakdown:
Section |  min time  |  avg time  |  max time  |%varavg| %total
---------------------------------------------------------------
Pair    | 2526.8     | 2528.4     | 2530       |   3.1 | 55.65
Neigh   | 1790.8     | 1795.4     | 1800.1     |  10.9 | 39.52
Comm    | 176.83     | 180.29     | 183.74     |  25.7 |  3.97
Output  | 0.05493    | 0.05496    | 0.05499    |   0.0 |  0.00
Modify  | 29.706     | 30.184     | 30.662     |   8.7 |  0.66
Other   |            | 8.827      |            |       |  0.19

Nlocal:    9826 ave 9844 max 9808 min
Histogram: 1 0 0 0 0 0 0 0 0 1
Nghost:    14771.5 ave 14775 max 14768 min
Histogram: 1 0 0 0 0 0 0 0 0 1
Neighs:    1.01471e+06 ave 1.01713e+06 max 1.01228e+06 min
Histogram: 1 0 0 0 0 0 0 0 0 1

Total # of neighbors = 2029415
Ave neighs/atom = 103.268
Neighbor list builds = 49505
Dangerous builds not checked
Setting up Verlet run ...
  Unit style    : metal
  Current step  : 2090000
  Time step     : 0.001
Per MPI rank memory allocation (min/avg/max) = 12.11 | 12.11 | 12.11 Mbytes
Step Temp Press TotEng PotEng Enthalpy 
 2090000    402.37167    493.04657   -65720.499   -66742.559   -65646.346 
 2090495    372.10742    199.86161   -65874.428   -66819.615   -65844.408 
Loop time of 42.8487 on 2 procs for 495 steps with 19652 atoms

Performance: 0.998 ns/day, 24.045 hours/ns, 11.552 timesteps/s
99.9% CPU use with 2 MPI tasks x no OpenMP threads

MPI task timing breakdown:
Section |  min time  |  avg time  |  max time  |%varavg| %total
---------------------------------------------------------------
Pair    | 23.604     | 23.638     | 23.672     |   0.7 | 55.17
Neigh   | 17.516     | 17.701     | 17.886     |   4.4 | 41.31
Comm    | 0.90962    | 1.13       | 1.3503     |  20.7 |  2.64
Output  | 5.579e-05  | 8.738e-05  | 0.00011897 |   0.0 |  0.00
Modify  | 0.28681    | 0.2895     | 0.29219    |   0.5 |  0.68
Other   |            | 0.0901     |            |       |  0.21

Nlocal:    9826 ave 9849 max 9803 min
Histogram: 1 0 0 0 0 0 0 0 0 1
Nghost:    14821 ave 14830 max 14812 min
Histogram: 1 0 0 0 0 0 0 0 0 1
Neighs:    1.01596e+06 ave 1.01861e+06 max 1.01332e+06 min
Histogram: 1 0 0 0 0 0 0 0 0 1

Total # of neighbors = 2031930
Ave neighs/atom = 103.396
Neighbor list builds = 495
Dangerous builds not checked
Setting up Verlet run ...
  Unit style    : metal
  Current step  : 2090495
  Time step     : 0.001
Per MPI rank memory allocation (min/avg/max) = 12.11 | 12.11 | 12.11 Mbytes
Step Temp Press TotEng PotEng Enthalpy 
 2090495    372.10742    199.86161   -65874.428   -66819.615   -65844.408 
 2100000    349.77107    1209.6103   -66000.428   -66888.878   -65819.142 
 2140000    353.26266    84.266105   -66010.193   -66907.512   -65997.557 
Loop time of 4920.09 on 2 procs for 49505 steps with 19652 atoms

Performance: 0.869 ns/day, 27.607 hours/ns, 10.062 timesteps/s
98.7% CPU use with 2 MPI tasks x no OpenMP threads

MPI task timing breakdown:
Section |  min time  |  avg time  |  max time  |%varavg| %total
---------------------------------------------------------------
Pair    | 2731.1     | 2732.8     | 2734.4     |   3.2 | 55.54
Neigh   | 1926.3     | 1928.3     | 1930.3     |   4.6 | 39.19
Comm    | 212.59     | 216.56     | 220.53     |  27.0 |  4.40
Output  | 0.22711    | 0.22715    | 0.22719    |   0.0 |  0.00
Modify  | 32.86      | 32.884     | 32.909     |   0.4 |  0.67
Other   |            | 9.381      |            |       |  0.19

Nlocal:    9826 ave 9828 max 9824 min
Histogram: 1 0 0 0 0 0 0 0 0 1
Nghost:    14819.5 ave 14825 max 14814 min
Histogram: 1 0 0 0 0 0 0 0 0 1
Neighs:    1.01823e+06 ave 1.01867e+06 max 1.01779e+06 min
Histogram: 1 0 0 0 0 0 0 0 0 1

Total # of neighbors = 2036464
Ave neighs/atom = 103.626
Neighbor list builds = 49505
Dangerous builds not checked
Setting up Verlet run ...
  Unit style    : metal
  Current step  : 2140000
  Time step     : 0.001
Per MPI rank memory allocation (min/avg/max) = 12.11 | 12.11 | 12.11 Mbytes
Step Temp Press TotEng PotEng Enthalpy 
 2140000    353.26266    84.266105   -66010.193   -66907.512   -65997.557 
 2140495    322.72772   -234.93934   -66156.661   -66976.418   -66191.847 
Loop time of 51.4739 on 2 procs for 495 steps with 19652 atoms

Performance: 0.831 ns/day, 28.885 hours/ns, 9.617 timesteps/s
100.0% CPU use with 2 MPI tasks x no OpenMP threads

MPI task timing breakdown:
Section |  min time  |  avg time  |  max time  |%varavg| %total
---------------------------------------------------------------
Pair    | 28.984     | 29.016     | 29.047     |   0.6 | 56.37
Neigh   | 19.411     | 19.584     | 19.757     |   3.9 | 38.05
Comm    | 2.2364     | 2.442      | 2.6476     |  13.2 |  4.74
Output  | 8.2016e-05 | 0.000108   | 0.00013399 |   0.0 |  0.00
Modify  | 0.33384    | 0.3369     | 0.33996    |   0.5 |  0.65
Other   |            | 0.0956     |            |       |  0.19

Nlocal:    9826 ave 9826 max 9826 min
Histogram: 2 0 0 0 0 0 0 0 0 0
Nghost:    14832 ave 14835 max 14829 min
Histogram: 1 0 0 0 0 0 0 0 0 1
Neighs:    1.01951e+06 ave 1.02023e+06 max 1.01879e+06 min
Histogram: 1 0 0 0 0 0 0 0 0 1

Total # of neighbors = 2039016
Ave neighs/atom = 103.756
Neighbor list builds = 495
Dangerous builds not checked
Setting up Verlet run ...
  Unit style    : metal
  Current step  : 2140495
  Time step     : 0.001
Per MPI rank memory allocation (min/avg/max) = 12.11 | 12.11 | 12.11 Mbytes
Step Temp Press TotEng PotEng Enthalpy 
 2140495    322.72772   -234.93934   -66156.661   -66976.418   -66191.847 
 2150000     300.6426   -785.84006   -66275.962   -67039.622   -66393.545 
 2190000    299.33806    1317.8306   -66287.981   -67048.327   -66091.181 
Loop time of 5555.5 on 2 procs for 49505 steps with 19652 atoms

Performance: 0.770 ns/day, 31.172 hours/ns, 8.911 timesteps/s
97.8% CPU use with 2 MPI tasks x no OpenMP threads

MPI task timing breakdown:
Section |  min time  |  avg time  |  max time  |%varavg| %total
---------------------------------------------------------------
Pair    | 3086.4     | 3088.1     | 3089.8     |   3.1 | 55.59
Neigh   | 2057.2     | 2078.1     | 2098.9     |  45.7 | 37.41
Comm    | 307.98     | 330.68     | 353.37     | 124.8 |  5.95
Output  | 0.10388    | 0.10391    | 0.10395    |   0.0 |  0.00
Modify  | 47.704     | 47.901     | 48.099     |   2.9 |  0.86
Other   |            | 10.65      |            |       |  0.19

Nlocal:    9826 ave 9832 max 9820 min
Histogram: 1 0 0 0 0 0 0 0 0 1
Nghost:    14831 ave 14859 max 14803 min
Histogram: 1 0 0 0 0 0 0 0 0 1
Neighs:    1.02306e+06 ave 1.02335e+06 max 1.02277e+06 min
Histogram: 1 0 0 0 0 0 0 0 0 1

Total # of neighbors = 2046120
Ave neighs/atom = 104.118
Neighbor list builds = 49505
Dangerous builds not checked
Setting up Verlet run ...
  Unit style    : metal
  Current step  : 2190000
  Time step     : 0.001
Per MPI rank memory allocation (min/avg/max) = 12.11 | 12.11 | 12.11 Mbytes
Step Temp Press TotEng PotEng Enthalpy 
 2190000    299.33806    1317.8306   -66287.981   -67048.327   -66091.181 
 2190495    272.92246    -632.6684   -66428.131   -67121.379   -66522.616 
Loop time of 50.4445 on 2 procs for 495 steps with 19652 atoms

Performance: 0.848 ns/day, 28.308 hours/ns, 9.813 timesteps/s
99.9% CPU use with 2 MPI tasks x no OpenMP threads

MPI task timing breakdown:
Section |  min time  |  avg time  |  max time  |%varavg| %total
---------------------------------------------------------------
Pair    | 28.192     | 28.281     | 28.37      |   1.7 | 56.06
Neigh   | 18.981     | 19.598     | 20.215     |  13.9 | 38.85
Comm    | 1.4011     | 2.1176     | 2.8342     |  49.2 |  4.20
Output  | 7.2002e-05 | 9.2506e-05 | 0.00011301 |   0.0 |  0.00
Modify  | 0.33995    | 0.34808    | 0.35621    |   1.4 |  0.69
Other   |            | 0.09953    |            |       |  0.20

Nlocal:    9826 ave 9830 max 9822 min
Histogram: 1 0 0 0 0 0 0 0 0 1
Nghost:    14858 ave 14870 max 14846 min
Histogram: 1 0 0 0 0 0 0 0 0 1
Neighs:    1.02274e+06 ave 1.02329e+06 max 1.02218e+06 min
Histogram: 1 0 0 0 0 0 0 0 0 1

Total # of neighbors = 2045477
Ave neighs/atom = 104.085
Neighbor list builds = 495
Dangerous builds not checked
Setting up Verlet run ...
  Unit style    : metal
  Current step  : 2190495
  Time step     : 0.001
Per MPI rank memory allocation (min/avg/max) = 12.11 | 12.11 | 12.11 Mbytes
Step Temp Press TotEng PotEng Enthalpy 
 2190495    272.92246    -632.6684   -66428.131   -67121.379   -66522.616 
 2200000     249.2686   -265.01351   -66546.128   -67179.293   -66585.645 
 2240000    250.30412   -1106.2934    -66555.52   -67191.315    -66720.59 
Loop time of 5733.38 on 2 procs for 49505 steps with 19652 atoms

Performance: 0.746 ns/day, 32.171 hours/ns, 8.635 timesteps/s
98.6% CPU use with 2 MPI tasks x no OpenMP threads

MPI task timing breakdown:
Section |  min time  |  avg time  |  max time  |%varavg| %total
---------------------------------------------------------------
Pair    | 3184.7     | 3211.3     | 3237.8     |  46.9 | 56.01
Neigh   | 2143.3     | 2164.4     | 2185.5     |  45.4 | 37.75
Comm    | 254.31     | 302.53     | 350.75     | 277.2 |  5.28
Output  | 0.05761    | 0.057663   | 0.057716   |   0.0 |  0.00
Modify  | 43.569     | 43.687     | 43.806     |   1.8 |  0.76
Other   |            | 11.42      |            |       |  0.20

Nlocal:    9826 ave 9839 max 9813 min
Histogram: 1 0 0 0 0 0 0 0 0 1
Nghost:    14850 ave 14856 max 14844 min
Histogram: 1 0 0 0 0 0 0 0 0 1
Neighs:    1.02377e+06 ave 1.02506e+06 max 1.02249e+06 min
Histogram: 1 0 0 0 0 0 0 0 0 1

Total # of neighbors = 2047544
Ave neighs/atom = 104.19
Neighbor list builds = 49505
Dangerous builds not checked
Setting up Verlet run ...
  Unit style    : metal
  Current step  : 2240000
  Time step     : 0.001
Per MPI rank memory allocation (min/avg/max) = 12.11 | 12.11 | 12.11 Mbytes
Step Temp Press TotEng PotEng Enthalpy 
 2240000    250.30412   -1106.2934    -66555.52   -67191.315    -66720.59 
 2240495    223.14072    -446.8156   -66689.706   -67256.504   -66756.243 
Loop time of 57.0076 on 2 procs for 495 steps with 19652 atoms

Performance: 0.750 ns/day, 31.991 hours/ns, 8.683 timesteps/s
99.5% CPU use with 2 MPI tasks x no OpenMP threads

MPI task timing breakdown:
Section |  min time  |  avg time  |  max time  |%varavg| %total
---------------------------------------------------------------
Pair    | 31.853     | 32.181     | 32.509     |   5.8 | 56.45
Neigh   | 21.347     | 22.242     | 23.136     |  19.0 | 39.02
Comm    | 1.497      | 2.072      | 2.6469     |  39.9 |  3.63
Output  | 7.987e-05  | 0.00010145 | 0.00012302 |   0.0 |  0.00
Modify  | 0.38636    | 0.39373    | 0.4011     |   1.2 |  0.69
Other   |            | 0.1193     |            |       |  0.21

Nlocal:    9826 ave 9828 max 9824 min
Histogram: 1 0 0 0 0 0 0 0 0 1
Nghost:    14846 ave 14865 max 14827 min
Histogram: 1 0 0 0 0 0 0 0 0 1
Neighs:    1.02639e+06 ave 1.02648e+06 max 1.0263e+06 min
Histogram: 1 0 0 0 0 0 0 0 0 1

Total # of neighbors = 2052783
Ave neighs/atom = 104.457
Neighbor list builds = 495
Dangerous builds not checked
Setting up Verlet run ...
  Unit style    : metal
  Current step  : 2240495
  Time step     : 0.001
Per MPI rank memory allocation (min/avg/max) = 12.11 | 12.11 | 12.11 Mbytes
Step Temp Press TotEng PotEng Enthalpy 
 2240495    223.14072    -446.8156   -66689.706   -67256.504   -66756.243 
 2250000    200.27639    32.649159   -66814.718   -67323.439   -66809.865 
 2290000    199.96827    534.51847   -66823.699   -67331.636    -66744.28 
Loop time of 5968.12 on 2 procs for 49505 steps with 19652 atoms

Performance: 0.717 ns/day, 33.488 hours/ns, 8.295 timesteps/s
99.4% CPU use with 2 MPI tasks x no OpenMP threads

MPI task timing breakdown:
Section |  min time  |  avg time  |  max time  |%varavg| %total
---------------------------------------------------------------
Pair    | 3353.9     | 3364       | 3374.2     |  17.6 | 56.37
Neigh   | 2331.8     | 2336.1     | 2340.3     |   8.9 | 39.14
Comm    | 205.09     | 211.3      | 217.52     |  42.8 |  3.54
Output  | 0.061924   | 0.061969   | 0.062014   |   0.0 |  0.00
Modify  | 43.714     | 43.738     | 43.762     |   0.4 |  0.73
Other   |            | 12.92      |            |       |  0.22

Nlocal:    9826 ave 9839 max 9813 min
Histogram: 1 0 0 0 0 0 0 0 0 1
Nghost:    14867 ave 14884 max 14850 min
Histogram: 1 0 0 0 0 0 0 0 0 1
Neighs:    1.02878e+06 ave 1.02975e+06 max 1.02782e+06 min
Histogram: 1 0 0 0 0 0 0 0 0 1

Total # of neighbors = 2057566
Ave neighs/atom = 104.7
Neighbor list builds = 49505
Dangerous builds not checked
Setting up Verlet run ...
  Unit style    : metal
  Current step  : 2290000
  Time step     : 0.001
Per MPI rank memory allocation (min/avg/max) = 12.11 | 12.11 | 12.12 Mbytes
Step Temp Press TotEng PotEng Enthalpy 
 2290000    199.96827    534.51847   -66823.699   -67331.636    -66744.28 
 2290495    175.52797    119.77154   -66948.866   -67394.723    -66931.09 
Loop time of 59.4909 on 2 procs for 495 steps with 19652 atoms

Performance: 0.719 ns/day, 33.384 hours/ns, 8.321 timesteps/s
99.0% CPU use with 2 MPI tasks x no OpenMP threads

MPI task timing breakdown:
Section |  min time  |  avg time  |  max time  |%varavg| %total
---------------------------------------------------------------
Pair    | 33.522     | 33.658     | 33.793     |   2.3 | 56.58
Neigh   | 23.197     | 23.42      | 23.643     |   4.6 | 39.37
Comm    | 1.7475     | 1.8483     | 1.9491     |   7.4 |  3.11
Output  | 7.8917e-05 | 0.00010753 | 0.00013614 |   0.0 |  0.00
Modify  | 0.42662    | 0.43712    | 0.44762    |   1.6 |  0.73
Other   |            | 0.1281     |            |       |  0.22

Nlocal:    9826 ave 9826 max 9826 min
Histogram: 2 0 0 0 0 0 0 0 0 0
Nghost:    14895.5 ave 14897 max 14894 min
Histogram: 1 0 0 0 0 0 0 0 0 1
Neighs:    1.0303e+06 ave 1.03054e+06 max 1.03006e+06 min
Histogram: 1 0 0 0 0 0 0 0 0 1

Total # of neighbors = 2060601
Ave neighs/atom = 104.855
Neighbor list builds = 495
Dangerous builds not checked
Setting up Verlet run ...
  Unit style    : metal
  Current step  : 2290495
  Time step     : 0.001
Per MPI rank memory allocation (min/avg/max) = 12.11 | 12.11 | 12.12 Mbytes
Step Temp Press TotEng PotEng Enthalpy 
 2290495    175.52797    119.77154   -66948.866   -67394.723    -66931.09 
 2300000    149.80751    862.04986    -67084.61   -67465.135   -66956.914 
 2340000    151.06507    781.25268   -67081.303   -67465.022   -66965.567 
Loop time of 5833.95 on 2 procs for 49505 steps with 19652 atoms

Performance: 0.733 ns/day, 32.735 hours/ns, 8.486 timesteps/s
99.2% CPU use with 2 MPI tasks x no OpenMP threads

MPI task timing breakdown:
Section |  min time  |  avg time  |  max time  |%varavg| %total
---------------------------------------------------------------
Pair    | 3286.6     | 3293       | 3299.4     |  11.1 | 56.45
Neigh   | 2258.1     | 2258.5     | 2258.8     |   0.7 | 38.71
Comm    | 221.58     | 227.97     | 234.35     |  42.3 |  3.91
Output  | 0.06534    | 0.06538    | 0.06542    |   0.0 |  0.00
Modify  | 42.068     | 42.098     | 42.128     |   0.5 |  0.72
Other   |            | 12.36      |            |       |  0.21

Nlocal:    9826 ave 9842 max 9810 min
Histogram: 1 0 0 0 0 0 0 0 0 1
Nghost:    14876 ave 14891 max 14861 min
Histogram: 1 0 0 0 0 0 0 0 0 1
Neighs:    1.03269e+06 ave 1.03417e+06 max 1.03122e+06 min
Histogram: 1 0 0 0 0 0 0 0 0 1

Total # of neighbors = 2065389
Ave neighs/atom = 105.098
Neighbor list builds = 49505
Dangerous builds not checked
Setting up Verlet run ...
  Unit style    : metal
  Current step  : 2340000
  Time step     : 0.001
Per MPI rank memory allocation (min/avg/max) = 12.11 | 12.11 | 12.12 Mbytes
Step Temp Press TotEng PotEng Enthalpy 
 2340000    151.06507    781.25268   -67081.303   -67465.022   -66965.567 
 2340495    125.81487   -62.466308   -67203.456   -67523.037   -67212.704 
Loop time of 57.7114 on 2 procs for 495 steps with 19652 atoms

Performance: 0.741 ns/day, 32.386 hours/ns, 8.577 timesteps/s
99.4% CPU use with 2 MPI tasks x no OpenMP threads

MPI task timing breakdown:
Section |  min time  |  avg time  |  max time  |%varavg| %total
---------------------------------------------------------------
Pair    | 31.649     | 32.353     | 33.057     |  12.4 | 56.06
Neigh   | 22.011     | 22.265     | 22.52      |   5.4 | 38.58
Comm    | 1.5927     | 2.5626     | 3.5325     |  60.6 |  4.44
Output  | 9.5129e-05 | 0.00014412 | 0.00019312 |   0.0 |  0.00
Modify  | 0.4054     | 0.41479    | 0.42417    |   1.5 |  0.72
Other   |            | 0.1158     |            |       |  0.20

Nlocal:    9826 ave 9846 max 9806 min
Histogram: 1 0 0 0 0 0 0 0 0 1
Nghost:    14887.5 ave 14898 max 14877 min
Histogram: 1 0 0 0 0 0 0 0 0 1
Neighs:    1.03322e+06 ave 1.03572e+06 max 1.03072e+06 min
Histogram: 1 0 0 0 0 0 0 0 0 1

Total # of neighbors = 2066438
Ave neighs/atom = 105.152
Neighbor list builds = 495
Dangerous builds not checked
Setting up Verlet run ...
  Unit style    : metal
  Current step  : 2340495
  Time step     : 0.001
Per MPI rank memory allocation (min/avg/max) = 12.11 | 12.11 | 12.12 Mbytes
Step Temp Press TotEng PotEng Enthalpy 
 2340495    125.81487   -62.466308   -67203.456   -67523.037   -67212.704 
 2350000    100.43127   -400.83879   -67341.422   -67596.526   -67400.693 
 2390000    100.03623   -626.49468   -67344.952   -67599.053   -67437.605 
Loop time of 5658.76 on 2 procs for 49505 steps with 19652 atoms

Performance: 0.756 ns/day, 31.752 hours/ns, 8.748 timesteps/s
99.2% CPU use with 2 MPI tasks x no OpenMP threads

MPI task timing breakdown:
Section |  min time  |  avg time  |  max time  |%varavg| %total
---------------------------------------------------------------
Pair    | 3166.6     | 3180.7     | 3194.9     |  25.1 | 56.21
Neigh   | 2206.7     | 2234.3     | 2262       |  58.5 | 39.48
Comm    | 148.92     | 191.47     | 234.03     | 307.5 |  3.38
Output  | 0.065099   | 0.065148   | 0.065198   |   0.0 |  0.00
Modify  | 39.961     | 40.531     | 41.1       |   8.9 |  0.72
Other   |            | 11.64      |            |       |  0.21

Nlocal:    9826 ave 9835 max 9817 min
Histogram: 1 0 0 0 0 0 0 0 0 1
Nghost:    14884 ave 14884 max 14884 min
Histogram: 2 0 0 0 0 0 0 0 0 0
Neighs:    1.03465e+06 ave 1.03583e+06 max 1.03348e+06 min
Histogram: 1 0 0 0 0 0 0 0 0 1

Total # of neighbors = 2069308
Ave neighs/atom = 105.298
Neighbor list builds = 49505
Dangerous builds not checked
Total wall time: 69:01:58
