LAMMPS (12 Dec 2018)
Lattice spacing in x,y,z = 4 4 4
Created orthogonal box = (0 0 0) to (68 68 68)
  1 by 1 by 2 MPI processor grid
Created 19652 atoms
  Time spent = 0.00168085 secs
Setting atom values ...
  19281 settings made for type/fraction
Neighbor list info ...
  update every 1 steps, delay 0 steps, check no
  max neighbors/atom: 2000, page size: 100000
  master list distance cutoff = 8.5
  ghost atom cutoff = 8.5
  binsize = 4.25, bins = 16 16 16
  1 neighbor lists, perpetual/occasional/extra = 1 0 0
  (1) pair eam/alloy, perpetual
      attributes: half, newton on
      pair build: half/bin/atomonly/newton
      stencil: half/bin/3d/newton
      bin: standard
Setting up Verlet run ...
  Unit style    : metal
  Current step  : 0
  Time step     : 0.001
Per MPI rank memory allocation (min/avg/max) = 11.15 | 11.15 | 11.15 Mbytes
Step Temp Press TotEng PotEng Enthalpy 
       0          300   -68135.309    -76852.93   -77614.958   -90224.691 
    1000    2050.9938     112577.4   -76854.088     -82063.8   -54760.432 
Loop time of 106.69 on 2 procs for 1000 steps with 19652 atoms

Performance: 0.810 ns/day, 29.636 hours/ns, 9.373 timesteps/s
99.2% CPU use with 2 MPI tasks x no OpenMP threads

MPI task timing breakdown:
Section |  min time  |  avg time  |  max time  |%varavg| %total
---------------------------------------------------------------
Pair    | 60.9       | 61.155     | 61.41      |   3.3 | 57.32
Neigh   | 41.408     | 42.236     | 43.063     |  12.7 | 39.59
Comm    | 2.2786     | 2.8618     | 3.445      |  34.5 |  2.68
Output  | 8.4877e-05 | 0.00010204 | 0.00011921 |   0.0 |  0.00
Modify  | 0.21926    | 0.2261     | 0.23295    |   1.4 |  0.21
Other   |            | 0.2117     |            |       |  0.20

Nlocal:    9826 ave 9831 max 9821 min
Histogram: 1 0 0 0 0 0 0 0 0 1
Nghost:    13229 ave 13238 max 13220 min
Histogram: 1 0 0 0 0 0 0 0 0 1
Neighs:    784718 ave 785335 max 784102 min
Histogram: 1 0 0 0 0 0 0 0 0 1

Total # of neighbors = 1569437
Ave neighs/atom = 79.8614
Neighbor list builds = 1000
Dangerous builds not checked
Setting up Verlet run ...
  Unit style    : metal
  Current step  : 1000
  Time step     : 0.001
Per MPI rank memory allocation (min/avg/max) = 11.15 | 11.15 | 11.15 Mbytes
Step Temp Press TotEng PotEng Enthalpy 
    1000    2050.9938     112577.4   -76854.088     -82063.8   -54760.432 
    2000     338.8133     353.5972   -86823.369   -87683.986   -86743.615 
Loop time of 95.4268 on 2 procs for 1000 steps with 19652 atoms

Performance: 0.905 ns/day, 26.507 hours/ns, 10.479 timesteps/s
98.2% CPU use with 2 MPI tasks x no OpenMP threads

MPI task timing breakdown:
Section |  min time  |  avg time  |  max time  |%varavg| %total
---------------------------------------------------------------
Pair    | 51.76      | 52.247     | 52.734     |   6.7 | 54.75
Neigh   | 37.544     | 38.649     | 39.754     |  17.8 | 40.50
Comm    | 2.7906     | 3.4314     | 4.0722     |  34.6 |  3.60
Output  | 7.6056e-05 | 0.00010502 | 0.00013399 |   0.0 |  0.00
Modify  | 0.86112    | 0.88209    | 0.90307    |   2.2 |  0.92
Other   |            | 0.2174     |            |       |  0.23

Nlocal:    9826 ave 9849 max 9803 min
Histogram: 1 0 0 0 0 0 0 0 0 1
Nghost:    12464 ave 12472 max 12456 min
Histogram: 1 0 0 0 0 0 0 0 0 1
Neighs:    683480 ave 685398 max 681562 min
Histogram: 1 0 0 0 0 0 0 0 0 1

Total # of neighbors = 1366960
Ave neighs/atom = 69.5583
Neighbor list builds = 1000
Dangerous builds not checked
Setting up Verlet run ...
  Unit style    : metal
  Current step  : 2000
  Time step     : 0.001
Per MPI rank memory allocation (min/avg/max) = 11.15 | 11.15 | 11.15 Mbytes
Step Temp Press TotEng PotEng Enthalpy 
    2000     338.8133     353.5972   -86823.369   -87683.986   -86743.615 
   10000    2454.2678    850.73373   -75471.562   -81705.626   -75264.578 
Loop time of 766.748 on 2 procs for 8000 steps with 19652 atoms

Performance: 0.901 ns/day, 26.623 hours/ns, 10.434 timesteps/s
98.6% CPU use with 2 MPI tasks x no OpenMP threads

MPI task timing breakdown:
Section |  min time  |  avg time  |  max time  |%varavg| %total
---------------------------------------------------------------
Pair    | 420.43     | 425.18     | 429.93     |  23.0 | 55.45
Neigh   | 304.05     | 304.15     | 304.25     |   0.6 | 39.67
Comm    | 23.697     | 28.579     | 33.461     |  91.3 |  3.73
Output  | 7.4863e-05 | 0.00011051 | 0.00014615 |   0.0 |  0.00
Modify  | 6.9298     | 6.9435     | 6.9572     |   0.5 |  0.91
Other   |            | 1.895      |            |       |  0.25

Nlocal:    9826 ave 9840 max 9812 min
Histogram: 1 0 0 0 0 0 0 0 0 1
Nghost:    12037 ave 12040 max 12034 min
Histogram: 1 0 0 0 0 0 0 0 0 1
Neighs:    633020 ave 637432 max 628607 min
Histogram: 1 0 0 0 0 0 0 0 0 1

Total # of neighbors = 1266039
Ave neighs/atom = 64.4229
Neighbor list builds = 8000
Dangerous builds not checked
Setting up Verlet run ...
  Unit style    : metal
  Current step  : 10000
  Time step     : 0.001
Per MPI rank memory allocation (min/avg/max) = 11.16 | 11.16 | 11.16 Mbytes
Step Temp Press TotEng PotEng Enthalpy 
   10000    2454.2678    850.73373   -75471.562   -81705.626   -75264.578 
   20000    2440.1307   -1601.7489   -75482.256    -81680.41   -75872.975 
   40000    2453.4992    240.32914   -75476.036   -81708.148   -75417.666 
Loop time of 3115.71 on 2 procs for 30000 steps with 19652 atoms

Performance: 0.832 ns/day, 28.849 hours/ns, 9.629 timesteps/s
98.3% CPU use with 2 MPI tasks x no OpenMP threads

MPI task timing breakdown:
Section |  min time  |  avg time  |  max time  |%varavg| %total
---------------------------------------------------------------
Pair    | 1743.5     | 1770.7     | 1797.9     |  64.7 | 56.83
Neigh   | 1168       | 1178.2     | 1188.3     |  29.5 | 37.81
Comm    | 93.669     | 131.25     | 168.82     | 328.0 |  4.21
Output  | 0.3487     | 0.34875    | 0.34881    |   0.0 |  0.01
Modify  | 27.746     | 27.83      | 27.914     |   1.6 |  0.89
Other   |            | 7.426      |            |       |  0.24

Nlocal:    9826 ave 9843 max 9809 min
Histogram: 1 0 0 0 0 0 0 0 0 1
Nghost:    12041.5 ave 12056 max 12027 min
Histogram: 1 0 0 0 0 0 0 0 0 1
Neighs:    634104 ave 638498 max 629711 min
Histogram: 1 0 0 0 0 0 0 0 0 1

Total # of neighbors = 1268209
Ave neighs/atom = 64.5333
Neighbor list builds = 30000
Dangerous builds not checked
Setting up Verlet run ...
  Unit style    : metal
  Current step  : 40000
  Time step     : 0.001
Per MPI rank memory allocation (min/avg/max) = 11.3 | 11.3 | 11.3 Mbytes
Step Temp Press TotEng PotEng Enthalpy 
   40000    2453.4992    240.32914   -75476.036   -81708.148   -75417.666 
   40495    2412.5872   -1173.1203   -75623.099    -81751.29   -75908.473 
Loop time of 47.4968 on 2 procs for 495 steps with 19652 atoms

Performance: 0.900 ns/day, 26.654 hours/ns, 10.422 timesteps/s
98.0% CPU use with 2 MPI tasks x no OpenMP threads

MPI task timing breakdown:
Section |  min time  |  avg time  |  max time  |%varavg| %total
---------------------------------------------------------------
Pair    | 26.909     | 26.998     | 27.087     |   1.7 | 56.84
Neigh   | 17.942     | 18.074     | 18.205     |   3.1 | 38.05
Comm    | 1.6027     | 1.8238     | 2.045      |  16.4 |  3.84
Output  | 7.7963e-05 | 0.00011599 | 0.00015402 |   0.0 |  0.00
Modify  | 0.47229    | 0.47658    | 0.48087    |   0.6 |  1.00
Other   |            | 0.1244     |            |       |  0.26

Nlocal:    9826 ave 9855 max 9797 min
Histogram: 1 0 0 0 0 0 0 0 0 1
Nghost:    12057.5 ave 12065 max 12050 min
Histogram: 1 0 0 0 0 0 0 0 0 1
Neighs:    633315 ave 642108 max 624522 min
Histogram: 1 0 0 0 0 0 0 0 0 1

Total # of neighbors = 1266630
Ave neighs/atom = 64.453
Neighbor list builds = 495
Dangerous builds not checked
Setting up Verlet run ...
  Unit style    : metal
  Current step  : 40495
  Time step     : 0.001
Per MPI rank memory allocation (min/avg/max) = 11.3 | 11.3 | 11.3 Mbytes
Step Temp Press TotEng PotEng Enthalpy 
   40495    2412.5872   -1173.1203   -75623.099    -81751.29   -75908.473 
   60000     2407.466     -627.212   -75641.541   -81756.724   -75794.179 
Loop time of 1885.72 on 2 procs for 19505 steps with 19652 atoms

Performance: 0.894 ns/day, 26.855 hours/ns, 10.344 timesteps/s
98.1% CPU use with 2 MPI tasks x no OpenMP threads

MPI task timing breakdown:
Section |  min time  |  avg time  |  max time  |%varavg| %total
---------------------------------------------------------------
Pair    | 1048.6     | 1052       | 1055.4     |  10.5 | 55.79
Neigh   | 730.87     | 733.3      | 735.73     |   9.0 | 38.89
Comm    | 78.481     | 79.372     | 80.263     |  10.0 |  4.21
Output  | 0.13729    | 0.13731    | 0.13732    |   0.0 |  0.01
Modify  | 16.576     | 16.596     | 16.616     |   0.5 |  0.88
Other   |            | 4.33       |            |       |  0.23

Nlocal:    9826 ave 9860 max 9792 min
Histogram: 1 0 0 0 0 0 0 0 0 1
Nghost:    12009 ave 12037 max 11981 min
Histogram: 1 0 0 0 0 0 0 0 0 1
Neighs:    632927 ave 635946 max 629908 min
Histogram: 1 0 0 0 0 0 0 0 0 1

Total # of neighbors = 1265854
Ave neighs/atom = 64.4135
Neighbor list builds = 19505
Dangerous builds not checked
Setting up Verlet run ...
  Unit style    : metal
  Current step  : 60000
  Time step     : 0.001
Per MPI rank memory allocation (min/avg/max) = 11.32 | 11.32 | 11.32 Mbytes
Step Temp Press TotEng PotEng Enthalpy 
   60000     2407.466     -627.212   -75641.541   -81756.724   -75794.179 
   60495    2356.3938    618.95237   -75891.538   -81876.993   -75741.656 
Loop time of 48.3456 on 2 procs for 495 steps with 19652 atoms

Performance: 0.885 ns/day, 27.130 hours/ns, 10.239 timesteps/s
98.3% CPU use with 2 MPI tasks x no OpenMP threads

MPI task timing breakdown:
Section |  min time  |  avg time  |  max time  |%varavg| %total
---------------------------------------------------------------
Pair    | 27.151     | 27.276     | 27.4       |   2.4 | 56.42
Neigh   | 17.959     | 18.336     | 18.713     |   8.8 | 37.93
Comm    | 1.651      | 2.1706     | 2.6902     |  35.3 |  4.49
Output  | 8.9884e-05 | 0.00013542 | 0.00018096 |   0.0 |  0.00
Modify  | 0.43416    | 0.44383    | 0.4535     |   1.5 |  0.92
Other   |            | 0.1191     |            |       |  0.25

Nlocal:    9826 ave 9830 max 9822 min
Histogram: 1 0 0 0 0 0 0 0 0 1
Nghost:    12063 ave 12070 max 12056 min
Histogram: 1 0 0 0 0 0 0 0 0 1
Neighs:    635958 ave 642536 max 629381 min
Histogram: 1 0 0 0 0 0 0 0 0 1

Total # of neighbors = 1271917
Ave neighs/atom = 64.722
Neighbor list builds = 495
Dangerous builds not checked
Setting up Verlet run ...
  Unit style    : metal
  Current step  : 60495
  Time step     : 0.001
Per MPI rank memory allocation (min/avg/max) = 11.32 | 11.32 | 11.32 Mbytes
Step Temp Press TotEng PotEng Enthalpy 
   60495    2356.3938    618.95237   -75891.538   -81876.993   -75741.656 
   80000     2340.995    517.53493   -75917.482   -81863.822    -75792.15 
Loop time of 1974.1 on 2 procs for 19505 steps with 19652 atoms

Performance: 0.854 ns/day, 28.114 hours/ns, 9.880 timesteps/s
99.5% CPU use with 2 MPI tasks x no OpenMP threads

MPI task timing breakdown:
Section |  min time  |  avg time  |  max time  |%varavg| %total
---------------------------------------------------------------
Pair    | 1119.6     | 1124.4     | 1129.2     |  14.3 | 56.96
Neigh   | 756.21     | 763.69     | 771.17     |  27.1 | 38.69
Comm    | 61.416     | 64.269     | 67.123     |  35.6 |  3.26
Output  | 0.06937    | 0.069378   | 0.069385   |   0.0 |  0.00
Modify  | 16.922     | 17.035     | 17.148     |   2.7 |  0.86
Other   |            | 4.639      |            |       |  0.23

Nlocal:    9826 ave 9848 max 9804 min
Histogram: 1 0 0 0 0 0 0 0 0 1
Nghost:    12058 ave 12097 max 12019 min
Histogram: 1 0 0 0 0 0 0 0 0 1
Neighs:    636280 ave 639026 max 633535 min
Histogram: 1 0 0 0 0 0 0 0 0 1

Total # of neighbors = 1272561
Ave neighs/atom = 64.7548
Neighbor list builds = 19505
Dangerous builds not checked
Setting up Verlet run ...
  Unit style    : metal
  Current step  : 80000
  Time step     : 0.001
Per MPI rank memory allocation (min/avg/max) = 11.33 | 11.33 | 11.33 Mbytes
Step Temp Press TotEng PotEng Enthalpy 
   80000     2340.995    517.53493   -75917.482   -81863.822    -75792.15 
   80495     2311.126    1046.1212   -76104.509    -81974.98   -75851.827 
Loop time of 47.6969 on 2 procs for 495 steps with 19652 atoms

Performance: 0.897 ns/day, 26.766 hours/ns, 10.378 timesteps/s
99.7% CPU use with 2 MPI tasks x no OpenMP threads

MPI task timing breakdown:
Section |  min time  |  avg time  |  max time  |%varavg| %total
---------------------------------------------------------------
Pair    | 26.693     | 26.861     | 27.03      |   3.3 | 56.32
Neigh   | 15.913     | 17.679     | 19.445     |  42.0 | 37.07
Comm    | 0.65172    | 2.6252     | 4.5986     | 121.8 |  5.50
Output  | 9.6083e-05 | 0.00011361 | 0.00013113 |   0.0 |  0.00
Modify  | 0.39605    | 0.42276    | 0.44947    |   4.1 |  0.89
Other   |            | 0.1085     |            |       |  0.23

Nlocal:    9826 ave 9830 max 9822 min
Histogram: 1 0 0 0 0 0 0 0 0 1
Nghost:    12064 ave 12075 max 12053 min
Histogram: 1 0 0 0 0 0 0 0 0 1
Neighs:    637542 ave 642571 max 632512 min
Histogram: 1 0 0 0 0 0 0 0 0 1

Total # of neighbors = 1275083
Ave neighs/atom = 64.8831
Neighbor list builds = 495
Dangerous builds not checked
Setting up Verlet run ...
  Unit style    : metal
  Current step  : 80495
  Time step     : 0.001
Per MPI rank memory allocation (min/avg/max) = 11.33 | 11.33 | 11.33 Mbytes
Step Temp Press TotEng PotEng Enthalpy 
   80495     2311.126    1046.1212   -76104.509    -81974.98   -75851.827 
  100000    2313.4798    26.107001   -76061.828   -81938.278   -76055.508 
Loop time of 1863.84 on 2 procs for 19505 steps with 19652 atoms

Performance: 0.904 ns/day, 26.544 hours/ns, 10.465 timesteps/s
97.1% CPU use with 2 MPI tasks x no OpenMP threads

MPI task timing breakdown:
Section |  min time  |  avg time  |  max time  |%varavg| %total
---------------------------------------------------------------
Pair    | 1020.1     | 1030.7     | 1041.4     |  33.3 | 55.30
Neigh   | 687.51     | 695.75     | 703.99     |  31.2 | 37.33
Comm    | 97.945     | 117.06     | 136.17     | 176.6 |  6.28
Output  | 0.17732    | 0.17735    | 0.17738    |   0.0 |  0.01
Modify  | 15.853     | 15.983     | 16.114     |   3.3 |  0.86
Other   |            | 4.123      |            |       |  0.22

Nlocal:    9826 ave 9857 max 9795 min
Histogram: 1 0 0 0 0 0 0 0 0 1
Nghost:    12052.5 ave 12066 max 12039 min
Histogram: 1 0 0 0 0 0 0 0 0 1
Neighs:    636295 ave 638831 max 633759 min
Histogram: 1 0 0 0 0 0 0 0 0 1

Total # of neighbors = 1272590
Ave neighs/atom = 64.7563
Neighbor list builds = 19505
Dangerous builds not checked
Setting up Verlet run ...
  Unit style    : metal
  Current step  : 100000
  Time step     : 0.001
Per MPI rank memory allocation (min/avg/max) = 11.34 | 11.34 | 11.34 Mbytes
Step Temp Press TotEng PotEng Enthalpy 
  100000    2313.4798    26.107001   -76061.828   -81938.278   -76055.508 
  100495    2251.7913    864.65022   -76316.606   -82036.361   -76107.676 
Loop time of 43.7599 on 2 procs for 495 steps with 19652 atoms

Performance: 0.977 ns/day, 24.557 hours/ns, 11.312 timesteps/s
99.7% CPU use with 2 MPI tasks x no OpenMP threads

MPI task timing breakdown:
Section |  min time  |  avg time  |  max time  |%varavg| %total
---------------------------------------------------------------
Pair    | 23.465     | 24.232     | 24.998     |  15.6 | 55.37
Neigh   | 16.787     | 17.179     | 17.57      |   9.4 | 39.26
Comm    | 0.65118    | 1.8282     | 3.0052     |  87.1 |  4.18
Output  | 7.1049e-05 | 9.5606e-05 | 0.00012016 |   0.0 |  0.00
Modify  | 0.39882    | 0.40929    | 0.41975    |   1.6 |  0.94
Other   |            | 0.1118     |            |       |  0.26

Nlocal:    9826 ave 9828 max 9824 min
Histogram: 1 0 0 0 0 0 0 0 0 1
Nghost:    12078 ave 12081 max 12075 min
Histogram: 1 0 0 0 0 0 0 0 0 1
Neighs:    637860 ave 644863 max 630857 min
Histogram: 1 0 0 0 0 0 0 0 0 1

Total # of neighbors = 1275720
Ave neighs/atom = 64.9155
Neighbor list builds = 495
Dangerous builds not checked
Setting up Verlet run ...
  Unit style    : metal
  Current step  : 100495
  Time step     : 0.001
Per MPI rank memory allocation (min/avg/max) = 11.34 | 11.34 | 11.34 Mbytes
Step Temp Press TotEng PotEng Enthalpy 
  100495    2251.7913    864.65022   -76316.606   -82036.361   -76107.676 
  120000    2232.0694   -319.84882   -76396.836   -82066.496   -76474.073 
Loop time of 1800.04 on 2 procs for 19505 steps with 19652 atoms

Performance: 0.936 ns/day, 25.635 hours/ns, 10.836 timesteps/s
98.5% CPU use with 2 MPI tasks x no OpenMP threads

MPI task timing breakdown:
Section |  min time  |  avg time  |  max time  |%varavg| %total
---------------------------------------------------------------
Pair    | 991.14     | 995.58     | 1000       |  14.1 | 55.31
Neigh   | 700.77     | 707.13     | 713.49     |  23.9 | 39.28
Comm    | 66.043     | 76.947     | 87.851     | 124.3 |  4.27
Output  | 0.059926   | 0.059949   | 0.059971   |   0.0 |  0.00
Modify  | 16.043     | 16.111     | 16.179     |   1.7 |  0.90
Other   |            | 4.216      |            |       |  0.23

Nlocal:    9826 ave 9837 max 9815 min
Histogram: 1 0 0 0 0 0 0 0 0 1
Nghost:    12105 ave 12106 max 12104 min
Histogram: 1 0 0 0 0 0 0 0 0 1
Neighs:    637898 ave 642060 max 633736 min
Histogram: 1 0 0 0 0 0 0 0 0 1

Total # of neighbors = 1275796
Ave neighs/atom = 64.9194
Neighbor list builds = 19505
Dangerous builds not checked
Setting up Verlet run ...
  Unit style    : metal
  Current step  : 120000
  Time step     : 0.001
Per MPI rank memory allocation (min/avg/max) = 11.34 | 11.34 | 11.34 Mbytes
Step Temp Press TotEng PotEng Enthalpy 
  120000    2232.0694   -319.84882   -76396.836   -82066.496   -76474.073 
  120495    2199.5814    441.48906   -76542.411   -82129.548   -76436.035 
Loop time of 50.8629 on 2 procs for 495 steps with 19652 atoms

Performance: 0.841 ns/day, 28.543 hours/ns, 9.732 timesteps/s
89.9% CPU use with 2 MPI tasks x no OpenMP threads

MPI task timing breakdown:
Section |  min time  |  avg time  |  max time  |%varavg| %total
---------------------------------------------------------------
Pair    | 25.415     | 25.492     | 25.569     |   1.5 | 50.12
Neigh   | 17.973     | 17.991     | 18.009     |   0.4 | 35.37
Comm    | 6.6839     | 6.7991     | 6.9144     |   4.4 | 13.37
Output  | 7.7963e-05 | 0.00010502 | 0.00013208 |   0.0 |  0.00
Modify  | 0.44553    | 0.46047    | 0.4754     |   2.2 |  0.91
Other   |            | 0.1201     |            |       |  0.24

Nlocal:    9826 ave 9830 max 9822 min
Histogram: 1 0 0 0 0 0 0 0 0 1
Nghost:    12101.5 ave 12119 max 12084 min
Histogram: 1 0 0 0 0 0 0 0 0 1
Neighs:    639586 ave 644925 max 634246 min
Histogram: 1 0 0 0 0 0 0 0 0 1

Total # of neighbors = 1279171
Ave neighs/atom = 65.0911
Neighbor list builds = 495
Dangerous builds not checked
Setting up Verlet run ...
  Unit style    : metal
  Current step  : 120495
  Time step     : 0.001
Per MPI rank memory allocation (min/avg/max) = 11.34 | 11.34 | 11.34 Mbytes
Step Temp Press TotEng PotEng Enthalpy 
  120495    2199.5814    441.48906   -76542.411   -82129.548   -76436.035 
  140000    2182.9732   -1125.4988   -76596.178   -82141.129   -76868.051 
Loop time of 2737.57 on 2 procs for 19505 steps with 19652 atoms

Performance: 0.616 ns/day, 38.987 hours/ns, 7.125 timesteps/s
78.0% CPU use with 2 MPI tasks x no OpenMP threads

MPI task timing breakdown:
Section |  min time  |  avg time  |  max time  |%varavg| %total
---------------------------------------------------------------
Pair    | 1534.6     | 1545.2     | 1555.8     |  27.0 | 56.45
Neigh   | 852.45     | 890.26     | 928.06     | 126.7 | 32.52
Comm    | 239.95     | 267.88     | 295.82     | 170.7 |  9.79
Output  | 0.090406   | 0.090422   | 0.090438   |   0.0 |  0.00
Modify  | 28.207     | 28.632     | 29.058     |   8.0 |  1.05
Other   |            | 5.466      |            |       |  0.20

Nlocal:    9826 ave 9826 max 9826 min
Histogram: 2 0 0 0 0 0 0 0 0 0
Nghost:    12100 ave 12119 max 12081 min
Histogram: 1 0 0 0 0 0 0 0 0 1
Neighs:    637712 ave 643924 max 631501 min
Histogram: 1 0 0 0 0 0 0 0 0 1

Total # of neighbors = 1275425
Ave neighs/atom = 64.9005
Neighbor list builds = 19505
Dangerous builds not checked
Setting up Verlet run ...
  Unit style    : metal
  Current step  : 140000
  Time step     : 0.001
Per MPI rank memory allocation (min/avg/max) = 11.34 | 11.34 | 11.34 Mbytes
Step Temp Press TotEng PotEng Enthalpy 
  140000    2182.9732   -1125.4988   -76596.178   -82141.129   -76868.051 
  140495    2146.1244   -1554.9567   -76776.388   -82227.739   -77151.248 
Loop time of 57.3472 on 2 procs for 495 steps with 19652 atoms

Performance: 0.746 ns/day, 32.181 hours/ns, 8.632 timesteps/s
85.5% CPU use with 2 MPI tasks x no OpenMP threads

MPI task timing breakdown:
Section |  min time  |  avg time  |  max time  |%varavg| %total
---------------------------------------------------------------
Pair    | 32.044     | 32.421     | 32.798     |   6.6 | 56.53
Neigh   | 18.356     | 20.527     | 22.698     |  47.9 | 35.79
Comm    | 1.8477     | 3.7024     | 5.5572     |  96.4 |  6.46
Output  | 7.1049e-05 | 0.00010407 | 0.00013709 |   0.0 |  0.00
Modify  | 0.51191    | 0.5567     | 0.60149    |   6.0 |  0.97
Other   |            | 0.1405     |            |       |  0.24

Nlocal:    9826 ave 9830 max 9822 min
Histogram: 1 0 0 0 0 0 0 0 0 1
Nghost:    12117 ave 12134 max 12100 min
Histogram: 1 0 0 0 0 0 0 0 0 1
Neighs:    639378 ave 646483 max 632272 min
Histogram: 1 0 0 0 0 0 0 0 0 1

Total # of neighbors = 1278755
Ave neighs/atom = 65.07
Neighbor list builds = 495
Dangerous builds not checked
Setting up Verlet run ...
  Unit style    : metal
  Current step  : 140495
  Time step     : 0.001
Per MPI rank memory allocation (min/avg/max) = 11.34 | 11.34 | 11.34 Mbytes
Step Temp Press TotEng PotEng Enthalpy 
  140495    2146.1244   -1554.9567   -76776.388   -82227.739   -77151.248 
  160000    2154.5221    1035.4229   -76772.757   -82245.439   -76524.087 
Loop time of 2837.76 on 2 procs for 19505 steps with 19652 atoms

Performance: 0.594 ns/day, 40.414 hours/ns, 6.873 timesteps/s
75.2% CPU use with 2 MPI tasks x no OpenMP threads

MPI task timing breakdown:
Section |  min time  |  avg time  |  max time  |%varavg| %total
---------------------------------------------------------------
Pair    | 1595.8     | 1600.3     | 1604.8     |  11.1 | 56.39
Neigh   | 900.86     | 944.31     | 987.77     | 141.4 | 33.28
Comm    | 206.94     | 255.6      | 304.25     | 304.3 |  9.01
Output  | 0.13666    | 0.13667    | 0.13669    |   0.0 |  0.00
Modify  | 31.147     | 31.557     | 31.968     |   7.3 |  1.11
Other   |            | 5.859      |            |       |  0.21

Nlocal:    9826 ave 9832 max 9820 min
Histogram: 1 0 0 0 0 0 0 0 0 1
Nghost:    12130 ave 12134 max 12126 min
Histogram: 1 0 0 0 0 0 0 0 0 1
Neighs:    641543 ave 647979 max 635107 min
Histogram: 1 0 0 0 0 0 0 0 0 1

Total # of neighbors = 1283086
Ave neighs/atom = 65.2904
Neighbor list builds = 19505
Dangerous builds not checked
Setting up Verlet run ...
  Unit style    : metal
  Current step  : 160000
  Time step     : 0.001
Per MPI rank memory allocation (min/avg/max) = 11.34 | 11.34 | 11.34 Mbytes
Step Temp Press TotEng PotEng Enthalpy 
  160000    2154.5221    1035.4229   -76772.757   -82245.439   -76524.087 
  160495     2106.857    1198.7882   -76975.334   -82326.943   -76688.418 
Loop time of 84.5998 on 2 procs for 495 steps with 19652 atoms

Performance: 0.506 ns/day, 47.475 hours/ns, 5.851 timesteps/s
65.0% CPU use with 2 MPI tasks x no OpenMP threads

MPI task timing breakdown:
Section |  min time  |  avg time  |  max time  |%varavg| %total
---------------------------------------------------------------
Pair    | 47.076     | 47.144     | 47.212     |   1.0 | 55.73
Neigh   | 26.074     | 27.844     | 29.613     |  33.5 | 32.91
Comm    | 6.5386     | 8.2165     | 9.8945     |  58.5 |  9.71
Output  | 9.1076e-05 | 0.00010765 | 0.00012422 |   0.0 |  0.00
Modify  | 1.1684     | 1.2099     | 1.2514     |   3.8 |  1.43
Other   |            | 0.1858     |            |       |  0.22

Nlocal:    9826 ave 9851 max 9801 min
Histogram: 1 0 0 0 0 0 0 0 0 1
Nghost:    12178 ave 12207 max 12149 min
Histogram: 1 0 0 0 0 0 0 0 0 1
Neighs:    643634 ave 652249 max 635018 min
Histogram: 1 0 0 0 0 0 0 0 0 1

Total # of neighbors = 1287267
Ave neighs/atom = 65.5031
Neighbor list builds = 495
Dangerous builds not checked
Setting up Verlet run ...
  Unit style    : metal
  Current step  : 160495
  Time step     : 0.001
Per MPI rank memory allocation (min/avg/max) = 11.34 | 11.34 | 11.34 Mbytes
Step Temp Press TotEng PotEng Enthalpy 
  160495     2106.857    1198.7882   -76975.334   -82326.943   -76688.418 
  180000    2094.4685   -263.14123   -77064.627   -82384.768   -77127.756 
Loop time of 2433.31 on 2 procs for 19505 steps with 19652 atoms

Performance: 0.693 ns/day, 34.654 hours/ns, 8.016 timesteps/s
81.5% CPU use with 2 MPI tasks x no OpenMP threads

MPI task timing breakdown:
Section |  min time  |  avg time  |  max time  |%varavg| %total
---------------------------------------------------------------
Pair    | 1356.8     | 1367.7     | 1378.6     |  29.4 | 56.21
Neigh   | 810.88     | 847.45     | 884.02     | 125.6 | 34.83
Comm    | 160.43     | 186.84     | 213.25     | 193.2 |  7.68
Output  | 0.092254   | 0.092263   | 0.092272   |   0.0 |  0.00
Modify  | 25.539     | 26.015     | 26.491     |   9.3 |  1.07
Other   |            | 5.208      |            |       |  0.21

Nlocal:    9826 ave 9828 max 9824 min
Histogram: 1 0 0 0 0 0 0 0 0 1
Nghost:    12104 ave 12104 max 12104 min
Histogram: 2 0 0 0 0 0 0 0 0 0
Neighs:    642164 ave 647990 max 636339 min
Histogram: 1 0 0 0 0 0 0 0 0 1

Total # of neighbors = 1284329
Ave neighs/atom = 65.3536
Neighbor list builds = 19505
Dangerous builds not checked
Setting up Verlet run ...
  Unit style    : metal
  Current step  : 180000
  Time step     : 0.001
Per MPI rank memory allocation (min/avg/max) = 11.34 | 11.34 | 11.34 Mbytes
Step Temp Press TotEng PotEng Enthalpy 
  180000    2094.4685   -263.14123   -77064.627   -82384.768   -77127.756 
  180495    2067.8587    701.00925    -77223.52   -82476.069   -77055.748 
Loop time of 44.1624 on 2 procs for 495 steps with 19652 atoms

Performance: 0.968 ns/day, 24.782 hours/ns, 11.209 timesteps/s
97.2% CPU use with 2 MPI tasks x no OpenMP threads

MPI task timing breakdown:
Section |  min time  |  avg time  |  max time  |%varavg| %total
---------------------------------------------------------------
Pair    | 24.214     | 24.531     | 24.847     |   6.4 | 55.55
Neigh   | 16.923     | 17.599     | 18.276     |  16.1 | 39.85
Comm    | 1.1303     | 1.5045     | 1.8788     |  30.5 |  3.41
Output  | 7.4148e-05 | 9.5129e-05 | 0.00011611 |   0.0 |  0.00
Modify  | 0.41185    | 0.4218     | 0.43176    |   1.5 |  0.96
Other   |            | 0.1061     |            |       |  0.24

Nlocal:    9826 ave 9833 max 9819 min
Histogram: 1 0 0 0 0 0 0 0 0 1
Nghost:    12148 ave 12158 max 12138 min
Histogram: 1 0 0 0 0 0 0 0 0 1
Neighs:    643873 ave 650858 max 636888 min
Histogram: 1 0 0 0 0 0 0 0 0 1

Total # of neighbors = 1287746
Ave neighs/atom = 65.5275
Neighbor list builds = 495
Dangerous builds not checked
Setting up Verlet run ...
  Unit style    : metal
  Current step  : 180495
  Time step     : 0.001
Per MPI rank memory allocation (min/avg/max) = 11.34 | 11.34 | 11.34 Mbytes
Step Temp Press TotEng PotEng Enthalpy 
  180495    2067.8587    701.00925    -77223.52   -82476.069   -77055.748 
  200000    2035.7819    847.81512   -77308.062   -82479.134   -77105.577 
Loop time of 1743.42 on 2 procs for 19505 steps with 19652 atoms

Performance: 0.967 ns/day, 24.829 hours/ns, 11.188 timesteps/s
99.2% CPU use with 2 MPI tasks x no OpenMP threads

MPI task timing breakdown:
Section |  min time  |  avg time  |  max time  |%varavg| %total
---------------------------------------------------------------
Pair    | 965.57     | 968.29     | 971        |   8.7 | 55.54
Neigh   | 679.89     | 689.27     | 698.64     |  35.7 | 39.54
Comm    | 53.922     | 66.129     | 78.335     | 150.1 |  3.79
Output  | 0.058074   | 0.058105   | 0.058137   |   0.0 |  0.00
Modify  | 15.513     | 15.596     | 15.678     |   2.1 |  0.89
Other   |            | 4.09       |            |       |  0.23

Nlocal:    9826 ave 9845 max 9807 min
Histogram: 1 0 0 0 0 0 0 0 0 1
Nghost:    12099 ave 12126 max 12072 min
Histogram: 1 0 0 0 0 0 0 0 0 1
Neighs:    645058 ave 649971 max 640144 min
Histogram: 1 0 0 0 0 0 0 0 0 1

Total # of neighbors = 1290115
Ave neighs/atom = 65.648
Neighbor list builds = 19505
Dangerous builds not checked
Setting up Verlet run ...
  Unit style    : metal
  Current step  : 200000
  Time step     : 0.001
Per MPI rank memory allocation (min/avg/max) = 11.35 | 11.35 | 11.35 Mbytes
Step Temp Press TotEng PotEng Enthalpy 
  200000    2035.7819    847.81512   -77308.062   -82479.134   -77105.577 
  200495    2009.8097    856.88939   -77404.436   -82509.536   -77199.718 
Loop time of 43.1769 on 2 procs for 495 steps with 19652 atoms

Performance: 0.991 ns/day, 24.229 hours/ns, 11.464 timesteps/s
99.4% CPU use with 2 MPI tasks x no OpenMP threads

MPI task timing breakdown:
Section |  min time  |  avg time  |  max time  |%varavg| %total
---------------------------------------------------------------
Pair    | 23.795     | 23.929     | 24.063     |   2.7 | 55.42
Neigh   | 16.665     | 17.303     | 17.941     |  15.3 | 40.07
Comm    | 0.6648     | 1.4407     | 2.2166     |  64.6 |  3.34
Output  | 7.0095e-05 | 0.00010109 | 0.00013208 |   0.0 |  0.00
Modify  | 0.3977     | 0.39776    | 0.39782    |   0.0 |  0.92
Other   |            | 0.1064     |            |       |  0.25

Nlocal:    9826 ave 9841 max 9811 min
Histogram: 1 0 0 0 0 0 0 0 0 1
Nghost:    12157 ave 12174 max 12140 min
Histogram: 1 0 0 0 0 0 0 0 0 1
Neighs:    645026 ave 649222 max 640830 min
Histogram: 1 0 0 0 0 0 0 0 0 1

Total # of neighbors = 1290052
Ave neighs/atom = 65.6448
Neighbor list builds = 495
Dangerous builds not checked
Setting up Verlet run ...
  Unit style    : metal
  Current step  : 200495
  Time step     : 0.001
Per MPI rank memory allocation (min/avg/max) = 11.35 | 11.35 | 11.35 Mbytes
Step Temp Press TotEng PotEng Enthalpy 
  200495    2009.8097    856.88939   -77404.436   -82509.536   -77199.718 
  220000    1986.3678   -232.98779    -77496.51   -82542.066   -77552.134 
Loop time of 1836.26 on 2 procs for 19505 steps with 19652 atoms

Performance: 0.918 ns/day, 26.151 hours/ns, 10.622 timesteps/s
96.3% CPU use with 2 MPI tasks x no OpenMP threads

MPI task timing breakdown:
Section |  min time  |  avg time  |  max time  |%varavg| %total
---------------------------------------------------------------
Pair    | 1014.1     | 1018.9     | 1023.6     |  14.9 | 55.49
Neigh   | 708.21     | 715.8      | 723.39     |  28.4 | 38.98
Comm    | 67.481     | 79.811     | 92.142     | 138.0 |  4.35
Output  | 0.062196   | 0.0622     | 0.062204   |   0.0 |  0.00
Modify  | 17.1       | 17.131     | 17.161     |   0.7 |  0.93
Other   |            | 4.569      |            |       |  0.25

Nlocal:    9826 ave 9828 max 9824 min
Histogram: 1 0 0 0 0 0 0 0 0 1
Nghost:    12149.5 ave 12159 max 12140 min
Histogram: 1 0 0 0 0 0 0 0 0 1
Neighs:    645310 ave 651069 max 639551 min
Histogram: 1 0 0 0 0 0 0 0 0 1

Total # of neighbors = 1290620
Ave neighs/atom = 65.6737
Neighbor list builds = 19505
Dangerous builds not checked
Setting up Verlet run ...
  Unit style    : metal
  Current step  : 220000
  Time step     : 0.001
Per MPI rank memory allocation (min/avg/max) = 11.35 | 11.35 | 11.35 Mbytes
Step Temp Press TotEng PotEng Enthalpy 
  220000    1986.3678   -232.98779    -77496.51   -82542.066   -77552.134 
  220495    1964.7036   -31.378457   -77652.307   -82642.834    -77659.79 
Loop time of 63.3727 on 2 procs for 495 steps with 19652 atoms

Performance: 0.675 ns/day, 35.563 hours/ns, 7.811 timesteps/s
77.3% CPU use with 2 MPI tasks x no OpenMP threads

MPI task timing breakdown:
Section |  min time  |  avg time  |  max time  |%varavg| %total
---------------------------------------------------------------
Pair    | 34.223     | 35.168     | 36.112     |  15.9 | 55.49
Neigh   | 18.852     | 22.04      | 25.228     |  67.9 | 34.78
Comm    | 2.928      | 5.2187     | 7.5093     | 100.3 |  8.23
Output  | 6.8188e-05 | 0.00011158 | 0.00015497 |   0.0 |  0.00
Modify  | 0.76134    | 0.80152    | 0.84171    |   4.5 |  1.26
Other   |            | 0.1448     |            |       |  0.23

Nlocal:    9826 ave 9837 max 9815 min
Histogram: 1 0 0 0 0 0 0 0 0 1
Nghost:    12102 ave 12149 max 12055 min
Histogram: 1 0 0 0 0 0 0 0 0 1
Neighs:    646355 ave 653236 max 639474 min
Histogram: 1 0 0 0 0 0 0 0 0 1

Total # of neighbors = 1292710
Ave neighs/atom = 65.7801
Neighbor list builds = 495
Dangerous builds not checked
Setting up Verlet run ...
  Unit style    : metal
  Current step  : 220495
  Time step     : 0.001
Per MPI rank memory allocation (min/avg/max) = 11.35 | 11.35 | 11.35 Mbytes
Step Temp Press TotEng PotEng Enthalpy 
  220495    1964.7036   -31.378457   -77652.307   -82642.834    -77659.79 
  240000    1954.6064   -351.10123   -77664.391   -82629.269   -77748.158 
Loop time of 2443.69 on 2 procs for 19505 steps with 19652 atoms

Performance: 0.690 ns/day, 34.801 hours/ns, 7.982 timesteps/s
79.7% CPU use with 2 MPI tasks x no OpenMP threads

MPI task timing breakdown:
Section |  min time  |  avg time  |  max time  |%varavg| %total
---------------------------------------------------------------
Pair    | 1349.6     | 1358.3     | 1366.9     |  23.4 | 55.58
Neigh   | 831.9      | 844.9      | 857.91     |  44.7 | 34.57
Comm    | 202.75     | 207.51     | 212.27     |  33.0 |  8.49
Output  | 0.096874   | 0.096882   | 0.096891   |   0.0 |  0.00
Modify  | 27.285     | 27.507     | 27.728     |   4.2 |  1.13
Other   |            | 5.403      |            |       |  0.22

Nlocal:    9826 ave 9851 max 9801 min
Histogram: 1 0 0 0 0 0 0 0 0 1
Nghost:    12157.5 ave 12184 max 12131 min
Histogram: 1 0 0 0 0 0 0 0 0 1
Neighs:    645868 ave 649791 max 641946 min
Histogram: 1 0 0 0 0 0 0 0 0 1

Total # of neighbors = 1291737
Ave neighs/atom = 65.7306
Neighbor list builds = 19505
Dangerous builds not checked
Setting up Verlet run ...
  Unit style    : metal
  Current step  : 240000
  Time step     : 0.001
Per MPI rank memory allocation (min/avg/max) = 11.35 | 11.35 | 11.35 Mbytes
Step Temp Press TotEng PotEng Enthalpy 
  240000    1954.6064   -351.10123   -77664.391   -82629.269   -77748.158 
  240495    1891.6237   -59.244425   -77911.317   -82716.214   -77925.424 
Loop time of 70.5464 on 2 procs for 495 steps with 19652 atoms

Performance: 0.606 ns/day, 39.588 hours/ns, 7.017 timesteps/s
71.2% CPU use with 2 MPI tasks x no OpenMP threads

MPI task timing breakdown:
Section |  min time  |  avg time  |  max time  |%varavg| %total
---------------------------------------------------------------
Pair    | 38.46      | 38.675     | 38.889     |   3.5 | 54.82
Neigh   | 23.646     | 23.927     | 24.207     |   5.7 | 33.92
Comm    | 6.6649     | 6.7291     | 6.7932     |   2.5 |  9.54
Output  | 8.6069e-05 | 0.000108   | 0.00012994 |   0.0 |  0.00
Modify  | 1.0324     | 1.0436     | 1.0548     |   1.1 |  1.48
Other   |            | 0.1721     |            |       |  0.24

Nlocal:    9826 ave 9831 max 9821 min
Histogram: 1 0 0 0 0 0 0 0 0 1
Nghost:    12157 ave 12163 max 12151 min
Histogram: 1 0 0 0 0 0 0 0 0 1
Neighs:    646807 ave 652363 max 641251 min
Histogram: 1 0 0 0 0 0 0 0 0 1

Total # of neighbors = 1293614
Ave neighs/atom = 65.8261
Neighbor list builds = 495
Dangerous builds not checked
Setting up Verlet run ...
  Unit style    : metal
  Current step  : 240495
  Time step     : 0.001
Per MPI rank memory allocation (min/avg/max) = 11.35 | 11.35 | 11.35 Mbytes
Step Temp Press TotEng PotEng Enthalpy 
  240495    1891.6237   -59.244425   -77911.317   -82716.214   -77925.424 
  260000    1911.8155    244.37548   -77941.182   -82797.368   -77883.068 
Loop time of 2405.2 on 2 procs for 19505 steps with 19652 atoms

Performance: 0.701 ns/day, 34.253 hours/ns, 8.110 timesteps/s
80.1% CPU use with 2 MPI tasks x no OpenMP threads

MPI task timing breakdown:
Section |  min time  |  avg time  |  max time  |%varavg| %total
---------------------------------------------------------------
Pair    | 1329.2     | 1335.6     | 1342       |  17.6 | 55.53
Neigh   | 824.98     | 835.89     | 846.8      |  37.7 | 34.75
Comm    | 182.61     | 200.37     | 218.14     | 125.5 |  8.33
Output  | 0.10336    | 0.10339    | 0.10341    |   0.0 |  0.00
Modify  | 27.595     | 27.875     | 28.155     |   5.3 |  1.16
Other   |            | 5.349      |            |       |  0.22

Nlocal:    9826 ave 9833 max 9819 min
Histogram: 1 0 0 0 0 0 0 0 0 1
Nghost:    12191.5 ave 12229 max 12154 min
Histogram: 1 0 0 0 0 0 0 0 0 1
Neighs:    647888 ave 654169 max 641608 min
Histogram: 1 0 0 0 0 0 0 0 0 1

Total # of neighbors = 1295777
Ave neighs/atom = 65.9361
Neighbor list builds = 19505
Dangerous builds not checked
Setting up Verlet run ...
  Unit style    : metal
  Current step  : 260000
  Time step     : 0.001
Per MPI rank memory allocation (min/avg/max) = 11.35 | 11.35 | 11.35 Mbytes
Step Temp Press TotEng PotEng Enthalpy 
  260000    1911.8155    244.37548   -77941.182   -82797.368   -77883.068 
  260495    1868.6807    912.57154   -78112.894   -82859.513   -77896.293 
Loop time of 65.644 on 2 procs for 495 steps with 19652 atoms

Performance: 0.652 ns/day, 36.837 hours/ns, 7.541 timesteps/s
72.7% CPU use with 2 MPI tasks x no OpenMP threads

MPI task timing breakdown:
Section |  min time  |  avg time  |  max time  |%varavg| %total
---------------------------------------------------------------
Pair    | 36.438     | 36.498     | 36.558     |   1.0 | 55.60
Neigh   | 20.597     | 22.745     | 24.893     |  45.0 | 34.65
Comm    | 3.295      | 5.4902     | 7.6854     |  93.7 |  8.36
Output  | 9.0122e-05 | 0.00011563 | 0.00014114 |   0.0 |  0.00
Modify  | 0.76784    | 0.77601    | 0.78418    |   0.9 |  1.18
Other   |            | 0.1346     |            |       |  0.21

Nlocal:    9826 ave 9843 max 9809 min
Histogram: 1 0 0 0 0 0 0 0 0 1
Nghost:    12157 ave 12159 max 12155 min
Histogram: 1 0 0 0 0 0 0 0 0 1
Neighs:    649297 ave 656392 max 642202 min
Histogram: 1 0 0 0 0 0 0 0 0 1

Total # of neighbors = 1298594
Ave neighs/atom = 66.0795
Neighbor list builds = 495
Dangerous builds not checked
Setting up Verlet run ...
  Unit style    : metal
  Current step  : 260495
  Time step     : 0.001
Per MPI rank memory allocation (min/avg/max) = 11.35 | 11.35 | 11.35 Mbytes
Step Temp Press TotEng PotEng Enthalpy 
  260495    1868.6807    912.57154   -78112.894   -82859.513   -77896.293 
  280000    1846.4597     891.7592    -78189.77   -82879.946   -77978.432 
Loop time of 2299.05 on 2 procs for 19505 steps with 19652 atoms

Performance: 0.733 ns/day, 32.742 hours/ns, 8.484 timesteps/s
81.6% CPU use with 2 MPI tasks x no OpenMP threads

MPI task timing breakdown:
Section |  min time  |  avg time  |  max time  |%varavg| %total
---------------------------------------------------------------
Pair    | 1266.5     | 1276.3     | 1286.2     |  27.6 | 55.52
Neigh   | 797.16     | 814.39     | 831.61     |  60.4 | 35.42
Comm    | 170.09     | 177.9      | 185.7      |  58.5 |  7.74
Output  | 0.061123   | 0.061137   | 0.061152   |   0.0 |  0.00
Modify  | 24.797     | 25.134     | 25.472     |   6.7 |  1.09
Other   |            | 5.236      |            |       |  0.23

Nlocal:    9826 ave 9847 max 9805 min
Histogram: 1 0 0 0 0 0 0 0 0 1
Nghost:    12204.5 ave 12241 max 12168 min
Histogram: 1 0 0 0 0 0 0 0 0 1
Neighs:    650404 ave 658188 max 642619 min
Histogram: 1 0 0 0 0 0 0 0 0 1

Total # of neighbors = 1300807
Ave neighs/atom = 66.1921
Neighbor list builds = 19505
Dangerous builds not checked
Setting up Verlet run ...
  Unit style    : metal
  Current step  : 280000
  Time step     : 0.001
Per MPI rank memory allocation (min/avg/max) = 11.35 | 11.35 | 11.35 Mbytes
Step Temp Press TotEng PotEng Enthalpy 
  280000    1846.4597     891.7592    -78189.77   -82879.946   -77978.432 
  280495    1814.6368     454.4805   -78351.912   -82961.255   -78244.305 
Loop time of 49.1922 on 2 procs for 495 steps with 19652 atoms

Performance: 0.869 ns/day, 27.605 hours/ns, 10.063 timesteps/s
92.2% CPU use with 2 MPI tasks x no OpenMP threads

MPI task timing breakdown:
Section |  min time  |  avg time  |  max time  |%varavg| %total
---------------------------------------------------------------
Pair    | 27.285     | 27.376     | 27.466     |   1.7 | 55.65
Neigh   | 17.219     | 18.881     | 20.544     |  38.3 | 38.38
Comm    | 0.7801     | 2.3631     | 3.9461     | 103.0 |  4.80
Output  | 7.2002e-05 | 9.2983e-05 | 0.00011396 |   0.0 |  0.00
Modify  | 0.45006    | 0.45832    | 0.46658    |   1.2 |  0.93
Other   |            | 0.1136     |            |       |  0.23

Nlocal:    9826 ave 9843 max 9809 min
Histogram: 1 0 0 0 0 0 0 0 0 1
Nghost:    12169.5 ave 12188 max 12151 min
Histogram: 1 0 0 0 0 0 0 0 0 1
Neighs:    650909 ave 657963 max 643855 min
Histogram: 1 0 0 0 0 0 0 0 0 1

Total # of neighbors = 1301818
Ave neighs/atom = 66.2435
Neighbor list builds = 495
Dangerous builds not checked
Setting up Verlet run ...
  Unit style    : metal
  Current step  : 280495
  Time step     : 0.001
Per MPI rank memory allocation (min/avg/max) = 11.35 | 11.35 | 11.35 Mbytes
Step Temp Press TotEng PotEng Enthalpy 
  280495    1814.6368     454.4805   -78351.912   -82961.255   -78244.305 
  300000    1815.7375   -2170.4854   -78358.167   -82970.306   -78874.785 
Loop time of 1991.64 on 2 procs for 19505 steps with 19652 atoms

Performance: 0.846 ns/day, 28.364 hours/ns, 9.793 timesteps/s
88.3% CPU use with 2 MPI tasks x no OpenMP threads

MPI task timing breakdown:
Section |  min time  |  avg time  |  max time  |%varavg| %total
---------------------------------------------------------------
Pair    | 1100.6     | 1102.2     | 1103.8     |   4.8 | 55.34
Neigh   | 707.38     | 722.56     | 737.75     |  56.5 | 36.28
Comm    | 125.13     | 142.15     | 159.18     | 142.8 |  7.14
Output  | 0.057264   | 0.057275   | 0.057287   |   0.0 |  0.00
Modify  | 19.841     | 20.017     | 20.193     |   3.9 |  1.01
Other   |            | 4.668      |            |       |  0.23

Nlocal:    9826 ave 9826 max 9826 min
Histogram: 2 0 0 0 0 0 0 0 0 0
Nghost:    12184.5 ave 12202 max 12167 min
Histogram: 1 0 0 0 0 0 0 0 0 1
Neighs:    647386 ave 653207 max 641565 min
Histogram: 1 0 0 0 0 0 0 0 0 1

Total # of neighbors = 1294772
Ave neighs/atom = 65.885
Neighbor list builds = 19505
Dangerous builds not checked
Setting up Verlet run ...
  Unit style    : metal
  Current step  : 300000
  Time step     : 0.001
Per MPI rank memory allocation (min/avg/max) = 11.35 | 11.35 | 11.35 Mbytes
Step Temp Press TotEng PotEng Enthalpy 
  300000    1815.7375   -2170.4854   -78358.167   -82970.306   -78874.785 
  300495    1752.0411   -161.38593   -78603.943   -83054.287   -78642.139 
Loop time of 57.4487 on 2 procs for 495 steps with 19652 atoms

Performance: 0.744 ns/day, 32.238 hours/ns, 8.616 timesteps/s
79.6% CPU use with 2 MPI tasks x no OpenMP threads

MPI task timing breakdown:
Section |  min time  |  avg time  |  max time  |%varavg| %total
---------------------------------------------------------------
Pair    | 31.503     | 31.785     | 32.067     |   5.0 | 55.33
Neigh   | 20.465     | 20.632     | 20.799     |   3.7 | 35.91
Comm    | 3.8297     | 4.2852     | 4.7407     |  22.0 |  7.46
Output  | 6.6996e-05 | 8.7976e-05 | 0.00010896 |   0.0 |  0.00
Modify  | 0.60677    | 0.60887    | 0.61097    |   0.3 |  1.06
Other   |            | 0.1371     |            |       |  0.24

Nlocal:    9826 ave 9856 max 9796 min
Histogram: 1 0 0 0 0 0 0 0 0 1
Nghost:    12188.5 ave 12224 max 12153 min
Histogram: 1 0 0 0 0 0 0 0 0 1
Neighs:    650994 ave 659880 max 642109 min
Histogram: 1 0 0 0 0 0 0 0 0 1

Total # of neighbors = 1301989
Ave neighs/atom = 66.2522
Neighbor list builds = 495
Dangerous builds not checked
Setting up Verlet run ...
  Unit style    : metal
  Current step  : 300495
  Time step     : 0.001
Per MPI rank memory allocation (min/avg/max) = 11.35 | 11.35 | 11.35 Mbytes
Step Temp Press TotEng PotEng Enthalpy 
  300495    1752.0411   -161.38593   -78603.943   -83054.287   -78642.139 
  320000    1742.4915   -1019.3428   -78661.302   -83087.389   -78903.007 
Loop time of 1731.78 on 2 procs for 19505 steps with 19652 atoms

Performance: 0.973 ns/day, 24.663 hours/ns, 11.263 timesteps/s
92.2% CPU use with 2 MPI tasks x no OpenMP threads

MPI task timing breakdown:
Section |  min time  |  avg time  |  max time  |%varavg| %total
---------------------------------------------------------------
Pair    | 926.54     | 931.34     | 936.14     |  15.7 | 53.78
Neigh   | 631.88     | 632.02     | 632.16     |   0.6 | 36.50
Comm    | 136.69     | 141.34     | 145.99     |  39.1 |  8.16
Output  | 0.20176    | 0.20176    | 0.20177    |   0.0 |  0.01
Modify  | 22.622     | 22.916     | 23.211     |   6.2 |  1.32
Other   |            | 3.97       |            |       |  0.23

Nlocal:    9826 ave 9847 max 9805 min
Histogram: 1 0 0 0 0 0 0 0 0 1
Nghost:    12150 ave 12214 max 12086 min
Histogram: 1 0 0 0 0 0 0 0 0 1
Neighs:    649877 ave 658117 max 641637 min
Histogram: 1 0 0 0 0 0 0 0 0 1

Total # of neighbors = 1299754
Ave neighs/atom = 66.1385
Neighbor list builds = 19505
Dangerous builds not checked
Setting up Verlet run ...
  Unit style    : metal
  Current step  : 320000
  Time step     : 0.001
Per MPI rank memory allocation (min/avg/max) = 11.35 | 11.35 | 11.35 Mbytes
Step Temp Press TotEng PotEng Enthalpy 
  320000    1742.4915   -1019.3428   -78661.302   -83087.389   -78903.007 
  320495    1707.3898    128.11766   -78820.259   -83157.185   -78789.976 
Loop time of 52.3594 on 2 procs for 495 steps with 19652 atoms

Performance: 0.817 ns/day, 29.382 hours/ns, 9.454 timesteps/s
86.1% CPU use with 2 MPI tasks x no OpenMP threads

MPI task timing breakdown:
Section |  min time  |  avg time  |  max time  |%varavg| %total
---------------------------------------------------------------
Pair    | 27.611     | 27.665     | 27.718     |   1.0 | 52.84
Neigh   | 17.757     | 17.947     | 18.138     |   4.5 | 34.28
Comm    | 4.1851     | 4.928      | 5.6709     |  33.5 |  9.41
Output  | 7.7009e-05 | 9.5963e-05 | 0.00011492 |   0.0 |  0.00
Modify  | 1.2085     | 1.7085     | 2.2085     |  38.3 |  3.26
Other   |            | 0.1107     |            |       |  0.21

Nlocal:    9826 ave 9831 max 9821 min
Histogram: 1 0 0 0 0 0 0 0 0 1
Nghost:    12159.5 ave 12172 max 12147 min
Histogram: 1 0 0 0 0 0 0 0 0 1
Neighs:    651996 ave 658626 max 645365 min
Histogram: 1 0 0 0 0 0 0 0 0 1

Total # of neighbors = 1303991
Ave neighs/atom = 66.3541
Neighbor list builds = 495
Dangerous builds not checked
Setting up Verlet run ...
  Unit style    : metal
  Current step  : 320495
  Time step     : 0.001
Per MPI rank memory allocation (min/avg/max) = 11.35 | 11.35 | 11.35 Mbytes
Step Temp Press TotEng PotEng Enthalpy 
  320495    1707.3898    128.11766   -78820.259   -83157.185   -78789.976 
  340000    1701.0173   -557.96804   -78873.633   -83194.372   -79005.604 
Loop time of 1737.99 on 2 procs for 19505 steps with 19652 atoms

Performance: 0.970 ns/day, 24.751 hours/ns, 11.223 timesteps/s
92.5% CPU use with 2 MPI tasks x no OpenMP threads

MPI task timing breakdown:
Section |  min time  |  avg time  |  max time  |%varavg| %total
---------------------------------------------------------------
Pair    | 924.29     | 926.56     | 928.83     |   7.5 | 53.31
Neigh   | 629.07     | 636.45     | 643.84     |  29.3 | 36.62
Comm    | 134.8      | 144.37     | 153.93     |  79.6 |  8.31
Output  | 4.7746     | 4.7746     | 4.7747     |   0.0 |  0.27
Modify  | 21.703     | 21.84      | 21.977     |   2.9 |  1.26
Other   |            | 3.998      |            |       |  0.23

Nlocal:    9826 ave 9851 max 9801 min
Histogram: 1 0 0 0 0 0 0 0 0 1
Nghost:    12196.5 ave 12201 max 12192 min
Histogram: 1 0 0 0 0 0 0 0 0 1
Neighs:    651650 ave 660460 max 642841 min
Histogram: 1 0 0 0 0 0 0 0 0 1

Total # of neighbors = 1303301
Ave neighs/atom = 66.319
Neighbor list builds = 19505
Dangerous builds not checked
Setting up Verlet run ...
  Unit style    : metal
  Current step  : 340000
  Time step     : 0.001
Per MPI rank memory allocation (min/avg/max) = 11.35 | 11.35 | 11.35 Mbytes
Step Temp Press TotEng PotEng Enthalpy 
  340000    1701.0173   -557.96804   -78873.633   -83194.372   -79005.604 
  340495    1664.9298   -1042.4655   -79073.859   -83302.932   -79319.835 
Loop time of 42.3936 on 2 procs for 495 steps with 19652 atoms

Performance: 1.009 ns/day, 23.790 hours/ns, 11.676 timesteps/s
92.8% CPU use with 2 MPI tasks x no OpenMP threads

MPI task timing breakdown:
Section |  min time  |  avg time  |  max time  |%varavg| %total
---------------------------------------------------------------
Pair    | 21.11      | 21.48      | 21.851     |   8.0 | 50.67
Neigh   | 14.585     | 15.261     | 15.938     |  17.3 | 36.00
Comm    | 4.0213     | 4.7045     | 5.3876     |  31.5 | 11.10
Output  | 7.0095e-05 | 0.00010049 | 0.00013089 |   0.0 |  0.00
Modify  | 0.47772    | 0.85342    | 1.2291     |  40.7 |  2.01
Other   |            | 0.09393    |            |       |  0.22

Nlocal:    9826 ave 9834 max 9818 min
Histogram: 1 0 0 0 0 0 0 0 0 1
Nghost:    12200 ave 12209 max 12191 min
Histogram: 1 0 0 0 0 0 0 0 0 1
Neighs:    653142 ave 660449 max 645835 min
Histogram: 1 0 0 0 0 0 0 0 0 1

Total # of neighbors = 1306284
Ave neighs/atom = 66.4708
Neighbor list builds = 495
Dangerous builds not checked
Setting up Verlet run ...
  Unit style    : metal
  Current step  : 340495
  Time step     : 0.001
Per MPI rank memory allocation (min/avg/max) = 11.35 | 11.35 | 11.35 Mbytes
Step Temp Press TotEng PotEng Enthalpy 
  340495    1664.9298   -1042.4655   -79073.859   -83302.932   -79319.835 
  360000    1648.1918   -569.50591   -79114.346   -83300.903   -79248.712 
Loop time of 1871.65 on 2 procs for 19505 steps with 19652 atoms

Performance: 0.900 ns/day, 26.655 hours/ns, 10.421 timesteps/s
90.0% CPU use with 2 MPI tasks x no OpenMP threads

MPI task timing breakdown:
Section |  min time  |  avg time  |  max time  |%varavg| %total
---------------------------------------------------------------
Pair    | 942.81     | 948.18     | 953.55     |  17.4 | 50.66
Neigh   | 644.97     | 648.28     | 651.59     |  13.0 | 34.64
Comm    | 232.15     | 233.85     | 235.55     |  11.1 | 12.49
Output  | 0.073264   | 0.073281   | 0.073297   |   0.0 |  0.00
Modify  | 36.93      | 37.272     | 37.613     |   5.6 |  1.99
Other   |            | 3.99       |            |       |  0.21

Nlocal:    9826 ave 9826 max 9826 min
Histogram: 2 0 0 0 0 0 0 0 0 0
Nghost:    12204 ave 12217 max 12191 min
Histogram: 1 0 0 0 0 0 0 0 0 1
Neighs:    653264 ave 660039 max 646490 min
Histogram: 1 0 0 0 0 0 0 0 0 1

Total # of neighbors = 1306529
Ave neighs/atom = 66.4833
Neighbor list builds = 19505
Dangerous builds not checked
Setting up Verlet run ...
  Unit style    : metal
  Current step  : 360000
  Time step     : 0.001
Per MPI rank memory allocation (min/avg/max) = 11.35 | 11.35 | 11.35 Mbytes
Step Temp Press TotEng PotEng Enthalpy 
  360000    1648.1918   -569.50591   -79114.346   -83300.903   -79248.712 
  360495    1591.5064   -539.81325     -79327.3   -83369.871   -79454.434 
Loop time of 42.3701 on 2 procs for 495 steps with 19652 atoms

Performance: 1.009 ns/day, 23.777 hours/ns, 11.683 timesteps/s
98.2% CPU use with 2 MPI tasks x no OpenMP threads

MPI task timing breakdown:
Section |  min time  |  avg time  |  max time  |%varavg| %total
---------------------------------------------------------------
Pair    | 22.843     | 22.865     | 22.887     |   0.5 | 53.96
Neigh   | 16.913     | 17.32      | 17.728     |   9.8 | 40.88
Comm    | 1.2434     | 1.6789     | 2.1144     |  33.6 |  3.96
Output  | 8.7976e-05 | 0.00010908 | 0.00013018 |   0.0 |  0.00
Modify  | 0.39304    | 0.39712    | 0.40119    |   0.6 |  0.94
Other   |            | 0.1088     |            |       |  0.26

Nlocal:    9826 ave 9863 max 9789 min
Histogram: 1 0 0 0 0 0 0 0 0 1
Nghost:    12185.5 ave 12217 max 12154 min
Histogram: 1 0 0 0 0 0 0 0 0 1
Neighs:    654496 ave 664805 max 644188 min
Histogram: 1 0 0 0 0 0 0 0 0 1

Total # of neighbors = 1308993
Ave neighs/atom = 66.6086
Neighbor list builds = 495
Dangerous builds not checked
Setting up Verlet run ...
  Unit style    : metal
  Current step  : 360495
  Time step     : 0.001
Per MPI rank memory allocation (min/avg/max) = 11.35 | 11.35 | 11.35 Mbytes
Step Temp Press TotEng PotEng Enthalpy 
  360495    1591.5064   -539.81325     -79327.3   -83369.871   -79454.434 
  380000    1609.1714    495.07774   -79279.111   -83366.553   -79162.666 
Loop time of 1949.91 on 2 procs for 19505 steps with 19652 atoms

Performance: 0.864 ns/day, 27.769 hours/ns, 10.003 timesteps/s
86.5% CPU use with 2 MPI tasks x no OpenMP threads

MPI task timing breakdown:
Section |  min time  |  avg time  |  max time  |%varavg| %total
---------------------------------------------------------------
Pair    | 971.39     | 973.58     | 975.77     |   7.0 | 49.93
Neigh   | 634.51     | 634.96     | 635.41     |   1.8 | 32.56
Comm    | 285.45     | 289.1      | 292.75     |  21.5 | 14.83
Output  | 0.74381    | 0.74383    | 0.74384    |   0.0 |  0.04
Modify  | 46.721     | 47.741     | 48.761     |  14.8 |  2.45
Other   |            | 3.783      |            |       |  0.19

Nlocal:    9826 ave 9839 max 9813 min
Histogram: 1 0 0 0 0 0 0 0 0 1
Nghost:    12220 ave 12285 max 12155 min
Histogram: 1 0 0 0 0 0 0 0 0 1
Neighs:    655084 ave 655127 max 655041 min
Histogram: 1 0 0 0 0 0 0 0 0 1

Total # of neighbors = 1310168
Ave neighs/atom = 66.6684
Neighbor list builds = 19505
Dangerous builds not checked
Setting up Verlet run ...
  Unit style    : metal
  Current step  : 380000
  Time step     : 0.001
Per MPI rank memory allocation (min/avg/max) = 11.35 | 11.35 | 11.35 Mbytes
Step Temp Press TotEng PotEng Enthalpy 
  380000    1609.1714    495.07774   -79279.111   -83366.553   -79162.666 
  380495    1564.7891    857.84047   -79549.411   -83524.117   -79348.383 
Loop time of 49.9732 on 2 procs for 495 steps with 19652 atoms

Performance: 0.856 ns/day, 28.043 hours/ns, 9.905 timesteps/s
86.5% CPU use with 2 MPI tasks x no OpenMP threads

MPI task timing breakdown:
Section |  min time  |  avg time  |  max time  |%varavg| %total
---------------------------------------------------------------
Pair    | 25.606     | 25.693     | 25.78      |   1.7 | 51.41
Neigh   | 15.26      | 15.646     | 16.032     |   9.8 | 31.31
Comm    | 7.6343     | 7.7927     | 7.9512     |   5.7 | 15.59
Output  | 7.8201e-05 | 0.00010204 | 0.00012589 |   0.0 |  0.00
Modify  | 0.4238     | 0.74486    | 1.0659     |  37.2 |  1.49
Other   |            | 0.09676    |            |       |  0.19

Nlocal:    9826 ave 9852 max 9800 min
Histogram: 1 0 0 0 0 0 0 0 0 1
Nghost:    12247.5 ave 12266 max 12229 min
Histogram: 1 0 0 0 0 0 0 0 0 1
Neighs:    657712 ave 659858 max 655566 min
Histogram: 1 0 0 0 0 0 0 0 0 1

Total # of neighbors = 1315424
Ave neighs/atom = 66.9359
Neighbor list builds = 495
Dangerous builds not checked
Setting up Verlet run ...
  Unit style    : metal
  Current step  : 380495
  Time step     : 0.001
Per MPI rank memory allocation (min/avg/max) = 11.35 | 11.35 | 11.35 Mbytes
Step Temp Press TotEng PotEng Enthalpy 
  380495    1564.7891    857.84047   -79549.411   -83524.117   -79348.383 
  400000    1558.7682    613.52315   -79606.283   -83565.697    -79462.65 
Loop time of 1717.35 on 2 procs for 19505 steps with 19652 atoms

Performance: 0.981 ns/day, 24.457 hours/ns, 11.358 timesteps/s
96.8% CPU use with 2 MPI tasks x no OpenMP threads

MPI task timing breakdown:
Section |  min time  |  avg time  |  max time  |%varavg| %total
---------------------------------------------------------------
Pair    | 896.97     | 898.29     | 899.6      |   4.4 | 52.31
Neigh   | 661.33     | 663.56     | 665.79     |   8.6 | 38.64
Comm    | 128.85     | 129.83     | 130.81     |   8.6 |  7.56
Output  | 0.12292    | 0.12294    | 0.12296    |   0.0 |  0.01
Modify  | 21.763     | 21.785     | 21.807     |   0.5 |  1.27
Other   |            | 3.77       |            |       |  0.22

Nlocal:    9826 ave 9829 max 9823 min
Histogram: 1 0 0 0 0 0 0 0 0 1
Nghost:    12238.5 ave 12246 max 12231 min
Histogram: 1 0 0 0 0 0 0 0 0 1
Neighs:    658318 ave 658437 max 658199 min
Histogram: 1 0 0 0 0 0 0 0 0 1

Total # of neighbors = 1316636
Ave neighs/atom = 66.9976
Neighbor list builds = 19505
Dangerous builds not checked
Setting up Verlet run ...
  Unit style    : metal
  Current step  : 400000
  Time step     : 0.001
Per MPI rank memory allocation (min/avg/max) = 11.35 | 11.35 | 11.35 Mbytes
Step Temp Press TotEng PotEng Enthalpy 
  400000    1558.7682    613.52315   -79606.283   -83565.697    -79462.65 
  400495    1511.2743    1639.7199   -79798.409   -83637.183   -79414.968 
Loop time of 36.8609 on 2 procs for 495 steps with 19652 atoms

Performance: 1.160 ns/day, 20.685 hours/ns, 13.429 timesteps/s
99.4% CPU use with 2 MPI tasks x no OpenMP threads

MPI task timing breakdown:
Section |  min time  |  avg time  |  max time  |%varavg| %total
---------------------------------------------------------------
Pair    | 19.503     | 19.534     | 19.566     |   0.7 | 52.99
Neigh   | 14.768     | 14.926     | 15.085     |   4.1 | 40.49
Comm    | 1.7982     | 1.9923     | 2.1864     |  13.8 |  5.40
Output  | 8.3923e-05 | 9.5487e-05 | 0.00010705 |   0.0 |  0.00
Modify  | 0.31825    | 0.32083    | 0.32341    |   0.5 |  0.87
Other   |            | 0.08679    |            |       |  0.24

Nlocal:    9826 ave 9848 max 9804 min
Histogram: 1 0 0 0 0 0 0 0 0 1
Nghost:    12274 ave 12277 max 12271 min
Histogram: 1 0 0 0 0 0 0 0 0 1
Neighs:    659064 ave 661271 max 656858 min
Histogram: 1 0 0 0 0 0 0 0 0 1

Total # of neighbors = 1318129
Ave neighs/atom = 67.0735
Neighbor list builds = 495
Dangerous builds not checked
Setting up Verlet run ...
  Unit style    : metal
  Current step  : 400495
  Time step     : 0.001
Per MPI rank memory allocation (min/avg/max) = 11.35 | 11.35 | 11.35 Mbytes
Step Temp Press TotEng PotEng Enthalpy 
  400495    1511.2743    1639.7199   -79798.409   -83637.183   -79414.968 
  420000    1490.0436   -912.10989   -79907.236   -83692.082    -80121.09 
Loop time of 1643.2 on 2 procs for 19505 steps with 19652 atoms

Performance: 1.026 ns/day, 23.401 hours/ns, 11.870 timesteps/s
97.1% CPU use with 2 MPI tasks x no OpenMP threads

MPI task timing breakdown:
Section |  min time  |  avg time  |  max time  |%varavg| %total
---------------------------------------------------------------
Pair    | 864.74     | 866.45     | 868.16     |   5.8 | 52.73
Neigh   | 637.33     | 641.08     | 644.84     |  14.8 | 39.01
Comm    | 112.94     | 115.37     | 117.8      |  22.7 |  7.02
Output  | 0.23351    | 0.23352    | 0.23353    |   0.0 |  0.01
Modify  | 16.062     | 16.424     | 16.787     |   8.9 |  1.00
Other   |            | 3.638      |            |       |  0.22

Nlocal:    9826 ave 9843 max 9809 min
Histogram: 1 0 0 0 0 0 0 0 0 1
Nghost:    12214 ave 12226 max 12202 min
Histogram: 1 0 0 0 0 0 0 0 0 1
Neighs:    657442 ave 658875 max 656010 min
Histogram: 1 0 0 0 0 0 0 0 0 1

Total # of neighbors = 1314885
Ave neighs/atom = 66.9085
Neighbor list builds = 19505
Dangerous builds not checked
Setting up Verlet run ...
  Unit style    : metal
  Current step  : 420000
  Time step     : 0.001
Per MPI rank memory allocation (min/avg/max) = 11.35 | 11.35 | 11.35 Mbytes
Step Temp Press TotEng PotEng Enthalpy 
  420000    1490.0436   -912.10989   -79907.236   -83692.082    -80121.09 
  420495    1459.7085   -453.05696   -80056.536   -83764.329   -80162.686 
Loop time of 39.7539 on 2 procs for 495 steps with 19652 atoms

Performance: 1.076 ns/day, 22.309 hours/ns, 12.452 timesteps/s
99.0% CPU use with 2 MPI tasks x no OpenMP threads

MPI task timing breakdown:
Section |  min time  |  avg time  |  max time  |%varavg| %total
---------------------------------------------------------------
Pair    | 20.539     | 20.995     | 21.45      |   9.9 | 52.81
Neigh   | 15.879     | 16.591     | 17.304     |  17.5 | 41.74
Comm    | 1.4215     | 1.7008     | 1.9802     |  21.4 |  4.28
Output  | 8.6069e-05 | 9.501e-05  | 0.00010395 |   0.0 |  0.00
Modify  | 0.35271    | 0.36532    | 0.37793    |   2.1 |  0.92
Other   |            | 0.1015     |            |       |  0.26

Nlocal:    9826 ave 9842 max 9810 min
Histogram: 1 0 0 0 0 0 0 0 0 1
Nghost:    12240.5 ave 12251 max 12230 min
Histogram: 1 0 0 0 0 0 0 0 0 1
Neighs:    657816 ave 659209 max 656423 min
Histogram: 1 0 0 0 0 0 0 0 0 1

Total # of neighbors = 1315632
Ave neighs/atom = 66.9465
Neighbor list builds = 495
Dangerous builds not checked
Setting up Verlet run ...
  Unit style    : metal
  Current step  : 420495
  Time step     : 0.001
Per MPI rank memory allocation (min/avg/max) = 11.35 | 11.35 | 11.35 Mbytes
Step Temp Press TotEng PotEng Enthalpy 
  420495    1459.7085   -453.05696   -80056.536   -83764.329   -80162.686 
  440000    1446.7405   -507.55188   -80095.112   -83769.964   -80213.954 
Loop time of 1662.8 on 2 procs for 19505 steps with 19652 atoms

Performance: 1.013 ns/day, 23.680 hours/ns, 11.730 timesteps/s
95.5% CPU use with 2 MPI tasks x no OpenMP threads

MPI task timing breakdown:
Section |  min time  |  avg time  |  max time  |%varavg| %total
---------------------------------------------------------------
Pair    | 854.08     | 854.11     | 854.15     |   0.1 | 51.37
Neigh   | 642.42     | 647.98     | 653.53     |  21.8 | 38.97
Comm    | 125.21     | 129.86     | 134.51     |  40.8 |  7.81
Output  | 0.31563    | 0.31563    | 0.31563    |   0.0 |  0.02
Modify  | 25.522     | 26.461     | 27.399     |  18.2 |  1.59
Other   |            | 4.073      |            |       |  0.24

Nlocal:    9826 ave 9838 max 9814 min
Histogram: 1 0 0 0 0 0 0 0 0 1
Nghost:    12254 ave 12268 max 12240 min
Histogram: 1 0 0 0 0 0 0 0 0 1
Neighs:    658373 ave 660047 max 656699 min
Histogram: 1 0 0 0 0 0 0 0 0 1

Total # of neighbors = 1316746
Ave neighs/atom = 67.0032
Neighbor list builds = 19505
Dangerous builds not checked
Setting up Verlet run ...
  Unit style    : metal
  Current step  : 440000
  Time step     : 0.001
Per MPI rank memory allocation (min/avg/max) = 11.35 | 11.35 | 11.35 Mbytes
Step Temp Press TotEng PotEng Enthalpy 
  440000    1446.7405   -507.55188   -80095.112   -83769.964   -80213.954 
  440495    1405.6578    320.88215   -80323.262    -83893.76   -80248.424 
Loop time of 38.0304 on 2 procs for 495 steps with 19652 atoms

Performance: 1.125 ns/day, 21.341 hours/ns, 13.016 timesteps/s
99.5% CPU use with 2 MPI tasks x no OpenMP threads

MPI task timing breakdown:
Section |  min time  |  avg time  |  max time  |%varavg| %total
---------------------------------------------------------------
Pair    | 20.305     | 20.336     | 20.368     |   0.7 | 53.47
Neigh   | 15.62      | 15.725     | 15.829     |   2.6 | 41.35
Comm    | 1.438      | 1.5128     | 1.5877     |   6.1 |  3.98
Output  | 5.5075e-05 | 7.4029e-05 | 9.2983e-05 |   0.0 |  0.00
Modify  | 0.34513    | 0.34707    | 0.349      |   0.3 |  0.91
Other   |            | 0.1093     |            |       |  0.29

Nlocal:    9826 ave 9840 max 9812 min
Histogram: 1 0 0 0 0 0 0 0 0 1
Nghost:    12219.5 ave 12232 max 12207 min
Histogram: 1 0 0 0 0 0 0 0 0 1
Neighs:    660844 ave 661665 max 660024 min
Histogram: 1 0 0 0 0 0 0 0 0 1

Total # of neighbors = 1321689
Ave neighs/atom = 67.2547
Neighbor list builds = 495
Dangerous builds not checked
Setting up Verlet run ...
  Unit style    : metal
  Current step  : 440495
  Time step     : 0.001
Per MPI rank memory allocation (min/avg/max) = 11.35 | 11.35 | 11.35 Mbytes
Step Temp Press TotEng PotEng Enthalpy 
  440495    1405.6578    320.88215   -80323.262    -83893.76   -80248.424 
  460000    1405.5333    157.66131   -80356.022   -83926.204   -80319.215 
Loop time of 1725.53 on 2 procs for 19505 steps with 19652 atoms

Performance: 0.977 ns/day, 24.574 hours/ns, 11.304 timesteps/s
95.6% CPU use with 2 MPI tasks x no OpenMP threads

MPI task timing breakdown:
Section |  min time  |  avg time  |  max time  |%varavg| %total
---------------------------------------------------------------
Pair    | 896.32     | 901.98     | 907.65     |  18.9 | 52.27
Neigh   | 659.76     | 659.77     | 659.77     |   0.0 | 38.24
Comm    | 134.82     | 140.31     | 145.8      |  46.3 |  8.13
Output  | 0.26692    | 0.26693    | 0.26693    |   0.0 |  0.02
Modify  | 18.816     | 18.978     | 19.139     |   3.7 |  1.10
Other   |            | 4.233      |            |       |  0.25

Nlocal:    9826 ave 9863 max 9789 min
Histogram: 1 0 0 0 0 0 0 0 0 1
Nghost:    12242 ave 12275 max 12209 min
Histogram: 1 0 0 0 0 0 0 0 0 1
Neighs:    660206 ave 663104 max 657308 min
Histogram: 1 0 0 0 0 0 0 0 0 1

Total # of neighbors = 1320412
Ave neighs/atom = 67.1897
Neighbor list builds = 19505
Dangerous builds not checked
Setting up Verlet run ...
  Unit style    : metal
  Current step  : 460000
  Time step     : 0.001
Per MPI rank memory allocation (min/avg/max) = 11.35 | 11.35 | 11.35 Mbytes
Step Temp Press TotEng PotEng Enthalpy 
  460000    1405.5333    157.66131   -80356.022   -83926.204   -80319.215 
  460495    1369.6867   -805.82127   -80568.102   -84047.231    -80756.16 
Loop time of 39.0083 on 2 procs for 495 steps with 19652 atoms

Performance: 1.096 ns/day, 21.890 hours/ns, 12.690 timesteps/s
99.4% CPU use with 2 MPI tasks x no OpenMP threads

MPI task timing breakdown:
Section |  min time  |  avg time  |  max time  |%varavg| %total
---------------------------------------------------------------
Pair    | 20.647     | 20.888     | 21.129     |   5.3 | 53.55
Neigh   | 15.4       | 15.711     | 16.022     |   7.8 | 40.28
Comm    | 1.3957     | 1.9594     | 2.5231     |  40.3 |  5.02
Output  | 7.5102e-05 | 9.656e-05  | 0.00011802 |   0.0 |  0.00
Modify  | 0.34416    | 0.34869    | 0.35323    |   0.8 |  0.89
Other   |            | 0.1013     |            |       |  0.26

Nlocal:    9826 ave 9834 max 9818 min
Histogram: 1 0 0 0 0 0 0 0 0 1
Nghost:    12255 ave 12276 max 12234 min
Histogram: 1 0 0 0 0 0 0 0 0 1
Neighs:    660658 ave 661873 max 659444 min
Histogram: 1 0 0 0 0 0 0 0 0 1

Total # of neighbors = 1321317
Ave neighs/atom = 67.2358
Neighbor list builds = 495
Dangerous builds not checked
Setting up Verlet run ...
  Unit style    : metal
  Current step  : 460495
  Time step     : 0.001
Per MPI rank memory allocation (min/avg/max) = 11.35 | 11.35 | 11.35 Mbytes
Step Temp Press TotEng PotEng Enthalpy 
  460495    1369.6867   -805.82127   -80568.102   -84047.231    -80756.16 
  480000    1342.7256   -295.32434    -80667.84   -84078.485   -80736.731 
Loop time of 1732.79 on 2 procs for 19505 steps with 19652 atoms

Performance: 0.973 ns/day, 24.677 hours/ns, 11.256 timesteps/s
99.4% CPU use with 2 MPI tasks x no OpenMP threads

MPI task timing breakdown:
Section |  min time  |  avg time  |  max time  |%varavg| %total
---------------------------------------------------------------
Pair    | 935.28     | 936.1      | 936.92     |   2.7 | 54.02
Neigh   | 698.72     | 702        | 705.28     |  12.4 | 40.51
Comm    | 72.43      | 74.795     | 77.16      |  27.3 |  4.32
Output  | 0.062153   | 0.062166   | 0.06218    |   0.0 |  0.00
Modify  | 15.568     | 15.632     | 15.697     |   1.6 |  0.90
Other   |            | 4.205      |            |       |  0.24

Nlocal:    9826 ave 9843 max 9809 min
Histogram: 1 0 0 0 0 0 0 0 0 1
Nghost:    12260.5 ave 12293 max 12228 min
Histogram: 1 0 0 0 0 0 0 0 0 1
Neighs:    661014 ave 662982 max 659045 min
Histogram: 1 0 0 0 0 0 0 0 0 1

Total # of neighbors = 1322027
Ave neighs/atom = 67.2719
Neighbor list builds = 19505
Dangerous builds not checked
Setting up Verlet run ...
  Unit style    : metal
  Current step  : 480000
  Time step     : 0.001
Per MPI rank memory allocation (min/avg/max) = 11.35 | 11.35 | 11.35 Mbytes
Step Temp Press TotEng PotEng Enthalpy 
  480000    1342.7256   -295.32434    -80667.84   -84078.485   -80736.731 
  480495    1301.6176   -224.39044   -80844.429   -84150.656   -80896.794 
Loop time of 46.1246 on 2 procs for 495 steps with 19652 atoms

Performance: 0.927 ns/day, 25.884 hours/ns, 10.732 timesteps/s
98.9% CPU use with 2 MPI tasks x no OpenMP threads

MPI task timing breakdown:
Section |  min time  |  avg time  |  max time  |%varavg| %total
---------------------------------------------------------------
Pair    | 25.343     | 25.418     | 25.493     |   1.5 | 55.11
Neigh   | 18.078     | 18.1       | 18.122     |   0.5 | 39.24
Comm    | 2.0137     | 2.0747     | 2.1357     |   4.2 |  4.50
Output  | 9.3937e-05 | 0.00012302 | 0.00015211 |   0.0 |  0.00
Modify  | 0.41088    | 0.41733    | 0.42377    |   1.0 |  0.90
Other   |            | 0.114      |            |       |  0.25

Nlocal:    9826 ave 9844 max 9808 min
Histogram: 1 0 0 0 0 0 0 0 0 1
Nghost:    12299 ave 12316 max 12282 min
Histogram: 1 0 0 0 0 0 0 0 0 1
Neighs:    660578 ave 661870 max 659285 min
Histogram: 1 0 0 0 0 0 0 0 0 1

Total # of neighbors = 1321155
Ave neighs/atom = 67.2275
Neighbor list builds = 495
Dangerous builds not checked
Setting up Verlet run ...
  Unit style    : metal
  Current step  : 480495
  Time step     : 0.001
Per MPI rank memory allocation (min/avg/max) = 11.35 | 11.35 | 11.35 Mbytes
Step Temp Press TotEng PotEng Enthalpy 
  480495    1301.6176   -224.39044   -80844.429   -84150.656   -80896.794 
  500000    1293.6062   -743.15964   -80886.551   -84172.428   -81059.916 
Loop time of 1903.71 on 2 procs for 19505 steps with 19652 atoms

Performance: 0.885 ns/day, 27.111 hours/ns, 10.246 timesteps/s
97.0% CPU use with 2 MPI tasks x no OpenMP threads

MPI task timing breakdown:
Section |  min time  |  avg time  |  max time  |%varavg| %total
---------------------------------------------------------------
Pair    | 1019.8     | 1023.4     | 1027.1     |  11.5 | 53.76
Neigh   | 708.13     | 710.07     | 712        |   7.3 | 37.30
Comm    | 127.54     | 129.39     | 131.24     |  16.3 |  6.80
Output  | 0.085779   | 0.085802   | 0.085825   |   0.0 |  0.00
Modify  | 36.108     | 36.146     | 36.184     |   0.6 |  1.90
Other   |            | 4.572      |            |       |  0.24

Nlocal:    9826 ave 9828 max 9824 min
Histogram: 1 0 0 0 0 0 0 0 0 1
Nghost:    12293 ave 12294 max 12292 min
Histogram: 1 0 0 0 0 0 0 0 0 1
Neighs:    660680 ave 661279 max 660080 min
Histogram: 1 0 0 0 0 0 0 0 0 1

Total # of neighbors = 1321359
Ave neighs/atom = 67.2379
Neighbor list builds = 19505
Dangerous builds not checked
Setting up Verlet run ...
  Unit style    : metal
  Current step  : 500000
  Time step     : 0.001
Per MPI rank memory allocation (min/avg/max) = 11.35 | 11.35 | 11.35 Mbytes
Step Temp Press TotEng PotEng Enthalpy 
  500000    1293.6062   -743.15964   -80886.551   -84172.428   -81059.916 
  500495    1261.0759   -439.91684   -81087.789   -84291.037   -81190.179 
Loop time of 47.6684 on 2 procs for 495 steps with 19652 atoms

Performance: 0.897 ns/day, 26.750 hours/ns, 10.384 timesteps/s
98.9% CPU use with 2 MPI tasks x no OpenMP threads

MPI task timing breakdown:
Section |  min time  |  avg time  |  max time  |%varavg| %total
---------------------------------------------------------------
Pair    | 25.627     | 26.385     | 27.143     |  14.8 | 55.35
Neigh   | 17.819     | 18.123     | 18.427     |   7.1 | 38.02
Comm    | 1.514      | 2.5904     | 3.6667     |  66.9 |  5.43
Output  | 7.4148e-05 | 0.00010049 | 0.00012684 |   0.0 |  0.00
Modify  | 0.43058    | 0.43849    | 0.44641    |   1.2 |  0.92
Other   |            | 0.1311     |            |       |  0.28

Nlocal:    9826 ave 9836 max 9816 min
Histogram: 1 0 0 0 0 0 0 0 0 1
Nghost:    12290 ave 12305 max 12275 min
Histogram: 1 0 0 0 0 0 0 0 0 1
Neighs:    662296 ave 663062 max 661531 min
Histogram: 1 0 0 0 0 0 0 0 0 1

Total # of neighbors = 1324593
Ave neighs/atom = 67.4025
Neighbor list builds = 495
Dangerous builds not checked
Setting up Verlet run ...
  Unit style    : metal
  Current step  : 500495
  Time step     : 0.001
Per MPI rank memory allocation (min/avg/max) = 11.35 | 11.35 | 11.35 Mbytes
Step Temp Press TotEng PotEng Enthalpy 
  500495    1261.0759   -439.91684   -81087.789   -84291.037   -81190.179 
  520000    1260.4004   -630.97632   -81140.125   -84341.657   -81286.839 
Loop time of 1932.5 on 2 procs for 19505 steps with 19652 atoms

Performance: 0.872 ns/day, 27.522 hours/ns, 10.093 timesteps/s
98.8% CPU use with 2 MPI tasks x no OpenMP threads

MPI task timing breakdown:
Section |  min time  |  avg time  |  max time  |%varavg| %total
---------------------------------------------------------------
Pair    | 1054.5     | 1066.3     | 1078.1     |  36.2 | 55.18
Neigh   | 735.14     | 736.65     | 738.16     |   5.6 | 38.12
Comm    | 93.787     | 107.21     | 120.64     | 129.7 |  5.55
Output  | 0.060777   | 0.060794   | 0.06081    |   0.0 |  0.00
Modify  | 17.214     | 17.286     | 17.359     |   1.7 |  0.89
Other   |            | 4.96       |            |       |  0.26

Nlocal:    9826 ave 9832 max 9820 min
Histogram: 1 0 0 0 0 0 0 0 0 1
Nghost:    12322.5 ave 12332 max 12313 min
Histogram: 1 0 0 0 0 0 0 0 0 1
Neighs:    663104 ave 663977 max 662232 min
Histogram: 1 0 0 0 0 0 0 0 0 1

Total # of neighbors = 1326209
Ave neighs/atom = 67.4847
Neighbor list builds = 19505
Dangerous builds not checked
Setting up Verlet run ...
  Unit style    : metal
  Current step  : 520000
  Time step     : 0.001
Per MPI rank memory allocation (min/avg/max) = 11.35 | 11.35 | 11.35 Mbytes
Step Temp Press TotEng PotEng Enthalpy 
  520000    1260.4004   -630.97632   -81140.125   -84341.657   -81286.839 
  520495    1211.4365   -844.12811   -81356.487   -84433.646   -81552.563 
Loop time of 45.2958 on 2 procs for 495 steps with 19652 atoms

Performance: 0.944 ns/day, 25.419 hours/ns, 10.928 timesteps/s
98.7% CPU use with 2 MPI tasks x no OpenMP threads

MPI task timing breakdown:
Section |  min time  |  avg time  |  max time  |%varavg| %total
---------------------------------------------------------------
Pair    | 24.167     | 24.554     | 24.941     |   7.8 | 54.21
Neigh   | 18.162     | 18.605     | 19.049     |  10.3 | 41.08
Comm    | 1.5216     | 1.582      | 1.6425     |   4.8 |  3.49
Output  | 6.485e-05  | 9.8944e-05 | 0.00013304 |   0.0 |  0.00
Modify  | 0.42887    | 0.43191    | 0.43494    |   0.5 |  0.95
Other   |            | 0.1223     |            |       |  0.27

Nlocal:    9826 ave 9834 max 9818 min
Histogram: 1 0 0 0 0 0 0 0 0 1
Nghost:    12297 ave 12350 max 12244 min
Histogram: 1 0 0 0 0 0 0 0 0 1
Neighs:    663680 ave 664507 max 662853 min
Histogram: 1 0 0 0 0 0 0 0 0 1

Total # of neighbors = 1327360
Ave neighs/atom = 67.5433
Neighbor list builds = 495
Dangerous builds not checked
Setting up Verlet run ...
  Unit style    : metal
  Current step  : 520495
  Time step     : 0.001
Per MPI rank memory allocation (min/avg/max) = 11.35 | 11.35 | 11.35 Mbytes
Step Temp Press TotEng PotEng Enthalpy 
  520495    1211.4365   -844.12811   -81356.487   -84433.646   -81552.563 
  540000     1205.105   -1129.9409   -81387.395   -84448.471   -81650.121 
Loop time of 1946.7 on 2 procs for 19505 steps with 19652 atoms

Performance: 0.866 ns/day, 27.724 hours/ns, 10.020 timesteps/s
99.0% CPU use with 2 MPI tasks x no OpenMP threads

MPI task timing breakdown:
Section |  min time  |  avg time  |  max time  |%varavg| %total
---------------------------------------------------------------
Pair    | 1068       | 1071.6     | 1075.2     |  10.9 | 55.05
Neigh   | 756.97     | 767.72     | 778.47     |  38.8 | 39.44
Comm    | 70.431     | 84.838     | 99.245     | 156.4 |  4.36
Output  | 0.060313   | 0.060338   | 0.060363   |   0.0 |  0.00
Modify  | 17.438     | 17.537     | 17.636     |   2.4 |  0.90
Other   |            | 4.963      |            |       |  0.25

Nlocal:    9826 ave 9851 max 9801 min
Histogram: 1 0 0 0 0 0 0 0 0 1
Nghost:    12287 ave 12297 max 12277 min
Histogram: 1 0 0 0 0 0 0 0 0 1
Neighs:    663247 ave 666297 max 660197 min
Histogram: 1 0 0 0 0 0 0 0 0 1

Total # of neighbors = 1326494
Ave neighs/atom = 67.4992
Neighbor list builds = 19505
Dangerous builds not checked
Setting up Verlet run ...
  Unit style    : metal
  Current step  : 540000
  Time step     : 0.001
Per MPI rank memory allocation (min/avg/max) = 11.35 | 11.35 | 11.35 Mbytes
Step Temp Press TotEng PotEng Enthalpy 
  540000     1205.105   -1129.9409   -81387.395   -84448.471   -81650.121 
  540495    1163.8356    -117.1188   -81625.686   -84581.934   -81652.815 
Loop time of 50.4403 on 2 procs for 495 steps with 19652 atoms

Performance: 0.848 ns/day, 28.305 hours/ns, 9.814 timesteps/s
99.6% CPU use with 2 MPI tasks x no OpenMP threads

MPI task timing breakdown:
Section |  min time  |  avg time  |  max time  |%varavg| %total
---------------------------------------------------------------
Pair    | 26.993     | 27.886     | 28.779     |  16.9 | 55.28
Neigh   | 19.152     | 19.599     | 20.046     |  10.1 | 38.86
Comm    | 0.99842    | 2.3521     | 3.7057     |  88.3 |  4.66
Output  | 7.0095e-05 | 0.00011301 | 0.00015593 |   0.0 |  0.00
Modify  | 0.46269    | 0.47532    | 0.48796    |   1.8 |  0.94
Other   |            | 0.1278     |            |       |  0.25

Nlocal:    9826 ave 9831 max 9821 min
Histogram: 1 0 0 0 0 0 0 0 0 1
Nghost:    12317 ave 12324 max 12310 min
Histogram: 1 0 0 0 0 0 0 0 0 1
Neighs:    665541 ave 666509 max 664573 min
Histogram: 1 0 0 0 0 0 0 0 0 1

Total # of neighbors = 1331082
Ave neighs/atom = 67.7326
Neighbor list builds = 495
Dangerous builds not checked
Setting up Verlet run ...
  Unit style    : metal
  Current step  : 540495
  Time step     : 0.001
Per MPI rank memory allocation (min/avg/max) = 11.35 | 11.35 | 11.35 Mbytes
Step Temp Press TotEng PotEng Enthalpy 
  540495    1163.8356    -117.1188   -81625.686   -84581.934   -81652.815 
  560000    1145.4077   -1363.7782   -81776.707   -84686.147   -82093.171 
Loop time of 1963.03 on 2 procs for 19505 steps with 19652 atoms

Performance: 0.858 ns/day, 27.956 hours/ns, 9.936 timesteps/s
98.6% CPU use with 2 MPI tasks x no OpenMP threads

MPI task timing breakdown:
Section |  min time  |  avg time  |  max time  |%varavg| %total
---------------------------------------------------------------
Pair    | 1080.7     | 1080.9     | 1081.1     |   0.5 | 55.06
Neigh   | 763.72     | 769.07     | 774.41     |  19.3 | 39.18
Comm    | 76.719     | 82.231     | 87.742     |  60.8 |  4.19
Output  | 0.059273   | 0.059287   | 0.059301   |   0.0 |  0.00
Modify  | 25.67      | 25.73      | 25.79      |   1.2 |  1.31
Other   |            | 5.061      |            |       |  0.26

Nlocal:    9826 ave 9861 max 9791 min
Histogram: 1 0 0 0 0 0 0 0 0 1
Nghost:    12303 ave 12314 max 12292 min
Histogram: 1 0 0 0 0 0 0 0 0 1
Neighs:    664314 ave 668537 max 660092 min
Histogram: 1 0 0 0 0 0 0 0 0 1

Total # of neighbors = 1328629
Ave neighs/atom = 67.6078
Neighbor list builds = 19505
Dangerous builds not checked
Setting up Verlet run ...
  Unit style    : metal
  Current step  : 560000
  Time step     : 0.001
Per MPI rank memory allocation (min/avg/max) = 11.35 | 11.35 | 11.35 Mbytes
Step Temp Press TotEng PotEng Enthalpy 
  560000    1145.4077   -1363.7782   -81776.707   -84686.147   -82093.171 
[...]
Neighs:    674846 ave 675792 max 673901 min
Histogram: 1 0 0 0 0 0 0 0 0 1

Total # of neighbors = 1349693
Ave neighs/atom = 68.6797
Neighbor list builds = 19505
Dangerous builds not checked
Setting up Verlet run ...
  Unit style    : metal
  Current step  : 840000
  Time step     : 0.001
Per MPI rank memory allocation (min/avg/max) = 11.35 | 11.35 | 11.35 Mbytes
Step Temp Press TotEng PotEng Enthalpy 
  840000    447.10721   -499.36715   -86955.935   -88091.628   -87070.076 
  840495    423.02941    22.258751   -87111.167     -88185.7   -87106.085 
Loop time of 40.8391 on 2 procs for 495 steps with 19652 atoms

Performance: 1.047 ns/day, 22.918 hours/ns, 12.121 timesteps/s
99.7% CPU use with 2 MPI tasks x no OpenMP threads

MPI task timing breakdown:
Section |  min time  |  avg time  |  max time  |%varavg| %total
---------------------------------------------------------------
Pair    | 21.617     | 21.749     | 21.88      |   2.8 | 53.25
Neigh   | 17.378     | 17.435     | 17.493     |   1.4 | 42.69
Comm    | 0.91821    | 1.1176     | 1.317      |  18.9 |  2.74
Output  | 8.893e-05  | 0.00011742 | 0.00014591 |   0.0 |  0.00
Modify  | 0.40852    | 0.41446    | 0.42039    |   0.9 |  1.01
Other   |            | 0.1227     |            |       |  0.30

Nlocal:    9826 ave 9830 max 9822 min
Histogram: 1 0 0 0 0 0 0 0 0 1
Nghost:    12390.5 ave 12398 max 12383 min
Histogram: 1 0 0 0 0 0 0 0 0 1
Neighs:    675483 ave 675692 max 675274 min
Histogram: 1 0 0 0 0 0 0 0 0 1

Total # of neighbors = 1350966
Ave neighs/atom = 68.7445
Neighbor list builds = 495
Dangerous builds not checked
Setting up Verlet run ...
  Unit style    : metal
  Current step  : 840495
  Time step     : 0.001
Per MPI rank memory allocation (min/avg/max) = 11.35 | 11.35 | 11.35 Mbytes
Step Temp Press TotEng PotEng Enthalpy 
  840495    423.02941    22.258751   -87111.167     -88185.7   -87106.085 
  860000    404.29938    693.09656   -87328.095   -88355.052   -87170.011 
Loop time of 1725.61 on 2 procs for 19505 steps with 19652 atoms

Performance: 0.977 ns/day, 24.575 hours/ns, 11.303 timesteps/s
98.7% CPU use with 2 MPI tasks x no OpenMP threads

MPI task timing breakdown:
Section |  min time  |  avg time  |  max time  |%varavg| %total
---------------------------------------------------------------
Pair    | 926.87     | 932.47     | 938.08     |  18.4 | 54.04
Neigh   | 696.8      | 697.9      | 698.99     |   4.1 | 40.44
Comm    | 68.278     | 72.828     | 77.379     |  53.3 |  4.22
Output  | 0.14197    | 0.14199    | 0.142      |   0.0 |  0.01
Modify  | 17.41      | 17.444     | 17.478     |   0.8 |  1.01
Other   |            | 4.825      |            |       |  0.28

Nlocal:    9826 ave 9826 max 9826 min
Histogram: 2 0 0 0 0 0 0 0 0 0
Nghost:    12377 ave 12390 max 12364 min
Histogram: 1 0 0 0 0 0 0 0 0 1
Neighs:    676268 ave 676748 max 675789 min
Histogram: 1 0 0 0 0 0 0 0 0 1

Total # of neighbors = 1352537
Ave neighs/atom = 68.8244
Neighbor list builds = 19505
Dangerous builds not checked
Setting up Verlet run ...
  Unit style    : metal
  Current step  : 860000
  Time step     : 0.001
Per MPI rank memory allocation (min/avg/max) = 11.35 | 11.35 | 11.35 Mbytes
Step Temp Press TotEng PotEng Enthalpy 
  860000    404.29938    693.09656   -87328.095   -88355.052   -87170.011 
  860495    373.49559   -335.58976   -87488.034   -88436.747   -87564.598 
Loop time of 41.2967 on 2 procs for 495 steps with 19652 atoms

Performance: 1.036 ns/day, 23.174 hours/ns, 11.986 timesteps/s
99.4% CPU use with 2 MPI tasks x no OpenMP threads

MPI task timing breakdown:
Section |  min time  |  avg time  |  max time  |%varavg| %total
---------------------------------------------------------------
Pair    | 22.218     | 22.22      | 22.221     |   0.0 | 53.80
Neigh   | 16.22      | 16.966     | 17.712     |  18.1 | 41.08
Comm    | 0.81665    | 1.5796     | 2.3425     |  60.7 |  3.83
Output  | 9.7036e-05 | 0.00013304 | 0.00016904 |   0.0 |  0.00
Modify  | 0.39801    | 0.41358    | 0.42916    |   2.4 |  1.00
Other   |            | 0.1178     |            |       |  0.29

Nlocal:    9826 ave 9846 max 9806 min
Histogram: 1 0 0 0 0 0 0 0 0 1
Nghost:    12376 ave 12407 max 12345 min
Histogram: 1 0 0 0 0 0 0 0 0 1
Neighs:    676204 ave 677329 max 675078 min
Histogram: 1 0 0 0 0 0 0 0 0 1

Total # of neighbors = 1352407
Ave neighs/atom = 68.8178
Neighbor list builds = 495
Dangerous builds not checked
Setting up Verlet run ...
  Unit style    : metal
  Current step  : 860495
  Time step     : 0.001
Per MPI rank memory allocation (min/avg/max) = 11.35 | 11.35 | 11.35 Mbytes
Step Temp Press TotEng PotEng Enthalpy 
  860495    373.49559   -335.58976   -87488.034   -88436.747   -87564.598 
  880000    347.64404   -404.99085   -87675.982   -88559.029   -87768.375 
Loop time of 1650.9 on 2 procs for 19505 steps with 19652 atoms

Performance: 1.021 ns/day, 23.511 hours/ns, 11.815 timesteps/s
99.0% CPU use with 2 MPI tasks x no OpenMP threads

MPI task timing breakdown:
Section |  min time  |  avg time  |  max time  |%varavg| %total
---------------------------------------------------------------
Pair    | 882.65     | 886.75     | 890.85     |  13.8 | 53.71
Neigh   | 674.94     | 684.13     | 693.31     |  35.1 | 41.44
Comm    | 44.892     | 58.381     | 71.87      | 176.5 |  3.54
Output  | 0.062349   | 0.062363   | 0.062377   |   0.0 |  0.00
Modify  | 16.585     | 16.812     | 17.038     |   5.5 |  1.02
Other   |            | 4.768      |            |       |  0.29

Nlocal:    9826 ave 9844 max 9808 min
Histogram: 1 0 0 0 0 0 0 0 0 1
Nghost:    12371.5 ave 12428 max 12315 min
Histogram: 1 0 0 0 0 0 0 0 0 1
Neighs:    675849 ave 676893 max 674805 min
Histogram: 1 0 0 0 0 0 0 0 0 1

Total # of neighbors = 1351698
Ave neighs/atom = 68.7817
Neighbor list builds = 19505
Dangerous builds not checked
Setting up Verlet run ...
  Unit style    : metal
  Current step  : 880000
  Time step     : 0.001
Per MPI rank memory allocation (min/avg/max) = 11.35 | 11.35 | 11.35 Mbytes
Step Temp Press TotEng PotEng Enthalpy 
  880000    347.64404   -404.99085   -87675.982   -88559.029   -87768.375 
  880495    322.43867    547.11211   -87814.801   -88633.825   -87690.231 
Loop time of 40.5463 on 2 procs for 495 steps with 19652 atoms

Performance: 1.055 ns/day, 22.753 hours/ns, 12.208 timesteps/s
99.6% CPU use with 2 MPI tasks x no OpenMP threads

MPI task timing breakdown:
Section |  min time  |  avg time  |  max time  |%varavg| %total
---------------------------------------------------------------
Pair    | 21.705     | 21.781     | 21.857     |   1.6 | 53.72
Neigh   | 16.996     | 17.028     | 17.061     |   0.8 | 42.00
Comm    | 1.1023     | 1.2202     | 1.3381     |  10.7 |  3.01
Output  | 8.1062e-05 | 0.00011861 | 0.00015616 |   0.0 |  0.00
Modify  | 0.39548    | 0.40407    | 0.41267    |   1.4 |  1.00
Other   |            | 0.1124     |            |       |  0.28

Nlocal:    9826 ave 9848 max 9804 min
Histogram: 1 0 0 0 0 0 0 0 0 1
Nghost:    12384.5 ave 12431 max 12338 min
Histogram: 1 0 0 0 0 0 0 0 0 1
Neighs:    677166 ave 678716 max 675617 min
Histogram: 1 0 0 0 0 0 0 0 0 1

Total # of neighbors = 1354333
Ave neighs/atom = 68.9158
Neighbor list builds = 495
Dangerous builds not checked
Setting up Verlet run ...
  Unit style    : metal
  Current step  : 880495
  Time step     : 0.001
Per MPI rank memory allocation (min/avg/max) = 11.35 | 11.35 | 11.35 Mbytes
Step Temp Press TotEng PotEng Enthalpy 
  880495    322.43867    547.11211   -87814.801   -88633.825   -87690.231 
  900000    298.63099   -14.952756   -87980.392   -88738.942   -87983.794 
Loop time of 1665.7 on 2 procs for 19505 steps with 19652 atoms

Performance: 1.012 ns/day, 23.722 hours/ns, 11.710 timesteps/s
98.8% CPU use with 2 MPI tasks x no OpenMP threads

MPI task timing breakdown:
Section |  min time  |  avg time  |  max time  |%varavg| %total
---------------------------------------------------------------
Pair    | 876.7      | 886.61     | 896.51     |  33.3 | 53.23
Neigh   | 690.17     | 691.25     | 692.32     |   4.1 | 41.50
Comm    | 57.372     | 66.23      | 75.088     | 108.8 |  3.98
Output  | 0.06386    | 0.06388    | 0.063901   |   0.0 |  0.00
Modify  | 16.964     | 16.986     | 17.007     |   0.5 |  1.02
Other   |            | 4.572      |            |       |  0.27

Nlocal:    9826 ave 9847 max 9805 min
Histogram: 1 0 0 0 0 0 0 0 0 1
Nghost:    12403 ave 12441 max 12365 min
Histogram: 1 0 0 0 0 0 0 0 0 1
Neighs:    677635 ave 679165 max 676105 min
Histogram: 1 0 0 0 0 0 0 0 0 1

Total # of neighbors = 1355270
Ave neighs/atom = 68.9635
Neighbor list builds = 19505
Dangerous builds not checked
Setting up Verlet run ...
  Unit style    : metal
  Current step  : 900000
  Time step     : 0.001
Per MPI rank memory allocation (min/avg/max) = 11.35 | 11.35 | 11.35 Mbytes
Step Temp Press TotEng PotEng Enthalpy 
  900000    298.63099   -14.952756   -87980.392   -88738.942   -87983.794 
  900495    272.58356    44.616915    -88113.66   -88806.047   -88103.514 
Loop time of 41.4324 on 2 procs for 495 steps with 19652 atoms

Performance: 1.032 ns/day, 23.250 hours/ns, 11.947 timesteps/s
99.9% CPU use with 2 MPI tasks x no OpenMP threads

MPI task timing breakdown:
Section |  min time  |  avg time  |  max time  |%varavg| %total
---------------------------------------------------------------
Pair    | 21.618     | 22.149     | 22.68      |  11.3 | 53.46
Neigh   | 17.362     | 17.754     | 18.145     |   9.3 | 42.85
Comm    | 0.85585    | 0.98663    | 1.1174     |  13.2 |  2.38
Output  | 8.7976e-05 | 0.000121   | 0.00015402 |   0.0 |  0.00
Modify  | 0.41331    | 0.42375    | 0.43419    |   1.6 |  1.02
Other   |            | 0.1194     |            |       |  0.29

Nlocal:    9826 ave 9846 max 9806 min
Histogram: 1 0 0 0 0 0 0 0 0 1
Nghost:    12389.5 ave 12433 max 12346 min
Histogram: 1 0 0 0 0 0 0 0 0 1
Neighs:    678098 ave 679500 max 676696 min
Histogram: 1 0 0 0 0 0 0 0 0 1

Total # of neighbors = 1356196
Ave neighs/atom = 69.0106
Neighbor list builds = 495
Dangerous builds not checked
Setting up Verlet run ...
  Unit style    : metal
  Current step  : 900495
  Time step     : 0.001
Per MPI rank memory allocation (min/avg/max) = 11.35 | 11.35 | 11.35 Mbytes
Step Temp Press TotEng PotEng Enthalpy 
  900495    272.58356    44.616915    -88113.66   -88806.047   -88103.514 
  920000    250.79419    -136.7938   -88249.985   -88887.025    -88281.08 
Loop time of 1614.64 on 2 procs for 19505 steps with 19652 atoms

Performance: 1.044 ns/day, 22.995 hours/ns, 12.080 timesteps/s
99.2% CPU use with 2 MPI tasks x no OpenMP threads

MPI task timing breakdown:
Section |  min time  |  avg time  |  max time  |%varavg| %total
---------------------------------------------------------------
Pair    | 861.2      | 861.59     | 861.99     |   1.3 | 53.36
Neigh   | 681.33     | 683.07     | 684.8      |   6.7 | 42.30
Comm    | 46.413     | 48.563     | 50.713     |  30.8 |  3.01
Output  | 0.059908   | 0.059931   | 0.059953   |   0.0 |  0.00
Modify  | 16.748     | 16.778     | 16.809     |   0.7 |  1.04
Other   |            | 4.581      |            |       |  0.28

Nlocal:    9826 ave 9850 max 9802 min
Histogram: 1 0 0 0 0 0 0 0 0 1
Nghost:    12436 ave 12481 max 12391 min
Histogram: 1 0 0 0 0 0 0 0 0 1
Neighs:    678259 ave 680043 max 676475 min
Histogram: 1 0 0 0 0 0 0 0 0 1

Total # of neighbors = 1356518
Ave neighs/atom = 69.027
Neighbor list builds = 19505
Dangerous builds not checked
Setting up Verlet run ...
  Unit style    : metal
  Current step  : 920000
  Time step     : 0.001
Per MPI rank memory allocation (min/avg/max) = 11.35 | 11.35 | 11.35 Mbytes
Step Temp Press TotEng PotEng Enthalpy 
  920000    250.79419    -136.7938   -88249.985   -88887.025    -88281.08 
  920495    226.55822   -331.05961   -88391.727   -88967.206    -88466.94 
Loop time of 39.5188 on 2 procs for 495 steps with 19652 atoms

Performance: 1.082 ns/day, 22.177 hours/ns, 12.526 timesteps/s
100.0% CPU use with 2 MPI tasks x no OpenMP threads

MPI task timing breakdown:
Section |  min time  |  avg time  |  max time  |%varavg| %total
---------------------------------------------------------------
Pair    | 20.598     | 20.978     | 21.357     |   8.3 | 53.08
Neigh   | 16.356     | 17.139     | 17.921     |  18.9 | 43.37
Comm    | 0.46611    | 0.8889     | 1.3117     |  44.8 |  2.25
Output  | 7.7963e-05 | 0.00011599 | 0.00015402 |   0.0 |  0.00
Modify  | 0.38386    | 0.40302    | 0.42218    |   3.0 |  1.02
Other   |            | 0.1103     |            |       |  0.28

Nlocal:    9826 ave 9837 max 9815 min
Histogram: 1 0 0 0 0 0 0 0 0 1
Nghost:    12396.5 ave 12439 max 12354 min
Histogram: 1 0 0 0 0 0 0 0 0 1
Neighs:    678706 ave 679303 max 678109 min
Histogram: 1 0 0 0 0 0 0 0 0 1

Total # of neighbors = 1357412
Ave neighs/atom = 69.0725
Neighbor list builds = 495
Dangerous builds not checked
Setting up Verlet run ...
  Unit style    : metal
  Current step  : 920495
  Time step     : 0.001
Per MPI rank memory allocation (min/avg/max) = 11.35 | 11.35 | 11.35 Mbytes
Step Temp Press TotEng PotEng Enthalpy 
  920495    226.55822   -331.05961   -88391.727   -88967.206    -88466.94 
  940000    198.84046    219.26234    -88535.25   -89040.323    -88485.49 
Loop time of 1620.28 on 2 procs for 19505 steps with 19652 atoms

Performance: 1.040 ns/day, 23.075 hours/ns, 12.038 timesteps/s
98.4% CPU use with 2 MPI tasks x no OpenMP threads

MPI task timing breakdown:
Section |  min time  |  avg time  |  max time  |%varavg| %total
---------------------------------------------------------------
Pair    | 862.46     | 863.17     | 863.87     |   2.4 | 53.27
Neigh   | 676.57     | 677.63     | 678.69     |   4.1 | 41.82
Comm    | 57.175     | 57.582     | 57.989     |   5.4 |  3.55
Output  | 0.068592   | 0.068613   | 0.068634   |   0.0 |  0.00
Modify  | 17.318     | 17.345     | 17.372     |   0.6 |  1.07
Other   |            | 4.488      |            |       |  0.28

Nlocal:    9826 ave 9846 max 9806 min
Histogram: 1 0 0 0 0 0 0 0 0 1
Nghost:    12399.5 ave 12443 max 12356 min
Histogram: 1 0 0 0 0 0 0 0 0 1
Neighs:    679410 ave 680730 max 678089 min
Histogram: 1 0 0 0 0 0 0 0 0 1

Total # of neighbors = 1358819
Ave neighs/atom = 69.1441
Neighbor list builds = 19505
Dangerous builds not checked
Setting up Verlet run ...
  Unit style    : metal
  Current step  : 940000
  Time step     : 0.001
Per MPI rank memory allocation (min/avg/max) = 11.35 | 11.35 | 11.35 Mbytes
Step Temp Press TotEng PotEng Enthalpy 
  940000    198.84046    219.26234    -88535.25   -89040.323    -88485.49 
  940495    174.55208    53.772095   -88663.151   -89106.529   -88650.956 
Loop time of 38.4622 on 2 procs for 495 steps with 19652 atoms

Performance: 1.112 ns/day, 21.584 hours/ns, 12.870 timesteps/s
98.7% CPU use with 2 MPI tasks x no OpenMP threads

MPI task timing breakdown:
Section |  min time  |  avg time  |  max time  |%varavg| %total
---------------------------------------------------------------
Pair    | 20.107     | 20.28      | 20.453     |   3.8 | 52.73
Neigh   | 16.229     | 16.46      | 16.69      |   5.7 | 42.79
Comm    | 1.1606     | 1.2289     | 1.2971     |   6.2 |  3.20
Output  | 7.6056e-05 | 0.00010848 | 0.00014091 |   0.0 |  0.00
Modify  | 0.38084    | 0.38343    | 0.38602    |   0.4 |  1.00
Other   |            | 0.1101     |            |       |  0.29

Nlocal:    9826 ave 9846 max 9806 min
Histogram: 1 0 0 0 0 0 0 0 0 1
Nghost:    12409.5 ave 12460 max 12359 min
Histogram: 1 0 0 0 0 0 0 0 0 1
Neighs:    679720 ave 681023 max 678416 min
Histogram: 1 0 0 0 0 0 0 0 0 1

Total # of neighbors = 1359439
Ave neighs/atom = 69.1756
Neighbor list builds = 495
Dangerous builds not checked
Setting up Verlet run ...
  Unit style    : metal
  Current step  : 940495
  Time step     : 0.001
Per MPI rank memory allocation (min/avg/max) = 11.35 | 11.35 | 11.35 Mbytes
Step Temp Press TotEng PotEng Enthalpy 
  940495    174.55208    53.772095   -88663.151   -89106.529   -88650.956 
  960000    149.43869     45.68285    -88805.95   -89185.538   -88795.597 
Loop time of 1580.66 on 2 procs for 19505 steps with 19652 atoms

Performance: 1.066 ns/day, 22.511 hours/ns, 12.340 timesteps/s
98.9% CPU use with 2 MPI tasks x no OpenMP threads

MPI task timing breakdown:
Section |  min time  |  avg time  |  max time  |%varavg| %total
---------------------------------------------------------------
Pair    | 836.2      | 838.02     | 839.84     |   6.3 | 53.02
Neigh   | 666.04     | 673.87     | 681.7      |  30.2 | 42.63
Comm    | 37.872     | 47.855     | 57.838     | 144.3 |  3.03
Output  | 0.06288    | 0.062895   | 0.06291    |   0.0 |  0.00
Modify  | 16.192     | 16.32      | 16.448     |   3.2 |  1.03
Other   |            | 4.536      |            |       |  0.29

Nlocal:    9826 ave 9848 max 9804 min
Histogram: 1 0 0 0 0 0 0 0 0 1
Nghost:    12413 ave 12461 max 12365 min
Histogram: 1 0 0 0 0 0 0 0 0 1
Neighs:    680267 ave 681709 max 678825 min
Histogram: 1 0 0 0 0 0 0 0 0 1

Total # of neighbors = 1360534
Ave neighs/atom = 69.2313
Neighbor list builds = 19505
Dangerous builds not checked
Setting up Verlet run ...
  Unit style    : metal
  Current step  : 960000
  Time step     : 0.001
Per MPI rank memory allocation (min/avg/max) = 11.35 | 11.35 | 11.35 Mbytes
Step Temp Press TotEng PotEng Enthalpy 
  960000    149.43869     45.68285    -88805.95   -89185.538   -88795.597 
  960495    126.85508   -514.37714   -88924.694   -89246.918   -89041.268 
Loop time of 39.2118 on 2 procs for 495 steps with 19652 atoms

Performance: 1.091 ns/day, 22.004 hours/ns, 12.624 timesteps/s
99.6% CPU use with 2 MPI tasks x no OpenMP threads

MPI task timing breakdown:
Section |  min time  |  avg time  |  max time  |%varavg| %total
---------------------------------------------------------------
Pair    | 20.587     | 20.872     | 21.157     |   6.2 | 53.23
Neigh   | 16.126     | 16.743     | 17.36      |  15.1 | 42.70
Comm    | 0.73312    | 1.0799     | 1.4268     |  33.4 |  2.75
Output  | 7.7009e-05 | 0.00011599 | 0.00015497 |   0.0 |  0.00
Modify  | 0.39239    | 0.40537    | 0.41835    |   2.0 |  1.03
Other   |            | 0.1114     |            |       |  0.28

Nlocal:    9826 ave 9849 max 9803 min
Histogram: 1 0 0 0 0 0 0 0 0 1
Nghost:    12421.5 ave 12470 max 12373 min
Histogram: 1 0 0 0 0 0 0 0 0 1
Neighs:    680328 ave 681899 max 678758 min
Histogram: 1 0 0 0 0 0 0 0 0 1

Total # of neighbors = 1360657
Ave neighs/atom = 69.2376
Neighbor list builds = 495
Dangerous builds not checked
Setting up Verlet run ...
  Unit style    : metal
  Current step  : 960495
  Time step     : 0.001
Per MPI rank memory allocation (min/avg/max) = 11.35 | 11.35 | 11.35 Mbytes
Step Temp Press TotEng PotEng Enthalpy 
  960495    126.85508   -514.37714   -88924.694   -89246.918   -89041.268 
  980000    99.332543   -146.01799    -89069.51   -89321.823   -89102.571 
Loop time of 1563.85 on 2 procs for 19505 steps with 19652 atoms

Performance: 1.078 ns/day, 22.271 hours/ns, 12.472 timesteps/s
99.1% CPU use with 2 MPI tasks x no OpenMP threads

MPI task timing breakdown:
Section |  min time  |  avg time  |  max time  |%varavg| %total
---------------------------------------------------------------
Pair    | 826.56     | 826.99     | 827.42     |   1.5 | 52.88
Neigh   | 667.37     | 669.44     | 671.51     |   8.0 | 42.81
Comm    | 43.603     | 46.123     | 48.642     |  37.1 |  2.95
Output  | 0.057758   | 0.057775   | 0.057792   |   0.0 |  0.00
Modify  | 16.959     | 17.003     | 17.046     |   1.1 |  1.09
Other   |            | 4.237      |            |       |  0.27

Nlocal:    9826 ave 9849 max 9803 min
Histogram: 1 0 0 0 0 0 0 0 0 1
Nghost:    12420 ave 12464 max 12376 min
Histogram: 1 0 0 0 0 0 0 0 0 1
Neighs:    681008 ave 682574 max 679441 min
Histogram: 1 0 0 0 0 0 0 0 0 1

Total # of neighbors = 1362015
Ave neighs/atom = 69.3067
Neighbor list builds = 19505
Dangerous builds not checked
Total wall time: 26:17:34
