LAMMPS (12 Dec 2018)
Lattice spacing in x,y,z = 4 4 4
Created orthogonal box = (0 0 0) to (68 68 68)
  1 by 2 by 3 MPI processor grid
Created 19652 atoms
  Time spent = 0.000820875 secs
Setting atom values ...
  19480 settings made for type/fraction
Neighbor list info ...
  update every 1 steps, delay 0 steps, check no
  max neighbors/atom: 2000, page size: 100000
  master list distance cutoff = 8.5
  ghost atom cutoff = 8.5
  binsize = 4.25, bins = 16 16 16
  1 neighbor lists, perpetual/occasional/extra = 1 0 0
  (1) pair eam/alloy, perpetual
      attributes: half, newton on
      pair build: half/bin/atomonly/newton
      stencil: half/bin/3d/newton
      bin: standard
Setting up Verlet run ...
  Unit style    : metal
  Current step  : 0
  Time step     : 0.001
Per MPI rank memory allocation (min/avg/max) = 5.546 | 5.705 | 5.983 Mbytes
Step Temp Press TotEng PotEng Enthalpy 
       0          300   -183049.92   -61915.329   -62677.356   -97839.431 
    1000    499.86242   -81420.052   -61915.359   -63185.055   -77894.291 
Loop time of 34.4733 on 6 procs for 1000 steps with 19652 atoms

Performance: 2.506 ns/day, 9.576 hours/ns, 29.008 timesteps/s
99.2% CPU use with 6 MPI tasks x no OpenMP threads

MPI task timing breakdown:
Section |  min time  |  avg time  |  max time  |%varavg| %total
---------------------------------------------------------------
Pair    | 19.329     | 19.471     | 19.655     |   2.6 | 56.48
Neigh   | 10.46      | 12.019     | 13.017     |  24.9 | 34.86
Comm    | 1.8527     | 2.8215     | 4.2234     |  48.3 |  8.18
Output  | 0.00011897 | 0.0001363  | 0.00015807 |   0.0 |  0.00
Modify  | 0.065282   | 0.080306   | 0.091598   |   3.2 |  0.23
Other   |            | 0.08171    |            |       |  0.24

Nlocal:    3275.33 ave 3356 max 3185 min
Histogram: 1 0 0 1 1 0 2 0 0 1
Nghost:    7603.5 ave 7655 max 7508 min
Histogram: 1 0 0 1 0 0 1 0 0 3
Neighs:    263803 ave 275328 max 254267 min
Histogram: 1 0 1 1 1 0 0 1 0 1

Total # of neighbors = 1582819
Ave neighs/atom = 80.5424
Neighbor list builds = 1000
Dangerous builds not checked
Setting up Verlet run ...
  Unit style    : metal
  Current step  : 1000
  Time step     : 0.001
Per MPI rank memory allocation (min/avg/max) = 5.55 | 5.84 | 5.987 Mbytes
Step Temp Press TotEng PotEng Enthalpy 
    1000    499.86242   -81420.052   -61915.359   -63185.055   -77894.291 
    2000    392.68372   -1847.0689   -66483.594   -67481.046   -66766.627 
Loop time of 40.9559 on 6 procs for 1000 steps with 19652 atoms

Performance: 2.110 ns/day, 11.377 hours/ns, 24.416 timesteps/s
99.8% CPU use with 6 MPI tasks x no OpenMP threads

MPI task timing breakdown:
Section |  min time  |  avg time  |  max time  |%varavg| %total
---------------------------------------------------------------
Pair    | 22.598     | 22.685     | 22.767     |   1.3 | 55.39
Neigh   | 15.38      | 15.754     | 16.245     |   7.3 | 38.47
Comm    | 1.5038     | 1.9974     | 2.2891     |  19.9 |  4.88
Output  | 0.00013399 | 0.0001477  | 0.00019622 |   0.0 |  0.00
Modify  | 0.41876    | 0.426      | 0.43485    |   0.8 |  1.04
Other   |            | 0.0932     |            |       |  0.23

Nlocal:    3275.33 ave 3329 max 3194 min
Histogram: 1 0 0 1 0 0 1 1 1 1
Nghost:    8254.83 ave 8447 max 8100 min
Histogram: 1 1 1 1 0 0 0 0 1 1
Neighs:    333390 ave 345130 max 322245 min
Histogram: 1 1 0 1 1 0 0 0 0 2

Total # of neighbors = 2000339
Ave neighs/atom = 101.788
Neighbor list builds = 1000
Dangerous builds not checked
Setting up Verlet run ...
  Unit style    : metal
  Current step  : 2000
  Time step     : 0.001
Per MPI rank memory allocation (min/avg/max) = 5.946 | 5.972 | 5.99 Mbytes
Step Temp Press TotEng PotEng Enthalpy 
    2000    392.68372   -1847.0689   -66483.594   -67481.046   -66766.627 
   10000    2454.7009   -1348.6884   -53620.852   -59856.016   -53867.872 
Loop time of 339.965 on 6 procs for 8000 steps with 19652 atoms

Performance: 2.033 ns/day, 11.804 hours/ns, 23.532 timesteps/s
99.2% CPU use with 6 MPI tasks x no OpenMP threads

MPI task timing breakdown:
Section |  min time  |  avg time  |  max time  |%varavg| %total
---------------------------------------------------------------
Pair    | 186.75     | 189        | 189.86     |   7.6 | 55.59
Neigh   | 124.24     | 128.02     | 131.86     |  26.2 | 37.66
Comm    | 14.495     | 18.926     | 22.029     |  70.1 |  5.57
Output  | 7.9155e-05 | 9.6202e-05 | 0.0001719  |   0.0 |  0.00
Modify  | 3.0961     | 3.2869     | 3.4089     |   7.4 |  0.97
Other   |            | 0.7375     |            |       |  0.22

Nlocal:    3275.33 ave 3289 max 3250 min
Histogram: 1 0 0 0 0 0 2 1 1 1
Nghost:    7738.5 ave 7766 max 7704 min
Histogram: 1 0 0 1 0 2 0 0 0 2
Neighs:    279837 ave 283639 max 275004 min
Histogram: 1 0 0 0 2 0 0 2 0 1

Total # of neighbors = 1679021
Ave neighs/atom = 85.4377
Neighbor list builds = 8000
Dangerous builds not checked
Setting up Verlet run ...
  Unit style    : metal
  Current step  : 10000
  Time step     : 0.001
Per MPI rank memory allocation (min/avg/max) = 5.947 | 5.973 | 5.991 Mbytes
Step Temp Press TotEng PotEng Enthalpy 
   10000    2454.7009   -1348.6884   -53620.852   -59856.016   -53867.872 
   40000    2464.3976   -1276.6226   -53454.263   -59714.057   -53688.918 
Loop time of 1176.41 on 6 procs for 30000 steps with 19652 atoms

Performance: 2.203 ns/day, 10.893 hours/ns, 25.501 timesteps/s
99.5% CPU use with 6 MPI tasks x no OpenMP threads

MPI task timing breakdown:
Section |  min time  |  avg time  |  max time  |%varavg| %total
---------------------------------------------------------------
Pair    | 651.74     | 654.57     | 659.06     |  10.7 | 55.64
Neigh   | 449.83     | 454.81     | 458.86     |  13.2 | 38.66
Comm    | 49.842     | 53.704     | 61.58      |  52.0 |  4.57
Output  | 7.0095e-05 | 7.987e-05  | 0.00012493 |   0.0 |  0.00
Modify  | 10.538     | 10.621     | 10.713     |   1.9 |  0.90
Other   |            | 2.713      |            |       |  0.23

Nlocal:    3275.33 ave 3309 max 3249 min
Histogram: 2 0 0 1 0 1 0 1 0 1
Nghost:    7729.17 ave 7749 max 7699 min
Histogram: 1 1 0 0 0 1 0 0 0 3
Neighs:    279029 ave 283375 max 275014 min
Histogram: 1 1 0 1 0 0 1 1 0 1

Total # of neighbors = 1674176
Ave neighs/atom = 85.1911
Neighbor list builds = 30000
Dangerous builds not checked
Setting up Verlet run ...
  Unit style    : metal
  Current step  : 40000
  Time step     : 0.001
Per MPI rank memory allocation (min/avg/max) = 5.947 | 5.973 | 5.991 Mbytes
Step Temp Press TotEng PotEng Enthalpy 
   40000    2464.3976   -1276.6226   -53454.263   -59714.057   -53688.918 
   40495    2404.0002    2330.5886   -53785.762   -59892.141   -53360.956 
Loop time of 18.332 on 6 procs for 495 steps with 19652 atoms

Performance: 2.333 ns/day, 10.287 hours/ns, 27.002 timesteps/s
100.0% CPU use with 6 MPI tasks x no OpenMP threads

MPI task timing breakdown:
Section |  min time  |  avg time  |  max time  |%varavg| %total
---------------------------------------------------------------
Pair    | 9.9788     | 10.161     | 10.27      |   2.9 | 55.43
Neigh   | 7.0487     | 7.2383     | 7.6887     |   8.5 | 39.48
Comm    | 0.456      | 0.73356    | 0.89571    |  19.6 |  4.00
Output  | 5.3167e-05 | 6.7314e-05 | 0.00011706 |   0.0 |  0.00
Modify  | 0.14993    | 0.1552     | 0.16426    |   1.3 |  0.85
Other   |            | 0.04376    |            |       |  0.24

Nlocal:    3275.33 ave 3295 max 3259 min
Histogram: 1 1 1 0 0 1 0 1 0 1
Nghost:    7722.83 ave 7739 max 7675 min
Histogram: 1 0 0 0 0 0 0 0 3 2
Neighs:    281288 ave 283686 max 278716 min
Histogram: 1 0 0 0 2 1 1 0 0 1

Total # of neighbors = 1687729
Ave neighs/atom = 85.8808
Neighbor list builds = 495
Dangerous builds not checked
Setting up Verlet run ...
  Unit style    : metal
  Current step  : 40495
  Time step     : 0.001
Per MPI rank memory allocation (min/avg/max) = 5.947 | 5.973 | 5.991 Mbytes
Step Temp Press TotEng PotEng Enthalpy 
   40495    2404.0002    2330.5886   -53785.762   -59892.141   -53360.956 
   66667    2401.6813   -990.05165    -53830.59   -59931.079   -54011.453 
  106667    2401.3719   -283.20029   -53776.447    -59876.15   -53828.201 
Loop time of 2593.02 on 6 procs for 66172 steps with 19652 atoms

Performance: 2.205 ns/day, 10.885 hours/ns, 25.519 timesteps/s
99.5% CPU use with 6 MPI tasks x no OpenMP threads

MPI task timing breakdown:
Section |  min time  |  avg time  |  max time  |%varavg| %total
---------------------------------------------------------------
Pair    | 1432.1     | 1440.8     | 1449.3     |  17.0 | 55.56
Neigh   | 994.81     | 1000.5     | 1004.8     |  11.2 | 38.59
Comm    | 110.32     | 121.65     | 133.67     |  65.6 |  4.69
Output  | 0.048987   | 0.049006   | 0.049077   |   0.0 |  0.00
Modify  | 23.789     | 24.12      | 24.358     |   4.3 |  0.93
Other   |            | 5.911      |            |       |  0.23

Nlocal:    3275.33 ave 3302 max 3251 min
Histogram: 1 0 1 0 2 0 0 1 0 1
Nghost:    7715.5 ave 7756 max 7661 min
Histogram: 1 1 0 0 0 0 1 1 0 2
Neighs:    280614 ave 284453 max 277039 min
Histogram: 1 0 1 0 1 1 1 0 0 1

Total # of neighbors = 1683682
Ave neighs/atom = 85.6748
Neighbor list builds = 66172
Dangerous builds not checked
Setting up Verlet run ...
  Unit style    : metal
  Current step  : 106667
  Time step     : 0.001
Per MPI rank memory allocation (min/avg/max) = 5.967 | 5.993 | 6.007 Mbytes
Step Temp Press TotEng PotEng Enthalpy 
  106667    2401.3719   -283.20029   -53776.447    -59876.15   -53828.201 
  107162    2368.2928    1071.5777   -54050.657   -60066.337   -53856.097 
Loop time of 17.6416 on 6 procs for 495 steps with 19652 atoms

Performance: 2.424 ns/day, 9.900 hours/ns, 28.059 timesteps/s
99.3% CPU use with 6 MPI tasks x no OpenMP threads

MPI task timing breakdown:
Section |  min time  |  avg time  |  max time  |%varavg| %total
---------------------------------------------------------------
Pair    | 9.6449     | 9.741      | 9.9142     |   2.8 | 55.22
Neigh   | 5.9649     | 6.4469     | 6.8611     |  11.4 | 36.54
Comm    | 0.85921    | 1.2431     | 1.559      |  19.9 |  7.05
Output  | 7.4863e-05 | 8.5513e-05 | 0.00012279 |   0.0 |  0.00
Modify  | 0.15894    | 0.16491    | 0.17008    |   0.9 |  0.93
Other   |            | 0.04558    |            |       |  0.26

Nlocal:    3275.33 ave 3299 max 3252 min
Histogram: 1 1 0 0 0 1 2 0 0 1
Nghost:    7765.33 ave 7811 max 7703 min
Histogram: 1 1 0 0 0 0 0 3 0 1
Neighs:    282352 ave 285101 max 278134 min
Histogram: 1 0 0 0 2 0 0 0 2 1

Total # of neighbors = 1694115
Ave neighs/atom = 86.2057
Neighbor list builds = 495
Dangerous builds not checked
Setting up Verlet run ...
  Unit style    : metal
  Current step  : 107162
  Time step     : 0.001
Per MPI rank memory allocation (min/avg/max) = 5.967 | 5.993 | 6.007 Mbytes
Step Temp Press TotEng PotEng Enthalpy 
  107162    2368.2928    1071.5777   -54050.657   -60066.337   -53856.097 
  133334    2352.1929   -986.20738   -54142.522   -60117.306   -54321.736 
  173334    2361.6832    1799.2506   -54191.641   -60190.531   -53866.242 
Loop time of 2469.22 on 6 procs for 66172 steps with 19652 atoms

Performance: 2.315 ns/day, 10.365 hours/ns, 26.799 timesteps/s
99.7% CPU use with 6 MPI tasks x no OpenMP threads

MPI task timing breakdown:
Section |  min time  |  avg time  |  max time  |%varavg| %total
---------------------------------------------------------------
Pair    | 1357.7     | 1364.7     | 1375.1     |  16.7 | 55.27
Neigh   | 888.44     | 900.13     | 913.39     |  26.8 | 36.45
Comm    | 168.36     | 178.18     | 190.19     |  60.8 |  7.22
Output  | 0.01503    | 0.015049   | 0.015128   |   0.0 |  0.00
Modify  | 20.565     | 20.703     | 20.824     |   2.2 |  0.84
Other   |            | 5.502      |            |       |  0.22

Nlocal:    3275.33 ave 3293 max 3260 min
Histogram: 1 0 1 1 1 0 1 0 0 1
Nghost:    7776.33 ave 7803 max 7749 min
Histogram: 2 0 0 0 1 1 0 0 0 2
Neighs:    283514 ave 285545 max 280352 min
Histogram: 1 0 1 0 0 0 1 1 0 2

Total # of neighbors = 1701083
Ave neighs/atom = 86.5603
Neighbor list builds = 66172
Dangerous builds not checked
Setting up Verlet run ...
  Unit style    : metal
  Current step  : 173334
  Time step     : 0.001
Per MPI rank memory allocation (min/avg/max) = 5.967 | 5.993 | 6.007 Mbytes
Step Temp Press TotEng PotEng Enthalpy 
  173334    2361.6832    1799.2506   -54191.641   -60190.531   -53866.242 
  173829    2314.7986    1024.3766   -54294.212   -60174.011   -54108.783 
Loop time of 18.7494 on 6 procs for 495 steps with 19652 atoms

Performance: 2.281 ns/day, 10.522 hours/ns, 26.401 timesteps/s
95.8% CPU use with 6 MPI tasks x no OpenMP threads

MPI task timing breakdown:
Section |  min time  |  avg time  |  max time  |%varavg| %total
---------------------------------------------------------------
Pair    | 10.722     | 10.86      | 10.972     |   3.0 | 57.92
Neigh   | 5.9612     | 6.3757     | 6.8862     |  14.7 | 34.00
Comm    | 0.89133    | 1.3271     | 1.6343     |  25.6 |  7.08
Output  | 5.8889e-05 | 7.3314e-05 | 0.00013113 |   0.0 |  0.00
Modify  | 0.14163    | 0.14691    | 0.15506    |   1.2 |  0.78
Other   |            | 0.04005    |            |       |  0.21

Nlocal:    3275.33 ave 3309 max 3258 min
Histogram: 2 0 1 2 0 0 0 0 0 1
Nghost:    7746.5 ave 7759 max 7721 min
Histogram: 1 0 1 0 0 0 0 0 1 3
Neighs:    283176 ave 288733 max 279613 min
Histogram: 2 1 0 0 1 0 1 0 0 1

Total # of neighbors = 1699054
Ave neighs/atom = 86.4571
Neighbor list builds = 495
Dangerous builds not checked
Setting up Verlet run ...
  Unit style    : metal
  Current step  : 173829
  Time step     : 0.001
Per MPI rank memory allocation (min/avg/max) = 5.967 | 5.993 | 6.007 Mbytes
Step Temp Press TotEng PotEng Enthalpy 
  173829    2314.7986    1024.3766   -54294.212   -60174.011   -54108.783 
  200001    2329.4154    7.4005013   -54299.604   -60216.532   -54298.265 
  240001    2309.4741   -175.97881   -54449.884   -60316.158   -54481.677 
Loop time of 2467.93 on 6 procs for 66172 steps with 19652 atoms

Performance: 2.317 ns/day, 10.360 hours/ns, 26.813 timesteps/s
99.8% CPU use with 6 MPI tasks x no OpenMP threads

MPI task timing breakdown:
Section |  min time  |  avg time  |  max time  |%varavg| %total
---------------------------------------------------------------
Pair    | 1354.1     | 1361.8     | 1372.2     |  17.6 | 55.18
Neigh   | 881.91     | 908.1      | 922.62     |  43.9 | 36.80
Comm    | 162.89     | 172        | 188.17     |  61.5 |  6.97
Output  | 0.014816   | 0.014839   | 0.014933   |   0.0 |  0.00
Modify  | 20.354     | 20.602     | 20.79      |   3.6 |  0.83
Other   |            | 5.462      |            |       |  0.22

Nlocal:    3275.33 ave 3298 max 3251 min
Histogram: 1 1 0 0 0 1 1 1 0 1
Nghost:    7770.67 ave 7808 max 7732 min
Histogram: 1 0 0 1 2 0 0 0 1 1
Neighs:    283666 ave 287868 max 279147 min
Histogram: 2 0 0 0 1 0 0 1 1 1

Total # of neighbors = 1701995
Ave neighs/atom = 86.6067
Neighbor list builds = 66172
Dangerous builds not checked
Setting up Verlet run ...
  Unit style    : metal
  Current step  : 240001
  Time step     : 0.001
Per MPI rank memory allocation (min/avg/max) = 5.967 | 5.993 | 6.007 Mbytes
Step Temp Press TotEng PotEng Enthalpy 
  240001    2309.4741   -175.97881   -54449.884   -60316.158   -54481.677 
  240496    2261.6436    1278.4525   -54590.393   -60335.174   -54360.077 
Loop time of 17.6159 on 6 procs for 495 steps with 19652 atoms

Performance: 2.428 ns/day, 9.885 hours/ns, 28.100 timesteps/s
99.9% CPU use with 6 MPI tasks x no OpenMP threads

MPI task timing breakdown:
Section |  min time  |  avg time  |  max time  |%varavg| %total
---------------------------------------------------------------
Pair    | 9.6305     | 9.7443     | 9.7925     |   1.7 | 55.32
Neigh   | 5.9762     | 6.3786     | 7.0819     |  15.5 | 36.21
Comm    | 0.70676    | 1.3079     | 1.6793     |  30.9 |  7.42
Output  | 7.2002e-05 | 8.2374e-05 | 0.00012803 |   0.0 |  0.00
Modify  | 0.14037    | 0.14507    | 0.15453    |   1.3 |  0.82
Other   |            | 0.03987    |            |       |  0.23

Nlocal:    3275.33 ave 3288 max 3255 min
Histogram: 1 0 0 1 0 0 1 1 1 1
Nghost:    7781 ave 7806 max 7761 min
Histogram: 2 0 1 0 0 0 1 1 0 1
Neighs:    284582 ave 288261 max 282246 min
Histogram: 2 0 2 0 0 0 0 1 0 1

Total # of neighbors = 1707493
Ave neighs/atom = 86.8865
Neighbor list builds = 495
Dangerous builds not checked
Setting up Verlet run ...
  Unit style    : metal
  Current step  : 240496
  Time step     : 0.001
Per MPI rank memory allocation (min/avg/max) = 5.967 | 5.993 | 6.007 Mbytes
Step Temp Press TotEng PotEng Enthalpy 
  240496    2261.6436    1278.4525   -54590.393   -60335.174   -54360.077 
  266668    2253.6058   -1699.9769   -54669.235     -60393.6   -54975.868 
  306668    2262.2676    522.25281   -54691.037   -60437.403   -54597.097 
Loop time of 2480.19 on 6 procs for 66172 steps with 19652 atoms

Performance: 2.305 ns/day, 10.411 hours/ns, 26.680 timesteps/s
99.7% CPU use with 6 MPI tasks x no OpenMP threads

MPI task timing breakdown:
Section |  min time  |  avg time  |  max time  |%varavg| %total
---------------------------------------------------------------
Pair    | 1360.5     | 1373.5     | 1383.1     |  21.6 | 55.38
Neigh   | 890.92     | 902        | 916.51     |  26.2 | 36.37
Comm    | 169.75     | 178.68     | 186.51     |  44.9 |  7.20
Output  | 0.015113   | 0.015139   | 0.015247   |   0.0 |  0.00
Modify  | 20.282     | 20.598     | 20.87      |   5.0 |  0.83
Other   |            | 5.427      |            |       |  0.22

Nlocal:    3275.33 ave 3298 max 3246 min
Histogram: 1 0 0 1 0 0 2 1 0 1
Nghost:    7784.83 ave 7825 max 7751 min
Histogram: 1 0 1 0 2 0 1 0 0 1
Neighs:    285010 ave 288881 max 279284 min
Histogram: 1 0 0 0 1 1 0 1 1 1

Total # of neighbors = 1710059
Ave neighs/atom = 87.017
Neighbor list builds = 66172
Dangerous builds not checked
Setting up Verlet run ...
  Unit style    : metal
  Current step  : 306668
  Time step     : 0.001
Per MPI rank memory allocation (min/avg/max) = 5.967 | 5.993 | 6.007 Mbytes
Step Temp Press TotEng PotEng Enthalpy 
  306668    2262.2676    522.25281   -54691.037   -60437.403   -54597.097 
  307163     2215.122    863.25049   -54917.474   -60544.086   -54762.735 
Loop time of 17.7983 on 6 procs for 495 steps with 19652 atoms

Performance: 2.403 ns/day, 9.988 hours/ns, 27.812 timesteps/s
99.6% CPU use with 6 MPI tasks x no OpenMP threads

MPI task timing breakdown:
Section |  min time  |  avg time  |  max time  |%varavg| %total
---------------------------------------------------------------
Pair    | 9.6571     | 9.7824     | 9.8732     |   2.5 | 54.96
Neigh   | 6.0504     | 6.4603     | 6.9525     |  13.4 | 36.30
Comm    | 0.98551    | 1.3596     | 1.6853     |  24.2 |  7.64
Output  | 6.2943e-05 | 7.7168e-05 | 0.00013995 |   0.0 |  0.00
Modify  | 0.15031    | 0.15523    | 0.16063    |   1.0 |  0.87
Other   |            | 0.04079    |            |       |  0.23

Nlocal:    3275.33 ave 3312 max 3253 min
Histogram: 1 0 1 3 0 0 0 0 0 1
Nghost:    7775.67 ave 7823 max 7733 min
Histogram: 1 1 0 0 1 1 1 0 0 1
Neighs:    285810 ave 290304 max 283316 min
Histogram: 1 1 1 1 1 0 0 0 0 1

Total # of neighbors = 1714857
Ave neighs/atom = 87.2612
Neighbor list builds = 495
Dangerous builds not checked
Setting up Verlet run ...
  Unit style    : metal
  Current step  : 307163
  Time step     : 0.001
Per MPI rank memory allocation (min/avg/max) = 5.967 | 5.993 | 6.007 Mbytes
Step Temp Press TotEng PotEng Enthalpy 
  307163     2215.122    863.25049   -54917.474   -60544.086   -54762.735 
  333335    2213.1881   -162.28122   -54931.101   -60552.801   -54960.221 
  373335     2221.146    602.56127   -54965.116   -60607.029   -54857.252 
Loop time of 2477.6 on 6 procs for 66172 steps with 19652 atoms

Performance: 2.308 ns/day, 10.401 hours/ns, 26.708 timesteps/s
99.7% CPU use with 6 MPI tasks x no OpenMP threads

MPI task timing breakdown:
Section |  min time  |  avg time  |  max time  |%varavg| %total
---------------------------------------------------------------
Pair    | 1363.2     | 1374.2     | 1386.6     |  19.8 | 55.47
Neigh   | 872.9      | 900.59     | 919.02     |  56.1 | 36.35
Comm    | 164.62     | 176.93     | 192.66     |  82.2 |  7.14
Output  | 0.015397   | 0.015416   | 0.01549    |   0.0 |  0.00
Modify  | 20.107     | 20.441     | 20.643     |   4.1 |  0.83
Other   |            | 5.409      |            |       |  0.22

Nlocal:    3275.33 ave 3295 max 3253 min
Histogram: 1 0 0 2 0 0 1 0 1 1
Nghost:    7828.67 ave 7859 max 7803 min
Histogram: 1 0 0 1 2 1 0 0 0 1
Neighs:    286295 ave 287222 max 284124 min
Histogram: 1 0 0 0 0 0 2 0 1 2

Total # of neighbors = 1717772
Ave neighs/atom = 87.4095
Neighbor list builds = 66172
Dangerous builds not checked
Setting up Verlet run ...
  Unit style    : metal
  Current step  : 373335
  Time step     : 0.001
Per MPI rank memory allocation (min/avg/max) = 5.967 | 5.993 | 6.007 Mbytes
Step Temp Press TotEng PotEng Enthalpy 
  373335     2221.146    602.56127   -54965.116   -60607.029   -54857.252 
  373830    2165.4359    1007.8948   -55201.796   -60702.201   -55021.973 
Loop time of 18.0593 on 6 procs for 495 steps with 19652 atoms

Performance: 2.368 ns/day, 10.134 hours/ns, 27.410 timesteps/s
99.9% CPU use with 6 MPI tasks x no OpenMP threads

MPI task timing breakdown:
Section |  min time  |  avg time  |  max time  |%varavg| %total
---------------------------------------------------------------
Pair    | 9.86       | 9.9926     | 10.127     |   3.0 | 55.33
Neigh   | 6.0649     | 6.6622     | 7.1757     |  15.4 | 36.89
Comm    | 0.79772    | 1.2106     | 1.6836     |  28.7 |  6.70
Output  | 5.9843e-05 | 7.1128e-05 | 0.00011396 |   0.0 |  0.00
Modify  | 0.14547    | 0.15227    | 0.15857    |   1.2 |  0.84
Other   |            | 0.04159    |            |       |  0.23

Nlocal:    3275.33 ave 3297 max 3244 min
Histogram: 1 0 0 1 0 1 1 0 0 2
Nghost:    7832.67 ave 7872 max 7799 min
Histogram: 1 1 0 1 1 0 0 1 0 1
Neighs:    287220 ave 291436 max 281489 min
Histogram: 1 0 0 1 0 0 2 0 1 1

Total # of neighbors = 1723319
Ave neighs/atom = 87.6918
Neighbor list builds = 495
Dangerous builds not checked
Setting up Verlet run ...
  Unit style    : metal
  Current step  : 373830
  Time step     : 0.001
Per MPI rank memory allocation (min/avg/max) = 5.967 | 5.993 | 6.007 Mbytes
Step Temp Press TotEng PotEng Enthalpy 
  373830    2165.4359    1007.8948   -55201.796   -60702.201   -55021.973 
  400002    2150.5559    250.78956   -55318.436   -60781.044   -55273.746 
  440002    2153.9182    308.01717    -55240.56   -60711.708   -55185.588 
Loop time of 2514.62 on 6 procs for 66172 steps with 19652 atoms

Performance: 2.274 ns/day, 10.556 hours/ns, 26.315 timesteps/s
99.7% CPU use with 6 MPI tasks x no OpenMP threads

MPI task timing breakdown:
Section |  min time  |  avg time  |  max time  |%varavg| %total
---------------------------------------------------------------
Pair    | 1385.7     | 1398.4     | 1412       |  21.9 | 55.61
Neigh   | 883.28     | 899.65     | 916.11     |  36.5 | 35.78
Comm    | 178.16     | 189.85     | 200.74     |  52.7 |  7.55
Output  | 0.014749   | 0.014768   | 0.014854   |   0.0 |  0.00
Modify  | 21.041     | 21.253     | 21.362     |   2.4 |  0.85
Other   |            | 5.457      |            |       |  0.22

Nlocal:    3275.33 ave 3290 max 3265 min
Histogram: 1 1 0 1 1 0 1 0 0 1
Nghost:    7811.17 ave 7841 max 7783 min
Histogram: 1 1 0 1 0 1 0 0 1 1
Neighs:    287168 ave 290332 max 284639 min
Histogram: 1 2 0 0 0 1 0 1 0 1

Total # of neighbors = 1723006
Ave neighs/atom = 87.6759
Neighbor list builds = 66172
Dangerous builds not checked
Setting up Verlet run ...
  Unit style    : metal
  Current step  : 440002
  Time step     : 0.001
Per MPI rank memory allocation (min/avg/max) = 5.967 | 5.993 | 6.007 Mbytes
Step Temp Press TotEng PotEng Enthalpy 
  440002    2153.9182    308.01717    -55240.56   -60711.708   -55185.588 
  440497    2110.2561     1605.956   -55519.852   -60880.094   -55234.893 
Loop time of 18.8668 on 6 procs for 495 steps with 19652 atoms

Performance: 2.267 ns/day, 10.587 hours/ns, 26.237 timesteps/s
99.9% CPU use with 6 MPI tasks x no OpenMP threads

MPI task timing breakdown:
Section |  min time  |  avg time  |  max time  |%varavg| %total
---------------------------------------------------------------
Pair    | 10.499     | 10.658     | 10.84      |   3.2 | 56.49
Neigh   | 4.829      | 6.432      | 7.5904     |  41.8 | 34.09
Comm    | 0.42154    | 1.5788     | 3.0222     |  80.4 |  8.37
Output  | 5.8174e-05 | 7.9513e-05 | 0.00012684 |   0.0 |  0.00
Modify  | 0.13636    | 0.15372    | 0.16684    |   3.1 |  0.81
Other   |            | 0.04377    |            |       |  0.23

Nlocal:    3275.33 ave 3291 max 3253 min
Histogram: 1 0 0 0 2 0 0 1 1 1
Nghost:    7829.67 ave 7866 max 7803 min
Histogram: 2 0 1 0 0 1 1 0 0 1
Neighs:    288714 ave 291799 max 284959 min
Histogram: 1 0 1 1 0 0 0 1 0 2

Total # of neighbors = 1732281
Ave neighs/atom = 88.1478
Neighbor list builds = 495
Dangerous builds not checked
Setting up Verlet run ...
  Unit style    : metal
  Current step  : 440497
  Time step     : 0.001
Per MPI rank memory allocation (min/avg/max) = 5.967 | 5.993 | 6.007 Mbytes
Step Temp Press TotEng PotEng Enthalpy 
  440497    2110.2561     1605.956   -55519.852   -60880.094   -55234.893 
  466669    2104.4569    709.87232   -55638.643   -60984.155   -55512.948 
  506669    2099.2999     2638.664   -55652.106   -60984.519   -55185.774 
Loop time of 2559.34 on 6 procs for 66172 steps with 19652 atoms

Performance: 2.234 ns/day, 10.744 hours/ns, 25.855 timesteps/s
99.4% CPU use with 6 MPI tasks x no OpenMP threads

MPI task timing breakdown:
Section |  min time  |  avg time  |  max time  |%varavg| %total
---------------------------------------------------------------
Pair    | 1404.6     | 1408       | 1413.1     |   7.9 | 55.01
Neigh   | 1010.5     | 1014.7     | 1019.2     |  11.7 | 39.65
Comm    | 102.23     | 107.16     | 112.45     |  37.7 |  4.19
Output  | 0.016264   | 0.016305   | 0.016412   |   0.0 |  0.00
Modify  | 23.553     | 23.669     | 23.846     |   1.9 |  0.92
Other   |            | 5.856      |            |       |  0.23

Nlocal:    3275.33 ave 3289 max 3251 min
Histogram: 2 0 0 0 0 0 0 0 1 3
Nghost:    7847 ave 7887 max 7790 min
Histogram: 1 0 0 1 0 1 1 0 0 2
Neighs:    289928 ave 292850 max 284884 min
Histogram: 1 0 0 0 1 0 2 0 0 2

Total # of neighbors = 1739569
Ave neighs/atom = 88.5187
Neighbor list builds = 66172
Dangerous builds not checked
Setting up Verlet run ...
  Unit style    : metal
  Current step  : 506669
  Time step     : 0.001
Per MPI rank memory allocation (min/avg/max) = 5.967 | 5.993 | 6.007 Mbytes
Step Temp Press TotEng PotEng Enthalpy 
  506669    2099.2999     2638.664   -55652.106   -60984.519   -55185.774 
  507164    2065.6006    745.36491   -55884.664   -61131.478    -55753.05 
Loop time of 17.8744 on 6 procs for 495 steps with 19652 atoms

Performance: 2.393 ns/day, 10.031 hours/ns, 27.693 timesteps/s
99.9% CPU use with 6 MPI tasks x no OpenMP threads

MPI task timing breakdown:
Section |  min time  |  avg time  |  max time  |%varavg| %total
---------------------------------------------------------------
Pair    | 9.5545     | 9.799      | 10.116     |   6.4 | 54.82
Neigh   | 6.7573     | 7.1547     | 7.5882     |  14.5 | 40.03
Comm    | 0.39181    | 0.71485    | 1.0804     |  28.1 |  4.00
Output  | 6.1035e-05 | 7.7804e-05 | 0.00012803 |   0.0 |  0.00
Modify  | 0.15162    | 0.16254    | 0.17016    |   1.7 |  0.91
Other   |            | 0.04331    |            |       |  0.24

Nlocal:    3275.33 ave 3290 max 3268 min
Histogram: 1 3 0 0 0 1 0 0 0 1
Nghost:    7829.33 ave 7860 max 7797 min
Histogram: 1 0 1 0 1 1 0 1 0 1
Neighs:    290142 ave 290604 max 289355 min
Histogram: 1 0 0 0 1 0 0 2 1 1

Total # of neighbors = 1740849
Ave neighs/atom = 88.5838
Neighbor list builds = 495
Dangerous builds not checked
Setting up Verlet run ...
  Unit style    : metal
  Current step  : 507164
  Time step     : 0.001
Per MPI rank memory allocation (min/avg/max) = 5.967 | 5.993 | 6.007 Mbytes
Step Temp Press TotEng PotEng Enthalpy 
  507164    2065.6006    745.36491   -55884.664   -61131.478    -55753.05 
  533336    2052.0019   -1216.7294   -55873.436   -61085.708   -56088.719 
  573336    2042.3596   -2248.6014    -55969.89    -61157.67   -56367.619 
Loop time of 2601.28 on 6 procs for 66172 steps with 19652 atoms

Performance: 2.198 ns/day, 10.920 hours/ns, 25.438 timesteps/s
99.1% CPU use with 6 MPI tasks x no OpenMP threads

MPI task timing breakdown:
Section |  min time  |  avg time  |  max time  |%varavg| %total
---------------------------------------------------------------
Pair    | 1430.5     | 1437.4     | 1444.8     |  11.1 | 55.26
Neigh   | 1001.5     | 1010.6     | 1018.4     |  19.3 | 38.85
Comm    | 106.68     | 120.67     | 136.47     |  85.8 |  4.64
Output  | 0.01595    | 0.015985   | 0.016064   |   0.0 |  0.00
Modify  | 26.574     | 26.785     | 26.924     |   2.5 |  1.03
Other   |            | 5.859      |            |       |  0.23

Nlocal:    3275.33 ave 3293 max 3250 min
Histogram: 1 0 0 0 0 1 2 1 0 1
Nghost:    7860.83 ave 7902 max 7816 min
Histogram: 1 0 0 0 1 2 1 0 0 1
Neighs:    289651 ave 291104 max 287843 min
Histogram: 1 1 0 1 0 0 0 0 1 2

Total # of neighbors = 1737908
Ave neighs/atom = 88.4342
Neighbor list builds = 66172
Dangerous builds not checked
Setting up Verlet run ...
  Unit style    : metal
  Current step  : 573336
  Time step     : 0.001
Per MPI rank memory allocation (min/avg/max) = 5.967 | 5.993 | 6.007 Mbytes
Step Temp Press TotEng PotEng Enthalpy 
  573336    2042.3596   -2248.6014    -55969.89    -61157.67   -56367.619 
  573831    2018.0268   -2477.9515   -56087.044   -61213.016   -56524.503 
Loop time of 18.2019 on 6 procs for 495 steps with 19652 atoms

Performance: 2.350 ns/day, 10.214 hours/ns, 27.195 timesteps/s
99.9% CPU use with 6 MPI tasks x no OpenMP threads

MPI task timing breakdown:
Section |  min time  |  avg time  |  max time  |%varavg| %total
---------------------------------------------------------------
Pair    | 9.7112     | 10.16      | 10.589     |   8.1 | 55.82
Neigh   | 4.867      | 6.8425     | 7.6532     |  35.8 | 37.59
Comm    | 0.38764    | 1.003      | 2.5853     |  75.0 |  5.51
Output  | 5.6028e-05 | 7.6334e-05 | 0.00012708 |   0.0 |  0.00
Modify  | 0.12278    | 0.15422    | 0.16983    |   3.9 |  0.85
Other   |            | 0.0421     |            |       |  0.23

Nlocal:    3275.33 ave 3290 max 3268 min
Histogram: 2 1 1 0 1 0 0 0 0 1
Nghost:    7846.5 ave 7881 max 7796 min
Histogram: 1 0 0 0 1 1 1 0 0 2
Neighs:    290236 ave 293537 max 288437 min
Histogram: 2 0 1 2 0 0 0 0 0 1

Total # of neighbors = 1741417
Ave neighs/atom = 88.6127
Neighbor list builds = 495
Dangerous builds not checked
Setting up Verlet run ...
  Unit style    : metal
  Current step  : 573831
  Time step     : 0.001
Per MPI rank memory allocation (min/avg/max) = 5.967 | 5.993 | 6.007 Mbytes
Step Temp Press TotEng PotEng Enthalpy 
  573831    2018.0268   -2477.9515   -56087.044   -61213.016   -56524.503 
  600003    1992.8135   -1607.7976    -56251.96   -61313.887    -56534.73 
  640003    1997.1606   -596.11317   -56173.421   -61246.391   -56278.389 
Loop time of 2582.62 on 6 procs for 66172 steps with 19652 atoms

Performance: 2.214 ns/day, 10.841 hours/ns, 25.622 timesteps/s
99.4% CPU use with 6 MPI tasks x no OpenMP threads

MPI task timing breakdown:
Section |  min time  |  avg time  |  max time  |%varavg| %total
---------------------------------------------------------------
Pair    | 1428.5     | 1434.2     | 1439.9     |  14.0 | 55.53
Neigh   | 989.94     | 995.12     | 1003       |  13.7 | 38.53
Comm    | 116.58     | 121.54     | 132.83     |  52.3 |  4.71
Output  | 0.01464    | 0.014666   | 0.014754   |   0.0 |  0.00
Modify  | 24.682     | 25.876     | 26.627     |  14.4 |  1.00
Other   |            | 5.848      |            |       |  0.23

Nlocal:    3275.33 ave 3297 max 3265 min
Histogram: 2 1 1 0 1 0 0 0 0 1
Nghost:    7891.5 ave 7922 max 7867 min
Histogram: 1 0 0 2 1 1 0 0 0 1
Neighs:    290894 ave 292539 max 288610 min
Histogram: 2 0 0 0 0 1 0 0 0 3

Total # of neighbors = 1745367
Ave neighs/atom = 88.8137
Neighbor list builds = 66172
Dangerous builds not checked
Setting up Verlet run ...
  Unit style    : metal
  Current step  : 640003
  Time step     : 0.001
Per MPI rank memory allocation (min/avg/max) = 5.967 | 5.993 | 6.007 Mbytes
Step Temp Press TotEng PotEng Enthalpy 
  640003    1997.1606   -596.11317   -56173.421   -61246.391   -56278.389 
  640498    1950.4038   -946.39063   -56420.807    -61375.01   -56586.924 
Loop time of 18.9185 on 6 procs for 495 steps with 19652 atoms

Performance: 2.261 ns/day, 10.616 hours/ns, 26.165 timesteps/s
99.0% CPU use with 6 MPI tasks x no OpenMP threads

MPI task timing breakdown:
Section |  min time  |  avg time  |  max time  |%varavg| %total
---------------------------------------------------------------
Pair    | 10.364     | 10.663     | 10.913     |   5.2 | 56.36
Neigh   | 5.6844     | 7.0555     | 7.582      |  24.2 | 37.29
Comm    | 0.45369    | 0.99524    | 2.136      |  55.2 |  5.26
Output  | 5.1022e-05 | 6.4691e-05 | 0.00012112 |   0.0 |  0.00
Modify  | 0.14456    | 0.16126    | 0.1716     |   2.2 |  0.85
Other   |            | 0.04369    |            |       |  0.23

Nlocal:    3275.33 ave 3287 max 3262 min
Histogram: 1 1 0 0 0 0 2 0 1 1
Nghost:    7859.17 ave 7888 max 7797 min
Histogram: 1 0 0 0 0 1 0 1 1 2
Neighs:    291883 ave 295053 max 288162 min
Histogram: 1 0 1 0 1 0 1 0 0 2

Total # of neighbors = 1751296
Ave neighs/atom = 89.1154
Neighbor list builds = 495
Dangerous builds not checked
Setting up Verlet run ...
  Unit style    : metal
  Current step  : 640498
  Time step     : 0.001
Per MPI rank memory allocation (min/avg/max) = 5.967 | 5.993 | 6.007 Mbytes
Step Temp Press TotEng PotEng Enthalpy 
  640498    1950.4038   -946.39063   -56420.807    -61375.01   -56586.924 
  666670    1965.9439   -449.66689   -56466.372   -61460.048   -56545.141 
  706670    1937.5177    348.70384   -56572.527   -61493.998    -56511.55 
Loop time of 2440.11 on 6 procs for 66172 steps with 19652 atoms

Performance: 2.343 ns/day, 10.243 hours/ns, 27.118 timesteps/s
99.6% CPU use with 6 MPI tasks x no OpenMP threads

MPI task timing breakdown:
Section |  min time  |  avg time  |  max time  |%varavg| %total
---------------------------------------------------------------
Pair    | 1347.3     | 1351.6     | 1355.6     |   7.5 | 55.39
Neigh   | 884.45     | 892.28     | 903.92     |  22.7 | 36.57
Comm    | 155.55     | 169.11     | 177.83     |  55.0 |  6.93
Output  | 0.014463   | 0.014479   | 0.014542   |   0.0 |  0.00
Modify  | 21.492     | 21.786     | 22.388     |   6.7 |  0.89
Other   |            | 5.281      |            |       |  0.22

Nlocal:    3275.33 ave 3281 max 3265 min
Histogram: 1 0 0 0 0 1 1 0 1 2
Nghost:    7884.33 ave 7905 max 7870 min
Histogram: 1 2 1 0 0 0 0 0 0 2
Neighs:    292899 ave 295405 max 290671 min
Histogram: 1 1 0 1 0 0 2 0 0 1

Total # of neighbors = 1757396
Ave neighs/atom = 89.4258
Neighbor list builds = 66172
Dangerous builds not checked
Setting up Verlet run ...
  Unit style    : metal
  Current step  : 706670
  Time step     : 0.001
Per MPI rank memory allocation (min/avg/max) = 5.967 | 5.993 | 6.007 Mbytes
Step Temp Press TotEng PotEng Enthalpy 
  706670    1937.5177    348.70384   -56572.527   -61493.998    -56511.55 
  707165    1912.2188   -404.70515    -56697.05    -61554.26   -56767.737 
Loop time of 17.6488 on 6 procs for 495 steps with 19652 atoms

Performance: 2.423 ns/day, 9.904 hours/ns, 28.047 timesteps/s
99.3% CPU use with 6 MPI tasks x no OpenMP threads

MPI task timing breakdown:
Section |  min time  |  avg time  |  max time  |%varavg| %total
---------------------------------------------------------------
Pair    | 9.5062     | 9.6164     | 9.7994     |   3.0 | 54.49
Neigh   | 5.9836     | 6.4312     | 6.915      |  12.9 | 36.44
Comm    | 0.84938    | 1.2127     | 1.4693     |  20.8 |  6.87
Output  | 7.6056e-05 | 9.1354e-05 | 0.00012708 |   0.0 |  0.00
Modify  | 0.15629    | 0.3484     | 0.44575    |  22.5 |  1.97
Other   |            | 0.03998    |            |       |  0.23

Nlocal:    3275.33 ave 3299 max 3262 min
Histogram: 1 1 1 1 1 0 0 0 0 1
Nghost:    7896.67 ave 7932 max 7876 min
Histogram: 2 1 0 0 0 2 0 0 0 1
Neighs:    293193 ave 297379 max 290348 min
Histogram: 3 0 0 0 0 0 2 0 0 1

Total # of neighbors = 1759158
Ave neighs/atom = 89.5155
Neighbor list builds = 495
Dangerous builds not checked
Setting up Verlet run ...
  Unit style    : metal
  Current step  : 707165
  Time step     : 0.001
Per MPI rank memory allocation (min/avg/max) = 5.967 | 5.993 | 6.007 Mbytes
Step Temp Press TotEng PotEng Enthalpy 
  707165    1912.2188   -404.70515    -56697.05    -61554.26   -56767.737 
  733337    1906.1103   -1356.6567   -56806.605   -61648.299   -57043.256 
  773337    1900.7385   -862.36958   -56771.384   -61599.433   -56921.872 
Loop time of 2413.29 on 6 procs for 66172 steps with 19652 atoms

Performance: 2.369 ns/day, 10.131 hours/ns, 27.420 timesteps/s
99.6% CPU use with 6 MPI tasks x no OpenMP threads

MPI task timing breakdown:
Section |  min time  |  avg time  |  max time  |%varavg| %total
---------------------------------------------------------------
Pair    | 1330.9     | 1333.5     | 1341.4     |   9.9 | 55.26
Neigh   | 866.52     | 874.2      | 881.52     |  18.1 | 36.22
Comm    | 163.34     | 178.3      | 188.19     |  58.7 |  7.39
Output  | 0.015248   | 0.015271   | 0.015341   |   0.0 |  0.00
Modify  | 21.159     | 22.054     | 23.562     |  18.5 |  0.91
Other   |            | 5.171      |            |       |  0.21

Nlocal:    3275.33 ave 3299 max 3256 min
Histogram: 2 0 1 0 0 0 1 0 1 1
Nghost:    7895 ave 7915 max 7865 min
Histogram: 1 0 0 0 1 1 0 1 1 1
Neighs:    293523 ave 296750 max 288570 min
Histogram: 1 0 0 0 2 0 0 1 0 2

Total # of neighbors = 1761139
Ave neighs/atom = 89.6163
Neighbor list builds = 66172
Dangerous builds not checked
Setting up Verlet run ...
  Unit style    : metal
  Current step  : 773337
  Time step     : 0.001
Per MPI rank memory allocation (min/avg/max) = 5.967 | 5.993 | 6.007 Mbytes
Step Temp Press TotEng PotEng Enthalpy 
  773337    1900.7385   -862.36958   -56771.384   -61599.433   -56921.872 
  773832    1859.3943    793.11397   -57036.288   -61759.319   -56898.611 
Loop time of 17.4725 on 6 procs for 495 steps with 19652 atoms

Performance: 2.448 ns/day, 9.805 hours/ns, 28.330 timesteps/s
98.9% CPU use with 6 MPI tasks x no OpenMP threads

MPI task timing breakdown:
Section |  min time  |  avg time  |  max time  |%varavg| %total
---------------------------------------------------------------
Pair    | 9.7089     | 9.8002     | 9.8675     |   1.6 | 56.09
Neigh   | 5.8777     | 6.2584     | 6.9482     |  17.4 | 35.82
Comm    | 0.56129    | 1.2356     | 1.5722     |  36.2 |  7.07
Output  | 4.8876e-05 | 6.2386e-05 | 0.00010896 |   0.0 |  0.00
Modify  | 0.13611    | 0.14032    | 0.14694    |   1.1 |  0.80
Other   |            | 0.03791    |            |       |  0.22

Nlocal:    3275.33 ave 3291 max 3253 min
Histogram: 1 0 1 0 0 0 1 1 1 1
Nghost:    7926.17 ave 7960 max 7885 min
Histogram: 2 0 0 0 0 1 0 1 0 2
Neighs:    294974 ave 297954 max 290721 min
Histogram: 1 0 0 1 0 1 0 0 2 1

Total # of neighbors = 1769841
Ave neighs/atom = 90.0591
Neighbor list builds = 495
Dangerous builds not checked
Setting up Verlet run ...
  Unit style    : metal
  Current step  : 773832
  Time step     : 0.001
Per MPI rank memory allocation (min/avg/max) = 5.967 | 5.993 | 6.007 Mbytes
Step Temp Press TotEng PotEng Enthalpy 
  773832    1859.3943    793.11397   -57036.288   -61759.319   -56898.611 
  800004    1871.4325    2031.4003   -57054.226   -61807.835   -56702.534 
  840004    1845.8105   -2273.5324   -57084.691   -61773.218    -57480.16 
Loop time of 2374.94 on 6 procs for 66172 steps with 19652 atoms

Performance: 2.407 ns/day, 9.970 hours/ns, 27.863 timesteps/s
99.6% CPU use with 6 MPI tasks x no OpenMP threads

MPI task timing breakdown:
Section |  min time  |  avg time  |  max time  |%varavg| %total
---------------------------------------------------------------
Pair    | 1318.5     | 1324.4     | 1327.8     |   8.6 | 55.77
Neigh   | 815.11     | 830.03     | 849.33     |  37.2 | 34.95
Comm    | 173.07     | 196.1      | 213.32     |  92.9 |  8.26
Output  | 0.01458    | 0.014598   | 0.014659   |   0.0 |  0.00
Modify  | 18.84      | 19.449     | 19.773     |   8.4 |  0.82
Other   |            | 4.933      |            |       |  0.21

Nlocal:    3275.33 ave 3299 max 3249 min
Histogram: 1 0 0 0 2 0 2 0 0 1
Nghost:    7901.17 ave 7948 max 7856 min
Histogram: 1 1 0 0 1 1 0 1 0 1
Neighs:    294369 ave 297257 max 289491 min
Histogram: 1 0 0 0 1 1 0 0 1 2

Total # of neighbors = 1766213
Ave neighs/atom = 89.8745
Neighbor list builds = 66172
Dangerous builds not checked
Setting up Verlet run ...
  Unit style    : metal
  Current step  : 840004
  Time step     : 0.001
Per MPI rank memory allocation (min/avg/max) = 5.967 | 5.993 | 6.007 Mbytes
Step Temp Press TotEng PotEng Enthalpy 
  840004    1845.8105   -2273.5324   -57084.691   -61773.218    -57480.16 
  840499    1799.2248   -837.99295   -57302.808   -61873.002   -57447.935 
Loop time of 17.4559 on 6 procs for 495 steps with 19652 atoms

Performance: 2.450 ns/day, 9.796 hours/ns, 28.357 timesteps/s
99.9% CPU use with 6 MPI tasks x no OpenMP threads

MPI task timing breakdown:
Section |  min time  |  avg time  |  max time  |%varavg| %total
---------------------------------------------------------------
Pair    | 9.5625     | 9.7569     | 9.8741     |   3.8 | 55.89
Neigh   | 5.6105     | 6.1137     | 7.1964     |  25.4 | 35.02
Comm    | 0.49891    | 1.4039     | 1.8311     |  44.0 |  8.04
Output  | 5.1022e-05 | 5.9803e-05 | 9.0837e-05 |   0.0 |  0.00
Modify  | 0.13675    | 0.14325    | 0.15523    |   1.9 |  0.82
Other   |            | 0.03799    |            |       |  0.22

Nlocal:    3275.33 ave 3291 max 3257 min
Histogram: 1 1 0 0 0 1 0 1 1 1
Nghost:    7917.83 ave 7932 max 7894 min
Histogram: 1 0 0 0 0 2 0 1 0 2
Neighs:    295589 ave 298067 max 291881 min
Histogram: 2 0 0 0 0 0 1 0 1 2

Total # of neighbors = 1773535
Ave neighs/atom = 90.247
Neighbor list builds = 495
Dangerous builds not checked
Setting up Verlet run ...
  Unit style    : metal
  Current step  : 840499
  Time step     : 0.001
Per MPI rank memory allocation (min/avg/max) = 5.967 | 5.993 | 6.007 Mbytes
Step Temp Press TotEng PotEng Enthalpy 
  840499    1799.2248   -837.99295   -57302.808   -61873.002   -57447.935 
  866671    1794.6895   -319.20927   -57363.687   -61922.361   -57418.895 
  906671    1799.8259   -1040.5627   -57377.642   -61949.364   -57557.508 
Loop time of 2299.6 on 6 procs for 66172 steps with 19652 atoms

Performance: 2.486 ns/day, 9.653 hours/ns, 28.775 timesteps/s
99.7% CPU use with 6 MPI tasks x no OpenMP threads

MPI task timing breakdown:
Section |  min time  |  avg time  |  max time  |%varavg| %total
---------------------------------------------------------------
Pair    | 1273.7     | 1276.6     | 1278.9     |   5.5 | 55.51
Neigh   | 799.59     | 807.8      | 816.83     |  20.8 | 35.13
Comm    | 181.29     | 190.93     | 197.15     |  43.3 |  8.30
Output  | 0.010063   | 0.01008    | 0.010144   |   0.0 |  0.00
Modify  | 19.047     | 19.403     | 19.682     |   5.7 |  0.84
Other   |            | 4.862      |            |       |  0.21

Nlocal:    3275.33 ave 3296 max 3252 min
Histogram: 1 0 0 0 2 1 0 1 0 1
Nghost:    7929.33 ave 7950 max 7861 min
Histogram: 1 0 0 0 0 0 0 0 3 2
Neighs:    296204 ave 298153 max 294704 min
Histogram: 2 1 0 0 0 0 1 0 1 1

Total # of neighbors = 1777222
Ave neighs/atom = 90.4347
Neighbor list builds = 66172
Dangerous builds not checked
Setting up Verlet run ...
  Unit style    : metal
  Current step  : 906671
  Time step     : 0.001
Per MPI rank memory allocation (min/avg/max) = 5.967 | 5.993 | 6.007 Mbytes
Step Temp Press TotEng PotEng Enthalpy 
  906671    1799.8259   -1040.5627   -57377.642   -61949.364   -57557.508 
  907166    1768.4565   -384.06255   -57611.639   -62103.679   -57677.761 
Loop time of 16.4174 on 6 procs for 495 steps with 19652 atoms

Performance: 2.605 ns/day, 9.213 hours/ns, 30.151 timesteps/s
99.9% CPU use with 6 MPI tasks x no OpenMP threads

MPI task timing breakdown:
Section |  min time  |  avg time  |  max time  |%varavg| %total
---------------------------------------------------------------
Pair    | 8.9805     | 9.1802     | 9.2811     |   3.8 | 55.92
Neigh   | 5.2611     | 5.7136     | 6.6073     |  22.8 | 34.80
Comm    | 0.64251    | 1.3555     | 1.716      |  37.9 |  8.26
Output  | 4.6968e-05 | 5.583e-05  | 8.3923e-05 |   0.0 |  0.00
Modify  | 0.12629    | 0.13319    | 0.14727    |   2.2 |  0.81
Other   |            | 0.03476    |            |       |  0.21

Nlocal:    3275.33 ave 3287 max 3269 min
Histogram: 2 0 1 1 0 1 0 0 0 1
Nghost:    7944.17 ave 7997 max 7911 min
Histogram: 1 2 0 0 1 1 0 0 0 1
Neighs:    297366 ave 300044 max 295400 min
Histogram: 1 1 0 2 0 0 0 1 0 1

Total # of neighbors = 1784198
Ave neighs/atom = 90.7896
Neighbor list builds = 495
Dangerous builds not checked
Setting up Verlet run ...
  Unit style    : metal
  Current step  : 907166
  Time step     : 0.001
Per MPI rank memory allocation (min/avg/max) = 5.967 | 5.993 | 6.007 Mbytes
Step Temp Press TotEng PotEng Enthalpy 
  907166    1768.4565   -384.06255   -57611.639   -62103.679   -57677.761 
  933338    1742.9779    920.91987   -57735.323   -62162.646   -57577.284 
  973338     1758.219   -76.901516   -57687.618   -62153.655   -57700.833 
Loop time of 2266.07 on 6 procs for 66172 steps with 19652 atoms

Performance: 2.523 ns/day, 9.513 hours/ns, 29.201 timesteps/s
99.5% CPU use with 6 MPI tasks x no OpenMP threads

MPI task timing breakdown:
Section |  min time  |  avg time  |  max time  |%varavg| %total
---------------------------------------------------------------
Pair    | 1262.3     | 1264.1     | 1269.7     |   7.2 | 55.78
Neigh   | 780        | 785.99     | 795.51     |  17.9 | 34.69
Comm    | 175.12     | 190.74     | 198.24     |  54.3 |  8.42
Output  | 0.014285   | 0.014322   | 0.014428   |   0.0 |  0.00
Modify  | 20.064     | 20.604     | 21.048     |   8.0 |  0.91
Other   |            | 4.657      |            |       |  0.21

Nlocal:    3275.33 ave 3293 max 3251 min
Histogram: 1 0 0 1 0 1 0 1 1 1
Nghost:    7947.17 ave 7960 max 7935 min
Histogram: 1 0 2 0 0 1 0 0 0 2
Neighs:    297806 ave 300883 max 295745 min
Histogram: 1 3 0 0 0 0 0 0 0 2

Total # of neighbors = 1786836
Ave neighs/atom = 90.9239
Neighbor list builds = 66172
Dangerous builds not checked
Setting up Verlet run ...
  Unit style    : metal
  Current step  : 973338
  Time step     : 0.001
Per MPI rank memory allocation (min/avg/max) = 5.967 | 5.993 | 6.007 Mbytes
Step Temp Press TotEng PotEng Enthalpy 
  973338     1758.219   -76.901516   -57687.618   -62153.655   -57700.833 
  973833    1716.0907    740.06064   -57896.784   -62255.811   -57769.996 
Loop time of 16.6761 on 6 procs for 495 steps with 19652 atoms

Performance: 2.565 ns/day, 9.358 hours/ns, 29.683 timesteps/s
99.9% CPU use with 6 MPI tasks x no OpenMP threads

MPI task timing breakdown:
Section |  min time  |  avg time  |  max time  |%varavg| %total
---------------------------------------------------------------
Pair    | 9.0516     | 9.3177     | 9.4539     |   4.4 | 55.87
Neigh   | 5.3586     | 5.7998     | 6.9445     |  23.8 | 34.78
Comm    | 0.48768    | 1.388      | 1.8182     |  39.0 |  8.32
Output  | 5.6982e-05 | 6.6519e-05 | 9.8944e-05 |   0.0 |  0.00
Modify  | 0.12759    | 0.13521    | 0.15067    |   2.1 |  0.81
Other   |            | 0.03535    |            |       |  0.21

Nlocal:    3275.33 ave 3296 max 3259 min
Histogram: 1 0 1 1 0 2 0 0 0 1
Nghost:    7959.83 ave 7984 max 7929 min
Histogram: 1 1 0 0 1 0 0 1 0 2
Neighs:    298736 ave 299962 max 296092 min
Histogram: 1 0 0 0 1 0 1 0 0 3

Total # of neighbors = 1792414
Ave neighs/atom = 91.2077
Neighbor list builds = 495
Dangerous builds not checked
Setting up Verlet run ...
  Unit style    : metal
  Current step  : 973833
  Time step     : 0.001
Per MPI rank memory allocation (min/avg/max) = 5.967 | 5.993 | 6.007 Mbytes
Step Temp Press TotEng PotEng Enthalpy 
  973833    1716.0907    740.06064   -57896.784   -62255.811   -57769.996 
 1000005    1705.1913   -613.18608   -58008.041   -62339.382   -58112.972 
 1040005    1690.2059   -761.18911   -58026.903   -62320.179   -58157.226 
Loop time of 2288.29 on 6 procs for 66172 steps with 19652 atoms

Performance: 2.498 ns/day, 9.606 hours/ns, 28.918 timesteps/s
99.7% CPU use with 6 MPI tasks x no OpenMP threads

MPI task timing breakdown:
Section |  min time  |  avg time  |  max time  |%varavg| %total
---------------------------------------------------------------
Pair    | 1270       | 1272.8     | 1277.4     |   7.0 | 55.62
Neigh   | 800.73     | 810.76     | 818.03     |  23.5 | 35.43
Comm    | 173.6      | 180.91     | 192.01     |  45.0 |  7.91
Output  | 0.014947   | 0.014962   | 0.015022   |   0.0 |  0.00
Modify  | 18.807     | 18.968     | 19.187     |   3.5 |  0.83
Other   |            | 4.801      |            |       |  0.21

Nlocal:    3275.33 ave 3287 max 3267 min
Histogram: 1 0 1 1 1 1 0 0 0 1
Nghost:    7969.17 ave 7988 max 7923 min
Histogram: 1 0 0 0 0 1 0 0 1 3
Neighs:    298922 ave 302363 max 296375 min
Histogram: 1 0 2 0 0 2 0 0 0 1

Total # of neighbors = 1793533
Ave neighs/atom = 91.2647
Neighbor list builds = 66172
Dangerous builds not checked
Setting up Verlet run ...
  Unit style    : metal
  Current step  : 1040005
  Time step     : 0.001
Per MPI rank memory allocation (min/avg/max) = 5.967 | 5.993 | 6.007 Mbytes
Step Temp Press TotEng PotEng Enthalpy 
 1040005    1690.2059   -761.18911   -58026.903   -62320.179   -58157.226 
 1040500    1658.9233    357.48813   -58232.999   -62446.815   -58172.067 
Loop time of 17.6555 on 6 procs for 495 steps with 19652 atoms

Performance: 2.422 ns/day, 9.908 hours/ns, 28.037 timesteps/s
97.8% CPU use with 6 MPI tasks x no OpenMP threads

MPI task timing breakdown:
Section |  min time  |  avg time  |  max time  |%varavg| %total
---------------------------------------------------------------
Pair    | 9.9097     | 10.006     | 10.054     |   1.5 | 56.67
Neigh   | 6.1536     | 6.2879     | 6.5049     |   5.0 | 35.61
Comm    | 1.056      | 1.181      | 1.2695     |   8.0 |  6.69
Output  | 4.6968e-05 | 5.6307e-05 | 8.4877e-05 |   0.0 |  0.00
Modify  | 0.14043    | 0.14239    | 0.14558    |   0.5 |  0.81
Other   |            | 0.03839    |            |       |  0.22

Nlocal:    3275.33 ave 3289 max 3262 min
Histogram: 1 1 0 0 0 1 1 1 0 1
Nghost:    7972.67 ave 7993 max 7950 min
Histogram: 1 0 1 1 0 0 0 1 1 1
Neighs:    300149 ave 303605 max 296792 min
Histogram: 2 0 0 0 0 1 1 1 0 1

Total # of neighbors = 1800896
Ave neighs/atom = 91.6393
Neighbor list builds = 495
Dangerous builds not checked
Setting up Verlet run ...
  Unit style    : metal
  Current step  : 1040500
  Time step     : 0.001
Per MPI rank memory allocation (min/avg/max) = 5.967 | 5.993 | 6.007 Mbytes
Step Temp Press TotEng PotEng Enthalpy 
 1040500    1658.9233    357.48813   -58232.999   -62446.815   -58172.067 
 1066672    1660.8241    860.69812   -58297.609   -62516.253   -58151.169 
 1106672    1651.6641   -859.34334   -58297.318   -62492.696    -58443.82 
Loop time of 2475.67 on 6 procs for 66172 steps with 19652 atoms

Performance: 2.309 ns/day, 10.392 hours/ns, 26.729 timesteps/s
99.8% CPU use with 6 MPI tasks x no OpenMP threads

MPI task timing breakdown:
Section |  min time  |  avg time  |  max time  |%varavg| %total
---------------------------------------------------------------
Pair    | 1374       | 1378.7     | 1381.6     |   8.0 | 55.69
Neigh   | 926.84     | 934.99     | 942.87     |  19.2 | 37.77
Comm    | 126.55     | 136        | 147.11     |  59.9 |  5.49
Output  | 0.014883   | 0.014903   | 0.014989   |   0.0 |  0.00
Modify  | 20.266     | 20.402     | 20.486     |   1.6 |  0.82
Other   |            | 5.552      |            |       |  0.22

Nlocal:    3275.33 ave 3287 max 3264 min
Histogram: 1 1 1 0 0 1 0 0 0 2
Nghost:    7953.83 ave 7969 max 7927 min
Histogram: 1 0 0 0 0 1 1 1 0 2
Neighs:    300168 ave 302077 max 299169 min
Histogram: 2 1 0 1 0 1 0 0 0 1

Total # of neighbors = 1801005
Ave neighs/atom = 91.6449
Neighbor list builds = 66172
Dangerous builds not checked
Setting up Verlet run ...
  Unit style    : metal
  Current step  : 1106672
  Time step     : 0.001
Per MPI rank memory allocation (min/avg/max) = 5.967 | 5.993 | 6.007 Mbytes
Step Temp Press TotEng PotEng Enthalpy 
 1106672    1651.6641   -859.34334   -58297.318   -62492.696    -58443.82 
 1107167     1604.464    361.94085   -58569.188   -62644.673   -58507.787 
Loop time of 17.603 on 6 procs for 495 steps with 19652 atoms

Performance: 2.430 ns/day, 9.878 hours/ns, 28.120 timesteps/s
99.9% CPU use with 6 MPI tasks x no OpenMP threads

MPI task timing breakdown:
Section |  min time  |  avg time  |  max time  |%varavg| %total
---------------------------------------------------------------
Pair    | 9.7048     | 9.7888     | 9.8553     |   1.5 | 55.61
Neigh   | 6.671      | 6.8049     | 6.9497     |   3.5 | 38.66
Comm    | 0.69408    | 0.81813    | 0.9176     |   8.8 |  4.65
Output  | 5.3883e-05 | 6.2068e-05 | 9.2983e-05 |   0.0 |  0.00
Modify  | 0.14539    | 0.14887    | 0.15283    |   0.6 |  0.85
Other   |            | 0.04213    |            |       |  0.24

Nlocal:    3275.33 ave 3308 max 3249 min
Histogram: 1 0 2 1 0 0 0 0 1 1
Nghost:    7981.17 ave 8008 max 7942 min
Histogram: 1 0 0 0 0 0 4 0 0 1
Neighs:    301634 ave 304775 max 299318 min
Histogram: 2 0 2 0 0 0 0 0 0 2

Total # of neighbors = 1809806
Ave neighs/atom = 92.0927
Neighbor list builds = 495
Dangerous builds not checked
Setting up Verlet run ...
  Unit style    : metal
  Current step  : 1107167
  Time step     : 0.001
Per MPI rank memory allocation (min/avg/max) = 5.967 | 5.993 | 6.007 Mbytes
Step Temp Press TotEng PotEng Enthalpy 
 1107167     1604.464    361.94085   -58569.188   -62644.673   -58507.787 
 1133339    1586.5725   -401.46288   -58683.439   -62713.477   -58751.468 
 1173339    1610.9881    16.581806   -58634.537   -62726.594   -58631.729 
Loop time of 2490.44 on 6 procs for 66172 steps with 19652 atoms

Performance: 2.296 ns/day, 10.454 hours/ns, 26.570 timesteps/s
99.8% CPU use with 6 MPI tasks x no OpenMP threads

MPI task timing breakdown:
Section |  min time  |  avg time  |  max time  |%varavg| %total
---------------------------------------------------------------
Pair    | 1387.6     | 1391.7     | 1393.9     |   5.8 | 55.88
Neigh   | 935.45     | 943.82     | 952.16     |  18.7 | 37.90
Comm    | 118.74     | 128.24     | 140.62     |  59.3 |  5.15
Output  | 0.015701   | 0.015724   | 0.015835   |   0.0 |  0.00
Modify  | 21.011     | 21.097     | 21.15      |   1.0 |  0.85
Other   |            | 5.606      |            |       |  0.23

Nlocal:    3275.33 ave 3289 max 3253 min
Histogram: 1 0 0 0 0 2 0 1 1 1
Nghost:    7981 ave 8002 max 7951 min
Histogram: 1 0 0 1 0 0 1 2 0 1
Neighs:    302011 ave 304571 max 298224 min
Histogram: 1 0 0 0 0 2 0 2 0 1

Total # of neighbors = 1812067
Ave neighs/atom = 92.2078
Neighbor list builds = 66172
Dangerous builds not checked
Setting up Verlet run ...
  Unit style    : metal
  Current step  : 1173339
  Time step     : 0.001
Per MPI rank memory allocation (min/avg/max) = 5.967 | 5.993 | 6.007 Mbytes
Step Temp Press TotEng PotEng Enthalpy 
 1173339    1610.9881    16.581806   -58634.537   -62726.594   -58631.729 
 1173834    1569.4292    201.51806    -58868.29   -62854.783   -58834.292 
Loop time of 18.2044 on 6 procs for 495 steps with 19652 atoms

Performance: 2.349 ns/day, 10.216 hours/ns, 27.191 timesteps/s
99.9% CPU use with 6 MPI tasks x no OpenMP threads

MPI task timing breakdown:
Section |  min time  |  avg time  |  max time  |%varavg| %total
---------------------------------------------------------------
Pair    | 10.14      | 10.184     | 10.232     |   0.9 | 55.94
Neigh   | 6.7017     | 6.796      | 6.9958     |   3.9 | 37.33
Comm    | 0.80384    | 1.0307     | 1.1495     |  11.3 |  5.66
Output  | 5.1022e-05 | 6.4691e-05 | 0.00011706 |   0.0 |  0.00
Modify  | 0.14968    | 0.15194    | 0.15448    |   0.5 |  0.83
Other   |            | 0.04168    |            |       |  0.23

Nlocal:    3275.33 ave 3289 max 3263 min
Histogram: 1 1 0 1 0 1 0 1 0 1
Nghost:    8008.5 ave 8048 max 7969 min
Histogram: 1 0 1 1 0 0 2 0 0 1
Neighs:    303197 ave 306408 max 300580 min
Histogram: 2 0 0 1 0 1 0 0 1 1

Total # of neighbors = 1819181
Ave neighs/atom = 92.5698
Neighbor list builds = 495
Dangerous builds not checked
Setting up Verlet run ...
  Unit style    : metal
  Current step  : 1173834
  Time step     : 0.001
Per MPI rank memory allocation (min/avg/max) = 5.967 | 5.993 | 6.007 Mbytes
Step Temp Press TotEng PotEng Enthalpy 
 1173834    1569.4292    201.51806    -58868.29   -62854.783   -58834.292 
 1200006    1543.6122    1307.9769   -58990.508   -62911.424   -58770.324 
 1240006     1558.277    946.78251   -58952.056   -62910.222   -58792.641 
Loop time of 2514.99 on 6 procs for 66172 steps with 19652 atoms

Performance: 2.273 ns/day, 10.557 hours/ns, 26.311 timesteps/s
99.6% CPU use with 6 MPI tasks x no OpenMP threads

MPI task timing breakdown:
Section |  min time  |  avg time  |  max time  |%varavg| %total
---------------------------------------------------------------
Pair    | 1402.2     | 1407       | 1412.9     |  10.0 | 55.95
Neigh   | 944.32     | 950.99     | 959.62     |  16.2 | 37.81
Comm    | 113.68     | 128.27     | 136.52     |  64.3 |  5.10
Output  | 0.015878   | 0.015897   | 0.01598    |   0.0 |  0.00
Modify  | 22.649     | 22.899     | 23.19      |   4.0 |  0.91
Other   |            | 5.789      |            |       |  0.23

Nlocal:    3275.33 ave 3289 max 3256 min
Histogram: 1 0 1 0 0 0 1 0 2 1
Nghost:    8024.5 ave 8061 max 7993 min
Histogram: 1 0 0 2 0 2 0 0 0 1
Neighs:    303807 ave 306506 max 301878 min
Histogram: 2 1 0 0 1 0 0 0 1 1

Total # of neighbors = 1822843
Ave neighs/atom = 92.7561
Neighbor list builds = 66172
Dangerous builds not checked
Setting up Verlet run ...
  Unit style    : metal
  Current step  : 1240006
  Time step     : 0.001
Per MPI rank memory allocation (min/avg/max) = 5.967 | 5.993 | 6.007 Mbytes
Step Temp Press TotEng PotEng Enthalpy 
 1240006     1558.277    946.78251   -58952.056   -62910.222   -58792.641 
 1240501    1526.0227    806.36307   -59166.038   -63042.275   -59030.631 
Loop time of 18.2138 on 6 procs for 495 steps with 19652 atoms

Performance: 2.348 ns/day, 10.221 hours/ns, 27.177 timesteps/s
99.6% CPU use with 6 MPI tasks x no OpenMP threads

MPI task timing breakdown:
Section |  min time  |  avg time  |  max time  |%varavg| %total
---------------------------------------------------------------
Pair    | 9.9822     | 10.164     | 10.276     |   2.9 | 55.80
Neigh   | 6.8853     | 7.0049     | 7.1808     |   3.8 | 38.46
Comm    | 0.55556    | 0.84378    | 0.98372    |  15.8 |  4.63
Output  | 6.3896e-05 | 7.7009e-05 | 0.00013709 |   0.0 |  0.00
Modify  | 0.15428    | 0.157      | 0.15905    |   0.4 |  0.86
Other   |            | 0.04405    |            |       |  0.24

Nlocal:    3275.33 ave 3295 max 3264 min
Histogram: 1 2 0 1 0 1 0 0 0 1
Nghost:    8036 ave 8065 max 7987 min
Histogram: 1 0 0 0 0 1 2 0 1 1
Neighs:    304526 ave 307271 max 302095 min
Histogram: 1 1 0 0 1 1 1 0 0 1

Total # of neighbors = 1827159
Ave neighs/atom = 92.9757
Neighbor list builds = 495
Dangerous builds not checked
Setting up Verlet run ...
  Unit style    : metal
  Current step  : 1240501
  Time step     : 0.001
Per MPI rank memory allocation (min/avg/max) = 5.967 | 5.993 | 6.007 Mbytes
Step Temp Press TotEng PotEng Enthalpy 
 1240501    1526.0227    806.36307   -59166.038   -63042.275   -59030.631 
 1266673    1511.3724   -1722.6423   -59282.403   -63121.426   -59571.766 
 1306673    1499.3692    302.21723   -59319.391   -63127.926   -59268.737 
Loop time of 2443.62 on 6 procs for 66172 steps with 19652 atoms

Performance: 2.340 ns/day, 10.258 hours/ns, 27.080 timesteps/s
99.7% CPU use with 6 MPI tasks x no OpenMP threads

MPI task timing breakdown:
Section |  min time  |  avg time  |  max time  |%varavg| %total
---------------------------------------------------------------
Pair    | 1364       | 1367.1     | 1370.2     |   6.5 | 55.95
Neigh   | 872.3      | 886.69     | 897.86     |  28.7 | 36.29
Comm    | 155.7      | 163.77     | 175.33     |  51.6 |  6.70
Output  | 0.015645   | 0.015665   | 0.015747   |   0.0 |  0.00
Modify  | 20.254     | 20.484     | 20.642     |   2.9 |  0.84
Other   |            | 5.514      |            |       |  0.23

Nlocal:    3275.33 ave 3297 max 3255 min
Histogram: 2 0 0 0 1 1 0 1 0 1
Nghost:    8028.5 ave 8048 max 7998 min
Histogram: 1 0 1 0 0 0 1 0 1 2
Neighs:    305073 ave 309490 max 301203 min
Histogram: 1 1 0 1 0 0 2 0 0 1

Total # of neighbors = 1830438
Ave neighs/atom = 93.1426
Neighbor list builds = 66172
Dangerous builds not checked
Setting up Verlet run ...
  Unit style    : metal
  Current step  : 1306673
  Time step     : 0.001
Per MPI rank memory allocation (min/avg/max) = 5.967 | 5.993 | 6.007 Mbytes
Step Temp Press TotEng PotEng Enthalpy 
 1306673    1499.3692    302.21723   -59319.391   -63127.926   -59268.737 
 1307168    1473.7846    471.97934   -59510.709   -63254.257   -59431.835 
Loop time of 17.159 on 6 procs for 495 steps with 19652 atoms

Performance: 2.492 ns/day, 9.629 hours/ns, 28.848 timesteps/s
98.0% CPU use with 6 MPI tasks x no OpenMP threads

MPI task timing breakdown:
Section |  min time  |  avg time  |  max time  |%varavg| %total
---------------------------------------------------------------
Pair    | 9.2632     | 9.3277     | 9.4205     |   1.7 | 54.36
Neigh   | 5.8357     | 6.0439     | 6.2258     |   6.2 | 35.22
Comm    | 1.4461     | 1.6117     | 1.7661     |   9.7 |  9.39
Output  | 5.4836e-05 | 6.93e-05   | 0.00011897 |   0.0 |  0.00
Modify  | 0.13514    | 0.13791    | 0.14091    |   0.6 |  0.80
Other   |            | 0.03765    |            |       |  0.22

Nlocal:    3275.33 ave 3292 max 3252 min
Histogram: 1 0 0 0 1 1 1 0 1 1
Nghost:    8027.17 ave 8062 max 8001 min
Histogram: 1 0 1 1 1 1 0 0 0 1
Neighs:    305900 ave 309141 max 301198 min
Histogram: 1 0 0 0 0 2 1 0 1 1

Total # of neighbors = 1835401
Ave neighs/atom = 93.3951
Neighbor list builds = 495
Dangerous builds not checked
Setting up Verlet run ...
  Unit style    : metal
  Current step  : 1307168
  Time step     : 0.001
Per MPI rank memory allocation (min/avg/max) = 5.967 | 5.993 | 6.007 Mbytes
Step Temp Press TotEng PotEng Enthalpy 
 1307168    1473.7846    471.97934   -59510.709   -63254.257   -59431.835 
 1333340    1454.6909   -413.81754   -59629.457   -63324.505   -59698.541 
 1373340    1453.5878    547.32134   -59600.273   -63292.518   -59508.923 
Loop time of 2434.61 on 6 procs for 66172 steps with 19652 atoms

Performance: 2.348 ns/day, 10.220 hours/ns, 27.180 timesteps/s
99.8% CPU use with 6 MPI tasks x no OpenMP threads

MPI task timing breakdown:
Section |  min time  |  avg time  |  max time  |%varavg| %total
---------------------------------------------------------------
Pair    | 1355.3     | 1358       | 1360.9     |   6.1 | 55.78
Neigh   | 885.06     | 894.68     | 904.42     |  21.2 | 36.75
Comm    | 147.71     | 155.85     | 164.37     |  49.7 |  6.40
Output  | 0.015693   | 0.015734   | 0.015925   |   0.1 |  0.00
Modify  | 20.492     | 20.705     | 20.939     |   3.7 |  0.85
Other   |            | 5.399      |            |       |  0.22

Nlocal:    3275.33 ave 3283 max 3270 min
Histogram: 3 0 0 0 0 0 1 1 0 1
Nghost:    8056.33 ave 8073 max 8041 min
Histogram: 2 0 0 0 1 1 0 0 1 1
Neighs:    306409 ave 309136 max 304692 min
Histogram: 2 1 0 0 0 2 0 0 0 1

Total # of neighbors = 1838453
Ave neighs/atom = 93.5504
Neighbor list builds = 66172
Dangerous builds not checked
Setting up Verlet run ...
  Unit style    : metal
  Current step  : 1373340
  Time step     : 0.001
Per MPI rank memory allocation (min/avg/max) = 5.967 | 5.993 | 6.007 Mbytes
Step Temp Press TotEng PotEng Enthalpy 
 1373340    1453.5878    547.32134   -59600.273   -63292.518   -59508.923 
 1373835     1428.065    -1371.523    -59808.64   -63436.055   -60037.216 
Loop time of 17.7137 on 6 procs for 495 steps with 19652 atoms

Performance: 2.414 ns/day, 9.940 hours/ns, 27.944 timesteps/s
99.9% CPU use with 6 MPI tasks x no OpenMP threads

MPI task timing breakdown:
Section |  min time  |  avg time  |  max time  |%varavg| %total
---------------------------------------------------------------
Pair    | 9.7909     | 9.8801     | 10.017     |   2.8 | 55.78
Neigh   | 6.3879     | 6.7171     | 6.9282     |   7.5 | 37.92
Comm    | 0.73948    | 0.92278    | 1.1614     |  14.7 |  5.21
Output  | 0.000139   | 0.00015271 | 0.00018311 |   0.0 |  0.00
Modify  | 0.14752    | 0.15168    | 0.15552    |   0.7 |  0.86
Other   |            | 0.04192    |            |       |  0.24

Nlocal:    3275.33 ave 3290 max 3258 min
Histogram: 1 0 0 0 1 1 2 0 0 1
Nghost:    8046.83 ave 8074 max 8028 min
Histogram: 2 1 0 0 1 0 0 0 1 1
Neighs:    306766 ave 309760 max 303571 min
Histogram: 1 0 1 1 0 0 0 2 0 1

Total # of neighbors = 1840596
Ave neighs/atom = 93.6595
Neighbor list builds = 495
Dangerous builds not checked
Setting up Verlet run ...
  Unit style    : metal
  Current step  : 1373835
  Time step     : 0.001
Per MPI rank memory allocation (min/avg/max) = 5.967 | 5.993 | 6.007 Mbytes
Step Temp Press TotEng PotEng Enthalpy 
 1373835     1428.065    -1371.523    -59808.64   -63436.055   -60037.216 
 1400007      1409.76    376.80351   -59951.873   -63532.792   -59889.325 
 1440007    1394.7222    572.70897   -59969.344   -63512.066   -59874.278 
Loop time of 2460.73 on 6 procs for 66172 steps with 19652 atoms

Performance: 2.323 ns/day, 10.330 hours/ns, 26.891 timesteps/s
99.7% CPU use with 6 MPI tasks x no OpenMP threads

MPI task timing breakdown:
Section |  min time  |  avg time  |  max time  |%varavg| %total
---------------------------------------------------------------
Pair    | 1369.8     | 1374.2     | 1378.8     |   8.1 | 55.85
Neigh   | 896.33     | 907.97     | 920.24     |  31.2 | 36.90
Comm    | 140.09     | 150.7      | 164.71     |  66.5 |  6.12
Output  | 0.015634   | 0.015662   | 0.015739   |   0.0 |  0.00
Modify  | 22.162     | 22.33      | 22.597     |   3.5 |  0.91
Other   |            | 5.514      |            |       |  0.22

Nlocal:    3275.33 ave 3294 max 3265 min
Histogram: 2 1 0 1 0 0 1 0 0 1
Nghost:    8075.83 ave 8106 max 8018 min
Histogram: 1 0 0 1 0 0 1 0 0 3
Neighs:    307914 ave 310327 max 305291 min
Histogram: 1 0 1 0 1 0 2 0 0 1

Total # of neighbors = 1847487
Ave neighs/atom = 94.0101
Neighbor list builds = 66172
Dangerous builds not checked
Setting up Verlet run ...
  Unit style    : metal
  Current step  : 1440007
  Time step     : 0.001
Per MPI rank memory allocation (min/avg/max) = 5.967 | 5.993 | 6.007 Mbytes
Step Temp Press TotEng PotEng Enthalpy 
 1440007    1394.7222    572.70897   -59969.344   -63512.066   -59874.278 
 1440502    1372.5556   -3.3708966   -60142.523   -63628.939   -60143.082 
Loop time of 17.3648 on 6 procs for 495 steps with 19652 atoms

Performance: 2.463 ns/day, 9.745 hours/ns, 28.506 timesteps/s
99.9% CPU use with 6 MPI tasks x no OpenMP threads

MPI task timing breakdown:
Section |  min time  |  avg time  |  max time  |%varavg| %total
---------------------------------------------------------------
Pair    | 9.5669     | 9.7108     | 9.8035     |   2.8 | 55.92
Neigh   | 5.9159     | 6.3645     | 6.7844     |  12.6 | 36.65
Comm    | 0.79576    | 1.1062     | 1.4713     |  23.0 |  6.37
Output  | 6.5088e-05 | 7.5499e-05 | 0.00011802 |   0.0 |  0.00
Modify  | 0.13754    | 0.14421    | 0.14884    |   1.1 |  0.83
Other   |            | 0.03899    |            |       |  0.22

Nlocal:    3275.33 ave 3289 max 3261 min
Histogram: 1 0 1 1 0 0 1 1 0 1
Nghost:    8094.33 ave 8122 max 8067 min
Histogram: 2 0 0 0 1 0 0 2 0 1
Neighs:    308524 ave 312418 max 305433 min
Histogram: 1 1 1 0 0 1 1 0 0 1

Total # of neighbors = 1851143
Ave neighs/atom = 94.1962
Neighbor list builds = 495
Dangerous builds not checked
Setting up Verlet run ...
  Unit style    : metal
  Current step  : 1440502
  Time step     : 0.001
Per MPI rank memory allocation (min/avg/max) = 5.967 | 5.993 | 6.007 Mbytes
Step Temp Press TotEng PotEng Enthalpy 
 1440502    1372.5556   -3.3708966   -60142.523   -63628.939   -60143.082 
 1466674      1353.31   -773.79409    -60290.14   -63727.671   -60418.094 
 1506674    1357.2266    996.07289   -60257.562   -63705.042   -60093.052 
Loop time of 2411.85 on 6 procs for 66172 steps with 19652 atoms

Performance: 2.370 ns/day, 10.124 hours/ns, 27.436 timesteps/s
99.7% CPU use with 6 MPI tasks x no OpenMP threads

MPI task timing breakdown:
Section |  min time  |  avg time  |  max time  |%varavg| %total
---------------------------------------------------------------
Pair    | 1343       | 1350.5     | 1358.4     |  12.7 | 55.99
Neigh   | 849.99     | 862.78     | 868.79     |  23.3 | 35.77
Comm    | 164.64     | 173.16     | 186.79     |  53.0 |  7.18
Output  | 0.014304   | 0.014327   | 0.014386   |   0.0 |  0.00
Modify  | 20.115     | 20.276     | 20.381     |   2.0 |  0.84
Other   |            | 5.162      |            |       |  0.21

Nlocal:    3275.33 ave 3286 max 3247 min
Histogram: 1 0 0 0 0 0 0 2 1 2
Nghost:    8084.33 ave 8113 max 8037 min
Histogram: 1 0 0 0 1 1 0 0 1 2
Neighs:    309428 ave 312441 max 307584 min
Histogram: 3 0 0 0 1 0 0 1 0 1

Total # of neighbors = 1856565
Ave neighs/atom = 94.4721
Neighbor list builds = 66172
Dangerous builds not checked
Setting up Verlet run ...
  Unit style    : metal
  Current step  : 1506674
  Time step     : 0.001
Per MPI rank memory allocation (min/avg/max) = 5.967 | 5.993 | 6.007 Mbytes
Step Temp Press TotEng PotEng Enthalpy 
 1506674    1357.2266    996.07289   -60257.562   -63705.042   -60093.052 
 1507169     1316.608    562.21748   -60465.497   -63809.801   -60372.838 
Loop time of 17.4318 on 6 procs for 495 steps with 19652 atoms

Performance: 2.453 ns/day, 9.782 hours/ns, 28.396 timesteps/s
99.6% CPU use with 6 MPI tasks x no OpenMP threads

MPI task timing breakdown:
Section |  min time  |  avg time  |  max time  |%varavg| %total
---------------------------------------------------------------
Pair    | 9.8017     | 9.862      | 9.9262     |   1.3 | 56.57
Neigh   | 5.9333     | 6.1615     | 6.5106     |   8.5 | 35.35
Comm    | 0.92928    | 1.2252     | 1.4526     |  17.0 |  7.03
Output  | 6.1035e-05 | 7.0969e-05 | 0.00011492 |   0.0 |  0.00
Modify  | 0.14194    | 0.14442    | 0.14873    |   0.8 |  0.83
Other   |            | 0.03868    |            |       |  0.22

Nlocal:    3275.33 ave 3291 max 3254 min
Histogram: 1 0 1 0 0 1 0 0 2 1
Nghost:    8102 ave 8132 max 8080 min
Histogram: 3 0 0 0 0 1 0 0 1 1
Neighs:    309922 ave 312347 max 306239 min
Histogram: 1 0 0 1 0 0 2 0 0 2

Total # of neighbors = 1859531
Ave neighs/atom = 94.623
Neighbor list builds = 495
Dangerous builds not checked
Setting up Verlet run ...
  Unit style    : metal
  Current step  : 1507169
  Time step     : 0.001
Per MPI rank memory allocation (min/avg/max) = 5.967 | 5.993 | 6.007 Mbytes
Step Temp Press TotEng PotEng Enthalpy 
 1507169     1316.608    562.21748   -60465.497   -63809.801   -60372.838 
 1533341    1306.0782    1291.9058   -60588.433    -63905.99   -60376.201 
 1573341    1296.3365   -573.78351    -60595.11   -63887.923   -60689.607 
Loop time of 2391.49 on 6 procs for 66172 steps with 19652 atoms

Performance: 2.391 ns/day, 10.039 hours/ns, 27.670 timesteps/s
99.8% CPU use with 6 MPI tasks x no OpenMP threads

MPI task timing breakdown:
Section |  min time  |  avg time  |  max time  |%varavg| %total
---------------------------------------------------------------
Pair    | 1338.7     | 1341       | 1346.6     |   7.4 | 56.07
Neigh   | 834.77     | 841.15     | 847.52     |  17.1 | 35.17
Comm    | 180.47     | 184.74     | 192.07     |  37.4 |  7.73
Output  | 0.014816   | 0.014833   | 0.014903   |   0.0 |  0.00
Modify  | 19.417     | 19.494     | 19.59      |   1.5 |  0.82
Other   |            | 5.084      |            |       |  0.21

Nlocal:    3275.33 ave 3306 max 3260 min
Histogram: 2 1 1 0 1 0 0 0 0 1
Nghost:    8106 ave 8131 max 8073 min
Histogram: 1 0 0 1 0 1 0 2 0 1
Neighs:    310075 ave 315256 max 307235 min
Histogram: 1 1 1 2 0 0 0 0 0 1

Total # of neighbors = 1860451
Ave neighs/atom = 94.6698
Neighbor list builds = 66172
Dangerous builds not checked
Setting up Verlet run ...
  Unit style    : metal
  Current step  : 1573341
  Time step     : 0.001
Per MPI rank memory allocation (min/avg/max) = 5.967 | 5.993 | 6.007 Mbytes
Step Temp Press TotEng PotEng Enthalpy 
 1573341    1296.3365   -573.78351    -60595.11   -63887.923   -60689.607 
 1573836    1262.6287   -586.65415    -60807.79   -64014.982   -60904.092 
Loop time of 17.5148 on 6 procs for 495 steps with 19652 atoms

Performance: 2.442 ns/day, 9.829 hours/ns, 28.262 timesteps/s
99.9% CPU use with 6 MPI tasks x no OpenMP threads

MPI task timing breakdown:
Section |  min time  |  avg time  |  max time  |%varavg| %total
---------------------------------------------------------------
Pair    | 9.8478     | 9.8829     | 9.9374     |   1.0 | 56.43
Neigh   | 5.8659     | 6.1365     | 6.4868     |   7.9 | 35.04
Comm    | 0.99669    | 1.3191     | 1.5825     |  15.9 |  7.53
Output  | 5.1975e-05 | 6.0797e-05 | 9.3937e-05 |   0.0 |  0.00
Modify  | 0.13485    | 0.13939    | 0.14424    |   0.8 |  0.80
Other   |            | 0.03684    |            |       |  0.21

Nlocal:    3275.33 ave 3297 max 3250 min
Histogram: 1 0 0 0 2 1 1 0 0 1
Nghost:    8095.67 ave 8110 max 8060 min
Histogram: 1 0 0 0 0 0 1 1 0 3
Neighs:    311128 ave 314774 max 305213 min
Histogram: 1 0 0 0 1 1 0 0 2 1

Total # of neighbors = 1866770
Ave neighs/atom = 94.9913
Neighbor list builds = 495
Dangerous builds not checked
Setting up Verlet run ...
  Unit style    : metal
  Current step  : 1573836
  Time step     : 0.001
Per MPI rank memory allocation (min/avg/max) = 5.967 | 5.993 | 6.007 Mbytes
Step Temp Press TotEng PotEng Enthalpy 
 1573836    1262.6287   -586.65415    -60807.79   -64014.982   -60904.092 
 1600008    1250.2044   -861.79651   -60947.197    -64122.83    -61088.33 
 1640008    1233.0974   -914.49876   -61042.043   -64174.223   -61191.645 
Loop time of 2408.79 on 6 procs for 66172 steps with 19652 atoms

Performance: 2.373 ns/day, 10.112 hours/ns, 27.471 timesteps/s
99.7% CPU use with 6 MPI tasks x no OpenMP threads

MPI task timing breakdown:
Section |  min time  |  avg time  |  max time  |%varavg| %total
---------------------------------------------------------------
Pair    | 1351.7     | 1355.6     | 1363.4     |  10.6 | 56.28
Neigh   | 821.24     | 830.23     | 834.02     |  16.3 | 34.47
Comm    | 192.83     | 198.31     | 207.97     |  34.8 |  8.23
Output  | 0.015186   | 0.015212   | 0.015272   |   0.0 |  0.00
Modify  | 19.352     | 19.588     | 19.791     |   3.7 |  0.81
Other   |            | 5.033      |            |       |  0.21

Nlocal:    3275.33 ave 3287 max 3262 min
Histogram: 1 0 1 0 1 0 1 0 1 1
Nghost:    8132.17 ave 8150 max 8106 min
Histogram: 1 0 1 0 0 1 0 0 2 1
Neighs:    312137 ave 314166 max 308640 min
Histogram: 1 0 0 0 1 0 0 2 1 1

Total # of neighbors = 1872820
Ave neighs/atom = 95.2992
Neighbor list builds = 66172
Dangerous builds not checked
Setting up Verlet run ...
  Unit style    : metal
  Current step  : 1640008
  Time step     : 0.001
Per MPI rank memory allocation (min/avg/max) = 5.967 | 5.993 | 6.007 Mbytes
Step Temp Press TotEng PotEng Enthalpy 
 1640008    1233.0974   -914.49876   -61042.043   -64174.223   -61191.645 
 1640503    1219.4116    603.36127   -61136.428   -64233.845   -61037.993 
Loop time of 17.3869 on 6 procs for 495 steps with 19652 atoms

Performance: 2.460 ns/day, 9.757 hours/ns, 28.470 timesteps/s
99.9% CPU use with 6 MPI tasks x no OpenMP threads

MPI task timing breakdown:
Section |  min time  |  avg time  |  max time  |%varavg| %total
---------------------------------------------------------------
Pair    | 9.7175     | 9.7808     | 9.8267     |   1.1 | 56.25
Neigh   | 5.4466     | 5.9167     | 6.3695     |  12.9 | 34.03
Comm    | 1.1129     | 1.5104     | 1.9435     |  23.6 |  8.69
Output  | 5.6982e-05 | 6.6479e-05 | 9.799e-05  |   0.0 |  0.00
Modify  | 0.13619    | 0.14132    | 0.1468     |   1.0 |  0.81
Other   |            | 0.03763    |            |       |  0.22

Nlocal:    3275.33 ave 3304 max 3250 min
Histogram: 1 1 0 1 0 1 0 1 0 1
Nghost:    8140.5 ave 8177 max 8103 min
Histogram: 1 1 0 0 1 1 0 0 0 2
Neighs:    313015 ave 317641 max 309092 min
Histogram: 2 0 0 0 2 0 0 1 0 1

Total # of neighbors = 1878090
Ave neighs/atom = 95.5674
Neighbor list builds = 495
Dangerous builds not checked
Setting up Verlet run ...
  Unit style    : metal
  Current step  : 1640503
  Time step     : 0.001
Per MPI rank memory allocation (min/avg/max) = 5.967 | 5.993 | 6.007 Mbytes
Step Temp Press TotEng PotEng Enthalpy 
 1640503    1219.4116    603.36127   -61136.428   -64233.845   -61037.993 
 1666675    1197.5591    1461.7132   -61297.644   -64339.553   -61060.016 
 1706675    1194.8209   -446.42499   -61311.748   -64346.702   -61384.468 
Loop time of 2401.38 on 6 procs for 66172 steps with 19652 atoms

Performance: 2.381 ns/day, 10.081 hours/ns, 27.556 timesteps/s
99.8% CPU use with 6 MPI tasks x no OpenMP threads

MPI task timing breakdown:
Section |  min time  |  avg time  |  max time  |%varavg| %total
---------------------------------------------------------------
Pair    | 1345.5     | 1350.7     | 1359.2     |  12.3 | 56.25
Neigh   | 811.86     | 820.72     | 832.85     |  24.8 | 34.18
Comm    | 184.77     | 205.56     | 214.89     |  69.8 |  8.56
Output  | 0.014859   | 0.014875   | 0.014934   |   0.0 |  0.00
Modify  | 19.158     | 19.341     | 19.512     |   3.1 |  0.81
Other   |            | 5.04       |            |       |  0.21

Nlocal:    3275.33 ave 3287 max 3265 min
Histogram: 1 1 1 0 0 0 1 1 0 1
Nghost:    8137.5 ave 8147 max 8123 min
Histogram: 1 0 0 0 1 1 0 1 1 1
Neighs:    313352 ave 316294 max 311110 min
Histogram: 1 1 0 1 1 0 0 1 0 1

Total # of neighbors = 1880110
Ave neighs/atom = 95.6702
Neighbor list builds = 66172
Dangerous builds not checked
Setting up Verlet run ...
  Unit style    : metal
  Current step  : 1706675
  Time step     : 0.001
Per MPI rank memory allocation (min/avg/max) = 5.967 | 5.993 | 6.007 Mbytes
Step Temp Press TotEng PotEng Enthalpy 
 1706675    1194.8209   -446.42499   -61311.748   -64346.702   -61384.468 
 1707170    1158.2562    538.46252   -61495.673   -64437.749   -61408.251 
Loop time of 17.968 on 6 procs for 495 steps with 19652 atoms

Performance: 2.380 ns/day, 10.083 hours/ns, 27.549 timesteps/s
99.5% CPU use with 6 MPI tasks x no OpenMP threads

MPI task timing breakdown:
Section |  min time  |  avg time  |  max time  |%varavg| %total
---------------------------------------------------------------
Pair    | 9.9585     | 10.103     | 10.205     |   2.3 | 56.23
Neigh   | 5.5259     | 6.0956     | 6.7284     |  18.2 | 33.92
Comm    | 1.0007     | 1.5773     | 2.0536     |  31.9 |  8.78
Output  | 6.3896e-05 | 7.2161e-05 | 0.00010204 |   0.0 |  0.00
Modify  | 0.14718    | 0.15231    | 0.16301    |   1.5 |  0.85
Other   |            | 0.03946    |            |       |  0.22

Nlocal:    3275.33 ave 3296 max 3256 min
Histogram: 1 1 1 0 0 1 0 0 0 2
Nghost:    8147 ave 8189 max 8125 min
[...]
Loop time of 19.9745 on 6 procs for 495 steps with 19652 atoms

Performance: 2.141 ns/day, 11.209 hours/ns, 24.782 timesteps/s
99.5% CPU use with 6 MPI tasks x no OpenMP threads

MPI task timing breakdown:
Section |  min time  |  avg time  |  max time  |%varavg| %total
---------------------------------------------------------------
Pair    | 10.792     | 10.992     | 11.218     |   4.0 | 55.03
Neigh   | 7.4396     | 7.7392     | 7.9599     |   6.0 | 38.75
Comm    | 0.72634    | 1.0427     | 1.4091     |  20.8 |  5.22
Output  | 7.3195e-05 | 0.00011023 | 0.00027514 |   0.0 |  0.00
Modify  | 0.14821    | 0.15438    | 0.15874    |   0.9 |  0.77
Other   |            | 0.04632    |            |       |  0.23

Nlocal:    3275.33 ave 3305 max 3257 min
Histogram: 2 0 0 2 0 1 0 0 0 1
Nghost:    8485 ave 8505 max 8467 min
Histogram: 2 1 0 0 0 0 0 1 1 1
Neighs:    339312 ave 346231 max 332215 min
Histogram: 2 0 0 0 1 0 1 0 1 1

Total # of neighbors = 2035870
Ave neighs/atom = 103.596
Neighbor list builds = 495
Dangerous builds not checked
Setting up Verlet run ...
  Unit style    : metal
  Current step  : 2707175
  Time step     : 0.001
Per MPI rank memory allocation (min/avg/max) = 5.967 | 5.995 | 6.008 Mbytes
Step Temp Press TotEng PotEng Enthalpy 
 2707175    418.81404   -702.92679   -66985.101   -68048.927   -67090.592 
 2733347    403.01416    1280.4819   -67087.624   -68111.317   -66895.995 
 2773347    394.01359   -1235.5098   -67116.848   -68117.678    -67302.06 
Loop time of 2731.39 on 6 procs for 66172 steps with 19652 atoms

Performance: 2.093 ns/day, 11.466 hours/ns, 24.226 timesteps/s
99.5% CPU use with 6 MPI tasks x no OpenMP threads

MPI task timing breakdown:
Section |  min time  |  avg time  |  max time  |%varavg| %total
---------------------------------------------------------------
Pair    | 1493.9     | 1511.8     | 1533.1     |  36.6 | 55.35
Neigh   | 1044.8     | 1051.9     | 1059.8     |  18.9 | 38.51
Comm    | 119.1      | 139.64     | 162.88     | 138.9 |  5.11
Output  | 0.015456   | 0.015503   | 0.015715   |   0.1 |  0.00
Modify  | 21.863     | 22.046     | 22.155     |   2.2 |  0.81
Other   |            | 5.96       |            |       |  0.22

Nlocal:    3275.33 ave 3300 max 3249 min
Histogram: 2 0 0 0 1 0 1 0 1 1
Nghost:    8493.83 ave 8527 max 8460 min
Histogram: 1 1 0 0 1 0 0 2 0 1
Neighs:    339797 ave 348526 max 332076 min
Histogram: 2 0 0 0 0 2 1 0 0 1

Total # of neighbors = 2038784
Ave neighs/atom = 103.744
Neighbor list builds = 66172
Dangerous builds not checked
Setting up Verlet run ...
  Unit style    : metal
  Current step  : 2773347
  Time step     : 0.001
Per MPI rank memory allocation (min/avg/max) = 5.967 | 5.995 | 6.008 Mbytes
Step Temp Press TotEng PotEng Enthalpy 
 2773347    394.01359   -1235.5098   -67116.848   -68117.678    -67302.06 
 2773842    371.55151    579.52044   -67254.225   -68197.999   -67167.614 
Loop time of 20.5474 on 6 procs for 495 steps with 19652 atoms

Performance: 2.081 ns/day, 11.531 hours/ns, 24.091 timesteps/s
99.8% CPU use with 6 MPI tasks x no OpenMP threads

MPI task timing breakdown:
Section |  min time  |  avg time  |  max time  |%varavg| %total
---------------------------------------------------------------
Pair    | 11.102     | 11.329     | 11.465     |   3.7 | 55.14
Neigh   | 7.7275     | 7.9239     | 8.137      |   4.5 | 38.56
Comm    | 0.82637    | 1.0393     | 1.2949     |  17.3 |  5.06
Output  | 5.2929e-05 | 8.1023e-05 | 0.00020814 |   0.0 |  0.00
Modify  | 0.20472    | 0.20976    | 0.21253    |   0.5 |  1.02
Other   |            | 0.04505    |            |       |  0.22

Nlocal:    3275.33 ave 3301 max 3236 min
Histogram: 1 0 0 1 0 0 1 1 0 2
Nghost:    8500.67 ave 8544 max 8466 min
Histogram: 1 0 0 2 1 0 1 0 0 1
Neighs:    341017 ave 349641 max 333645 min
Histogram: 1 1 0 0 2 0 0 1 0 1

Total # of neighbors = 2046104
Ave neighs/atom = 104.117
Neighbor list builds = 495
Dangerous builds not checked
Setting up Verlet run ...
  Unit style    : metal
  Current step  : 2773842
  Time step     : 0.001
Per MPI rank memory allocation (min/avg/max) = 5.967 | 5.995 | 6.008 Mbytes
Step Temp Press TotEng PotEng Enthalpy 
 2773842    371.55151    579.52044   -67254.225   -68197.999   -67167.614 
 2800014    350.65004    701.20425   -67376.565   -68267.248   -67271.917 
 2840014    351.93039   -86.579523   -67365.645    -68259.58   -67378.576 
Loop time of 2725 on 6 procs for 66172 steps with 19652 atoms

Performance: 2.098 ns/day, 11.439 hours/ns, 24.283 timesteps/s
99.4% CPU use with 6 MPI tasks x no OpenMP threads

MPI task timing breakdown:
Section |  min time  |  avg time  |  max time  |%varavg| %total
---------------------------------------------------------------
Pair    | 1489.8     | 1508       | 1527.7     |  37.6 | 55.34
Neigh   | 1036.4     | 1044.3     | 1055.8     |  22.1 | 38.32
Comm    | 113.4      | 144.75     | 166.99     | 143.5 |  5.31
Output  | 0.015832   | 0.015855   | 0.015949   |   0.0 |  0.00
Modify  | 21.94      | 22.012     | 22.108     |   1.4 |  0.81
Other   |            | 5.94       |            |       |  0.22

Nlocal:    3275.33 ave 3304 max 3253 min
Histogram: 1 1 0 1 1 0 0 1 0 1
Nghost:    8506.67 ave 8546 max 8472 min
Histogram: 1 0 0 1 1 2 0 0 0 1
Neighs:    341264 ave 348977 max 334423 min
Histogram: 2 0 0 0 1 1 0 1 0 1

Total # of neighbors = 2047584
Ave neighs/atom = 104.192
Neighbor list builds = 66172
Dangerous builds not checked
Setting up Verlet run ...
  Unit style    : metal
  Current step  : 2840014
  Time step     : 0.001
Per MPI rank memory allocation (min/avg/max) = 5.967 | 5.995 | 6.009 Mbytes
Step Temp Press TotEng PotEng Enthalpy 
 2840014    351.93039   -86.579523   -67365.645    -68259.58   -67378.576 
 2840509    323.71872     144.0504   -67516.276   -68338.551   -67494.803 
Loop time of 19.5835 on 6 procs for 495 steps with 19652 atoms

Performance: 2.184 ns/day, 10.990 hours/ns, 25.276 timesteps/s
100.0% CPU use with 6 MPI tasks x no OpenMP threads

MPI task timing breakdown:
Section |  min time  |  avg time  |  max time  |%varavg| %total
---------------------------------------------------------------
Pair    | 10.722     | 10.822     | 10.92      |   2.2 | 55.26
Neigh   | 7.3763     | 7.5306     | 7.8422     |   6.1 | 38.45
Comm    | 0.69446    | 1.0392     | 1.2937     |  20.9 |  5.31
Output  | 5.579e-05  | 7.0731e-05 | 0.00013494 |   0.0 |  0.00
Modify  | 0.14719    | 0.14866    | 0.15198    |   0.4 |  0.76
Other   |            | 0.04281    |            |       |  0.22

Nlocal:    3275.33 ave 3296 max 3257 min
Histogram: 2 0 1 0 0 1 0 0 0 2
Nghost:    8493.83 ave 8537 max 8453 min
Histogram: 1 1 0 0 1 1 0 0 1 1
Neighs:    341982 ave 350642 max 333921 min
Histogram: 2 0 0 0 0 1 2 0 0 1

Total # of neighbors = 2051894
Ave neighs/atom = 104.411
Neighbor list builds = 495
Dangerous builds not checked
Setting up Verlet run ...
  Unit style    : metal
  Current step  : 2840509
  Time step     : 0.001
Per MPI rank memory allocation (min/avg/max) = 5.967 | 5.995 | 6.009 Mbytes
Step Temp Press TotEng PotEng Enthalpy 
 2840509    323.71872     144.0504   -67516.276   -68338.551   -67494.803 
 2866681    299.33829    757.47591   -67644.704   -68405.051   -67531.997 
 2906681    298.53484    449.37899   -67645.201   -68403.507   -67578.323 
Loop time of 2745.44 on 6 procs for 66172 steps with 19652 atoms

Performance: 2.082 ns/day, 11.525 hours/ns, 24.103 timesteps/s
99.1% CPU use with 6 MPI tasks x no OpenMP threads

MPI task timing breakdown:
Section |  min time  |  avg time  |  max time  |%varavg| %total
---------------------------------------------------------------
Pair    | 1506.4     | 1523.4     | 1543.2     |  35.4 | 55.49
Neigh   | 1030.7     | 1036.1     | 1046.1     |  16.6 | 37.74
Comm    | 134.99     | 158.36     | 180.66     | 121.5 |  5.77
Output  | 0.015923   | 0.015944   | 0.016026   |   0.0 |  0.00
Modify  | 21.711     | 21.748     | 21.8       |   0.6 |  0.79
Other   |            | 5.863      |            |       |  0.21

Nlocal:    3275.33 ave 3298 max 3257 min
Histogram: 1 1 0 0 1 2 0 0 0 1
Nghost:    8499.17 ave 8527 max 8453 min
Histogram: 1 1 0 0 0 0 1 0 0 3
Neighs:    342633 ave 348730 max 336088 min
Histogram: 2 0 0 0 0 1 0 2 0 1

Total # of neighbors = 2055799
Ave neighs/atom = 104.61
Neighbor list builds = 66172
Dangerous builds not checked
Setting up Verlet run ...
  Unit style    : metal
  Current step  : 2906681
  Time step     : 0.001
Per MPI rank memory allocation (min/avg/max) = 5.967 | 5.995 | 6.009 Mbytes
Step Temp Press TotEng PotEng Enthalpy 
 2906681    298.53484    449.37899   -67645.201   -68403.507   -67578.323 
 2907176    272.15681   -482.33845   -67780.432   -68471.735   -67852.156 
Loop time of 20.5973 on 6 procs for 495 steps with 19652 atoms

Performance: 2.076 ns/day, 11.559 hours/ns, 24.032 timesteps/s
99.9% CPU use with 6 MPI tasks x no OpenMP threads

MPI task timing breakdown:
Section |  min time  |  avg time  |  max time  |%varavg| %total
---------------------------------------------------------------
Pair    | 11.227     | 11.375     | 11.503     |   2.7 | 55.22
Neigh   | 7.2578     | 7.5309     | 7.8402     |   6.2 | 36.56
Comm    | 1.1057     | 1.4885     | 1.841      |  18.5 |  7.23
Output  | 5.1022e-05 | 6.2664e-05 | 0.00010586 |   0.0 |  0.00
Modify  | 0.15861    | 0.16059    | 0.16341    |   0.4 |  0.78
Other   |            | 0.04264    |            |       |  0.21

Nlocal:    3275.33 ave 3297 max 3255 min
Histogram: 1 0 0 1 1 2 0 0 0 1
Nghost:    8537.5 ave 8577 max 8496 min
Histogram: 1 1 0 0 1 0 1 0 1 1
Neighs:    342957 ave 349720 max 336038 min
Histogram: 2 0 0 0 1 0 1 1 0 1

Total # of neighbors = 2057741
Ave neighs/atom = 104.709
Neighbor list builds = 495
Dangerous builds not checked
Setting up Verlet run ...
  Unit style    : metal
  Current step  : 2907176
  Time step     : 0.001
Per MPI rank memory allocation (min/avg/max) = 5.967 | 5.995 | 6.009 Mbytes
Step Temp Press TotEng PotEng Enthalpy 
 2907176    272.15681   -482.33845   -67780.432   -68471.735   -67852.156 
 2933348    252.21256     233.6042    -67894.72   -68535.362   -67860.047 
 2973348    250.21999   -246.87072     -67898.3   -68533.882   -67934.958 
Loop time of 2751.97 on 6 procs for 66172 steps with 19652 atoms

Performance: 2.078 ns/day, 11.552 hours/ns, 24.045 timesteps/s
99.2% CPU use with 6 MPI tasks x no OpenMP threads

MPI task timing breakdown:
Section |  min time  |  avg time  |  max time  |%varavg| %total
---------------------------------------------------------------
Pair    | 1511.8     | 1531.4     | 1545.2     |  31.6 | 55.65
Neigh   | 1020.6     | 1031.9     | 1044.8     |  23.7 | 37.50
Comm    | 142.18     | 160.42     | 177.42     | 109.4 |  5.83
Output  | 0.015884   | 0.015907   | 0.015996   |   0.0 |  0.00
Modify  | 22.146     | 22.368     | 22.628     |   3.7 |  0.81
Other   |            | 5.828      |            |       |  0.21

Nlocal:    3275.33 ave 3309 max 3253 min
Histogram: 1 1 0 2 0 1 0 0 0 1
Nghost:    8515 ave 8558 max 8487 min
Histogram: 1 1 0 2 0 1 0 0 0 1
Neighs:    343499 ave 348914 max 335794 min
Histogram: 1 0 1 0 0 1 0 0 1 2

Total # of neighbors = 2060996
Ave neighs/atom = 104.875
Neighbor list builds = 66172
Dangerous builds not checked
Setting up Verlet run ...
  Unit style    : metal
  Current step  : 2973348
  Time step     : 0.001
Per MPI rank memory allocation (min/avg/max) = 5.967 | 5.995 | 6.009 Mbytes
Step Temp Press TotEng PotEng Enthalpy 
 2973348    250.21999   -246.87072     -67898.3   -68533.882   -67934.958 
 2973843    225.63203   -246.78322   -68034.954    -68608.08    -68071.54 
Loop time of 20.5071 on 6 procs for 495 steps with 19652 atoms

Performance: 2.086 ns/day, 11.508 hours/ns, 24.138 timesteps/s
100.0% CPU use with 6 MPI tasks x no OpenMP threads

MPI task timing breakdown:
Section |  min time  |  avg time  |  max time  |%varavg| %total
---------------------------------------------------------------
Pair    | 11.285     | 11.364     | 11.495     |   2.1 | 55.41
Neigh   | 7.3837     | 7.6501     | 8.1059     |   8.9 | 37.30
Comm    | 0.80481    | 1.2895     | 1.6363     |  24.5 |  6.29
Output  | 5.8889e-05 | 6.93e-05   | 0.00010777 |   0.0 |  0.00
Modify  | 0.15684    | 0.15988    | 0.16427    |   0.6 |  0.78
Other   |            | 0.04369    |            |       |  0.21

Nlocal:    3275.33 ave 3302 max 3253 min
Histogram: 1 1 0 1 0 1 0 1 0 1
Nghost:    8530.17 ave 8567 max 8493 min
Histogram: 2 0 0 0 0 1 1 1 0 1
Neighs:    344172 ave 351827 max 336811 min
Histogram: 1 1 0 0 1 0 1 1 0 1

Total # of neighbors = 2065034
Ave neighs/atom = 105.08
Neighbor list builds = 495
Dangerous builds not checked
Setting up Verlet run ...
  Unit style    : metal
  Current step  : 2973843
  Time step     : 0.001
Per MPI rank memory allocation (min/avg/max) = 5.967 | 5.995 | 6.009 Mbytes
Step Temp Press TotEng PotEng Enthalpy 
 2973843    225.63203   -246.78322   -68034.954    -68608.08    -68071.54 
 3000015    201.37388   -531.22237   -68163.924   -68675.432   -68242.581 
 3040015    200.21784    194.84725   -68159.327   -68667.898   -68130.486 
Loop time of 2774.13 on 6 procs for 66172 steps with 19652 atoms

Performance: 2.061 ns/day, 11.645 hours/ns, 23.853 timesteps/s
99.3% CPU use with 6 MPI tasks x no OpenMP threads

MPI task timing breakdown:
Section |  min time  |  avg time  |  max time  |%varavg| %total
---------------------------------------------------------------
Pair    | 1519       | 1543.2     | 1566.5     |  41.6 | 55.63
Neigh   | 1038.1     | 1046.4     | 1057.4     |  23.0 | 37.72
Comm    | 136.31     | 155.53     | 183.7      | 133.7 |  5.61
Output  | 0.015635   | 0.015655   | 0.015742   |   0.0 |  0.00
Modify  | 22.709     | 22.917     | 23.026     |   2.2 |  0.83
Other   |            | 6.062      |            |       |  0.22

Nlocal:    3275.33 ave 3296 max 3255 min
Histogram: 1 0 0 0 2 2 0 0 0 1
Nghost:    8531.83 ave 8556 max 8487 min
Histogram: 1 0 0 1 0 0 0 1 1 2
Neighs:    344772 ave 351233 max 338795 min
Histogram: 2 0 0 0 1 0 1 1 0 1

Total # of neighbors = 2068635
Ave neighs/atom = 105.263
Neighbor list builds = 66172
Dangerous builds not checked
Setting up Verlet run ...
  Unit style    : metal
  Current step  : 3040015
  Time step     : 0.001
Per MPI rank memory allocation (min/avg/max) = 5.967 | 5.995 | 6.009 Mbytes
Step Temp Press TotEng PotEng Enthalpy 
 3040015    200.21784    194.84725   -68159.327   -68667.898   -68130.486 
 3040510    176.59837   -167.06071   -68290.612   -68739.188   -68315.307 
Loop time of 21.2738 on 6 procs for 495 steps with 19652 atoms

Performance: 2.010 ns/day, 11.938 hours/ns, 23.268 timesteps/s
99.9% CPU use with 6 MPI tasks x no OpenMP threads

MPI task timing breakdown:
Section |  min time  |  avg time  |  max time  |%varavg| %total
---------------------------------------------------------------
Pair    | 11.631     | 11.785     | 11.903     |   3.1 | 55.40
Neigh   | 7.6737     | 7.8544     | 7.9413     |   3.6 | 36.92
Comm    | 1.2132     | 1.4197     | 1.5395     |   9.2 |  6.67
Output  | 6.3896e-05 | 7.836e-05  | 0.000139   |   0.0 |  0.00
Modify  | 0.16662    | 0.16891    | 0.17089    |   0.3 |  0.79
Other   |            | 0.04576    |            |       |  0.22

Nlocal:    3275.33 ave 3295 max 3257 min
Histogram: 1 0 0 2 1 0 0 1 0 1
Nghost:    8541.5 ave 8567 max 8506 min
Histogram: 1 0 0 0 2 0 0 0 2 1
Neighs:    345270 ave 351665 max 338810 min
Histogram: 2 0 0 0 1 0 0 2 0 1

Total # of neighbors = 2071621
Ave neighs/atom = 105.415
Neighbor list builds = 495
Dangerous builds not checked
Setting up Verlet run ...
  Unit style    : metal
  Current step  : 3040510
  Time step     : 0.001
Per MPI rank memory allocation (min/avg/max) = 5.967 | 5.995 | 6.009 Mbytes
Step Temp Press TotEng PotEng Enthalpy 
 3040510    176.59837   -167.06071   -68290.612   -68739.188   -68315.307 
 3066682    150.93516   -163.03282   -68419.278   -68802.667   -68443.345 
 3106682     150.6716   -357.76346   -68420.043   -68802.763   -68472.863 
Loop time of 2774.23 on 6 procs for 66172 steps with 19652 atoms

Performance: 2.061 ns/day, 11.646 hours/ns, 23.852 timesteps/s
99.3% CPU use with 6 MPI tasks x no OpenMP threads

MPI task timing breakdown:
Section |  min time  |  avg time  |  max time  |%varavg| %total
---------------------------------------------------------------
Pair    | 1525.4     | 1547.1     | 1570.6     |  40.6 | 55.77
Neigh   | 1031.6     | 1039.6     | 1044.7     |  13.4 | 37.48
Comm    | 140.99     | 158.85     | 177.91     | 115.2 |  5.73
Output  | 0.015207   | 0.015232   | 0.015335   |   0.0 |  0.00
Modify  | 22.525     | 22.573     | 22.634     |   0.9 |  0.81
Other   |            | 6.081      |            |       |  0.22

Nlocal:    3275.33 ave 3298 max 3262 min
Histogram: 1 1 0 2 1 0 0 0 0 1
Nghost:    8536.83 ave 8568 max 8497 min
Histogram: 1 0 1 0 0 0 1 2 0 1
Neighs:    345916 ave 351878 max 339186 min
Histogram: 2 0 0 0 0 1 0 2 0 1

Total # of neighbors = 2075499
Ave neighs/atom = 105.613
Neighbor list builds = 66172
Dangerous builds not checked
Setting up Verlet run ...
  Unit style    : metal
  Current step  : 3106682
  Time step     : 0.001
Per MPI rank memory allocation (min/avg/max) = 5.967 | 5.995 | 6.009 Mbytes
Step Temp Press TotEng PotEng Enthalpy 
 3106682     150.6716   -357.76346   -68420.043   -68802.763   -68472.863 
 3107177    125.81103   -205.13282   -68541.711   -68861.282   -68571.952 
Loop time of 20.2341 on 6 procs for 495 steps with 19652 atoms

Performance: 2.114 ns/day, 11.355 hours/ns, 24.464 timesteps/s
98.9% CPU use with 6 MPI tasks x no OpenMP threads

MPI task timing breakdown:
Section |  min time  |  avg time  |  max time  |%varavg| %total
---------------------------------------------------------------
Pair    | 10.83      | 10.999     | 11.205     |   3.9 | 54.36
Neigh   | 6.4364     | 6.7957     | 7.3947     |  13.5 | 33.59
Comm    | 1.7767     | 2.248      | 2.6084     |  17.4 | 11.11
Output  | 5.3883e-05 | 6.2307e-05 | 9.2983e-05 |   0.0 |  0.00
Modify  | 0.14211    | 0.14831    | 0.15665    |   1.4 |  0.73
Other   |            | 0.04266    |            |       |  0.21

Nlocal:    3275.33 ave 3304 max 3258 min
Histogram: 2 0 0 2 0 1 0 0 0 1
Nghost:    8561 ave 8602 max 8523 min
Histogram: 2 0 0 0 0 2 1 0 0 1
Neighs:    346401 ave 352168 max 338842 min
Histogram: 1 1 0 0 0 1 0 1 0 2

Total # of neighbors = 2078406
Ave neighs/atom = 105.761
Neighbor list builds = 495
Dangerous builds not checked
Setting up Verlet run ...
  Unit style    : metal
  Current step  : 3107177
  Time step     : 0.001
Per MPI rank memory allocation (min/avg/max) = 5.967 | 5.995 | 6.009 Mbytes
Step Temp Press TotEng PotEng Enthalpy 
 3107177    125.81103   -205.13282   -68541.711   -68861.282   -68571.952 
 3133349    99.646027    337.92598   -68681.854   -68934.964   -68632.129 
 3173349    100.71527   -741.26454   -68677.743   -68933.569   -68786.903 
Loop time of 2727.74 on 6 procs for 66172 steps with 19652 atoms

Performance: 2.096 ns/day, 11.451 hours/ns, 24.259 timesteps/s
98.6% CPU use with 6 MPI tasks x no OpenMP threads

MPI task timing breakdown:
Section |  min time  |  avg time  |  max time  |%varavg| %total
---------------------------------------------------------------
Pair    | 1507       | 1529.3     | 1550.4     |  36.7 | 56.06
Neigh   | 947.96     | 957.85     | 967.88     |  25.5 | 35.12
Comm    | 188.57     | 205.14     | 225.84     | 109.6 |  7.52
Output  | 4.1198     | 4.1198     | 4.1201     |   0.0 |  0.15
Modify  | 24.818     | 25.652     | 26.687     |  14.7 |  0.94
Other   |            | 5.714      |            |       |  0.21

Nlocal:    3275.33 ave 3299 max 3260 min
Histogram: 2 0 1 0 1 0 1 0 0 1
Nghost:    8561.17 ave 8601 max 8512 min
Histogram: 1 0 0 1 1 0 0 2 0 1
Neighs:    346972 ave 354035 max 339660 min
Histogram: 2 0 0 0 1 0 0 2 0 1

Total # of neighbors = 2081835
Ave neighs/atom = 105.935
Neighbor list builds = 66172
Dangerous builds not checked
Total wall time: 34:30:21
