LAMMPS (12 Dec 2018)
Lattice spacing in x,y,z = 4 4 4
Created orthogonal box = (0 0 0) to (68 68 68)
  1 by 1 by 1 MPI processor grid
Created 19652 atoms
  Time spent = 0.00390983 secs
Setting atom values ...
  19652 settings made for type/fraction
Neighbor list info ...
  update every 1 steps, delay 0 steps, check no
  max neighbors/atom: 2000, page size: 100000
  master list distance cutoff = 8.5
  ghost atom cutoff = 8.5
  binsize = 4.25, bins = 16 16 16
  1 neighbor lists, perpetual/occasional/extra = 1 0 0
  (1) pair eam/alloy, perpetual
      attributes: half, newton on
      pair build: half/bin/atomonly/newton
      stencil: half/bin/3d/newton
      bin: standard
Setting up Verlet run ...
  Unit style    : metal
  Current step  : 0
  Time step     : 0.001
Per MPI rank memory allocation (min/avg/max) = 18.19 | 18.19 | 18.19 Mbytes
Step Temp Press TotEng PotEng Enthalpy Volume 
       0          300    59437.614   -54989.994   -55752.021   -43325.182       314432 
     667    145.15117    66423.326   -54989.941   -55358.638   -41954.162       314432 
    1000    152.10789     66091.72   -54989.944   -55376.312   -42019.243       314432 
Loop time of 151.176 on 1 procs for 1000 steps with 19652 atoms

Performance: 0.572 ns/day, 41.993 hours/ns, 6.615 timesteps/s
98.7% CPU use with 1 MPI tasks x no OpenMP threads

MPI task timing breakdown:
Section |  min time  |  avg time  |  max time  |%varavg| %total
---------------------------------------------------------------
Pair    | 85.006     | 85.006     | 85.006     |   0.0 | 56.23
Neigh   | 64         | 64         | 64         |   0.0 | 42.34
Comm    | 1.2733     | 1.2733     | 1.2733     |   0.0 |  0.84
Output  | 0.074919   | 0.074919   | 0.074919   |   0.0 |  0.05
Modify  | 0.41429    | 0.41429    | 0.41429    |   0.0 |  0.27
Other   |            | 0.4073     |            |       |  0.27

Nlocal:    19652 ave 19652 max 19652 min
Histogram: 1 0 0 0 0 0 0 0 0 0
Nghost:    20102 ave 20102 max 20102 min
Histogram: 1 0 0 0 0 0 0 0 0 0
Neighs:    1.57498e+06 ave 1.57498e+06 max 1.57498e+06 min
Histogram: 1 0 0 0 0 0 0 0 0 0

Total # of neighbors = 1574981
Ave neighs/atom = 80.1435
Neighbor list builds = 1000
Dangerous builds not checked
Setting up Verlet run ...
  Unit style    : metal
  Current step  : 1000
  Time step     : 0.001
Per MPI rank memory allocation (min/avg/max) = 18.19 | 18.19 | 18.19 Mbytes
Step Temp Press TotEng PotEng Enthalpy Volume 
    1000    152.10789     66091.72   -54989.944   -55376.312   -42019.243       314432 
    1334    171.94808   -28.674527   -55149.726    -55586.49   -55155.707    334167.48 
    2000    292.88587   -399.59637   -54520.706   -55264.663   -54604.732    336899.09 
Loop time of 143.649 on 1 procs for 1000 steps with 19652 atoms

Performance: 0.601 ns/day, 39.902 hours/ns, 6.961 timesteps/s
99.2% CPU use with 1 MPI tasks x no OpenMP threads

MPI task timing breakdown:
Section |  min time  |  avg time  |  max time  |%varavg| %total
---------------------------------------------------------------
Pair    | 78.581     | 78.581     | 78.581     |   0.0 | 54.70
Neigh   | 62.086     | 62.086     | 62.086     |   0.0 | 43.22
Comm    | 1.1425     | 1.1425     | 1.1425     |   0.0 |  0.80
Output  | 0.073578   | 0.073578   | 0.073578   |   0.0 |  0.05
Modify  | 1.3679     | 1.3679     | 1.3679     |   0.0 |  0.95
Other   |            | 0.398      |            |       |  0.28

Nlocal:    19652 ave 19652 max 19652 min
Histogram: 1 0 0 0 0 0 0 0 0 0
Nghost:    20096 ave 20096 max 20096 min
Histogram: 1 0 0 0 0 0 0 0 0 0
Neighs:    1.40802e+06 ave 1.40802e+06 max 1.40802e+06 min
Histogram: 1 0 0 0 0 0 0 0 0 0

Total # of neighbors = 1408016
Ave neighs/atom = 71.6475
Neighbor list builds = 1000
Dangerous builds not checked
Setting up Verlet run ...
  Unit style    : metal
  Current step  : 2000
  Time step     : 0.001
Per MPI rank memory allocation (min/avg/max) = 18.19 | 18.19 | 18.19 Mbytes
Step Temp Press TotEng PotEng Enthalpy Volume 
    2000    292.88587   -399.59637   -54520.706   -55264.663   -54604.732    336899.09 
    2001    292.76672   -392.50472   -54520.705   -55264.359   -54603.239       336899 
    2668     383.2635   -615.27872   -54033.154   -55006.678   -54163.403    339168.21 
    3335     573.5029    474.92933   -52991.492   -54448.242   -52889.586     343783.2 
    4002    796.99978   -1309.9087   -51693.333   -53717.785     -51980.6    351362.54 
    4669    999.44371    795.24396   -50448.914   -52987.593   -50271.266    357907.36 
    5336    1167.4674   -120.48905   -49253.615   -52219.088   -49281.156    366227.72 
    6003    1355.0261   -50.712702   -47909.673   -51351.563   -47921.569    375849.08 
    6670    1511.6688    945.69386   -46152.366   -49992.142   -45921.318    391436.98 
    7337    1710.3627    657.95205   -44283.384   -48627.861   -44114.747    410647.78 
    8004    1909.3362    14.196926   -42972.546   -47822.434   -42968.793    423521.97 
    8671     2082.952    1205.7075   -41819.662    -47110.55   -41493.014    434059.53 
    9338    2280.6029   -4.8912081   -40699.477   -46492.416   -40700.838     445711.5 
   10000     2432.182   -803.42128   -39658.989   -45836.952   -39888.528    457745.79 
Loop time of 1061.58 on 1 procs for 8000 steps with 19652 atoms

Performance: 0.651 ns/day, 36.860 hours/ns, 7.536 timesteps/s
99.6% CPU use with 1 MPI tasks x no OpenMP threads

MPI task timing breakdown:
Section |  min time  |  avg time  |  max time  |%varavg| %total
---------------------------------------------------------------
Pair    | 557.25     | 557.25     | 557.25     |   0.0 | 52.49
Neigh   | 481.43     | 481.43     | 481.43     |   0.0 | 45.35
Comm    | 8.4591     | 8.4591     | 8.4591     |   0.0 |  0.80
Output  | 1.002      | 1.002      | 1.002      |   0.0 |  0.09
Modify  | 10.393     | 10.393     | 10.393     |   0.0 |  0.98
Other   |            | 3.036      |            |       |  0.29

Nlocal:    19652 ave 19652 max 19652 min
Histogram: 1 0 0 0 0 0 0 0 0 0
Nghost:    16079 ave 16079 max 16079 min
Histogram: 1 0 0 0 0 0 0 0 0 0
Neighs:    1.07946e+06 ave 1.07946e+06 max 1.07946e+06 min
Histogram: 1 0 0 0 0 0 0 0 0 0

Total # of neighbors = 1079463
Ave neighs/atom = 54.9289
Neighbor list builds = 8000
Dangerous builds not checked
Setting up Verlet run ...
  Unit style    : metal
  Current step  : 10000
  Time step     : 0.001
Per MPI rank memory allocation (min/avg/max) = 18.2 | 18.2 | 18.2 Mbytes
Step Temp Press TotEng PotEng Enthalpy Volume 
   10000     2432.182   -803.42128   -39658.989   -45836.952   -39888.528    457745.79 
   10005    2428.2013   -632.06519   -39658.867    -45826.72    -39839.45    457744.91 
   10672    2449.7896    1.7050348   -39427.513   -45650.201   -39427.021    461511.91 
   11339    2456.5613    283.32108   -39502.213   -45742.102   -39421.008     459213.8 
   12006    2467.0909   -851.79819   -39402.071   -45668.707   -39647.477    461592.81 
   12673    2435.5517   -687.17467   -39535.848   -45722.371   -39733.224    460191.06 
   13340    2478.3001   -58.453394   -39455.329   -45750.437   -39472.099    459639.32 
   14007    2444.6729   -1663.4907   -39503.925   -45713.617   -39982.738    461164.74 
   14674    2460.9834    1086.8724   -39470.706   -45721.828   -39159.384    458925.55 
   15341    2452.2543   -577.37947   -39434.993   -45663.942    -39601.28    461431.93 
   16008    2444.9951   -762.67415   -39506.274   -45716.784   -39725.477       460487 
   16675    2463.8425    -148.2772   -39486.908   -45745.293   -39529.494    460152.91 
   17342    2465.6372    219.30979   -39407.459   -45670.402   -39344.322    461251.17 
   18009     2439.689   -48.836267    -39479.84   -45676.872   -39493.875    460447.29 
   18676    2447.0519    349.12134   -39481.797   -45697.532   -39381.621    459728.15 
   19343    2450.9379    346.01851    -39440.29   -45665.895   -39340.796     460686.9 
   20010     2462.141   -317.07009   -39464.619   -45718.681   -39555.654    460006.85 
   20677    2428.8096    68.406472   -39624.133    -45793.53   -39604.551     458632.1 
   21344    2481.3606    356.65987   -39335.798   -45638.679   -39233.137    461166.63 
   22011    2446.4246    184.99236   -39536.764   -45750.905   -39483.767    458992.03 
   22678    2465.4228    891.92378   -39400.837   -45663.236   -39144.479    460499.86 
   23345    2455.8333   -914.32053   -39518.036   -45756.076   -39780.747    460352.07 
   24012    2465.0865    273.92843   -39371.407   -45632.951   -39292.417    461999.28 
   24679    2442.9506    1407.0278   -39550.769   -45756.086   -39148.297    458293.89 
   25346      2471.68   -255.68455   -39340.881   -45619.173   -39414.656    462290.05 
   26013    2423.8475   -1214.4071   -39535.005   -45691.798   -39884.521    461119.81 
   26680    2449.9054   -104.51579    -39411.32   -45634.303   -39441.435    461647.21 
   27347    2450.0066    861.02526   -39571.241   -45794.481       -39325    458200.02 
   28014     2447.955   -735.75284   -39429.013   -45647.041   -39641.132    461911.83 
   28681    2456.0663     29.35231   -39462.518   -45701.151   -39454.091    459985.87 
   29348    2439.4683   -470.58494   -39485.919   -45682.391   -39621.265    460804.63 
   30015    2471.8768   -37.857743   -39460.069   -45738.861   -39470.933    459768.31 
   30682    2421.3529    490.87009    -39511.51   -45661.967   -39370.543     460108.1 
   31349    2467.1735    516.72547   -39437.671   -45704.516   -39289.371    459824.56 
   32016     2457.788   -518.36228   -39447.441   -45690.446   -39596.661    461216.68 
   32683    2449.1293   -174.13551   -39515.373   -45736.384   -39565.348    459810.63 
   33350    2452.4091    1118.3925   -39529.394   -45758.736   -39209.463     458322.6 
   34017    2458.4857   -494.59245     -39379.5   -45624.278   -39522.228    462351.36 
   34684    2470.1301   -409.08432   -39459.567   -45733.922   -39577.117    460383.69 
   35351    2433.1903   -74.996307   -39511.594   -45692.119    -39533.16     460733.8 
   36018    2455.3037   -488.62494   -39424.726   -45661.422   -39565.467     461480.2 
   36685    2430.1114    163.79428   -39531.977   -45704.681   -39484.861    460865.16 
   37352    2462.1316    504.97008   -39477.823   -45731.862   -39333.028    459410.45 
   38019    2420.7296   -1694.3198   -39541.861   -45690.735   -40030.545    462107.29 
   38686    2461.5318    716.27226   -39460.468   -45712.983   -39254.777    460094.09 
   39353    2460.3924    1168.8621   -39432.567   -45682.188   -39097.086    459848.63 
   40000    2421.6843    1022.2617   -39549.055   -45700.354   -39256.117    459117.05 
Loop time of 3313.69 on 1 procs for 30000 steps with 19652 atoms

Performance: 0.782 ns/day, 30.682 hours/ns, 9.053 timesteps/s
99.7% CPU use with 1 MPI tasks x no OpenMP threads

MPI task timing breakdown:
Section |  min time  |  avg time  |  max time  |%varavg| %total
---------------------------------------------------------------
Pair    | 1700.5     | 1700.5     | 1700.5     |   0.0 | 51.32
Neigh   | 1535.1     | 1535.1     | 1535.1     |   0.0 | 46.33
Comm    | 28.148     | 28.148     | 28.148     |   0.0 |  0.85
Output  | 3.2945     | 3.2945     | 3.2945     |   0.0 |  0.10
Modify  | 36.308     | 36.308     | 36.308     |   0.0 |  1.10
Other   |            | 10.33      |            |       |  0.31

Nlocal:    19652 ave 19652 max 19652 min
Histogram: 1 0 0 0 0 0 0 0 0 0
Nghost:    16128 ave 16128 max 16128 min
Histogram: 1 0 0 0 0 0 0 0 0 0
Neighs:    1.07588e+06 ave 1.07588e+06 max 1.07588e+06 min
Histogram: 1 0 0 0 0 0 0 0 0 0

Total # of neighbors = 1075878
Ave neighs/atom = 54.7465
Neighbor list builds = 30000
Dangerous builds not checked
Setting up Verlet run ...
  Unit style    : metal
  Current step  : 40000
  Time step     : 0.001
Per MPI rank memory allocation (min/avg/max) = 18.2 | 18.2 | 18.2 Mbytes
Step Temp Press TotEng PotEng Enthalpy Volume 
   40000    2421.6843    1022.2617   -39549.055   -45700.354   -39256.117    459117.05 
   40020    2438.2314    486.75454   -39546.788   -45740.118   -39407.299    459133.37 
   40495    2399.6999    -1358.713   -39640.434    -45735.89   -40031.142     460718.1 
Loop time of 47.2838 on 1 procs for 495 steps with 19652 atoms

Performance: 0.904 ns/day, 26.534 hours/ns, 10.469 timesteps/s
99.9% CPU use with 1 MPI tasks x no OpenMP threads

MPI task timing breakdown:
Section |  min time  |  avg time  |  max time  |%varavg| %total
---------------------------------------------------------------
Pair    | 23.773     | 23.773     | 23.773     |   0.0 | 50.28
Neigh   | 22.411     | 22.411     | 22.411     |   0.0 | 47.40
Comm    | 0.3777     | 0.3777     | 0.3777     |   0.0 |  0.80
Output  | 0.069691   | 0.069691   | 0.069691   |   0.0 |  0.15
Modify  | 0.51675    | 0.51675    | 0.51675    |   0.0 |  1.09
Other   |            | 0.136      |            |       |  0.29

Nlocal:    19652 ave 19652 max 19652 min
Histogram: 1 0 0 0 0 0 0 0 0 0
Nghost:    16129 ave 16129 max 16129 min
Histogram: 1 0 0 0 0 0 0 0 0 0
Neighs:    1.07243e+06 ave 1.07243e+06 max 1.07243e+06 min
Histogram: 1 0 0 0 0 0 0 0 0 0

Total # of neighbors = 1072426
Ave neighs/atom = 54.5708
Neighbor list builds = 495
Dangerous builds not checked
Setting up Verlet run ...
  Unit style    : metal
  Current step  : 40495
  Time step     : 0.001
Per MPI rank memory allocation (min/avg/max) = 18.2 | 18.2 | 18.2 Mbytes
Step Temp Press TotEng PotEng Enthalpy Volume 
   40495    2399.6999    -1358.713   -39640.434    -45735.89   -40031.142     460718.1 
   40667    2399.3541   -50.178793   -39695.289   -45789.867   -39709.657    458765.66 
Loop time of 16.1625 on 1 procs for 172 steps with 19652 atoms

Performance: 0.919 ns/day, 26.102 hours/ns, 10.642 timesteps/s
100.0% CPU use with 1 MPI tasks x no OpenMP threads

MPI task timing breakdown:
Section |  min time  |  avg time  |  max time  |%varavg| %total
---------------------------------------------------------------
Pair    | 8.1319     | 8.1319     | 8.1319     |   0.0 | 50.31
Neigh   | 7.6704     | 7.6704     | 7.6704     |   0.0 | 47.46
Comm    | 0.12847    | 0.12847    | 0.12847    |   0.0 |  0.79
Output  | 0.00012994 | 0.00012994 | 0.00012994 |   0.0 |  0.00
Modify  | 0.18328    | 0.18328    | 0.18328    |   0.0 |  1.13
Other   |            | 0.04826    |            |       |  0.30

Nlocal:    19652 ave 19652 max 19652 min
Histogram: 1 0 0 0 0 0 0 0 0 0
Nghost:    16124 ave 16124 max 16124 min
Histogram: 1 0 0 0 0 0 0 0 0 0
Neighs:    1.07686e+06 ave 1.07686e+06 max 1.07686e+06 min
Histogram: 1 0 0 0 0 0 0 0 0 0

Total # of neighbors = 1076860
Ave neighs/atom = 54.7965
Neighbor list builds = 172
Dangerous builds not checked
Setting up Verlet run ...
  Unit style    : metal
  Current step  : 40667
  Time step     : 0.001
Per MPI rank memory allocation (min/avg/max) = 18.2 | 18.2 | 18.2 Mbytes
Step Temp Press TotEng PotEng Enthalpy Volume 
   40667    2399.3541   -50.178793   -39695.289   -45789.867   -39709.657    458765.66 
   40687    2411.7348   -456.47435   -39695.762   -45821.788   -39826.467    458762.14 
   41162    2360.6492     1125.348   -40006.504   -46002.768   -39687.899    453603.68 
Loop time of 46.751 on 1 procs for 495 steps with 19652 atoms

Performance: 0.915 ns/day, 26.235 hours/ns, 10.588 timesteps/s
99.9% CPU use with 1 MPI tasks x no OpenMP threads

MPI task timing breakdown:
Section |  min time  |  avg time  |  max time  |%varavg| %total
---------------------------------------------------------------
Pair    | 23.49      | 23.49      | 23.49      |   0.0 | 50.24
Neigh   | 22.149     | 22.149     | 22.149     |   0.0 | 47.38
Comm    | 0.37474    | 0.37474    | 0.37474    |   0.0 |  0.80
Output  | 0.069365   | 0.069365   | 0.069365   |   0.0 |  0.15
Modify  | 0.52953    | 0.52953    | 0.52953    |   0.0 |  1.13
Other   |            | 0.1388     |            |       |  0.30

Nlocal:    19652 ave 19652 max 19652 min
Histogram: 1 0 0 0 0 0 0 0 0 0
Nghost:    16077 ave 16077 max 16077 min
Histogram: 1 0 0 0 0 0 0 0 0 0
Neighs:    1.08912e+06 ave 1.08912e+06 max 1.08912e+06 min
Histogram: 1 0 0 0 0 0 0 0 0 0

Total # of neighbors = 1089117
Ave neighs/atom = 55.4202
Neighbor list builds = 495
Dangerous builds not checked
Setting up Verlet run ...
  Unit style    : metal
  Current step  : 41162
  Time step     : 0.001
Per MPI rank memory allocation (min/avg/max) = 18.2 | 18.2 | 18.2 Mbytes
Step Temp Press TotEng PotEng Enthalpy Volume 
   41162    2360.6492     1125.348   -40006.504   -46002.768   -39687.899    453603.68 
   41334    2350.7019   -1107.8957   -40105.978   -46076.975   -40420.057    454204.26 
Loop time of 15.3792 on 1 procs for 172 steps with 19652 atoms

Performance: 0.966 ns/day, 24.837 hours/ns, 11.184 timesteps/s
100.0% CPU use with 1 MPI tasks x no OpenMP threads

MPI task timing breakdown:
Section |  min time  |  avg time  |  max time  |%varavg| %total
---------------------------------------------------------------
Pair    | 7.7196     | 7.7196     | 7.7196     |   0.0 | 50.20
Neigh   | 7.3211     | 7.3211     | 7.3211     |   0.0 | 47.60
Comm    | 0.12175    | 0.12175    | 0.12175    |   0.0 |  0.79
Output  | 0.00011897 | 0.00011897 | 0.00011897 |   0.0 |  0.00
Modify  | 0.17146    | 0.17146    | 0.17146    |   0.0 |  1.11
Other   |            | 0.0452     |            |       |  0.29

Nlocal:    19652 ave 19652 max 19652 min
Histogram: 1 0 0 0 0 0 0 0 0 0
Nghost:    16085 ave 16085 max 16085 min
Histogram: 1 0 0 0 0 0 0 0 0 0
Neighs:    1.08762e+06 ave 1.08762e+06 max 1.08762e+06 min
Histogram: 1 0 0 0 0 0 0 0 0 0

Total # of neighbors = 1087621
Ave neighs/atom = 55.344
Neighbor list builds = 172
Dangerous builds not checked
Setting up Verlet run ...
  Unit style    : metal
  Current step  : 41334
  Time step     : 0.001
Per MPI rank memory allocation (min/avg/max) = 18.2 | 18.2 | 18.2 Mbytes
Step Temp Press TotEng PotEng Enthalpy Volume 
   41334    2350.7019   -1107.8957   -40105.978   -46076.975   -40420.057    454204.26 
   41354    2345.7162   -820.37442   -40106.132   -46064.465   -40338.691    454183.58 
   41829    2302.8775   -896.16535   -40280.314   -46129.833   -40533.581    452795.47 
Loop time of 45.0737 on 1 procs for 495 steps with 19652 atoms

Performance: 0.949 ns/day, 25.294 hours/ns, 10.982 timesteps/s
100.0% CPU use with 1 MPI tasks x no OpenMP threads

MPI task timing breakdown:
Section |  min time  |  avg time  |  max time  |%varavg| %total
---------------------------------------------------------------
Pair    | 22.574     | 22.574     | 22.574     |   0.0 | 50.08
Neigh   | 21.462     | 21.462     | 21.462     |   0.0 | 47.62
Comm    | 0.36136    | 0.36136    | 0.36136    |   0.0 |  0.80
Output  | 0.05622    | 0.05622    | 0.05622    |   0.0 |  0.12
Modify  | 0.4907     | 0.4907     | 0.4907     |   0.0 |  1.09
Other   |            | 0.1295     |            |       |  0.29

Nlocal:    19652 ave 19652 max 19652 min
Histogram: 1 0 0 0 0 0 0 0 0 0
Nghost:    16163 ave 16163 max 16163 min
Histogram: 1 0 0 0 0 0 0 0 0 0
Neighs:    1.09154e+06 ave 1.09154e+06 max 1.09154e+06 min
Histogram: 1 0 0 0 0 0 0 0 0 0

Total # of neighbors = 1091541
Ave neighs/atom = 55.5435
Neighbor list builds = 495
Dangerous builds not checked
Setting up Verlet run ...
  Unit style    : metal
  Current step  : 41829
  Time step     : 0.001
Per MPI rank memory allocation (min/avg/max) = 18.2 | 18.2 | 18.2 Mbytes
Step Temp Press TotEng PotEng Enthalpy Volume 
   41829    2302.8775   -896.16535   -40280.314   -46129.833   -40533.581    452795.47 
   42001    2307.7671    37.421329    -40347.83   -46209.769   -40337.288    451366.48 
Loop time of 16.8772 on 1 procs for 172 steps with 19652 atoms

Performance: 0.881 ns/day, 27.256 hours/ns, 10.191 timesteps/s
100.0% CPU use with 1 MPI tasks x no OpenMP threads

MPI task timing breakdown:
Section |  min time  |  avg time  |  max time  |%varavg| %total
---------------------------------------------------------------
Pair    | 8.6058     | 8.6058     | 8.6058     |   0.0 | 50.99
Neigh   | 7.8985     | 7.8985     | 7.8985     |   0.0 | 46.80
Comm    | 0.13359    | 0.13359    | 0.13359    |   0.0 |  0.79
Output  | 0.00012302 | 0.00012302 | 0.00012302 |   0.0 |  0.00
Modify  | 0.19018    | 0.19018    | 0.19018    |   0.0 |  1.13
Other   |            | 0.04897    |            |       |  0.29

Nlocal:    19652 ave 19652 max 19652 min
Histogram: 1 0 0 0 0 0 0 0 0 0
Nghost:    16155 ave 16155 max 16155 min
Histogram: 1 0 0 0 0 0 0 0 0 0
Neighs:    1.09558e+06 ave 1.09558e+06 max 1.09558e+06 min
Histogram: 1 0 0 0 0 0 0 0 0 0

Total # of neighbors = 1095575
Ave neighs/atom = 55.7488
Neighbor list builds = 172
Dangerous builds not checked
Setting up Verlet run ...
  Unit style    : metal
  Current step  : 42001
  Time step     : 0.001
Per MPI rank memory allocation (min/avg/max) = 18.2 | 18.2 | 18.2 Mbytes
Step Temp Press TotEng PotEng Enthalpy Volume 
   42001    2307.7671    37.421329    -40347.83   -46209.769   -40337.288    451366.48 
   42021    2299.1978    299.45999   -40348.444   -46188.616   -40264.079    451369.08 
   42496    2265.2678    1216.9735   -40558.826   -46312.813   -40218.329    448273.25 
Loop time of 48.1856 on 1 procs for 495 steps with 19652 atoms

Performance: 0.888 ns/day, 27.040 hours/ns, 10.273 timesteps/s
99.9% CPU use with 1 MPI tasks x no OpenMP threads

MPI task timing breakdown:
Section |  min time  |  avg time  |  max time  |%varavg| %total
---------------------------------------------------------------
Pair    | 24.332     | 24.332     | 24.332     |   0.0 | 50.50
Neigh   | 22.716     | 22.716     | 22.716     |   0.0 | 47.14
Comm    | 0.39002    | 0.39002    | 0.39002    |   0.0 |  0.81
Output  | 0.067003   | 0.067003   | 0.067003   |   0.0 |  0.14
Modify  | 0.53986    | 0.53986    | 0.53986    |   0.0 |  1.12
Other   |            | 0.141      |            |       |  0.29

Nlocal:    19652 ave 19652 max 19652 min
Histogram: 1 0 0 0 0 0 0 0 0 0
Nghost:    16263 ave 16263 max 16263 min
Histogram: 1 0 0 0 0 0 0 0 0 0
Neighs:    1.10218e+06 ave 1.10218e+06 max 1.10218e+06 min
Histogram: 1 0 0 0 0 0 0 0 0 0

Total # of neighbors = 1102178
Ave neighs/atom = 56.0848
Neighbor list builds = 495
Dangerous builds not checked
Setting up Verlet run ...
  Unit style    : metal
  Current step  : 42496
  Time step     : 0.001
Per MPI rank memory allocation (min/avg/max) = 18.2 | 18.2 | 18.2 Mbytes
Step Temp Press TotEng PotEng Enthalpy Volume 
   42496    2265.2678    1216.9735   -40558.826   -46312.813   -40218.329    448273.25 
   42668    2234.5749   -1219.0131    -40648.46   -46324.483   -40990.462    449501.75 
Loop time of 15.0273 on 1 procs for 172 steps with 19652 atoms

Performance: 0.989 ns/day, 24.269 hours/ns, 11.446 timesteps/s
100.0% CPU use with 1 MPI tasks x no OpenMP threads

MPI task timing breakdown:
Section |  min time  |  avg time  |  max time  |%varavg| %total
---------------------------------------------------------------
Pair    | 7.5377     | 7.5377     | 7.5377     |   0.0 | 50.16
Neigh   | 7.1647     | 7.1647     | 7.1647     |   0.0 | 47.68
Comm    | 0.118      | 0.118      | 0.118      |   0.0 |  0.79
Output  | 0.00012994 | 0.00012994 | 0.00012994 |   0.0 |  0.00
Modify  | 0.1637     | 0.1637     | 0.1637     |   0.0 |  1.09
Other   |            | 0.04302    |            |       |  0.29

Nlocal:    19652 ave 19652 max 19652 min
Histogram: 1 0 0 0 0 0 0 0 0 0
Nghost:    16223 ave 16223 max 16223 min
Histogram: 1 0 0 0 0 0 0 0 0 0
Neighs:    1.09944e+06 ave 1.09944e+06 max 1.09944e+06 min
Histogram: 1 0 0 0 0 0 0 0 0 0

Total # of neighbors = 1099443
Ave neighs/atom = 55.9456
Neighbor list builds = 172
Dangerous builds not checked
Setting up Verlet run ...
  Unit style    : metal
  Current step  : 42668
  Time step     : 0.001
Per MPI rank memory allocation (min/avg/max) = 18.2 | 18.2 | 18.2 Mbytes
Step Temp Press TotEng PotEng Enthalpy Volume 
   42668    2234.5749   -1219.0131    -40648.46   -46324.483   -40990.462    449501.75 
   42688    2233.6713   -1143.5501   -40646.882   -46320.611   -40967.696    449478.08 
   43163    2218.4443    286.06212    -40904.65     -46539.7   -40825.125    445403.69 
Loop time of 47.0771 on 1 procs for 495 steps with 19652 atoms

Performance: 0.908 ns/day, 26.418 hours/ns, 10.515 timesteps/s
100.0% CPU use with 1 MPI tasks x no OpenMP threads

MPI task timing breakdown:
Section |  min time  |  avg time  |  max time  |%varavg| %total
---------------------------------------------------------------
Pair    | 23.457     | 23.457     | 23.457     |   0.0 | 49.83
Neigh   | 22.546     | 22.546     | 22.546     |   0.0 | 47.89
Comm    | 0.37197    | 0.37197    | 0.37197    |   0.0 |  0.79
Output  | 0.063054   | 0.063054   | 0.063054   |   0.0 |  0.13
Modify  | 0.50701    | 0.50701    | 0.50701    |   0.0 |  1.08
Other   |            | 0.1328     |            |       |  0.28

Nlocal:    19652 ave 19652 max 19652 min
Histogram: 1 0 0 0 0 0 0 0 0 0
Nghost:    16337 ave 16337 max 16337 min
Histogram: 1 0 0 0 0 0 0 0 0 0
Neighs:    1.11047e+06 ave 1.11047e+06 max 1.11047e+06 min
Histogram: 1 0 0 0 0 0 0 0 0 0

Total # of neighbors = 1110467
Ave neighs/atom = 56.5066
Neighbor list builds = 495
Dangerous builds not checked
Setting up Verlet run ...
  Unit style    : metal
  Current step  : 43163
  Time step     : 0.001
Per MPI rank memory allocation (min/avg/max) = 18.2 | 18.2 | 18.2 Mbytes
Step Temp Press TotEng PotEng Enthalpy Volume 
   43163    2218.4443    286.06212    -40904.65     -46539.7   -40825.125    445403.69 
   43335    2191.4845   -800.05912   -40991.651   -46558.221   -41214.147    445565.54 
Loop time of 17.4832 on 1 procs for 172 steps with 19652 atoms

Performance: 0.850 ns/day, 28.235 hours/ns, 9.838 timesteps/s
100.0% CPU use with 1 MPI tasks x no OpenMP threads

MPI task timing breakdown:
Section |  min time  |  avg time  |  max time  |%varavg| %total
---------------------------------------------------------------
Pair    | 8.6551     | 8.6551     | 8.6551     |   0.0 | 49.51
Neigh   | 8.4592     | 8.4592     | 8.4592     |   0.0 | 48.38
Comm    | 0.13313    | 0.13313    | 0.13313    |   0.0 |  0.76
Output  | 0.00014114 | 0.00014114 | 0.00014114 |   0.0 |  0.00
Modify  | 0.18698    | 0.18698    | 0.18698    |   0.0 |  1.07
Other   |            | 0.04861    |            |       |  0.28

Nlocal:    19652 ave 19652 max 19652 min
Histogram: 1 0 0 0 0 0 0 0 0 0
Nghost:    16353 ave 16353 max 16353 min
Histogram: 1 0 0 0 0 0 0 0 0 0
Neighs:    1.10966e+06 ave 1.10966e+06 max 1.10966e+06 min
Histogram: 1 0 0 0 0 0 0 0 0 0

Total # of neighbors = 1109657
Ave neighs/atom = 56.4653
Neighbor list builds = 172
Dangerous builds not checked
Setting up Verlet run ...
  Unit style    : metal
  Current step  : 43335
  Time step     : 0.001
Per MPI rank memory allocation (min/avg/max) = 18.2 | 18.2 | 18.2 Mbytes
Step Temp Press TotEng PotEng Enthalpy Volume 
   43335    2191.4845   -800.05912   -40991.651   -46558.221   -41214.147    445565.54 
   43355    2188.3435   -773.36316   -40990.738    -46549.33   -41205.802    445549.69 
   43830    2176.3914    659.82823   -41265.823   -46794.055   -41084.438    440433.07 
Loop time of 48.3054 on 1 procs for 495 steps with 19652 atoms

Performance: 0.885 ns/day, 27.107 hours/ns, 10.247 timesteps/s
99.9% CPU use with 1 MPI tasks x no OpenMP threads

MPI task timing breakdown:
Section |  min time  |  avg time  |  max time  |%varavg| %total
---------------------------------------------------------------
Pair    | 23.735     | 23.735     | 23.735     |   0.0 | 49.13
Neigh   | 23.502     | 23.502     | 23.502     |   0.0 | 48.65
Comm    | 0.36999    | 0.36999    | 0.36999    |   0.0 |  0.77
Output  | 0.055174   | 0.055174   | 0.055174   |   0.0 |  0.11
Modify  | 0.50895    | 0.50895    | 0.50895    |   0.0 |  1.05
Other   |            | 0.1344     |            |       |  0.28

Nlocal:    19652 ave 19652 max 19652 min
Histogram: 1 0 0 0 0 0 0 0 0 0
Nghost:    16361 ave 16361 max 16361 min
Histogram: 1 0 0 0 0 0 0 0 0 0
Neighs:    1.1226e+06 ave 1.1226e+06 max 1.1226e+06 min
Histogram: 1 0 0 0 0 0 0 0 0 0

Total # of neighbors = 1122603
Ave neighs/atom = 57.1241
Neighbor list builds = 495
Dangerous builds not checked
Setting up Verlet run ...
  Unit style    : metal
  Current step  : 43830
  Time step     : 0.001
Per MPI rank memory allocation (min/avg/max) = 18.2 | 18.2 | 18.2 Mbytes
Step Temp Press TotEng PotEng Enthalpy Volume 
   43830    2176.3914    659.82823   -41265.823   -46794.055   -41084.438    440433.07 
   44002    2139.9579   -847.13137   -41347.757   -46783.445   -41581.095    441312.44 
Loop time of 16.5511 on 1 procs for 172 steps with 19652 atoms

Performance: 0.898 ns/day, 26.730 hours/ns, 10.392 timesteps/s
100.0% CPU use with 1 MPI tasks x no OpenMP threads

MPI task timing breakdown:
Section |  min time  |  avg time  |  max time  |%varavg| %total
---------------------------------------------------------------
Pair    | 8.1805     | 8.1805     | 8.1805     |   0.0 | 49.43
Neigh   | 8.0213     | 8.0213     | 8.0213     |   0.0 | 48.46
Comm    | 0.12626    | 0.12626    | 0.12626    |   0.0 |  0.76
Output  | 0.00012708 | 0.00012708 | 0.00012708 |   0.0 |  0.00
Modify  | 0.17697    | 0.17697    | 0.17697    |   0.0 |  1.07
Other   |            | 0.04594    |            |       |  0.28

Nlocal:    19652 ave 19652 max 19652 min
Histogram: 1 0 0 0 0 0 0 0 0 0
Nghost:    16357 ave 16357 max 16357 min
Histogram: 1 0 0 0 0 0 0 0 0 0
Neighs:    1.12028e+06 ave 1.12028e+06 max 1.12028e+06 min
Histogram: 1 0 0 0 0 0 0 0 0 0

Total # of neighbors = 1120281
Ave neighs/atom = 57.006
Neighbor list builds = 172
Dangerous builds not checked
Setting up Verlet run ...
  Unit style    : metal
  Current step  : 44002
  Time step     : 0.001
Per MPI rank memory allocation (min/avg/max) = 18.2 | 18.2 | 18.2 Mbytes
Step Temp Press TotEng PotEng Enthalpy Volume 
   44002    2139.9579   -847.13137   -41347.757   -46783.445   -41581.095    441312.44 
   44022      2139.73   -778.83375   -41346.751    -46781.86   -41561.269       441296 
   44497     2111.908    229.83641   -41568.879   -46933.317   -41506.021    438178.97 
Loop time of 48.2501 on 1 procs for 495 steps with 19652 atoms

Performance: 0.886 ns/day, 27.076 hours/ns, 10.259 timesteps/s
99.9% CPU use with 1 MPI tasks x no OpenMP threads

MPI task timing breakdown:
Section |  min time  |  avg time  |  max time  |%varavg| %total
---------------------------------------------------------------
Pair    | 23.791     | 23.791     | 23.791     |   0.0 | 49.31
Neigh   | 23.39      | 23.39      | 23.39      |   0.0 | 48.48
Comm    | 0.3686     | 0.3686     | 0.3686     |   0.0 |  0.76
Output  | 0.06768    | 0.06768    | 0.06768    |   0.0 |  0.14
Modify  | 0.50055    | 0.50055    | 0.50055    |   0.0 |  1.04
Other   |            | 0.132      |            |       |  0.27

Nlocal:    19652 ave 19652 max 19652 min
Histogram: 1 0 0 0 0 0 0 0 0 0
Nghost:    16393 ave 16393 max 16393 min
Histogram: 1 0 0 0 0 0 0 0 0 0
Neighs:    1.12852e+06 ave 1.12852e+06 max 1.12852e+06 min
Histogram: 1 0 0 0 0 0 0 0 0 0

Total # of neighbors = 1128522
Ave neighs/atom = 57.4253
Neighbor list builds = 495
Dangerous builds not checked
Setting up Verlet run ...
  Unit style    : metal
  Current step  : 44497
  Time step     : 0.001
Per MPI rank memory allocation (min/avg/max) = 18.2 | 18.2 | 18.2 Mbytes
Step Temp Press TotEng PotEng Enthalpy Volume 
   44497     2111.908    229.83641   -41568.879   -46933.317   -41506.021    438178.97 
   44669    2076.5023    391.76776   -41629.797   -46904.302   -41522.599    438396.34 
Loop time of 15.9478 on 1 procs for 172 steps with 19652 atoms

Performance: 0.932 ns/day, 25.755 hours/ns, 10.785 timesteps/s
100.0% CPU use with 1 MPI tasks x no OpenMP threads

MPI task timing breakdown:
Section |  min time  |  avg time  |  max time  |%varavg| %total
---------------------------------------------------------------
Pair    | 7.8688     | 7.8688     | 7.8688     |   0.0 | 49.34
Neigh   | 7.7489     | 7.7489     | 7.7489     |   0.0 | 48.59
Comm    | 0.1195     | 0.1195     | 0.1195     |   0.0 |  0.75
Output  | 0.0001471  | 0.0001471  | 0.0001471  |   0.0 |  0.00
Modify  | 0.16659    | 0.16659    | 0.16659    |   0.0 |  1.04
Other   |            | 0.04372    |            |       |  0.27

Nlocal:    19652 ave 19652 max 19652 min
Histogram: 1 0 0 0 0 0 0 0 0 0
Nghost:    16380 ave 16380 max 16380 min
Histogram: 1 0 0 0 0 0 0 0 0 0
Neighs:    1.12801e+06 ave 1.12801e+06 max 1.12801e+06 min
Histogram: 1 0 0 0 0 0 0 0 0 0

Total # of neighbors = 1128007
Ave neighs/atom = 57.3991
Neighbor list builds = 172
Dangerous builds not checked
Setting up Verlet run ...
  Unit style    : metal
  Current step  : 44669
  Time step     : 0.001
Per MPI rank memory allocation (min/avg/max) = 18.2 | 18.2 | 18.2 Mbytes
Step Temp Press TotEng PotEng Enthalpy Volume 
   44669    2076.5023    391.76776   -41629.797   -46904.302   -41522.599    438396.34 
   44689    2092.2049   -167.85625    -41627.99   -46942.381    -41673.92     438400.7 
   45164    2058.2203    491.30143   -41884.791   -47112.858   -41751.602    434340.76 
Loop time of 48.3926 on 1 procs for 495 steps with 19652 atoms

Performance: 0.884 ns/day, 27.156 hours/ns, 10.229 timesteps/s
99.9% CPU use with 1 MPI tasks x no OpenMP threads

MPI task timing breakdown:
Section |  min time  |  avg time  |  max time  |%varavg| %total
---------------------------------------------------------------
Pair    | 23.968     | 23.968     | 23.968     |   0.0 | 49.53
Neigh   | 23.347     | 23.347     | 23.347     |   0.0 | 48.25
Comm    | 0.36924    | 0.36924    | 0.36924    |   0.0 |  0.76
Output  | 0.066457   | 0.066457   | 0.066457   |   0.0 |  0.14
Modify  | 0.50735    | 0.50735    | 0.50735    |   0.0 |  1.05
Other   |            | 0.1341     |            |       |  0.28

Nlocal:    19652 ave 19652 max 19652 min
Histogram: 1 0 0 0 0 0 0 0 0 0
Nghost:    16445 ave 16445 max 16445 min
Histogram: 1 0 0 0 0 0 0 0 0 0
Neighs:    1.13868e+06 ave 1.13868e+06 max 1.13868e+06 min
Histogram: 1 0 0 0 0 0 0 0 0 0

Total # of neighbors = 1138679
Ave neighs/atom = 57.9421
Neighbor list builds = 495
Dangerous builds not checked
Setting up Verlet run ...
  Unit style    : metal
  Current step  : 45164
  Time step     : 0.001
Per MPI rank memory allocation (min/avg/max) = 18.2 | 18.2 | 18.2 Mbytes
Step Temp Press TotEng PotEng Enthalpy Volume 
   45164    2058.2203    491.30143   -41884.791   -47112.858   -41751.602    434340.76 
   45336    2045.6449    -365.4904   -41968.085   -47164.209   -42067.154    434281.27 
Loop time of 17.0085 on 1 procs for 172 steps with 19652 atoms

Performance: 0.874 ns/day, 27.468 hours/ns, 10.113 timesteps/s
100.0% CPU use with 1 MPI tasks x no OpenMP threads

MPI task timing breakdown:
Section |  min time  |  avg time  |  max time  |%varavg| %total
---------------------------------------------------------------
Pair    | 8.4807     | 8.4807     | 8.4807     |   0.0 | 49.86
Neigh   | 8.1715     | 8.1715     | 8.1715     |   0.0 | 48.04
Comm    | 0.12951    | 0.12951    | 0.12951    |   0.0 |  0.76
Output  | 0.00012183 | 0.00012183 | 0.00012183 |   0.0 |  0.00
Modify  | 0.17936    | 0.17936    | 0.17936    |   0.0 |  1.05
Other   |            | 0.04722    |            |       |  0.28

Nlocal:    19652 ave 19652 max 19652 min
Histogram: 1 0 0 0 0 0 0 0 0 0
Nghost:    16475 ave 16475 max 16475 min
Histogram: 1 0 0 0 0 0 0 0 0 0
Neighs:    1.13947e+06 ave 1.13947e+06 max 1.13947e+06 min
Histogram: 1 0 0 0 0 0 0 0 0 0

Total # of neighbors = 1139470
Ave neighs/atom = 57.9824
Neighbor list builds = 172
Dangerous builds not checked
Setting up Verlet run ...
  Unit style    : metal
  Current step  : 45336
  Time step     : 0.001
Per MPI rank memory allocation (min/avg/max) = 18.2 | 18.2 | 18.2 Mbytes
Step Temp Press TotEng PotEng Enthalpy Volume 
   45336    2045.6449    -365.4904   -41968.085   -47164.209   -42067.154    434281.27 
   45356    2056.3512   -644.65086   -41968.113   -47191.433   -42142.847    434271.68 
   45831    2021.2489   -34.829103   -42212.412   -47346.568   -42221.778    430868.67 
Loop time of 48.1374 on 1 procs for 495 steps with 19652 atoms

Performance: 0.888 ns/day, 27.013 hours/ns, 10.283 timesteps/s
100.0% CPU use with 1 MPI tasks x no OpenMP threads

MPI task timing breakdown:
Section |  min time  |  avg time  |  max time  |%varavg| %total
---------------------------------------------------------------
Pair    | 23.786     | 23.786     | 23.786     |   0.0 | 49.41
Neigh   | 23.287     | 23.287     | 23.287     |   0.0 | 48.38
Comm    | 0.36472    | 0.36472    | 0.36472    |   0.0 |  0.76
Output  | 0.06572    | 0.06572    | 0.06572    |   0.0 |  0.14
Modify  | 0.50114    | 0.50114    | 0.50114    |   0.0 |  1.04
Other   |            | 0.1322     |            |       |  0.27

Nlocal:    19652 ave 19652 max 19652 min
Histogram: 1 0 0 0 0 0 0 0 0 0
Nghost:    16400 ave 16400 max 16400 min
Histogram: 1 0 0 0 0 0 0 0 0 0
Neighs:    1.1484e+06 ave 1.1484e+06 max 1.1484e+06 min
Histogram: 1 0 0 0 0 0 0 0 0 0

Total # of neighbors = 1148403
Ave neighs/atom = 58.437
Neighbor list builds = 495
Dangerous builds not checked
Setting up Verlet run ...
  Unit style    : metal
  Current step  : 45831
  Time step     : 0.001
Per MPI rank memory allocation (min/avg/max) = 18.2 | 18.2 | 18.2 Mbytes
Step Temp Press TotEng PotEng Enthalpy Volume 
   45831    2021.2489   -34.829103   -42212.412   -47346.568   -42221.778    430868.67 
   46003     1997.288    5.1277494   -42298.303   -47371.597   -42296.924    430819.52 
Loop time of 16.4922 on 1 procs for 172 steps with 19652 atoms

Performance: 0.901 ns/day, 26.635 hours/ns, 10.429 timesteps/s
99.2% CPU use with 1 MPI tasks x no OpenMP threads

MPI task timing breakdown:
Section |  min time  |  avg time  |  max time  |%varavg| %total
---------------------------------------------------------------
Pair    | 8.1052     | 8.1052     | 8.1052     |   0.0 | 49.15
Neigh   | 8.043      | 8.043      | 8.043      |   0.0 | 48.77
Comm    | 0.12423    | 0.12423    | 0.12423    |   0.0 |  0.75
Output  | 0.00012493 | 0.00012493 | 0.00012493 |   0.0 |  0.00
Modify  | 0.17368    | 0.17368    | 0.17368    |   0.0 |  1.05
Other   |            | 0.04599    |            |       |  0.28

Nlocal:    19652 ave 19652 max 19652 min
Histogram: 1 0 0 0 0 0 0 0 0 0
Nghost:    16499 ave 16499 max 16499 min
Histogram: 1 0 0 0 0 0 0 0 0 0
Neighs:    1.14825e+06 ave 1.14825e+06 max 1.14825e+06 min
Histogram: 1 0 0 0 0 0 0 0 0 0

Total # of neighbors = 1148253
Ave neighs/atom = 58.4293
Neighbor list builds = 172
Dangerous builds not checked
Setting up Verlet run ...
  Unit style    : metal
  Current step  : 46003
  Time step     : 0.001
Per MPI rank memory allocation (min/avg/max) = 18.2 | 18.2 | 18.2 Mbytes
Step Temp Press TotEng PotEng Enthalpy Volume 
   46003     1997.288    5.1277494   -42298.303   -47371.597   -42296.924    430819.52 
   46023    1994.9992   -5.0028811    -42298.06    -47365.54   -42299.406    430819.33 
   46498    1961.8771    593.03631   -42520.836   -47504.182   -42362.296    428318.13 
Loop time of 48.986 on 1 procs for 495 steps with 19652 atoms

Performance: 0.873 ns/day, 27.489 hours/ns, 10.105 timesteps/s
100.0% CPU use with 1 MPI tasks x no OpenMP threads

MPI task timing breakdown:
Section |  min time  |  avg time  |  max time  |%varavg| %total
---------------------------------------------------------------
Pair    | 24.316     | 24.316     | 24.316     |   0.0 | 49.64
Neigh   | 23.601     | 23.601     | 23.601     |   0.0 | 48.18
Comm    | 0.37046    | 0.37046    | 0.37046    |   0.0 |  0.76
Output  | 0.062602   | 0.062602   | 0.062602   |   0.0 |  0.13
Modify  | 0.50306    | 0.50306    | 0.50306    |   0.0 |  1.03
Other   |            | 0.1333     |            |       |  0.27

Nlocal:    19652 ave 19652 max 19652 min
Histogram: 1 0 0 0 0 0 0 0 0 0
Nghost:    16537 ave 16537 max 16537 min
Histogram: 1 0 0 0 0 0 0 0 0 0
Neighs:    1.15503e+06 ave 1.15503e+06 max 1.15503e+06 min
Histogram: 1 0 0 0 0 0 0 0 0 0

Total # of neighbors = 1155033
Ave neighs/atom = 58.7743
Neighbor list builds = 495
Dangerous builds not checked
Setting up Verlet run ...
  Unit style    : metal
  Current step  : 46498
  Time step     : 0.001
Per MPI rank memory allocation (min/avg/max) = 18.2 | 18.2 | 18.2 Mbytes
Step Temp Press TotEng PotEng Enthalpy Volume 
   46498    1961.8771    593.03631   -42520.836   -47504.182   -42362.296    428318.13 
   46670    1937.1404   -497.89875   -42592.058   -47512.571   -42725.256    428614.42 
Loop time of 18.1899 on 1 procs for 172 steps with 19652 atoms

Performance: 0.817 ns/day, 29.376 hours/ns, 9.456 timesteps/s
100.0% CPU use with 1 MPI tasks x no OpenMP threads

MPI task timing breakdown:
Section |  min time  |  avg time  |  max time  |%varavg| %total
---------------------------------------------------------------
Pair    | 9.1379     | 9.1379     | 9.1379     |   0.0 | 50.24
Neigh   | 8.6585     | 8.6585     | 8.6585     |   0.0 | 47.60
Comm    | 0.14082    | 0.14082    | 0.14082    |   0.0 |  0.77
Output  | 0.00014091 | 0.00014091 | 0.00014091 |   0.0 |  0.00
Modify  | 0.2014     | 0.2014     | 0.2014     |   0.0 |  1.11
Other   |            | 0.05107    |            |       |  0.28

Nlocal:    19652 ave 19652 max 19652 min
Histogram: 1 0 0 0 0 0 0 0 0 0
Nghost:    16566 ave 16566 max 16566 min
Histogram: 1 0 0 0 0 0 0 0 0 0
Neighs:    1.15388e+06 ave 1.15388e+06 max 1.15388e+06 min
Histogram: 1 0 0 0 0 0 0 0 0 0

Total # of neighbors = 1153885
Ave neighs/atom = 58.7159
Neighbor list builds = 172
Dangerous builds not checked
Setting up Verlet run ...
  Unit style    : metal
  Current step  : 46670
  Time step     : 0.001
Per MPI rank memory allocation (min/avg/max) = 18.2 | 18.2 | 18.2 Mbytes
Step Temp Press TotEng PotEng Enthalpy Volume 
   46670    1937.1404   -497.89875   -42592.058   -47512.571   -42725.256    428614.42 
   46690    1950.7058   -1020.7009   -42591.228   -47546.199   -42864.277     428600.5 
   47165    1912.0583    345.94336   -42840.569   -47697.372   -42748.687    425538.91 
Loop time of 48.0927 on 1 procs for 495 steps with 19652 atoms

Performance: 0.889 ns/day, 26.988 hours/ns, 10.293 timesteps/s
99.6% CPU use with 1 MPI tasks x no OpenMP threads

MPI task timing breakdown:
Section |  min time  |  avg time  |  max time  |%varavg| %total
---------------------------------------------------------------
Pair    | 23.891     | 23.891     | 23.891     |   0.0 | 49.68
Neigh   | 23.117     | 23.117     | 23.117     |   0.0 | 48.07
Comm    | 0.36559    | 0.36559    | 0.36559    |   0.0 |  0.76
Output  | 0.087736   | 0.087736   | 0.087736   |   0.0 |  0.18
Modify  | 0.49986    | 0.49986    | 0.49986    |   0.0 |  1.04
Other   |            | 0.1323     |            |       |  0.28

Nlocal:    19652 ave 19652 max 19652 min
Histogram: 1 0 0 0 0 0 0 0 0 0
Nghost:    16593 ave 16593 max 16593 min
Histogram: 1 0 0 0 0 0 0 0 0 0
Neighs:    1.16278e+06 ave 1.16278e+06 max 1.16278e+06 min
Histogram: 1 0 0 0 0 0 0 0 0 0

Total # of neighbors = 1162781
Ave neighs/atom = 59.1686
Neighbor list builds = 495
Dangerous builds not checked
Setting up Verlet run ...
  Unit style    : metal
  Current step  : 47165
  Time step     : 0.001
Per MPI rank memory allocation (min/avg/max) = 18.2 | 18.2 | 18.2 Mbytes
Step Temp Press TotEng PotEng Enthalpy Volume 
   47165    1912.0583    345.94336   -42840.569   -47697.372   -42748.687    425538.91 
   47337    1896.9897   -520.35402   -42913.386   -47731.913   -43051.543    425385.12 
Loop time of 15.9936 on 1 procs for 172 steps with 19652 atoms

Performance: 0.929 ns/day, 25.829 hours/ns, 10.754 timesteps/s
100.0% CPU use with 1 MPI tasks x no OpenMP threads

MPI task timing breakdown:
Section |  min time  |  avg time  |  max time  |%varavg| %total
---------------------------------------------------------------
Pair    | 7.9645     | 7.9645     | 7.9645     |   0.0 | 49.80
Neigh   | 7.7007     | 7.7007     | 7.7007     |   0.0 | 48.15
Comm    | 0.11989    | 0.11989    | 0.11989    |   0.0 |  0.75
Output  | 0.00011992 | 0.00011992 | 0.00011992 |   0.0 |  0.00
Modify  | 0.16484    | 0.16484    | 0.16484    |   0.0 |  1.03
Other   |            | 0.04356    |            |       |  0.27

Nlocal:    19652 ave 19652 max 19652 min
Histogram: 1 0 0 0 0 0 0 0 0 0
Nghost:    16597 ave 16597 max 16597 min
Histogram: 1 0 0 0 0 0 0 0 0 0
Neighs:    1.16373e+06 ave 1.16373e+06 max 1.16373e+06 min
Histogram: 1 0 0 0 0 0 0 0 0 0

Total # of neighbors = 1163734
Ave neighs/atom = 59.2171
Neighbor list builds = 172
Dangerous builds not checked
Setting up Verlet run ...
  Unit style    : metal
  Current step  : 47337
  Time step     : 0.001
Per MPI rank memory allocation (min/avg/max) = 18.2 | 18.2 | 18.2 Mbytes
Step Temp Press TotEng PotEng Enthalpy Volume 
   47337    1896.9897   -520.35402   -42913.386   -47731.913   -43051.543    425385.12 
   47357    1893.4531   -341.54721   -42912.978   -47722.521   -43003.658    425375.53 
   47832    1865.5739    484.68329   -43128.174   -47866.902   -43000.368    422478.41 
Loop time of 48.1994 on 1 procs for 495 steps with 19652 atoms

Performance: 0.887 ns/day, 27.048 hours/ns, 10.270 timesteps/s
99.9% CPU use with 1 MPI tasks x no OpenMP threads

MPI task timing breakdown:
Section |  min time  |  avg time  |  max time  |%varavg| %total
---------------------------------------------------------------
Pair    | 24.009     | 24.009     | 24.009     |   0.0 | 49.81
Neigh   | 23.132     | 23.132     | 23.132     |   0.0 | 47.99
Comm    | 0.36874    | 0.36874    | 0.36874    |   0.0 |  0.77
Output  | 0.067799   | 0.067799   | 0.067799   |   0.0 |  0.14
Modify  | 0.49161    | 0.49161    | 0.49161    |   0.0 |  1.02
Other   |            | 0.1303     |            |       |  0.27

Nlocal:    19652 ave 19652 max 19652 min
Histogram: 1 0 0 0 0 0 0 0 0 0
Nghost:    16603 ave 16603 max 16603 min
Histogram: 1 0 0 0 0 0 0 0 0 0
Neighs:    1.17225e+06 ave 1.17225e+06 max 1.17225e+06 min
Histogram: 1 0 0 0 0 0 0 0 0 0

Total # of neighbors = 1172249
Ave neighs/atom = 59.6504
Neighbor list builds = 495
Dangerous builds not checked
Setting up Verlet run ...
  Unit style    : metal
  Current step  : 47832
  Time step     : 0.001
Per MPI rank memory allocation (min/avg/max) = 18.2 | 18.2 | 18.2 Mbytes
Step Temp Press TotEng PotEng Enthalpy Volume 
   47832    1865.5739    484.68329   -43128.174   -47866.902   -43000.368    422478.41 
   48004    1845.1906  -0.21501842   -43214.899   -47901.851   -43214.956    422333.02 
Loop time of 16.9977 on 1 procs for 172 steps with 19652 atoms

Performance: 0.874 ns/day, 27.451 hours/ns, 10.119 timesteps/s
100.0% CPU use with 1 MPI tasks x no OpenMP threads

MPI task timing breakdown:
Section |  min time  |  avg time  |  max time  |%varavg| %total
---------------------------------------------------------------
Pair    | 8.5413     | 8.5413     | 8.5413     |   0.0 | 50.25
Neigh   | 8.1043     | 8.1043     | 8.1043     |   0.0 | 47.68
Comm    | 0.12792    | 0.12792    | 0.12792    |   0.0 |  0.75
Output  | 0.00011897 | 0.00011897 | 0.00011897 |   0.0 |  0.00
Modify  | 0.17727    | 0.17727    | 0.17727    |   0.0 |  1.04
Other   |            | 0.04686    |            |       |  0.28

Nlocal:    19652 ave 19652 max 19652 min
Histogram: 1 0 0 0 0 0 0 0 0 0
Nghost:    16660 ave 16660 max 16660 min
Histogram: 1 0 0 0 0 0 0 0 0 0
Neighs:    1.17248e+06 ave 1.17248e+06 max 1.17248e+06 min
Histogram: 1 0 0 0 0 0 0 0 0 0

Total # of neighbors = 1172483
Ave neighs/atom = 59.6623
Neighbor list builds = 172
Dangerous builds not checked
Setting up Verlet run ...
  Unit style    : metal
  Current step  : 48004
  Time step     : 0.001
Per MPI rank memory allocation (min/avg/max) = 18.2 | 18.2 | 18.2 Mbytes
Step Temp Press TotEng PotEng Enthalpy Volume 
   48004    1845.1906  -0.21501842   -43214.899   -47901.851   -43214.956    422333.02 
   48024    1850.3908   -16.775596   -43214.661   -47914.822   -43219.083    422332.93 
   48499    1814.1497    514.90203    -43432.22   -48040.326    -43297.35    419662.82 
Loop time of 47.5372 on 1 procs for 495 steps with 19652 atoms

Performance: 0.900 ns/day, 26.676 hours/ns, 10.413 timesteps/s
99.7% CPU use with 1 MPI tasks x no OpenMP threads

MPI task timing breakdown:
Section |  min time  |  avg time  |  max time  |%varavg| %total
---------------------------------------------------------------
Pair    | 23.67      | 23.67      | 23.67      |   0.0 | 49.79
Neigh   | 22.837     | 22.837     | 22.837     |   0.0 | 48.04
Comm    | 0.35377    | 0.35377    | 0.35377    |   0.0 |  0.74
Output  | 0.067447   | 0.067447   | 0.067447   |   0.0 |  0.14
Modify  | 0.48121    | 0.48121    | 0.48121    |   0.0 |  1.01
Other   |            | 0.1276     |            |       |  0.27

Nlocal:    19652 ave 19652 max 19652 min
Histogram: 1 0 0 0 0 0 0 0 0 0
Nghost:    16691 ave 16691 max 16691 min
Histogram: 1 0 0 0 0 0 0 0 0 0
Neighs:    1.17984e+06 ave 1.17984e+06 max 1.17984e+06 min
Histogram: 1 0 0 0 0 0 0 0 0 0

Total # of neighbors = 1179843
Ave neighs/atom = 60.0368
Neighbor list builds = 495
Dangerous builds not checked
Setting up Verlet run ...
  Unit style    : metal
  Current step  : 48499
  Time step     : 0.001
Per MPI rank memory allocation (min/avg/max) = 18.2 | 18.2 | 18.2 Mbytes
Step Temp Press TotEng PotEng Enthalpy Volume 
   48499    1814.1497    514.90203    -43432.22   -48040.326    -43297.35    419662.82 
   48671    1803.9084   -539.13637   -43516.047   -48098.139   -43657.236    419578.29 
Loop time of 16.3532 on 1 procs for 172 steps with 19652 atoms

Performance: 0.909 ns/day, 26.410 hours/ns, 10.518 timesteps/s
99.3% CPU use with 1 MPI tasks x no OpenMP threads

MPI task timing breakdown:
Section |  min time  |  avg time  |  max time  |%varavg| %total
---------------------------------------------------------------
Pair    | 8.2137     | 8.2137     | 8.2137     |   0.0 | 50.23
Neigh   | 7.8057     | 7.8057     | 7.8057     |   0.0 | 47.73
Comm    | 0.12071    | 0.12071    | 0.12071    |   0.0 |  0.74
Output  | 0.00012088 | 0.00012088 | 0.00012088 |   0.0 |  0.00
Modify  | 0.16825    | 0.16825    | 0.16825    |   0.0 |  1.03
Other   |            | 0.04467    |            |       |  0.27

Nlocal:    19652 ave 19652 max 19652 min
Histogram: 1 0 0 0 0 0 0 0 0 0
Nghost:    16637 ave 16637 max 16637 min
Histogram: 1 0 0 0 0 0 0 0 0 0
Neighs:    1.1805e+06 ave 1.1805e+06 max 1.1805e+06 min
Histogram: 1 0 0 0 0 0 0 0 0 0

Total # of neighbors = 1180496
Ave neighs/atom = 60.07
Neighbor list builds = 172
Dangerous builds not checked
Setting up Verlet run ...
  Unit style    : metal
  Current step  : 48671
  Time step     : 0.001
Per MPI rank memory allocation (min/avg/max) = 18.2 | 18.2 | 18.2 Mbytes
Step Temp Press TotEng PotEng Enthalpy Volume 
   48671    1803.9084   -539.13637   -43516.047   -48098.139   -43657.236    419578.29 
   48691    1802.8664   -513.57468   -43516.453   -48095.898   -43650.944    419566.86 
   49166    1762.5944   -337.39071   -43751.976   -48229.127   -43839.926    417648.57 
Loop time of 49.1231 on 1 procs for 495 steps with 19652 atoms

Performance: 0.871 ns/day, 27.566 hours/ns, 10.077 timesteps/s
99.9% CPU use with 1 MPI tasks x no OpenMP threads

MPI task timing breakdown:
Section |  min time  |  avg time  |  max time  |%varavg| %total
---------------------------------------------------------------
Pair    | 24.679     | 24.679     | 24.679     |   0.0 | 50.24
Neigh   | 23.376     | 23.376     | 23.376     |   0.0 | 47.59
Comm    | 0.36665    | 0.36665    | 0.36665    |   0.0 |  0.75
Output  | 0.066532   | 0.066532   | 0.066532   |   0.0 |  0.14
Modify  | 0.50166    | 0.50166    | 0.50166    |   0.0 |  1.02
Other   |            | 0.1332     |            |       |  0.27

Nlocal:    19652 ave 19652 max 19652 min
Histogram: 1 0 0 0 0 0 0 0 0 0
Nghost:    16671 ave 16671 max 16671 min
Histogram: 1 0 0 0 0 0 0 0 0 0
Neighs:    1.18647e+06 ave 1.18647e+06 max 1.18647e+06 min
Histogram: 1 0 0 0 0 0 0 0 0 0

Total # of neighbors = 1186474
Ave neighs/atom = 60.3742
Neighbor list builds = 495
Dangerous builds not checked
Setting up Verlet run ...
  Unit style    : metal
  Current step  : 49166
  Time step     : 0.001
Per MPI rank memory allocation (min/avg/max) = 18.2 | 18.2 | 18.2 Mbytes
Step Temp Press TotEng PotEng Enthalpy Volume 
   49166    1762.5944   -337.39071   -43751.976   -48229.127   -43839.926    417648.57 
   49338    1757.4004   -126.17306   -43829.109   -48293.066   -43861.916    416585.66 
Loop time of 16.0559 on 1 procs for 172 steps with 19652 atoms

Performance: 0.926 ns/day, 25.930 hours/ns, 10.713 timesteps/s
100.0% CPU use with 1 MPI tasks x no OpenMP threads

MPI task timing breakdown:
Section |  min time  |  avg time  |  max time  |%varavg| %total
---------------------------------------------------------------
Pair    | 8.0415     | 8.0415     | 8.0415     |   0.0 | 50.08
Neigh   | 7.6882     | 7.6882     | 7.6882     |   0.0 | 47.88
Comm    | 0.11901    | 0.11901    | 0.11901    |   0.0 |  0.74
Output  | 0.00012207 | 0.00012207 | 0.00012207 |   0.0 |  0.00
Modify  | 0.16381    | 0.16381    | 0.16381    |   0.0 |  1.02
Other   |            | 0.0433     |            |       |  0.27

Nlocal:    19652 ave 19652 max 19652 min
Histogram: 1 0 0 0 0 0 0 0 0 0
Nghost:    16777 ave 16777 max 16777 min
Histogram: 1 0 0 0 0 0 0 0 0 0
Neighs:    1.1894e+06 ave 1.1894e+06 max 1.1894e+06 min
Histogram: 1 0 0 0 0 0 0 0 0 0

Total # of neighbors = 1189405
Ave neighs/atom = 60.5234
Neighbor list builds = 172
Dangerous builds not checked
Setting up Verlet run ...
  Unit style    : metal
  Current step  : 49338
  Time step     : 0.001
Per MPI rank memory allocation (min/avg/max) = 18.2 | 18.2 | 18.2 Mbytes
Step Temp Press TotEng PotEng Enthalpy Volume 
   49338    1757.4004   -126.17306   -43829.109   -48293.066   -43861.916    416585.66 
   49358    1760.1317   -179.22565   -43830.121   -48301.016   -43876.721    416581.92 
   49833    1720.9991   -552.92457   -44020.108   -48391.602   -44163.493    415477.08 
Loop time of 52.1591 on 1 procs for 495 steps with 19652 atoms

Performance: 0.820 ns/day, 29.270 hours/ns, 9.490 timesteps/s
99.9% CPU use with 1 MPI tasks x no OpenMP threads

MPI task timing breakdown:
Section |  min time  |  avg time  |  max time  |%varavg| %total
---------------------------------------------------------------
Pair    | 26.348     | 26.348     | 26.348     |   0.0 | 50.52
Neigh   | 24.675     | 24.675     | 24.675     |   0.0 | 47.31
Comm    | 0.39738    | 0.39738    | 0.39738    |   0.0 |  0.76
Output  | 0.060788   | 0.060788   | 0.060788   |   0.0 |  0.12
Modify  | 0.53517    | 0.53517    | 0.53517    |   0.0 |  1.03
Other   |            | 0.1426     |            |       |  0.27

Nlocal:    19652 ave 19652 max 19652 min
Histogram: 1 0 0 0 0 0 0 0 0 0
Nghost:    16748 ave 16748 max 16748 min
Histogram: 1 0 0 0 0 0 0 0 0 0
Neighs:    1.19252e+06 ave 1.19252e+06 max 1.19252e+06 min
Histogram: 1 0 0 0 0 0 0 0 0 0

Total # of neighbors = 1192517
Ave neighs/atom = 60.6817
Neighbor list builds = 495
Dangerous builds not checked
Setting up Verlet run ...
  Unit style    : metal
  Current step  : 49833
  Time step     : 0.001
Per MPI rank memory allocation (min/avg/max) = 18.2 | 18.2 | 18.2 Mbytes
Step Temp Press TotEng PotEng Enthalpy Volume 
   49833    1720.9991   -552.92457   -44020.108   -48391.602   -44163.493    415477.08 
   50005    1705.8468   -648.02846   -44093.113   -48426.119   -44260.864    414744.35 
Loop time of 17.3826 on 1 procs for 172 steps with 19652 atoms

Performance: 0.855 ns/day, 28.073 hours/ns, 9.895 timesteps/s
100.0% CPU use with 1 MPI tasks x no OpenMP threads

MPI task timing breakdown:
Section |  min time  |  avg time  |  max time  |%varavg| %total
---------------------------------------------------------------
Pair    | 8.8037     | 8.8037     | 8.8037     |   0.0 | 50.65
Neigh   | 8.2199     | 8.2199     | 8.2199     |   0.0 | 47.29
Comm    | 0.1316     | 0.1316     | 0.1316     |   0.0 |  0.76
Output  | 0.00011802 | 0.00011802 | 0.00011802 |   0.0 |  0.00
Modify  | 0.17978    | 0.17978    | 0.17978    |   0.0 |  1.03
Other   |            | 0.04757    |            |       |  0.27

Nlocal:    19652 ave 19652 max 19652 min
Histogram: 1 0 0 0 0 0 0 0 0 0
Nghost:    16666 ave 16666 max 16666 min
Histogram: 1 0 0 0 0 0 0 0 0 0
Neighs:    1.19536e+06 ave 1.19536e+06 max 1.19536e+06 min
Histogram: 1 0 0 0 0 0 0 0 0 0

Total # of neighbors = 1195361
Ave neighs/atom = 60.8264
Neighbor list builds = 172
Dangerous builds not checked
Setting up Verlet run ...
  Unit style    : metal
  Current step  : 50005
  Time step     : 0.001
Per MPI rank memory allocation (min/avg/max) = 18.2 | 18.2 | 18.2 Mbytes
Step Temp Press TotEng PotEng Enthalpy Volume 
   50005    1705.8468   -648.02846   -44093.113   -48426.119   -44260.864    414744.35 
   50025    1710.6645   -908.91875   -44093.989   -48439.233   -44329.265    414727.55 
   50500    1668.8116    -618.6004   -44365.503   -48604.437   -44524.713    412353.21 
Loop time of 51.2768 on 1 procs for 495 steps with 19652 atoms

Performance: 0.834 ns/day, 28.775 hours/ns, 9.653 timesteps/s
99.9% CPU use with 1 MPI tasks x no OpenMP threads

MPI task timing breakdown:
Section |  min time  |  avg time  |  max time  |%varavg| %total
---------------------------------------------------------------
Pair    | 25.913     | 25.913     | 25.913     |   0.0 | 50.54
Neigh   | 24.255     | 24.255     | 24.255     |   0.0 | 47.30
Comm    | 0.38683    | 0.38683    | 0.38683    |   0.0 |  0.75
Output  | 0.061482   | 0.061482   | 0.061482   |   0.0 |  0.12
Modify  | 0.52248    | 0.52248    | 0.52248    |   0.0 |  1.02
Other   |            | 0.1382     |            |       |  0.27

Nlocal:    19652 ave 19652 max 19652 min
Histogram: 1 0 0 0 0 0 0 0 0 0
Nghost:    16802 ave 16802 max 16802 min
Histogram: 1 0 0 0 0 0 0 0 0 0
Neighs:    1.20196e+06 ave 1.20196e+06 max 1.20196e+06 min
Histogram: 1 0 0 0 0 0 0 0 0 0

Total # of neighbors = 1201958
Ave neighs/atom = 61.1621
Neighbor list builds = 495
Dangerous builds not checked
Setting up Verlet run ...
  Unit style    : metal
  Current step  : 50500
  Time step     : 0.001
Per MPI rank memory allocation (min/avg/max) = 18.2 | 18.2 | 18.2 Mbytes
Step Temp Press TotEng PotEng Enthalpy Volume 
   50500    1668.8116    -618.6004   -44365.503   -48604.437   -44524.713    412353.21 
   50672     1652.259   -472.49318   -44431.263   -48628.151   -44552.712    411820.94 
Loop time of 18.2227 on 1 procs for 172 steps with 19652 atoms

Performance: 0.816 ns/day, 29.429 hours/ns, 9.439 timesteps/s
99.7% CPU use with 1 MPI tasks x no OpenMP threads

MPI task timing breakdown:
Section |  min time  |  avg time  |  max time  |%varavg| %total
---------------------------------------------------------------
Pair    | 9.2458     | 9.2458     | 9.2458     |   0.0 | 50.74
Neigh   | 8.6008     | 8.6008     | 8.6008     |   0.0 | 47.20
Comm    | 0.13827    | 0.13827    | 0.13827    |   0.0 |  0.76
Output  | 0.00011086 | 0.00011086 | 0.00011086 |   0.0 |  0.00
Modify  | 0.18723    | 0.18723    | 0.18723    |   0.0 |  1.03
Other   |            | 0.05047    |            |       |  0.28

Nlocal:    19652 ave 19652 max 19652 min
Histogram: 1 0 0 0 0 0 0 0 0 0
Nghost:    16873 ave 16873 max 16873 min
Histogram: 1 0 0 0 0 0 0 0 0 0
Neighs:    1.2039e+06 ave 1.2039e+06 max 1.2039e+06 min
Histogram: 1 0 0 0 0 0 0 0 0 0

Total # of neighbors = 1203900
Ave neighs/atom = 61.2609
Neighbor list builds = 172
Dangerous builds not checked
Setting up Verlet run ...
  Unit style    : metal
  Current step  : 50672
  Time step     : 0.001
Per MPI rank memory allocation (min/avg/max) = 18.2 | 18.2 | 18.2 Mbytes
Step Temp Press TotEng PotEng Enthalpy Volume 
   50672     1652.259   -472.49318   -44431.263   -48628.151   -44552.712    411820.94 
   50692    1658.6935    -648.4347   -44431.764   -48644.996   -44598.431    411808.92 
   51167    1611.0246   -128.95573   -44673.607   -48765.757   -44706.582    409685.91 
Loop time of 49.4638 on 1 procs for 495 steps with 19652 atoms

Performance: 0.865 ns/day, 27.757 hours/ns, 10.007 timesteps/s
99.9% CPU use with 1 MPI tasks x no OpenMP threads

MPI task timing breakdown:
Section |  min time  |  avg time  |  max time  |%varavg| %total
---------------------------------------------------------------
Pair    | 25.012     | 25.012     | 25.012     |   0.0 | 50.57
Neigh   | 23.378     | 23.378     | 23.378     |   0.0 | 47.26
Comm    | 0.36904    | 0.36904    | 0.36904    |   0.0 |  0.75
Output  | 0.068511   | 0.068511   | 0.068511   |   0.0 |  0.14
Modify  | 0.50288    | 0.50288    | 0.50288    |   0.0 |  1.02
Other   |            | 0.1335     |            |       |  0.27

Nlocal:    19652 ave 19652 max 19652 min
Histogram: 1 0 0 0 0 0 0 0 0 0
Nghost:    16853 ave 16853 max 16853 min
Histogram: 1 0 0 0 0 0 0 0 0 0
Neighs:    1.20962e+06 ave 1.20962e+06 max 1.20962e+06 min
Histogram: 1 0 0 0 0 0 0 0 0 0

Total # of neighbors = 1209616
Ave neighs/atom = 61.5518
Neighbor list builds = 495
Dangerous builds not checked
Setting up Verlet run ...
  Unit style    : metal
  Current step  : 51167
  Time step     : 0.001
Per MPI rank memory allocation (min/avg/max) = 18.2 | 18.2 | 18.2 Mbytes
Step Temp Press TotEng PotEng Enthalpy Volume 
   51167    1611.0246   -128.95573   -44673.607   -48765.757   -44706.582    409685.91 
   51339    1594.0224   -399.60187   -44726.874   -48775.836   -44829.044    409642.13 
Loop time of 18.1475 on 1 procs for 172 steps with 19652 atoms

Performance: 0.819 ns/day, 29.308 hours/ns, 9.478 timesteps/s
99.9% CPU use with 1 MPI tasks x no OpenMP threads

MPI task timing breakdown:
Section |  min time  |  avg time  |  max time  |%varavg| %total
---------------------------------------------------------------
Pair    | 9.284      | 9.284      | 9.284      |   0.0 | 51.16
Neigh   | 8.4907     | 8.4907     | 8.4907     |   0.0 | 46.79
Comm    | 0.13683    | 0.13683    | 0.13683    |   0.0 |  0.75
Output  | 0.00011086 | 0.00011086 | 0.00011086 |   0.0 |  0.00
Modify  | 0.18636    | 0.18636    | 0.18636    |   0.0 |  1.03
Other   |            | 0.04953    |            |       |  0.27

Nlocal:    19652 ave 19652 max 19652 min
Histogram: 1 0 0 0 0 0 0 0 0 0
Nghost:    16826 ave 16826 max 16826 min
Histogram: 1 0 0 0 0 0 0 0 0 0
Neighs:    1.20971e+06 ave 1.20971e+06 max 1.20971e+06 min
Histogram: 1 0 0 0 0 0 0 0 0 0

Total # of neighbors = 1209714
Ave neighs/atom = 61.5568
Neighbor list builds = 172
Dangerous builds not checked
Setting up Verlet run ...
  Unit style    : metal
  Current step  : 51339
  Time step     : 0.001
Per MPI rank memory allocation (min/avg/max) = 18.2 | 18.2 | 18.2 Mbytes
Step Temp Press TotEng PotEng Enthalpy Volume 
   51339    1594.0224   -399.60187   -44726.874   -48775.836   -44829.044    409642.13 
   51359    1595.1982   -414.69248   -44726.328   -48778.277   -44832.354    409632.78 
   51834    1566.2631    181.14324    -45001.74   -48980.191   -44955.797    406351.26 
Loop time of 50.4608 on 1 procs for 495 steps with 19652 atoms

Performance: 0.848 ns/day, 28.317 hours/ns, 9.810 timesteps/s
99.6% CPU use with 1 MPI tasks x no OpenMP threads

MPI task timing breakdown:
Section |  min time  |  avg time  |  max time  |%varavg| %total
---------------------------------------------------------------
Pair    | 25.523     | 25.523     | 25.523     |   0.0 | 50.58
Neigh   | 23.722     | 23.722     | 23.722     |   0.0 | 47.01
Comm    | 0.37707    | 0.37707    | 0.37707    |   0.0 |  0.75
Output  | 0.19207    | 0.19207    | 0.19207    |   0.0 |  0.38
Modify  | 0.51144    | 0.51144    | 0.51144    |   0.0 |  1.01
Other   |            | 0.135      |            |       |  0.27

Nlocal:    19652 ave 19652 max 19652 min
Histogram: 1 0 0 0 0 0 0 0 0 0
Nghost:    16870 ave 16870 max 16870 min
Histogram: 1 0 0 0 0 0 0 0 0 0
Neighs:    1.22077e+06 ave 1.22077e+06 max 1.22077e+06 min
Histogram: 1 0 0 0 0 0 0 0 0 0

Total # of neighbors = 1220766
Ave neighs/atom = 62.1192
Neighbor list builds = 495
Dangerous builds not checked
Setting up Verlet run ...
  Unit style    : metal
  Current step  : 51834
  Time step     : 0.001
Per MPI rank memory allocation (min/avg/max) = 18.2 | 18.2 | 18.2 Mbytes
Step Temp Press TotEng PotEng Enthalpy Volume 
   51834    1566.2631    181.14324    -45001.74   -48980.191   -44955.797    406351.26 
   52006    1545.9663   -249.10118   -45067.753   -48994.649    -45130.94    406408.88 
Loop time of 19.1952 on 1 procs for 172 steps with 19652 atoms

Performance: 0.774 ns/day, 31.000 hours/ns, 8.961 timesteps/s
99.9% CPU use with 1 MPI tasks x no OpenMP threads

MPI task timing breakdown:
Section |  min time  |  avg time  |  max time  |%varavg| %total
---------------------------------------------------------------
Pair    | 9.8718     | 9.8718     | 9.8718     |   0.0 | 51.43
Neigh   | 8.9211     | 8.9211     | 8.9211     |   0.0 | 46.48
Comm    | 0.14702    | 0.14702    | 0.14702    |   0.0 |  0.77
Output  | 0.00014806 | 0.00014806 | 0.00014806 |   0.0 |  0.00
Modify  | 0.20181    | 0.20181    | 0.20181    |   0.0 |  1.05
Other   |            | 0.0533     |            |       |  0.28

Nlocal:    19652 ave 19652 max 19652 min
Histogram: 1 0 0 0 0 0 0 0 0 0
Nghost:    16846 ave 16846 max 16846 min
Histogram: 1 0 0 0 0 0 0 0 0 0
Neighs:    1.22075e+06 ave 1.22075e+06 max 1.22075e+06 min
Histogram: 1 0 0 0 0 0 0 0 0 0

Total # of neighbors = 1220753
Ave neighs/atom = 62.1185
Neighbor list builds = 172
Dangerous builds not checked
Setting up Verlet run ...
  Unit style    : metal
  Current step  : 52006
  Time step     : 0.001
Per MPI rank memory allocation (min/avg/max) = 18.2 | 18.2 | 18.2 Mbytes
Step Temp Press TotEng PotEng Enthalpy Volume 
   52006    1545.9663   -249.10118   -45067.753   -48994.649    -45130.94    406408.88 
   52026    1549.6322   -410.86282   -45067.483    -49003.69   -45171.701    406402.12 
   52501    1514.3559    776.52976   -45339.755   -49186.358    -45144.34    403191.07 
Loop time of 54.5218 on 1 procs for 495 steps with 19652 atoms

Performance: 0.784 ns/day, 30.596 hours/ns, 9.079 timesteps/s
99.5% CPU use with 1 MPI tasks x no OpenMP threads

MPI task timing breakdown:
Section |  min time  |  avg time  |  max time  |%varavg| %total
---------------------------------------------------------------
Pair    | 27.959     | 27.959     | 27.959     |   0.0 | 51.28
Neigh   | 25.374     | 25.374     | 25.374     |   0.0 | 46.54
Comm    | 0.41953    | 0.41953    | 0.41953    |   0.0 |  0.77
Output  | 0.066361   | 0.066361   | 0.066361   |   0.0 |  0.12
Modify  | 0.55722    | 0.55722    | 0.55722    |   0.0 |  1.02
Other   |            | 0.1457     |            |       |  0.27

Nlocal:    19652 ave 19652 max 19652 min
Histogram: 1 0 0 0 0 0 0 0 0 0
Nghost:    16946 ave 16946 max 16946 min
Histogram: 1 0 0 0 0 0 0 0 0 0
Neighs:    1.2301e+06 ave 1.2301e+06 max 1.2301e+06 min
Histogram: 1 0 0 0 0 0 0 0 0 0

Total # of neighbors = 1230100
Ave neighs/atom = 62.5941
Neighbor list builds = 495
Dangerous builds not checked
Setting up Verlet run ...
  Unit style    : metal
  Current step  : 52501
  Time step     : 0.001
Per MPI rank memory allocation (min/avg/max) = 18.2 | 18.2 | 18.2 Mbytes
Step Temp Press TotEng PotEng Enthalpy Volume 
   52501    1514.3559    776.52976   -45339.755   -49186.358    -45144.34    403191.07 
   52673    1505.1359   -902.43308   -45407.185   -49230.367   -45634.542    403648.35 
Loop time of 18.4741 on 1 procs for 172 steps with 19652 atoms

Performance: 0.804 ns/day, 29.835 hours/ns, 9.310 timesteps/s
99.7% CPU use with 1 MPI tasks x no OpenMP threads

MPI task timing breakdown:
Section |  min time  |  avg time  |  max time  |%varavg| %total
---------------------------------------------------------------
Pair    | 9.4165     | 9.4165     | 9.4165     |   0.0 | 50.97
Neigh   | 8.6744     | 8.6744     | 8.6744     |   0.0 | 46.95
Comm    | 0.13842    | 0.13842    | 0.13842    |   0.0 |  0.75
Output  | 0.00012684 | 0.00012684 | 0.00012684 |   0.0 |  0.00
Modify  | 0.19335    | 0.19335    | 0.19335    |   0.0 |  1.05
Other   |            | 0.05133    |            |       |  0.28

Nlocal:    19652 ave 19652 max 19652 min
Histogram: 1 0 0 0 0 0 0 0 0 0
Nghost:    16926 ave 16926 max 16926 min
Histogram: 1 0 0 0 0 0 0 0 0 0
Neighs:    1.22923e+06 ave 1.22923e+06 max 1.22923e+06 min
Histogram: 1 0 0 0 0 0 0 0 0 0

Total # of neighbors = 1229226
Ave neighs/atom = 62.5497
Neighbor list builds = 172
Dangerous builds not checked
Setting up Verlet run ...
  Unit style    : metal
  Current step  : 52673
  Time step     : 0.001
Per MPI rank memory allocation (min/avg/max) = 18.2 | 18.2 | 18.2 Mbytes
Step Temp Press TotEng PotEng Enthalpy Volume 
   52673    1505.1359   -902.43308   -45407.185   -49230.367   -45634.542    403648.35 
   52693    1506.4292   -920.00379   -45407.896   -49234.363   -45639.666    403625.94 
   53168    1458.2217   -80.733506   -45655.518   -49359.534   -45675.739    401293.59 
Loop time of 50.334 on 1 procs for 495 steps with 19652 atoms

Performance: 0.850 ns/day, 28.246 hours/ns, 9.834 timesteps/s
99.5% CPU use with 1 MPI tasks x no OpenMP threads

MPI task timing breakdown:
Section |  min time  |  avg time  |  max time  |%varavg| %total
---------------------------------------------------------------
Pair    | 25.602     | 25.602     | 25.602     |   0.0 | 50.86
Neigh   | 23.546     | 23.546     | 23.546     |   0.0 | 46.78
Comm    | 0.37256    | 0.37256    | 0.37256    |   0.0 |  0.74
Output  | 0.17086    | 0.17086    | 0.17086    |   0.0 |  0.34
Modify  | 0.50746    | 0.50746    | 0.50746    |   0.0 |  1.01
Other   |            | 0.135      |            |       |  0.27

Nlocal:    19652 ave 19652 max 19652 min
Histogram: 1 0 0 0 0 0 0 0 0 0
Nghost:    17027 ave 17027 max 17027 min
Histogram: 1 0 0 0 0 0 0 0 0 0
Neighs:    1.23618e+06 ave 1.23618e+06 max 1.23618e+06 min
Histogram: 1 0 0 0 0 0 0 0 0 0

Total # of neighbors = 1236175
Ave neighs/atom = 62.9033
Neighbor list builds = 495
Dangerous builds not checked
Setting up Verlet run ...
  Unit style    : metal
  Current step  : 53168
  Time step     : 0.001
Per MPI rank memory allocation (min/avg/max) = 18.2 | 18.2 | 18.2 Mbytes
Step Temp Press TotEng PotEng Enthalpy Volume 
   53168    1458.2217   -80.733506   -45655.518   -49359.534   -45675.739    401293.59 
   53340     1455.883   -193.52805   -45716.454    -49414.53   -45764.862    400756.79 
Loop time of 17.1814 on 1 procs for 172 steps with 19652 atoms

Performance: 0.865 ns/day, 27.748 hours/ns, 10.011 timesteps/s
99.9% CPU use with 1 MPI tasks x no OpenMP threads

MPI task timing breakdown:
Section |  min time  |  avg time  |  max time  |%varavg| %total
---------------------------------------------------------------
Pair    | 8.7513     | 8.7513     | 8.7513     |   0.0 | 50.94
Neigh   | 8.0798     | 8.0798     | 8.0798     |   0.0 | 47.03
Comm    | 0.12731    | 0.12731    | 0.12731    |   0.0 |  0.74
Output  | 0.00012398 | 0.00012398 | 0.00012398 |   0.0 |  0.00
Modify  | 0.17628    | 0.17628    | 0.17628    |   0.0 |  1.03
Other   |            | 0.04654    |            |       |  0.27

Nlocal:    19652 ave 19652 max 19652 min
Histogram: 1 0 0 0 0 0 0 0 0 0
Nghost:    17015 ave 17015 max 17015 min
Histogram: 1 0 0 0 0 0 0 0 0 0
Neighs:    1.23788e+06 ave 1.23788e+06 max 1.23788e+06 min
Histogram: 1 0 0 0 0 0 0 0 0 0

Total # of neighbors = 1237881
Ave neighs/atom = 62.9901
Neighbor list builds = 172
Dangerous builds not checked
Setting up Verlet run ...
  Unit style    : metal
  Current step  : 53340
  Time step     : 0.001
Per MPI rank memory allocation (min/avg/max) = 18.2 | 18.2 | 18.2 Mbytes
Step Temp Press TotEng PotEng Enthalpy Volume 
   53340     1455.883   -193.52805   -45716.454    -49414.53   -45764.862    400756.79 
   53360    1448.9835   -114.32638   -45716.934   -49397.484    -45745.53    400752.42 
   53835    1404.0314    70.372484   -45951.582    -49517.95   -45934.055    399052.94 
Loop time of 50.4938 on 1 procs for 495 steps with 19652 atoms

Performance: 0.847 ns/day, 28.335 hours/ns, 9.803 timesteps/s
99.9% CPU use with 1 MPI tasks x no OpenMP threads

MPI task timing breakdown:
Section |  min time  |  avg time  |  max time  |%varavg| %total
---------------------------------------------------------------
Pair    | 25.764     | 25.764     | 25.764     |   0.0 | 51.02
Neigh   | 23.659     | 23.659     | 23.659     |   0.0 | 46.85
Comm    | 0.37024    | 0.37024    | 0.37024    |   0.0 |  0.73
Output  | 0.064694   | 0.064694   | 0.064694   |   0.0 |  0.13
Modify  | 0.5022     | 0.5022     | 0.5022     |   0.0 |  0.99
Other   |            | 0.1339     |            |       |  0.27

Nlocal:    19652 ave 19652 max 19652 min
Histogram: 1 0 0 0 0 0 0 0 0 0
Nghost:    17021 ave 17021 max 17021 min
Histogram: 1 0 0 0 0 0 0 0 0 0
Neighs:    1.24408e+06 ave 1.24408e+06 max 1.24408e+06 min
Histogram: 1 0 0 0 0 0 0 0 0 0

Total # of neighbors = 1244075
Ave neighs/atom = 63.3053
Neighbor list builds = 495
Dangerous builds not checked
Setting up Verlet run ...
  Unit style    : metal
  Current step  : 53835
  Time step     : 0.001
Per MPI rank memory allocation (min/avg/max) = 18.2 | 18.2 | 18.2 Mbytes
Step Temp Press TotEng PotEng Enthalpy Volume 
   53835    1404.0314    70.372484   -45951.582    -49517.95   -45934.055    399052.94 
   54007    1408.3206    -446.2656       -46017   -49594.262   -46128.001    398514.01 
Loop time of 17.0364 on 1 procs for 172 steps with 19652 atoms

Performance: 0.872 ns/day, 27.514 hours/ns, 10.096 timesteps/s
100.0% CPU use with 1 MPI tasks x no OpenMP threads

MPI task timing breakdown:
Section |  min time  |  avg time  |  max time  |%varavg| %total
---------------------------------------------------------------
Pair    | 8.6984     | 8.6984     | 8.6984     |   0.0 | 51.06
Neigh   | 7.9899     | 7.9899     | 7.9899     |   0.0 | 46.90
Comm    | 0.12681    | 0.12681    | 0.12681    |   0.0 |  0.74
Output  | 0.00011992 | 0.00011992 | 0.00011992 |   0.0 |  0.00
Modify  | 0.17482    | 0.17482    | 0.17482    |   0.0 |  1.03
Other   |            | 0.04645    |            |       |  0.27

Nlocal:    19652 ave 19652 max 19652 min
Histogram: 1 0 0 0 0 0 0 0 0 0
Nghost:    17015 ave 17015 max 17015 min
Histogram: 1 0 0 0 0 0 0 0 0 0
Neighs:    1.24567e+06 ave 1.24567e+06 max 1.24567e+06 min
Histogram: 1 0 0 0 0 0 0 0 0 0

Total # of neighbors = 1245668
Ave neighs/atom = 63.3863
Neighbor list builds = 172
Dangerous builds not checked
Setting up Verlet run ...
  Unit style    : metal
  Current step  : 54007
  Time step     : 0.001
Per MPI rank memory allocation (min/avg/max) = 18.2 | 18.2 | 18.2 Mbytes
Step Temp Press TotEng PotEng Enthalpy Volume 
   54007    1408.3206    -446.2656       -46017   -49594.262   -46128.001    398514.01 
   54027    1408.3588   -526.34893   -46017.945   -49595.304   -46148.861    398502.01 
   54502    1364.0654   -159.67255   -46248.076   -49712.926   -46287.587    396458.38 
Loop time of 50.0489 on 1 procs for 495 steps with 19652 atoms

Performance: 0.855 ns/day, 28.086 hours/ns, 9.890 timesteps/s
98.7% CPU use with 1 MPI tasks x no OpenMP threads

MPI task timing breakdown:
Section |  min time  |  avg time  |  max time  |%varavg| %total
---------------------------------------------------------------
Pair    | 25.244     | 25.244     | 25.244     |   0.0 | 50.44
Neigh   | 23.172     | 23.172     | 23.172     |   0.0 | 46.30
Comm    | 0.36301    | 0.36301    | 0.36301    |   0.0 |  0.73
Output  | 0.64815    | 0.64815    | 0.64815    |   0.0 |  1.30
Modify  | 0.49035    | 0.49035    | 0.49035    |   0.0 |  0.98
Other   |            | 0.1307     |            |       |  0.26

Nlocal:    19652 ave 19652 max 19652 min
Histogram: 1 0 0 0 0 0 0 0 0 0
Nghost:    17034 ave 17034 max 17034 min
Histogram: 1 0 0 0 0 0 0 0 0 0
Neighs:    1.25206e+06 ave 1.25206e+06 max 1.25206e+06 min
Histogram: 1 0 0 0 0 0 0 0 0 0

Total # of neighbors = 1252060
Ave neighs/atom = 63.7116
Neighbor list builds = 495
Dangerous builds not checked
Setting up Verlet run ...
  Unit style    : metal
  Current step  : 54502
  Time step     : 0.001
Per MPI rank memory allocation (min/avg/max) = 18.2 | 18.2 | 18.2 Mbytes
Step Temp Press TotEng PotEng Enthalpy Volume 
   54502    1364.0654   -159.67255   -46248.076   -49712.926   -46287.587    396458.38 
   54674    1364.6591   -679.64921   -46322.443   -49788.802   -46490.413    395964.81 
Loop time of 17.3687 on 1 procs for 172 steps with 19652 atoms

Performance: 0.856 ns/day, 28.050 hours/ns, 9.903 timesteps/s
99.8% CPU use with 1 MPI tasks x no OpenMP threads

MPI task timing breakdown:
Section |  min time  |  avg time  |  max time  |%varavg| %total
---------------------------------------------------------------
Pair    | 8.8729     | 8.8729     | 8.8729     |   0.0 | 51.09
Neigh   | 8.1411     | 8.1411     | 8.1411     |   0.0 | 46.87
Comm    | 0.12903    | 0.12903    | 0.12903    |   0.0 |  0.74
Output  | 0.00012684 | 0.00012684 | 0.00012684 |   0.0 |  0.00
Modify  | 0.17794    | 0.17794    | 0.17794    |   0.0 |  1.02
Other   |            | 0.04751    |            |       |  0.27

Nlocal:    19652 ave 19652 max 19652 min
Histogram: 1 0 0 0 0 0 0 0 0 0
Nghost:    17037 ave 17037 max 17037 min
Histogram: 1 0 0 0 0 0 0 0 0 0
Neighs:    1.25352e+06 ave 1.25352e+06 max 1.25352e+06 min
Histogram: 1 0 0 0 0 0 0 0 0 0

Total # of neighbors = 1253522
Ave neighs/atom = 63.786
Neighbor list builds = 172
Dangerous builds not checked
Setting up Verlet run ...
  Unit style    : metal
  Current step  : 54674
  Time step     : 0.001
Per MPI rank memory allocation (min/avg/max) = 18.2 | 18.2 | 18.2 Mbytes
Step Temp Press TotEng PotEng Enthalpy Volume 
   54674    1364.6591   -679.64921   -46322.443   -49788.802   -46490.413    395964.81 
   54694    1355.5004   -386.40862   -46323.697   -49766.791   -46419.191    395949.95 
   55169    1317.4294     -667.345   -46567.837   -49914.228   -46732.013    394156.83 
Loop time of 53.411 on 1 procs for 495 steps with 19652 atoms

Performance: 0.801 ns/day, 29.972 hours/ns, 9.268 timesteps/s
99.6% CPU use with 1 MPI tasks x no OpenMP threads

MPI task timing breakdown:
Section |  min time  |  avg time  |  max time  |%varavg| %total
---------------------------------------------------------------
Pair    | 27.592     | 27.592     | 27.592     |   0.0 | 51.66
Neigh   | 24.685     | 24.685     | 24.685     |   0.0 | 46.22
Comm    | 0.39212    | 0.39212    | 0.39212    |   0.0 |  0.73
Output  | 0.057928   | 0.057928   | 0.057928   |   0.0 |  0.11
Modify  | 0.5403     | 0.5403     | 0.5403     |   0.0 |  1.01
Other   |            | 0.1433     |            |       |  0.27

Nlocal:    19652 ave 19652 max 19652 min
Histogram: 1 0 0 0 0 0 0 0 0 0
Nghost:    17104 ave 17104 max 17104 min
Histogram: 1 0 0 0 0 0 0 0 0 0
Neighs:    1.26003e+06 ave 1.26003e+06 max 1.26003e+06 min
Histogram: 1 0 0 0 0 0 0 0 0 0

Total # of neighbors = 1260028
Ave neighs/atom = 64.117
Neighbor list builds = 495
Dangerous builds not checked
Setting up Verlet run ...
  Unit style    : metal
  Current step  : 55169
  Time step     : 0.001
Per MPI rank memory allocation (min/avg/max) = 18.2 | 18.2 | 18.2 Mbytes
Step Temp Press TotEng PotEng Enthalpy Volume 
   55169    1317.4294     -667.345   -46567.837   -49914.228   -46732.013    394156.83 
   55341    1313.2376    462.13567   -46645.933   -49981.676   -46532.636    392791.47 
Loop time of 18.5491 on 1 procs for 172 steps with 19652 atoms

Performance: 0.801 ns/day, 29.957 hours/ns, 9.273 timesteps/s
99.3% CPU use with 1 MPI tasks x no OpenMP threads

MPI task timing breakdown:
Section |  min time  |  avg time  |  max time  |%varavg| %total
---------------------------------------------------------------
Pair    | 9.5879     | 9.5879     | 9.5879     |   0.0 | 51.69
[...]
Output  | 0.065012   | 0.065012   | 0.065012   |   0.0 |  0.12
Modify  | 0.52552    | 0.52552    | 0.52552    |   0.0 |  0.94
Other   |            | 0.1428     |            |       |  0.25

Nlocal:    19652 ave 19652 max 19652 min
Histogram: 1 0 0 0 0 0 0 0 0 0
Nghost:    17877 ave 17877 max 17877 min
Histogram: 1 0 0 0 0 0 0 0 0 0
Neighs:    1.40983e+06 ave 1.40983e+06 max 1.40983e+06 min
Histogram: 1 0 0 0 0 0 0 0 0 0

Total # of neighbors = 1409834
Ave neighs/atom = 71.74
Neighbor list builds = 495
Dangerous builds not checked
Setting up Verlet run ...
  Unit style    : metal
  Current step  : 67175
  Time step     : 0.001
Per MPI rank memory allocation (min/avg/max) = 18.2 | 18.2 | 18.2 Mbytes
Step Temp Press TotEng PotEng Enthalpy Volume 
   67175    424.41813    -398.8937   -52432.882   -53510.943   -52520.928    353638.36 
   67347    417.77026    118.60737   -52496.842   -53558.016   -52470.713    352955.82 
Loop time of 22.6072 on 1 procs for 172 steps with 19652 atoms

Performance: 0.657 ns/day, 36.510 hours/ns, 7.608 timesteps/s
99.9% CPU use with 1 MPI tasks x no OpenMP threads

MPI task timing breakdown:
Section |  min time  |  avg time  |  max time  |%varavg| %total
---------------------------------------------------------------
Pair    | 11.777     | 11.777     | 11.777     |   0.0 | 52.10
Neigh   | 10.374     | 10.374     | 10.374     |   0.0 | 45.89
Comm    | 0.16784    | 0.16784    | 0.16784    |   0.0 |  0.74
Output  | 0.00012302 | 0.00012302 | 0.00012302 |   0.0 |  0.00
Modify  | 0.22343    | 0.22343    | 0.22343    |   0.0 |  0.99
Other   |            | 0.06428    |            |       |  0.28

Nlocal:    19652 ave 19652 max 19652 min
Histogram: 1 0 0 0 0 0 0 0 0 0
Nghost:    17832 ave 17832 max 17832 min
Histogram: 1 0 0 0 0 0 0 0 0 0
Neighs:    1.41227e+06 ave 1.41227e+06 max 1.41227e+06 min
Histogram: 1 0 0 0 0 0 0 0 0 0

Total # of neighbors = 1412271
Ave neighs/atom = 71.864
Neighbor list builds = 172
Dangerous builds not checked
Setting up Verlet run ...
  Unit style    : metal
  Current step  : 67347
  Time step     : 0.001
Per MPI rank memory allocation (min/avg/max) = 18.2 | 18.2 | 18.2 Mbytes
Step Temp Press TotEng PotEng Enthalpy Volume 
   67347    417.77026    118.60737   -52496.842   -53558.016   -52470.713    352955.82 
   67367    419.46208   -40.244239   -52498.912   -53564.384   -52507.778    352960.15 
   67842    377.66381   -195.19734   -52730.698   -53689.998   -52773.562    351824.46 
Loop time of 54.4428 on 1 procs for 495 steps with 19652 atoms

Performance: 0.786 ns/day, 30.552 hours/ns, 9.092 timesteps/s
99.6% CPU use with 1 MPI tasks x no OpenMP threads

MPI task timing breakdown:
Section |  min time  |  avg time  |  max time  |%varavg| %total
---------------------------------------------------------------
Pair    | 28.019     | 28.019     | 28.019     |   0.0 | 51.46
Neigh   | 25.336     | 25.336     | 25.336     |   0.0 | 46.54
Comm    | 0.37358    | 0.37358    | 0.37358    |   0.0 |  0.69
Output  | 0.064843   | 0.064843   | 0.064843   |   0.0 |  0.12
Modify  | 0.51148    | 0.51148    | 0.51148    |   0.0 |  0.94
Other   |            | 0.1383     |            |       |  0.25

Nlocal:    19652 ave 19652 max 19652 min
Histogram: 1 0 0 0 0 0 0 0 0 0
Nghost:    17851 ave 17851 max 17851 min
Histogram: 1 0 0 0 0 0 0 0 0 0
Neighs:    1.41636e+06 ave 1.41636e+06 max 1.41636e+06 min
Histogram: 1 0 0 0 0 0 0 0 0 0

Total # of neighbors = 1416356
Ave neighs/atom = 72.0719
Neighbor list builds = 495
Dangerous builds not checked
Setting up Verlet run ...
  Unit style    : metal
  Current step  : 67842
  Time step     : 0.001
Per MPI rank memory allocation (min/avg/max) = 18.2 | 18.2 | 18.2 Mbytes
Step Temp Press TotEng PotEng Enthalpy Volume 
   67842    377.66381   -195.19734   -52730.698   -53689.998   -52773.562    351824.46 
   68014    367.54034   -118.33389   -52788.706   -53722.292   -52814.665    351476.02 
Loop time of 17.8232 on 1 procs for 172 steps with 19652 atoms

Performance: 0.834 ns/day, 28.784 hours/ns, 9.650 timesteps/s
100.0% CPU use with 1 MPI tasks x no OpenMP threads

MPI task timing breakdown:
Section |  min time  |  avg time  |  max time  |%varavg| %total
---------------------------------------------------------------
Pair    | 9.1543     | 9.1543     | 9.1543     |   0.0 | 51.36
Neigh   | 8.3391     | 8.3391     | 8.3391     |   0.0 | 46.79
Comm    | 0.11993    | 0.11993    | 0.11993    |   0.0 |  0.67
Output  | 0.00011396 | 0.00011396 | 0.00011396 |   0.0 |  0.00
Modify  | 0.16545    | 0.16545    | 0.16545    |   0.0 |  0.93
Other   |            | 0.04427    |            |       |  0.25

Nlocal:    19652 ave 19652 max 19652 min
Histogram: 1 0 0 0 0 0 0 0 0 0
Nghost:    17847 ave 17847 max 17847 min
Histogram: 1 0 0 0 0 0 0 0 0 0
Neighs:    1.41762e+06 ave 1.41762e+06 max 1.41762e+06 min
Histogram: 1 0 0 0 0 0 0 0 0 0

Total # of neighbors = 1417624
Ave neighs/atom = 72.1364
Neighbor list builds = 172
Dangerous builds not checked
Setting up Verlet run ...
  Unit style    : metal
  Current step  : 68014
  Time step     : 0.001
Per MPI rank memory allocation (min/avg/max) = 18.2 | 18.2 | 18.2 Mbytes
Step Temp Press TotEng PotEng Enthalpy Volume 
   68014    367.54034   -118.33389   -52788.706   -53722.292   -52814.665    351476.02 
   68034    368.70864    -190.2957   -52790.745   -53727.299    -52832.49    351463.87 
   68509    327.96633    325.71262   -53015.338   -53848.402   -52944.162    350114.31 
Loop time of 52.4037 on 1 procs for 495 steps with 19652 atoms

Performance: 0.816 ns/day, 29.407 hours/ns, 9.446 timesteps/s
99.9% CPU use with 1 MPI tasks x no OpenMP threads

MPI task timing breakdown:
Section |  min time  |  avg time  |  max time  |%varavg| %total
---------------------------------------------------------------
Pair    | 26.89      | 26.89      | 26.89      |   0.0 | 51.31
Neigh   | 24.481     | 24.481     | 24.481     |   0.0 | 46.72
Comm    | 0.3504     | 0.3504     | 0.3504     |   0.0 |  0.67
Output  | 0.069272   | 0.069272   | 0.069272   |   0.0 |  0.13
Modify  | 0.4832     | 0.4832     | 0.4832     |   0.0 |  0.92
Other   |            | 0.1299     |            |       |  0.25

Nlocal:    19652 ave 19652 max 19652 min
Histogram: 1 0 0 0 0 0 0 0 0 0
Nghost:    17905 ave 17905 max 17905 min
Histogram: 1 0 0 0 0 0 0 0 0 0
Neighs:    1.42296e+06 ave 1.42296e+06 max 1.42296e+06 min
Histogram: 1 0 0 0 0 0 0 0 0 0

Total # of neighbors = 1422961
Ave neighs/atom = 72.4079
Neighbor list builds = 495
Dangerous builds not checked
Setting up Verlet run ...
  Unit style    : metal
  Current step  : 68509
  Time step     : 0.001
Per MPI rank memory allocation (min/avg/max) = 18.2 | 18.2 | 18.2 Mbytes
Step Temp Press TotEng PotEng Enthalpy Volume 
   68509    327.96633    325.71262   -53015.338   -53848.402   -52944.162    350114.31 
   68681     318.3179    222.13097   -53075.552   -53884.108    -53027.06    349756.84 
Loop time of 17.6943 on 1 procs for 172 steps with 19652 atoms

Performance: 0.840 ns/day, 28.576 hours/ns, 9.721 timesteps/s
100.0% CPU use with 1 MPI tasks x no OpenMP threads

MPI task timing breakdown:
Section |  min time  |  avg time  |  max time  |%varavg| %total
---------------------------------------------------------------
Pair    | 9.0895     | 9.0895     | 9.0895     |   0.0 | 51.37
Neigh   | 8.2785     | 8.2785     | 8.2785     |   0.0 | 46.79
Comm    | 0.11871    | 0.11871    | 0.11871    |   0.0 |  0.67
Output  | 0.000108   | 0.000108   | 0.000108   |   0.0 |  0.00
Modify  | 0.16352    | 0.16352    | 0.16352    |   0.0 |  0.92
Other   |            | 0.04392    |            |       |  0.25

Nlocal:    19652 ave 19652 max 19652 min
Histogram: 1 0 0 0 0 0 0 0 0 0
Nghost:    17883 ave 17883 max 17883 min
Histogram: 1 0 0 0 0 0 0 0 0 0
Neighs:    1.42426e+06 ave 1.42426e+06 max 1.42426e+06 min
Histogram: 1 0 0 0 0 0 0 0 0 0

Total # of neighbors = 1424255
Ave neighs/atom = 72.4738
Neighbor list builds = 172
Dangerous builds not checked
Setting up Verlet run ...
  Unit style    : metal
  Current step  : 68681
  Time step     : 0.001
Per MPI rank memory allocation (min/avg/max) = 18.2 | 18.2 | 18.2 Mbytes
Step Temp Press TotEng PotEng Enthalpy Volume 
   68681     318.3179    222.13097   -53075.552   -53884.108    -53027.06    349756.84 
   68701    317.93434    131.82187   -53077.611   -53885.194   -53048.833    349774.65 
   69176    278.76758   -75.943746   -53298.949   -54007.044   -53315.479    348733.44 
Loop time of 53.0661 on 1 procs for 495 steps with 19652 atoms

Performance: 0.806 ns/day, 29.779 hours/ns, 9.328 timesteps/s
100.0% CPU use with 1 MPI tasks x no OpenMP threads

MPI task timing breakdown:
Section |  min time  |  avg time  |  max time  |%varavg| %total
---------------------------------------------------------------
Pair    | 27.311     | 27.311     | 27.311     |   0.0 | 51.47
Neigh   | 24.717     | 24.717     | 24.717     |   0.0 | 46.58
Comm    | 0.35498    | 0.35498    | 0.35498    |   0.0 |  0.67
Output  | 0.062099   | 0.062099   | 0.062099   |   0.0 |  0.12
Modify  | 0.48976    | 0.48976    | 0.48976    |   0.0 |  0.92
Other   |            | 0.1316     |            |       |  0.25

Nlocal:    19652 ave 19652 max 19652 min
Histogram: 1 0 0 0 0 0 0 0 0 0
Nghost:    17917 ave 17917 max 17917 min
Histogram: 1 0 0 0 0 0 0 0 0 0
Neighs:    1.42832e+06 ave 1.42832e+06 max 1.42832e+06 min
Histogram: 1 0 0 0 0 0 0 0 0 0

Total # of neighbors = 1428319
Ave neighs/atom = 72.6806
Neighbor list builds = 495
Dangerous builds not checked
Setting up Verlet run ...
  Unit style    : metal
  Current step  : 69176
  Time step     : 0.001
Per MPI rank memory allocation (min/avg/max) = 18.2 | 18.2 | 18.2 Mbytes
Step Temp Press TotEng PotEng Enthalpy Volume 
   69176    278.76758   -75.943746   -53298.949   -54007.044   -53315.479    348733.44 
   69348    268.17172   -317.84305   -53357.434   -54038.615   -53426.574    348519.23 
Loop time of 17.7646 on 1 procs for 172 steps with 19652 atoms

Performance: 0.837 ns/day, 28.690 hours/ns, 9.682 timesteps/s
100.0% CPU use with 1 MPI tasks x no OpenMP threads

MPI task timing breakdown:
Section |  min time  |  avg time  |  max time  |%varavg| %total
---------------------------------------------------------------
Pair    | 9.146      | 9.146      | 9.146      |   0.0 | 51.48
Neigh   | 8.2927     | 8.2927     | 8.2927     |   0.0 | 46.68
Comm    | 0.11885    | 0.11885    | 0.11885    |   0.0 |  0.67
Output  | 0.00011683 | 0.00011683 | 0.00011683 |   0.0 |  0.00
Modify  | 0.16333    | 0.16333    | 0.16333    |   0.0 |  0.92
Other   |            | 0.04363    |            |       |  0.25

Nlocal:    19652 ave 19652 max 19652 min
Histogram: 1 0 0 0 0 0 0 0 0 0
Nghost:    17918 ave 17918 max 17918 min
Histogram: 1 0 0 0 0 0 0 0 0 0
Neighs:    1.42909e+06 ave 1.42909e+06 max 1.42909e+06 min
Histogram: 1 0 0 0 0 0 0 0 0 0

Total # of neighbors = 1429088
Ave neighs/atom = 72.7197
Neighbor list builds = 172
Dangerous builds not checked
Setting up Verlet run ...
  Unit style    : metal
  Current step  : 69348
  Time step     : 0.001
Per MPI rank memory allocation (min/avg/max) = 18.2 | 18.2 | 18.2 Mbytes
Step Temp Press TotEng PotEng Enthalpy Volume 
   69348    268.17172   -317.84305   -53357.434   -54038.615   -53426.574    348519.23 
   69368    268.87516   -323.03428   -53359.544   -54042.512   -53429.806       348483 
   69843    228.66527   -283.71477   -53573.766   -54154.597   -53635.286     347408.8 
Loop time of 51.4844 on 1 procs for 495 steps with 19652 atoms

Performance: 0.831 ns/day, 28.891 hours/ns, 9.615 timesteps/s
100.0% CPU use with 1 MPI tasks x no OpenMP threads

MPI task timing breakdown:
Section |  min time  |  avg time  |  max time  |%varavg| %total
---------------------------------------------------------------
Pair    | 26.447     | 26.447     | 26.447     |   0.0 | 51.37
Neigh   | 24.041     | 24.041     | 24.041     |   0.0 | 46.70
Comm    | 0.34382    | 0.34382    | 0.34382    |   0.0 |  0.67
Output  | 0.055619   | 0.055619   | 0.055619   |   0.0 |  0.11
Modify  | 0.47096    | 0.47096    | 0.47096    |   0.0 |  0.91
Other   |            | 0.1259     |            |       |  0.24

Nlocal:    19652 ave 19652 max 19652 min
Histogram: 1 0 0 0 0 0 0 0 0 0
Nghost:    17950 ave 17950 max 17950 min
Histogram: 1 0 0 0 0 0 0 0 0 0
Neighs:    1.43339e+06 ave 1.43339e+06 max 1.43339e+06 min
Histogram: 1 0 0 0 0 0 0 0 0 0

Total # of neighbors = 1433391
Ave neighs/atom = 72.9387
Neighbor list builds = 495
Dangerous builds not checked
Setting up Verlet run ...
  Unit style    : metal
  Current step  : 69843
  Time step     : 0.001
Per MPI rank memory allocation (min/avg/max) = 18.2 | 18.2 | 18.2 Mbytes
Step Temp Press TotEng PotEng Enthalpy Volume 
   69843    228.66527   -283.71477   -53573.766   -54154.597   -53635.286     347408.8 
   70015    217.65052   -307.21965   -53630.864   -54183.716   -53697.433    347167.24 
Loop time of 17.7263 on 1 procs for 172 steps with 19652 atoms

Performance: 0.838 ns/day, 28.628 hours/ns, 9.703 timesteps/s
100.0% CPU use with 1 MPI tasks x no OpenMP threads

MPI task timing breakdown:
Section |  min time  |  avg time  |  max time  |%varavg| %total
---------------------------------------------------------------
Pair    | 9.1213     | 9.1213     | 9.1213     |   0.0 | 51.46
Neigh   | 8.2794     | 8.2794     | 8.2794     |   0.0 | 46.71
Comm    | 0.11907    | 0.11907    | 0.11907    |   0.0 |  0.67
Output  | 0.00012088 | 0.00012088 | 0.00012088 |   0.0 |  0.00
Modify  | 0.16277    | 0.16277    | 0.16277    |   0.0 |  0.92
Other   |            | 0.0436     |            |       |  0.25

Nlocal:    19652 ave 19652 max 19652 min
Histogram: 1 0 0 0 0 0 0 0 0 0
Nghost:    17956 ave 17956 max 17956 min
Histogram: 1 0 0 0 0 0 0 0 0 0
Neighs:    1.43462e+06 ave 1.43462e+06 max 1.43462e+06 min
Histogram: 1 0 0 0 0 0 0 0 0 0

Total # of neighbors = 1434622
Ave neighs/atom = 73.0013
Neighbor list builds = 172
Dangerous builds not checked
Setting up Verlet run ...
  Unit style    : metal
  Current step  : 70015
  Time step     : 0.001
Per MPI rank memory allocation (min/avg/max) = 18.2 | 18.2 | 18.2 Mbytes
Step Temp Press TotEng PotEng Enthalpy Volume 
   70015    217.65052   -307.21965   -53630.864   -54183.716   -53697.433    347167.24 
   70035    218.00366   -277.27407   -53632.914   -54186.663   -53692.987    347125.77 
   70510    180.91028   -115.47021    -53840.89   -54300.418   -53865.824    345976.12 
Loop time of 53.6147 on 1 procs for 495 steps with 19652 atoms

Performance: 0.798 ns/day, 30.087 hours/ns, 9.233 timesteps/s
99.9% CPU use with 1 MPI tasks x no OpenMP threads

MPI task timing breakdown:
Section |  min time  |  avg time  |  max time  |%varavg| %total
---------------------------------------------------------------
Pair    | 27.629     | 27.629     | 27.629     |   0.0 | 51.53
Neigh   | 24.924     | 24.924     | 24.924     |   0.0 | 46.49
Comm    | 0.36714    | 0.36714    | 0.36714    |   0.0 |  0.68
Output  | 0.068246   | 0.068246   | 0.068246   |   0.0 |  0.13
Modify  | 0.49335    | 0.49335    | 0.49335    |   0.0 |  0.92
Other   |            | 0.1326     |            |       |  0.25

Nlocal:    19652 ave 19652 max 19652 min
Histogram: 1 0 0 0 0 0 0 0 0 0
Nghost:    17991 ave 17991 max 17991 min
Histogram: 1 0 0 0 0 0 0 0 0 0
Neighs:    1.4391e+06 ave 1.4391e+06 max 1.4391e+06 min
Histogram: 1 0 0 0 0 0 0 0 0 0

Total # of neighbors = 1439104
Ave neighs/atom = 73.2294
Neighbor list builds = 495
Dangerous builds not checked
Setting up Verlet run ...
  Unit style    : metal
  Current step  : 70510
  Time step     : 0.001
Per MPI rank memory allocation (min/avg/max) = 18.2 | 18.2 | 18.2 Mbytes
Step Temp Press TotEng PotEng Enthalpy Volume 
   70510    180.91028   -115.47021    -53840.89   -54300.418   -53865.824    345976.12 
   70682     170.7383    50.439469   -53896.432   -54330.123    -53885.55    345653.36 
Loop time of 20.9926 on 1 procs for 172 steps with 19652 atoms

Performance: 0.708 ns/day, 33.903 hours/ns, 8.193 timesteps/s
99.1% CPU use with 1 MPI tasks x no OpenMP threads

MPI task timing breakdown:
Section |  min time  |  avg time  |  max time  |%varavg| %total
---------------------------------------------------------------
Pair    | 11.012     | 11.012     | 11.012     |   0.0 | 52.46
Neigh   | 9.5828     | 9.5828     | 9.5828     |   0.0 | 45.65
Comm    | 0.15263    | 0.15263    | 0.15263    |   0.0 |  0.73
Output  | 0.00012612 | 0.00012612 | 0.00012612 |   0.0 |  0.00
Modify  | 0.1917     | 0.1917     | 0.1917     |   0.0 |  0.91
Other   |            | 0.0533     |            |       |  0.25

Nlocal:    19652 ave 19652 max 19652 min
Histogram: 1 0 0 0 0 0 0 0 0 0
Nghost:    18007 ave 18007 max 18007 min
Histogram: 1 0 0 0 0 0 0 0 0 0
Neighs:    1.44056e+06 ave 1.44056e+06 max 1.44056e+06 min
Histogram: 1 0 0 0 0 0 0 0 0 0

Total # of neighbors = 1440558
Ave neighs/atom = 73.3034
Neighbor list builds = 172
Dangerous builds not checked
Setting up Verlet run ...
  Unit style    : metal
  Current step  : 70682
  Time step     : 0.001
Per MPI rank memory allocation (min/avg/max) = 18.2 | 18.2 | 18.2 Mbytes
Step Temp Press TotEng PotEng Enthalpy Volume 
   70682     170.7383    50.439469   -53896.432   -54330.123    -53885.55    345653.36 
   70702    171.18762   -46.733203   -53898.887   -54333.719    -53908.97    345656.51 
   71177    132.54359    60.292009   -54102.083   -54438.756   -54089.115    344624.82 
Loop time of 51.4928 on 1 procs for 495 steps with 19652 atoms

Performance: 0.831 ns/day, 28.896 hours/ns, 9.613 timesteps/s
99.8% CPU use with 1 MPI tasks x no OpenMP threads

MPI task timing breakdown:
Section |  min time  |  avg time  |  max time  |%varavg| %total
---------------------------------------------------------------
Pair    | 26.494     | 26.494     | 26.494     |   0.0 | 51.45
Neigh   | 23.983     | 23.983     | 23.983     |   0.0 | 46.58
Comm    | 0.35       | 0.35       | 0.35       |   0.0 |  0.68
Output  | 0.066103   | 0.066103   | 0.066103   |   0.0 |  0.13
Modify  | 0.47266    | 0.47266    | 0.47266    |   0.0 |  0.92
Other   |            | 0.1269     |            |       |  0.25

Nlocal:    19652 ave 19652 max 19652 min
Histogram: 1 0 0 0 0 0 0 0 0 0
Nghost:    18034 ave 18034 max 18034 min
Histogram: 1 0 0 0 0 0 0 0 0 0
Neighs:    1.44489e+06 ave 1.44489e+06 max 1.44489e+06 min
Histogram: 1 0 0 0 0 0 0 0 0 0

Total # of neighbors = 1444893
Ave neighs/atom = 73.524
Neighbor list builds = 495
Dangerous builds not checked
Setting up Verlet run ...
  Unit style    : metal
  Current step  : 71177
  Time step     : 0.001
Per MPI rank memory allocation (min/avg/max) = 18.2 | 18.2 | 18.2 Mbytes
Step Temp Press TotEng PotEng Enthalpy Volume 
   71177    132.54359    60.292009   -54102.083   -54438.756   -54089.115    344624.82 
   71349    123.17817    130.20031   -54158.591   -54471.475   -54130.611    344309.47 
Loop time of 17.869 on 1 procs for 172 steps with 19652 atoms

Performance: 0.832 ns/day, 28.858 hours/ns, 9.626 timesteps/s
100.0% CPU use with 1 MPI tasks x no OpenMP threads

MPI task timing breakdown:
Section |  min time  |  avg time  |  max time  |%varavg| %total
---------------------------------------------------------------
Pair    | 9.2229     | 9.2229     | 9.2229     |   0.0 | 51.61
Neigh   | 8.3137     | 8.3137     | 8.3137     |   0.0 | 46.53
Comm    | 0.12358    | 0.12358    | 0.12358    |   0.0 |  0.69
Output  | 0.00012803 | 0.00012803 | 0.00012803 |   0.0 |  0.00
Modify  | 0.1646     | 0.1646     | 0.1646     |   0.0 |  0.92
Other   |            | 0.044      |            |       |  0.25

Nlocal:    19652 ave 19652 max 19652 min
Histogram: 1 0 0 0 0 0 0 0 0 0
Nghost:    18032 ave 18032 max 18032 min
Histogram: 1 0 0 0 0 0 0 0 0 0
Neighs:    1.44555e+06 ave 1.44555e+06 max 1.44555e+06 min
Histogram: 1 0 0 0 0 0 0 0 0 0

Total # of neighbors = 1445552
Ave neighs/atom = 73.5575
Neighbor list builds = 172
Dangerous builds not checked
Total wall time: 2:12:24
