LAMMPS (12 Dec 2018)
Lattice spacing in x,y,z = 4 4 4
Created orthogonal box = (0 0 0) to (68 68 68)
  1 by 1 by 2 MPI processor grid
Created 19652 atoms
  Time spent = 0.00159502 secs
Setting atom values ...
  19480 settings made for type/fraction
Neighbor list info ...
  update every 1 steps, delay 0 steps, check no
  max neighbors/atom: 2000, page size: 100000
  master list distance cutoff = 8.5
  ghost atom cutoff = 8.5
  binsize = 4.25, bins = 16 16 16
  1 neighbor lists, perpetual/occasional/extra = 1 0 0
  (1) pair eam/alloy, perpetual
      attributes: half, newton on
      pair build: half/bin/atomonly/newton
      stencil: half/bin/3d/newton
      bin: standard
Setting up Verlet run ...
  Unit style    : metal
  Current step  : 0
  Time step     : 0.001
Per MPI rank memory allocation (min/avg/max) = 11.15 | 11.15 | 11.15 Mbytes
Step Temp Press TotEng PotEng Enthalpy 
       0          300    24374.552   -65178.202    -65940.23   -60394.622 
    1000    212.01154    34776.289   -65178.135   -65716.664   -58353.183 
Loop time of 134.764 on 2 procs for 1000 steps with 19652 atoms

Performance: 0.641 ns/day, 37.434 hours/ns, 7.420 timesteps/s
78.7% CPU use with 2 MPI tasks x no OpenMP threads

MPI task timing breakdown:
Section |  min time  |  avg time  |  max time  |%varavg| %total
---------------------------------------------------------------
Pair    | 82.987     | 83.029     | 83.072     |   0.5 | 61.61
Neigh   | 31.04      | 31.655     | 32.271     |  10.9 | 23.49
Comm    | 19.118     | 19.678     | 20.238     |  12.6 | 14.60
Output  | 7.9155e-05 | 0.00010812 | 0.00013709 |   0.0 |  0.00
Modify  | 0.19502    | 0.19883    | 0.20265    |   0.9 |  0.15
Other   |            | 0.2025     |            |       |  0.15

Nlocal:    9826 ave 9842 max 9810 min
Histogram: 1 0 0 0 0 0 0 0 0 1
Nghost:    14210 ave 14225 max 14195 min
Histogram: 1 0 0 0 0 0 0 0 0 1
Neighs:    784358 ave 785996 max 782721 min
Histogram: 1 0 0 0 0 0 0 0 0 1

Total # of neighbors = 1568717
Ave neighs/atom = 79.8248
Neighbor list builds = 1000
Dangerous builds not checked
Setting up Verlet run ...
  Unit style    : metal
  Current step  : 1000
  Time step     : 0.001
Per MPI rank memory allocation (min/avg/max) = 11.15 | 11.15 | 11.15 Mbytes
Step Temp Press TotEng PotEng Enthalpy 
    1000    212.01154    34776.289   -65178.135   -65716.664   -58353.183 
    2000    309.86066   -262.82916   -64705.443   -65492.517   -64759.701 
Loop time of 97.0884 on 2 procs for 1000 steps with 19652 atoms

Performance: 0.890 ns/day, 26.969 hours/ns, 10.300 timesteps/s
89.3% CPU use with 2 MPI tasks x no OpenMP threads

MPI task timing breakdown:
Section |  min time  |  avg time  |  max time  |%varavg| %total
---------------------------------------------------------------
Pair    | 51.209     | 51.324     | 51.439     |   1.6 | 52.86
Neigh   | 30.96      | 31.061     | 31.163     |   1.8 | 31.99
Comm    | 13.401     | 13.623     | 13.844     |   6.0 | 14.03
Output  | 7.7963e-05 | 9.1434e-05 | 0.0001049  |   0.0 |  0.00
Modify  | 0.86301    | 0.8739     | 0.88479    |   1.2 |  0.90
Other   |            | 0.2068     |            |       |  0.21

Nlocal:    9826 ave 9858 max 9794 min
Histogram: 1 0 0 0 0 0 0 0 0 1
Nghost:    14188 ave 14227 max 14149 min
Histogram: 1 0 0 0 0 0 0 0 0 1
Neighs:    728250 ave 730558 max 725943 min
Histogram: 1 0 0 0 0 0 0 0 0 1

Total # of neighbors = 1456501
Ave neighs/atom = 74.1146
Neighbor list builds = 1000
Dangerous builds not checked
Setting up Verlet run ...
  Unit style    : metal
  Current step  : 2000
  Time step     : 0.001
Per MPI rank memory allocation (min/avg/max) = 11.15 | 11.15 | 11.15 Mbytes
Step Temp Press TotEng PotEng Enthalpy 
    2000    309.86066   -262.82916   -64705.443   -65492.517   -64759.701 
   10000    2456.9717    656.78536   -51025.469   -57266.401    -50839.99 
Loop time of 866.307 on 2 procs for 8000 steps with 19652 atoms

Performance: 0.798 ns/day, 30.080 hours/ns, 9.235 timesteps/s
83.7% CPU use with 2 MPI tasks x no OpenMP threads

MPI task timing breakdown:
Section |  min time  |  avg time  |  max time  |%varavg| %total
---------------------------------------------------------------
Pair    | 416.33     | 419.91     | 423.5      |  17.5 | 48.47
Neigh   | 246.36     | 248.72     | 251.07     |  14.9 | 28.71
Comm    | 138.69     | 142.57     | 146.45     |  32.5 | 16.46
Output  | 7.2002e-05 | 8.297e-05  | 9.3937e-05 |   0.0 |  0.00
Modify  | 50.852     | 53.523     | 56.194     |  36.5 |  6.18
Other   |            | 1.586      |            |       |  0.18

Nlocal:    9826 ave 9836 max 9816 min
Histogram: 1 0 0 0 0 0 0 0 0 1
Nghost:    11352.5 ave 11365 max 11340 min
Histogram: 1 0 0 0 0 0 0 0 0 1
Neighs:    545566 ave 547140 max 543991 min
Histogram: 1 0 0 0 0 0 0 0 0 1

Total # of neighbors = 1091131
Ave neighs/atom = 55.5226
Neighbor list builds = 8000
Dangerous builds not checked
Setting up Verlet run ...
  Unit style    : metal
  Current step  : 10000
  Time step     : 0.001
Per MPI rank memory allocation (min/avg/max) = 11.15 | 11.15 | 11.15 Mbytes
Step Temp Press TotEng PotEng Enthalpy 
   10000    2456.9717    656.78536   -51025.469   -57266.401    -50839.99 
   40000    2455.4178   -831.99853   -50962.503   -57199.488   -51198.883 
Loop time of 2463.72 on 2 procs for 30000 steps with 19652 atoms

Performance: 1.052 ns/day, 22.812 hours/ns, 12.177 timesteps/s
97.4% CPU use with 2 MPI tasks x no OpenMP threads

MPI task timing breakdown:
Section |  min time  |  avg time  |  max time  |%varavg| %total
---------------------------------------------------------------
Pair    | 1334.4     | 1336       | 1337.5     |   4.3 | 54.23
Neigh   | 955.31     | 960.7      | 966.08     |  17.4 | 38.99
Comm    | 125.04     | 132.09     | 139.13     |  61.3 |  5.36
Output  | 9.799e-05  | 0.00013149 | 0.00016499 |   0.0 |  0.00
Modify  | 28.095     | 28.155     | 28.215     |   1.1 |  1.14
Other   |            | 6.81       |            |       |  0.28

Nlocal:    9826 ave 9839 max 9813 min
Histogram: 1 0 0 0 0 0 0 0 0 1
Nghost:    11284.5 ave 11293 max 11276 min
Histogram: 1 0 0 0 0 0 0 0 0 1
Neighs:    541830 ave 543282 max 540377 min
Histogram: 1 0 0 0 0 0 0 0 0 1

Total # of neighbors = 1083659
Ave neighs/atom = 55.1424
Neighbor list builds = 30000
Dangerous builds not checked
Setting up Verlet run ...
  Unit style    : metal
  Current step  : 40000
  Time step     : 0.001
Per MPI rank memory allocation (min/avg/max) = 11.15 | 11.15 | 11.15 Mbytes
Step Temp Press TotEng PotEng Enthalpy 
   40000    2455.4178   -831.99853   -50962.503   -57199.488   -51198.883 
   40495    2417.2759   -204.89752   -51179.184   -57319.285   -51237.002 
Loop time of 35.9263 on 2 procs for 495 steps with 19652 atoms

Performance: 1.190 ns/day, 20.161 hours/ns, 13.778 timesteps/s
98.9% CPU use with 2 MPI tasks x no OpenMP threads

MPI task timing breakdown:
Section |  min time  |  avg time  |  max time  |%varavg| %total
---------------------------------------------------------------
Pair    | 19.289     | 19.419     | 19.55      |   3.0 | 54.05
Neigh   | 14.579     | 14.812     | 15.045     |   6.1 | 41.23
Comm    | 1.0796     | 1.185      | 1.2903     |   9.7 |  3.30
Output  | 7.9155e-05 | 0.00010812 | 0.00013709 |   0.0 |  0.00
Modify  | 0.39227    | 0.39381    | 0.39534    |   0.2 |  1.10
Other   |            | 0.1159     |            |       |  0.32

Nlocal:    9826 ave 9849 max 9803 min
Histogram: 1 0 0 0 0 0 0 0 0 1
Nghost:    11317 ave 11336 max 11298 min
Histogram: 1 0 0 0 0 0 0 0 0 1
Neighs:    545942 ave 548592 max 543291 min
Histogram: 1 0 0 0 0 0 0 0 0 1

Total # of neighbors = 1091883
Ave neighs/atom = 55.5609
Neighbor list builds = 495
Dangerous builds not checked
Setting up Verlet run ...
  Unit style    : metal
  Current step  : 40495
  Time step     : 0.001
Per MPI rank memory allocation (min/avg/max) = 11.15 | 11.15 | 11.15 Mbytes
Step Temp Press TotEng PotEng Enthalpy 
   40495    2417.2759   -204.89752   -51179.184   -57319.285   -51237.002 
   50000     2425.283   -347.67561   -51167.619   -57328.059   -51265.792 
   90000    2401.6463    -827.3086   -51223.996   -57324.396    -51457.96 
Loop time of 4148.79 on 2 procs for 49505 steps with 19652 atoms

Performance: 1.031 ns/day, 23.279 hours/ns, 11.932 timesteps/s
95.2% CPU use with 2 MPI tasks x no OpenMP threads

MPI task timing breakdown:
Section |  min time  |  avg time  |  max time  |%varavg| %total
---------------------------------------------------------------
Pair    | 2193.5     | 2207.4     | 2221.2     |  29.6 | 53.20
Neigh   | 1532.7     | 1538.6     | 1544.5     |  15.0 | 37.09
Comm    | 303.37     | 323.47     | 343.57     | 111.8 |  7.80
Output  | 2.6215     | 2.6215     | 2.6216     |   0.0 |  0.06
Modify  | 65.591     | 65.736     | 65.882     |   1.8 |  1.58
Other   |            | 11         |            |       |  0.27

Nlocal:    9826 ave 9853 max 9799 min
Histogram: 1 0 0 0 0 0 0 0 0 1
Nghost:    11316.5 ave 11341 max 11292 min
Histogram: 1 0 0 0 0 0 0 0 0 1
Neighs:    544616 ave 547153 max 542078 min
Histogram: 1 0 0 0 0 0 0 0 0 1

Total # of neighbors = 1089231
Ave neighs/atom = 55.426
Neighbor list builds = 49505
Dangerous builds not checked
Setting up Verlet run ...
  Unit style    : metal
  Current step  : 90000
  Time step     : 0.001
Per MPI rank memory allocation (min/avg/max) = 11.3 | 11.3 | 11.3 Mbytes
Step Temp Press TotEng PotEng Enthalpy 
   90000    2401.6463    -827.3086   -51223.996   -57324.396    -51457.96 
   90495    2366.2295    362.84369    -51463.97   -57474.409   -51362.284 
Loop time of 37.0785 on 2 procs for 495 steps with 19652 atoms

Performance: 1.153 ns/day, 20.807 hours/ns, 13.350 timesteps/s
98.1% CPU use with 2 MPI tasks x no OpenMP threads

MPI task timing breakdown:
Section |  min time  |  avg time  |  max time  |%varavg| %total
---------------------------------------------------------------
Pair    | 20.374     | 20.377     | 20.379     |   0.1 | 54.96
Neigh   | 14.439     | 14.682     | 14.926     |   6.4 | 39.60
Comm    | 1.219      | 1.4936     | 1.7682     |  22.5 |  4.03
Output  | 7.2956e-05 | 9.799e-05  | 0.00012302 |   0.0 |  0.00
Modify  | 0.39357    | 0.41185    | 0.43013    |   2.8 |  1.11
Other   |            | 0.1137     |            |       |  0.31

Nlocal:    9826 ave 9832 max 9820 min
Histogram: 1 0 0 0 0 0 0 0 0 1
Nghost:    11403.5 ave 11405 max 11402 min
Histogram: 1 0 0 0 0 0 0 0 0 1
Neighs:    549637 ave 550674 max 548600 min
Histogram: 1 0 0 0 0 0 0 0 0 1

Total # of neighbors = 1099274
Ave neighs/atom = 55.937
Neighbor list builds = 495
Dangerous builds not checked
Setting up Verlet run ...
  Unit style    : metal
  Current step  : 90495
  Time step     : 0.001
Per MPI rank memory allocation (min/avg/max) = 11.3 | 11.3 | 11.3 Mbytes
Step Temp Press TotEng PotEng Enthalpy 
   90495    2366.2295    362.84369    -51463.97   -57474.409   -51362.284 
  100000    2352.6066    244.78898   -51501.534    -57477.37   -51432.967 
  140000    2352.3814    -559.8437   -51477.068   -57452.331   -51634.384 
Loop time of 4219.89 on 2 procs for 49505 steps with 19652 atoms

Performance: 1.014 ns/day, 23.678 hours/ns, 11.731 timesteps/s
96.0% CPU use with 2 MPI tasks x no OpenMP threads

MPI task timing breakdown:
Section |  min time  |  avg time  |  max time  |%varavg| %total
---------------------------------------------------------------
Pair    | 2272.1     | 2283.5     | 2294.9     |  23.9 | 54.11
Neigh   | 1597.5     | 1600.1     | 1602.7     |   6.5 | 37.92
Comm    | 241.44     | 255.65     | 269.85     |  88.8 |  6.06
Output  | 15.893     | 15.893     | 15.893     |   0.0 |  0.38
Modify  | 53.205     | 53.277     | 53.349     |   1.0 |  1.26
Other   |            | 11.49      |            |       |  0.27

Nlocal:    9826 ave 9845 max 9807 min
Histogram: 1 0 0 0 0 0 0 0 0 1
Nghost:    11339 ave 11385 max 11293 min
Histogram: 1 0 0 0 0 0 0 0 0 1
Neighs:    548100 ave 550355 max 545846 min
Histogram: 1 0 0 0 0 0 0 0 0 1

Total # of neighbors = 1096201
Ave neighs/atom = 55.7806
Neighbor list builds = 49505
Dangerous builds not checked
Setting up Verlet run ...
  Unit style    : metal
  Current step  : 140000
  Time step     : 0.001
Per MPI rank memory allocation (min/avg/max) = 11.33 | 11.33 | 11.33 Mbytes
Step Temp Press TotEng PotEng Enthalpy 
  140000    2352.3814    -559.8437   -51477.068   -57452.331   -51634.384 
  140495    2319.9774   -94.788563   -51747.342   -57640.296   -51773.741 
Loop time of 51.3015 on 2 procs for 495 steps with 19652 atoms

Performance: 0.834 ns/day, 28.789 hours/ns, 9.649 timesteps/s
86.5% CPU use with 2 MPI tasks x no OpenMP threads

MPI task timing breakdown:
Section |  min time  |  avg time  |  max time  |%varavg| %total
---------------------------------------------------------------
Pair    | 24.356     | 24.45      | 24.545     |   1.9 | 47.66
Neigh   | 15.442     | 15.664     | 15.886     |   5.6 | 30.53
Comm    | 10.532     | 10.655     | 10.779     |   3.8 | 20.77
Output  | 8.297e-05  | 0.00011897 | 0.00015497 |   0.0 |  0.00
Modify  | 0.409      | 0.41241    | 0.41581    |   0.5 |  0.80
Other   |            | 0.1195     |            |       |  0.23

Nlocal:    9826 ave 9834 max 9818 min
Histogram: 1 0 0 0 0 0 0 0 0 1
Nghost:    11433 ave 11464 max 11402 min
Histogram: 1 0 0 0 0 0 0 0 0 1
Neighs:    553137 ave 558673 max 547601 min
Histogram: 1 0 0 0 0 0 0 0 0 1

Total # of neighbors = 1106274
Ave neighs/atom = 56.2932
Neighbor list builds = 495
Dangerous builds not checked
Setting up Verlet run ...
  Unit style    : metal
  Current step  : 140495
  Time step     : 0.001
Per MPI rank memory allocation (min/avg/max) = 11.33 | 11.33 | 11.33 Mbytes
Step Temp Press TotEng PotEng Enthalpy 
  140495    2319.9774   -94.788563   -51747.342   -57640.296   -51773.741 
  150000    2296.5652   -150.45375   -51853.163   -57686.648   -51895.047 
  190000    2332.7363    760.51741   -51606.764   -57532.126   -51394.492 
Loop time of 4390.16 on 2 procs for 49505 steps with 19652 atoms

Performance: 0.974 ns/day, 24.634 hours/ns, 11.276 timesteps/s
96.5% CPU use with 2 MPI tasks x no OpenMP threads

MPI task timing breakdown:
Section |  min time  |  avg time  |  max time  |%varavg| %total
---------------------------------------------------------------
Pair    | 2318.7     | 2330.9     | 2343       |  25.1 | 53.09
Neigh   | 1706.9     | 1716.1     | 1725.4     |  22.3 | 39.09
Comm    | 263.68     | 266.52     | 269.36     |  17.4 |  6.07
Output  | 0.4961     | 0.49614    | 0.49618    |   0.0 |  0.01
Modify  | 64.677     | 64.708     | 64.74      |   0.4 |  1.47
Other   |            | 11.46      |            |       |  0.26

Nlocal:    9826 ave 9843 max 9809 min
Histogram: 1 0 0 0 0 0 0 0 0 1
Nghost:    11351.5 ave 11361 max 11342 min
Histogram: 1 0 0 0 0 0 0 0 0 1
Neighs:    552135 ave 558264 max 546006 min
Histogram: 1 0 0 0 0 0 0 0 0 1

Total # of neighbors = 1104270
Ave neighs/atom = 56.1912
Neighbor list builds = 49505
Dangerous builds not checked
Setting up Verlet run ...
  Unit style    : metal
  Current step  : 190000
  Time step     : 0.001
Per MPI rank memory allocation (min/avg/max) = 11.35 | 11.35 | 11.35 Mbytes
Step Temp Press TotEng PotEng Enthalpy 
  190000    2332.7363    760.51741   -51606.764   -57532.126   -51394.492 
  190495    2260.7892    466.37468   -51964.784   -57707.394   -51835.454 
Loop time of 44.0317 on 2 procs for 495 steps with 19652 atoms

Performance: 0.971 ns/day, 24.709 hours/ns, 11.242 timesteps/s
88.6% CPU use with 2 MPI tasks x no OpenMP threads

MPI task timing breakdown:
Section |  min time  |  avg time  |  max time  |%varavg| %total
---------------------------------------------------------------
Pair    | 20.232     | 20.361     | 20.489     |   2.9 | 46.24
Neigh   | 14.652     | 14.877     | 15.102     |   5.8 | 33.79
Comm    | 7.3715     | 7.7282     | 8.0849     |  12.8 | 17.55
Output  | 7.391e-05  | 9.2983e-05 | 0.00011206 |   0.0 |  0.00
Modify  | 0.96129    | 0.96405    | 0.96682    |   0.3 |  2.19
Other   |            | 0.102      |            |       |  0.23

Nlocal:    9826 ave 9858 max 9794 min
Histogram: 1 0 0 0 0 0 0 0 0 1
Nghost:    11480.5 ave 11492 max 11469 min
Histogram: 1 0 0 0 0 0 0 0 0 1
Neighs:    555591 ave 557084 max 554098 min
Histogram: 1 0 0 0 0 0 0 0 0 1

Total # of neighbors = 1111182
Ave neighs/atom = 56.5429
Neighbor list builds = 495
Dangerous builds not checked
Setting up Verlet run ...
  Unit style    : metal
  Current step  : 190495
  Time step     : 0.001
Per MPI rank memory allocation (min/avg/max) = 11.35 | 11.35 | 11.35 Mbytes
Step Temp Press TotEng PotEng Enthalpy 
  190495    2260.7892    466.37468   -51964.784   -57707.394   -51835.454 
  200000    2246.8995   -412.75363     -52042.9   -57750.229   -52157.301 
  240000    2251.2063    1047.3092    -52142.69   -57860.959   -51854.155 
Loop time of 4184.19 on 2 procs for 49505 steps with 19652 atoms

Performance: 1.022 ns/day, 23.478 hours/ns, 11.831 timesteps/s
96.5% CPU use with 2 MPI tasks x no OpenMP threads

MPI task timing breakdown:
Section |  min time  |  avg time  |  max time  |%varavg| %total
---------------------------------------------------------------
Pair    | 2154       | 2189.7     | 2225.4     |  76.4 | 52.33
Neigh   | 1610.2     | 1653.8     | 1697.3     | 107.1 | 39.52
Comm    | 196.1      | 276.11     | 356.12     | 481.5 |  6.60
Output  | 0.057391   | 0.057431   | 0.057471   |   0.0 |  0.00
Modify  | 53.436     | 53.751     | 54.066     |   4.3 |  1.28
Other   |            | 10.8       |            |       |  0.26

Nlocal:    9826 ave 9837 max 9815 min
Histogram: 1 0 0 0 0 0 0 0 0 1
Nghost:    11425.5 ave 11434 max 11417 min
Histogram: 1 0 0 0 0 0 0 0 0 1
Neighs:    559426 ave 563972 max 554880 min
Histogram: 1 0 0 0 0 0 0 0 0 1

Total # of neighbors = 1118852
Ave neighs/atom = 56.9332
Neighbor list builds = 49505
Dangerous builds not checked
Setting up Verlet run ...
  Unit style    : metal
  Current step  : 240000
  Time step     : 0.001
Per MPI rank memory allocation (min/avg/max) = 11.35 | 11.35 | 11.35 Mbytes
Step Temp Press TotEng PotEng Enthalpy 
  240000    2251.2063    1047.3092    -52142.69   -57860.959   -51854.155 
  240495    2188.8642   -905.01578   -52215.565    -57775.48   -52466.477 
Loop time of 37.9016 on 2 procs for 495 steps with 19652 atoms

Performance: 1.128 ns/day, 21.269 hours/ns, 13.060 timesteps/s
99.6% CPU use with 2 MPI tasks x no OpenMP threads

MPI task timing breakdown:
Section |  min time  |  avg time  |  max time  |%varavg| %total
---------------------------------------------------------------
Pair    | 19.655     | 19.908     | 20.162     |   5.7 | 52.53
Neigh   | 15.278     | 15.848     | 16.418     |  14.3 | 41.81
Comm    | 0.82776    | 1.6581     | 2.4885     |  64.5 |  4.37
Output  | 7.5102e-05 | 9.3579e-05 | 0.00011206 |   0.0 |  0.00
Modify  | 0.37772    | 0.37989    | 0.38205    |   0.4 |  1.00
Other   |            | 0.1071     |            |       |  0.28

Nlocal:    9826 ave 9841 max 9811 min
Histogram: 1 0 0 0 0 0 0 0 0 1
Nghost:    11399 ave 11428 max 11370 min
Histogram: 1 0 0 0 0 0 0 0 0 1
Neighs:    555734 ave 559008 max 552460 min
Histogram: 1 0 0 0 0 0 0 0 0 1

Total # of neighbors = 1111468
Ave neighs/atom = 56.5575
Neighbor list builds = 495
Dangerous builds not checked
Setting up Verlet run ...
  Unit style    : metal
  Current step  : 240495
  Time step     : 0.001
Per MPI rank memory allocation (min/avg/max) = 11.35 | 11.35 | 11.35 Mbytes
Step Temp Press TotEng PotEng Enthalpy 
  240495    2188.8642   -905.01578   -52215.565    -57775.48   -52466.477 
  250000    2181.4543   -1024.4696   -52320.099   -57861.192   -52603.376 
  290000    2201.9705   -349.33084   -52323.007   -57916.212   -52419.309 
Loop time of 4215.67 on 2 procs for 49505 steps with 19652 atoms

Performance: 1.015 ns/day, 23.655 hours/ns, 11.743 timesteps/s
96.9% CPU use with 2 MPI tasks x no OpenMP threads

MPI task timing breakdown:
Section |  min time  |  avg time  |  max time  |%varavg| %total
---------------------------------------------------------------
Pair    | 2221.6     | 2231       | 2240.4     |  19.8 | 52.92
Neigh   | 1695       | 1713.1     | 1731.1     |  43.6 | 40.64
Comm    | 187.14     | 214.71     | 242.27     | 188.1 |  5.09
Output  | 0.086573   | 0.086607   | 0.086642   |   0.0 |  0.00
Modify  | 45.088     | 45.286     | 45.484     |   2.9 |  1.07
Other   |            | 11.54      |            |       |  0.27

Nlocal:    9826 ave 9842 max 9810 min
Histogram: 1 0 0 0 0 0 0 0 0 1
Nghost:    11425.5 ave 11427 max 11424 min
Histogram: 1 0 0 0 0 0 0 0 0 1
Neighs:    558909 ave 563342 max 554476 min
Histogram: 1 0 0 0 0 0 0 0 0 1

Total # of neighbors = 1117818
Ave neighs/atom = 56.8806
Neighbor list builds = 49505
Dangerous builds not checked
Setting up Verlet run ...
  Unit style    : metal
  Current step  : 290000
  Time step     : 0.001
Per MPI rank memory allocation (min/avg/max) = 11.35 | 11.35 | 11.35 Mbytes
Step Temp Press TotEng PotEng Enthalpy 
  290000    2201.9705   -349.33084   -52323.007   -57916.212   -52419.309 
  290495    2160.0315    476.01038   -52557.035   -58043.712   -52426.796 
Loop time of 41.564 on 2 procs for 495 steps with 19652 atoms

Performance: 1.029 ns/day, 23.324 hours/ns, 11.909 timesteps/s
95.6% CPU use with 2 MPI tasks x no OpenMP threads

MPI task timing breakdown:
Section |  min time  |  avg time  |  max time  |%varavg| %total
---------------------------------------------------------------
Pair    | 22.193     | 22.303     | 22.413     |   2.3 | 53.66
Neigh   | 15.907     | 16.909     | 17.912     |  24.4 | 40.68
Comm    | 0.87636    | 1.7923     | 2.7082     |  68.4 |  4.31
Output  | 8.7976e-05 | 0.00011647 | 0.00014496 |   0.0 |  0.00
Modify  | 0.4168     | 0.44016    | 0.46352    |   3.5 |  1.06
Other   |            | 0.1192     |            |       |  0.29

Nlocal:    9826 ave 9829 max 9823 min
Histogram: 1 0 0 0 0 0 0 0 0 1
Nghost:    11498 ave 11502 max 11494 min
Histogram: 1 0 0 0 0 0 0 0 0 1
Neighs:    563234 ave 568019 max 558449 min
Histogram: 1 0 0 0 0 0 0 0 0 1

Total # of neighbors = 1126468
Ave neighs/atom = 57.3208
Neighbor list builds = 495
Dangerous builds not checked
Setting up Verlet run ...
  Unit style    : metal
  Current step  : 290495
  Time step     : 0.001
Per MPI rank memory allocation (min/avg/max) = 11.35 | 11.35 | 11.35 Mbytes
Step Temp Press TotEng PotEng Enthalpy 
  290495    2160.0315    476.01038   -52557.035   -58043.712   -52426.796 
  300000    2124.4854    -86.87073   -52704.523    -58100.91   -52728.245 
  340000    2156.6016    158.83785   -52589.597   -58067.561   -52546.149 
Loop time of 3813.28 on 2 procs for 49505 steps with 19652 atoms

Performance: 1.122 ns/day, 21.397 hours/ns, 12.982 timesteps/s
98.3% CPU use with 2 MPI tasks x no OpenMP threads

MPI task timing breakdown:
Section |  min time  |  avg time  |  max time  |%varavg| %total
---------------------------------------------------------------
Pair    | 1948.2     | 1972.7     | 1997.1     |  55.1 | 51.73
Neigh   | 1576.8     | 1597.7     | 1618.5     |  52.2 | 41.90
Comm    | 144.29     | 190.12     | 235.96     | 332.4 |  4.99
Output  | 0.12416    | 0.12419    | 0.12421    |   0.0 |  0.00
Modify  | 41.783     | 42.097     | 42.411     |   4.8 |  1.10
Other   |            | 10.56      |            |       |  0.28

Nlocal:    9826 ave 9830 max 9822 min
Histogram: 1 0 0 0 0 0 0 0 0 1
Nghost:    11456.5 ave 11462 max 11451 min
Histogram: 1 0 0 0 0 0 0 0 0 1
Neighs:    563279 ave 567639 max 558919 min
Histogram: 1 0 0 0 0 0 0 0 0 1

Total # of neighbors = 1126558
Ave neighs/atom = 57.3254
Neighbor list builds = 49505
Dangerous builds not checked
Setting up Verlet run ...
  Unit style    : metal
  Current step  : 340000
  Time step     : 0.001
Per MPI rank memory allocation (min/avg/max) = 11.35 | 11.35 | 11.35 Mbytes
Step Temp Press TotEng PotEng Enthalpy 
  340000    2156.6016    158.83785   -52589.597   -58067.561   -52546.149 
  340495    2128.9108    430.99572   -52766.307   -58173.935   -52648.897 
Loop time of 36.8626 on 2 procs for 495 steps with 19652 atoms

Performance: 1.160 ns/day, 20.686 hours/ns, 13.428 timesteps/s
98.7% CPU use with 2 MPI tasks x no OpenMP threads

MPI task timing breakdown:
Section |  min time  |  avg time  |  max time  |%varavg| %total
---------------------------------------------------------------
Pair    | 18.946     | 19.35      | 19.753     |   9.2 | 52.49
Neigh   | 15.523     | 15.637     | 15.751     |   2.9 | 42.42
Comm    | 0.83659    | 1.3621     | 1.8875     |  45.0 |  3.69
Output  | 7.1049e-05 | 8.8096e-05 | 0.00010514 |   0.0 |  0.00
Modify  | 0.39882    | 0.40084    | 0.40287    |   0.3 |  1.09
Other   |            | 0.113      |            |       |  0.31

Nlocal:    9826 ave 9833 max 9819 min
Histogram: 1 0 0 0 0 0 0 0 0 1
Nghost:    11496 ave 11519 max 11473 min
Histogram: 1 0 0 0 0 0 0 0 0 1
Neighs:    565709 ave 571754 max 559664 min
Histogram: 1 0 0 0 0 0 0 0 0 1

Total # of neighbors = 1131418
Ave neighs/atom = 57.5727
Neighbor list builds = 495
Dangerous builds not checked
Setting up Verlet run ...
  Unit style    : metal
  Current step  : 340495
  Time step     : 0.001
Per MPI rank memory allocation (min/avg/max) = 11.35 | 11.35 | 11.35 Mbytes
Step Temp Press TotEng PotEng Enthalpy 
  340495    2128.9108    430.99572   -52766.307   -58173.935   -52648.897 
  350000    2121.0311    373.56775   -52794.392   -58182.004    -52692.75 
  390000    2099.6192   -231.87445   -52852.079   -58185.303   -52915.253 
Loop time of 4121.53 on 2 procs for 49505 steps with 19652 atoms

Performance: 1.038 ns/day, 23.126 hours/ns, 12.011 timesteps/s
99.2% CPU use with 2 MPI tasks x no OpenMP threads

MPI task timing breakdown:
Section |  min time  |  avg time  |  max time  |%varavg| %total
---------------------------------------------------------------
Pair    | 2198.3     | 2209.5     | 2220.8     |  23.9 | 53.61
Neigh   | 1684.7     | 1702.6     | 1720.5     |  43.3 | 41.31
Comm    | 126.29     | 155.52     | 184.74     | 234.4 |  3.77
Output  | 0.2252     | 0.22526    | 0.22532    |   0.0 |  0.01
Modify  | 41.891     | 42.024     | 42.157     |   2.1 |  1.02
Other   |            | 11.61      |            |       |  0.28

Nlocal:    9826 ave 9835 max 9817 min
Histogram: 1 0 0 0 0 0 0 0 0 1
Nghost:    11468.5 ave 11487 max 11450 min
Histogram: 1 0 0 0 0 0 0 0 0 1
Neighs:    565594 ave 569659 max 561528 min
Histogram: 1 0 0 0 0 0 0 0 0 1

Total # of neighbors = 1131187
Ave neighs/atom = 57.5609
Neighbor list builds = 49505
Dangerous builds not checked
Setting up Verlet run ...
  Unit style    : metal
  Current step  : 390000
  Time step     : 0.001
Per MPI rank memory allocation (min/avg/max) = 11.35 | 11.35 | 11.36 Mbytes
Step Temp Press TotEng PotEng Enthalpy 
  390000    2099.6192   -231.87445   -52852.079   -58185.303   -52915.253 
  390495    2067.3188    485.13155   -53118.222     -58369.4   -52987.202 
Loop time of 42.3439 on 2 procs for 495 steps with 19652 atoms

Performance: 1.010 ns/day, 23.762 hours/ns, 11.690 timesteps/s
99.6% CPU use with 2 MPI tasks x no OpenMP threads

MPI task timing breakdown:
Section |  min time  |  avg time  |  max time  |%varavg| %total
---------------------------------------------------------------
Pair    | 22.48      | 22.955     | 23.43      |   9.9 | 54.21
Neigh   | 16.71      | 17.067     | 17.424     |   8.6 | 40.31
Comm    | 0.92757    | 1.7625     | 2.5974     |  62.9 |  4.16
Output  | 7.2002e-05 | 0.0001055  | 0.000139   |   0.0 |  0.00
Modify  | 0.4396     | 0.44151    | 0.44342    |   0.3 |  1.04
Other   |            | 0.1177     |            |       |  0.28

Nlocal:    9826 ave 9871 max 9781 min
Histogram: 1 0 0 0 0 0 0 0 0 1
Nghost:    11494.5 ave 11499 max 11490 min
Histogram: 1 0 0 0 0 0 0 0 0 1
Neighs:    570626 ave 571609 max 569643 min
Histogram: 1 0 0 0 0 0 0 0 0 1

Total # of neighbors = 1141252
Ave neighs/atom = 58.0731
Neighbor list builds = 495
Dangerous builds not checked
Setting up Verlet run ...
  Unit style    : metal
  Current step  : 390495
  Time step     : 0.001
Per MPI rank memory allocation (min/avg/max) = 11.35 | 11.35 | 11.36 Mbytes
Step Temp Press TotEng PotEng Enthalpy 
  390495    2067.3188    485.13155   -53118.222     -58369.4   -52987.202 
  400000    2034.8444    247.37223   -53248.381   -58417.071   -53181.682 
  440000    2068.1475    624.94781   -53124.606   -58377.889   -52955.941 
Loop time of 4243.27 on 2 procs for 49505 steps with 19652 atoms

Performance: 1.008 ns/day, 23.809 hours/ns, 11.667 timesteps/s
98.3% CPU use with 2 MPI tasks x no OpenMP threads

MPI task timing breakdown:
Section |  min time  |  avg time  |  max time  |%varavg| %total
---------------------------------------------------------------
Pair    | 2265.5     | 2283.5     | 2301.4     |  37.5 | 53.81
Neigh   | 1687.2     | 1691.4     | 1695.5     |  10.0 | 39.86
Comm    | 192.98     | 214.88     | 236.79     | 149.4 |  5.06
Output  | 0.055349   | 0.055395   | 0.05544    |   0.0 |  0.00
Modify  | 42.048     | 42.152     | 42.256     |   1.6 |  0.99
Other   |            | 11.35      |            |       |  0.27

Nlocal:    9826 ave 9864 max 9788 min
Histogram: 1 0 0 0 0 0 0 0 0 1
Nghost:    11519 ave 11542 max 11496 min
Histogram: 1 0 0 0 0 0 0 0 0 1
Neighs:    571028 ave 573303 max 568754 min
Histogram: 1 0 0 0 0 0 0 0 0 1

Total # of neighbors = 1142057
Ave neighs/atom = 58.114
Neighbor list builds = 49505
Dangerous builds not checked
Setting up Verlet run ...
  Unit style    : metal
  Current step  : 440000
  Time step     : 0.001
Per MPI rank memory allocation (min/avg/max) = 11.35 | 11.35 | 11.36 Mbytes
Step Temp Press TotEng PotEng Enthalpy 
  440000    2068.1475    624.94781   -53124.606   -58377.889   -52955.941 
  440495    2022.9173   -473.47512   -53351.116    -58489.51   -53478.657 
Loop time of 38.7263 on 2 procs for 495 steps with 19652 atoms

Performance: 1.104 ns/day, 21.732 hours/ns, 12.782 timesteps/s
98.4% CPU use with 2 MPI tasks x no OpenMP threads

MPI task timing breakdown:
Section |  min time  |  avg time  |  max time  |%varavg| %total
---------------------------------------------------------------
Pair    | 20.537     | 20.598     | 20.66      |   1.3 | 53.19
Neigh   | 16.545     | 16.562     | 16.58      |   0.4 | 42.77
Comm    | 0.95417    | 1.0366     | 1.1191     |   8.1 |  2.68
Output  | 6.7949e-05 | 8.3566e-05 | 9.9182e-05 |   0.0 |  0.00
Modify  | 0.41736    | 0.42268    | 0.42799    |   0.8 |  1.09
Other   |            | 0.1064     |            |       |  0.27

Nlocal:    9826 ave 9868 max 9784 min
Histogram: 1 0 0 0 0 0 0 0 0 1
Nghost:    11548.5 ave 11574 max 11523 min
Histogram: 1 0 0 0 0 0 0 0 0 1
Neighs:    572054 ave 572682 max 571427 min
Histogram: 1 0 0 0 0 0 0 0 0 1

Total # of neighbors = 1144109
Ave neighs/atom = 58.2185
Neighbor list builds = 495
Dangerous builds not checked
Setting up Verlet run ...
  Unit style    : metal
  Current step  : 440495
  Time step     : 0.001
Per MPI rank memory allocation (min/avg/max) = 11.35 | 11.35 | 11.36 Mbytes
Step Temp Press TotEng PotEng Enthalpy 
  440495    2022.9173   -473.47512   -53351.116    -58489.51   -53478.657 
  450000    1990.4148    68.557947   -53521.614   -58577.449   -53503.237 
  490000     1996.748    509.06908   -53512.278     -58584.2   -53376.031 
Loop time of 3993.08 on 2 procs for 49505 steps with 19652 atoms

Performance: 1.071 ns/day, 22.406 hours/ns, 12.398 timesteps/s
98.0% CPU use with 2 MPI tasks x no OpenMP threads

MPI task timing breakdown:
Section |  min time  |  avg time  |  max time  |%varavg| %total
---------------------------------------------------------------
Pair    | 2109       | 2127.6     | 2146.2     |  40.3 | 53.28
Neigh   | 1627.8     | 1631.3     | 1634.7     |   8.6 | 40.85
Comm    | 160.48     | 182.66     | 204.85     | 164.1 |  4.57
Output  | 0.69381    | 0.69386    | 0.69391    |   0.0 |  0.02
Modify  | 40.097     | 40.248     | 40.4       |   2.4 |  1.01
Other   |            | 10.62      |            |       |  0.27

Nlocal:    9826 ave 9845 max 9807 min
Histogram: 1 0 0 0 0 0 0 0 0 1
Nghost:    11587.5 ave 11609 max 11566 min
Histogram: 1 0 0 0 0 0 0 0 0 1
Neighs:    575928 ave 580589 max 571266 min
Histogram: 1 0 0 0 0 0 0 0 0 1

Total # of neighbors = 1151855
Ave neighs/atom = 58.6126
Neighbor list builds = 49505
Dangerous builds not checked
Setting up Verlet run ...
  Unit style    : metal
  Current step  : 490000
  Time step     : 0.001
Per MPI rank memory allocation (min/avg/max) = 11.35 | 11.35 | 11.36 Mbytes
Step Temp Press TotEng PotEng Enthalpy 
  490000     1996.748    509.06908   -53512.278     -58584.2   -53376.031 
  490495    1961.4174    311.57391   -53612.998   -58595.177    -53529.63 
Loop time of 37.9541 on 2 procs for 495 steps with 19652 atoms

Performance: 1.127 ns/day, 21.299 hours/ns, 13.042 timesteps/s
99.4% CPU use with 2 MPI tasks x no OpenMP threads

MPI task timing breakdown:
Section |  min time  |  avg time  |  max time  |%varavg| %total
---------------------------------------------------------------
Pair    | 20.102     | 20.307     | 20.512     |   4.6 | 53.50
Neigh   | 14.977     | 15.346     | 15.716     |   9.4 | 40.43
Comm    | 1.641      | 1.8201     | 1.9992     |  13.3 |  4.80
Output  | 6.9857e-05 | 0.00011289 | 0.00015593 |   0.0 |  0.00
Modify  | 0.36179    | 0.37697    | 0.39214    |   2.5 |  0.99
Other   |            | 0.1039     |            |       |  0.27

Nlocal:    9826 ave 9854 max 9798 min
Histogram: 1 0 0 0 0 0 0 0 0 1
Nghost:    11585.5 ave 11623 max 11548 min
Histogram: 1 0 0 0 0 0 0 0 0 1
Neighs:    576072 ave 583265 max 568879 min
Histogram: 1 0 0 0 0 0 0 0 0 1

Total # of neighbors = 1152144
Ave neighs/atom = 58.6273
Neighbor list builds = 495
Dangerous builds not checked
Setting up Verlet run ...
  Unit style    : metal
  Current step  : 490495
  Time step     : 0.001
Per MPI rank memory allocation (min/avg/max) = 11.35 | 11.35 | 11.36 Mbytes
Step Temp Press TotEng PotEng Enthalpy 
  490495    1961.4174    311.57391   -53612.998   -58595.177    -53529.63 
  500000    1969.8229    495.99977   -53764.495   -58768.024   -53632.679 
  540000    1934.6619    -231.8143   -53778.292   -58692.509   -53840.101 
Loop time of 3890.57 on 2 procs for 49505 steps with 19652 atoms

Performance: 1.099 ns/day, 21.830 hours/ns, 12.724 timesteps/s
98.7% CPU use with 2 MPI tasks x no OpenMP threads

MPI task timing breakdown:
Section |  min time  |  avg time  |  max time  |%varavg| %total
---------------------------------------------------------------
Pair    | 2071       | 2073.1     | 2075.2     |   4.6 | 53.29
Neigh   | 1540.9     | 1559.2     | 1577.4     |  46.2 | 40.08
Comm    | 189.51     | 205.95     | 222.38     | 114.5 |  5.29
Output  | 0.27139    | 0.27144    | 0.27148    |   0.0 |  0.01
Modify  | 41.829     | 41.846     | 41.862     |   0.3 |  1.08
Other   |            | 10.2       |            |       |  0.26

Nlocal:    9826 ave 9828 max 9824 min
Histogram: 1 0 0 0 0 0 0 0 0 1
Nghost:    11539.5 ave 11541 max 11538 min
Histogram: 1 0 0 0 0 0 0 0 0 1
Neighs:    578154 ave 583600 max 572707 min
Histogram: 1 0 0 0 0 0 0 0 0 1

Total # of neighbors = 1156307
Ave neighs/atom = 58.8392
Neighbor list builds = 49505
Dangerous builds not checked
Setting up Verlet run ...
  Unit style    : metal
  Current step  : 540000
  Time step     : 0.001
Per MPI rank memory allocation (min/avg/max) = 11.35 | 11.35 | 11.36 Mbytes
Step Temp Press TotEng PotEng Enthalpy 
  540000    1934.6619    -231.8143   -53778.292   -58692.509   -53840.101 
  540495    1910.3177   -203.63121   -53926.271   -58778.652   -53980.435 
Loop time of 37.0915 on 2 procs for 495 steps with 19652 atoms

Performance: 1.153 ns/day, 20.815 hours/ns, 13.345 timesteps/s
99.6% CPU use with 2 MPI tasks x no OpenMP threads

MPI task timing breakdown:
Section |  min time  |  avg time  |  max time  |%varavg| %total
---------------------------------------------------------------
Pair    | 19.824     | 19.919     | 20.013     |   2.1 | 53.70
Neigh   | 13.878     | 14.714     | 15.551     |  21.8 | 39.67
Comm    | 1.0474     | 2.0007     | 2.954      |  67.4 |  5.39
Output  | 8.2016e-05 | 0.00011504 | 0.00014806 |   0.0 |  0.00
Modify  | 0.34515    | 0.35688    | 0.36861    |   2.0 |  0.96
Other   |            | 0.1011     |            |       |  0.27

Nlocal:    9826 ave 9855 max 9797 min
Histogram: 1 0 0 0 0 0 0 0 0 1
Nghost:    11564.5 ave 11572 max 11557 min
Histogram: 1 0 0 0 0 0 0 0 0 1
Neighs:    579628 ave 582273 max 576984 min
Histogram: 1 0 0 0 0 0 0 0 0 1

Total # of neighbors = 1159257
Ave neighs/atom = 58.9893
Neighbor list builds = 495
Dangerous builds not checked
Setting up Verlet run ...
  Unit style    : metal
  Current step  : 540495
  Time step     : 0.001
Per MPI rank memory allocation (min/avg/max) = 11.35 | 11.35 | 11.36 Mbytes
Step Temp Press TotEng PotEng Enthalpy 
  540495    1910.3177   -203.63121   -53926.271   -58778.652   -53980.435 
  550000    1904.9163    313.07138   -54020.991   -58859.652   -53938.134 
  590000     1910.769    984.61637    -53934.48   -58788.007   -53673.454 
Loop time of 4034.18 on 2 procs for 49505 steps with 19652 atoms

Performance: 1.060 ns/day, 22.636 hours/ns, 12.271 timesteps/s
96.0% CPU use with 2 MPI tasks x no OpenMP threads

MPI task timing breakdown:
Section |  min time  |  avg time  |  max time  |%varavg| %total
---------------------------------------------------------------
Pair    | 2093.4     | 2127.6     | 2161.9     |  74.2 | 52.74
Neigh   | 1421.5     | 1485.4     | 1549.4     | 166.0 | 36.82
Comm    | 256.89     | 357.81     | 458.74     | 533.5 |  8.87
Output  | 1.0759     | 1.0759     | 1.076      |   0.0 |  0.03
Modify  | 50.489     | 52.568     | 54.647     |  28.7 |  1.30
Other   |            | 9.647      |            |       |  0.24

Nlocal:    9826 ave 9832 max 9820 min
Histogram: 1 0 0 0 0 0 0 0 0 1
Nghost:    11599.5 ave 11626 max 11573 min
Histogram: 1 0 0 0 0 0 0 0 0 1
Neighs:    581896 ave 585968 max 577825 min
Histogram: 1 0 0 0 0 0 0 0 0 1

Total # of neighbors = 1163793
Ave neighs/atom = 59.2201
Neighbor list builds = 49505
Dangerous builds not checked
Setting up Verlet run ...
  Unit style    : metal
  Current step  : 590000
  Time step     : 0.001
Per MPI rank memory allocation (min/avg/max) = 11.35 | 11.35 | 11.36 Mbytes
Step Temp Press TotEng PotEng Enthalpy 
  590000     1910.769    984.61637    -53934.48   -58788.007   -53673.454 
  590495    1868.0682    33.944467   -54213.272   -58958.336   -54204.317 
Loop time of 35.1534 on 2 procs for 495 steps with 19652 atoms

Performance: 1.217 ns/day, 19.727 hours/ns, 14.081 timesteps/s
100.0% CPU use with 2 MPI tasks x no OpenMP threads

MPI task timing breakdown:
Section |  min time  |  avg time  |  max time  |%varavg| %total
---------------------------------------------------------------
Pair    | 18.464     | 18.726     | 18.989     |   6.1 | 53.27
Neigh   | 12.207     | 13.684     | 15.161     |  39.9 | 38.93
Comm    | 0.54389    | 2.3174     | 4.0908     | 116.5 |  6.59
Output  | 8.7976e-05 | 0.00011802 | 0.00014806 |   0.0 |  0.00
Modify  | 0.31209    | 0.33297    | 0.35385    |   3.6 |  0.95
Other   |            | 0.09284    |            |       |  0.26

Nlocal:    9826 ave 9831 max 9821 min
Histogram: 1 0 0 0 0 0 0 0 0 1
Nghost:    11685.5 ave 11703 max 11668 min
Histogram: 1 0 0 0 0 0 0 0 0 1
Neighs:    584586 ave 590258 max 578915 min
Histogram: 1 0 0 0 0 0 0 0 0 1

Total # of neighbors = 1169173
Ave neighs/atom = 59.4938
Neighbor list builds = 495
Dangerous builds not checked
Setting up Verlet run ...
  Unit style    : metal
  Current step  : 590495
  Time step     : 0.001
Per MPI rank memory allocation (min/avg/max) = 11.35 | 11.35 | 11.36 Mbytes
Step Temp Press TotEng PotEng Enthalpy 
  590495    1868.0682    33.944467   -54213.272   -58958.336   -54204.317 
  600000    1848.3058    422.02317   -54354.614   -59049.479   -54243.817 
  640000    1847.8475    516.77052   -54336.655   -59030.356   -54200.854 
Loop time of 4018.68 on 2 procs for 49505 steps with 19652 atoms

Performance: 1.064 ns/day, 22.549 hours/ns, 12.319 timesteps/s
97.7% CPU use with 2 MPI tasks x no OpenMP threads

MPI task timing breakdown:
Section |  min time  |  avg time  |  max time  |%varavg| %total
---------------------------------------------------------------
Pair    | 2121.9     | 2133.8     | 2145.7     |  25.7 | 53.10
Neigh   | 1497.9     | 1511.9     | 1526       |  36.1 | 37.62
Comm    | 294.59     | 322.03     | 349.46     | 152.9 |  8.01
Output  | 0.063713   | 0.063781   | 0.063849   |   0.0 |  0.00
Modify  | 39.375     | 40.781     | 42.187     |  22.0 |  1.01
Other   |            | 10.09      |            |       |  0.25

Nlocal:    9826 ave 9828 max 9824 min
Histogram: 1 0 0 0 0 0 0 0 0 1
Nghost:    11700 ave 11724 max 11676 min
Histogram: 1 0 0 0 0 0 0 0 0 1
Neighs:    587046 ave 592496 max 581596 min
Histogram: 1 0 0 0 0 0 0 0 0 1

Total # of neighbors = 1174092
Ave neighs/atom = 59.7441
Neighbor list builds = 49505
Dangerous builds not checked
Setting up Verlet run ...
  Unit style    : metal
  Current step  : 640000
  Time step     : 0.001
Per MPI rank memory allocation (min/avg/max) = 11.35 | 11.35 | 11.36 Mbytes
Step Temp Press TotEng PotEng Enthalpy 
  640000    1847.8475    516.77052   -54336.655   -59030.356   -54200.854 
  640495    1807.8824   -286.08616   -54500.785   -59092.971   -54575.868 
Loop time of 36.0572 on 2 procs for 495 steps with 19652 atoms

Performance: 1.186 ns/day, 20.234 hours/ns, 13.728 timesteps/s
99.5% CPU use with 2 MPI tasks x no OpenMP threads

MPI task timing breakdown:
Section |  min time  |  avg time  |  max time  |%varavg| %total
---------------------------------------------------------------
Pair    | 18.846     | 19.27      | 19.694     |   9.7 | 53.44
Neigh   | 14.351     | 14.501     | 14.65      |   3.9 | 40.22
Comm    | 1.259      | 1.8351     | 2.4113     |  42.5 |  5.09
Output  | 5.7936e-05 | 8.297e-05  | 0.000108   |   0.0 |  0.00
Modify  | 0.34993    | 0.35294    | 0.35594    |   0.5 |  0.98
Other   |            | 0.09841    |            |       |  0.27

Nlocal:    9826 ave 9834 max 9818 min
Histogram: 1 0 0 0 0 0 0 0 0 1
Nghost:    11726 ave 11727 max 11725 min
Histogram: 1 0 0 0 0 0 0 0 0 1
Neighs:    587825 ave 592102 max 583548 min
Histogram: 1 0 0 0 0 0 0 0 0 1

Total # of neighbors = 1175650
Ave neighs/atom = 59.8234
Neighbor list builds = 495
Dangerous builds not checked
Setting up Verlet run ...
  Unit style    : metal
  Current step  : 640495
  Time step     : 0.001
Per MPI rank memory allocation (min/avg/max) = 11.35 | 11.35 | 11.36 Mbytes
Step Temp Press TotEng PotEng Enthalpy 
  640495    1807.8824   -286.08616   -54500.785   -59092.971   -54575.868 
  650000    1792.6557     194.3239   -54594.277   -59147.786   -54543.431 
  690000    1800.5054    626.73138   -54591.347   -59164.795   -54427.609 
Loop time of 4463.8 on 2 procs for 49505 steps with 19652 atoms

Performance: 0.958 ns/day, 25.047 hours/ns, 11.090 timesteps/s
91.5% CPU use with 2 MPI tasks x no OpenMP threads

MPI task timing breakdown:
Section |  min time  |  avg time  |  max time  |%varavg| %total
---------------------------------------------------------------
Pair    | 2303.2     | 2317.1     | 2330.9     |  28.8 | 51.91
Neigh   | 1516.8     | 1534.7     | 1552.7     |  45.8 | 34.38
Comm    | 498.29     | 539.18     | 580.08     | 176.1 | 12.08
Output  | 0.08013    | 0.08017    | 0.080211   |   0.0 |  0.00
Modify  | 53.949     | 62.931     | 71.913     | 113.2 |  1.41
Other   |            | 9.795      |            |       |  0.22

Nlocal:    9826 ave 9837 max 9815 min
Histogram: 1 0 0 0 0 0 0 0 0 1
Nghost:    11676.5 ave 11723 max 11630 min
Histogram: 1 0 0 0 0 0 0 0 0 1
Neighs:    590469 ave 594483 max 586455 min
Histogram: 1 0 0 0 0 0 0 0 0 1

Total # of neighbors = 1180938
Ave neighs/atom = 60.0925
Neighbor list builds = 49505
Dangerous builds not checked
Setting up Verlet run ...
  Unit style    : metal
  Current step  : 690000
  Time step     : 0.001
Per MPI rank memory allocation (min/avg/max) = 11.35 | 11.35 | 11.36 Mbytes
Step Temp Press TotEng PotEng Enthalpy 
  690000    1800.5054    626.73138   -54591.347   -59164.795   -54427.609 
  690495    1767.4745     34.03371   -54760.429   -59249.976   -54751.556 
Loop time of 51.0483 on 2 procs for 495 steps with 19652 atoms

Performance: 0.838 ns/day, 28.647 hours/ns, 9.697 timesteps/s
81.3% CPU use with 2 MPI tasks x no OpenMP threads

MPI task timing breakdown:
Section |  min time  |  avg time  |  max time  |%varavg| %total
---------------------------------------------------------------
Pair    | 21.723     | 21.895     | 22.067     |   3.7 | 42.89
Neigh   | 13.228     | 14.279     | 15.331     |  27.8 | 27.97
Comm    | 13.55      | 14.252     | 14.953     |  18.6 | 27.92
Output  | 5.2929e-05 | 8.0466e-05 | 0.000108   |   0.0 |  0.00
Modify  | 0.34762    | 0.53311    | 0.7186     |  25.4 |  1.04
Other   |            | 0.08896    |            |       |  0.17

Nlocal:    9826 ave 9838 max 9814 min
Histogram: 1 0 0 0 0 0 0 0 0 1
Nghost:    11740.5 ave 11745 max 11736 min
Histogram: 1 0 0 0 0 0 0 0 0 1
Neighs:    591885 ave 596899 max 586871 min
Histogram: 1 0 0 0 0 0 0 0 0 1

Total # of neighbors = 1183770
Ave neighs/atom = 60.2366
Neighbor list builds = 495
Dangerous builds not checked
Setting up Verlet run ...
  Unit style    : metal
  Current step  : 690495
  Time step     : 0.001
Per MPI rank memory allocation (min/avg/max) = 11.35 | 11.35 | 11.36 Mbytes
Step Temp Press TotEng PotEng Enthalpy 
  690495    1767.4745     34.03371   -54760.429   -59249.976   -54751.556 
  700000    1748.1562    -63.31657   -54862.353   -59302.829   -54878.832 
  740000    1755.2918   -630.14837   -54785.446   -59244.048   -54950.038 
Loop time of 5711.75 on 2 procs for 49505 steps with 19652 atoms

Performance: 0.749 ns/day, 32.049 hours/ns, 8.667 timesteps/s
81.1% CPU use with 2 MPI tasks x no OpenMP threads

MPI task timing breakdown:
Section |  min time  |  avg time  |  max time  |%varavg| %total
---------------------------------------------------------------
Pair    | 2847.8     | 2856.5     | 2865.2     |  16.3 | 50.01
Neigh   | 1681.2     | 1700.8     | 1720.3     |  47.4 | 29.78
Comm    | 1026.6     | 1063.8     | 1100.9     | 113.9 | 18.62
Output  | 0.31655    | 0.31659    | 0.31664    |   0.0 |  0.01
Modify  | 70.631     | 79.476     | 88.321     |  99.2 |  1.39
Other   |            | 10.88      |            |       |  0.19

Nlocal:    9826 ave 9846 max 9806 min
Histogram: 1 0 0 0 0 0 0 0 0 1
Nghost:    11757 ave 11763 max 11751 min
Histogram: 1 0 0 0 0 0 0 0 0 1
Neighs:    590826 ave 598361 max 583291 min
Histogram: 1 0 0 0 0 0 0 0 0 1

Total # of neighbors = 1181652
Ave neighs/atom = 60.1288
Neighbor list builds = 49505
Dangerous builds not checked
Setting up Verlet run ...
  Unit style    : metal
  Current step  : 740000
  Time step     : 0.001
Per MPI rank memory allocation (min/avg/max) = 11.35 | 11.35 | 11.36 Mbytes
Step Temp Press TotEng PotEng Enthalpy 
  740000    1755.2918   -630.14837   -54785.446   -59244.048   -54950.038 
  740495    1710.4687    -579.4082   -55043.736   -59388.482   -55194.115 
Loop time of 42.6862 on 2 procs for 495 steps with 19652 atoms

Performance: 1.002 ns/day, 23.954 hours/ns, 11.596 timesteps/s
93.1% CPU use with 2 MPI tasks x no OpenMP threads

MPI task timing breakdown:
Section |  min time  |  avg time  |  max time  |%varavg| %total
---------------------------------------------------------------
Pair    | 21.837     | 22.132     | 22.427     |   6.3 | 51.85
Neigh   | 15.175     | 15.878     | 16.581     |  17.6 | 37.20
Comm    | 3.7381     | 3.9959     | 4.2538     |  12.9 |  9.36
Output  | 7.7963e-05 | 0.00010145 | 0.00012493 |   0.0 |  0.00
Modify  | 0.41957    | 0.57429    | 0.72902    |  20.4 |  1.35
Other   |            | 0.1062     |            |       |  0.25

Nlocal:    9826 ave 9839 max 9813 min
Histogram: 1 0 0 0 0 0 0 0 0 1
Nghost:    11714 ave 11742 max 11686 min
Histogram: 1 0 0 0 0 0 0 0 0 1
Neighs:    594664 ave 602256 max 587072 min
Histogram: 1 0 0 0 0 0 0 0 0 1

Total # of neighbors = 1189328
Ave neighs/atom = 60.5194
Neighbor list builds = 495
Dangerous builds not checked
Setting up Verlet run ...
  Unit style    : metal
  Current step  : 740495
  Time step     : 0.001
Per MPI rank memory allocation (min/avg/max) = 11.35 | 11.35 | 11.36 Mbytes
Step Temp Press TotEng PotEng Enthalpy 
  740495    1710.4687    -579.4082   -55043.736   -59388.482   -55194.115 
  750000    1701.2401   -48.150634   -55114.974   -59436.278   -55127.434 
  790000     1708.365    15.172979   -55119.555   -59458.958   -55115.631 
Loop time of 3881.83 on 2 procs for 49505 steps with 19652 atoms

Performance: 1.102 ns/day, 21.781 hours/ns, 12.753 timesteps/s
94.9% CPU use with 2 MPI tasks x no OpenMP threads

MPI task timing breakdown:
Section |  min time  |  avg time  |  max time  |%varavg| %total
---------------------------------------------------------------
Pair    | 1989.9     | 2001.2     | 2012.4     |  25.2 | 51.55
Neigh   | 1455.7     | 1460.1     | 1464.5     |  11.5 | 37.61
Comm    | 326.37     | 342.38     | 358.38     |  86.5 |  8.82
Output  | 0.1101     | 0.11013    | 0.11016    |   0.0 |  0.00
Modify  | 68.489     | 68.77      | 69.051     |   3.4 |  1.77
Other   |            | 9.264      |            |       |  0.24

Nlocal:    9826 ave 9832 max 9820 min
Histogram: 1 0 0 0 0 0 0 0 0 1
Nghost:    11730.5 ave 11746 max 11715 min
Histogram: 1 0 0 0 0 0 0 0 0 1
Neighs:    596456 ave 601700 max 591211 min
Histogram: 1 0 0 0 0 0 0 0 0 1

Total # of neighbors = 1192911
Ave neighs/atom = 60.7018
Neighbor list builds = 49505
Dangerous builds not checked
Setting up Verlet run ...
  Unit style    : metal
  Current step  : 790000
  Time step     : 0.001
Per MPI rank memory allocation (min/avg/max) = 11.35 | 11.35 | 11.36 Mbytes
Step Temp Press TotEng PotEng Enthalpy 
  790000     1708.365    15.172979   -55119.555   -59458.958   -55115.631 
  790495    1663.9735    877.33388   -55340.184   -59566.829   -55114.741 
Loop time of 45.6337 on 2 procs for 495 steps with 19652 atoms

Performance: 0.937 ns/day, 25.608 hours/ns, 10.847 timesteps/s
78.6% CPU use with 2 MPI tasks x no OpenMP threads

MPI task timing breakdown:
Section |  min time  |  avg time  |  max time  |%varavg| %total
---------------------------------------------------------------
Pair    | 21.655     | 21.756     | 21.856     |   2.2 | 47.67
Neigh   | 11.957     | 12.063     | 12.169     |   3.1 | 26.43
Comm    | 10.621     | 10.727     | 10.834     |   3.3 | 23.51
Output  | 0.00010896 | 0.00012898 | 0.00014901 |   0.0 |  0.00
Modify  | 0.89347    | 1.0062     | 1.1189     |  11.2 |  2.20
Other   |            | 0.08122    |            |       |  0.18

Nlocal:    9826 ave 9828 max 9824 min
Histogram: 1 0 0 0 0 0 0 0 0 1
Nghost:    11753.5 ave 11777 max 11730 min
Histogram: 1 0 0 0 0 0 0 0 0 1
Neighs:    600608 ave 607240 max 593976 min
Histogram: 1 0 0 0 0 0 0 0 0 1

Total # of neighbors = 1201216
Ave neighs/atom = 61.1244
Neighbor list builds = 495
Dangerous builds not checked
Setting up Verlet run ...
  Unit style    : metal
  Current step  : 790495
  Time step     : 0.001
Per MPI rank memory allocation (min/avg/max) = 11.35 | 11.35 | 11.36 Mbytes
Step Temp Press TotEng PotEng Enthalpy 
  790495    1663.9735    877.33388   -55340.184   -59566.829   -55114.741 
  800000    1647.9293    502.77048   -55408.664   -59594.555    -55279.53 
  840000    1635.6866    1127.8874     -55470.6   -59625.393   -55181.591 
Loop time of 3084.66 on 2 procs for 49505 steps with 19652 atoms

Performance: 1.387 ns/day, 17.308 hours/ns, 16.049 timesteps/s
97.9% CPU use with 2 MPI tasks x no OpenMP threads

MPI task timing breakdown:
Section |  min time  |  avg time  |  max time  |%varavg| %total
---------------------------------------------------------------
Pair    | 1585.9     | 1592.2     | 1598.4     |  15.8 | 51.62
Neigh   | 1275       | 1279.3     | 1283.6     |  12.1 | 41.47
Comm    | 171.86     | 173.63     | 175.4      |  13.4 |  5.63
Output  | 0.062241   | 0.062266   | 0.062292   |   0.0 |  0.00
Modify  | 31.543     | 31.555     | 31.568     |   0.2 |  1.02
Other   |            | 7.952      |            |       |  0.26

Nlocal:    9826 ave 9841 max 9811 min
Histogram: 1 0 0 0 0 0 0 0 0 1
Nghost:    11770.5 ave 11780 max 11761 min
Histogram: 1 0 0 0 0 0 0 0 0 1
Neighs:    602300 ave 609671 max 594928 min
Histogram: 1 0 0 0 0 0 0 0 0 1

Total # of neighbors = 1204599
Ave neighs/atom = 61.2965
Neighbor list builds = 49505
Dangerous builds not checked
Setting up Verlet run ...
  Unit style    : metal
  Current step  : 840000
  Time step     : 0.001
Per MPI rank memory allocation (min/avg/max) = 11.35 | 11.35 | 11.36 Mbytes
Step Temp Press TotEng PotEng Enthalpy 
  840000    1635.6866    1127.8874     -55470.6   -59625.393   -55181.591 
  840495    1622.6726    328.36168    -55627.58   -59749.316   -55543.707 
Loop time of 29.9138 on 2 procs for 495 steps with 19652 atoms

Performance: 1.430 ns/day, 16.787 hours/ns, 16.548 timesteps/s
98.4% CPU use with 2 MPI tasks x no OpenMP threads

MPI task timing breakdown:
Section |  min time  |  avg time  |  max time  |%varavg| %total
---------------------------------------------------------------
Pair    | 15.934     | 16.064     | 16.194     |   3.2 | 53.70
Neigh   | 12.254     | 12.32      | 12.386     |   1.9 | 41.19
Comm    | 1.076      | 1.1393     | 1.2026     |   5.9 |  3.81
Output  | 5.2929e-05 | 7.4983e-05 | 9.7036e-05 |   0.0 |  0.00
Modify  | 0.3083     | 0.30881    | 0.30933    |   0.1 |  1.03
Other   |            | 0.08132    |            |       |  0.27

Nlocal:    9826 ave 9848 max 9804 min
Histogram: 1 0 0 0 0 0 0 0 0 1
Nghost:    11836.5 ave 11838 max 11835 min
Histogram: 1 0 0 0 0 0 0 0 0 1
Neighs:    604530 ave 612417 max 596644 min
Histogram: 1 0 0 0 0 0 0 0 0 1

Total # of neighbors = 1209061
Ave neighs/atom = 61.5236
Neighbor list builds = 495
Dangerous builds not checked
Setting up Verlet run ...
  Unit style    : metal
  Current step  : 840495
  Time step     : 0.001
Per MPI rank memory allocation (min/avg/max) = 11.35 | 11.35 | 11.36 Mbytes
Step Temp Press TotEng PotEng Enthalpy 
  840495    1622.6726    328.36168    -55627.58   -59749.316   -55543.707 
  850000    1594.0792    443.04208    -55744.78   -59793.886   -55631.874 
  890000    1617.8804   -299.99948   -55626.063   -59735.627   -55702.843 
Loop time of 3313.37 on 2 procs for 49505 steps with 19652 atoms

Performance: 1.291 ns/day, 18.592 hours/ns, 14.941 timesteps/s
92.0% CPU use with 2 MPI tasks x no OpenMP threads

MPI task timing breakdown:
Section |  min time  |  avg time  |  max time  |%varavg| %total
---------------------------------------------------------------
Pair    | 1604.4     | 1616.8     | 1629.3     |  31.0 | 48.80
Neigh   | 1235.8     | 1238.3     | 1240.8     |   7.1 | 37.37
Comm    | 331.16     | 346.22     | 361.28     |  80.9 | 10.45
Output  | 0.11805    | 0.11808    | 0.11812    |   0.0 |  0.00
Modify  | 104.28     | 104.31     | 104.35     |   0.4 |  3.15
Other   |            | 7.614      |            |       |  0.23

Nlocal:    9826 ave 9843 max 9809 min
Histogram: 1 0 0 0 0 0 0 0 0 1
Nghost:    11786.5 ave 11799 max 11774 min
Histogram: 1 0 0 0 0 0 0 0 0 1
Neighs:    602972 ave 606769 max 599175 min
Histogram: 1 0 0 0 0 0 0 0 0 1

Total # of neighbors = 1205944
Ave neighs/atom = 61.365
Neighbor list builds = 49505
Dangerous builds not checked
Setting up Verlet run ...
  Unit style    : metal
  Current step  : 890000
  Time step     : 0.001
Per MPI rank memory allocation (min/avg/max) = 11.35 | 11.35 | 11.36 Mbytes
Step Temp Press TotEng PotEng Enthalpy 
  890000    1617.8804   -299.99948   -55626.063   -59735.627   -55702.843 
  890495    1566.2251    437.66483    -55910.87   -59889.225   -55799.752 
Loop time of 26.0435 on 2 procs for 495 steps with 19652 atoms

Performance: 1.642 ns/day, 14.615 hours/ns, 19.007 timesteps/s
100.0% CPU use with 2 MPI tasks x no OpenMP threads

MPI task timing breakdown:
Section |  min time  |  avg time  |  max time  |%varavg| %total
---------------------------------------------------------------
Pair    | 13.027     | 13.281     | 13.535     |   7.0 | 51.00
Neigh   | 11.545     | 11.67      | 11.795     |   3.7 | 44.81
Comm    | 0.37803    | 0.7664     | 1.1548     |  44.4 |  2.94
Output  | 5.2929e-05 | 7.1883e-05 | 9.0837e-05 |   0.0 |  0.00
Modify  | 0.24896    | 0.25181    | 0.25467    |   0.6 |  0.97
Other   |            | 0.07434    |            |       |  0.29

Nlocal:    9826 ave 9838 max 9814 min
Histogram: 1 0 0 0 0 0 0 0 0 1
Nghost:    11821.5 ave 11853 max 11790 min
Histogram: 1 0 0 0 0 0 0 0 0 1
Neighs:    608278 ave 614505 max 602050 min
Histogram: 1 0 0 0 0 0 0 0 0 1

Total # of neighbors = 1216555
Ave neighs/atom = 61.9049
Neighbor list builds = 495
Dangerous builds not checked
Setting up Verlet run ...
  Unit style    : metal
  Current step  : 890495
  Time step     : 0.001
Per MPI rank memory allocation (min/avg/max) = 11.35 | 11.35 | 11.36 Mbytes
Step Temp Press TotEng PotEng Enthalpy 
  890495    1566.2251    437.66483    -55910.87   -59889.225   -55799.752 
  900000    1554.5062   -183.58477   -55993.939   -59942.526   -56040.541 
  940000    1543.1788    492.21529    -56039.04   -59958.854   -55914.379 
Loop time of 2922.56 on 2 procs for 49505 steps with 19652 atoms

Performance: 1.464 ns/day, 16.399 hours/ns, 16.939 timesteps/s
99.7% CPU use with 2 MPI tasks x no OpenMP threads

MPI task timing breakdown:
Section |  min time  |  avg time  |  max time  |%varavg| %total
---------------------------------------------------------------
Pair    | 1507.6     | 1524.6     | 1541.6     |  43.5 | 52.17
Neigh   | 1224.2     | 1243       | 1261.8     |  53.4 | 42.53
Comm    | 82.036     | 118.39     | 154.74     | 334.1 |  4.05
Output  | 1.5774     | 1.5774     | 1.5775     |   0.0 |  0.05
Modify  | 26.771     | 27.064     | 27.357     |   5.6 |  0.93
Other   |            | 7.932      |            |       |  0.27

Nlocal:    9826 ave 9849 max 9803 min
Histogram: 1 0 0 0 0 0 0 0 0 1
Nghost:    11869.5 ave 11888 max 11851 min
Histogram: 1 0 0 0 0 0 0 0 0 1
Neighs:    609800 ave 613268 max 606331 min
Histogram: 1 0 0 0 0 0 0 0 0 1

Total # of neighbors = 1219599
Ave neighs/atom = 62.0598
Neighbor list builds = 49505
Dangerous builds not checked
Setting up Verlet run ...
  Unit style    : metal
  Current step  : 940000
  Time step     : 0.001
Per MPI rank memory allocation (min/avg/max) = 11.35 | 11.35 | 11.36 Mbytes
Step Temp Press TotEng PotEng Enthalpy 
  940000    1543.1788    492.21529    -56039.04   -59958.854   -55914.379 
  940495    1510.2818    637.50998   -56217.487   -60053.741   -56056.765 
Loop time of 25.8756 on 2 procs for 495 steps with 19652 atoms

Performance: 1.653 ns/day, 14.521 hours/ns, 19.130 timesteps/s
100.0% CPU use with 2 MPI tasks x no OpenMP threads

MPI task timing breakdown:
Section |  min time  |  avg time  |  max time  |%varavg| %total
---------------------------------------------------------------
Pair    | 13.228     | 13.288     | 13.348     |   1.6 | 51.35
Neigh   | 11.486     | 11.69      | 11.894     |   6.0 | 45.18
Comm    | 0.41588    | 0.56944    | 0.723      |  20.3 |  2.20
Output  | 5.1975e-05 | 7.9036e-05 | 0.0001061  |   0.0 |  0.00
Modify  | 0.25032    | 0.25354    | 0.25677    |   0.6 |  0.98
Other   |            | 0.07418    |            |       |  0.29

Nlocal:    9826 ave 9836 max 9816 min
Histogram: 1 0 0 0 0 0 0 0 0 1
Nghost:    11899 ave 11922 max 11876 min
Histogram: 1 0 0 0 0 0 0 0 0 1
Neighs:    612806 ave 618857 max 606754 min
Histogram: 1 0 0 0 0 0 0 0 0 1

Total # of neighbors = 1225611
Ave neighs/atom = 62.3657
Neighbor list builds = 495
Dangerous builds not checked
Setting up Verlet run ...
  Unit style    : metal
  Current step  : 940495
  Time step     : 0.001
Per MPI rank memory allocation (min/avg/max) = 11.35 | 11.35 | 11.36 Mbytes
Step Temp Press TotEng PotEng Enthalpy 
  940495    1510.2818    637.50998   -56217.487   -60053.741   -56056.765 
  950000    1510.0476     391.3736   -56299.886   -60135.544   -56201.426 
  990000    1497.2666   -352.39348   -56330.253   -60133.447   -56419.035 
Loop time of 2625.34 on 2 procs for 49505 steps with 19652 atoms

Performance: 1.629 ns/day, 14.731 hours/ns, 18.857 timesteps/s
99.6% CPU use with 2 MPI tasks x no OpenMP threads

MPI task timing breakdown:
Section |  min time  |  avg time  |  max time  |%varavg| %total
---------------------------------------------------------------
Pair    | 1341.8     | 1345.3     | 1348.8     |   9.6 | 51.24
Neigh   | 1181.5     | 1183       | 1184.5     |   4.3 | 45.06
Comm    | 58.649     | 63.576     | 68.503     |  61.8 |  2.42
Output  | 0.044354   | 0.044386   | 0.044417   |   0.0 |  0.00
Modify  | 26.026     | 26.061     | 26.097     |   0.7 |  0.99
Other   |            | 7.364      |            |       |  0.28

Nlocal:    9826 ave 9844 max 9808 min
Histogram: 1 0 0 0 0 0 0 0 0 1
Nghost:    11892 ave 11908 max 11876 min
Histogram: 1 0 0 0 0 0 0 0 0 1
Neighs:    613075 ave 616610 max 609540 min
Histogram: 1 0 0 0 0 0 0 0 0 1

Total # of neighbors = 1226150
Ave neighs/atom = 62.3931
Neighbor list builds = 49505
Dangerous builds not checked
Setting up Verlet run ...
  Unit style    : metal
  Current step  : 990000
  Time step     : 0.001
Per MPI rank memory allocation (min/avg/max) = 11.35 | 11.35 | 11.36 Mbytes
Step Temp Press TotEng PotEng Enthalpy 
  990000    1497.2666   -352.39348   -56330.253   -60133.447   -56419.035 
  990495    1469.2592    386.22339   -56507.893   -60239.945    -56411.15 
Loop time of 25.1034 on 2 procs for 495 steps with 19652 atoms

Performance: 1.704 ns/day, 14.087 hours/ns, 19.718 timesteps/s
100.0% CPU use with 2 MPI tasks x no OpenMP threads

MPI task timing breakdown:
Section |  min time  |  avg time  |  max time  |%varavg| %total
---------------------------------------------------------------
Pair    | 12.723     | 12.772     | 12.821     |   1.4 | 50.88
Neigh   | 11.439     | 11.465     | 11.492     |   0.8 | 45.67
Comm    | 0.52807    | 0.54945    | 0.57083    |   2.9 |  2.19
Output  | 5.3883e-05 | 7.093e-05  | 8.7976e-05 |   0.0 |  0.00
Modify  | 0.24476    | 0.24476    | 0.24476    |   0.0 |  0.98
Other   |            | 0.07168    |            |       |  0.29

Nlocal:    9826 ave 9840 max 9812 min
Histogram: 1 0 0 0 0 0 0 0 0 1
Nghost:    11922 ave 11958 max 11886 min
Histogram: 1 0 0 0 0 0 0 0 0 1
Neighs:    616583 ave 620409 max 612757 min
Histogram: 1 0 0 0 0 0 0 0 0 1

Total # of neighbors = 1233166
Ave neighs/atom = 62.7502
Neighbor list builds = 495
Dangerous builds not checked
Setting up Verlet run ...
  Unit style    : metal
  Current step  : 990495
  Time step     : 0.001
Per MPI rank memory allocation (min/avg/max) = 11.35 | 11.35 | 11.36 Mbytes
Step Temp Press TotEng PotEng Enthalpy 
  990495    1469.2592    386.22339   -56507.893   -60239.945    -56411.15 
 1000000    1446.7122    1059.1439   -56601.236   -60276.016   -56336.657 
 1040000    1452.9923    960.67904   -56601.947    -60292.68   -56362.157 
Loop time of 2788.47 on 2 procs for 49505 steps with 19652 atoms

Performance: 1.534 ns/day, 15.646 hours/ns, 17.753 timesteps/s
95.3% CPU use with 2 MPI tasks x no OpenMP threads

MPI task timing breakdown:
Section |  min time  |  avg time  |  max time  |%varavg| %total
---------------------------------------------------------------
Pair    | 1356.1     | 1362.6     | 1369.2     |  17.8 | 48.87
Neigh   | 1166.7     | 1169.6     | 1172.5     |   8.4 | 41.94
Comm    | 204        | 212.19     | 220.37     |  56.2 |  7.61
Output  | 0.042802   | 0.04284    | 0.042879   |   0.0 |  0.00
Modify  | 35.478     | 36.696     | 37.914     |  20.1 |  1.32
Other   |            | 7.306      |            |       |  0.26

Nlocal:    9826 ave 9833 max 9819 min
Histogram: 1 0 0 0 0 0 0 0 0 1
Nghost:    11905.5 ave 11931 max 11880 min
Histogram: 1 0 0 0 0 0 0 0 0 1
Neighs:    618874 ave 624826 max 612923 min
Histogram: 1 0 0 0 0 0 0 0 0 1

Total # of neighbors = 1237749
Ave neighs/atom = 62.9834
Neighbor list builds = 49505
Dangerous builds not checked
Setting up Verlet run ...
  Unit style    : metal
  Current step  : 1040000
  Time step     : 0.001
Per MPI rank memory allocation (min/avg/max) = 11.35 | 11.35 | 11.36 Mbytes
Step Temp Press TotEng PotEng Enthalpy 
 1040000    1452.9923    960.67904   -56601.947    -60292.68   -56362.157 
 1040495    1417.8131    868.10284   -56762.849   -60364.223   -56546.688 
Loop time of 27.4164 on 2 procs for 495 steps with 19652 atoms

Performance: 1.560 ns/day, 15.385 hours/ns, 18.055 timesteps/s
100.0% CPU use with 2 MPI tasks x no OpenMP threads

MPI task timing breakdown:
Section |  min time  |  avg time  |  max time  |%varavg| %total
---------------------------------------------------------------
Pair    | 14.113     | 14.273     | 14.433     |   4.2 | 52.06
Neigh   | 11.432     | 11.991     | 12.551     |  16.1 | 43.74
Comm    | 0.38573    | 0.80514    | 1.2246     |  46.7 |  2.94
Output  | 5.1975e-05 | 7.7963e-05 | 0.00010395 |   0.0 |  0.00
Modify  | 0.25819    | 0.269      | 0.27982    |   2.1 |  0.98
Other   |            | 0.07756    |            |       |  0.28

Nlocal:    9826 ave 9836 max 9816 min
Histogram: 1 0 0 0 0 0 0 0 0 1
Nghost:    11928 ave 11959 max 11897 min
Histogram: 1 0 0 0 0 0 0 0 0 1
Neighs:    620418 ave 627103 max 613732 min
Histogram: 1 0 0 0 0 0 0 0 0 1

Total # of neighbors = 1240835
Ave neighs/atom = 63.1404
Neighbor list builds = 495
Dangerous builds not checked
Setting up Verlet run ...
  Unit style    : metal
  Current step  : 1040495
  Time step     : 0.001
Per MPI rank memory allocation (min/avg/max) = 11.35 | 11.35 | 11.36 Mbytes
Step Temp Press TotEng PotEng Enthalpy 
 1040495    1417.8131    868.10284   -56762.849   -60364.223   -56546.688 
 1050000    1404.9158    922.37027   -56870.632   -60439.246   -56641.603 
 1090000     1400.704   -129.63895   -56853.008   -60410.924   -56885.272 
Loop time of 2762.17 on 2 procs for 49505 steps with 19652 atoms

Performance: 1.549 ns/day, 15.499 hours/ns, 17.923 timesteps/s
99.6% CPU use with 2 MPI tasks x no OpenMP threads

MPI task timing breakdown:
Section |  min time  |  avg time  |  max time  |%varavg| %total
---------------------------------------------------------------
Pair    | 1419.4     | 1426.5     | 1433.6     |  18.9 | 51.64
Neigh   | 1215.9     | 1220.5     | 1225.1     |  13.1 | 44.19
Comm    | 78.456     | 80.526     | 82.595     |  23.1 |  2.92
Output  | 0.045776   | 0.045798   | 0.045821   |   0.0 |  0.00
Modify  | 26.676     | 26.922     | 27.167     |   4.7 |  0.97
Other   |            | 7.722      |            |       |  0.28

Nlocal:    9826 ave 9841 max 9811 min
Histogram: 1 0 0 0 0 0 0 0 0 1
Nghost:    11953.5 ave 11956 max 11951 min
Histogram: 1 0 0 0 0 0 0 0 0 1
Neighs:    620586 ave 625000 max 616173 min
Histogram: 1 0 0 0 0 0 0 0 0 1

Total # of neighbors = 1241173
Ave neighs/atom = 63.1576
Neighbor list builds = 49505
Dangerous builds not checked
Setting up Verlet run ...
  Unit style    : metal
  Current step  : 1090000
  Time step     : 0.001
Per MPI rank memory allocation (min/avg/max) = 11.35 | 11.35 | 11.36 Mbytes
Step Temp Press TotEng PotEng Enthalpy 
 1090000     1400.704   -129.63895   -56853.008   -60410.924   -56885.272 
 1090495     1351.166    871.24947   -57075.761   -60507.846   -56860.123 
Loop time of 24.5369 on 2 procs for 495 steps with 19652 atoms

Performance: 1.743 ns/day, 13.769 hours/ns, 20.174 timesteps/s
100.0% CPU use with 2 MPI tasks x no OpenMP threads

MPI task timing breakdown:
Section |  min time  |  avg time  |  max time  |%varavg| %total
---------------------------------------------------------------
Pair    | 12.406     | 12.481     | 12.556     |   2.1 | 50.87
Neigh   | 11.367     | 11.378     | 11.388     |   0.3 | 46.37
Comm    | 0.28806    | 0.37345    | 0.45884    |  14.0 |  1.52
Output  | 4.7922e-05 | 6.3419e-05 | 7.8917e-05 |   0.0 |  0.00
Modify  | 0.23817    | 0.23823    | 0.23829    |   0.0 |  0.97
Other   |            | 0.06651    |            |       |  0.27

Nlocal:    9826 ave 9831 max 9821 min
Histogram: 1 0 0 0 0 0 0 0 0 1
Nghost:    11984.5 ave 11999 max 11970 min
Histogram: 1 0 0 0 0 0 0 0 0 1
Neighs:    624380 ave 628464 max 620296 min
Histogram: 1 0 0 0 0 0 0 0 0 1

Total # of neighbors = 1248760
Ave neighs/atom = 63.5437
Neighbor list builds = 495
Dangerous builds not checked
Setting up Verlet run ...
  Unit style    : metal
  Current step  : 1090495
  Time step     : 0.001
Per MPI rank memory allocation (min/avg/max) = 11.35 | 11.35 | 11.36 Mbytes
Step Temp Press TotEng PotEng Enthalpy 
 1090495     1351.166    871.24947   -57075.761   -60507.846   -56860.123 
 1100000    1351.0104    186.82629   -57176.288   -60607.977   -57130.153 
 1140000    1340.6961   -402.52578   -57214.518   -60620.008   -57314.032 
Loop time of 2524.02 on 2 procs for 49505 steps with 19652 atoms

Performance: 1.695 ns/day, 14.163 hours/ns, 19.614 timesteps/s
100.0% CPU use with 2 MPI tasks x no OpenMP threads

MPI task timing breakdown:
Section |  min time  |  avg time  |  max time  |%varavg| %total
---------------------------------------------------------------
Pair    | 1275.7     | 1283.9     | 1292.1     |  22.8 | 50.87
Neigh   | 1158       | 1161.8     | 1165.6     |  11.1 | 46.03
Comm    | 34.669     | 46.794     | 58.92      | 177.3 |  1.85
Output  | 0.046145   | 0.046182   | 0.046219   |   0.0 |  0.00
Modify  | 24.409     | 24.419     | 24.429     |   0.2 |  0.97
Other   |            | 7.051      |            |       |  0.28

Nlocal:    9826 ave 9842 max 9810 min
Histogram: 1 0 0 0 0 0 0 0 0 1
Nghost:    11955 ave 11962 max 11948 min
Histogram: 1 0 0 0 0 0 0 0 0 1
Neighs:    625054 ave 627912 max 622196 min
Histogram: 1 0 0 0 0 0 0 0 0 1

Total # of neighbors = 1250108
Ave neighs/atom = 63.6123
Neighbor list builds = 49505
Dangerous builds not checked
Setting up Verlet run ...
  Unit style    : metal
  Current step  : 1140000
  Time step     : 0.001
Per MPI rank memory allocation (min/avg/max) = 11.35 | 11.35 | 11.36 Mbytes
Step Temp Press TotEng PotEng Enthalpy 
 1140000    1340.6961   -402.52578   -57214.518   -60620.008   -57314.032 
 1140495    1305.3993    -315.5395   -57377.241   -60693.075   -57454.939 
Loop time of 24.7918 on 2 procs for 495 steps with 19652 atoms

Performance: 1.725 ns/day, 13.912 hours/ns, 19.966 timesteps/s
100.0% CPU use with 2 MPI tasks x no OpenMP threads

MPI task timing breakdown:
Section |  min time  |  avg time  |  max time  |%varavg| %total
---------------------------------------------------------------
Pair    | 12.604     | 12.631     | 12.657     |   0.7 | 50.95
Neigh   | 11.356     | 11.415     | 11.473     |   1.7 | 46.04
Comm    | 0.33874    | 0.43467    | 0.5306     |  14.6 |  1.75
Output  | 5.0068e-05 | 6.9022e-05 | 8.7976e-05 |   0.0 |  0.00
Modify  | 0.24458    | 0.24465    | 0.24472    |   0.0 |  0.99
Other   |            | 0.06666    |            |       |  0.27

Nlocal:    9826 ave 9851 max 9801 min
Histogram: 1 0 0 0 0 0 0 0 0 1
Nghost:    12027 ave 12041 max 12013 min
Histogram: 1 0 0 0 0 0 0 0 0 1
Neighs:    627426 ave 630109 max 624743 min
Histogram: 1 0 0 0 0 0 0 0 0 1

Total # of neighbors = 1254852
Ave neighs/atom = 63.8537
Neighbor list builds = 495
Dangerous builds not checked
Setting up Verlet run ...
  Unit style    : metal
  Current step  : 1140495
  Time step     : 0.001
Per MPI rank memory allocation (min/avg/max) = 11.35 | 11.35 | 11.36 Mbytes
Step Temp Press TotEng PotEng Enthalpy 
 1140495    1305.3993    -315.5395   -57377.241   -60693.075   -57454.939 
 1150000    1313.5635   -697.77068   -57407.277   -60743.848   -57578.985 
 1190000    1314.5156    494.07018   -57435.991   -60774.981   -57314.807 
Loop time of 2510.36 on 2 procs for 49505 steps with 19652 atoms

Performance: 1.704 ns/day, 14.086 hours/ns, 19.720 timesteps/s
100.0% CPU use with 2 MPI tasks x no OpenMP threads

MPI task timing breakdown:
Section |  min time  |  avg time  |  max time  |%varavg| %total
---------------------------------------------------------------
Pair    | 1269.3     | 1276.6     | 1283.9     |  20.5 | 50.85
Neigh   | 1150.1     | 1154.8     | 1159.5     |  13.9 | 46.00
Comm    | 35.864     | 46.936     | 58.008     | 161.6 |  1.87
Output  | 0.034903   | 0.034937   | 0.03497    |   0.0 |  0.00
Modify  | 24.231     | 25.334     | 26.436     |  21.9 |  1.01
Other   |            | 6.698      |            |       |  0.27

Nlocal:    9826 ave 9845 max 9807 min
Histogram: 1 0 0 0 0 0 0 0 0 1
Nghost:    12024 ave 12029 max 12019 min
Histogram: 1 0 0 0 0 0 0 0 0 1
Neighs:    630180 ave 634553 max 625806 min
Histogram: 1 0 0 0 0 0 0 0 0 1

Total # of neighbors = 1260359
Ave neighs/atom = 64.1339
Neighbor list builds = 49505
Dangerous builds not checked
Setting up Verlet run ...
  Unit style    : metal
  Current step  : 1190000
  Time step     : 0.001
Per MPI rank memory allocation (min/avg/max) = 11.35 | 11.35 | 11.36 Mbytes
Step Temp Press TotEng PotEng Enthalpy 
 1190000    1314.5156    494.07018   -57435.991   -60774.981   -57314.807 
 1190495    1270.7276    615.36189   -57667.801   -60895.565    -57517.67 
Loop time of 24.6551 on 2 procs for 495 steps with 19652 atoms

Performance: 1.735 ns/day, 13.836 hours/ns, 20.077 timesteps/s
100.0% CPU use with 2 MPI tasks x no OpenMP threads

MPI task timing breakdown:
Section |  min time  |  avg time  |  max time  |%varavg| %total
---------------------------------------------------------------
Pair    | 12.583     | 12.587     | 12.592     |   0.1 | 51.05
Neigh   | 11.387     | 11.397     | 11.407     |   0.3 | 46.23
Comm    | 0.35206    | 0.35906    | 0.36607    |   1.2 |  1.46
Output  | 5.1022e-05 | 7.2479e-05 | 9.3937e-05 |   0.0 |  0.00
Modify  | 0.2427     | 0.24306    | 0.24342    |   0.1 |  0.99
Other   |            | 0.06831    |            |       |  0.28

Nlocal:    9826 ave 9854 max 9798 min
Histogram: 1 0 0 0 0 0 0 0 0 1
Nghost:    12021.5 ave 12068 max 11975 min
Histogram: 1 0 0 0 0 0 0 0 0 1
Neighs:    633600 ave 642088 max 625113 min
Histogram: 1 0 0 0 0 0 0 0 0 1

Total # of neighbors = 1267201
Ave neighs/atom = 64.482
Neighbor list builds = 495
Dangerous builds not checked
Setting up Verlet run ...
  Unit style    : metal
  Current step  : 1190495
  Time step     : 0.001
Per MPI rank memory allocation (min/avg/max) = 11.35 | 11.35 | 11.36 Mbytes
Step Temp Press TotEng PotEng Enthalpy 
 1190495    1270.7276    615.36189   -57667.801   -60895.565    -57517.67 
 1200000    1251.9448   -254.22616   -57753.964   -60934.018   -57815.968 
 1240000    1251.6983   -329.12907   -57778.197   -60957.625   -57858.458 
Loop time of 2508.62 on 2 procs for 49505 steps with 19652 atoms

Performance: 1.705 ns/day, 14.076 hours/ns, 19.734 timesteps/s
100.0% CPU use with 2 MPI tasks x no OpenMP threads

MPI task timing breakdown:
Section |  min time  |  avg time  |  max time  |%varavg| %total
---------------------------------------------------------------
Pair    | 1270.3     | 1278.5     | 1286.6     |  22.8 | 50.96
Neigh   | 1149.5     | 1153.1     | 1156.8     |  10.8 | 45.97
Comm    | 34.294     | 46.314     | 58.335     | 176.6 |  1.85
Output  | 0.12539    | 0.12542    | 0.12544    |   0.0 |  0.00
Modify  | 24.107     | 24.114     | 24.122     |   0.2 |  0.96
Other   |            | 6.472      |            |       |  0.26

Nlocal:    9826 ave 9845 max 9807 min
Histogram: 1 0 0 0 0 0 0 0 0 1
Nghost:    12030 ave 12033 max 12027 min
Histogram: 1 0 0 0 0 0 0 0 0 1
Neighs:    634260 ave 642146 max 626374 min
Histogram: 1 0 0 0 0 0 0 0 0 1

Total # of neighbors = 1268520
Ave neighs/atom = 64.5492
Neighbor list builds = 49505
Dangerous builds not checked
Setting up Verlet run ...
  Unit style    : metal
  Current step  : 1240000
  Time step     : 0.001
Per MPI rank memory allocation (min/avg/max) = 11.35 | 11.35 | 11.36 Mbytes
Step Temp Press TotEng PotEng Enthalpy 
 1240000    1251.6983   -329.12907   -57778.197   -60957.625   -57858.458 
 1240495    1214.4219   -114.53897   -57979.095   -61063.837   -58006.906 
Loop time of 24.7878 on 2 procs for 495 steps with 19652 atoms

Performance: 1.725 ns/day, 13.910 hours/ns, 19.970 timesteps/s
100.0% CPU use with 2 MPI tasks x no OpenMP threads

MPI task timing breakdown:
Section |  min time  |  avg time  |  max time  |%varavg| %total
---------------------------------------------------------------
Pair    | 12.57      | 12.667     | 12.764     |   2.7 | 51.10
Neigh   | 11.273     | 11.346     | 11.418     |   2.2 | 45.77
Comm    | 0.29949    | 0.47333    | 0.64717    |  25.3 |  1.91
Output  | 4.9114e-05 | 6.7115e-05 | 8.5115e-05 |   0.0 |  0.00
Modify  | 0.23971    | 0.23979    | 0.23986    |   0.0 |  0.97
Other   |            | 0.06185    |            |       |  0.25

Nlocal:    9826 ave 9830 max 9822 min
Histogram: 1 0 0 0 0 0 0 0 0 1
Nghost:    12060 ave 12069 max 12051 min
Histogram: 1 0 0 0 0 0 0 0 0 1
Neighs:    636738 ave 643512 max 629963 min
Histogram: 1 0 0 0 0 0 0 0 0 1

Total # of neighbors = 1273475
Ave neighs/atom = 64.8013
Neighbor list builds = 495
Dangerous builds not checked
Setting up Verlet run ...
  Unit style    : metal
  Current step  : 1240495
  Time step     : 0.001
Per MPI rank memory allocation (min/avg/max) = 11.35 | 11.35 | 11.36 Mbytes
Step Temp Press TotEng PotEng Enthalpy 
 1240495    1214.4219   -114.53897   -57979.095   -61063.837   -58006.906 
 1250000    1194.6165   -1209.3417   -58099.763   -61134.198    -58392.99 
 1290000     1189.032   -576.02756   -58115.545   -61135.794    -58255.11 
Loop time of 2527.93 on 2 procs for 49505 steps with 19652 atoms

Performance: 1.692 ns/day, 14.184 hours/ns, 19.583 timesteps/s
100.0% CPU use with 2 MPI tasks x no OpenMP threads

MPI task timing breakdown:
Section |  min time  |  avg time  |  max time  |%varavg| %total
---------------------------------------------------------------
Pair    | 1285.2     | 1294.4     | 1303.7     |  25.7 | 51.20
Neigh   | 1151       | 1154.9     | 1158.8     |  11.5 | 45.68
Comm    | 33.842     | 47.302     | 60.762     | 195.7 |  1.87
Output  | 0.13747    | 0.1375     | 0.13754    |   0.0 |  0.01
Modify  | 24.257     | 24.258     | 24.259     |   0.0 |  0.96
Other   |            | 6.973      |            |       |  0.28

Nlocal:    9826 ave 9846 max 9806 min
Histogram: 1 0 0 0 0 0 0 0 0 1
Nghost:    12081 ave 12106 max 12056 min
Histogram: 1 0 0 0 0 0 0 0 0 1
Neighs:    638176 ave 641995 max 634357 min
Histogram: 1 0 0 0 0 0 0 0 0 1

Total # of neighbors = 1276352
Ave neighs/atom = 64.9477
Neighbor list builds = 49505
Dangerous builds not checked
Setting up Verlet run ...
  Unit style    : metal
  Current step  : 1290000
  Time step     : 0.001
Per MPI rank memory allocation (min/avg/max) = 11.35 | 11.35 | 11.36 Mbytes
Step Temp Press TotEng PotEng Enthalpy 
 1290000     1189.032   -576.02756   -58115.545   -61135.794    -58255.11 
 1290495    1163.0511    -963.7785   -58273.761   -61228.017   -58506.574 
Loop time of 24.9181 on 2 procs for 495 steps with 19652 atoms

Performance: 1.716 ns/day, 13.983 hours/ns, 19.865 timesteps/s
100.0% CPU use with 2 MPI tasks x no OpenMP threads

MPI task timing breakdown:
Section |  min time  |  avg time  |  max time  |%varavg| %total
---------------------------------------------------------------
Pair    | 12.795     | 12.877     | 12.959     |   2.3 | 51.68
Neigh   | 11.242     | 11.349     | 11.457     |   3.2 | 45.55
Comm    | 0.34585    | 0.37764    | 0.40943    |   5.2 |  1.52
Output  | 5.2929e-05 | 8.142e-05  | 0.00010991 |   0.0 |  0.00
Modify  | 0.24179    | 0.24286    | 0.24393    |   0.2 |  0.97
Other   |            | 0.07116    |            |       |  0.29

Nlocal:    9826 ave 9834 max 9818 min
Histogram: 1 0 0 0 0 0 0 0 0 1
Nghost:    12121.5 ave 12143 max 12100 min
Histogram: 1 0 0 0 0 0 0 0 0 1
[...]
Loop time of 36.8786 on 2 procs for 495 steps with 19652 atoms

Performance: 1.160 ns/day, 20.695 hours/ns, 13.422 timesteps/s
99.3% CPU use with 2 MPI tasks x no OpenMP threads

MPI task timing breakdown:
Section |  min time  |  avg time  |  max time  |%varavg| %total
---------------------------------------------------------------
Pair    | 19.558     | 19.606     | 19.653     |   1.1 | 53.16
Neigh   | 15.446     | 15.743     | 16.04      |   7.5 | 42.69
Comm    | 0.72971    | 1.0795     | 1.4292     |  33.7 |  2.93
Output  | 7.2956e-05 | 8.9049e-05 | 0.00010514 |   0.0 |  0.00
Modify  | 0.34563    | 0.34777    | 0.3499     |   0.4 |  0.94
Other   |            | 0.1028     |            |       |  0.28

Nlocal:    9826 ave 9832 max 9820 min
Histogram: 1 0 0 0 0 0 0 0 0 1
Nghost:    12638.5 ave 12645 max 12632 min
Histogram: 1 0 0 0 0 0 0 0 0 1
Neighs:    715234 ave 715972 max 714496 min
Histogram: 1 0 0 0 0 0 0 0 0 1

Total # of neighbors = 1430468
Ave neighs/atom = 72.7899
Neighbor list builds = 495
Dangerous builds not checked
Setting up Verlet run ...
  Unit style    : metal
  Current step  : 2040495
  Time step     : 0.001
Per MPI rank memory allocation (min/avg/max) = 11.35 | 11.35 | 11.36 Mbytes
Step Temp Press TotEng PotEng Enthalpy 
 2040495    424.59357   -416.69534   -63139.144    -64217.65   -63229.417 
 2050000    405.76347    620.09643   -63302.577   -64333.253   -63168.956 
 2090000    398.20224   -410.31461   -63359.812   -64371.282   -63448.214 
Loop time of 3793.43 on 2 procs for 49505 steps with 19652 atoms

Performance: 1.128 ns/day, 21.285 hours/ns, 13.050 timesteps/s
99.1% CPU use with 2 MPI tasks x no OpenMP threads

MPI task timing breakdown:
Section |  min time  |  avg time  |  max time  |%varavg| %total
---------------------------------------------------------------
Pair    | 2019.2     | 2022.6     | 2025.9     |   7.5 | 53.32
Neigh   | 1607.2     | 1611.8     | 1616.4     |  11.4 | 42.49
Comm    | 104.4      | 112.43     | 120.46     |  75.7 |  2.96
Output  | 0.06017    | 0.060208   | 0.060246   |   0.0 |  0.00
Modify  | 36.081     | 36.107     | 36.133     |   0.4 |  0.95
Other   |            | 10.46      |            |       |  0.28

Nlocal:    9826 ave 9846 max 9806 min
Histogram: 1 0 0 0 0 0 0 0 0 1
Nghost:    12705.5 ave 12719 max 12692 min
Histogram: 1 0 0 0 0 0 0 0 0 1
Neighs:    719053 ave 720696 max 717410 min
Histogram: 1 0 0 0 0 0 0 0 0 1

Total # of neighbors = 1438106
Ave neighs/atom = 73.1786
Neighbor list builds = 49505
Dangerous builds not checked
Setting up Verlet run ...
  Unit style    : metal
  Current step  : 2090000
  Time step     : 0.001
Per MPI rank memory allocation (min/avg/max) = 11.35 | 11.35 | 11.36 Mbytes
Step Temp Press TotEng PotEng Enthalpy 
 2090000    398.20224   -410.31461   -63359.812   -64371.282   -63448.214 
 2090495     373.4396   -41.107031   -63510.511   -64459.082    -63519.34 
Loop time of 39.3169 on 2 procs for 495 steps with 19652 atoms

Performance: 1.088 ns/day, 22.063 hours/ns, 12.590 timesteps/s
98.5% CPU use with 2 MPI tasks x no OpenMP threads

MPI task timing breakdown:
Section |  min time  |  avg time  |  max time  |%varavg| %total
---------------------------------------------------------------
Pair    | 21.048     | 21.082     | 21.116     |   0.7 | 53.62
Neigh   | 16.521     | 16.695     | 16.868     |   4.2 | 42.46
Comm    | 0.90078    | 1.0445     | 1.1883     |  14.1 |  2.66
Output  | 6.6042e-05 | 9.8467e-05 | 0.00013089 |   0.0 |  0.00
Modify  | 0.38108    | 0.383      | 0.38491    |   0.3 |  0.97
Other   |            | 0.1123     |            |       |  0.29

Nlocal:    9826 ave 9842 max 9810 min
Histogram: 1 0 0 0 0 0 0 0 0 1
Nghost:    12696 ave 12708 max 12684 min
Histogram: 1 0 0 0 0 0 0 0 0 1
Neighs:    721138 ave 723230 max 719047 min
Histogram: 1 0 0 0 0 0 0 0 0 1

Total # of neighbors = 1442277
Ave neighs/atom = 73.3909
Neighbor list builds = 495
Dangerous builds not checked
Setting up Verlet run ...
  Unit style    : metal
  Current step  : 2090495
  Time step     : 0.001
Per MPI rank memory allocation (min/avg/max) = 11.35 | 11.35 | 11.36 Mbytes
Step Temp Press TotEng PotEng Enthalpy 
 2090495     373.4396   -41.107031   -63510.511   -64459.082    -63519.34 
 2100000    353.21067    409.12659   -63668.072   -64565.259   -63580.551 
 2140000     348.6138   -205.45397   -63699.714   -64585.225   -63743.663 
Loop time of 3792.25 on 2 procs for 49505 steps with 19652 atoms

Performance: 1.128 ns/day, 21.279 hours/ns, 13.054 timesteps/s
99.2% CPU use with 2 MPI tasks x no OpenMP threads

MPI task timing breakdown:
Section |  min time  |  avg time  |  max time  |%varavg| %total
---------------------------------------------------------------
Pair    | 2025.2     | 2026.8     | 2028.5     |   3.8 | 53.45
Neigh   | 1597.7     | 1608.6     | 1619.4     |  27.2 | 42.42
Comm    | 96.103     | 105.56     | 115.01     |  92.0 |  2.78
Output  | 0.055233   | 0.055285   | 0.055337   |   0.0 |  0.00
Modify  | 40.352     | 40.609     | 40.867     |   4.0 |  1.07
Other   |            | 10.63      |            |       |  0.28

Nlocal:    9826 ave 9832 max 9820 min
Histogram: 1 0 0 0 0 0 0 0 0 1
Nghost:    12730.5 ave 12741 max 12720 min
Histogram: 1 0 0 0 0 0 0 0 0 1
Neighs:    723750 ave 723937 max 723563 min
Histogram: 1 0 0 0 0 0 0 0 0 1

Total # of neighbors = 1447500
Ave neighs/atom = 73.6566
Neighbor list builds = 49505
Dangerous builds not checked
Setting up Verlet run ...
  Unit style    : metal
  Current step  : 2140000
  Time step     : 0.001
Per MPI rank memory allocation (min/avg/max) = 11.35 | 11.35 | 11.36 Mbytes
Step Temp Press TotEng PotEng Enthalpy 
 2140000     348.6138   -205.45397   -63699.714   -64585.225   -63743.663 
 2140495    324.34242   -312.32276   -63851.677   -64675.536   -63918.308 
Loop time of 40.4488 on 2 procs for 495 steps with 19652 atoms

Performance: 1.057 ns/day, 22.699 hours/ns, 12.238 timesteps/s
96.9% CPU use with 2 MPI tasks x no OpenMP threads

MPI task timing breakdown:
Section |  min time  |  avg time  |  max time  |%varavg| %total
---------------------------------------------------------------
Pair    | 21.598     | 21.604     | 21.609     |   0.1 | 53.41
Neigh   | 16.73      | 16.761     | 16.791     |   0.7 | 41.44
Comm    | 1.5392     | 1.5715     | 1.6037     |   2.6 |  3.89
Output  | 5.6982e-05 | 8.4996e-05 | 0.00011301 |   0.0 |  0.00
Modify  | 0.3989     | 0.40449    | 0.41009    |   0.9 |  1.00
Other   |            | 0.1082     |            |       |  0.27

Nlocal:    9826 ave 9834 max 9818 min
Histogram: 1 0 0 0 0 0 0 0 0 1
Nghost:    12769 ave 12777 max 12761 min
Histogram: 1 0 0 0 0 0 0 0 0 1
Neighs:    725560 ave 725797 max 725322 min
Histogram: 1 0 0 0 0 0 0 0 0 1

Total # of neighbors = 1451119
Ave neighs/atom = 73.8408
Neighbor list builds = 495
Dangerous builds not checked
Setting up Verlet run ...
  Unit style    : metal
  Current step  : 2140495
  Time step     : 0.001
Per MPI rank memory allocation (min/avg/max) = 11.35 | 11.35 | 11.36 Mbytes
Step Temp Press TotEng PotEng Enthalpy 
 2140495    324.34242   -312.32276   -63851.677   -64675.536   -63918.308 
 2150000    300.32833   -74.536078   -64010.686   -64773.547   -64026.535 
 2190000     296.9386   -796.83161   -64019.849     -64774.1   -64189.421 
Loop time of 3802.61 on 2 procs for 49505 steps with 19652 atoms

Performance: 1.125 ns/day, 21.337 hours/ns, 13.019 timesteps/s
99.2% CPU use with 2 MPI tasks x no OpenMP threads

MPI task timing breakdown:
Section |  min time  |  avg time  |  max time  |%varavg| %total
---------------------------------------------------------------
Pair    | 2034.7     | 2038.6     | 2042.5     |   8.6 | 53.61
Neigh   | 1609.1     | 1610.8     | 1612.6     |   4.3 | 42.36
Comm    | 103.9      | 106.09     | 108.28     |  21.2 |  2.79
Output  | 0.063786   | 0.063829   | 0.063872   |   0.0 |  0.00
Modify  | 36.296     | 36.301     | 36.306     |   0.1 |  0.95
Other   |            | 10.72      |            |       |  0.28

Nlocal:    9826 ave 9839 max 9813 min
Histogram: 1 0 0 0 0 0 0 0 0 1
Nghost:    12790.5 ave 12794 max 12787 min
Histogram: 1 0 0 0 0 0 0 0 0 1
Neighs:    727064 ave 728372 max 725756 min
Histogram: 1 0 0 0 0 0 0 0 0 1

Total # of neighbors = 1454128
Ave neighs/atom = 73.9939
Neighbor list builds = 49505
Dangerous builds not checked
Setting up Verlet run ...
  Unit style    : metal
  Current step  : 2190000
  Time step     : 0.001
Per MPI rank memory allocation (min/avg/max) = 11.35 | 11.35 | 11.36 Mbytes
Step Temp Press TotEng PotEng Enthalpy 
 2190000     296.9386   -796.83161   -64019.849     -64774.1   -64189.421 
 2190495    273.41775    264.62487    -64163.89   -64858.396   -64107.808 
Loop time of 40.2892 on 2 procs for 495 steps with 19652 atoms

Performance: 1.062 ns/day, 22.609 hours/ns, 12.286 timesteps/s
96.3% CPU use with 2 MPI tasks x no OpenMP threads

MPI task timing breakdown:
Section |  min time  |  avg time  |  max time  |%varavg| %total
---------------------------------------------------------------
Pair    | 21.5       | 21.575     | 21.649     |   1.6 | 53.55
Neigh   | 16.78      | 16.878     | 16.976     |   2.4 | 41.89
Comm    | 1.208      | 1.2446     | 1.2813     |   3.3 |  3.09
Output  | 6.3896e-05 | 9.2387e-05 | 0.00012088 |   0.0 |  0.00
Modify  | 0.46755    | 0.47689    | 0.48622    |   1.4 |  1.18
Other   |            | 0.1148     |            |       |  0.28

Nlocal:    9826 ave 9833 max 9819 min
Histogram: 1 0 0 0 0 0 0 0 0 1
Nghost:    12822.5 ave 12823 max 12822 min
Histogram: 1 0 0 0 0 0 0 0 0 1
Neighs:    729708 ave 730042 max 729375 min
Histogram: 1 0 0 0 0 0 0 0 0 1

Total # of neighbors = 1459417
Ave neighs/atom = 74.263
Neighbor list builds = 495
Dangerous builds not checked
Setting up Verlet run ...
  Unit style    : metal
  Current step  : 2190495
  Time step     : 0.001
Per MPI rank memory allocation (min/avg/max) = 11.35 | 11.35 | 11.36 Mbytes
Step Temp Press TotEng PotEng Enthalpy 
 2190495    273.41775    264.62487    -64163.89   -64858.396   -64107.808 
 2200000    250.69289    635.34838    -64304.44   -64941.222   -64170.181 
 2240000    250.89919   -454.41679    -64313.97   -64951.277   -64410.107 
Loop time of 3780.27 on 2 procs for 49505 steps with 19652 atoms

Performance: 1.131 ns/day, 21.211 hours/ns, 13.096 timesteps/s
98.8% CPU use with 2 MPI tasks x no OpenMP threads

MPI task timing breakdown:
Section |  min time  |  avg time  |  max time  |%varavg| %total
---------------------------------------------------------------
Pair    | 2018.7     | 2019       | 2019.3     |   0.7 | 53.41
Neigh   | 1590.5     | 1596.4     | 1602.4     |  15.0 | 42.23
Comm    | 108.43     | 114.95     | 121.46     |  60.8 |  3.04
Output  | 0.06378    | 0.063802   | 0.063825   |   0.0 |  0.00
Modify  | 39.33      | 39.525     | 39.72      |   3.1 |  1.05
Other   |            | 10.31      |            |       |  0.27

Nlocal:    9826 ave 9829 max 9823 min
Histogram: 1 0 0 0 0 0 0 0 0 1
Nghost:    12803 ave 12820 max 12786 min
Histogram: 1 0 0 0 0 0 0 0 0 1
Neighs:    730758 ave 731022 max 730493 min
Histogram: 1 0 0 0 0 0 0 0 0 1

Total # of neighbors = 1461515
Ave neighs/atom = 74.3698
Neighbor list builds = 49505
Dangerous builds not checked
Setting up Verlet run ...
  Unit style    : metal
  Current step  : 2240000
  Time step     : 0.001
Per MPI rank memory allocation (min/avg/max) = 11.35 | 11.35 | 11.36 Mbytes
Step Temp Press TotEng PotEng Enthalpy 
 2240000    250.89919   -454.41679    -64313.97   -64951.277   -64410.107 
 2240495    224.36578   -68.019947   -64447.718   -65017.627   -64462.069 
Loop time of 37.43 on 2 procs for 495 steps with 19652 atoms

Performance: 1.143 ns/day, 21.004 hours/ns, 13.225 timesteps/s
99.9% CPU use with 2 MPI tasks x no OpenMP threads

MPI task timing breakdown:
Section |  min time  |  avg time  |  max time  |%varavg| %total
---------------------------------------------------------------
Pair    | 20.032     | 20.052     | 20.072     |   0.4 | 53.57
Neigh   | 16.074     | 16.088     | 16.102     |   0.4 | 42.98
Comm    | 0.82437    | 0.82852    | 0.83268    |   0.5 |  2.21
Output  | 7.7009e-05 | 8.2493e-05 | 8.7976e-05 |   0.0 |  0.00
Modify  | 0.35381    | 0.3551     | 0.35639    |   0.2 |  0.95
Other   |            | 0.1062     |            |       |  0.28

Nlocal:    9826 ave 9828 max 9824 min
Histogram: 1 0 0 0 0 0 0 0 0 1
Nghost:    12819 ave 12843 max 12795 min
Histogram: 1 0 0 0 0 0 0 0 0 1
Neighs:    732716 ave 732833 max 732600 min
Histogram: 1 0 0 0 0 0 0 0 0 1

Total # of neighbors = 1465433
Ave neighs/atom = 74.5692
Neighbor list builds = 495
Dangerous builds not checked
Setting up Verlet run ...
  Unit style    : metal
  Current step  : 2240495
  Time step     : 0.001
Per MPI rank memory allocation (min/avg/max) = 11.35 | 11.35 | 11.36 Mbytes
Step Temp Press TotEng PotEng Enthalpy 
 2240495    224.36578   -68.019947   -64447.718   -65017.627   -64462.069 
 2250000    198.98155    454.88884   -64593.631   -65099.062   -64497.932 
 2290000    199.80557    542.85721   -64592.468   -65099.992   -64478.285 
Loop time of 3885.03 on 2 procs for 49505 steps with 19652 atoms

Performance: 1.101 ns/day, 21.799 hours/ns, 12.743 timesteps/s
98.8% CPU use with 2 MPI tasks x no OpenMP threads

MPI task timing breakdown:
Section |  min time  |  avg time  |  max time  |%varavg| %total
---------------------------------------------------------------
Pair    | 2090       | 2092.2     | 2094.5     |   4.9 | 53.85
Neigh   | 1609.8     | 1618.7     | 1627.6     |  22.1 | 41.66
Comm    | 119.68     | 126.51     | 133.34     |  60.7 |  3.26
Output  | 0.058842   | 0.058882   | 0.058922   |   0.0 |  0.00
Modify  | 36.742     | 36.93      | 37.118     |   3.1 |  0.95
Other   |            | 10.61      |            |       |  0.27

Nlocal:    9826 ave 9828 max 9824 min
Histogram: 1 0 0 0 0 0 0 0 0 1
Nghost:    12824.5 ave 12831 max 12818 min
Histogram: 1 0 0 0 0 0 0 0 0 1
Neighs:    734459 ave 734526 max 734392 min
Histogram: 1 0 0 0 0 0 0 0 0 1

Total # of neighbors = 1468918
Ave neighs/atom = 74.7465
Neighbor list builds = 49505
Dangerous builds not checked
Setting up Verlet run ...
  Unit style    : metal
  Current step  : 2290000
  Time step     : 0.001
Per MPI rank memory allocation (min/avg/max) = 11.35 | 11.35 | 11.36 Mbytes
Step Temp Press TotEng PotEng Enthalpy 
 2290000    199.80557    542.85721   -64592.468   -65099.992   -64478.285 
 2290495    174.88829    262.96548   -64716.806   -65161.039   -64661.575 
Loop time of 37.8696 on 2 procs for 495 steps with 19652 atoms

Performance: 1.129 ns/day, 21.251 hours/ns, 13.071 timesteps/s
99.7% CPU use with 2 MPI tasks x no OpenMP threads

MPI task timing breakdown:
Section |  min time  |  avg time  |  max time  |%varavg| %total
---------------------------------------------------------------
Pair    | 20.412     | 20.455     | 20.498     |   0.9 | 54.01
Neigh   | 15.258     | 15.473     | 15.688     |   5.5 | 40.86
Comm    | 1.2271     | 1.4914     | 1.7558     |  21.6 |  3.94
Output  | 7.391e-05  | 9.7871e-05 | 0.00012183 |   0.0 |  0.00
Modify  | 0.35027    | 0.35118    | 0.3521     |   0.2 |  0.93
Other   |            | 0.09859    |            |       |  0.26

Nlocal:    9826 ave 9827 max 9825 min
Histogram: 1 0 0 0 0 0 0 0 0 1
Nghost:    12828 ave 12839 max 12817 min
Histogram: 1 0 0 0 0 0 0 0 0 1
Neighs:    735690 ave 735732 max 735648 min
Histogram: 1 0 0 0 0 0 0 0 0 1

Total # of neighbors = 1471380
Ave neighs/atom = 74.8718
Neighbor list builds = 495
Dangerous builds not checked
Setting up Verlet run ...
  Unit style    : metal
  Current step  : 2290495
  Time step     : 0.001
Per MPI rank memory allocation (min/avg/max) = 11.35 | 11.35 | 11.36 Mbytes
Step Temp Press TotEng PotEng Enthalpy 
 2290495    174.88829    262.96548   -64716.806   -65161.039   -64661.575 
 2300000      149.838   -449.77262   -64859.323   -65239.925   -64953.652 
 2340000    149.93362   -140.98688   -64858.582   -65239.427   -64888.144 
Loop time of 3865.59 on 2 procs for 49505 steps with 19652 atoms

Performance: 1.106 ns/day, 21.690 hours/ns, 12.807 timesteps/s
99.1% CPU use with 2 MPI tasks x no OpenMP threads

MPI task timing breakdown:
Section |  min time  |  avg time  |  max time  |%varavg| %total
---------------------------------------------------------------
Pair    | 2087       | 2092.2     | 2097.4     |  11.4 | 54.12
Neigh   | 1540.3     | 1560.1     | 1579.9     |  50.2 | 40.36
Comm    | 141.88     | 167.27     | 192.65     | 196.3 |  4.33
Output  | 0.053388   | 0.05343    | 0.053472   |   0.0 |  0.00
Modify  | 35.734     | 36.004     | 36.274     |   4.5 |  0.93
Other   |            | 9.937      |            |       |  0.26

Nlocal:    9826 ave 9827 max 9825 min
Histogram: 1 0 0 0 0 0 0 0 0 1
Nghost:    12859 ave 12861 max 12857 min
Histogram: 1 0 0 0 0 0 0 0 0 1
Neighs:    736374 ave 736574 max 736173 min
Histogram: 1 0 0 0 0 0 0 0 0 1

Total # of neighbors = 1472747
Ave neighs/atom = 74.9413
Neighbor list builds = 49505
Dangerous builds not checked
Setting up Verlet run ...
  Unit style    : metal
  Current step  : 2340000
  Time step     : 0.001
Per MPI rank memory allocation (min/avg/max) = 11.35 | 11.35 | 11.36 Mbytes
Step Temp Press TotEng PotEng Enthalpy 
 2340000    149.93362   -140.98688   -64858.582   -65239.427   -64888.144 
 2340495    127.07401      16.5812   -64977.616   -65300.396   -64974.147 
Loop time of 40.2832 on 2 procs for 495 steps with 19652 atoms

Performance: 1.062 ns/day, 22.606 hours/ns, 12.288 timesteps/s
99.8% CPU use with 2 MPI tasks x no OpenMP threads

MPI task timing breakdown:
Section |  min time  |  avg time  |  max time  |%varavg| %total
---------------------------------------------------------------
Pair    | 21.906     | 21.973     | 22.041     |   1.4 | 54.55
Neigh   | 15.779     | 16.26      | 16.741     |  11.9 | 40.36
Comm    | 1.1405     | 1.5618     | 1.9831     |  33.7 |  3.88
Output  | 6.6996e-05 | 9.8467e-05 | 0.00012994 |   0.0 |  0.00
Modify  | 0.37493    | 0.38018    | 0.38543    |   0.9 |  0.94
Other   |            | 0.1076     |            |       |  0.27

Nlocal:    9826 ave 9826 max 9826 min
Histogram: 2 0 0 0 0 0 0 0 0 0
Nghost:    12841 ave 12845 max 12837 min
Histogram: 1 0 0 0 0 0 0 0 0 1
Neighs:    737788 ave 737910 max 737667 min
Histogram: 1 0 0 0 0 0 0 0 0 1

Total # of neighbors = 1475577
Ave neighs/atom = 75.0853
Neighbor list builds = 495
Dangerous builds not checked
Setting up Verlet run ...
  Unit style    : metal
  Current step  : 2340495
  Time step     : 0.001
Per MPI rank memory allocation (min/avg/max) = 11.35 | 11.35 | 11.36 Mbytes
Step Temp Press TotEng PotEng Enthalpy 
 2340495    127.07401      16.5812   -64977.616   -65300.396   -64974.147 
 2350000    100.40698   -135.74963    -65120.65   -65375.693   -65148.999 
 2390000    99.602879    48.226489   -65120.108   -65373.108   -65110.038 
Loop time of 3938.7 on 2 procs for 49505 steps with 19652 atoms

Performance: 1.086 ns/day, 22.100 hours/ns, 12.569 timesteps/s
98.9% CPU use with 2 MPI tasks x no OpenMP threads

MPI task timing breakdown:
Section |  min time  |  avg time  |  max time  |%varavg| %total
---------------------------------------------------------------
Pair    | 2119.7     | 2134       | 2148.4     |  31.1 | 54.18
Neigh   | 1590.8     | 1592.3     | 1593.8     |   3.7 | 40.43
Comm    | 148.84     | 164.69     | 180.55     | 123.5 |  4.18
Output  | 0.059458   | 0.059499   | 0.05954    |   0.0 |  0.00
Modify  | 37.203     | 37.378     | 37.552     |   2.9 |  0.95
Other   |            | 10.24      |            |       |  0.26

Nlocal:    9826 ave 9828 max 9824 min
Histogram: 1 0 0 0 0 0 0 0 0 1
Nghost:    12872.5 ave 12876 max 12869 min
Histogram: 1 0 0 0 0 0 0 0 0 1
Neighs:    739168 ave 739449 max 738886 min
Histogram: 1 0 0 0 0 0 0 0 0 1

Total # of neighbors = 1478335
Ave neighs/atom = 75.2257
Neighbor list builds = 49505
Dangerous builds not checked
Total wall time: 46:45:43
