LAMMPS (12 Dec 2018)
Lattice spacing in x,y,z = 4 4 4
Created orthogonal box = (0 0 0) to (68 68 68)
  1 by 1 by 1 MPI processor grid
Created 19652 atoms
  Time spent = 0.0030849 secs
Setting atom values ...
  19281 settings made for type/fraction
Neighbor list info ...
  update every 1 steps, delay 0 steps, check no
  max neighbors/atom: 2000, page size: 100000
  master list distance cutoff = 8.5
  ghost atom cutoff = 8.5
  binsize = 4.25, bins = 16 16 16
  1 neighbor lists, perpetual/occasional/extra = 1 0 0
  (1) pair eam/alloy, perpetual
      attributes: half, newton on
      pair build: half/bin/atomonly/newton
      stencil: half/bin/3d/newton
      bin: standard
Setting up Verlet run ...
  Unit style    : metal
  Current step  : 0
  Time step     : 0.001
Per MPI rank memory allocation (min/avg/max) = 18.19 | 18.19 | 18.19 Mbytes
Step Temp Press TotEng PotEng Enthalpy 
       0          300    37241.191   -65214.093    -65976.12   -57905.396 
    1000    279.89933    50744.822   -65214.124   -65925.094   -55255.299 
Loop time of 160.089 on 1 procs for 1000 steps with 19652 atoms

Performance: 0.540 ns/day, 44.469 hours/ns, 6.247 timesteps/s
99.9% CPU use with 1 MPI tasks x no OpenMP threads

MPI task timing breakdown:
Section |  min time  |  avg time  |  max time  |%varavg| %total
---------------------------------------------------------------
Pair    | 91.038     | 91.038     | 91.038     |   0.0 | 56.87
Neigh   | 66.61      | 66.61      | 66.61      |   0.0 | 41.61
Comm    | 1.4053     | 1.4053     | 1.4053     |   0.0 |  0.88
Output  | 0.00047088 | 0.00047088 | 0.00047088 |   0.0 |  0.00
Modify  | 0.5295     | 0.5295     | 0.5295     |   0.0 |  0.33
Other   |            | 0.5058     |            |       |  0.32

Nlocal:    19652 ave 19652 max 19652 min
Histogram: 1 0 0 0 0 0 0 0 0 0
Nghost:    20096 ave 20096 max 20096 min
Histogram: 1 0 0 0 0 0 0 0 0 0
Neighs:    1.56792e+06 ave 1.56792e+06 max 1.56792e+06 min
Histogram: 1 0 0 0 0 0 0 0 0 0

Total # of neighbors = 1567924
Ave neighs/atom = 79.7844
Neighbor list builds = 1000
Dangerous builds not checked
Setting up Verlet run ...
  Unit style    : metal
  Current step  : 1000
  Time step     : 0.001
Per MPI rank memory allocation (min/avg/max) = 18.2 | 18.2 | 18.2 Mbytes
Step Temp Press TotEng PotEng Enthalpy 
    1000    279.89933    50744.822   -65214.124   -65925.094   -55255.299 
    2000    301.86351   -48.824104   -65198.055   -65964.816   -65208.279 
Loop time of 153.167 on 1 procs for 1000 steps with 19652 atoms

Performance: 0.564 ns/day, 42.546 hours/ns, 6.529 timesteps/s
99.3% CPU use with 1 MPI tasks x no OpenMP threads

MPI task timing breakdown:
Section |  min time  |  avg time  |  max time  |%varavg| %total
---------------------------------------------------------------
Pair    | 83.904     | 83.904     | 83.904     |   0.0 | 54.78
Neigh   | 65.182     | 65.182     | 65.182     |   0.0 | 42.56
Comm    | 1.1805     | 1.1805     | 1.1805     |   0.0 |  0.77
Output  | 0.91043    | 0.91043    | 0.91043    |   0.0 |  0.59
Modify  | 1.524      | 1.524      | 1.524      |   0.0 |  1.00
Other   |            | 0.4656     |            |       |  0.30

Nlocal:    19652 ave 19652 max 19652 min
Histogram: 1 0 0 0 0 0 0 0 0 0
Nghost:    19960 ave 19960 max 19960 min
Histogram: 1 0 0 0 0 0 0 0 0 0
Neighs:    1.44674e+06 ave 1.44674e+06 max 1.44674e+06 min
Histogram: 1 0 0 0 0 0 0 0 0 0

Total # of neighbors = 1446744
Ave neighs/atom = 73.6182
Neighbor list builds = 1000
Dangerous builds not checked
Setting up Verlet run ...
  Unit style    : metal
  Current step  : 2000
  Time step     : 0.001
Per MPI rank memory allocation (min/avg/max) = 18.2 | 18.2 | 18.2 Mbytes
Step Temp Press TotEng PotEng Enthalpy 
    2000    301.86351   -48.824104   -65198.055   -65964.816   -65208.279 
    6667    1544.8343   -165.59887   -56728.578   -60652.597   -56770.756 
   10000    2435.0602   -1035.9623   -51632.399   -57817.674   -51928.479 
Loop time of 1013.09 on 1 procs for 8000 steps with 19652 atoms

Performance: 0.682 ns/day, 35.177 hours/ns, 7.897 timesteps/s
99.9% CPU use with 1 MPI tasks x no OpenMP threads

MPI task timing breakdown:
Section |  min time  |  avg time  |  max time  |%varavg| %total
---------------------------------------------------------------
Pair    | 529.45     | 529.45     | 529.45     |   0.0 | 52.26
Neigh   | 462.46     | 462.46     | 462.46     |   0.0 | 45.65
Comm    | 7.7245     | 7.7245     | 7.7245     |   0.0 |  0.76
Output  | 0.05309    | 0.05309    | 0.05309    |   0.0 |  0.01
Modify  | 10.473     | 10.473     | 10.473     |   0.0 |  1.03
Other   |            | 2.927      |            |       |  0.29

Nlocal:    19652 ave 19652 max 19652 min
Histogram: 1 0 0 0 0 0 0 0 0 0
Nghost:    16108 ave 16108 max 16108 min
Histogram: 1 0 0 0 0 0 0 0 0 0
Neighs:    1.07769e+06 ave 1.07769e+06 max 1.07769e+06 min
Histogram: 1 0 0 0 0 0 0 0 0 0

Total # of neighbors = 1077690
Ave neighs/atom = 54.8387
Neighbor list builds = 8000
Dangerous builds not checked
Setting up Verlet run ...
  Unit style    : metal
  Current step  : 10000
  Time step     : 0.001
Per MPI rank memory allocation (min/avg/max) = 18.2 | 18.2 | 18.2 Mbytes
Step Temp Press TotEng PotEng Enthalpy 
   10000    2435.0602   -1035.9623   -51632.399   -57817.674   -51928.479 
   13334    2441.1334   -70.727665   -51614.395   -57815.097   -51634.582 
   20001    2459.6707    396.88891   -51631.121   -57878.909   -51518.126 
   26668    2438.6931    253.44136   -51663.142   -57857.645   -51590.989 
   33335    2446.0171   -423.90089   -51629.586   -57842.692   -51750.602 
   40000    2458.4199   -608.17931   -51530.086   -57774.697   -51704.226 
Loop time of 3405.71 on 1 procs for 30000 steps with 19652 atoms

Performance: 0.761 ns/day, 31.534 hours/ns, 8.809 timesteps/s
99.9% CPU use with 1 MPI tasks x no OpenMP threads

MPI task timing breakdown:
Section |  min time  |  avg time  |  max time  |%varavg| %total
---------------------------------------------------------------
Pair    | 1756.7     | 1756.7     | 1756.7     |   0.0 | 51.58
Neigh   | 1572.9     | 1572.9     | 1572.9     |   0.0 | 46.18
Comm    | 27.846     | 27.846     | 27.846     |   0.0 |  0.82
Output  | 0.22325    | 0.22325    | 0.22325    |   0.0 |  0.01
Modify  | 38.013     | 38.013     | 38.013     |   0.0 |  1.12
Other   |            | 10.02      |            |       |  0.29

Nlocal:    19652 ave 19652 max 19652 min
Histogram: 1 0 0 0 0 0 0 0 0 0
Nghost:    16047 ave 16047 max 16047 min
Histogram: 1 0 0 0 0 0 0 0 0 0
Neighs:    1.0758e+06 ave 1.0758e+06 max 1.0758e+06 min
Histogram: 1 0 0 0 0 0 0 0 0 0

Total # of neighbors = 1075799
Ave neighs/atom = 54.7425
Neighbor list builds = 30000
Dangerous builds not checked
Setting up Verlet run ...
  Unit style    : metal
  Current step  : 40000
  Time step     : 0.001
Per MPI rank memory allocation (min/avg/max) = 18.2 | 18.2 | 18.2 Mbytes
Step Temp Press TotEng PotEng Enthalpy 
   40000    2458.4199   -608.17931   -51530.086   -57774.697   -51704.226 
   40002    2458.8282   -602.55561   -51530.099   -57775.747   -51702.629 
   40495    2428.0232     527.5281   -51824.892   -57992.292   -51675.372 
Loop time of 54.2806 on 1 procs for 495 steps with 19652 atoms

Performance: 0.788 ns/day, 30.461 hours/ns, 9.119 timesteps/s
99.9% CPU use with 1 MPI tasks x no OpenMP threads

MPI task timing breakdown:
Section |  min time  |  avg time  |  max time  |%varavg| %total
---------------------------------------------------------------
Pair    | 27.908     | 27.908     | 27.908     |   0.0 | 51.41
Neigh   | 25.088     | 25.088     | 25.088     |   0.0 | 46.22
Comm    | 0.44339    | 0.44339    | 0.44339    |   0.0 |  0.82
Output  | 0.052919   | 0.052919   | 0.052919   |   0.0 |  0.10
Modify  | 0.62232    | 0.62232    | 0.62232    |   0.0 |  1.15
Other   |            | 0.1659     |            |       |  0.31

Nlocal:    19652 ave 19652 max 19652 min
Histogram: 1 0 0 0 0 0 0 0 0 0
Nghost:    16094 ave 16094 max 16094 min
Histogram: 1 0 0 0 0 0 0 0 0 0
Neighs:    1.08683e+06 ave 1.08683e+06 max 1.08683e+06 min
Histogram: 1 0 0 0 0 0 0 0 0 0

Total # of neighbors = 1086830
Ave neighs/atom = 55.3038
Neighbor list builds = 495
Dangerous builds not checked
Setting up Verlet run ...
  Unit style    : metal
  Current step  : 40495
  Time step     : 0.001
Per MPI rank memory allocation (min/avg/max) = 18.2 | 18.2 | 18.2 Mbytes
Step Temp Press TotEng PotEng Enthalpy 
   40495    2428.0232     527.5281   -51824.892   -57992.292   -51675.372 
   46667    2401.5696    297.79199   -51901.317   -58001.522   -51817.032 
Loop time of 683.994 on 1 procs for 6172 steps with 19652 atoms

Performance: 0.780 ns/day, 30.784 hours/ns, 9.023 timesteps/s
99.9% CPU use with 1 MPI tasks x no OpenMP threads

MPI task timing breakdown:
Section |  min time  |  avg time  |  max time  |%varavg| %total
---------------------------------------------------------------
Pair    | 353.27     | 353.27     | 353.27     |   0.0 | 51.65
Neigh   | 315.54     | 315.54     | 315.54     |   0.0 | 46.13
Comm    | 5.5905     | 5.5905     | 5.5905     |   0.0 |  0.82
Output  | 0.00020194 | 0.00020194 | 0.00020194 |   0.0 |  0.00
Modify  | 7.5925     | 7.5925     | 7.5925     |   0.0 |  1.11
Other   |            | 2.004      |            |       |  0.29

Nlocal:    19652 ave 19652 max 19652 min
Histogram: 1 0 0 0 0 0 0 0 0 0
Nghost:    16144 ave 16144 max 16144 min
Histogram: 1 0 0 0 0 0 0 0 0 0
Neighs:    1.08844e+06 ave 1.08844e+06 max 1.08844e+06 min
Histogram: 1 0 0 0 0 0 0 0 0 0

Total # of neighbors = 1088441
Ave neighs/atom = 55.3858
Neighbor list builds = 6172
Dangerous builds not checked
Setting up Verlet run ...
  Unit style    : metal
  Current step  : 46667
  Time step     : 0.001
Per MPI rank memory allocation (min/avg/max) = 18.2 | 18.2 | 18.2 Mbytes
Step Temp Press TotEng PotEng Enthalpy 
   46667    2401.5696    297.79199   -51901.317   -58001.522   -51817.032 
   46669    2402.7448    242.42085   -51901.321   -58004.511   -51832.708 
   47162    2375.6732   -119.59777   -52021.454    -58055.88   -52055.272 
Loop time of 54.8417 on 1 procs for 495 steps with 19652 atoms

Performance: 0.780 ns/day, 30.775 hours/ns, 9.026 timesteps/s
99.9% CPU use with 1 MPI tasks x no OpenMP threads

MPI task timing breakdown:
Section |  min time  |  avg time  |  max time  |%varavg| %total
---------------------------------------------------------------
Pair    | 28.296     | 28.296     | 28.296     |   0.0 | 51.60
Neigh   | 25.219     | 25.219     | 25.219     |   0.0 | 45.99
Comm    | 0.4486     | 0.4486     | 0.4486     |   0.0 |  0.82
Output  | 0.064909   | 0.064909   | 0.064909   |   0.0 |  0.12
Modify  | 0.6416     | 0.6416     | 0.6416     |   0.0 |  1.17
Other   |            | 0.1708     |            |       |  0.31

Nlocal:    19652 ave 19652 max 19652 min
Histogram: 1 0 0 0 0 0 0 0 0 0
Nghost:    16100 ave 16100 max 16100 min
Histogram: 1 0 0 0 0 0 0 0 0 0
Neighs:    1.08946e+06 ave 1.08946e+06 max 1.08946e+06 min
Histogram: 1 0 0 0 0 0 0 0 0 0

Total # of neighbors = 1089455
Ave neighs/atom = 55.4374
Neighbor list builds = 495
Dangerous builds not checked
Setting up Verlet run ...
  Unit style    : metal
  Current step  : 47162
  Time step     : 0.001
Per MPI rank memory allocation (min/avg/max) = 18.2 | 18.2 | 18.2 Mbytes
Step Temp Press TotEng PotEng Enthalpy 
   47162    2375.6732   -119.59777   -52021.454    -58055.88   -52055.272 
   53334    2374.8439      30.6224   -52138.284   -58170.604   -52129.663 
Loop time of 659.737 on 1 procs for 6172 steps with 19652 atoms

Performance: 0.808 ns/day, 29.692 hours/ns, 9.355 timesteps/s
99.9% CPU use with 1 MPI tasks x no OpenMP threads

MPI task timing breakdown:
Section |  min time  |  avg time  |  max time  |%varavg| %total
---------------------------------------------------------------
Pair    | 342.03     | 342.03     | 342.03     |   0.0 | 51.84
Neigh   | 303.22     | 303.22     | 303.22     |   0.0 | 45.96
Comm    | 5.4201     | 5.4201     | 5.4201     |   0.0 |  0.82
Output  | 0.00032592 | 0.00032592 | 0.00032592 |   0.0 |  0.00
Modify  | 7.1459     | 7.1459     | 7.1459     |   0.0 |  1.08
Other   |            | 1.924      |            |       |  0.29

Nlocal:    19652 ave 19652 max 19652 min
Histogram: 1 0 0 0 0 0 0 0 0 0
Nghost:    16182 ave 16182 max 16182 min
Histogram: 1 0 0 0 0 0 0 0 0 0
Neighs:    1.09374e+06 ave 1.09374e+06 max 1.09374e+06 min
Histogram: 1 0 0 0 0 0 0 0 0 0

Total # of neighbors = 1093739
Ave neighs/atom = 55.6554
Neighbor list builds = 6172
Dangerous builds not checked
Setting up Verlet run ...
  Unit style    : metal
  Current step  : 53334
  Time step     : 0.001
Per MPI rank memory allocation (min/avg/max) = 18.2 | 18.2 | 18.2 Mbytes
Step Temp Press TotEng PotEng Enthalpy 
   53334    2374.8439      30.6224   -52138.284   -58170.604   -52129.663 
   53336    2372.8733    28.090411   -52138.299   -58165.613    -52130.39 
   53829    2306.6674   -327.82273   -52346.454   -58205.599   -52438.571 
Loop time of 45.5602 on 1 procs for 495 steps with 19652 atoms

Performance: 0.939 ns/day, 25.567 hours/ns, 10.865 timesteps/s
99.9% CPU use with 1 MPI tasks x no OpenMP threads

MPI task timing breakdown:
Section |  min time  |  avg time  |  max time  |%varavg| %total
---------------------------------------------------------------
Pair    | 23.186     | 23.186     | 23.186     |   0.0 | 50.89
Neigh   | 21.335     | 21.335     | 21.335     |   0.0 | 46.83
Comm    | 0.37165    | 0.37165    | 0.37165    |   0.0 |  0.82
Output  | 0.04069    | 0.04069    | 0.04069    |   0.0 |  0.09
Modify  | 0.48735    | 0.48735    | 0.48735    |   0.0 |  1.07
Other   |            | 0.14       |            |       |  0.31

Nlocal:    19652 ave 19652 max 19652 min
Histogram: 1 0 0 0 0 0 0 0 0 0
Nghost:    16191 ave 16191 max 16191 min
Histogram: 1 0 0 0 0 0 0 0 0 0
Neighs:    1.09686e+06 ave 1.09686e+06 max 1.09686e+06 min
Histogram: 1 0 0 0 0 0 0 0 0 0

Total # of neighbors = 1096863
Ave neighs/atom = 55.8143
Neighbor list builds = 495
Dangerous builds not checked
Setting up Verlet run ...
  Unit style    : metal
  Current step  : 53829
  Time step     : 0.001
Per MPI rank memory allocation (min/avg/max) = 18.2 | 18.2 | 18.2 Mbytes
Step Temp Press TotEng PotEng Enthalpy 
   53829    2306.6674   -327.82273   -52346.454   -58205.599   -52438.571 
   60001    2327.2152   -234.30915   -52311.414   -58222.753   -52377.275 
Loop time of 672.254 on 1 procs for 6172 steps with 19652 atoms

Performance: 0.793 ns/day, 30.256 hours/ns, 9.181 timesteps/s
99.6% CPU use with 1 MPI tasks x no OpenMP threads

MPI task timing breakdown:
Section |  min time  |  avg time  |  max time  |%varavg| %total
---------------------------------------------------------------
Pair    | 355.19     | 355.19     | 355.19     |   0.0 | 52.83
Neigh   | 301.71     | 301.71     | 301.71     |   0.0 | 44.88
Comm    | 5.7761     | 5.7761     | 5.7761     |   0.0 |  0.86
Output  | 0.00017381 | 0.00017381 | 0.00017381 |   0.0 |  0.00
Modify  | 7.3385     | 7.3385     | 7.3385     |   0.0 |  1.09
Other   |            | 2.244      |            |       |  0.33

Nlocal:    19652 ave 19652 max 19652 min
Histogram: 1 0 0 0 0 0 0 0 0 0
Nghost:    16196 ave 16196 max 16196 min
Histogram: 1 0 0 0 0 0 0 0 0 0
Neighs:    1.09588e+06 ave 1.09588e+06 max 1.09588e+06 min
Histogram: 1 0 0 0 0 0 0 0 0 0

Total # of neighbors = 1095875
Ave neighs/atom = 55.764
Neighbor list builds = 6172
Dangerous builds not checked
Setting up Verlet run ...
  Unit style    : metal
  Current step  : 60001
  Time step     : 0.001
Per MPI rank memory allocation (min/avg/max) = 18.21 | 18.21 | 18.21 Mbytes
Step Temp Press TotEng PotEng Enthalpy 
   60001    2327.2152   -234.30915   -52311.414   -58222.753   -52377.275 
   60003    2327.7783   -264.33885   -52311.441    -58224.21   -52385.743 
   60496    2270.1006    145.28282   -52607.868   -58374.131   -52567.336 
Loop time of 43.1857 on 1 procs for 495 steps with 19652 atoms

Performance: 0.990 ns/day, 24.234 hours/ns, 11.462 timesteps/s
99.8% CPU use with 1 MPI tasks x no OpenMP threads

MPI task timing breakdown:
Section |  min time  |  avg time  |  max time  |%varavg| %total
---------------------------------------------------------------
Pair    | 21.702     | 21.702     | 21.702     |   0.0 | 50.25
Neigh   | 20.527     | 20.527     | 20.527     |   0.0 | 47.53
Comm    | 0.33739    | 0.33739    | 0.33739    |   0.0 |  0.78
Output  | 0.039814   | 0.039814   | 0.039814   |   0.0 |  0.09
Modify  | 0.45683    | 0.45683    | 0.45683    |   0.0 |  1.06
Other   |            | 0.1224     |            |       |  0.28

Nlocal:    19652 ave 19652 max 19652 min
Histogram: 1 0 0 0 0 0 0 0 0 0
Nghost:    16205 ave 16205 max 16205 min
Histogram: 1 0 0 0 0 0 0 0 0 0
Neighs:    1.10424e+06 ave 1.10424e+06 max 1.10424e+06 min
Histogram: 1 0 0 0 0 0 0 0 0 0

Total # of neighbors = 1104241
Ave neighs/atom = 56.1898
Neighbor list builds = 495
Dangerous builds not checked
Setting up Verlet run ...
  Unit style    : metal
  Current step  : 60496
  Time step     : 0.001
Per MPI rank memory allocation (min/avg/max) = 18.21 | 18.21 | 18.21 Mbytes
Step Temp Press TotEng PotEng Enthalpy 
   60496    2270.1006    145.28282   -52607.868   -58374.131   -52567.336 
   66668    2238.1345    826.85222   -52782.215    -58467.28   -52552.763 
Loop time of 571.944 on 1 procs for 6172 steps with 19652 atoms

Performance: 0.932 ns/day, 25.741 hours/ns, 10.791 timesteps/s
99.7% CPU use with 1 MPI tasks x no OpenMP threads

MPI task timing breakdown:
Section |  min time  |  avg time  |  max time  |%varavg| %total
---------------------------------------------------------------
Pair    | 280.7      | 280.7      | 280.7      |   0.0 | 49.08
Neigh   | 279.42     | 279.42     | 279.42     |   0.0 | 48.85
Comm    | 4.4464     | 4.4464     | 4.4464     |   0.0 |  0.78
Output  | 0.00016403 | 0.00016403 | 0.00016403 |   0.0 |  0.00
Modify  | 5.8304     | 5.8304     | 5.8304     |   0.0 |  1.02
Other   |            | 1.549      |            |       |  0.27

Nlocal:    19652 ave 19652 max 19652 min
Histogram: 1 0 0 0 0 0 0 0 0 0
Nghost:    16282 ave 16282 max 16282 min
Histogram: 1 0 0 0 0 0 0 0 0 0
Neighs:    1.11051e+06 ave 1.11051e+06 max 1.11051e+06 min
Histogram: 1 0 0 0 0 0 0 0 0 0

Total # of neighbors = 1110506
Ave neighs/atom = 56.5085
Neighbor list builds = 6172
Dangerous builds not checked
Setting up Verlet run ...
  Unit style    : metal
  Current step  : 66668
  Time step     : 0.001
Per MPI rank memory allocation (min/avg/max) = 18.21 | 18.21 | 18.21 Mbytes
Step Temp Press TotEng PotEng Enthalpy 
   66668    2238.1345    826.85222   -52782.215    -58467.28   -52552.763 
   66670    2240.0376    756.96558   -52782.204   -58472.104   -52572.146 
   67163    2205.5975   -768.87315   -52828.401    -58430.82   -53042.967 
Loop time of 45.375 on 1 procs for 495 steps with 19652 atoms

Performance: 0.943 ns/day, 25.463 hours/ns, 10.909 timesteps/s
99.9% CPU use with 1 MPI tasks x no OpenMP threads

MPI task timing breakdown:
Section |  min time  |  avg time  |  max time  |%varavg| %total
---------------------------------------------------------------
Pair    | 22.169     | 22.169     | 22.169     |   0.0 | 48.86
Neigh   | 22.181     | 22.181     | 22.181     |   0.0 | 48.88
Comm    | 0.34614    | 0.34614    | 0.34614    |   0.0 |  0.76
Output  | 0.080649   | 0.080649   | 0.080649   |   0.0 |  0.18
Modify  | 0.47367    | 0.47367    | 0.47367    |   0.0 |  1.04
Other   |            | 0.1244     |            |       |  0.27

Nlocal:    19652 ave 19652 max 19652 min
Histogram: 1 0 0 0 0 0 0 0 0 0
Nghost:    16353 ave 16353 max 16353 min
Histogram: 1 0 0 0 0 0 0 0 0 0
Neighs:    1.10468e+06 ave 1.10468e+06 max 1.10468e+06 min
Histogram: 1 0 0 0 0 0 0 0 0 0

Total # of neighbors = 1104676
Ave neighs/atom = 56.2119
Neighbor list builds = 495
Dangerous builds not checked
Setting up Verlet run ...
  Unit style    : metal
  Current step  : 67163
  Time step     : 0.001
Per MPI rank memory allocation (min/avg/max) = 18.21 | 18.21 | 18.21 Mbytes
Step Temp Press TotEng PotEng Enthalpy 
   67163    2205.5975   -768.87315   -52828.401    -58430.82   -53042.967 
   73335    2218.6664     888.2528   -52966.905    -58602.52   -52721.901 
Loop time of 581.465 on 1 procs for 6172 steps with 19652 atoms

Performance: 0.917 ns/day, 26.169 hours/ns, 10.615 timesteps/s
100.0% CPU use with 1 MPI tasks x no OpenMP threads

MPI task timing breakdown:
Section |  min time  |  avg time  |  max time  |%varavg| %total
---------------------------------------------------------------
Pair    | 285.68     | 285.68     | 285.68     |   0.0 | 49.13
Neigh   | 283.88     | 283.88     | 283.88     |   0.0 | 48.82
Comm    | 4.5048     | 4.5048     | 4.5048     |   0.0 |  0.77
Output  | 0.00014901 | 0.00014901 | 0.00014901 |   0.0 |  0.00
Modify  | 5.8692     | 5.8692     | 5.8692     |   0.0 |  1.01
Other   |            | 1.532      |            |       |  0.26

Nlocal:    19652 ave 19652 max 19652 min
Histogram: 1 0 0 0 0 0 0 0 0 0
Nghost:    16349 ave 16349 max 16349 min
Histogram: 1 0 0 0 0 0 0 0 0 0
Neighs:    1.1171e+06 ave 1.1171e+06 max 1.1171e+06 min
Histogram: 1 0 0 0 0 0 0 0 0 0

Total # of neighbors = 1117101
Ave neighs/atom = 56.8441
Neighbor list builds = 6172
Dangerous builds not checked
Setting up Verlet run ...
  Unit style    : metal
  Current step  : 73335
  Time step     : 0.001
Per MPI rank memory allocation (min/avg/max) = 18.21 | 18.21 | 18.21 Mbytes
Step Temp Press TotEng PotEng Enthalpy 
   73335    2218.6664     888.2528   -52966.905    -58602.52   -52721.901 
   73337    2219.5876    892.41163   -52966.933   -58604.888   -52720.782 
   73830    2162.7351   -58.889511   -53099.275   -58592.819   -53115.572 
Loop time of 46.1018 on 1 procs for 495 steps with 19652 atoms

Performance: 0.928 ns/day, 25.871 hours/ns, 10.737 timesteps/s
100.0% CPU use with 1 MPI tasks x no OpenMP threads

MPI task timing breakdown:
Section |  min time  |  avg time  |  max time  |%varavg| %total
---------------------------------------------------------------
Pair    | 22.631     | 22.631     | 22.631     |   0.0 | 49.09
Neigh   | 22.479     | 22.479     | 22.479     |   0.0 | 48.76
Comm    | 0.35384    | 0.35384    | 0.35384    |   0.0 |  0.77
Output  | 0.041685   | 0.041685   | 0.041685   |   0.0 |  0.09
Modify  | 0.47236    | 0.47236    | 0.47236    |   0.0 |  1.02
Other   |            | 0.1234     |            |       |  0.27

Nlocal:    19652 ave 19652 max 19652 min
Histogram: 1 0 0 0 0 0 0 0 0 0
Nghost:    16270 ave 16270 max 16270 min
Histogram: 1 0 0 0 0 0 0 0 0 0
Neighs:    1.11403e+06 ave 1.11403e+06 max 1.11403e+06 min
Histogram: 1 0 0 0 0 0 0 0 0 0

Total # of neighbors = 1114031
Ave neighs/atom = 56.6879
Neighbor list builds = 495
Dangerous builds not checked
Setting up Verlet run ...
  Unit style    : metal
  Current step  : 73830
  Time step     : 0.001
Per MPI rank memory allocation (min/avg/max) = 18.21 | 18.21 | 18.21 Mbytes
Step Temp Press TotEng PotEng Enthalpy 
   73830    2162.7351   -58.889511   -53099.275   -58592.819   -53115.572 
   80002    2143.4131     826.7495   -53250.585    -58695.05    -53023.27 
Loop time of 588.536 on 1 procs for 6172 steps with 19652 atoms

Performance: 0.906 ns/day, 26.488 hours/ns, 10.487 timesteps/s
99.9% CPU use with 1 MPI tasks x no OpenMP threads

MPI task timing breakdown:
Section |  min time  |  avg time  |  max time  |%varavg| %total
---------------------------------------------------------------
Pair    | 290.45     | 290.45     | 290.45     |   0.0 | 49.35
Neigh   | 286.07     | 286.07     | 286.07     |   0.0 | 48.61
Comm    | 4.5722     | 4.5722     | 4.5722     |   0.0 |  0.78
Output  | 0.00015998 | 0.00015998 | 0.00015998 |   0.0 |  0.00
Modify  | 5.9033     | 5.9033     | 5.9033     |   0.0 |  1.00
Other   |            | 1.54       |            |       |  0.26

Nlocal:    19652 ave 19652 max 19652 min
Histogram: 1 0 0 0 0 0 0 0 0 0
Nghost:    16263 ave 16263 max 16263 min
Histogram: 1 0 0 0 0 0 0 0 0 0
Neighs:    1.12103e+06 ave 1.12103e+06 max 1.12103e+06 min
Histogram: 1 0 0 0 0 0 0 0 0 0

Total # of neighbors = 1121028
Ave neighs/atom = 57.044
Neighbor list builds = 6172
Dangerous builds not checked
Setting up Verlet run ...
  Unit style    : metal
  Current step  : 80002
  Time step     : 0.001
Per MPI rank memory allocation (min/avg/max) = 18.21 | 18.21 | 18.21 Mbytes
Step Temp Press TotEng PotEng Enthalpy 
   80002    2143.4131     826.7495   -53250.585    -58695.05    -53023.27 
   80004    2144.1938    817.52619   -53250.583   -58697.031   -53025.803 
   80497    2120.9298    -417.3289   -53446.907   -58834.261   -53561.364 
Loop time of 47.1621 on 1 procs for 495 steps with 19652 atoms

Performance: 0.907 ns/day, 26.466 hours/ns, 10.496 timesteps/s
100.0% CPU use with 1 MPI tasks x no OpenMP threads

MPI task timing breakdown:
Section |  min time  |  avg time  |  max time  |%varavg| %total
---------------------------------------------------------------
Pair    | 23.395     | 23.395     | 23.395     |   0.0 | 49.61
Neigh   | 22.751     | 22.751     | 22.751     |   0.0 | 48.24
Comm    | 0.36842    | 0.36842    | 0.36842    |   0.0 |  0.78
Output  | 0.041026   | 0.041026   | 0.041026   |   0.0 |  0.09
Modify  | 0.47921    | 0.47921    | 0.47921    |   0.0 |  1.02
Other   |            | 0.1268     |            |       |  0.27

Nlocal:    19652 ave 19652 max 19652 min
Histogram: 1 0 0 0 0 0 0 0 0 0
Nghost:    16382 ave 16382 max 16382 min
Histogram: 1 0 0 0 0 0 0 0 0 0
Neighs:    1.12384e+06 ave 1.12384e+06 max 1.12384e+06 min
Histogram: 1 0 0 0 0 0 0 0 0 0

Total # of neighbors = 1123844
Ave neighs/atom = 57.1873
Neighbor list builds = 495
Dangerous builds not checked
Setting up Verlet run ...
  Unit style    : metal
  Current step  : 80497
  Time step     : 0.001
Per MPI rank memory allocation (min/avg/max) = 18.21 | 18.21 | 18.21 Mbytes
Step Temp Press TotEng PotEng Enthalpy 
   80497    2120.9298    -417.3289   -53446.907   -58834.261   -53561.364 
   86669    2088.7742    982.25125   -53618.306   -58923.983   -53350.794 
Loop time of 600.57 on 1 procs for 6172 steps with 19652 atoms

Performance: 0.888 ns/day, 27.029 hours/ns, 10.277 timesteps/s
99.9% CPU use with 1 MPI tasks x no OpenMP threads

MPI task timing breakdown:
Section |  min time  |  avg time  |  max time  |%varavg| %total
---------------------------------------------------------------
Pair    | 299.29     | 299.29     | 299.29     |   0.0 | 49.83
Neigh   | 288.95     | 288.95     | 288.95     |   0.0 | 48.11
Comm    | 4.7139     | 4.7139     | 4.7139     |   0.0 |  0.78
Output  | 0.00016618 | 0.00016618 | 0.00016618 |   0.0 |  0.00
Modify  | 6.0132     | 6.0132     | 6.0132     |   0.0 |  1.00
Other   |            | 1.599      |            |       |  0.27

Nlocal:    19652 ave 19652 max 19652 min
Histogram: 1 0 0 0 0 0 0 0 0 0
Nghost:    16426 ave 16426 max 16426 min
Histogram: 1 0 0 0 0 0 0 0 0 0
Neighs:    1.13174e+06 ave 1.13174e+06 max 1.13174e+06 min
Histogram: 1 0 0 0 0 0 0 0 0 0

Total # of neighbors = 1131744
Ave neighs/atom = 57.5893
Neighbor list builds = 6172
Dangerous builds not checked
Setting up Verlet run ...
  Unit style    : metal
  Current step  : 86669
  Time step     : 0.001
Per MPI rank memory allocation (min/avg/max) = 18.21 | 18.21 | 18.21 Mbytes
Step Temp Press TotEng PotEng Enthalpy 
   86669    2088.7742    982.25125   -53618.306   -58923.983   -53350.794 
   86671    2088.5608    983.32603   -53618.293   -58923.428   -53350.488 
   87164    2049.7805   -471.96251   -53718.085   -58924.714   -53846.968 
Loop time of 46.3962 on 1 procs for 495 steps with 19652 atoms

Performance: 0.922 ns/day, 26.036 hours/ns, 10.669 timesteps/s
100.0% CPU use with 1 MPI tasks x no OpenMP threads

MPI task timing breakdown:
Section |  min time  |  avg time  |  max time  |%varavg| %total
---------------------------------------------------------------
Pair    | 22.947     | 22.947     | 22.947     |   0.0 | 49.46
Neigh   | 22.441     | 22.441     | 22.441     |   0.0 | 48.37
Comm    | 0.35957    | 0.35957    | 0.35957    |   0.0 |  0.77
Output  | 0.040988   | 0.040988   | 0.040988   |   0.0 |  0.09
Modify  | 0.48025    | 0.48025    | 0.48025    |   0.0 |  1.04
Other   |            | 0.1269     |            |       |  0.27

Nlocal:    19652 ave 19652 max 19652 min
Histogram: 1 0 0 0 0 0 0 0 0 0
Nghost:    16428 ave 16428 max 16428 min
Histogram: 1 0 0 0 0 0 0 0 0 0
Neighs:    1.12841e+06 ave 1.12841e+06 max 1.12841e+06 min
Histogram: 1 0 0 0 0 0 0 0 0 0

Total # of neighbors = 1128407
Ave neighs/atom = 57.4194
Neighbor list builds = 495
Dangerous builds not checked
Setting up Verlet run ...
  Unit style    : metal
  Current step  : 87164
  Time step     : 0.001
Per MPI rank memory allocation (min/avg/max) = 18.21 | 18.21 | 18.21 Mbytes
Step Temp Press TotEng PotEng Enthalpy 
   87164    2049.7805   -471.96251   -53718.085   -58924.714   -53846.968 
   93336    2044.2802    9.7773716   -53749.928   -58942.586   -53747.263 
Loop time of 599.195 on 1 procs for 6172 steps with 19652 atoms

Performance: 0.890 ns/day, 26.967 hours/ns, 10.300 timesteps/s
100.0% CPU use with 1 MPI tasks x no OpenMP threads

MPI task timing breakdown:
Section |  min time  |  avg time  |  max time  |%varavg| %total
---------------------------------------------------------------
Pair    | 298.9      | 298.9      | 298.9      |   0.0 | 49.88
Neigh   | 288.04     | 288.04     | 288.04     |   0.0 | 48.07
Comm    | 4.6888     | 4.6888     | 4.6888     |   0.0 |  0.78
Output  | 0.00015616 | 0.00015616 | 0.00015616 |   0.0 |  0.00
Modify  | 5.982      | 5.982      | 5.982      |   0.0 |  1.00
Other   |            | 1.586      |            |       |  0.26

Nlocal:    19652 ave 19652 max 19652 min
Histogram: 1 0 0 0 0 0 0 0 0 0
Nghost:    16405 ave 16405 max 16405 min
Histogram: 1 0 0 0 0 0 0 0 0 0
Neighs:    1.13086e+06 ave 1.13086e+06 max 1.13086e+06 min
Histogram: 1 0 0 0 0 0 0 0 0 0

Total # of neighbors = 1130856
Ave neighs/atom = 57.5441
Neighbor list builds = 6172
Dangerous builds not checked
Setting up Verlet run ...
  Unit style    : metal
  Current step  : 93336
  Time step     : 0.001
Per MPI rank memory allocation (min/avg/max) = 18.21 | 18.21 | 18.21 Mbytes
Step Temp Press TotEng PotEng Enthalpy 
   93336    2044.2802    9.7773716   -53749.928   -58942.586   -53747.263 
   93338    2042.0689     59.38524   -53749.912   -58936.953   -53733.727 
   93831    2011.5509    277.61263   -54037.163   -59146.685   -53962.124 
Loop time of 47.2764 on 1 procs for 495 steps with 19652 atoms

Performance: 0.905 ns/day, 26.530 hours/ns, 10.470 timesteps/s
100.0% CPU use with 1 MPI tasks x no OpenMP threads

MPI task timing breakdown:
Section |  min time  |  avg time  |  max time  |%varavg| %total
---------------------------------------------------------------
Pair    | 23.515     | 23.515     | 23.515     |   0.0 | 49.74
Neigh   | 22.746     | 22.746     | 22.746     |   0.0 | 48.11
Comm    | 0.36702    | 0.36702    | 0.36702    |   0.0 |  0.78
Output  | 0.041122   | 0.041122   | 0.041122   |   0.0 |  0.09
Modify  | 0.48012    | 0.48012    | 0.48012    |   0.0 |  1.02
Other   |            | 0.127      |            |       |  0.27

Nlocal:    19652 ave 19652 max 19652 min
Histogram: 1 0 0 0 0 0 0 0 0 0
Nghost:    16400 ave 16400 max 16400 min
Histogram: 1 0 0 0 0 0 0 0 0 0
Neighs:    1.14049e+06 ave 1.14049e+06 max 1.14049e+06 min
Histogram: 1 0 0 0 0 0 0 0 0 0

Total # of neighbors = 1140493
Ave neighs/atom = 58.0344
Neighbor list builds = 495
Dangerous builds not checked
Setting up Verlet run ...
  Unit style    : metal
  Current step  : 93831
  Time step     : 0.001
Per MPI rank memory allocation (min/avg/max) = 18.21 | 18.21 | 18.21 Mbytes
Step Temp Press TotEng PotEng Enthalpy 
   93831    2011.5509    277.61263   -54037.163   -59146.685   -53962.124 
  100003    1994.9583   -102.57327   -54097.551   -59164.927   -54125.283 
Loop time of 601.467 on 1 procs for 6172 steps with 19652 atoms

Performance: 0.887 ns/day, 27.070 hours/ns, 10.262 timesteps/s
100.0% CPU use with 1 MPI tasks x no OpenMP threads

MPI task timing breakdown:
Section |  min time  |  avg time  |  max time  |%varavg| %total
---------------------------------------------------------------
Pair    | 300.67     | 300.67     | 300.67     |   0.0 | 49.99
Neigh   | 288.53     | 288.53     | 288.53     |   0.0 | 47.97
Comm    | 4.697      | 4.697      | 4.697      |   0.0 |  0.78
Output  | 0.00016499 | 0.00016499 | 0.00016499 |   0.0 |  0.00
Modify  | 5.9787     | 5.9787     | 5.9787     |   0.0 |  0.99
Other   |            | 1.588      |            |       |  0.26

Nlocal:    19652 ave 19652 max 19652 min
Histogram: 1 0 0 0 0 0 0 0 0 0
Nghost:    16382 ave 16382 max 16382 min
Histogram: 1 0 0 0 0 0 0 0 0 0
Neighs:    1.13999e+06 ave 1.13999e+06 max 1.13999e+06 min
Histogram: 1 0 0 0 0 0 0 0 0 0

Total # of neighbors = 1139988
Ave neighs/atom = 58.0088
Neighbor list builds = 6172
Dangerous builds not checked
Setting up Verlet run ...
  Unit style    : metal
  Current step  : 100003
  Time step     : 0.001
Per MPI rank memory allocation (min/avg/max) = 18.21 | 18.21 | 18.21 Mbytes
Step Temp Press TotEng PotEng Enthalpy 
  100003    1994.9583   -102.57327   -54097.551   -59164.927   -54125.283 
  100005    1996.0591   -131.30464   -54097.545   -59167.717   -54133.044 
  100498    1958.3878    407.70052   -54303.169   -59277.652   -54193.471 
Loop time of 47.5001 on 1 procs for 495 steps with 19652 atoms

Performance: 0.900 ns/day, 26.656 hours/ns, 10.421 timesteps/s
100.0% CPU use with 1 MPI tasks x no OpenMP threads

MPI task timing breakdown:
Section |  min time  |  avg time  |  max time  |%varavg| %total
---------------------------------------------------------------
Pair    | 23.66      | 23.66      | 23.66      |   0.0 | 49.81
Neigh   | 22.826     | 22.826     | 22.826     |   0.0 | 48.05
Comm    | 0.36557    | 0.36557    | 0.36557    |   0.0 |  0.77
Output  | 0.041143   | 0.041143   | 0.041143   |   0.0 |  0.09
Modify  | 0.48014    | 0.48014    | 0.48014    |   0.0 |  1.01
Other   |            | 0.1276     |            |       |  0.27

Nlocal:    19652 ave 19652 max 19652 min
Histogram: 1 0 0 0 0 0 0 0 0 0
Nghost:    16438 ave 16438 max 16438 min
Histogram: 1 0 0 0 0 0 0 0 0 0
Neighs:    1.14596e+06 ave 1.14596e+06 max 1.14596e+06 min
Histogram: 1 0 0 0 0 0 0 0 0 0

Total # of neighbors = 1145959
Ave neighs/atom = 58.3126
Neighbor list builds = 495
Dangerous builds not checked
Setting up Verlet run ...
  Unit style    : metal
  Current step  : 100498
  Time step     : 0.001
Per MPI rank memory allocation (min/avg/max) = 18.21 | 18.21 | 18.21 Mbytes
Step Temp Press TotEng PotEng Enthalpy 
  100498    1958.3878    407.70052   -54303.169   -59277.652   -54193.471 
  106670    1956.3818   -419.67715   -54324.318   -59293.707   -54437.224 
Loop time of 592.559 on 1 procs for 6172 steps with 19652 atoms

Performance: 0.900 ns/day, 26.669 hours/ns, 10.416 timesteps/s
99.9% CPU use with 1 MPI tasks x no OpenMP threads

MPI task timing breakdown:
Section |  min time  |  avg time  |  max time  |%varavg| %total
---------------------------------------------------------------
Pair    | 295.28     | 295.28     | 295.28     |   0.0 | 49.83
Neigh   | 285.21     | 285.21     | 285.21     |   0.0 | 48.13
Comm    | 4.5348     | 4.5348     | 4.5348     |   0.0 |  0.77
Output  | 0.00016499 | 0.00016499 | 0.00016499 |   0.0 |  0.00
Modify  | 5.9199     | 5.9199     | 5.9199     |   0.0 |  1.00
Other   |            | 1.612      |            |       |  0.27

Nlocal:    19652 ave 19652 max 19652 min
Histogram: 1 0 0 0 0 0 0 0 0 0
Nghost:    16528 ave 16528 max 16528 min
Histogram: 1 0 0 0 0 0 0 0 0 0
Neighs:    1.14609e+06 ave 1.14609e+06 max 1.14609e+06 min
Histogram: 1 0 0 0 0 0 0 0 0 0

Total # of neighbors = 1146092
Ave neighs/atom = 58.3194
Neighbor list builds = 6172
Dangerous builds not checked
Setting up Verlet run ...
  Unit style    : metal
  Current step  : 106670
  Time step     : 0.001
Per MPI rank memory allocation (min/avg/max) = 18.21 | 18.21 | 18.21 Mbytes
Step Temp Press TotEng PotEng Enthalpy 
  106670    1956.3818   -419.67715   -54324.318   -59293.707   -54437.224 
  106672    1956.9366   -449.96497   -54324.326   -59295.123   -54445.379 
  107165    1919.3375    187.77526   -54563.335   -59438.628   -54513.112 
Loop time of 46.3982 on 1 procs for 495 steps with 19652 atoms

Performance: 0.922 ns/day, 26.037 hours/ns, 10.669 timesteps/s
100.0% CPU use with 1 MPI tasks x no OpenMP threads

MPI task timing breakdown:
Section |  min time  |  avg time  |  max time  |%varavg| %total
---------------------------------------------------------------
Pair    | 23.095     | 23.095     | 23.095     |   0.0 | 49.78
Neigh   | 22.307     | 22.307     | 22.307     |   0.0 | 48.08
Comm    | 0.34906    | 0.34906    | 0.34906    |   0.0 |  0.75
Output  | 0.040157   | 0.040157   | 0.040157   |   0.0 |  0.09
Modify  | 0.47601    | 0.47601    | 0.47601    |   0.0 |  1.03
Other   |            | 0.1312     |            |       |  0.28

Nlocal:    19652 ave 19652 max 19652 min
Histogram: 1 0 0 0 0 0 0 0 0 0
Nghost:    16490 ave 16490 max 16490 min
Histogram: 1 0 0 0 0 0 0 0 0 0
Neighs:    1.15284e+06 ave 1.15284e+06 max 1.15284e+06 min
Histogram: 1 0 0 0 0 0 0 0 0 0

Total # of neighbors = 1152844
Ave neighs/atom = 58.6629
Neighbor list builds = 495
Dangerous builds not checked
Setting up Verlet run ...
  Unit style    : metal
  Current step  : 107165
  Time step     : 0.001
Per MPI rank memory allocation (min/avg/max) = 18.21 | 18.21 | 18.21 Mbytes
Step Temp Press TotEng PotEng Enthalpy 
  107165    1919.3375    187.77526   -54563.335   -59438.628   -54513.112 
  113337    1888.4769   -448.15204   -54709.382   -59506.285   -54828.998 
Loop time of 593.524 on 1 procs for 6172 steps with 19652 atoms

Performance: 0.898 ns/day, 26.712 hours/ns, 10.399 timesteps/s
100.0% CPU use with 1 MPI tasks x no OpenMP threads

MPI task timing breakdown:
Section |  min time  |  avg time  |  max time  |%varavg| %total
---------------------------------------------------------------
Pair    | 296.33     | 296.33     | 296.33     |   0.0 | 49.93
Neigh   | 285.12     | 285.12     | 285.12     |   0.0 | 48.04
Comm    | 4.539      | 4.539      | 4.539      |   0.0 |  0.76
Output  | 0.00022101 | 0.00022101 | 0.00022101 |   0.0 |  0.00
Modify  | 5.9215     | 5.9215     | 5.9215     |   0.0 |  1.00
Other   |            | 1.608      |            |       |  0.27

Nlocal:    19652 ave 19652 max 19652 min
Histogram: 1 0 0 0 0 0 0 0 0 0
Nghost:    16457 ave 16457 max 16457 min
Histogram: 1 0 0 0 0 0 0 0 0 0
Neighs:    1.15568e+06 ave 1.15568e+06 max 1.15568e+06 min
Histogram: 1 0 0 0 0 0 0 0 0 0

Total # of neighbors = 1155682
Ave neighs/atom = 58.8073
Neighbor list builds = 6172
Dangerous builds not checked
Setting up Verlet run ...
  Unit style    : metal
  Current step  : 113337
  Time step     : 0.001
Per MPI rank memory allocation (min/avg/max) = 18.21 | 18.21 | 18.21 Mbytes
Step Temp Press TotEng PotEng Enthalpy 
  113337    1888.4769   -448.15204   -54709.382   -59506.285   -54828.998 
  113339    1887.9824   -466.40726   -54709.371   -59505.018    -54833.86 
  113832    1846.1074   -297.17138   -54858.372   -59547.653   -54937.449 
Loop time of 46.6501 on 1 procs for 495 steps with 19652 atoms

Performance: 0.917 ns/day, 26.178 hours/ns, 10.611 timesteps/s
100.0% CPU use with 1 MPI tasks x no OpenMP threads

MPI task timing breakdown:
Section |  min time  |  avg time  |  max time  |%varavg| %total
---------------------------------------------------------------
Pair    | 23.21      | 23.21      | 23.21      |   0.0 | 49.75
Neigh   | 22.448     | 22.448     | 22.448     |   0.0 | 48.12
Comm    | 0.35088    | 0.35088    | 0.35088    |   0.0 |  0.75
Output  | 0.041025   | 0.041025   | 0.041025   |   0.0 |  0.09
Modify  | 0.4731     | 0.4731     | 0.4731     |   0.0 |  1.01
Other   |            | 0.1271     |            |       |  0.27

Nlocal:    19652 ave 19652 max 19652 min
Histogram: 1 0 0 0 0 0 0 0 0 0
Nghost:    16591 ave 16591 max 16591 min
Histogram: 1 0 0 0 0 0 0 0 0 0
Neighs:    1.15849e+06 ave 1.15849e+06 max 1.15849e+06 min
Histogram: 1 0 0 0 0 0 0 0 0 0

Total # of neighbors = 1158487
Ave neighs/atom = 58.9501
Neighbor list builds = 495
Dangerous builds not checked
Setting up Verlet run ...
  Unit style    : metal
  Current step  : 113832
  Time step     : 0.001
Per MPI rank memory allocation (min/avg/max) = 18.21 | 18.21 | 18.21 Mbytes
Step Temp Press TotEng PotEng Enthalpy 
  113832    1846.1074   -297.17138   -54858.372   -59547.653   -54937.449 
  120004     1877.285   -595.27322   -54903.596   -59672.071   -55061.485 
Loop time of 591.168 on 1 procs for 6172 steps with 19652 atoms

Performance: 0.902 ns/day, 26.606 hours/ns, 10.440 timesteps/s
100.0% CPU use with 1 MPI tasks x no OpenMP threads

MPI task timing breakdown:
Section |  min time  |  avg time  |  max time  |%varavg| %total
---------------------------------------------------------------
Pair    | 294.87     | 294.87     | 294.87     |   0.0 | 49.88
Neigh   | 284.41     | 284.41     | 284.41     |   0.0 | 48.11
Comm    | 4.4666     | 4.4666     | 4.4666     |   0.0 |  0.76
Output  | 0.00018406 | 0.00018406 | 0.00018406 |   0.0 |  0.00
Modify  | 5.8772     | 5.8772     | 5.8772     |   0.0 |  0.99
Other   |            | 1.547      |            |       |  0.26

Nlocal:    19652 ave 19652 max 19652 min
Histogram: 1 0 0 0 0 0 0 0 0 0
Nghost:    16523 ave 16523 max 16523 min
Histogram: 1 0 0 0 0 0 0 0 0 0
Neighs:    1.16265e+06 ave 1.16265e+06 max 1.16265e+06 min
Histogram: 1 0 0 0 0 0 0 0 0 0

Total # of neighbors = 1162653
Ave neighs/atom = 59.1621
Neighbor list builds = 6172
Dangerous builds not checked
Setting up Verlet run ...
  Unit style    : metal
  Current step  : 120004
  Time step     : 0.001
Per MPI rank memory allocation (min/avg/max) = 18.21 | 18.21 | 18.21 Mbytes
Step Temp Press TotEng PotEng Enthalpy 
  120004     1877.285   -595.27322   -54903.596   -59672.071   -55061.485 
  120006    1875.8471   -542.37267    -54903.62   -59668.442   -55047.478 
  120499     1820.692   -12.946201   -55116.893   -59741.616   -55120.315 
Loop time of 46.5111 on 1 procs for 495 steps with 19652 atoms

Performance: 0.920 ns/day, 26.100 hours/ns, 10.643 timesteps/s
99.9% CPU use with 1 MPI tasks x no OpenMP threads

MPI task timing breakdown:
Section |  min time  |  avg time  |  max time  |%varavg| %total
---------------------------------------------------------------
Pair    | 23.161     | 23.161     | 23.161     |   0.0 | 49.80
Neigh   | 22.372     | 22.372     | 22.372     |   0.0 | 48.10
Comm    | 0.34601    | 0.34601    | 0.34601    |   0.0 |  0.74
Output  | 0.039717   | 0.039717   | 0.039717   |   0.0 |  0.09
Modify  | 0.46946    | 0.46946    | 0.46946    |   0.0 |  1.01
Other   |            | 0.1231     |            |       |  0.26

Nlocal:    19652 ave 19652 max 19652 min
Histogram: 1 0 0 0 0 0 0 0 0 0
Nghost:    16519 ave 16519 max 16519 min
Histogram: 1 0 0 0 0 0 0 0 0 0
Neighs:    1.16744e+06 ave 1.16744e+06 max 1.16744e+06 min
Histogram: 1 0 0 0 0 0 0 0 0 0

Total # of neighbors = 1167440
Ave neighs/atom = 59.4057
Neighbor list builds = 495
Dangerous builds not checked
Setting up Verlet run ...
  Unit style    : metal
  Current step  : 120499
  Time step     : 0.001
Per MPI rank memory allocation (min/avg/max) = 18.21 | 18.21 | 18.21 Mbytes
Step Temp Press TotEng PotEng Enthalpy 
  120499     1820.692   -12.946201   -55116.893   -59741.616   -55120.315 
  126671    1809.9908   -479.42908   -55237.328    -59834.87   -55363.645 
Loop time of 950.038 on 1 procs for 6172 steps with 19652 atoms

Performance: 0.561 ns/day, 42.758 hours/ns, 6.497 timesteps/s
99.9% CPU use with 1 MPI tasks x no OpenMP threads

MPI task timing breakdown:
Section |  min time  |  avg time  |  max time  |%varavg| %total
---------------------------------------------------------------
Pair    | 498.95     | 498.95     | 498.95     |   0.0 | 52.52
Neigh   | 429.71     | 429.71     | 429.71     |   0.0 | 45.23
Comm    | 7.8332     | 7.8332     | 7.8332     |   0.0 |  0.82
Output  | 0.0003581  | 0.0003581  | 0.0003581  |   0.0 |  0.00
Modify  | 10.648     | 10.648     | 10.648     |   0.0 |  1.12
Other   |            | 2.889      |            |       |  0.30

Nlocal:    19652 ave 19652 max 19652 min
Histogram: 1 0 0 0 0 0 0 0 0 0
Nghost:    16648 ave 16648 max 16648 min
Histogram: 1 0 0 0 0 0 0 0 0 0
Neighs:    1.17114e+06 ave 1.17114e+06 max 1.17114e+06 min
Histogram: 1 0 0 0 0 0 0 0 0 0

Total # of neighbors = 1171143
Ave neighs/atom = 59.5941
Neighbor list builds = 6172
Dangerous builds not checked
Setting up Verlet run ...
  Unit style    : metal
  Current step  : 126671
  Time step     : 0.001
Per MPI rank memory allocation (min/avg/max) = 18.21 | 18.21 | 18.21 Mbytes
Step Temp Press TotEng PotEng Enthalpy 
  126671    1809.9908   -479.42908   -55237.328    -59834.87   -55363.645 
  126673    1809.1617   -442.25024   -55237.335   -59832.771   -55353.857 
  127166    1764.0436    155.13258   -55406.706   -59887.537       -55366 
Loop time of 74.8787 on 1 procs for 495 steps with 19652 atoms

Performance: 0.571 ns/day, 42.019 hours/ns, 6.611 timesteps/s
99.5% CPU use with 1 MPI tasks x no OpenMP threads

MPI task timing breakdown:
Section |  min time  |  avg time  |  max time  |%varavg| %total
---------------------------------------------------------------
Pair    | 39.304     | 39.304     | 39.304     |   0.0 | 52.49
Neigh   | 33.666     | 33.666     | 33.666     |   0.0 | 44.96
Comm    | 0.66596    | 0.66596    | 0.66596    |   0.0 |  0.89
Output  | 0.068971   | 0.068971   | 0.068971   |   0.0 |  0.09
Modify  | 0.92142    | 0.92142    | 0.92142    |   0.0 |  1.23
Other   |            | 0.2528     |            |       |  0.34

Nlocal:    19652 ave 19652 max 19652 min
Histogram: 1 0 0 0 0 0 0 0 0 0
Nghost:    16653 ave 16653 max 16653 min
Histogram: 1 0 0 0 0 0 0 0 0 0
Neighs:    1.17558e+06 ave 1.17558e+06 max 1.17558e+06 min
Histogram: 1 0 0 0 0 0 0 0 0 0

Total # of neighbors = 1175575
Ave neighs/atom = 59.8196
Neighbor list builds = 495
Dangerous builds not checked
Setting up Verlet run ...
  Unit style    : metal
  Current step  : 127166
  Time step     : 0.001
Per MPI rank memory allocation (min/avg/max) = 18.21 | 18.21 | 18.21 Mbytes
Step Temp Press TotEng PotEng Enthalpy 
  127166    1764.0436    155.13258   -55406.706   -59887.537       -55366 
  133338    1749.6761   -165.60704   -55498.623    -59942.96   -55542.042 
Loop time of 995.527 on 1 procs for 6172 steps with 19652 atoms

Performance: 0.536 ns/day, 44.805 hours/ns, 6.200 timesteps/s
99.7% CPU use with 1 MPI tasks x no OpenMP threads

MPI task timing breakdown:
Section |  min time  |  avg time  |  max time  |%varavg| %total
---------------------------------------------------------------
Pair    | 527.78     | 527.78     | 527.78     |   0.0 | 53.02
Neigh   | 445.01     | 445.01     | 445.01     |   0.0 | 44.70
Comm    | 8.3723     | 8.3723     | 8.3723     |   0.0 |  0.84
Output  | 0.00059605 | 0.00059605 | 0.00059605 |   0.0 |  0.00
Modify  | 11.274     | 11.274     | 11.274     |   0.0 |  1.13
Other   |            | 3.089      |            |       |  0.31

Nlocal:    19652 ave 19652 max 19652 min
Histogram: 1 0 0 0 0 0 0 0 0 0
Nghost:    16665 ave 16665 max 16665 min
Histogram: 1 0 0 0 0 0 0 0 0 0
Neighs:    1.17671e+06 ave 1.17671e+06 max 1.17671e+06 min
Histogram: 1 0 0 0 0 0 0 0 0 0

Total # of neighbors = 1176706
Ave neighs/atom = 59.8772
Neighbor list builds = 6172
Dangerous builds not checked
Setting up Verlet run ...
  Unit style    : metal
  Current step  : 133338
  Time step     : 0.001
Per MPI rank memory allocation (min/avg/max) = 18.21 | 18.21 | 18.21 Mbytes
Step Temp Press TotEng PotEng Enthalpy 
  133338    1749.6761   -165.60704   -55498.623    -59942.96   -55542.042 
  133340    1748.3354   -147.20532   -55498.617   -59939.548   -55537.211 
  133833    1712.2079    17.202486   -55727.719   -60076.883   -55723.237 
Loop time of 76.5206 on 1 procs for 495 steps with 19652 atoms

Performance: 0.559 ns/day, 42.941 hours/ns, 6.469 timesteps/s
99.8% CPU use with 1 MPI tasks x no OpenMP threads

MPI task timing breakdown:
Section |  min time  |  avg time  |  max time  |%varavg| %total
---------------------------------------------------------------
Pair    | 40.219     | 40.219     | 40.219     |   0.0 | 52.56
Neigh   | 34.396     | 34.396     | 34.396     |   0.0 | 44.95
Comm    | 0.67705    | 0.67705    | 0.67705    |   0.0 |  0.88
Output  | 0.070361   | 0.070361   | 0.070361   |   0.0 |  0.09
Modify  | 0.90513    | 0.90513    | 0.90513    |   0.0 |  1.18
Other   |            | 0.2526     |            |       |  0.33

Nlocal:    19652 ave 19652 max 19652 min
Histogram: 1 0 0 0 0 0 0 0 0 0
Nghost:    16755 ave 16755 max 16755 min
Histogram: 1 0 0 0 0 0 0 0 0 0
Neighs:    1.18413e+06 ave 1.18413e+06 max 1.18413e+06 min
Histogram: 1 0 0 0 0 0 0 0 0 0

Total # of neighbors = 1184130
Ave neighs/atom = 60.2549
Neighbor list builds = 495
Dangerous builds not checked
Setting up Verlet run ...
  Unit style    : metal
  Current step  : 133833
  Time step     : 0.001
Per MPI rank memory allocation (min/avg/max) = 18.21 | 18.21 | 18.21 Mbytes
Step Temp Press TotEng PotEng Enthalpy 
  133833    1712.2079    17.202486   -55727.719   -60076.883   -55723.237 
  140005    1693.3156    983.85888   -55842.914    -60144.09   -55587.616 
Loop time of 993.088 on 1 procs for 6172 steps with 19652 atoms

Performance: 0.537 ns/day, 44.695 hours/ns, 6.215 timesteps/s
99.6% CPU use with 1 MPI tasks x no OpenMP threads

MPI task timing breakdown:
Section |  min time  |  avg time  |  max time  |%varavg| %total
---------------------------------------------------------------
Pair    | 527.08     | 527.08     | 527.08     |   0.0 | 53.07
Neigh   | 443.24     | 443.24     | 443.24     |   0.0 | 44.63
Comm    | 8.4255     | 8.4255     | 8.4255     |   0.0 |  0.85
Output  | 0.00031209 | 0.00031209 | 0.00031209 |   0.0 |  0.00
Modify  | 11.247     | 11.247     | 11.247     |   0.0 |  1.13
Other   |            | 3.1        |            |       |  0.31

Nlocal:    19652 ave 19652 max 19652 min
Histogram: 1 0 0 0 0 0 0 0 0 0
Nghost:    16727 ave 16727 max 16727 min
Histogram: 1 0 0 0 0 0 0 0 0 0
Neighs:    1.18895e+06 ave 1.18895e+06 max 1.18895e+06 min
Histogram: 1 0 0 0 0 0 0 0 0 0

Total # of neighbors = 1188952
Ave neighs/atom = 60.5003
Neighbor list builds = 6172
Dangerous builds not checked
Setting up Verlet run ...
  Unit style    : metal
  Current step  : 140005
  Time step     : 0.001
Per MPI rank memory allocation (min/avg/max) = 18.21 | 18.21 | 18.21 Mbytes
Step Temp Press TotEng PotEng Enthalpy 
  140005    1693.3156    983.85888   -55842.914    -60144.09   -55587.616 
  140007    1693.7114    965.69184   -55842.909    -60145.09   -55592.325 
  140500    1671.8252    365.09235   -56007.321   -60253.909   -55912.845 
Loop time of 77.1693 on 1 procs for 495 steps with 19652 atoms

Performance: 0.554 ns/day, 43.305 hours/ns, 6.414 timesteps/s
99.9% CPU use with 1 MPI tasks x no OpenMP threads

MPI task timing breakdown:
Section |  min time  |  avg time  |  max time  |%varavg| %total
---------------------------------------------------------------
Pair    | 40.733     | 40.733     | 40.733     |   0.0 | 52.78
Neigh   | 34.549     | 34.549     | 34.549     |   0.0 | 44.77
Comm    | 0.66887    | 0.66887    | 0.66887    |   0.0 |  0.87
Output  | 0.065629   | 0.065629   | 0.065629   |   0.0 |  0.09
Modify  | 0.90139    | 0.90139    | 0.90139    |   0.0 |  1.17
Other   |            | 0.2515     |            |       |  0.33

Nlocal:    19652 ave 19652 max 19652 min
Histogram: 1 0 0 0 0 0 0 0 0 0
Nghost:    16743 ave 16743 max 16743 min
Histogram: 1 0 0 0 0 0 0 0 0 0
Neighs:    1.19264e+06 ave 1.19264e+06 max 1.19264e+06 min
Histogram: 1 0 0 0 0 0 0 0 0 0

Total # of neighbors = 1192638
Ave neighs/atom = 60.6879
Neighbor list builds = 495
Dangerous builds not checked
Setting up Verlet run ...
  Unit style    : metal
  Current step  : 140500
  Time step     : 0.001
Per MPI rank memory allocation (min/avg/max) = 18.21 | 18.21 | 18.21 Mbytes
Step Temp Press TotEng PotEng Enthalpy 
  140500    1671.8252    365.09235   -56007.321   -60253.909   -55912.845 
  146672    1644.4318     277.0108   -56079.532   -60256.539   -56007.878 
Loop time of 982.416 on 1 procs for 6172 steps with 19652 atoms

Performance: 0.543 ns/day, 44.215 hours/ns, 6.282 timesteps/s
99.5% CPU use with 1 MPI tasks x no OpenMP threads

MPI task timing breakdown:
Section |  min time  |  avg time  |  max time  |%varavg| %total
---------------------------------------------------------------
Pair    | 520.73     | 520.73     | 520.73     |   0.0 | 53.00
Neigh   | 438.97     | 438.97     | 438.97     |   0.0 | 44.68
Comm    | 8.3994     | 8.3994     | 8.3994     |   0.0 |  0.85
Output  | 0.00033092 | 0.00033092 | 0.00033092 |   0.0 |  0.00
Modify  | 11.209     | 11.209     | 11.209     |   0.0 |  1.14
Other   |            | 3.11       |            |       |  0.32

Nlocal:    19652 ave 19652 max 19652 min
Histogram: 1 0 0 0 0 0 0 0 0 0
Nghost:    16789 ave 16789 max 16789 min
Histogram: 1 0 0 0 0 0 0 0 0 0
Neighs:    1.19323e+06 ave 1.19323e+06 max 1.19323e+06 min
Histogram: 1 0 0 0 0 0 0 0 0 0

Total # of neighbors = 1193226
Ave neighs/atom = 60.7178
Neighbor list builds = 6172
Dangerous builds not checked
Setting up Verlet run ...
  Unit style    : metal
  Current step  : 146672
  Time step     : 0.001
Per MPI rank memory allocation (min/avg/max) = 18.21 | 18.21 | 18.21 Mbytes
Step Temp Press TotEng PotEng Enthalpy 
  146672    1644.4318     277.0108   -56079.532   -60256.539   -56007.878 
  146674    1644.9029    266.61426   -56079.526   -60257.729   -56010.562 
  147167    1611.9096    257.66241   -56291.485   -60385.882    -56225.18 
Loop time of 74.1678 on 1 procs for 495 steps with 19652 atoms

Performance: 0.577 ns/day, 41.621 hours/ns, 6.674 timesteps/s
99.9% CPU use with 1 MPI tasks x no OpenMP threads

MPI task timing breakdown:
Section |  min time  |  avg time  |  max time  |%varavg| %total
---------------------------------------------------------------
Pair    | 39.067     | 39.067     | 39.067     |   0.0 | 52.67
Neigh   | 33.251     | 33.251     | 33.251     |   0.0 | 44.83
Comm    | 0.65071    | 0.65071    | 0.65071    |   0.0 |  0.88
Output  | 0.06599    | 0.06599    | 0.06599    |   0.0 |  0.09
Modify  | 0.88431    | 0.88431    | 0.88431    |   0.0 |  1.19
Other   |            | 0.248      |            |       |  0.33

Nlocal:    19652 ave 19652 max 19652 min
Histogram: 1 0 0 0 0 0 0 0 0 0
Nghost:    16764 ave 16764 max 16764 min
Histogram: 1 0 0 0 0 0 0 0 0 0
Neighs:    1.19976e+06 ave 1.19976e+06 max 1.19976e+06 min
Histogram: 1 0 0 0 0 0 0 0 0 0

Total # of neighbors = 1199760
Ave neighs/atom = 61.0503
Neighbor list builds = 495
Dangerous builds not checked
Setting up Verlet run ...
  Unit style    : metal
  Current step  : 147167
  Time step     : 0.001
Per MPI rank memory allocation (min/avg/max) = 18.21 | 18.21 | 18.21 Mbytes
Step Temp Press TotEng PotEng Enthalpy 
  147167    1611.9096    257.66241   -56291.485   -60385.882    -56225.18 
  153339    1595.0942    412.59236   -56386.471   -60438.155   -56280.546 
Loop time of 978.563 on 1 procs for 6172 steps with 19652 atoms

Performance: 0.545 ns/day, 44.041 hours/ns, 6.307 timesteps/s
99.6% CPU use with 1 MPI tasks x no OpenMP threads

MPI task timing breakdown:
Section |  min time  |  avg time  |  max time  |%varavg| %total
---------------------------------------------------------------
Pair    | 519.34     | 519.34     | 519.34     |   0.0 | 53.07
Neigh   | 436.49     | 436.49     | 436.49     |   0.0 | 44.61
Comm    | 8.4482     | 8.4482     | 8.4482     |   0.0 |  0.86
Output  | 0.00023293 | 0.00023293 | 0.00023293 |   0.0 |  0.00
Modify  | 11.174     | 11.174     | 11.174     |   0.0 |  1.14
Other   |            | 3.11       |            |       |  0.32

Nlocal:    19652 ave 19652 max 19652 min
Histogram: 1 0 0 0 0 0 0 0 0 0
Nghost:    16815 ave 16815 max 16815 min
Histogram: 1 0 0 0 0 0 0 0 0 0
Neighs:    1.2026e+06 ave 1.2026e+06 max 1.2026e+06 min
Histogram: 1 0 0 0 0 0 0 0 0 0

Total # of neighbors = 1202600
Ave neighs/atom = 61.1948
Neighbor list builds = 6172
Dangerous builds not checked
Setting up Verlet run ...
  Unit style    : metal
  Current step  : 153339
  Time step     : 0.001
Per MPI rank memory allocation (min/avg/max) = 18.21 | 18.21 | 18.21 Mbytes
Step Temp Press TotEng PotEng Enthalpy 
  153339    1595.0942    412.59236   -56386.471   -60438.155   -56280.546 
  153341    1596.6313    413.93763   -56386.475   -60442.064   -56280.205 
  153834    1567.6405   -249.27809   -56564.774   -60546.724   -56628.547 
Loop time of 76.4834 on 1 procs for 495 steps with 19652 atoms

Performance: 0.559 ns/day, 42.920 hours/ns, 6.472 timesteps/s
99.3% CPU use with 1 MPI tasks x no OpenMP threads

MPI task timing breakdown:
Section |  min time  |  avg time  |  max time  |%varavg| %total
---------------------------------------------------------------
Pair    | 40.391     | 40.391     | 40.391     |   0.0 | 52.81
Neigh   | 34.228     | 34.228     | 34.228     |   0.0 | 44.75
Comm    | 0.65552    | 0.65552    | 0.65552    |   0.0 |  0.86
Output  | 0.065629   | 0.065629   | 0.065629   |   0.0 |  0.09
Modify  | 0.89558    | 0.89558    | 0.89558    |   0.0 |  1.17
Other   |            | 0.2481     |            |       |  0.32

Nlocal:    19652 ave 19652 max 19652 min
Histogram: 1 0 0 0 0 0 0 0 0 0
Nghost:    16797 ave 16797 max 16797 min
Histogram: 1 0 0 0 0 0 0 0 0 0
Neighs:    1.20679e+06 ave 1.20679e+06 max 1.20679e+06 min
Histogram: 1 0 0 0 0 0 0 0 0 0

Total # of neighbors = 1206790
Ave neighs/atom = 61.408
Neighbor list builds = 495
Dangerous builds not checked
Setting up Verlet run ...
  Unit style    : metal
  Current step  : 153834
  Time step     : 0.001
Per MPI rank memory allocation (min/avg/max) = 18.21 | 18.21 | 18.21 Mbytes
Step Temp Press TotEng PotEng Enthalpy 
  153834    1567.6405   -249.27809   -56564.774   -60546.724   -56628.547 
  160006    1561.9487   -578.87942   -56651.836   -60619.328   -56799.813 
Loop time of 988.171 on 1 procs for 6172 steps with 19652 atoms

Performance: 0.540 ns/day, 44.474 hours/ns, 6.246 timesteps/s
99.6% CPU use with 1 MPI tasks x no OpenMP threads

MPI task timing breakdown:
Section |  min time  |  avg time  |  max time  |%varavg| %total
---------------------------------------------------------------
Pair    | 526.3      | 526.3      | 526.3      |   0.0 | 53.26
Neigh   | 439.08     | 439.08     | 439.08     |   0.0 | 44.43
Comm    | 8.4394     | 8.4394     | 8.4394     |   0.0 |  0.85
Output  | 0.00024796 | 0.00024796 | 0.00024796 |   0.0 |  0.00
Modify  | 11.241     | 11.241     | 11.241     |   0.0 |  1.14
Other   |            | 3.117      |            |       |  0.32

Nlocal:    19652 ave 19652 max 19652 min
Histogram: 1 0 0 0 0 0 0 0 0 0
Nghost:    16805 ave 16805 max 16805 min
Histogram: 1 0 0 0 0 0 0 0 0 0
Neighs:    1.20815e+06 ave 1.20815e+06 max 1.20815e+06 min
Histogram: 1 0 0 0 0 0 0 0 0 0

Total # of neighbors = 1208146
Ave neighs/atom = 61.477
Neighbor list builds = 6172
Dangerous builds not checked
Setting up Verlet run ...
  Unit style    : metal
  Current step  : 160006
  Time step     : 0.001
Per MPI rank memory allocation (min/avg/max) = 18.21 | 18.21 | 18.21 Mbytes
Step Temp Press TotEng PotEng Enthalpy 
  160006    1561.9487   -578.87942   -56651.836   -60619.328   -56799.813 
  160008    1563.7293   -629.28002   -56651.855    -60623.87   -56812.716 
  160501    1520.9272    36.447602   -56878.704   -60741.997   -56869.442 
Loop time of 76.86 on 1 procs for 495 steps with 19652 atoms

Performance: 0.556 ns/day, 43.131 hours/ns, 6.440 timesteps/s
99.8% CPU use with 1 MPI tasks x no OpenMP threads

MPI task timing breakdown:
Section |  min time  |  avg time  |  max time  |%varavg| %total
---------------------------------------------------------------
Pair    | 40.828     | 40.828     | 40.828     |   0.0 | 53.12
Neigh   | 34.167     | 34.167     | 34.167     |   0.0 | 44.45
Comm    | 0.65925    | 0.65925    | 0.65925    |   0.0 |  0.86
Output  | 0.066421   | 0.066421   | 0.066421   |   0.0 |  0.09
Modify  | 0.8906     | 0.8906     | 0.8906     |   0.0 |  1.16
Other   |            | 0.2485     |            |       |  0.32

Nlocal:    19652 ave 19652 max 19652 min
Histogram: 1 0 0 0 0 0 0 0 0 0
Nghost:    16887 ave 16887 max 16887 min
Histogram: 1 0 0 0 0 0 0 0 0 0
Neighs:    1.2148e+06 ave 1.2148e+06 max 1.2148e+06 min
Histogram: 1 0 0 0 0 0 0 0 0 0

Total # of neighbors = 1214804
Ave neighs/atom = 61.8158
Neighbor list builds = 495
Dangerous builds not checked
Setting up Verlet run ...
  Unit style    : metal
  Current step  : 160501
  Time step     : 0.001
Per MPI rank memory allocation (min/avg/max) = 18.21 | 18.21 | 18.21 Mbytes
Step Temp Press TotEng PotEng Enthalpy 
  160501    1520.9272    36.447602   -56878.704   -60741.997   -56869.442 
  166673    1504.9862    409.26352   -56953.947   -60776.749   -56850.232 
Loop time of 987.342 on 1 procs for 6172 steps with 19652 atoms

Performance: 0.540 ns/day, 44.436 hours/ns, 6.251 timesteps/s
99.7% CPU use with 1 MPI tasks x no OpenMP threads

MPI task timing breakdown:
Section |  min time  |  avg time  |  max time  |%varavg| %total
---------------------------------------------------------------
Pair    | 526.59     | 526.59     | 526.59     |   0.0 | 53.33
Neigh   | 438.13     | 438.13     | 438.13     |   0.0 | 44.37
Comm    | 8.3496     | 8.3496     | 8.3496     |   0.0 |  0.85
Output  | 0.00019002 | 0.00019002 | 0.00019002 |   0.0 |  0.00
Modify  | 11.181     | 11.181     | 11.181     |   0.0 |  1.13
Other   |            | 3.091      |            |       |  0.31

Nlocal:    19652 ave 19652 max 19652 min
Histogram: 1 0 0 0 0 0 0 0 0 0
Nghost:    16916 ave 16916 max 16916 min
Histogram: 1 0 0 0 0 0 0 0 0 0
Neighs:    1.21908e+06 ave 1.21908e+06 max 1.21908e+06 min
Histogram: 1 0 0 0 0 0 0 0 0 0

Total # of neighbors = 1219077
Ave neighs/atom = 62.0332
Neighbor list builds = 6172
Dangerous builds not checked
Setting up Verlet run ...
  Unit style    : metal
  Current step  : 166673
  Time step     : 0.001
Per MPI rank memory allocation (min/avg/max) = 18.21 | 18.21 | 18.21 Mbytes
Step Temp Press TotEng PotEng Enthalpy 
  166673    1504.9862    409.26352   -56953.947   -60776.749   -56850.232 
  166675    1506.1633    389.35957   -56953.959   -60779.751   -56855.289 
  167168    1457.3206    860.04122   -57157.619   -60859.347   -56940.652 
Loop time of 74.9164 on 1 procs for 495 steps with 19652 atoms

Performance: 0.571 ns/day, 42.041 hours/ns, 6.607 timesteps/s
100.0% CPU use with 1 MPI tasks x no OpenMP threads

MPI task timing breakdown:
Section |  min time  |  avg time  |  max time  |%varavg| %total
---------------------------------------------------------------
Pair    | 39.74      | 39.74      | 39.74      |   0.0 | 53.05
Neigh   | 33.306     | 33.306     | 33.306     |   0.0 | 44.46
Comm    | 0.66325    | 0.66325    | 0.66325    |   0.0 |  0.89
Output  | 0.067277   | 0.067277   | 0.067277   |   0.0 |  0.09
Modify  | 0.89047    | 0.89047    | 0.89047    |   0.0 |  1.19
Other   |            | 0.2502     |            |       |  0.33

Nlocal:    19652 ave 19652 max 19652 min
Histogram: 1 0 0 0 0 0 0 0 0 0
Nghost:    17009 ave 17009 max 17009 min
Histogram: 1 0 0 0 0 0 0 0 0 0
Neighs:    1.22441e+06 ave 1.22441e+06 max 1.22441e+06 min
Histogram: 1 0 0 0 0 0 0 0 0 0

Total # of neighbors = 1224412
Ave neighs/atom = 62.3047
Neighbor list builds = 495
Dangerous builds not checked
Setting up Verlet run ...
  Unit style    : metal
  Current step  : 167168
  Time step     : 0.001
Per MPI rank memory allocation (min/avg/max) = 18.21 | 18.21 | 18.21 Mbytes
Step Temp Press TotEng PotEng Enthalpy 
  167168    1457.3206    860.04122   -57157.619   -60859.347   -56940.652 
  173340    1456.3485   -482.91654   -57244.509   -60943.767   -57366.337 
Loop time of 985.53 on 1 procs for 6172 steps with 19652 atoms

Performance: 0.541 ns/day, 44.355 hours/ns, 6.263 timesteps/s
99.6% CPU use with 1 MPI tasks x no OpenMP threads

MPI task timing breakdown:
Section |  min time  |  avg time  |  max time  |%varavg| %total
---------------------------------------------------------------
Pair    | 525.76     | 525.76     | 525.76     |   0.0 | 53.35
Neigh   | 437.03     | 437.03     | 437.03     |   0.0 | 44.34
Comm    | 8.4248     | 8.4248     | 8.4248     |   0.0 |  0.85
Output  | 0.00045586 | 0.00045586 | 0.00045586 |   0.0 |  0.00
Modify  | 11.193     | 11.193     | 11.193     |   0.0 |  1.14
Other   |            | 3.123      |            |       |  0.32

Nlocal:    19652 ave 19652 max 19652 min
Histogram: 1 0 0 0 0 0 0 0 0 0
Nghost:    16853 ave 16853 max 16853 min
Histogram: 1 0 0 0 0 0 0 0 0 0
Neighs:    1.22452e+06 ave 1.22452e+06 max 1.22452e+06 min
Histogram: 1 0 0 0 0 0 0 0 0 0

Total # of neighbors = 1224524
Ave neighs/atom = 62.3104
Neighbor list builds = 6172
Dangerous builds not checked
Setting up Verlet run ...
  Unit style    : metal
  Current step  : 173340
  Time step     : 0.001
Per MPI rank memory allocation (min/avg/max) = 18.21 | 18.21 | 18.21 Mbytes
Step Temp Press TotEng PotEng Enthalpy 
  173340    1456.3485   -482.91654   -57244.509   -60943.767   -57366.337 
  173342    1456.1409   -489.14556   -57244.517   -60943.247   -57367.916 
  173835    1414.8734    525.29952   -57462.093   -61056.001   -57330.418 
Loop time of 77.0074 on 1 procs for 495 steps with 19652 atoms

Performance: 0.555 ns/day, 43.214 hours/ns, 6.428 timesteps/s
99.8% CPU use with 1 MPI tasks x no OpenMP threads

MPI task timing breakdown:
Section |  min time  |  avg time  |  max time  |%varavg| %total
---------------------------------------------------------------
Pair    | 40.892     | 40.892     | 40.892     |   0.0 | 53.10
Neigh   | 34.242     | 34.242     | 34.242     |   0.0 | 44.47
Comm    | 0.6653     | 0.6653     | 0.6653     |   0.0 |  0.86
Output  | 0.067023   | 0.067023   | 0.067023   |   0.0 |  0.09
Modify  | 0.89416    | 0.89416    | 0.89416    |   0.0 |  1.16
Other   |            | 0.247      |            |       |  0.32

Nlocal:    19652 ave 19652 max 19652 min
Histogram: 1 0 0 0 0 0 0 0 0 0
Nghost:    16980 ave 16980 max 16980 min
Histogram: 1 0 0 0 0 0 0 0 0 0
Neighs:    1.23189e+06 ave 1.23189e+06 max 1.23189e+06 min
Histogram: 1 0 0 0 0 0 0 0 0 0

Total # of neighbors = 1231887
Ave neighs/atom = 62.6851
Neighbor list builds = 495
Dangerous builds not checked
Setting up Verlet run ...
  Unit style    : metal
  Current step  : 173835
  Time step     : 0.001
Per MPI rank memory allocation (min/avg/max) = 18.21 | 18.21 | 18.21 Mbytes
Step Temp Press TotEng PotEng Enthalpy 
  173835    1414.8734    525.29952   -57462.093   -61056.001   -57330.418 
  180007    1395.8724     400.6714   -57616.269   -61161.912   -57516.225 
Loop time of 989.14 on 1 procs for 6172 steps with 19652 atoms

Performance: 0.539 ns/day, 44.517 hours/ns, 6.240 timesteps/s
99.8% CPU use with 1 MPI tasks x no OpenMP threads

MPI task timing breakdown:
Section |  min time  |  avg time  |  max time  |%varavg| %total
---------------------------------------------------------------
Pair    | 529.59     | 529.59     | 529.59     |   0.0 | 53.54
Neigh   | 436.71     | 436.71     | 436.71     |   0.0 | 44.15
Comm    | 8.4988     | 8.4988     | 8.4988     |   0.0 |  0.86
Output  | 0.00025392 | 0.00025392 | 0.00025392 |   0.0 |  0.00
Modify  | 11.202     | 11.202     | 11.202     |   0.0 |  1.13
Other   |            | 3.139      |            |       |  0.32

Nlocal:    19652 ave 19652 max 19652 min
Histogram: 1 0 0 0 0 0 0 0 0 0
Nghost:    16922 ave 16922 max 16922 min
Histogram: 1 0 0 0 0 0 0 0 0 0
Neighs:    1.23685e+06 ave 1.23685e+06 max 1.23685e+06 min
Histogram: 1 0 0 0 0 0 0 0 0 0

Total # of neighbors = 1236847
Ave neighs/atom = 62.9375
Neighbor list builds = 6172
Dangerous builds not checked
Setting up Verlet run ...
  Unit style    : metal
  Current step  : 180007
  Time step     : 0.001
Per MPI rank memory allocation (min/avg/max) = 18.21 | 18.21 | 18.21 Mbytes
Step Temp Press TotEng PotEng Enthalpy 
  180007    1395.8724     400.6714   -57616.269   -61161.912   -57516.225 
  180009    1396.7922    370.90331   -57616.266   -61164.245   -57523.654 
  180502    1375.7807    861.68522   -57791.225   -61285.833   -57577.166 
Loop time of 77.1273 on 1 procs for 495 steps with 19652 atoms

Performance: 0.555 ns/day, 43.281 hours/ns, 6.418 timesteps/s
99.5% CPU use with 1 MPI tasks x no OpenMP threads

MPI task timing breakdown:
Section |  min time  |  avg time  |  max time  |%varavg| %total
---------------------------------------------------------------
Pair    | 41.137     | 41.137     | 41.137     |   0.0 | 53.34
Neigh   | 34.105     | 34.105     | 34.105     |   0.0 | 44.22
Comm    | 0.66779    | 0.66779    | 0.66779    |   0.0 |  0.87
Output  | 0.070418   | 0.070418   | 0.070418   |   0.0 |  0.09
Modify  | 0.90178    | 0.90178    | 0.90178    |   0.0 |  1.17
Other   |            | 0.2451     |            |       |  0.32

Nlocal:    19652 ave 19652 max 19652 min
Histogram: 1 0 0 0 0 0 0 0 0 0
Nghost:    17155 ave 17155 max 17155 min
Histogram: 1 0 0 0 0 0 0 0 0 0
Neighs:    1.24393e+06 ave 1.24393e+06 max 1.24393e+06 min
Histogram: 1 0 0 0 0 0 0 0 0 0

Total # of neighbors = 1243927
Ave neighs/atom = 63.2977
Neighbor list builds = 495
Dangerous builds not checked
Setting up Verlet run ...
  Unit style    : metal
  Current step  : 180502
  Time step     : 0.001
Per MPI rank memory allocation (min/avg/max) = 18.21 | 18.21 | 18.21 Mbytes
Step Temp Press TotEng PotEng Enthalpy 
  180502    1375.7807    861.68522   -57791.225   -61285.833   -57577.166 
  186674    1336.6838    -104.6774   -57916.687   -61311.985   -57942.697 
Loop time of 1000.41 on 1 procs for 6172 steps with 19652 atoms

Performance: 0.533 ns/day, 45.024 hours/ns, 6.169 timesteps/s
99.6% CPU use with 1 MPI tasks x no OpenMP threads

MPI task timing breakdown:
Section |  min time  |  avg time  |  max time  |%varavg| %total
---------------------------------------------------------------
Pair    | 537.25     | 537.25     | 537.25     |   0.0 | 53.70
Neigh   | 440.37     | 440.37     | 440.37     |   0.0 | 44.02
Comm    | 8.4068     | 8.4068     | 8.4068     |   0.0 |  0.84
Output  | 0.00020385 | 0.00020385 | 0.00020385 |   0.0 |  0.00
Modify  | 11.272     | 11.272     | 11.272     |   0.0 |  1.13
Other   |            | 3.101      |            |       |  0.31

Nlocal:    19652 ave 19652 max 19652 min
Histogram: 1 0 0 0 0 0 0 0 0 0
Nghost:    17012 ave 17012 max 17012 min
Histogram: 1 0 0 0 0 0 0 0 0 0
Neighs:    1.24332e+06 ave 1.24332e+06 max 1.24332e+06 min
Histogram: 1 0 0 0 0 0 0 0 0 0

Total # of neighbors = 1243320
Ave neighs/atom = 63.2668
Neighbor list builds = 6172
Dangerous builds not checked
Setting up Verlet run ...
  Unit style    : metal
  Current step  : 186674
  Time step     : 0.001
Per MPI rank memory allocation (min/avg/max) = 18.21 | 18.21 | 18.21 Mbytes
Step Temp Press TotEng PotEng Enthalpy 
  186674    1336.6838    -104.6774   -57916.687   -61311.985   -57942.697 
  186676    1337.6072   -125.46662    -57916.68   -61314.324   -57947.856 
  187169    1309.6361    408.77667   -58065.254   -61391.849   -57964.059 
Loop time of 75.4804 on 1 procs for 495 steps with 19652 atoms

Performance: 0.567 ns/day, 42.357 hours/ns, 6.558 timesteps/s
99.9% CPU use with 1 MPI tasks x no OpenMP threads

MPI task timing breakdown:
Section |  min time  |  avg time  |  max time  |%varavg| %total
---------------------------------------------------------------
Pair    | 40.363     | 40.363     | 40.363     |   0.0 | 53.47
Neigh   | 33.235     | 33.235     | 33.235     |   0.0 | 44.03
Comm    | 0.65384    | 0.65384    | 0.65384    |   0.0 |  0.87
Output  | 0.068938   | 0.068938   | 0.068938   |   0.0 |  0.09
Modify  | 0.91087    | 0.91087    | 0.91087    |   0.0 |  1.21
Other   |            | 0.2497     |            |       |  0.33

Nlocal:    19652 ave 19652 max 19652 min
Histogram: 1 0 0 0 0 0 0 0 0 0
Nghost:    17133 ave 17133 max 17133 min
Histogram: 1 0 0 0 0 0 0 0 0 0
Neighs:    1.24861e+06 ave 1.24861e+06 max 1.24861e+06 min
Histogram: 1 0 0 0 0 0 0 0 0 0

Total # of neighbors = 1248612
Ave neighs/atom = 63.5361
Neighbor list builds = 495
Dangerous builds not checked
Setting up Verlet run ...
  Unit style    : metal
  Current step  : 187169
  Time step     : 0.001
Per MPI rank memory allocation (min/avg/max) = 18.21 | 18.21 | 18.21 Mbytes
Step Temp Press TotEng PotEng Enthalpy 
  187169    1309.6361    408.77667   -58065.254   -61391.849   -57964.059 
  193341    1286.8653     404.6819   -58201.918   -61470.674   -58102.059 
Loop time of 992.553 on 1 procs for 6172 steps with 19652 atoms

Performance: 0.537 ns/day, 44.671 hours/ns, 6.218 timesteps/s
99.6% CPU use with 1 MPI tasks x no OpenMP threads

MPI task timing breakdown:
Section |  min time  |  avg time  |  max time  |%varavg| %total
---------------------------------------------------------------
Pair    | 533.38     | 533.38     | 533.38     |   0.0 | 53.74
Neigh   | 436.53     | 436.53     | 436.53     |   0.0 | 43.98
Comm    | 8.3975     | 8.3975     | 8.3975     |   0.0 |  0.85
Output  | 0.00022316 | 0.00022316 | 0.00022316 |   0.0 |  0.00
Modify  | 11.172     | 11.172     | 11.172     |   0.0 |  1.13
Other   |            | 3.079      |            |       |  0.31

Nlocal:    19652 ave 19652 max 19652 min
Histogram: 1 0 0 0 0 0 0 0 0 0
Nghost:    17087 ave 17087 max 17087 min
Histogram: 1 0 0 0 0 0 0 0 0 0
Neighs:    1.25278e+06 ave 1.25278e+06 max 1.25278e+06 min
Histogram: 1 0 0 0 0 0 0 0 0 0

Total # of neighbors = 1252779
Ave neighs/atom = 63.7482
Neighbor list builds = 6172
Dangerous builds not checked
Setting up Verlet run ...
  Unit style    : metal
  Current step  : 193341
  Time step     : 0.001
Per MPI rank memory allocation (min/avg/max) = 18.21 | 18.21 | 18.21 Mbytes
Step Temp Press TotEng PotEng Enthalpy 
  193341    1286.8653     404.6819   -58201.918   -61470.674   -58102.059 
  193343    1286.4254    407.40153   -58201.901   -61469.539   -58101.371 
  193836    1264.3089   0.11581313   -58372.673   -61584.133   -58372.644 
Loop time of 77.112 on 1 procs for 495 steps with 19652 atoms

Performance: 0.555 ns/day, 43.273 hours/ns, 6.419 timesteps/s
99.7% CPU use with 1 MPI tasks x no OpenMP threads

MPI task timing breakdown:
Section |  min time  |  avg time  |  max time  |%varavg| %total
---------------------------------------------------------------
Pair    | 41.41      | 41.41      | 41.41      |   0.0 | 53.70
Neigh   | 33.856     | 33.856     | 33.856     |   0.0 | 43.90
Comm    | 0.652      | 0.652      | 0.652      |   0.0 |  0.85
Output  | 0.06461    | 0.06461    | 0.06461    |   0.0 |  0.08
Modify  | 0.87922    | 0.87922    | 0.87922    |   0.0 |  1.14
Other   |            | 0.2502     |            |       |  0.32

Nlocal:    19652 ave 19652 max 19652 min
Histogram: 1 0 0 0 0 0 0 0 0 0
Nghost:    17096 ave 17096 max 17096 min
Histogram: 1 0 0 0 0 0 0 0 0 0
Neighs:    1.25678e+06 ave 1.25678e+06 max 1.25678e+06 min
Histogram: 1 0 0 0 0 0 0 0 0 0

Total # of neighbors = 1256784
Ave neighs/atom = 63.952
Neighbor list builds = 495
Dangerous builds not checked
Setting up Verlet run ...
  Unit style    : metal
  Current step  : 193836
  Time step     : 0.001
Per MPI rank memory allocation (min/avg/max) = 18.21 | 18.21 | 18.21 Mbytes
Step Temp Press TotEng PotEng Enthalpy 
  193836    1264.3089   0.11581313   -58372.673   -61584.133   -58372.644 
  200008     1247.296    214.07325    -58519.73   -61687.976   -58467.337 
Loop time of 996.421 on 1 procs for 6172 steps with 19652 atoms

Performance: 0.535 ns/day, 44.845 hours/ns, 6.194 timesteps/s
99.4% CPU use with 1 MPI tasks x no OpenMP threads

MPI task timing breakdown:
Section |  min time  |  avg time  |  max time  |%varavg| %total
---------------------------------------------------------------
Pair    | 537.22     | 537.22     | 537.22     |   0.0 | 53.92
Neigh   | 436.46     | 436.46     | 436.46     |   0.0 | 43.80
Comm    | 8.4289     | 8.4289     | 8.4289     |   0.0 |  0.85
Output  | 0.00039792 | 0.00039792 | 0.00039792 |   0.0 |  0.00
Modify  | 11.218     | 11.218     | 11.218     |   0.0 |  1.13
Other   |            | 3.092      |            |       |  0.31

Nlocal:    19652 ave 19652 max 19652 min
Histogram: 1 0 0 0 0 0 0 0 0 0
Nghost:    17162 ave 17162 max 17162 min
Histogram: 1 0 0 0 0 0 0 0 0 0
Neighs:    1.26312e+06 ave 1.26312e+06 max 1.26312e+06 min
Histogram: 1 0 0 0 0 0 0 0 0 0

Total # of neighbors = 1263121
Ave neighs/atom = 64.2744
Neighbor list builds = 6172
Dangerous builds not checked
Setting up Verlet run ...
  Unit style    : metal
  Current step  : 200008
  Time step     : 0.001
Per MPI rank memory allocation (min/avg/max) = 18.21 | 18.21 | 18.21 Mbytes
Step Temp Press TotEng PotEng Enthalpy 
  200008     1247.296    214.07325    -58519.73   -61687.976   -58467.337 
  200010    1247.8644    204.35015   -58519.731   -61689.421   -58469.717 
  200503    1215.3513    122.94294   -58682.903   -61770.006   -58652.888 
Loop time of 77.965 on 1 procs for 495 steps with 19652 atoms

Performance: 0.549 ns/day, 43.751 hours/ns, 6.349 timesteps/s
99.5% CPU use with 1 MPI tasks x no OpenMP threads

MPI task timing breakdown:
Section |  min time  |  avg time  |  max time  |%varavg| %total
---------------------------------------------------------------
Pair    | 41.86      | 41.86      | 41.86      |   0.0 | 53.69
Neigh   | 34.247     | 34.247     | 34.247     |   0.0 | 43.93
Comm    | 0.65736    | 0.65736    | 0.65736    |   0.0 |  0.84
Output  | 0.06402    | 0.06402    | 0.06402    |   0.0 |  0.08
Modify  | 0.88793    | 0.88793    | 0.88793    |   0.0 |  1.14
Other   |            | 0.2479     |            |       |  0.32

Nlocal:    19652 ave 19652 max 19652 min
Histogram: 1 0 0 0 0 0 0 0 0 0
Nghost:    17165 ave 17165 max 17165 min
Histogram: 1 0 0 0 0 0 0 0 0 0
Neighs:    1.26627e+06 ave 1.26627e+06 max 1.26627e+06 min
Histogram: 1 0 0 0 0 0 0 0 0 0

Total # of neighbors = 1266267
Ave neighs/atom = 64.4345
Neighbor list builds = 495
Dangerous builds not checked
Setting up Verlet run ...
  Unit style    : metal
  Current step  : 200503
  Time step     : 0.001
Per MPI rank memory allocation (min/avg/max) = 18.21 | 18.21 | 18.21 Mbytes
Step Temp Press TotEng PotEng Enthalpy 
  200503    1215.3513    122.94294   -58682.903   -61770.006   -58652.888 
  206675    1204.2564   -14.740985   -58780.451   -61839.372   -58784.043 
Loop time of 993.088 on 1 procs for 6172 steps with 19652 atoms

Performance: 0.537 ns/day, 44.695 hours/ns, 6.215 timesteps/s
99.7% CPU use with 1 MPI tasks x no OpenMP threads

MPI task timing breakdown:
Section |  min time  |  avg time  |  max time  |%varavg| %total
---------------------------------------------------------------
Pair    | 537.63     | 537.63     | 537.63     |   0.0 | 54.14
Neigh   | 432.79     | 432.79     | 432.79     |   0.0 | 43.58
Comm    | 8.4139     | 8.4139     | 8.4139     |   0.0 |  0.85
Output  | 0.00044513 | 0.00044513 | 0.00044513 |   0.0 |  0.00
Modify  | 11.171     | 11.171     | 11.171     |   0.0 |  1.12
Other   |            | 3.09       |            |       |  0.31

Nlocal:    19652 ave 19652 max 19652 min
Histogram: 1 0 0 0 0 0 0 0 0 0
Nghost:    17141 ave 17141 max 17141 min
Histogram: 1 0 0 0 0 0 0 0 0 0
Neighs:    1.26936e+06 ave 1.26936e+06 max 1.26936e+06 min
Histogram: 1 0 0 0 0 0 0 0 0 0

Total # of neighbors = 1269362
Ave neighs/atom = 64.592
Neighbor list builds = 6172
Dangerous builds not checked
Setting up Verlet run ...
  Unit style    : metal
  Current step  : 206675
  Time step     : 0.001
[...]

Performance: 0.511 ns/day, 46.985 hours/ns, 5.912 timesteps/s
99.9% CPU use with 1 MPI tasks x no OpenMP threads

MPI task timing breakdown:
Section |  min time  |  avg time  |  max time  |%varavg| %total
---------------------------------------------------------------
Pair    | 45.218     | 45.218     | 45.218     |   0.0 | 54.01
Neigh   | 36.508     | 36.508     | 36.508     |   0.0 | 43.60
Comm    | 0.71267    | 0.71267    | 0.71267    |   0.0 |  0.85
Output  | 0.068371   | 0.068371   | 0.068371   |   0.0 |  0.08
Modify  | 0.9477     | 0.9477     | 0.9477     |   0.0 |  1.13
Other   |            | 0.2729     |            |       |  0.33

Nlocal:    19652 ave 19652 max 19652 min
Histogram: 1 0 0 0 0 0 0 0 0 0
Nghost:    17975 ave 17975 max 17975 min
Histogram: 1 0 0 0 0 0 0 0 0 0
Neighs:    1.42182e+06 ave 1.42182e+06 max 1.42182e+06 min
Histogram: 1 0 0 0 0 0 0 0 0 0

Total # of neighbors = 1421822
Ave neighs/atom = 72.35
Neighbor list builds = 495
Dangerous builds not checked
Setting up Verlet run ...
  Unit style    : metal
  Current step  : 307175
  Time step     : 0.001
Per MPI rank memory allocation (min/avg/max) = 18.21 | 18.21 | 18.21 Mbytes
Step Temp Press TotEng PotEng Enthalpy 
  307175    423.19374    238.19353   -63957.018   -65031.968   -63905.156 
  313347     402.6129    365.29401   -64131.997    -65154.67   -64052.779 
Loop time of 1042.31 on 1 procs for 6172 steps with 19652 atoms

Performance: 0.512 ns/day, 46.910 hours/ns, 5.921 timesteps/s
99.8% CPU use with 1 MPI tasks x no OpenMP threads

MPI task timing breakdown:
Section |  min time  |  avg time  |  max time  |%varavg| %total
---------------------------------------------------------------
Pair    | 562.89     | 562.89     | 562.89     |   0.0 | 54.00
Neigh   | 455.45     | 455.45     | 455.45     |   0.0 | 43.70
Comm    | 8.9295     | 8.9295     | 8.9295     |   0.0 |  0.86
Output  | 0.000422   | 0.000422   | 0.000422   |   0.0 |  0.00
Modify  | 11.686     | 11.686     | 11.686     |   0.0 |  1.12
Other   |            | 3.354      |            |       |  0.32

Nlocal:    19652 ave 19652 max 19652 min
Histogram: 1 0 0 0 0 0 0 0 0 0
Nghost:    17963 ave 17963 max 17963 min
Histogram: 1 0 0 0 0 0 0 0 0 0
Neighs:    1.42719e+06 ave 1.42719e+06 max 1.42719e+06 min
Histogram: 1 0 0 0 0 0 0 0 0 0

Total # of neighbors = 1427192
Ave neighs/atom = 72.6232
Neighbor list builds = 6172
Dangerous builds not checked
Setting up Verlet run ...
  Unit style    : metal
  Current step  : 313347
  Time step     : 0.001
Per MPI rank memory allocation (min/avg/max) = 18.21 | 18.21 | 18.21 Mbytes
Step Temp Press TotEng PotEng Enthalpy 
  313347     402.6129    365.29401   -64131.997    -65154.67   -64052.779 
  313349    402.43026    371.90652       -64132   -65154.209   -64051.347 
  313842    373.67176    699.25763   -64285.391   -65234.551   -64134.205 
Loop time of 80.5234 on 1 procs for 495 steps with 19652 atoms

Performance: 0.531 ns/day, 45.187 hours/ns, 6.147 timesteps/s
99.0% CPU use with 1 MPI tasks x no OpenMP threads

MPI task timing breakdown:
Section |  min time  |  avg time  |  max time  |%varavg| %total
---------------------------------------------------------------
Pair    | 43.29      | 43.29      | 43.29      |   0.0 | 53.76
Neigh   | 35.376     | 35.376     | 35.376     |   0.0 | 43.93
Comm    | 0.65325    | 0.65325    | 0.65325    |   0.0 |  0.81
Output  | 0.068561   | 0.068561   | 0.068561   |   0.0 |  0.09
Modify  | 0.88363    | 0.88363    | 0.88363    |   0.0 |  1.10
Other   |            | 0.2519     |            |       |  0.31

Nlocal:    19652 ave 19652 max 19652 min
Histogram: 1 0 0 0 0 0 0 0 0 0
Nghost:    18019 ave 18019 max 18019 min
Histogram: 1 0 0 0 0 0 0 0 0 0
Neighs:    1.43142e+06 ave 1.43142e+06 max 1.43142e+06 min
Histogram: 1 0 0 0 0 0 0 0 0 0

Total # of neighbors = 1431417
Ave neighs/atom = 72.8382
Neighbor list builds = 495
Dangerous builds not checked
Setting up Verlet run ...
  Unit style    : metal
  Current step  : 313842
  Time step     : 0.001
Per MPI rank memory allocation (min/avg/max) = 18.21 | 18.21 | 18.21 Mbytes
Step Temp Press TotEng PotEng Enthalpy 
  313842    373.67176    699.25763   -64285.391   -65234.551   -64134.205 
  320014    350.72543    509.26237   -64449.777   -65340.652   -64340.024 
Loop time of 1042.44 on 1 procs for 6172 steps with 19652 atoms

Performance: 0.512 ns/day, 46.916 hours/ns, 5.921 timesteps/s
99.6% CPU use with 1 MPI tasks x no OpenMP threads

MPI task timing breakdown:
Section |  min time  |  avg time  |  max time  |%varavg| %total
---------------------------------------------------------------
Pair    | 563.81     | 563.81     | 563.81     |   0.0 | 54.09
Neigh   | 454.88     | 454.88     | 454.88     |   0.0 | 43.64
Comm    | 8.8408     | 8.8408     | 8.8408     |   0.0 |  0.85
Output  | 0.00039911 | 0.00039911 | 0.00039911 |   0.0 |  0.00
Modify  | 11.587     | 11.587     | 11.587     |   0.0 |  1.11
Other   |            | 3.315      |            |       |  0.32

Nlocal:    19652 ave 19652 max 19652 min
Histogram: 1 0 0 0 0 0 0 0 0 0
Nghost:    18038 ave 18038 max 18038 min
Histogram: 1 0 0 0 0 0 0 0 0 0
Neighs:    1.43609e+06 ave 1.43609e+06 max 1.43609e+06 min
Histogram: 1 0 0 0 0 0 0 0 0 0

Total # of neighbors = 1436088
Ave neighs/atom = 73.0759
Neighbor list builds = 6172
Dangerous builds not checked
Setting up Verlet run ...
  Unit style    : metal
  Current step  : 320014
  Time step     : 0.001
Per MPI rank memory allocation (min/avg/max) = 18.21 | 18.21 | 18.21 Mbytes
Step Temp Press TotEng PotEng Enthalpy 
  320014    350.72543    509.26237   -64449.777   -65340.652   -64340.024 
  320016      350.917    496.92541   -64449.779    -65341.14   -64342.684 
  320509    320.76054    532.36376   -64596.346   -65411.107   -64481.866 
Loop time of 84.2703 on 1 procs for 495 steps with 19652 atoms

Performance: 0.508 ns/day, 47.290 hours/ns, 5.874 timesteps/s
98.8% CPU use with 1 MPI tasks x no OpenMP threads

MPI task timing breakdown:
Section |  min time  |  avg time  |  max time  |%varavg| %total
---------------------------------------------------------------
Pair    | 45.631     | 45.631     | 45.631     |   0.0 | 54.15
Neigh   | 36.673     | 36.673     | 36.673     |   0.0 | 43.52
Comm    | 0.69594    | 0.69594    | 0.69594    |   0.0 |  0.83
Output  | 0.067234   | 0.067234   | 0.067234   |   0.0 |  0.08
Modify  | 0.93704    | 0.93704    | 0.93704    |   0.0 |  1.11
Other   |            | 0.2665     |            |       |  0.32

Nlocal:    19652 ave 19652 max 19652 min
Histogram: 1 0 0 0 0 0 0 0 0 0
Nghost:    18028 ave 18028 max 18028 min
Histogram: 1 0 0 0 0 0 0 0 0 0
Neighs:    1.439e+06 ave 1.439e+06 max 1.439e+06 min
Histogram: 1 0 0 0 0 0 0 0 0 0

Total # of neighbors = 1438997
Ave neighs/atom = 73.2239
Neighbor list builds = 495
Dangerous builds not checked
Setting up Verlet run ...
  Unit style    : metal
  Current step  : 320509
  Time step     : 0.001
Per MPI rank memory allocation (min/avg/max) = 18.21 | 18.21 | 18.21 Mbytes
Step Temp Press TotEng PotEng Enthalpy 
  320509    320.76054    532.36376   -64596.346   -65411.107   -64481.866 
  326681     299.3698   -594.57474   -64746.198   -65506.625   -64873.886 
Loop time of 1042.36 on 1 procs for 6172 steps with 19652 atoms

Performance: 0.512 ns/day, 46.913 hours/ns, 5.921 timesteps/s
99.6% CPU use with 1 MPI tasks x no OpenMP threads

MPI task timing breakdown:
Section |  min time  |  avg time  |  max time  |%varavg| %total
---------------------------------------------------------------
Pair    | 565.49     | 565.49     | 565.49     |   0.0 | 54.25
Neigh   | 453.32     | 453.32     | 453.32     |   0.0 | 43.49
Comm    | 8.7371     | 8.7371     | 8.7371     |   0.0 |  0.84
Output  | 0.0004468  | 0.0004468  | 0.0004468  |   0.0 |  0.00
Modify  | 11.547     | 11.547     | 11.547     |   0.0 |  1.11
Other   |            | 3.269      |            |       |  0.31

Nlocal:    19652 ave 19652 max 19652 min
Histogram: 1 0 0 0 0 0 0 0 0 0
Nghost:    18070 ave 18070 max 18070 min
Histogram: 1 0 0 0 0 0 0 0 0 0
Neighs:    1.44068e+06 ave 1.44068e+06 max 1.44068e+06 min
Histogram: 1 0 0 0 0 0 0 0 0 0

Total # of neighbors = 1440682
Ave neighs/atom = 73.3097
Neighbor list builds = 6172
Dangerous builds not checked
Setting up Verlet run ...
  Unit style    : metal
  Current step  : 326681
  Time step     : 0.001
Per MPI rank memory allocation (min/avg/max) = 18.21 | 18.21 | 18.21 Mbytes
Step Temp Press TotEng PotEng Enthalpy 
  326681     299.3698   -594.57474   -64746.198   -65506.625   -64873.886 
  326683     299.4212   -597.85507   -64746.198   -65506.755    -64874.59 
  327176    272.61301    154.42353   -64887.972   -65580.434   -64854.917 
Loop time of 83.9053 on 1 procs for 495 steps with 19652 atoms

Performance: 0.510 ns/day, 47.085 hours/ns, 5.900 timesteps/s
98.3% CPU use with 1 MPI tasks x no OpenMP threads

MPI task timing breakdown:
Section |  min time  |  avg time  |  max time  |%varavg| %total
---------------------------------------------------------------
Pair    | 45.354     | 45.354     | 45.354     |   0.0 | 54.05
Neigh   | 36.582     | 36.582     | 36.582     |   0.0 | 43.60
Comm    | 0.69492    | 0.69492    | 0.69492    |   0.0 |  0.83
Output  | 0.06916    | 0.06916    | 0.06916    |   0.0 |  0.08
Modify  | 0.93964    | 0.93964    | 0.93964    |   0.0 |  1.12
Other   |            | 0.2651     |            |       |  0.32

Nlocal:    19652 ave 19652 max 19652 min
Histogram: 1 0 0 0 0 0 0 0 0 0
Nghost:    18114 ave 18114 max 18114 min
Histogram: 1 0 0 0 0 0 0 0 0 0
Neighs:    1.44553e+06 ave 1.44553e+06 max 1.44553e+06 min
Histogram: 1 0 0 0 0 0 0 0 0 0

Total # of neighbors = 1445527
Ave neighs/atom = 73.5562
Neighbor list builds = 495
Dangerous builds not checked
Setting up Verlet run ...
  Unit style    : metal
  Current step  : 327176
  Time step     : 0.001
Per MPI rank memory allocation (min/avg/max) = 18.21 | 18.21 | 18.21 Mbytes
Step Temp Press TotEng PotEng Enthalpy 
  327176    272.61301    154.42353   -64887.972   -65580.434   -64854.917 
  333348    251.45819   -408.57777   -65029.691   -65668.418       -65117 
Loop time of 1035.04 on 1 procs for 6172 steps with 19652 atoms

Performance: 0.515 ns/day, 46.583 hours/ns, 5.963 timesteps/s
99.6% CPU use with 1 MPI tasks x no OpenMP threads

MPI task timing breakdown:
Section |  min time  |  avg time  |  max time  |%varavg| %total
---------------------------------------------------------------
Pair    | 560.44     | 560.44     | 560.44     |   0.0 | 54.15
Neigh   | 451.17     | 451.17     | 451.17     |   0.0 | 43.59
Comm    | 8.6865     | 8.6865     | 8.6865     |   0.0 |  0.84
Output  | 0.0003581  | 0.0003581  | 0.0003581  |   0.0 |  0.00
Modify  | 11.471     | 11.471     | 11.471     |   0.0 |  1.11
Other   |            | 3.263      |            |       |  0.32

Nlocal:    19652 ave 19652 max 19652 min
Histogram: 1 0 0 0 0 0 0 0 0 0
Nghost:    18074 ave 18074 max 18074 min
Histogram: 1 0 0 0 0 0 0 0 0 0
Neighs:    1.44718e+06 ave 1.44718e+06 max 1.44718e+06 min
Histogram: 1 0 0 0 0 0 0 0 0 0

Total # of neighbors = 1447181
Ave neighs/atom = 73.6404
Neighbor list builds = 6172
Dangerous builds not checked
Setting up Verlet run ...
  Unit style    : metal
  Current step  : 333348
  Time step     : 0.001
Per MPI rank memory allocation (min/avg/max) = 18.21 | 18.21 | 18.21 Mbytes
Step Temp Press TotEng PotEng Enthalpy 
  333348    251.45819   -408.57777   -65029.691   -65668.418       -65117 
  333350    251.68258   -409.96396   -65029.693    -65668.99   -65117.298 
  333843    224.53188    2.1871004   -65165.687   -65736.019   -65165.221 
Loop time of 82.5153 on 1 procs for 495 steps with 19652 atoms

Performance: 0.518 ns/day, 46.305 hours/ns, 5.999 timesteps/s
99.3% CPU use with 1 MPI tasks x no OpenMP threads

MPI task timing breakdown:
Section |  min time  |  avg time  |  max time  |%varavg| %total
---------------------------------------------------------------
Pair    | 44.674     | 44.674     | 44.674     |   0.0 | 54.14
Neigh   | 35.907     | 35.907     | 35.907     |   0.0 | 43.52
Comm    | 0.69238    | 0.69238    | 0.69238    |   0.0 |  0.84
Output  | 0.059163   | 0.059163   | 0.059163   |   0.0 |  0.07
Modify  | 0.9167     | 0.9167     | 0.9167     |   0.0 |  1.11
Other   |            | 0.2661     |            |       |  0.32

Nlocal:    19652 ave 19652 max 19652 min
Histogram: 1 0 0 0 0 0 0 0 0 0
Nghost:    18097 ave 18097 max 18097 min
Histogram: 1 0 0 0 0 0 0 0 0 0
Neighs:    1.45107e+06 ave 1.45107e+06 max 1.45107e+06 min
Histogram: 1 0 0 0 0 0 0 0 0 0

Total # of neighbors = 1451070
Ave neighs/atom = 73.8383
Neighbor list builds = 495
Dangerous builds not checked
Setting up Verlet run ...
  Unit style    : metal
  Current step  : 333843
  Time step     : 0.001
Per MPI rank memory allocation (min/avg/max) = 18.21 | 18.21 | 18.21 Mbytes
Step Temp Press TotEng PotEng Enthalpy 
  333843    224.53188    2.1871004   -65165.687   -65736.019   -65165.221 
  340015    199.49928   -447.24161   -65309.937   -65816.683   -65405.079 
Loop time of 1034.99 on 1 procs for 6172 steps with 19652 atoms

Performance: 0.515 ns/day, 46.581 hours/ns, 5.963 timesteps/s
99.5% CPU use with 1 MPI tasks x no OpenMP threads

MPI task timing breakdown:
Section |  min time  |  avg time  |  max time  |%varavg| %total
---------------------------------------------------------------
Pair    | 560.95     | 560.95     | 560.95     |   0.0 | 54.20
Neigh   | 450.55     | 450.55     | 450.55     |   0.0 | 43.53
Comm    | 8.7037     | 8.7037     | 8.7037     |   0.0 |  0.84
Output  | 0.00022292 | 0.00022292 | 0.00022292 |   0.0 |  0.00
Modify  | 11.511     | 11.511     | 11.511     |   0.0 |  1.11
Other   |            | 3.276      |            |       |  0.32

Nlocal:    19652 ave 19652 max 19652 min
Histogram: 1 0 0 0 0 0 0 0 0 0
Nghost:    18077 ave 18077 max 18077 min
Histogram: 1 0 0 0 0 0 0 0 0 0
Neighs:    1.45316e+06 ave 1.45316e+06 max 1.45316e+06 min
Histogram: 1 0 0 0 0 0 0 0 0 0

Total # of neighbors = 1453164
Ave neighs/atom = 73.9448
Neighbor list builds = 6172
Dangerous builds not checked
Setting up Verlet run ...
  Unit style    : metal
  Current step  : 340015
  Time step     : 0.001
Per MPI rank memory allocation (min/avg/max) = 18.21 | 18.21 | 18.21 Mbytes
Step Temp Press TotEng PotEng Enthalpy 
  340015    199.49928   -447.24161   -65309.937   -65816.683   -65405.079 
  340017    199.45652   -441.95236   -65309.936   -65816.574   -65403.953 
  340510    174.40285   -280.71942   -65437.133   -65880.132   -65496.723 
Loop time of 81.7055 on 1 procs for 495 steps with 19652 atoms

Performance: 0.523 ns/day, 45.850 hours/ns, 6.058 timesteps/s
99.8% CPU use with 1 MPI tasks x no OpenMP threads

MPI task timing breakdown:
Section |  min time  |  avg time  |  max time  |%varavg| %total
---------------------------------------------------------------
Pair    | 44.186     | 44.186     | 44.186     |   0.0 | 54.08
Neigh   | 35.631     | 35.631     | 35.631     |   0.0 | 43.61
Comm    | 0.6699     | 0.6699     | 0.6699     |   0.0 |  0.82
Output  | 0.064922   | 0.064922   | 0.064922   |   0.0 |  0.08
Modify  | 0.89774    | 0.89774    | 0.89774    |   0.0 |  1.10
Other   |            | 0.2557     |            |       |  0.31

Nlocal:    19652 ave 19652 max 19652 min
Histogram: 1 0 0 0 0 0 0 0 0 0
Nghost:    18136 ave 18136 max 18136 min
Histogram: 1 0 0 0 0 0 0 0 0 0
Neighs:    1.45616e+06 ave 1.45616e+06 max 1.45616e+06 min
Histogram: 1 0 0 0 0 0 0 0 0 0

Total # of neighbors = 1456164
Ave neighs/atom = 74.0975
Neighbor list builds = 495
Dangerous builds not checked
Setting up Verlet run ...
  Unit style    : metal
  Current step  : 340510
  Time step     : 0.001
Per MPI rank memory allocation (min/avg/max) = 18.21 | 18.21 | 18.21 Mbytes
Step Temp Press TotEng PotEng Enthalpy 
  340510    174.40285   -280.71942   -65437.133   -65880.132   -65496.723 
  346682    150.85974    11.302922   -65576.476   -65959.673   -65574.082 
Loop time of 1006.3 on 1 procs for 6172 steps with 19652 atoms

Performance: 0.530 ns/day, 45.290 hours/ns, 6.133 timesteps/s
99.7% CPU use with 1 MPI tasks x no OpenMP threads

MPI task timing breakdown:
Section |  min time  |  avg time  |  max time  |%varavg| %total
---------------------------------------------------------------
Pair    | 544.93     | 544.93     | 544.93     |   0.0 | 54.15
Neigh   | 438.83     | 438.83     | 438.83     |   0.0 | 43.61
Comm    | 8.3113     | 8.3113     | 8.3113     |   0.0 |  0.83
Output  | 0.00032091 | 0.00032091 | 0.00032091 |   0.0 |  0.00
Modify  | 11.091     | 11.091     | 11.091     |   0.0 |  1.10
Other   |            | 3.141      |            |       |  0.31

Nlocal:    19652 ave 19652 max 19652 min
Histogram: 1 0 0 0 0 0 0 0 0 0
Nghost:    18154 ave 18154 max 18154 min
Histogram: 1 0 0 0 0 0 0 0 0 0
Neighs:    1.45922e+06 ave 1.45922e+06 max 1.45922e+06 min
Histogram: 1 0 0 0 0 0 0 0 0 0

Total # of neighbors = 1459219
Ave neighs/atom = 74.253
Neighbor list builds = 6172
Dangerous builds not checked
Setting up Verlet run ...
  Unit style    : metal
  Current step  : 346682
  Time step     : 0.001
Per MPI rank memory allocation (min/avg/max) = 18.21 | 18.21 | 18.21 Mbytes
Step Temp Press TotEng PotEng Enthalpy 
  346682    150.85974    11.302922   -65576.476   -65959.673   -65574.082 
  346684    150.87113    10.282342   -65576.477   -65959.703     -65574.3 
  347177      126.869   -162.89382   -65698.453   -66020.712   -65732.887 
Loop time of 79.7852 on 1 procs for 495 steps with 19652 atoms

Performance: 0.536 ns/day, 44.773 hours/ns, 6.204 timesteps/s
99.8% CPU use with 1 MPI tasks x no OpenMP threads

MPI task timing breakdown:
Section |  min time  |  avg time  |  max time  |%varavg| %total
---------------------------------------------------------------
Pair    | 43.278     | 43.278     | 43.278     |   0.0 | 54.24
Neigh   | 34.637     | 34.637     | 34.637     |   0.0 | 43.41
Comm    | 0.66078    | 0.66078    | 0.66078    |   0.0 |  0.83
Output  | 0.068656   | 0.068656   | 0.068656   |   0.0 |  0.09
Modify  | 0.89608    | 0.89608    | 0.89608    |   0.0 |  1.12
Other   |            | 0.2447     |            |       |  0.31

Nlocal:    19652 ave 19652 max 19652 min
Histogram: 1 0 0 0 0 0 0 0 0 0
Nghost:    18159 ave 18159 max 18159 min
Histogram: 1 0 0 0 0 0 0 0 0 0
Neighs:    1.4612e+06 ave 1.4612e+06 max 1.4612e+06 min
Histogram: 1 0 0 0 0 0 0 0 0 0

Total # of neighbors = 1461203
Ave neighs/atom = 74.3539
Neighbor list builds = 495
Dangerous builds not checked
Setting up Verlet run ...
  Unit style    : metal
  Current step  : 347177
  Time step     : 0.001
Per MPI rank memory allocation (min/avg/max) = 18.21 | 18.21 | 18.21 Mbytes
Step Temp Press TotEng PotEng Enthalpy 
  347177      126.869   -162.89382   -65698.453   -66020.712   -65732.887 
  353349    99.810627    481.09107   -65843.649   -66097.177   -65742.254 
Loop time of 1000.38 on 1 procs for 6172 steps with 19652 atoms

Performance: 0.533 ns/day, 45.023 hours/ns, 6.170 timesteps/s
99.5% CPU use with 1 MPI tasks x no OpenMP threads

MPI task timing breakdown:
Section |  min time  |  avg time  |  max time  |%varavg| %total
---------------------------------------------------------------
Pair    | 542.76     | 542.76     | 542.76     |   0.0 | 54.26
Neigh   | 435.21     | 435.21     | 435.21     |   0.0 | 43.50
Comm    | 8.2741     | 8.2741     | 8.2741     |   0.0 |  0.83
Output  | 0.00059104 | 0.00059104 | 0.00059104 |   0.0 |  0.00
Modify  | 10.999     | 10.999     | 10.999     |   0.0 |  1.10
Other   |            | 3.131      |            |       |  0.31

Nlocal:    19652 ave 19652 max 19652 min
Histogram: 1 0 0 0 0 0 0 0 0 0
Nghost:    18194 ave 18194 max 18194 min
Histogram: 1 0 0 0 0 0 0 0 0 0
Neighs:    1.46536e+06 ave 1.46536e+06 max 1.46536e+06 min
Histogram: 1 0 0 0 0 0 0 0 0 0

Total # of neighbors = 1465359
Ave neighs/atom = 74.5654
Neighbor list builds = 6172
Dangerous builds not checked
Total wall time: 14:12:54
