LAMMPS (12 Dec 2018)
Lattice spacing in x,y,z = 4 4 4
Created orthogonal box = (0 0 0) to (68 68 68)
  1 by 1 by 2 MPI processor grid
Created 19652 atoms
  Time spent = 0.00171709 secs
Setting atom values ...
  206 settings made for type/fraction
Neighbor list info ...
  update every 1 steps, delay 0 steps, check no
  max neighbors/atom: 2000, page size: 100000
  master list distance cutoff = 8.5
  ghost atom cutoff = 8.5
  binsize = 4.25, bins = 16 16 16
  1 neighbor lists, perpetual/occasional/extra = 1 0 0
  (1) pair eam/alloy, perpetual
      attributes: half, newton on
      pair build: half/bin/atomonly/newton
      stencil: half/bin/3d/newton
      bin: standard
Setting up Verlet run ...
  Unit style    : metal
  Current step  : 0
  Time step     : 0.001
Per MPI rank memory allocation (min/avg/max) = 11.15 | 11.15 | 11.15 Mbytes
Step Temp Press TotEng PotEng Enthalpy 
       0          300    639595.78   -102542.49   -103304.52    22980.119 
    1000    193.57527    581090.24   -102542.43   -103034.13    11498.294 
Loop time of 92.3311 on 2 procs for 1000 steps with 19652 atoms

Performance: 0.936 ns/day, 25.648 hours/ns, 10.831 timesteps/s
99.3% CPU use with 2 MPI tasks x no OpenMP threads

MPI task timing breakdown:
Section |  min time  |  avg time  |  max time  |%varavg| %total
---------------------------------------------------------------
Pair    | 52.5       | 52.887     | 53.274     |   5.3 | 57.28
Neigh   | 35.869     | 35.953     | 36.037     |   1.4 | 38.94
Comm    | 2.7368     | 3.0413     | 3.3458     |  17.5 |  3.29
Output  | 0.00014591 | 0.00016844 | 0.00019097 |   0.0 |  0.00
Modify  | 0.22808    | 0.22853    | 0.22899    |   0.1 |  0.25
Other   |            | 0.2214     |            |       |  0.24

Nlocal:    9826 ave 9868 max 9784 min
Histogram: 1 0 0 0 0 0 0 0 0 1
Nghost:    14102 ave 14138 max 14066 min
Histogram: 1 0 0 0 0 0 0 0 0 1
Neighs:    781656 ave 786457 max 776855 min
Histogram: 1 0 0 0 0 0 0 0 0 1

Total # of neighbors = 1563312
Ave neighs/atom = 79.5498
Neighbor list builds = 1000
Dangerous builds not checked
Setting up Verlet run ...
  Unit style    : metal
  Current step  : 1000
  Time step     : 0.001
Per MPI rank memory allocation (min/avg/max) = 11.15 | 11.15 | 11.15 Mbytes
Step Temp Press TotEng PotEng Enthalpy 
    1000    193.57527    581090.24   -102542.43   -103034.13    11498.294 
    2000    304.84395   0.17766424   -121846.38   -122620.72   -121846.33 
Loop time of 77.5209 on 2 procs for 1000 steps with 19652 atoms

Performance: 1.115 ns/day, 21.534 hours/ns, 12.900 timesteps/s
98.9% CPU use with 2 MPI tasks x no OpenMP threads

MPI task timing breakdown:
Section |  min time  |  avg time  |  max time  |%varavg| %total
---------------------------------------------------------------
Pair    | 42.127     | 42.132     | 42.138     |   0.1 | 54.35
Neigh   | 31.337     | 31.55      | 31.763     |   3.8 | 40.70
Comm    | 2.2571     | 2.4789     | 2.7007     |  14.1 |  3.20
Output  | 8.7976e-05 | 0.00012445 | 0.00016093 |   0.0 |  0.00
Modify  | 1.1427     | 1.1463     | 1.1499     |   0.3 |  1.48
Other   |            | 0.2135     |            |       |  0.28

Nlocal:    9826 ave 9857 max 9795 min
Histogram: 1 0 0 0 0 0 0 0 0 1
Nghost:    10357 ave 10379 max 10335 min
Histogram: 1 0 0 0 0 0 0 0 0 1
Neighs:    548334 ave 551421 max 545247 min
Histogram: 1 0 0 0 0 0 0 0 0 1

Total # of neighbors = 1096668
Ave neighs/atom = 55.8044
Neighbor list builds = 1000
Dangerous builds not checked
Setting up Verlet run ...
  Unit style    : metal
  Current step  : 2000
  Time step     : 0.001
Per MPI rank memory allocation (min/avg/max) = 11.15 | 11.15 | 11.15 Mbytes
Step Temp Press TotEng PotEng Enthalpy 
    2000    304.84395   0.17766424   -121846.38   -122620.72   -121846.33 
   10000    2460.4724    530.39851   -106457.28   -112707.11   -106295.96 
Loop time of 567.597 on 2 procs for 8000 steps with 19652 atoms

Performance: 1.218 ns/day, 19.708 hours/ns, 14.095 timesteps/s
97.8% CPU use with 2 MPI tasks x no OpenMP threads

MPI task timing breakdown:
Section |  min time  |  avg time  |  max time  |%varavg| %total
---------------------------------------------------------------
Pair    | 300.93     | 301.81     | 302.7      |   5.1 | 53.17
Neigh   | 224.62     | 225.67     | 226.73     |   7.0 | 39.76
Comm    | 31.484     | 31.687     | 31.89      |   3.6 |  5.58
Output  | 0.035203   | 0.035262   | 0.03532    |   0.0 |  0.01
Modify  | 6.6836     | 6.7135     | 6.7434     |   1.2 |  1.18
Other   |            | 1.677      |            |       |  0.30

Nlocal:    9826 ave 9871 max 9781 min
Histogram: 1 0 0 0 0 0 0 0 0 1
Nghost:    10976.5 ave 11005 max 10948 min
Histogram: 1 0 0 0 0 0 0 0 0 1
Neighs:    504377 ave 507485 max 501269 min
Histogram: 1 0 0 0 0 0 0 0 0 1

Total # of neighbors = 1008754
Ave neighs/atom = 51.3309
Neighbor list builds = 8000
Dangerous builds not checked
Setting up Verlet run ...
  Unit style    : metal
  Current step  : 10000
  Time step     : 0.001
Per MPI rank memory allocation (min/avg/max) = 11.17 | 11.17 | 11.17 Mbytes
Step Temp Press TotEng PotEng Enthalpy 
   10000    2460.4724    530.39851   -106457.28   -112707.11   -106295.96 
   20000    2435.8769   -80.214909   -106415.89   -112603.24   -106440.33 
   30000    2457.1195     1405.624   -106332.41   -112573.71   -105905.21 
   40000    2452.2086    1118.7315   -106276.34   -112505.17   -105935.97 
Loop time of 2295.1 on 2 procs for 30000 steps with 19652 atoms

Performance: 1.129 ns/day, 21.251 hours/ns, 13.071 timesteps/s
97.1% CPU use with 2 MPI tasks x no OpenMP threads

MPI task timing breakdown:
Section |  min time  |  avg time  |  max time  |%varavg| %total
---------------------------------------------------------------
Pair    | 1223.4     | 1226.7     | 1230       |   9.5 | 53.45
Neigh   | 913.43     | 914.25     | 915.07     |   2.7 | 39.83
Comm    | 111.31     | 113.85     | 116.39     |  23.8 |  4.96
Output  | 2.9364     | 2.9365     | 2.9366     |   0.0 |  0.13
Modify  | 30.831     | 30.872     | 30.913     |   0.7 |  1.35
Other   |            | 6.481      |            |       |  0.28

Nlocal:    9826 ave 9836 max 9816 min
Histogram: 1 0 0 0 0 0 0 0 0 1
Nghost:    10986 ave 10999 max 10973 min
Histogram: 1 0 0 0 0 0 0 0 0 1
Neighs:    503982 ave 505257 max 502707 min
Histogram: 1 0 0 0 0 0 0 0 0 1

Total # of neighbors = 1007964
Ave neighs/atom = 51.2907
Neighbor list builds = 30000
Dangerous builds not checked
Setting up Verlet run ...
  Unit style    : metal
  Current step  : 40000
  Time step     : 0.001
Per MPI rank memory allocation (min/avg/max) = 11.22 | 11.22 | 11.22 Mbytes
Step Temp Press TotEng PotEng Enthalpy 
   40000    2452.2086    1118.7315   -106276.34   -112505.17   -105935.97 
   40495    2409.4885    1291.3903   -106586.38   -112706.71   -106194.36 
Loop time of 39.5364 on 2 procs for 495 steps with 19652 atoms

Performance: 1.082 ns/day, 22.187 hours/ns, 12.520 timesteps/s
93.2% CPU use with 2 MPI tasks x no OpenMP threads

MPI task timing breakdown:
Section |  min time  |  avg time  |  max time  |%varavg| %total
---------------------------------------------------------------
Pair    | 19.676     | 19.878     | 20.081     |   4.5 | 50.28
Neigh   | 14.42      | 14.861     | 15.302     |  11.4 | 37.59
Comm    | 3.847      | 4.1057     | 4.3645     |  12.8 | 10.38
Output  | 9.4175e-05 | 0.00012314 | 0.00015211 |   0.0 |  0.00
Modify  | 0.56691    | 0.58059    | 0.59427    |   1.8 |  1.47
Other   |            | 0.1105     |            |       |  0.28

Nlocal:    9826 ave 9830 max 9822 min
Histogram: 1 0 0 0 0 0 0 0 0 1
Nghost:    10993 ave 11002 max 10984 min
Histogram: 1 0 0 0 0 0 0 0 0 1
Neighs:    505174 ave 505472 max 504876 min
Histogram: 1 0 0 0 0 0 0 0 0 1

Total # of neighbors = 1010348
Ave neighs/atom = 51.412
Neighbor list builds = 495
Dangerous builds not checked
Setting up Verlet run ...
  Unit style    : metal
  Current step  : 40495
  Time step     : 0.001
Per MPI rank memory allocation (min/avg/max) = 11.22 | 11.22 | 11.22 Mbytes
Step Temp Press TotEng PotEng Enthalpy 
   40495    2409.4885    1291.3903   -106586.38   -112706.71   -106194.36 
   50000    2414.0727    2034.6837    -106674.8   -112806.77   -106058.15 
Loop time of 766.105 on 2 procs for 9505 steps with 19652 atoms

Performance: 1.072 ns/day, 22.389 hours/ns, 12.407 timesteps/s
94.6% CPU use with 2 MPI tasks x no OpenMP threads

MPI task timing breakdown:
Section |  min time  |  avg time  |  max time  |%varavg| %total
---------------------------------------------------------------
Pair    | 394.89     | 395.97     | 397.04     |   5.4 | 51.69
Neigh   | 288.44     | 289.29     | 290.15     |   5.0 | 37.76
Comm    | 65.445     | 67.129     | 68.813     |  20.5 |  8.76
Output  | 0.042822   | 0.042843   | 0.042864   |   0.0 |  0.01
Modify  | 11.288     | 11.565     | 11.843     |   8.2 |  1.51
Other   |            | 2.106      |            |       |  0.27

Nlocal:    9826 ave 9837 max 9815 min
Histogram: 1 0 0 0 0 0 0 0 0 1
Nghost:    11022 ave 11051 max 10993 min
Histogram: 1 0 0 0 0 0 0 0 0 1
Neighs:    506246 ave 507525 max 504968 min
Histogram: 1 0 0 0 0 0 0 0 0 1

Total # of neighbors = 1012493
Ave neighs/atom = 51.5211
Neighbor list builds = 9505
Dangerous builds not checked
Setting up Verlet run ...
  Unit style    : metal
  Current step  : 50000
  Time step     : 0.001
Per MPI rank memory allocation (min/avg/max) = 11.23 | 11.23 | 11.23 Mbytes
Step Temp Press TotEng PotEng Enthalpy 
   50000    2414.0727    2034.6837    -106674.8   -112806.77   -106058.15 
   50495    2353.6741    1560.9623   -106918.47   -112897.02   -106445.61 
Loop time of 36.4621 on 2 procs for 495 steps with 19652 atoms

Performance: 1.173 ns/day, 20.461 hours/ns, 13.576 timesteps/s
96.2% CPU use with 2 MPI tasks x no OpenMP threads

MPI task timing breakdown:
Section |  min time  |  avg time  |  max time  |%varavg| %total
---------------------------------------------------------------
Pair    | 19.946     | 19.968     | 19.99      |   0.5 | 54.76
Neigh   | 14.034     | 14.293     | 14.551     |   6.8 | 39.20
Comm    | 1.4076     | 1.6968     | 1.986      |  22.2 |  4.65
Output  | 0.000108   | 0.00013006 | 0.00015211 |   0.0 |  0.00
Modify  | 0.39532    | 0.40217    | 0.40902    |   1.1 |  1.10
Other   |            | 0.1022     |            |       |  0.28

Nlocal:    9826 ave 9839 max 9813 min
Histogram: 1 0 0 0 0 0 0 0 0 1
Nghost:    10985 ave 10985 max 10985 min
Histogram: 2 0 0 0 0 0 0 0 0 0
Neighs:    506566 ave 507311 max 505821 min
Histogram: 1 0 0 0 0 0 0 0 0 1

Total # of neighbors = 1013132
Ave neighs/atom = 51.5536
Neighbor list builds = 495
Dangerous builds not checked
Setting up Verlet run ...
  Unit style    : metal
  Current step  : 50495
  Time step     : 0.001
Per MPI rank memory allocation (min/avg/max) = 11.23 | 11.23 | 11.23 Mbytes
Step Temp Press TotEng PotEng Enthalpy 
   50495    2353.6741    1560.9623   -106918.47   -112897.02   -106445.61 
   60000     2342.897    517.27878   -106957.03   -112908.21   -106800.13 
Loop time of 738.077 on 2 procs for 9505 steps with 19652 atoms

Performance: 1.113 ns/day, 21.570 hours/ns, 12.878 timesteps/s
95.6% CPU use with 2 MPI tasks x no OpenMP threads

MPI task timing breakdown:
Section |  min time  |  avg time  |  max time  |%varavg| %total
---------------------------------------------------------------
Pair    | 389.39     | 391.22     | 393.05     |   9.3 | 53.01
Neigh   | 283.59     | 284.48     | 285.36     |   5.2 | 38.54
Comm    | 50.374     | 51.228     | 52.082     |  11.9 |  6.94
Output  | 0.17779    | 0.17781    | 0.17782    |   0.0 |  0.02
Modify  | 8.8453     | 8.9431     | 9.041      |   3.3 |  1.21
Other   |            | 2.029      |            |       |  0.27

Nlocal:    9826 ave 9844 max 9808 min
Histogram: 1 0 0 0 0 0 0 0 0 1
Nghost:    11015 ave 11043 max 10987 min
Histogram: 1 0 0 0 0 0 0 0 0 1
Neighs:    505468 ave 507005 max 503932 min
Histogram: 1 0 0 0 0 0 0 0 0 1

Total # of neighbors = 1010937
Ave neighs/atom = 51.4419
Neighbor list builds = 9505
Dangerous builds not checked
Setting up Verlet run ...
  Unit style    : metal
  Current step  : 60000
  Time step     : 0.001
Per MPI rank memory allocation (min/avg/max) = 11.24 | 11.24 | 11.24 Mbytes
Step Temp Press TotEng PotEng Enthalpy 
   60000     2342.897    517.27878   -106957.03   -112908.21   -106800.13 
   60495    2304.1422    138.44001   -107195.02   -113047.75    -107153.1 
Loop time of 36.5256 on 2 procs for 495 steps with 19652 atoms

Performance: 1.171 ns/day, 20.497 hours/ns, 13.552 timesteps/s
97.5% CPU use with 2 MPI tasks x no OpenMP threads

MPI task timing breakdown:
Section |  min time  |  avg time  |  max time  |%varavg| %total
---------------------------------------------------------------
Pair    | 19.413     | 19.452     | 19.491     |   0.9 | 53.26
Neigh   | 14.588     | 14.6       | 14.612     |   0.3 | 39.97
Comm    | 1.9007     | 1.953      | 2.0053     |   3.7 |  5.35
Output  | 8.4162e-05 | 0.00010955 | 0.00013494 |   0.0 |  0.00
Modify  | 0.4143     | 0.41552    | 0.41675    |   0.2 |  1.14
Other   |            | 0.1049     |            |       |  0.29

Nlocal:    9826 ave 9829 max 9823 min
Histogram: 1 0 0 0 0 0 0 0 0 1
Nghost:    11054 ave 11059 max 11049 min
Histogram: 1 0 0 0 0 0 0 0 0 1
Neighs:    506580 ave 506717 max 506444 min
Histogram: 1 0 0 0 0 0 0 0 0 1

Total # of neighbors = 1013161
Ave neighs/atom = 51.5551
Neighbor list builds = 495
Dangerous builds not checked
Setting up Verlet run ...
  Unit style    : metal
  Current step  : 60495
  Time step     : 0.001
Per MPI rank memory allocation (min/avg/max) = 11.24 | 11.24 | 11.24 Mbytes
Step Temp Press TotEng PotEng Enthalpy 
   60495    2304.1422    138.44001   -107195.02   -113047.75    -107153.1 
   70000    2294.1592    607.67059   -107328.83   -113156.21   -107145.13 
Loop time of 758.529 on 2 procs for 9505 steps with 19652 atoms

Performance: 1.083 ns/day, 22.168 hours/ns, 12.531 timesteps/s
93.6% CPU use with 2 MPI tasks x no OpenMP threads

MPI task timing breakdown:
Section |  min time  |  avg time  |  max time  |%varavg| %total
---------------------------------------------------------------
Pair    | 405.22     | 405.41     | 405.6      |   1.0 | 53.45
Neigh   | 276.34     | 278.11     | 279.89     |  10.7 | 36.66
Comm    | 61.365     | 63.327     | 65.288     |  24.6 |  8.35
Output  | 0.29212    | 0.29214    | 0.29215    |   0.0 |  0.04
Modify  | 9.3449     | 9.3841     | 9.4233     |   1.3 |  1.24
Other   |            | 2.001      |            |       |  0.26

Nlocal:    9826 ave 9838 max 9814 min
Histogram: 1 0 0 0 0 0 0 0 0 1
Nghost:    11016 ave 11030 max 11002 min
Histogram: 1 0 0 0 0 0 0 0 0 1
Neighs:    507192 ave 508143 max 506240 min
Histogram: 1 0 0 0 0 0 0 0 0 1

Total # of neighbors = 1014383
Ave neighs/atom = 51.6173
Neighbor list builds = 9505
Dangerous builds not checked
Setting up Verlet run ...
  Unit style    : metal
  Current step  : 70000
  Time step     : 0.001
Per MPI rank memory allocation (min/avg/max) = 11.25 | 11.25 | 11.25 Mbytes
Step Temp Press TotEng PotEng Enthalpy 
   70000    2294.1592    607.67059   -107328.83   -113156.21   -107145.13 
   70495    2258.9007    1217.0599   -107518.02   -113255.83    -107150.7 
Loop time of 38.3503 on 2 procs for 495 steps with 19652 atoms

Performance: 1.115 ns/day, 21.521 hours/ns, 12.907 timesteps/s
96.0% CPU use with 2 MPI tasks x no OpenMP threads

MPI task timing breakdown:
Section |  min time  |  avg time  |  max time  |%varavg| %total
---------------------------------------------------------------
Pair    | 20.08      | 20.292     | 20.504     |   4.7 | 52.91
Neigh   | 14.18      | 14.419     | 14.657     |   6.3 | 37.60
Comm    | 2.219      | 2.6771     | 3.1353     |  28.0 |  6.98
Output  | 0.00011396 | 0.00014949 | 0.00018501 |   0.0 |  0.00
Modify  | 0.85107    | 0.85243    | 0.85379    |   0.1 |  2.22
Other   |            | 0.11       |            |       |  0.29

Nlocal:    9826 ave 9846 max 9806 min
Histogram: 1 0 0 0 0 0 0 0 0 1
Nghost:    11001 ave 11019 max 10983 min
Histogram: 1 0 0 0 0 0 0 0 0 1
Neighs:    508266 ave 509707 max 506825 min
Histogram: 1 0 0 0 0 0 0 0 0 1

Total # of neighbors = 1016532
Ave neighs/atom = 51.7266
Neighbor list builds = 495
Dangerous builds not checked
Setting up Verlet run ...
  Unit style    : metal
  Current step  : 70495
  Time step     : 0.001
Per MPI rank memory allocation (min/avg/max) = 11.25 | 11.25 | 11.25 Mbytes
Step Temp Press TotEng PotEng Enthalpy 
   70495    2258.9007    1217.0599   -107518.02   -113255.83    -107150.7 
   80000    2250.8039   -1438.1302   -107645.43   -113362.68   -108080.93 
Loop time of 763.397 on 2 procs for 9505 steps with 19652 atoms

Performance: 1.076 ns/day, 22.310 hours/ns, 12.451 timesteps/s
93.9% CPU use with 2 MPI tasks x no OpenMP threads

MPI task timing breakdown:
Section |  min time  |  avg time  |  max time  |%varavg| %total
---------------------------------------------------------------
Pair    | 395        | 395.05     | 395.11     |   0.3 | 51.75
Neigh   | 279.24     | 279.4      | 279.55     |   0.9 | 36.60
Comm    | 74.103     | 74.325     | 74.548     |   2.6 |  9.74
Output  | 0.036486   | 0.036504   | 0.036521   |   0.0 |  0.00
Modify  | 12.596     | 12.606     | 12.616     |   0.3 |  1.65
Other   |            | 1.981      |            |       |  0.26

Nlocal:    9826 ave 9839 max 9813 min
Histogram: 1 0 0 0 0 0 0 0 0 1
Nghost:    11011.5 ave 11021 max 11002 min
Histogram: 1 0 0 0 0 0 0 0 0 1
Neighs:    506740 ave 507766 max 505715 min
Histogram: 1 0 0 0 0 0 0 0 0 1

Total # of neighbors = 1013481
Ave neighs/atom = 51.5714
Neighbor list builds = 9505
Dangerous builds not checked
Setting up Verlet run ...
  Unit style    : metal
  Current step  : 80000
  Time step     : 0.001
Per MPI rank memory allocation (min/avg/max) = 11.25 | 11.25 | 11.25 Mbytes
Step Temp Press TotEng PotEng Enthalpy 
   80000    2250.8039   -1438.1302   -107645.43   -113362.68   -108080.93 
   80495    2197.0982    -1199.246   -107867.07    -113447.9   -108229.68 
Loop time of 33.62 on 2 procs for 495 steps with 19652 atoms

Performance: 1.272 ns/day, 18.866 hours/ns, 14.723 timesteps/s
98.1% CPU use with 2 MPI tasks x no OpenMP threads

MPI task timing breakdown:
Section |  min time  |  avg time  |  max time  |%varavg| %total
---------------------------------------------------------------
Pair    | 17.864     | 17.997     | 18.131     |   3.1 | 53.53
Neigh   | 13.434     | 13.509     | 13.584     |   2.0 | 40.18
Comm    | 1.4271     | 1.6399     | 1.8527     |  16.6 |  4.88
Output  | 9.5129e-05 | 0.00011802 | 0.00014091 |   0.0 |  0.00
Modify  | 0.37396    | 0.37768    | 0.3814     |   0.6 |  1.12
Other   |            | 0.09583    |            |       |  0.29

Nlocal:    9826 ave 9847 max 9805 min
Histogram: 1 0 0 0 0 0 0 0 0 1
Nghost:    10981.5 ave 10982 max 10981 min
Histogram: 1 0 0 0 0 0 0 0 0 1
Neighs:    507266 ave 509048 max 505485 min
Histogram: 1 0 0 0 0 0 0 0 0 1

Total # of neighbors = 1014533
Ave neighs/atom = 51.6249
Neighbor list builds = 495
Dangerous builds not checked
Setting up Verlet run ...
  Unit style    : metal
  Current step  : 80495
  Time step     : 0.001
Per MPI rank memory allocation (min/avg/max) = 11.25 | 11.25 | 11.25 Mbytes
Step Temp Press TotEng PotEng Enthalpy 
   80495    2197.0982    -1199.246   -107867.07    -113447.9   -108229.68 
   90000    2182.9027    343.69165   -107946.66   -113491.43   -107842.97 
Loop time of 697.833 on 2 procs for 9505 steps with 19652 atoms

Performance: 1.177 ns/day, 20.394 hours/ns, 13.621 timesteps/s
96.1% CPU use with 2 MPI tasks x no OpenMP threads

MPI task timing breakdown:
Section |  min time  |  avg time  |  max time  |%varavg| %total
---------------------------------------------------------------
Pair    | 360.89     | 361.32     | 361.75     |   2.3 | 51.78
Neigh   | 270.32     | 270.47     | 270.62     |   0.9 | 38.76
Comm    | 52.464     | 52.743     | 53.021     |   3.8 |  7.56
Output  | 0.034405   | 0.034421   | 0.034436   |   0.0 |  0.00
Modify  | 11.382     | 11.386     | 11.39      |   0.1 |  1.63
Other   |            | 1.878      |            |       |  0.27

Nlocal:    9826 ave 9828 max 9824 min
Histogram: 1 0 0 0 0 0 0 0 0 1
Nghost:    10976 ave 10988 max 10964 min
Histogram: 1 0 0 0 0 0 0 0 0 1
Neighs:    508524 ave 508627 max 508422 min
Histogram: 1 0 0 0 0 0 0 0 0 1

Total # of neighbors = 1017049
Ave neighs/atom = 51.753
Neighbor list builds = 9505
Dangerous builds not checked
Setting up Verlet run ...
  Unit style    : metal
  Current step  : 90000
  Time step     : 0.001
Per MPI rank memory allocation (min/avg/max) = 11.26 | 11.26 | 11.26 Mbytes
Step Temp Press TotEng PotEng Enthalpy 
   90000    2182.9027    343.69165   -107946.66   -113491.43   -107842.97 
   90495    2158.8352    318.76651   -108128.82   -113612.46   -108032.79 
Loop time of 38.2673 on 2 procs for 495 steps with 19652 atoms

Performance: 1.118 ns/day, 21.474 hours/ns, 12.935 timesteps/s
92.4% CPU use with 2 MPI tasks x no OpenMP threads

MPI task timing breakdown:
Section |  min time  |  avg time  |  max time  |%varavg| %total
---------------------------------------------------------------
Pair    | 18.443     | 18.567     | 18.69      |   2.9 | 48.52
Neigh   | 13.831     | 13.867     | 13.902     |   1.0 | 36.24
Comm    | 3.3443     | 3.5066     | 3.6689     |   8.7 |  9.16
Output  | 6.9141e-05 | 9.0599e-05 | 0.00011206 |   0.0 |  0.00
Modify  | 2.2264     | 2.2296     | 2.2329     |   0.2 |  5.83
Other   |            | 0.09744    |            |       |  0.25

Nlocal:    9826 ave 9836 max 9816 min
Histogram: 1 0 0 0 0 0 0 0 0 1
Nghost:    11050.5 ave 11070 max 11031 min
Histogram: 1 0 0 0 0 0 0 0 0 1
Neighs:    509142 ave 510145 max 508140 min
Histogram: 1 0 0 0 0 0 0 0 0 1

Total # of neighbors = 1018285
Ave neighs/atom = 51.8158
Neighbor list builds = 495
Dangerous builds not checked
Setting up Verlet run ...
  Unit style    : metal
  Current step  : 90495
  Time step     : 0.001
Per MPI rank memory allocation (min/avg/max) = 11.26 | 11.26 | 11.26 Mbytes
Step Temp Press TotEng PotEng Enthalpy 
   90495    2158.8352    318.76651   -108128.82   -113612.46   -108032.79 
  100000    2179.7595    865.03388   -108211.71    -113748.5   -107951.43 
Loop time of 763.658 on 2 procs for 9505 steps with 19652 atoms

Performance: 1.075 ns/day, 22.317 hours/ns, 12.447 timesteps/s
93.2% CPU use with 2 MPI tasks x no OpenMP threads

MPI task timing breakdown:
Section |  min time  |  avg time  |  max time  |%varavg| %total
---------------------------------------------------------------
Pair    | 384.32     | 384.87     | 385.42     |   2.8 | 50.40
Neigh   | 276.13     | 277.29     | 278.46     |   7.0 | 36.31
Comm    | 88.336     | 88.498     | 88.659     |   1.7 | 11.59
Output  | 0.19482    | 0.19483    | 0.19485    |   0.0 |  0.03
Modify  | 10.095     | 10.876     | 11.656     |  23.7 |  1.42
Other   |            | 1.927      |            |       |  0.25

Nlocal:    9826 ave 9854 max 9798 min
Histogram: 1 0 0 0 0 0 0 0 0 1
Nghost:    11011 ave 11024 max 10998 min
Histogram: 1 0 0 0 0 0 0 0 0 1
Neighs:    510369 ave 512722 max 508016 min
Histogram: 1 0 0 0 0 0 0 0 0 1

Total # of neighbors = 1020738
Ave neighs/atom = 51.9407
Neighbor list builds = 9505
Dangerous builds not checked
Setting up Verlet run ...
  Unit style    : metal
  Current step  : 100000
  Time step     : 0.001
Per MPI rank memory allocation (min/avg/max) = 11.26 | 11.26 | 11.26 Mbytes
Step Temp Press TotEng PotEng Enthalpy 
  100000    2179.7595    865.03388   -108211.71    -113748.5   -107951.43 
  100495     2114.774    973.26397    -108449.2   -113820.92   -108156.81 
Loop time of 36.9552 on 2 procs for 495 steps with 19652 atoms

Performance: 1.157 ns/day, 20.738 hours/ns, 13.395 timesteps/s
97.9% CPU use with 2 MPI tasks x no OpenMP threads

MPI task timing breakdown:
Section |  min time  |  avg time  |  max time  |%varavg| %total
---------------------------------------------------------------
Pair    | 19.103     | 19.132     | 19.161     |   0.7 | 51.77
Neigh   | 14.624     | 14.667     | 14.711     |   1.1 | 39.69
Comm    | 1.3571     | 1.4304     | 1.5036     |   6.1 |  3.87
Output  | 9.3937e-05 | 0.00011098 | 0.00012803 |   0.0 |  0.00
Modify  | 1.6179     | 1.6184     | 1.6189     |   0.0 |  4.38
Other   |            | 0.107      |            |       |  0.29

Nlocal:    9826 ave 9842 max 9810 min
Histogram: 1 0 0 0 0 0 0 0 0 1
Nghost:    11030.5 ave 11036 max 11025 min
Histogram: 1 0 0 0 0 0 0 0 0 1
Neighs:    511082 ave 512917 max 509246 min
Histogram: 1 0 0 0 0 0 0 0 0 1

Total # of neighbors = 1022163
Ave neighs/atom = 52.0132
Neighbor list builds = 495
Dangerous builds not checked
Setting up Verlet run ...
  Unit style    : metal
  Current step  : 100495
  Time step     : 0.001
Per MPI rank memory allocation (min/avg/max) = 11.26 | 11.26 | 11.26 Mbytes
Step Temp Press TotEng PotEng Enthalpy 
  100495     2114.774    973.26397    -108449.2   -113820.92   -108156.81 
  110000    2115.4236    521.78629   -108530.68   -113904.05   -108373.95 
Loop time of 729.017 on 2 procs for 9505 steps with 19652 atoms

Performance: 1.126 ns/day, 21.305 hours/ns, 13.038 timesteps/s
96.5% CPU use with 2 MPI tasks x no OpenMP threads

MPI task timing breakdown:
Section |  min time  |  avg time  |  max time  |%varavg| %total
---------------------------------------------------------------
Pair    | 383.86     | 383.93     | 384.01     |   0.4 | 52.66
Neigh   | 281.56     | 282.49     | 283.43     |   5.6 | 38.75
Comm    | 48.72      | 49.593     | 50.465     |  12.4 |  6.80
Output  | 0.031023   | 0.031054   | 0.031085   |   0.0 |  0.00
Modify  | 10.962     | 10.965     | 10.968     |   0.1 |  1.50
Other   |            | 2.001      |            |       |  0.27

Nlocal:    9826 ave 9837 max 9815 min
Histogram: 1 0 0 0 0 0 0 0 0 1
Nghost:    11040.5 ave 11057 max 11024 min
Histogram: 1 0 0 0 0 0 0 0 0 1
Neighs:    511035 ave 511295 max 510775 min
Histogram: 1 0 0 0 0 0 0 0 0 1

Total # of neighbors = 1022070
Ave neighs/atom = 52.0084
Neighbor list builds = 9505
Dangerous builds not checked
Setting up Verlet run ...
  Unit style    : metal
  Current step  : 110000
  Time step     : 0.001
Per MPI rank memory allocation (min/avg/max) = 11.26 | 11.26 | 11.26 Mbytes
Step Temp Press TotEng PotEng Enthalpy 
  110000    2115.4236    521.78629   -108530.68   -113904.05   -108373.95 
  110495    2038.9404    358.39657   -108839.15   -114018.24   -108731.63 
Loop time of 37.6825 on 2 procs for 495 steps with 19652 atoms

Performance: 1.135 ns/day, 21.146 hours/ns, 13.136 timesteps/s
95.9% CPU use with 2 MPI tasks x no OpenMP threads

MPI task timing breakdown:
Section |  min time  |  avg time  |  max time  |%varavg| %total
---------------------------------------------------------------
Pair    | 20.174     | 20.239     | 20.303     |   1.4 | 53.71
Neigh   | 14.134     | 14.278     | 14.421     |   3.8 | 37.89
Comm    | 2.5829     | 2.6636     | 2.7444     |   4.9 |  7.07
Output  | 8.1062e-05 | 0.00010347 | 0.00012589 |   0.0 |  0.00
Modify  | 0.39853    | 0.40033    | 0.40213    |   0.3 |  1.06
Other   |            | 0.1022     |            |       |  0.27

Nlocal:    9826 ave 9838 max 9814 min
Histogram: 1 0 0 0 0 0 0 0 0 1
Nghost:    11054 ave 11060 max 11048 min
Histogram: 1 0 0 0 0 0 0 0 0 1
Neighs:    511688 ave 512802 max 510575 min
Histogram: 1 0 0 0 0 0 0 0 0 1

Total # of neighbors = 1023377
Ave neighs/atom = 52.075
Neighbor list builds = 495
Dangerous builds not checked
Setting up Verlet run ...
  Unit style    : metal
  Current step  : 110495
  Time step     : 0.001
Per MPI rank memory allocation (min/avg/max) = 11.26 | 11.26 | 11.26 Mbytes
Step Temp Press TotEng PotEng Enthalpy 
  110495    2038.9404    358.39657   -108839.15   -114018.24   -108731.63 
  120000    2040.5284   -1179.9877   -108881.19   -114064.31   -109235.89 
Loop time of 780.717 on 2 procs for 9505 steps with 19652 atoms

Performance: 1.052 ns/day, 22.816 hours/ns, 12.175 timesteps/s
92.3% CPU use with 2 MPI tasks x no OpenMP threads

MPI task timing breakdown:
Section |  min time  |  avg time  |  max time  |%varavg| %total
---------------------------------------------------------------
Pair    | 398.7      | 399.5      | 400.3      |   4.0 | 51.17
Neigh   | 273.3      | 275.01     | 276.72     |  10.3 | 35.23
Comm    | 90.338     | 90.66      | 90.982     |   3.4 | 11.61
Output  | 1.5135     | 1.5135     | 1.5135     |   0.0 |  0.19
Modify  | 11.515     | 12.115     | 12.715     |  17.2 |  1.55
Other   |            | 1.919      |            |       |  0.25

Nlocal:    9826 ave 9835 max 9817 min
Histogram: 1 0 0 0 0 0 0 0 0 1
Nghost:    11056.5 ave 11064 max 11049 min
Histogram: 1 0 0 0 0 0 0 0 0 1
Neighs:    510608 ave 511933 max 509283 min
Histogram: 1 0 0 0 0 0 0 0 0 1

Total # of neighbors = 1021216
Ave neighs/atom = 51.965
Neighbor list builds = 9505
Dangerous builds not checked
Setting up Verlet run ...
  Unit style    : metal
  Current step  : 120000
  Time step     : 0.001
Per MPI rank memory allocation (min/avg/max) = 11.27 | 11.27 | 11.27 Mbytes
Step Temp Press TotEng PotEng Enthalpy 
  120000    2040.5284   -1179.9877   -108881.19   -114064.31   -109235.89 
  120495    2011.9954   -226.18663   -109094.32   -114204.98   -109162.16 
Loop time of 37.564 on 2 procs for 495 steps with 19652 atoms

Performance: 1.139 ns/day, 21.080 hours/ns, 13.177 timesteps/s
96.2% CPU use with 2 MPI tasks x no OpenMP threads

MPI task timing breakdown:
Section |  min time  |  avg time  |  max time  |%varavg| %total
---------------------------------------------------------------
Pair    | 18.73      | 18.744     | 18.757     |   0.3 | 49.90
Neigh   | 14.064     | 14.202     | 14.34      |   3.7 | 37.81
Comm    | 3.9611     | 4.1158     | 4.2704     |   7.6 | 10.96
Output  | 7.7009e-05 | 0.00010848 | 0.00013995 |   0.0 |  0.00
Modify  | 0.39744    | 0.39964    | 0.40184    |   0.3 |  1.06
Other   |            | 0.1029     |            |       |  0.27

Nlocal:    9826 ave 9829 max 9823 min
Histogram: 1 0 0 0 0 0 0 0 0 1
Nghost:    11082.5 ave 11090 max 11075 min
Histogram: 1 0 0 0 0 0 0 0 0 1
Neighs:    511824 ave 512060 max 511588 min
Histogram: 1 0 0 0 0 0 0 0 0 1

Total # of neighbors = 1023648
Ave neighs/atom = 52.0887
Neighbor list builds = 495
Dangerous builds not checked
Setting up Verlet run ...
  Unit style    : metal
  Current step  : 120495
  Time step     : 0.001
Per MPI rank memory allocation (min/avg/max) = 11.27 | 11.27 | 11.27 Mbytes
Step Temp Press TotEng PotEng Enthalpy 
  120495    2011.9954   -226.18663   -109094.32   -114204.98   -109162.16 
  130000    1998.8868   -78.313686   -109216.68   -114294.04   -109240.13 
Loop time of 731.105 on 2 procs for 9505 steps with 19652 atoms

Performance: 1.123 ns/day, 21.366 hours/ns, 13.001 timesteps/s
95.4% CPU use with 2 MPI tasks x no OpenMP threads

MPI task timing breakdown:
Section |  min time  |  avg time  |  max time  |%varavg| %total
---------------------------------------------------------------
Pair    | 377.97     | 379.74     | 381.52     |   9.1 | 51.94
Neigh   | 274.81     | 276.05     | 277.29     |   7.5 | 37.76
Comm    | 61.057     | 61.567     | 62.076     |   6.5 |  8.42
Output  | 0.036941   | 0.037008   | 0.037075   |   0.0 |  0.01
Modify  | 11.746     | 11.76      | 11.774     |   0.4 |  1.61
Other   |            | 1.952      |            |       |  0.27

Nlocal:    9826 ave 9840 max 9812 min
Histogram: 1 0 0 0 0 0 0 0 0 1
Nghost:    11038 ave 11054 max 11022 min
Histogram: 1 0 0 0 0 0 0 0 0 1
Neighs:    512941 ave 514135 max 511747 min
Histogram: 1 0 0 0 0 0 0 0 0 1

Total # of neighbors = 1025882
Ave neighs/atom = 52.2024
Neighbor list builds = 9505
Dangerous builds not checked
Setting up Verlet run ...
  Unit style    : metal
  Current step  : 130000
  Time step     : 0.001
Per MPI rank memory allocation (min/avg/max) = 11.27 | 11.27 | 11.27 Mbytes
Step Temp Press TotEng PotEng Enthalpy 
  130000    1998.8868   -78.313686   -109216.68   -114294.04   -109240.13 
  130495     1951.406    186.15123   -109451.08   -114407.83    -109395.4 
Loop time of 36.545 on 2 procs for 495 steps with 19652 atoms

Performance: 1.170 ns/day, 20.508 hours/ns, 13.545 timesteps/s
95.2% CPU use with 2 MPI tasks x no OpenMP threads

MPI task timing breakdown:
Section |  min time  |  avg time  |  max time  |%varavg| %total
---------------------------------------------------------------
Pair    | 19.881     | 19.903     | 19.926     |   0.5 | 54.46
Neigh   | 14.048     | 14.144     | 14.24      |   2.6 | 38.70
Comm    | 1.8777     | 1.9976     | 2.1175     |   8.5 |  5.47
Output  | 8.5115e-05 | 0.00013161 | 0.0001781  |   0.0 |  0.00
Modify  | 0.39623    | 0.39734    | 0.39845    |   0.2 |  1.09
Other   |            | 0.1025     |            |       |  0.28

Nlocal:    9826 ave 9833 max 9819 min
Histogram: 1 0 0 0 0 0 0 0 0 1
Nghost:    11070.5 ave 11086 max 11055 min
Histogram: 1 0 0 0 0 0 0 0 0 1
Neighs:    513794 ave 514179 max 513410 min
Histogram: 1 0 0 0 0 0 0 0 0 1

Total # of neighbors = 1027589
Ave neighs/atom = 52.2893
Neighbor list builds = 495
Dangerous builds not checked
Setting up Verlet run ...
  Unit style    : metal
  Current step  : 130495
  Time step     : 0.001
Per MPI rank memory allocation (min/avg/max) = 11.27 | 11.27 | 11.27 Mbytes
Step Temp Press TotEng PotEng Enthalpy 
  130495     1951.406    186.15123   -109451.08   -114407.83    -109395.4 
  140000    1949.5827    238.65683   -109493.86   -114445.98   -109422.52 
Loop time of 772.686 on 2 procs for 9505 steps with 19652 atoms

Performance: 1.063 ns/day, 22.581 hours/ns, 12.301 timesteps/s
94.9% CPU use with 2 MPI tasks x no OpenMP threads

MPI task timing breakdown:
Section |  min time  |  avg time  |  max time  |%varavg| %total
---------------------------------------------------------------
Pair    | 403.07     | 404.03     | 405        |   4.8 | 52.29
Neigh   | 279.82     | 281.31     | 282.8      |   8.9 | 36.41
Comm    | 74.58      | 75.205     | 75.829     |   7.2 |  9.73
Output  | 0.24873    | 0.24877    | 0.2488     |   0.0 |  0.03
Modify  | 9.7776     | 9.86       | 9.9424     |   2.6 |  1.28
Other   |            | 2.032      |            |       |  0.26

Nlocal:    9826 ave 9838 max 9814 min
Histogram: 1 0 0 0 0 0 0 0 0 1
Nghost:    11098 ave 11124 max 11072 min
Histogram: 1 0 0 0 0 0 0 0 0 1
Neighs:    513938 ave 514349 max 513526 min
Histogram: 1 0 0 0 0 0 0 0 0 1

Total # of neighbors = 1027875
Ave neighs/atom = 52.3038
Neighbor list builds = 9505
Dangerous builds not checked
Setting up Verlet run ...
  Unit style    : metal
  Current step  : 140000
  Time step     : 0.001
Per MPI rank memory allocation (min/avg/max) = 11.27 | 11.27 | 11.27 Mbytes
Step Temp Press TotEng PotEng Enthalpy 
  140000    1949.5827    238.65683   -109493.86   -114445.98   -109422.52 
  140495    1928.3736      1140.46   -109713.54   -114611.78   -109373.35 
Loop time of 38.4896 on 2 procs for 495 steps with 19652 atoms

Performance: 1.111 ns/day, 21.599 hours/ns, 12.861 timesteps/s
95.6% CPU use with 2 MPI tasks x no OpenMP threads

MPI task timing breakdown:
Section |  min time  |  avg time  |  max time  |%varavg| %total
---------------------------------------------------------------
Pair    | 20.063     | 20.119     | 20.174     |   1.2 | 52.27
Neigh   | 14.168     | 14.312     | 14.455     |   3.8 | 37.18
Comm    | 3.3436     | 3.547      | 3.7504     |  10.8 |  9.22
Output  | 8.9169e-05 | 0.00011361 | 0.00013804 |   0.0 |  0.00
Modify  | 0.40355    | 0.40745    | 0.41136    |   0.6 |  1.06
Other   |            | 0.105      |            |       |  0.27

Nlocal:    9826 ave 9829 max 9823 min
Histogram: 1 0 0 0 0 0 0 0 0 1
Nghost:    11072.5 ave 11094 max 11051 min
Histogram: 1 0 0 0 0 0 0 0 0 1
Neighs:    515204 ave 515885 max 514524 min
Histogram: 1 0 0 0 0 0 0 0 0 1

Total # of neighbors = 1030409
Ave neighs/atom = 52.4328
Neighbor list builds = 495
Dangerous builds not checked
Setting up Verlet run ...
  Unit style    : metal
  Current step  : 140495
  Time step     : 0.001
Per MPI rank memory allocation (min/avg/max) = 11.27 | 11.27 | 11.27 Mbytes
Step Temp Press TotEng PotEng Enthalpy 
  140495    1928.3736      1140.46   -109713.54   -114611.78   -109373.35 
  150000    1912.2909   -198.16697   -109818.17   -114675.56   -109877.37 
Loop time of 793.653 on 2 procs for 9505 steps with 19652 atoms

Performance: 1.035 ns/day, 23.194 hours/ns, 11.976 timesteps/s
94.6% CPU use with 2 MPI tasks x no OpenMP threads

MPI task timing breakdown:
Section |  min time  |  avg time  |  max time  |%varavg| %total
---------------------------------------------------------------
Pair    | 409.17     | 410.83     | 412.48     |   8.2 | 51.76
Neigh   | 287.34     | 288.55     | 289.75     |   7.1 | 36.36
Comm    | 77.888     | 79.183     | 80.479     |  14.6 |  9.98
Output  | 0.034832   | 0.034904   | 0.034977   |   0.0 |  0.00
Modify  | 12.069     | 12.922     | 13.775     |  23.7 |  1.63
Other   |            | 2.141      |            |       |  0.27

Nlocal:    9826 ave 9837 max 9815 min
Histogram: 1 0 0 0 0 0 0 0 0 1
Nghost:    11074 ave 11096 max 11052 min
Histogram: 1 0 0 0 0 0 0 0 0 1
Neighs:    514162 ave 515397 max 512927 min
Histogram: 1 0 0 0 0 0 0 0 0 1

Total # of neighbors = 1028324
Ave neighs/atom = 52.3267
Neighbor list builds = 9505
Dangerous builds not checked
Setting up Verlet run ...
  Unit style    : metal
  Current step  : 150000
  Time step     : 0.001
Per MPI rank memory allocation (min/avg/max) = 11.28 | 11.28 | 11.28 Mbytes
Step Temp Press TotEng PotEng Enthalpy 
  150000    1912.2909   -198.16697   -109818.17   -114675.56   -109877.37 
  150495    1856.5341   -888.67574   -110033.02   -114748.78   -110298.36 
Loop time of 36.8846 on 2 procs for 495 steps with 19652 atoms

Performance: 1.160 ns/day, 20.698 hours/ns, 13.420 timesteps/s
99.9% CPU use with 2 MPI tasks x no OpenMP threads

MPI task timing breakdown:
Section |  min time  |  avg time  |  max time  |%varavg| %total
---------------------------------------------------------------
Pair    | 19.952     | 20.008     | 20.064     |   1.2 | 54.24
Neigh   | 14.816     | 14.844     | 14.872     |   0.7 | 40.24
Comm    | 1.4697     | 1.4972     | 1.5248     |   2.3 |  4.06
Output  | 9.9182e-05 | 0.00013959 | 0.00018001 |   0.0 |  0.00
Modify  | 0.42273    | 0.42319    | 0.42364    |   0.1 |  1.15
Other   |            | 0.1125     |            |       |  0.30

Nlocal:    9826 ave 9840 max 9812 min
Histogram: 1 0 0 0 0 0 0 0 0 1
Nghost:    11074 ave 11119 max 11029 min
Histogram: 1 0 0 0 0 0 0 0 0 1
Neighs:    514326 ave 514657 max 513996 min
Histogram: 1 0 0 0 0 0 0 0 0 1

Total # of neighbors = 1028653
Ave neighs/atom = 52.3434
Neighbor list builds = 495
Dangerous builds not checked
Setting up Verlet run ...
  Unit style    : metal
  Current step  : 150495
  Time step     : 0.001
Per MPI rank memory allocation (min/avg/max) = 11.28 | 11.28 | 11.28 Mbytes
Step Temp Press TotEng PotEng Enthalpy 
  150495    1856.5341   -888.67574   -110033.02   -114748.78   -110298.36 
  160000    1842.2211    1891.5851   -110222.87   -114902.28   -109660.79 
Loop time of 769.394 on 2 procs for 9505 steps with 19652 atoms

Performance: 1.067 ns/day, 22.485 hours/ns, 12.354 timesteps/s
96.3% CPU use with 2 MPI tasks x no OpenMP threads

MPI task timing breakdown:
Section |  min time  |  avg time  |  max time  |%varavg| %total
---------------------------------------------------------------
Pair    | 410.58     | 410.98     | 411.37     |   1.9 | 53.42
Neigh   | 289.51     | 290.82     | 292.13     |   7.7 | 37.80
Comm    | 53.105     | 54.04      | 54.974     |  12.7 |  7.02
Output  | 0.036116   | 0.036134   | 0.036152   |   0.0 |  0.00
Modify  | 11.35      | 11.364     | 11.379     |   0.4 |  1.48
Other   |            | 2.163      |            |       |  0.28

Nlocal:    9826 ave 9830 max 9822 min
Histogram: 1 0 0 0 0 0 0 0 0 1
Nghost:    11098.5 ave 11103 max 11094 min
Histogram: 1 0 0 0 0 0 0 0 0 1
Neighs:    517428 ave 517504 max 517351 min
Histogram: 1 0 0 0 0 0 0 0 0 1

Total # of neighbors = 1034855
Ave neighs/atom = 52.659
Neighbor list builds = 9505
Dangerous builds not checked
Setting up Verlet run ...
  Unit style    : metal
  Current step  : 160000
  Time step     : 0.001
Per MPI rank memory allocation (min/avg/max) = 11.28 | 11.28 | 11.28 Mbytes
Step Temp Press TotEng PotEng Enthalpy 
  160000    1842.2211    1891.5851   -110222.87   -114902.28   -109660.79 
  160495    1817.7058    1713.9353   -110396.04   -115013.18   -109887.14 
Loop time of 36.9998 on 2 procs for 495 steps with 19652 atoms

Performance: 1.156 ns/day, 20.763 hours/ns, 13.378 timesteps/s
99.9% CPU use with 2 MPI tasks x no OpenMP threads

MPI task timing breakdown:
Section |  min time  |  avg time  |  max time  |%varavg| %total
---------------------------------------------------------------
Pair    | 20.002     | 20.019     | 20.035     |   0.4 | 54.10
Neigh   | 15.003     | 15.041     | 15.079     |   1.0 | 40.65
Comm    | 1.3735     | 1.3949     | 1.4164     |   1.8 |  3.77
Output  | 0.00010109 | 0.00013697 | 0.00017285 |   0.0 |  0.00
Modify  | 0.43011    | 0.43115    | 0.43219    |   0.2 |  1.17
Other   |            | 0.1141     |            |       |  0.31

Nlocal:    9826 ave 9832 max 9820 min
Histogram: 1 0 0 0 0 0 0 0 0 1
Nghost:    11118.5 ave 11120 max 11117 min
Histogram: 1 0 0 0 0 0 0 0 0 1
Neighs:    517958 ave 518572 max 517343 min
Histogram: 1 0 0 0 0 0 0 0 0 1

Total # of neighbors = 1035915
Ave neighs/atom = 52.713
Neighbor list builds = 495
Dangerous builds not checked
Setting up Verlet run ...
  Unit style    : metal
  Current step  : 160495
  Time step     : 0.001
Per MPI rank memory allocation (min/avg/max) = 11.28 | 11.28 | 11.28 Mbytes
Step Temp Press TotEng PotEng Enthalpy 
  160495    1817.7058    1713.9353   -110396.04   -115013.18   -109887.14 
  170000    1772.1222   -657.51939   -110555.21   -115056.56   -110750.98 
Loop time of 739.409 on 2 procs for 9505 steps with 19652 atoms

Performance: 1.111 ns/day, 21.609 hours/ns, 12.855 timesteps/s
98.8% CPU use with 2 MPI tasks x no OpenMP threads

MPI task timing breakdown:
Section |  min time  |  avg time  |  max time  |%varavg| %total
---------------------------------------------------------------
Pair    | 403.32     | 403.97     | 404.62     |   3.2 | 54.63
Neigh   | 295.64     | 296.22     | 296.8      |   3.4 | 40.06
Comm    | 28.622     | 28.696     | 28.77      |   1.4 |  3.88
Output  | 0.035543   | 0.035613   | 0.035683   |   0.0 |  0.00
Modify  | 8.2694     | 8.2756     | 8.2818     |   0.2 |  1.12
Other   |            | 2.208      |            |       |  0.30

Nlocal:    9826 ave 9828 max 9824 min
Histogram: 1 0 0 0 0 0 0 0 0 1
Nghost:    11074.5 ave 11104 max 11045 min
Histogram: 1 0 0 0 0 0 0 0 0 1
Neighs:    516396 ave 516927 max 515865 min
Histogram: 1 0 0 0 0 0 0 0 0 1

Total # of neighbors = 1032792
Ave neighs/atom = 52.554
Neighbor list builds = 9505
Dangerous builds not checked
Setting up Verlet run ...
  Unit style    : metal
  Current step  : 170000
  Time step     : 0.001
Per MPI rank memory allocation (min/avg/max) = 11.28 | 11.28 | 11.28 Mbytes
Step Temp Press TotEng PotEng Enthalpy 
  170000    1772.1222   -657.51939   -110555.21   -115056.56   -110750.98 
  170495    1764.2037   -515.37308   -110683.86    -115165.1    -110837.1 
Loop time of 47.1033 on 2 procs for 495 steps with 19652 atoms

Performance: 0.908 ns/day, 26.433 hours/ns, 10.509 timesteps/s
87.8% CPU use with 2 MPI tasks x no OpenMP threads

MPI task timing breakdown:
Section |  min time  |  avg time  |  max time  |%varavg| %total
---------------------------------------------------------------
Pair    | 28.664     | 28.759     | 28.853     |   1.8 | 61.05
Neigh   | 14.903     | 14.937     | 14.971     |   0.9 | 31.71
Comm    | 2.742      | 2.8703     | 2.9986     |   7.6 |  6.09
Output  | 0.00010896 | 0.00014448 | 0.00018001 |   0.0 |  0.00
Modify  | 0.42465    | 0.42474    | 0.42483    |   0.0 |  0.90
Other   |            | 0.1125     |            |       |  0.24

Nlocal:    9826 ave 9827 max 9825 min
Histogram: 1 0 0 0 0 0 0 0 0 1
Nghost:    11083 ave 11091 max 11075 min
Histogram: 1 0 0 0 0 0 0 0 0 1
Neighs:    517304 ave 517495 max 517114 min
Histogram: 1 0 0 0 0 0 0 0 0 1

Total # of neighbors = 1034609
Ave neighs/atom = 52.6465
Neighbor list builds = 495
Dangerous builds not checked
Setting up Verlet run ...
  Unit style    : metal
  Current step  : 170495
  Time step     : 0.001
Per MPI rank memory allocation (min/avg/max) = 11.28 | 11.28 | 11.28 Mbytes
Step Temp Press TotEng PotEng Enthalpy 
  170495    1764.2037   -515.37308   -110683.86    -115165.1    -110837.1 
  180000    1741.3549    1695.1176   -110819.54   -115242.74   -110317.31 
Loop time of 779.268 on 2 procs for 9505 steps with 19652 atoms

Performance: 1.054 ns/day, 22.774 hours/ns, 12.197 timesteps/s
96.5% CPU use with 2 MPI tasks x no OpenMP threads

MPI task timing breakdown:
Section |  min time  |  avg time  |  max time  |%varavg| %total
---------------------------------------------------------------
Pair    | 415.52     | 416.41     | 417.29     |   4.3 | 53.44
Neigh   | 297.24     | 298.06     | 298.88     |   4.8 | 38.25
Comm    | 52.863     | 52.922     | 52.981     |   0.8 |  6.79
Output  | 0.036883   | 0.036917   | 0.03695    |   0.0 |  0.00
Modify  | 9.5833     | 9.5848     | 9.5862     |   0.0 |  1.23
Other   |            | 2.255      |            |       |  0.29

Nlocal:    9826 ave 9835 max 9817 min
Histogram: 1 0 0 0 0 0 0 0 0 1
Nghost:    11059.5 ave 11086 max 11033 min
Histogram: 1 0 0 0 0 0 0 0 0 1
Neighs:    519338 ave 519408 max 519268 min
Histogram: 1 0 0 0 0 0 0 0 0 1

Total # of neighbors = 1038676
Ave neighs/atom = 52.8535
Neighbor list builds = 9505
Dangerous builds not checked
Setting up Verlet run ...
  Unit style    : metal
  Current step  : 180000
  Time step     : 0.001
Per MPI rank memory allocation (min/avg/max) = 11.28 | 11.28 | 11.28 Mbytes
Step Temp Press TotEng PotEng Enthalpy 
  180000    1741.3549    1695.1176   -110819.54   -115242.74   -110317.31 
  180495     1722.589    908.20811   -111002.77    -115378.3   -110733.71 
Loop time of 36.8742 on 2 procs for 495 steps with 19652 atoms

Performance: 1.160 ns/day, 20.693 hours/ns, 13.424 timesteps/s
99.9% CPU use with 2 MPI tasks x no OpenMP threads

MPI task timing breakdown:
Section |  min time  |  avg time  |  max time  |%varavg| %total
---------------------------------------------------------------
Pair    | 19.907     | 19.928     | 19.948     |   0.5 | 54.04
Neigh   | 14.896     | 14.971     | 15.046     |   1.9 | 40.60
Comm    | 1.3738     | 1.4292     | 1.4846     |   4.6 |  3.88
Output  | 9.2983e-05 | 0.00011945 | 0.00014591 |   0.0 |  0.00
Modify  | 0.43107    | 0.43133    | 0.43159    |   0.0 |  1.17
Other   |            | 0.1146     |            |       |  0.31

Nlocal:    9826 ave 9830 max 9822 min
Histogram: 1 0 0 0 0 0 0 0 0 1
Nghost:    11075.5 ave 11083 max 11068 min
Histogram: 1 0 0 0 0 0 0 0 0 1
Neighs:    519410 ave 519617 max 519203 min
Histogram: 1 0 0 0 0 0 0 0 0 1

Total # of neighbors = 1038820
Ave neighs/atom = 52.8608
Neighbor list builds = 495
Dangerous builds not checked
Setting up Verlet run ...
  Unit style    : metal
  Current step  : 180495
  Time step     : 0.001
Per MPI rank memory allocation (min/avg/max) = 11.28 | 11.28 | 11.28 Mbytes
Step Temp Press TotEng PotEng Enthalpy 
  180495     1722.589    908.20811   -111002.77    -115378.3   -110733.71 
  190000    1712.5407   -884.75102   -111108.49    -115458.5   -111371.22 
Loop time of 760.029 on 2 procs for 9505 steps with 19652 atoms

Performance: 1.081 ns/day, 22.211 hours/ns, 12.506 timesteps/s
97.3% CPU use with 2 MPI tasks x no OpenMP threads

MPI task timing breakdown:
Section |  min time  |  avg time  |  max time  |%varavg| %total
---------------------------------------------------------------
Pair    | 410.12     | 411.31     | 412.49     |   5.9 | 54.12
Neigh   | 292.46     | 293.85     | 295.25     |   8.1 | 38.66
Comm    | 40.607     | 41.75      | 42.893     |  17.7 |  5.49
Output  | 0.036572   | 0.036594   | 0.036616   |   0.0 |  0.00
Modify  | 9.9513     | 10.881     | 11.811     |  28.2 |  1.43
Other   |            | 2.201      |            |       |  0.29

Nlocal:    9826 ave 9838 max 9814 min
Histogram: 1 0 0 0 0 0 0 0 0 1
Nghost:    11080 ave 11108 max 11052 min
Histogram: 1 0 0 0 0 0 0 0 0 1
Neighs:    518237 ave 518635 max 517839 min
Histogram: 1 0 0 0 0 0 0 0 0 1

Total # of neighbors = 1036474
Ave neighs/atom = 52.7414
Neighbor list builds = 9505
Dangerous builds not checked
Setting up Verlet run ...
  Unit style    : metal
  Current step  : 190000
  Time step     : 0.001
Per MPI rank memory allocation (min/avg/max) = 11.29 | 11.29 | 11.29 Mbytes
Step Temp Press TotEng PotEng Enthalpy 
  190000    1712.5407   -884.75102   -111108.49    -115458.5   -111371.22 
  190495    1673.2222    -565.6565   -111349.94   -115600.07   -111517.64 
Loop time of 36.8496 on 2 procs for 495 steps with 19652 atoms

Performance: 1.161 ns/day, 20.679 hours/ns, 13.433 timesteps/s
99.9% CPU use with 2 MPI tasks x no OpenMP threads

MPI task timing breakdown:
Section |  min time  |  avg time  |  max time  |%varavg| %total
---------------------------------------------------------------
Pair    | 19.83      | 19.847     | 19.864     |   0.4 | 53.86
Neigh   | 14.944     | 15.048     | 15.152     |   2.7 | 40.84
Comm    | 1.3188     | 1.4094     | 1.5001     |   7.6 |  3.82
Output  | 0.0001049  | 0.00018942 | 0.00027394 |   0.0 |  0.00
Modify  | 0.42665    | 0.42949    | 0.43234    |   0.4 |  1.17
Other   |            | 0.1154     |            |       |  0.31

Nlocal:    9826 ave 9847 max 9805 min
Histogram: 1 0 0 0 0 0 0 0 0 1
Nghost:    11084.5 ave 11100 max 11069 min
Histogram: 1 0 0 0 0 0 0 0 0 1
Neighs:    519216 ave 520525 max 517906 min
Histogram: 1 0 0 0 0 0 0 0 0 1

Total # of neighbors = 1038431
Ave neighs/atom = 52.841
Neighbor list builds = 495
Dangerous builds not checked
Setting up Verlet run ...
  Unit style    : metal
  Current step  : 190495
  Time step     : 0.001
Per MPI rank memory allocation (min/avg/max) = 11.29 | 11.29 | 11.29 Mbytes
Step Temp Press TotEng PotEng Enthalpy 
  190495    1673.2222    -565.6565   -111349.94   -115600.07   -111517.64 
  200000    1653.9442   -311.96411   -111488.36   -115689.53   -111580.72 
Loop time of 786.862 on 2 procs for 9505 steps with 19652 atoms

Performance: 1.044 ns/day, 22.996 hours/ns, 12.080 timesteps/s
95.5% CPU use with 2 MPI tasks x no OpenMP threads

MPI task timing breakdown:
Section |  min time  |  avg time  |  max time  |%varavg| %total
---------------------------------------------------------------
Pair    | 424.71     | 425.96     | 427.2      |   6.0 | 54.13
Neigh   | 293.46     | 293.94     | 294.43     |   2.9 | 37.36
Comm    | 51.088     | 51.848     | 52.607     |  10.5 |  6.59
Output  | 0.038276   | 0.0383     | 0.038324   |   0.0 |  0.00
Modify  | 12.864     | 12.867     | 12.87      |   0.1 |  1.64
Other   |            | 2.21       |            |       |  0.28

Nlocal:    9826 ave 9835 max 9817 min
Histogram: 1 0 0 0 0 0 0 0 0 1
Nghost:    11075.5 ave 11084 max 11067 min
Histogram: 1 0 0 0 0 0 0 0 0 1
Neighs:    519947 ave 520883 max 519011 min
Histogram: 1 0 0 0 0 0 0 0 0 1

Total # of neighbors = 1039894
Ave neighs/atom = 52.9154
Neighbor list builds = 9505
Dangerous builds not checked
Setting up Verlet run ...
  Unit style    : metal
  Current step  : 200000
  Time step     : 0.001
Per MPI rank memory allocation (min/avg/max) = 11.29 | 11.29 | 11.29 Mbytes
Step Temp Press TotEng PotEng Enthalpy 
  200000    1653.9442   -311.96411   -111488.36   -115689.53   -111580.72 
  200495    1602.0538    171.51679   -111719.63   -115788.99   -111668.94 
Loop time of 37.5229 on 2 procs for 495 steps with 19652 atoms

Performance: 1.140 ns/day, 21.057 hours/ns, 13.192 timesteps/s
98.6% CPU use with 2 MPI tasks x no OpenMP threads

MPI task timing breakdown:
Section |  min time  |  avg time  |  max time  |%varavg| %total
---------------------------------------------------------------
Pair    | 20.003     | 20.08      | 20.157     |   1.7 | 53.51
Neigh   | 14.909     | 14.972     | 15.036     |   1.6 | 39.90
Comm    | 1.9126     | 1.9225     | 1.9324     |   0.7 |  5.12
Output  | 0.00010586 | 0.00013733 | 0.0001688  |   0.0 |  0.00
Modify  | 0.42618    | 0.42965    | 0.43312    |   0.5 |  1.15
Other   |            | 0.1182     |            |       |  0.31

Nlocal:    9826 ave 9851 max 9801 min
Histogram: 1 0 0 0 0 0 0 0 0 1
Nghost:    11086 ave 11095 max 11077 min
Histogram: 1 0 0 0 0 0 0 0 0 1
Neighs:    520924 ave 522485 max 519363 min
Histogram: 1 0 0 0 0 0 0 0 0 1

Total # of neighbors = 1041848
Ave neighs/atom = 53.0149
Neighbor list builds = 495
Dangerous builds not checked
Setting up Verlet run ...
  Unit style    : metal
  Current step  : 200495
  Time step     : 0.001
Per MPI rank memory allocation (min/avg/max) = 11.29 | 11.29 | 11.29 Mbytes
Step Temp Press TotEng PotEng Enthalpy 
  200495    1602.0538    171.51679   -111719.63   -115788.99   -111668.94 
  210000    1595.2041   -26.687085    -111810.6   -115862.56   -111818.48 
Loop time of 769.291 on 2 procs for 9505 steps with 19652 atoms

Performance: 1.068 ns/day, 22.482 hours/ns, 12.356 timesteps/s
96.3% CPU use with 2 MPI tasks x no OpenMP threads

MPI task timing breakdown:
Section |  min time  |  avg time  |  max time  |%varavg| %total
---------------------------------------------------------------
Pair    | 404.68     | 406.67     | 408.65     |   9.9 | 52.86
Neigh   | 289.21     | 289.79     | 290.38     |   3.4 | 37.67
Comm    | 57.25      | 59.863     | 62.475     |  33.8 |  7.78
Output  | 0.036712   | 0.036793   | 0.036875   |   0.0 |  0.00
Modify  | 10.718     | 10.752     | 10.786     |   1.0 |  1.40
Other   |            | 2.179      |            |       |  0.28

Nlocal:    9826 ave 9845 max 9807 min
Histogram: 1 0 0 0 0 0 0 0 0 1
Nghost:    11130.5 ave 11145 max 11116 min
Histogram: 1 0 0 0 0 0 0 0 0 1
Neighs:    521378 ave 521724 max 521031 min
Histogram: 1 0 0 0 0 0 0 0 0 1

Total # of neighbors = 1042755
Ave neighs/atom = 53.061
Neighbor list builds = 9505
Dangerous builds not checked
Setting up Verlet run ...
  Unit style    : metal
  Current step  : 210000
  Time step     : 0.001
Per MPI rank memory allocation (min/avg/max) = 11.29 | 11.29 | 11.29 Mbytes
Step Temp Press TotEng PotEng Enthalpy 
  210000    1595.2041   -26.687085    -111810.6   -115862.56   -111818.48 
  210495    1562.9355   -224.82245   -112025.22   -115995.22   -112091.61 
Loop time of 38.2124 on 2 procs for 495 steps with 19652 atoms

Performance: 1.119 ns/day, 21.444 hours/ns, 12.954 timesteps/s
98.2% CPU use with 2 MPI tasks x no OpenMP threads

MPI task timing breakdown:
Section |  min time  |  avg time  |  max time  |%varavg| %total
---------------------------------------------------------------
Pair    | 21.077     | 21.192     | 21.308     |   2.5 | 55.46
Neigh   | 15.08      | 15.087     | 15.094     |   0.2 | 39.48
Comm    | 1.2701     | 1.3788     | 1.4876     |   9.3 |  3.61
Output  | 9.1076e-05 | 0.00012553 | 0.00015998 |   0.0 |  0.00
Modify  | 0.43567    | 0.43593    | 0.43618    |   0.0 |  1.14
Other   |            | 0.1185     |            |       |  0.31

Nlocal:    9826 ave 9830 max 9822 min
Histogram: 1 0 0 0 0 0 0 0 0 1
Nghost:    11144 ave 11171 max 11117 min
Histogram: 1 0 0 0 0 0 0 0 0 1
Neighs:    521684 ave 522404 max 520963 min
Histogram: 1 0 0 0 0 0 0 0 0 1

Total # of neighbors = 1043367
Ave neighs/atom = 53.0922
Neighbor list builds = 495
Dangerous builds not checked
Setting up Verlet run ...
  Unit style    : metal
  Current step  : 210495
  Time step     : 0.001
Per MPI rank memory allocation (min/avg/max) = 11.29 | 11.29 | 11.29 Mbytes
Step Temp Press TotEng PotEng Enthalpy 
  210495    1562.9355   -224.82245   -112025.22   -115995.22   -112091.61 
  220000    1554.7916    -1111.073   -112176.33   -116125.64   -112504.59 
Loop time of 775.81 on 2 procs for 9505 steps with 19652 atoms

Performance: 1.059 ns/day, 22.673 hours/ns, 12.252 timesteps/s
95.9% CPU use with 2 MPI tasks x no OpenMP threads

MPI task timing breakdown:
Section |  min time  |  avg time  |  max time  |%varavg| %total
---------------------------------------------------------------
Pair    | 408.93     | 410.54     | 412.15     |   7.9 | 52.92
Neigh   | 289.94     | 290.87     | 291.8      |   5.4 | 37.49
Comm    | 62.713     | 63.626     | 64.538     |  11.4 |  8.20
Output  | 0.037265   | 0.037287   | 0.03731    |   0.0 |  0.00
Modify  | 8.3012     | 8.5418     | 8.7824     |   8.2 |  1.10
Other   |            | 2.197      |            |       |  0.28

Nlocal:    9826 ave 9858 max 9794 min
Histogram: 1 0 0 0 0 0 0 0 0 1
Nghost:    11131 ave 11152 max 11110 min
Histogram: 1 0 0 0 0 0 0 0 0 1
Neighs:    521360 ave 523074 max 519647 min
Histogram: 1 0 0 0 0 0 0 0 0 1

Total # of neighbors = 1042721
Ave neighs/atom = 53.0593
Neighbor list builds = 9505
Dangerous builds not checked
Setting up Verlet run ...
  Unit style    : metal
  Current step  : 220000
  Time step     : 0.001
Per MPI rank memory allocation (min/avg/max) = 11.29 | 11.29 | 11.29 Mbytes
Step Temp Press TotEng PotEng Enthalpy 
  220000    1554.7916    -1111.073   -112176.33   -116125.64   -112504.59 
  220495    1507.6221    206.86334   -112348.04   -116177.54   -112287.09 
Loop time of 36.9224 on 2 procs for 495 steps with 19652 atoms

Performance: 1.158 ns/day, 20.720 hours/ns, 13.406 timesteps/s
99.8% CPU use with 2 MPI tasks x no OpenMP threads

MPI task timing breakdown:
Section |  min time  |  avg time  |  max time  |%varavg| %total
---------------------------------------------------------------
Pair    | 20.006     | 20.119     | 20.232     |   2.5 | 54.49
Neigh   | 14.395     | 14.638     | 14.88      |   6.3 | 39.64
Comm    | 1.2679     | 1.6307     | 1.9934     |  28.4 |  4.42
Output  | 9.2983e-05 | 0.00012708 | 0.00016117 |   0.0 |  0.00
Modify  | 0.41808    | 0.42283    | 0.42759    |   0.7 |  1.15
Other   |            | 0.1121     |            |       |  0.30

Nlocal:    9826 ave 9835 max 9817 min
Histogram: 1 0 0 0 0 0 0 0 0 1
Nghost:    11134.5 ave 11136 max 11133 min
Histogram: 1 0 0 0 0 0 0 0 0 1
Neighs:    523191 ave 524097 max 522285 min
Histogram: 1 0 0 0 0 0 0 0 0 1

Total # of neighbors = 1046382
Ave neighs/atom = 53.2456
Neighbor list builds = 495
Dangerous builds not checked
Setting up Verlet run ...
  Unit style    : metal
  Current step  : 220495
  Time step     : 0.001
Per MPI rank memory allocation (min/avg/max) = 11.29 | 11.29 | 11.29 Mbytes
Step Temp Press TotEng PotEng Enthalpy 
  220495    1507.6221    206.86334   -112348.04   -116177.54   -112287.09 
  230000    1507.1347    742.32216   -112456.45   -116284.71   -112238.11 
Loop time of 755.079 on 2 procs for 9505 steps with 19652 atoms

Performance: 1.088 ns/day, 22.067 hours/ns, 12.588 timesteps/s
95.7% CPU use with 2 MPI tasks x no OpenMP threads

MPI task timing breakdown:
Section |  min time  |  avg time  |  max time  |%varavg| %total
---------------------------------------------------------------
Pair    | 411.19     | 411.25     | 411.32     |   0.3 | 54.46
Neigh   | 278.43     | 280        | 281.57     |   9.4 | 37.08
Comm    | 50.755     | 52.298     | 53.842     |  21.3 |  6.93
Output  | 0.034637   | 0.03466    | 0.034683   |   0.0 |  0.00
Modify  | 9.426      | 9.447      | 9.4681     |   0.7 |  1.25
Other   |            | 2.047      |            |       |  0.27

Nlocal:    9826 ave 9839 max 9813 min
Histogram: 1 0 0 0 0 0 0 0 0 1
Nghost:    11107.5 ave 11124 max 11091 min
Histogram: 1 0 0 0 0 0 0 0 0 1
Neighs:    524088 ave 524715 max 523460 min
Histogram: 1 0 0 0 0 0 0 0 0 1

Total # of neighbors = 1048175
Ave neighs/atom = 53.3368
Neighbor list builds = 9505
Dangerous builds not checked
Setting up Verlet run ...
  Unit style    : metal
  Current step  : 230000
  Time step     : 0.001
Per MPI rank memory allocation (min/avg/max) = 11.29 | 11.29 | 11.29 Mbytes
Step Temp Press TotEng PotEng Enthalpy 
  230000    1507.1347    742.32216   -112456.45   -116284.71   -112238.11 
  230495    1479.0408    63.659217   -112683.65   -116440.55   -112664.93 
Loop time of 36.4112 on 2 procs for 495 steps with 19652 atoms

Performance: 1.175 ns/day, 20.433 hours/ns, 13.595 timesteps/s
99.3% CPU use with 2 MPI tasks x no OpenMP threads

MPI task timing breakdown:
Section |  min time  |  avg time  |  max time  |%varavg| %total
---------------------------------------------------------------
Pair    | 19.369     | 19.445     | 19.52      |   1.7 | 53.40
Neigh   | 14.315     | 14.557     | 14.798     |   6.3 | 39.98
Comm    | 1.7153     | 1.8881     | 2.0608     |  12.6 |  5.19
Output  | 7.7009e-05 | 0.00012398 | 0.00017095 |   0.0 |  0.00
Modify  | 0.40848    | 0.41385    | 0.41922    |   0.8 |  1.14
Other   |            | 0.1077     |            |       |  0.30

Nlocal:    9826 ave 9830 max 9822 min
Histogram: 1 0 0 0 0 0 0 0 0 1
Nghost:    11116.5 ave 11121 max 11112 min
Histogram: 1 0 0 0 0 0 0 0 0 1
Neighs:    524096 ave 524628 max 523565 min
Histogram: 1 0 0 0 0 0 0 0 0 1

Total # of neighbors = 1048193
Ave neighs/atom = 53.3377
Neighbor list builds = 495
Dangerous builds not checked
Setting up Verlet run ...
  Unit style    : metal
  Current step  : 230495
  Time step     : 0.001
Per MPI rank memory allocation (min/avg/max) = 11.29 | 11.29 | 11.29 Mbytes
Step Temp Press TotEng PotEng Enthalpy 
  230495    1479.0408    63.659217   -112683.65   -116440.55   -112664.93 
  240000    1453.4044   -1045.6906   -112812.92    -116504.7   -113120.78 
Loop time of 754.731 on 2 procs for 9505 steps with 19652 atoms

Performance: 1.088 ns/day, 22.057 hours/ns, 12.594 timesteps/s
95.9% CPU use with 2 MPI tasks x no OpenMP threads

MPI task timing breakdown:
Section |  min time  |  avg time  |  max time  |%varavg| %total
---------------------------------------------------------------
Pair    | 395.67     | 395.89     | 396.11     |   1.1 | 52.45
Neigh   | 278.83     | 280.09     | 281.35     |   7.5 | 37.11
Comm    | 59.219     | 60.298     | 61.376     |  13.9 |  7.99
Output  | 0.037583   | 0.037607   | 0.037632   |   0.0 |  0.00
Modify  | 16.309     | 16.338     | 16.367     |   0.7 |  2.16
Other   |            | 2.081      |            |       |  0.28

Nlocal:    9826 ave 9832 max 9820 min
Histogram: 1 0 0 0 0 0 0 0 0 1
Nghost:    11147 ave 11147 max 11147 min
Histogram: 2 0 0 0 0 0 0 0 0 0
Neighs:    523706 ave 524128 max 523285 min
Histogram: 1 0 0 0 0 0 0 0 0 1

Total # of neighbors = 1047413
Ave neighs/atom = 53.298
Neighbor list builds = 9505
Dangerous builds not checked
Setting up Verlet run ...
  Unit style    : metal
  Current step  : 240000
  Time step     : 0.001
Per MPI rank memory allocation (min/avg/max) = 11.29 | 11.29 | 11.29 Mbytes
Step Temp Press TotEng PotEng Enthalpy 
  240000    1453.4044   -1045.6906   -112812.92    -116504.7   -113120.78 
  240495    1423.4933   -418.83771   -112995.41   -116611.21   -113118.47 
Loop time of 39.1126 on 2 procs for 495 steps with 19652 atoms

Performance: 1.093 ns/day, 21.949 hours/ns, 12.656 timesteps/s
96.2% CPU use with 2 MPI tasks x no OpenMP threads

MPI task timing breakdown:
Section |  min time  |  avg time  |  max time  |%varavg| %total
---------------------------------------------------------------
Pair    | 20.635     | 20.663     | 20.691     |   0.6 | 52.83
Neigh   | 14.373     | 14.398     | 14.423     |   0.7 | 36.81
Comm    | 3.5264     | 3.5265     | 3.5266     |   0.0 |  9.02
Output  | 9.2983e-05 | 0.00013494 | 0.00017691 |   0.0 |  0.00
Modify  | 0.41281    | 0.41524    | 0.41766    |   0.4 |  1.06
Other   |            | 0.11       |            |       |  0.28

Nlocal:    9826 ave 9830 max 9822 min
Histogram: 1 0 0 0 0 0 0 0 0 1
Nghost:    11162.5 ave 11163 max 11162 min
Histogram: 1 0 0 0 0 0 0 0 0 1
Neighs:    524882 ave 525294 max 524471 min
Histogram: 1 0 0 0 0 0 0 0 0 1

Total # of neighbors = 1049765
Ave neighs/atom = 53.4177
Neighbor list builds = 495
Dangerous builds not checked
Setting up Verlet run ...
  Unit style    : metal
  Current step  : 240495
  Time step     : 0.001
Per MPI rank memory allocation (min/avg/max) = 11.29 | 11.29 | 11.29 Mbytes
Step Temp Press TotEng PotEng Enthalpy 
  240495    1423.4933   -418.83771   -112995.41   -116611.21   -113118.47 
  250000    1398.8233    1222.0699   -113154.49   -116707.63    -112796.3 
Loop time of 749.78 on 2 procs for 9505 steps with 19652 atoms

Performance: 1.095 ns/day, 21.912 hours/ns, 12.677 timesteps/s
97.7% CPU use with 2 MPI tasks x no OpenMP threads

MPI task timing breakdown:
Section |  min time  |  avg time  |  max time  |%varavg| %total
---------------------------------------------------------------
Pair    | 406.13     | 406.66     | 407.19     |   2.6 | 54.24
Neigh   | 286.98     | 287.02     | 287.06     |   0.2 | 38.28
Comm    | 43.21      | 44.159     | 45.108     |  14.3 |  5.89
Output  | 0.037606   | 0.037642   | 0.037677   |   0.0 |  0.01
Modify  | 9.2292     | 9.6904     | 10.152     |  14.8 |  1.29
Other   |            | 2.211      |            |       |  0.29

Nlocal:    9826 ave 9831 max 9821 min
Histogram: 1 0 0 0 0 0 0 0 0 1
Nghost:    11122.5 ave 11153 max 11092 min
Histogram: 1 0 0 0 0 0 0 0 0 1
Neighs:    526754 ave 527456 max 526051 min
Histogram: 1 0 0 0 0 0 0 0 0 1

Total # of neighbors = 1053507
Ave neighs/atom = 53.6081
Neighbor list builds = 9505
Dangerous builds not checked
Setting up Verlet run ...
  Unit style    : metal
  Current step  : 250000
  Time step     : 0.001
Per MPI rank memory allocation (min/avg/max) = 11.29 | 11.29 | 11.29 Mbytes
Step Temp Press TotEng PotEng Enthalpy 
  250000    1398.8233    1222.0699   -113154.49   -116707.63    -112796.3 
  250495    1366.9649   -55.660257   -113350.83   -116823.04   -113367.15 
Loop time of 39.2422 on 2 procs for 495 steps with 19652 atoms

Performance: 1.090 ns/day, 22.021 hours/ns, 12.614 timesteps/s
95.2% CPU use with 2 MPI tasks x no OpenMP threads

MPI task timing breakdown:
Section |  min time  |  avg time  |  max time  |%varavg| %total
---------------------------------------------------------------
Pair    | 21.58      | 21.659     | 21.739     |   1.7 | 55.19
Neigh   | 14.701     | 14.814     | 14.927     |   2.9 | 37.75
Comm    | 2.0243     | 2.221      | 2.4178     |  13.2 |  5.66
Output  | 0.000103   | 0.00020647 | 0.00030994 |   0.0 |  0.00
Modify  | 0.42788    | 0.43093    | 0.43397    |   0.5 |  1.10
Other   |            | 0.1162     |            |       |  0.30

Nlocal:    9826 ave 9831 max 9821 min
Histogram: 1 0 0 0 0 0 0 0 0 1
Nghost:    11119 ave 11122 max 11116 min
Histogram: 1 0 0 0 0 0 0 0 0 1
Neighs:    526631 ave 527200 max 526062 min
Histogram: 1 0 0 0 0 0 0 0 0 1

Total # of neighbors = 1053262
Ave neighs/atom = 53.5957
Neighbor list builds = 495
Dangerous builds not checked
Setting up Verlet run ...
  Unit style    : metal
  Current step  : 250495
  Time step     : 0.001
Per MPI rank memory allocation (min/avg/max) = 11.29 | 11.29 | 11.29 Mbytes
Step Temp Press TotEng PotEng Enthalpy 
  250495    1366.9649   -55.660257   -113350.83   -116823.04   -113367.15 
  260000    1363.4984    450.61028   -113498.01   -116961.42   -113366.06 
Loop time of 757.949 on 2 procs for 9505 steps with 19652 atoms

Performance: 1.083 ns/day, 22.151 hours/ns, 12.540 timesteps/s
97.0% CPU use with 2 MPI tasks x no OpenMP threads

MPI task timing breakdown:
Section |  min time  |  avg time  |  max time  |%varavg| %total
---------------------------------------------------------------
Pair    | 405.67     | 406.01     | 406.36     |   1.7 | 53.57
Neigh   | 286.55     | 287.05     | 287.55     |   2.9 | 37.87
Comm    | 53.473     | 54.319     | 55.166     |  11.5 |  7.17
Output  | 0.059872   | 0.059891   | 0.059911   |   0.0 |  0.01
Modify  | 8.2908     | 8.2922     | 8.2936     |   0.0 |  1.09
Other   |            | 2.216      |            |       |  0.29

Nlocal:    9826 ave 9841 max 9811 min
Histogram: 1 0 0 0 0 0 0 0 0 1
Nghost:    11159 ave 11165 max 11153 min
Histogram: 1 0 0 0 0 0 0 0 0 1
Neighs:    527510 ave 528173 max 526846 min
Histogram: 1 0 0 0 0 0 0 0 0 1

Total # of neighbors = 1055019
Ave neighs/atom = 53.6851
Neighbor list builds = 9505
Dangerous builds not checked
Setting up Verlet run ...
  Unit style    : metal
  Current step  : 260000
  Time step     : 0.001
Per MPI rank memory allocation (min/avg/max) = 11.29 | 11.29 | 11.3 Mbytes
Step Temp Press TotEng PotEng Enthalpy 
  260000    1363.4984    450.61028   -113498.01   -116961.42   -113366.06 
  260495     1315.208    -82.82419   -113723.36   -117064.11   -113747.61 
Loop time of 42.0877 on 2 procs for 495 steps with 19652 atoms

Performance: 1.016 ns/day, 23.618 hours/ns, 11.761 timesteps/s
94.2% CPU use with 2 MPI tasks x no OpenMP threads

MPI task timing breakdown:
Section |  min time  |  avg time  |  max time  |%varavg| %total
---------------------------------------------------------------
Pair    | 20.422     | 20.434     | 20.447     |   0.3 | 48.55
Neigh   | 14.576     | 14.805     | 15.034     |   5.9 | 35.18
Comm    | 5.7768     | 6.0234     | 6.2699     |  10.0 | 14.31
Output  | 0.00017214 | 0.00019312 | 0.0002141  |   0.0 |  0.00
Modify  | 0.70483    | 0.7082     | 0.71156    |   0.4 |  1.68
Other   |            | 0.1162     |            |       |  0.28

Nlocal:    9826 ave 9826 max 9826 min
Histogram: 2 0 0 0 0 0 0 0 0 0
Nghost:    11182 ave 11201 max 11163 min
Histogram: 1 0 0 0 0 0 0 0 0 1
Neighs:    527622 ave 527946 max 527299 min
Histogram: 1 0 0 0 0 0 0 0 0 1

Total # of neighbors = 1055245
Ave neighs/atom = 53.6966
Neighbor list builds = 495
Dangerous builds not checked
Setting up Verlet run ...
  Unit style    : metal
  Current step  : 260495
  Time step     : 0.001
Per MPI rank memory allocation (min/avg/max) = 11.29 | 11.29 | 11.3 Mbytes
Step Temp Press TotEng PotEng Enthalpy 
  260495     1315.208    -82.82419   -113723.36   -117064.11   -113747.61 
  270000    1296.6993   -631.73945   -113831.25   -117124.99    -114016.2 
Loop time of 763.633 on 2 procs for 9505 steps with 19652 atoms

Performance: 1.075 ns/day, 22.317 hours/ns, 12.447 timesteps/s
97.2% CPU use with 2 MPI tasks x no OpenMP threads

MPI task timing breakdown:
Section |  min time  |  avg time  |  max time  |%varavg| %total
---------------------------------------------------------------
Pair    | 414.79     | 414.87     | 414.96     |   0.4 | 54.33
Neigh   | 291.82     | 292.2      | 292.59     |   2.2 | 38.26
Comm    | 44.957     | 45.253     | 45.55      |   4.4 |  5.93
Output  | 0.1129     | 0.11293    | 0.11297    |   0.0 |  0.01
Modify  | 8.9154     | 8.9199     | 8.9245     |   0.2 |  1.17
Other   |            | 2.27       |            |       |  0.30

Nlocal:    9826 ave 9826 max 9826 min
Histogram: 2 0 0 0 0 0 0 0 0 0
Nghost:    11191 ave 11202 max 11180 min
Histogram: 1 0 0 0 0 0 0 0 0 1
Neighs:    527872 ave 528435 max 527308 min
Histogram: 1 0 0 0 0 0 0 0 0 1

Total # of neighbors = 1055743
Ave neighs/atom = 53.7219
Neighbor list builds = 9505
Dangerous builds not checked
Setting up Verlet run ...
  Unit style    : metal
  Current step  : 270000
  Time step     : 0.001
Per MPI rank memory allocation (min/avg/max) = 11.29 | 11.29 | 11.3 Mbytes
Step Temp Press TotEng PotEng Enthalpy 
  270000    1296.6993   -631.73945   -113831.25   -117124.99    -114016.2 
  270495     1265.487    489.61347   -114044.12   -117258.57   -113901.09 
Loop time of 37.9238 on 2 procs for 495 steps with 19652 atoms

Performance: 1.128 ns/day, 21.282 hours/ns, 13.053 timesteps/s
99.6% CPU use with 2 MPI tasks x no OpenMP threads

MPI task timing breakdown:
Section |  min time  |  avg time  |  max time  |%varavg| %total
---------------------------------------------------------------
Pair    | 20.55      | 20.805     | 21.061     |   5.6 | 54.86
Neigh   | 15.193     | 15.198     | 15.202     |   0.1 | 40.07
Comm    | 1.1024     | 1.362      | 1.6216     |  22.2 |  3.59
Output  | 9.8944e-05 | 0.00014293 | 0.00018692 |   0.0 |  0.00
Modify  | 0.44043    | 0.44085    | 0.44127    |   0.1 |  1.16
Other   |            | 0.1178     |            |       |  0.31

Nlocal:    9826 ave 9838 max 9814 min
Histogram: 1 0 0 0 0 0 0 0 0 1
Nghost:    11136.5 ave 11163 max 11110 min
Histogram: 1 0 0 0 0 0 0 0 0 1
Neighs:    529382 ave 529921 max 528842 min
Histogram: 1 0 0 0 0 0 0 0 0 1

Total # of neighbors = 1058763
Ave neighs/atom = 53.8756
Neighbor list builds = 495
Dangerous builds not checked
Setting up Verlet run ...
  Unit style    : metal
  Current step  : 270495
  Time step     : 0.001
Per MPI rank memory allocation (min/avg/max) = 11.29 | 11.29 | 11.3 Mbytes
Step Temp Press TotEng PotEng Enthalpy 
  270495     1265.487    489.61347   -114044.12   -117258.57   -113901.09 
  280000    1246.5276   -756.90776   -114191.92   -117358.22   -114413.32 
Loop time of 758.747 on 2 procs for 9505 steps with 19652 atoms

Performance: 1.082 ns/day, 22.174 hours/ns, 12.527 timesteps/s
97.5% CPU use with 2 MPI tasks x no OpenMP threads

MPI task timing breakdown:
Section |  min time  |  avg time  |  max time  |%varavg| %total
---------------------------------------------------------------
Pair    | 411.8      | 412.23     | 412.65     |   2.1 | 54.33
Neigh   | 294.22     | 294.87     | 295.52     |   3.8 | 38.86
Comm    | 32.073     | 33.162     | 34.25      |  18.9 |  4.37
Output  | 1.3145     | 1.3146     | 1.3146     |   0.0 |  0.17
Modify  | 14.916     | 14.924     | 14.932     |   0.2 |  1.97
Other   |            | 2.256      |            |       |  0.30

Nlocal:    9826 ave 9832 max 9820 min
Histogram: 1 0 0 0 0 0 0 0 0 1
Nghost:    11136 ave 11172 max 11100 min
Histogram: 1 0 0 0 0 0 0 0 0 1
Neighs:    528588 ave 528647 max 528529 min
Histogram: 1 0 0 0 0 0 0 0 0 1

Total # of neighbors = 1057176
Ave neighs/atom = 53.7948
Neighbor list builds = 9505
Dangerous builds not checked
Setting up Verlet run ...
  Unit style    : metal
  Current step  : 280000
  Time step     : 0.001
Per MPI rank memory allocation (min/avg/max) = 11.3 | 11.3 | 11.3 Mbytes
Step Temp Press TotEng PotEng Enthalpy 
  280000    1246.5276   -756.90776   -114191.92   -117358.22   -114413.32 
  280495    1223.2004    695.02722   -114390.78   -117497.82   -114188.15 
Loop time of 38.5096 on 2 procs for 495 steps with 19652 atoms

Performance: 1.111 ns/day, 21.610 hours/ns, 12.854 timesteps/s
98.2% CPU use with 2 MPI tasks x no OpenMP threads

MPI task timing breakdown:
Section |  min time  |  avg time  |  max time  |%varavg| %total
---------------------------------------------------------------
Pair    | 20.578     | 20.6       | 20.621     |   0.5 | 53.49
Neigh   | 14.676     | 14.794     | 14.912     |   3.1 | 38.42
Comm    | 2.4253     | 2.5689     | 2.7125     |   9.0 |  6.67
Output  | 9.0122e-05 | 0.00013661 | 0.00018311 |   0.0 |  0.00
Modify  | 0.42777    | 0.43101    | 0.43426    |   0.5 |  1.12
Other   |            | 0.1161     |            |       |  0.30

Nlocal:    9826 ave 9846 max 9806 min
Histogram: 1 0 0 0 0 0 0 0 0 1
Nghost:    11199.5 ave 11201 max 11198 min
Histogram: 1 0 0 0 0 0 0 0 0 1
Neighs:    530754 ave 532367 max 529140 min
Histogram: 1 0 0 0 0 0 0 0 0 1

Total # of neighbors = 1061507
Ave neighs/atom = 54.0152
Neighbor list builds = 495
Dangerous builds not checked
Setting up Verlet run ...
  Unit style    : metal
  Current step  : 280495
  Time step     : 0.001
Per MPI rank memory allocation (min/avg/max) = 11.3 | 11.3 | 11.3 Mbytes
Step Temp Press TotEng PotEng Enthalpy 
  280495    1223.2004    695.02722   -114390.78   -117497.82   -114188.15 
  290000    1200.6788    1018.1175   -114610.48   -117660.32   -114314.06 
Loop time of 742.438 on 2 procs for 9505 steps with 19652 atoms

Performance: 1.106 ns/day, 21.697 hours/ns, 12.802 timesteps/s
99.0% CPU use with 2 MPI tasks x no OpenMP threads

MPI task timing breakdown:
Section |  min time  |  avg time  |  max time  |%varavg| %total
---------------------------------------------------------------
Pair    | 404.11     | 404.15     | 404.18     |   0.2 | 54.44
Neigh   | 293.83     | 294.31     | 294.8      |   2.8 | 39.64
Comm    | 31.51      | 32.034     | 32.557     |   9.3 |  4.31
Output  | 0.037701   | 0.037741   | 0.037781   |   0.0 |  0.01
Modify  | 9.6181     | 9.6256     | 9.6332     |   0.2 |  1.30
Other   |            | 2.279      |            |       |  0.31

Nlocal:    9826 ave 9834 max 9818 min
Histogram: 1 0 0 0 0 0 0 0 0 1
Nghost:    11192 ave 11195 max 11189 min
Histogram: 1 0 0 0 0 0 0 0 0 1
Neighs:    531956 ave 532592 max 531319 min
Histogram: 1 0 0 0 0 0 0 0 0 1

Total # of neighbors = 1063911
Ave neighs/atom = 54.1375
Neighbor list builds = 9505
Dangerous builds not checked
Setting up Verlet run ...
  Unit style    : metal
  Current step  : 290000
  Time step     : 0.001
Per MPI rank memory allocation (min/avg/max) = 11.3 | 11.3 | 11.3 Mbytes
Step Temp Press TotEng PotEng Enthalpy 
  290000    1200.6788    1018.1175   -114610.48   -117660.32   -114314.06 
  290495    1158.2245   -810.31353   -114759.63   -117701.62   -114995.98 
Loop time of 38.9387 on 2 procs for 495 steps with 19652 atoms

Performance: 1.098 ns/day, 21.851 hours/ns, 12.712 timesteps/s
98.0% CPU use with 2 MPI tasks x no OpenMP threads

MPI task timing breakdown:
Section |  min time  |  avg time  |  max time  |%varavg| %total
---------------------------------------------------------------
Pair    | 20.932     | 20.991     | 21.051     |   1.3 | 53.91
Neigh   | 15.155     | 15.26      | 15.366     |   2.7 | 39.19
Comm    | 2.067      | 2.1164     | 2.1658     |   3.4 |  5.44
Output  | 0.00011015 | 0.00015461 | 0.00019908 |   0.0 |  0.00
Modify  | 0.44726    | 0.45       | 0.45274    |   0.4 |  1.16
Other   |            | 0.1205     |            |       |  0.31

Nlocal:    9826 ave 9841 max 9811 min
Histogram: 1 0 0 0 0 0 0 0 0 1
Nghost:    11153.5 ave 11185 max 11122 min
Histogram: 1 0 0 0 0 0 0 0 0 1
Neighs:    530837 ave 531858 max 529816 min
Histogram: 1 0 0 0 0 0 0 0 0 1

Total # of neighbors = 1061674
Ave neighs/atom = 54.0237
Neighbor list builds = 495
Dangerous builds not checked
Setting up Verlet run ...
  Unit style    : metal
  Current step  : 290495
  Time step     : 0.001
Per MPI rank memory allocation (min/avg/max) = 11.3 | 11.3 | 11.3 Mbytes
Step Temp Press TotEng PotEng Enthalpy 
  290495    1158.2245   -810.31353   -114759.63   -117701.62   -114995.98 
  300000    1146.3625    433.35509   -114908.61   -117820.48   -114782.52 
Loop time of 758.94 on 2 procs for 9505 steps with 19652 atoms

Performance: 1.082 ns/day, 22.180 hours/ns, 12.524 timesteps/s
98.1% CPU use with 2 MPI tasks x no OpenMP threads

MPI task timing breakdown:
Section |  min time  |  avg time  |  max time  |%varavg| %total
---------------------------------------------------------------
Pair    | 410.44     | 410.96     | 411.49     |   2.6 | 54.15
Neigh   | 295.69     | 296.4      | 297.12     |   4.2 | 39.06
Comm    | 38.31      | 38.511     | 38.713     |   3.2 |  5.07
Output  | 0.038285   | 0.038311   | 0.038337   |   0.0 |  0.01
Modify  | 10.694     | 10.695     | 10.695     |   0.0 |  1.41
Other   |            | 2.328      |            |       |  0.31

Nlocal:    9826 ave 9829 max 9823 min
Histogram: 1 0 0 0 0 0 0 0 0 1
Nghost:    11175 ave 11183 max 11167 min
Histogram: 1 0 0 0 0 0 0 0 0 1
Neighs:    532352 ave 533027 max 531676 min
Histogram: 1 0 0 0 0 0 0 0 0 1

Total # of neighbors = 1064703
Ave neighs/atom = 54.1778
Neighbor list builds = 9505
Dangerous builds not checked
Setting up Verlet run ...
  Unit style    : metal
  Current step  : 300000
  Time step     : 0.001
Per MPI rank memory allocation (min/avg/max) = 11.3 | 11.3 | 11.3 Mbytes
Step Temp Press TotEng PotEng Enthalpy 
[...]
Nghost:    11259.5 ave 11265 max 11254 min
Histogram: 1 0 0 0 0 0 0 0 0 1
Neighs:    549260 ave 549395 max 549126 min
Histogram: 1 0 0 0 0 0 0 0 0 1

Total # of neighbors = 1098521
Ave neighs/atom = 55.8987
Neighbor list builds = 9505
Dangerous builds not checked
Setting up Verlet run ...
  Unit style    : metal
  Current step  : 440000
  Time step     : 0.001
Per MPI rank memory allocation (min/avg/max) = 11.3 | 11.3 | 11.3 Mbytes
Step Temp Press TotEng PotEng Enthalpy 
  440000    452.07648   -422.24064   -120044.09    -121192.4   -120164.55 
  440495    422.24341    295.01035   -120192.09   -121264.63   -120108.04 
Loop time of 38.3894 on 2 procs for 495 steps with 19652 atoms

Performance: 1.114 ns/day, 21.543 hours/ns, 12.894 timesteps/s
97.5% CPU use with 2 MPI tasks x no OpenMP threads

MPI task timing breakdown:
Section |  min time  |  avg time  |  max time  |%varavg| %total
---------------------------------------------------------------
Pair    | 20.404     | 20.41      | 20.416     |   0.1 | 53.17
Neigh   | 13.877     | 13.99      | 14.103     |   3.0 | 36.44
Comm    | 3.2987     | 3.4113     | 3.5238     |   6.1 |  8.89
Output  | 0.0001142  | 0.00014913 | 0.00018406 |   0.0 |  0.00
Modify  | 0.45093    | 0.45528    | 0.45964    |   0.6 |  1.19
Other   |            | 0.1223     |            |       |  0.32

Nlocal:    9826 ave 9826 max 9826 min
Histogram: 2 0 0 0 0 0 0 0 0 0
Nghost:    11272 ave 11288 max 11256 min
Histogram: 1 0 0 0 0 0 0 0 0 1
Neighs:    550234 ave 550457 max 550012 min
Histogram: 1 0 0 0 0 0 0 0 0 1

Total # of neighbors = 1100469
Ave neighs/atom = 55.9978
Neighbor list builds = 495
Dangerous builds not checked
Setting up Verlet run ...
  Unit style    : metal
  Current step  : 440495
  Time step     : 0.001
Per MPI rank memory allocation (min/avg/max) = 11.3 | 11.3 | 11.3 Mbytes
Step Temp Press TotEng PotEng Enthalpy 
  440495    422.24341    295.01035   -120192.09   -121264.63   -120108.04 
  450000    400.76791   -130.00653   -120314.65   -121332.63   -120351.68 
Loop time of 799.612 on 2 procs for 9505 steps with 19652 atoms

Performance: 1.027 ns/day, 23.368 hours/ns, 11.887 timesteps/s
95.1% CPU use with 2 MPI tasks x no OpenMP threads

MPI task timing breakdown:
Section |  min time  |  avg time  |  max time  |%varavg| %total
---------------------------------------------------------------
Pair    | 431.42     | 432.99     | 434.56     |   7.5 | 54.15
Neigh   | 276.99     | 278.24     | 279.49     |   7.5 | 34.80
Comm    | 74.518     | 74.825     | 75.132     |   3.6 |  9.36
Output  | 0.040055   | 0.040171   | 0.040287   |   0.1 |  0.01
Modify  | 11.05      | 11.057     | 11.064     |   0.2 |  1.38
Other   |            | 2.463      |            |       |  0.31

Nlocal:    9826 ave 9828 max 9824 min
Histogram: 1 0 0 0 0 0 0 0 0 1
Nghost:    11293 ave 11306 max 11280 min
Histogram: 1 0 0 0 0 0 0 0 0 1
Neighs:    550438 ave 550594 max 550283 min
Histogram: 1 0 0 0 0 0 0 0 0 1

Total # of neighbors = 1100877
Ave neighs/atom = 56.0186
Neighbor list builds = 9505
Dangerous builds not checked
Setting up Verlet run ...
  Unit style    : metal
  Current step  : 450000
  Time step     : 0.001
Per MPI rank memory allocation (min/avg/max) = 11.3 | 11.3 | 11.3 Mbytes
Step Temp Press TotEng PotEng Enthalpy 
  450000    400.76791   -130.00653   -120314.65   -121332.63   -120351.68 
  450495    372.45888    34.148623   -120458.89   -121404.97   -120449.17 
Loop time of 37.5941 on 2 procs for 495 steps with 19652 atoms

Performance: 1.138 ns/day, 21.097 hours/ns, 13.167 timesteps/s
99.9% CPU use with 2 MPI tasks x no OpenMP threads

MPI task timing breakdown:
Section |  min time  |  avg time  |  max time  |%varavg| %total
---------------------------------------------------------------
Pair    | 20.747     | 20.796     | 20.846     |   1.1 | 55.32
Neigh   | 14.199     | 14.274     | 14.349     |   2.0 | 37.97
Comm    | 1.9091     | 1.9373     | 1.9656     |   2.0 |  5.15
Output  | 0.00013399 | 0.00019407 | 0.00025415 |   0.0 |  0.00
Modify  | 0.45707    | 0.45895    | 0.46082    |   0.3 |  1.22
Other   |            | 0.1273     |            |       |  0.34

Nlocal:    9826 ave 9831 max 9821 min
Histogram: 1 0 0 0 0 0 0 0 0 1
Nghost:    11255.5 ave 11281 max 11230 min
Histogram: 1 0 0 0 0 0 0 0 0 1
Neighs:    550546 ave 550577 max 550514 min
Histogram: 1 0 0 0 0 0 0 0 0 1

Total # of neighbors = 1101091
Ave neighs/atom = 56.0295
Neighbor list builds = 495
Dangerous builds not checked
Setting up Verlet run ...
  Unit style    : metal
  Current step  : 450495
  Time step     : 0.001
Per MPI rank memory allocation (min/avg/max) = 11.3 | 11.3 | 11.3 Mbytes
Step Temp Press TotEng PotEng Enthalpy 
  450495    372.45888    34.148623   -120458.89   -121404.97   -120449.17 
  460000    353.20018    -120.0029   -120562.03   -121459.19   -120596.19 
Loop time of 791.014 on 2 procs for 9505 steps with 19652 atoms

Performance: 1.038 ns/day, 23.117 hours/ns, 12.016 timesteps/s
95.9% CPU use with 2 MPI tasks x no OpenMP threads

MPI task timing breakdown:
Section |  min time  |  avg time  |  max time  |%varavg| %total
---------------------------------------------------------------
Pair    | 426.65     | 428.35     | 430.05     |   8.2 | 54.15
Neigh   | 279.31     | 280.24     | 281.18     |   5.6 | 35.43
Comm    | 63.717     | 64.484     | 65.25      |   9.5 |  8.15
Output  | 0.26059    | 0.26073    | 0.26088    |   0.0 |  0.03
Modify  | 15.176     | 15.182     | 15.189     |   0.2 |  1.92
Other   |            | 2.491      |            |       |  0.31

Nlocal:    9826 ave 9829 max 9823 min
Histogram: 1 0 0 0 0 0 0 0 0 1
Nghost:    11271.5 ave 11272 max 11271 min
Histogram: 1 0 0 0 0 0 0 0 0 1
Neighs:    550766 ave 551404 max 550128 min
Histogram: 1 0 0 0 0 0 0 0 0 1

Total # of neighbors = 1101532
Ave neighs/atom = 56.0519
Neighbor list builds = 9505
Dangerous builds not checked
Setting up Verlet run ...
  Unit style    : metal
  Current step  : 460000
  Time step     : 0.001
Per MPI rank memory allocation (min/avg/max) = 11.3 | 11.3 | 11.3 Mbytes
Step Temp Press TotEng PotEng Enthalpy 
  460000    353.20018    -120.0029   -120562.03   -121459.19   -120596.19 
  460495    323.65317    142.18373   -120716.44   -121538.54      -120676 
Loop time of 40.079 on 2 procs for 495 steps with 19652 atoms

Performance: 1.067 ns/day, 22.491 hours/ns, 12.351 timesteps/s
99.1% CPU use with 2 MPI tasks x no OpenMP threads

MPI task timing breakdown:
Section |  min time  |  avg time  |  max time  |%varavg| %total
---------------------------------------------------------------
Pair    | 22.114     | 22.275     | 22.435     |   3.4 | 55.58
Neigh   | 14.987     | 15.15      | 15.313     |   4.2 | 37.80
Comm    | 1.6534     | 1.9741     | 2.2947     |  22.8 |  4.93
Output  | 0.00010586 | 0.00015438 | 0.00020289 |   0.0 |  0.00
Modify  | 0.52873    | 0.53101    | 0.53329    |   0.3 |  1.32
Other   |            | 0.1491     |            |       |  0.37

Nlocal:    9826 ave 9828 max 9824 min
Histogram: 1 0 0 0 0 0 0 0 0 1
Nghost:    11265.5 ave 11270 max 11261 min
Histogram: 1 0 0 0 0 0 0 0 0 1
Neighs:    551599 ave 551642 max 551556 min
Histogram: 1 0 0 0 0 0 0 0 0 1

Total # of neighbors = 1103198
Ave neighs/atom = 56.1367
Neighbor list builds = 495
Dangerous builds not checked
Setting up Verlet run ...
  Unit style    : metal
  Current step  : 460495
  Time step     : 0.001
Per MPI rank memory allocation (min/avg/max) = 11.3 | 11.3 | 11.3 Mbytes
Step Temp Press TotEng PotEng Enthalpy 
  460495    323.65317    142.18373   -120716.44   -121538.54      -120676 
  470000    300.79764   -184.59555   -120834.21   -121598.27   -120886.71 
Loop time of 774.192 on 2 procs for 9505 steps with 19652 atoms

Performance: 1.061 ns/day, 22.625 hours/ns, 12.277 timesteps/s
97.5% CPU use with 2 MPI tasks x no OpenMP threads

MPI task timing breakdown:
Section |  min time  |  avg time  |  max time  |%varavg| %total
---------------------------------------------------------------
Pair    | 425.06     | 425.14     | 425.22     |   0.4 | 54.91
Neigh   | 282.23     | 282.56     | 282.9      |   2.0 | 36.50
Comm    | 51.697     | 52.972     | 54.246     |  17.5 |  6.84
Output  | 0.27944    | 0.27946    | 0.27949    |   0.0 |  0.04
Modify  | 9.8167     | 10.675     | 11.534     |  26.3 |  1.38
Other   |            | 2.563      |            |       |  0.33

Nlocal:    9826 ave 9829 max 9823 min
Histogram: 1 0 0 0 0 0 0 0 0 1
Nghost:    11253.5 ave 11259 max 11248 min
Histogram: 1 0 0 0 0 0 0 0 0 1
Neighs:    551336 ave 551371 max 551300 min
Histogram: 1 0 0 0 0 0 0 0 0 1

Total # of neighbors = 1102671
Ave neighs/atom = 56.1099
Neighbor list builds = 9505
Dangerous builds not checked
Setting up Verlet run ...
  Unit style    : metal
  Current step  : 470000
  Time step     : 0.001
Per MPI rank memory allocation (min/avg/max) = 11.3 | 11.3 | 11.3 Mbytes
Step Temp Press TotEng PotEng Enthalpy 
  470000    300.79764   -184.59555   -120834.21   -121598.27   -120886.71 
  470495    271.26847   -260.27022   -120979.42   -121668.46    -121053.4 
Loop time of 38.3582 on 2 procs for 495 steps with 19652 atoms

Performance: 1.115 ns/day, 21.525 hours/ns, 12.905 timesteps/s
99.0% CPU use with 2 MPI tasks x no OpenMP threads

MPI task timing breakdown:
Section |  min time  |  avg time  |  max time  |%varavg| %total
---------------------------------------------------------------
Pair    | 21.216     | 21.222     | 21.227     |   0.1 | 55.33
Neigh   | 14.517     | 14.554     | 14.591     |   1.0 | 37.94
Comm    | 1.9178     | 1.9673     | 2.0168     |   3.5 |  5.13
Output  | 0.00010085 | 0.00012791 | 0.00015497 |   0.0 |  0.00
Modify  | 0.47801    | 0.48183    | 0.48564    |   0.5 |  1.26
Other   |            | 0.1333     |            |       |  0.35

Nlocal:    9826 ave 9828 max 9824 min
Histogram: 1 0 0 0 0 0 0 0 0 1
Nghost:    11280 ave 11281 max 11279 min
Histogram: 1 0 0 0 0 0 0 0 0 1
Neighs:    551925 ave 552027 max 551823 min
Histogram: 1 0 0 0 0 0 0 0 0 1

Total # of neighbors = 1103850
Ave neighs/atom = 56.1699
Neighbor list builds = 495
Dangerous builds not checked
Setting up Verlet run ...
  Unit style    : metal
  Current step  : 470495
  Time step     : 0.001
Per MPI rank memory allocation (min/avg/max) = 11.3 | 11.3 | 11.3 Mbytes
Step Temp Press TotEng PotEng Enthalpy 
  470495    271.26847   -260.27022   -120979.42   -121668.46    -121053.4 
  480000    252.69984   -69.685893   -121096.44   -121738.32   -121116.24 
Loop time of 775.056 on 2 procs for 9505 steps with 19652 atoms

Performance: 1.060 ns/day, 22.651 hours/ns, 12.264 timesteps/s
97.4% CPU use with 2 MPI tasks x no OpenMP threads

MPI task timing breakdown:
Section |  min time  |  avg time  |  max time  |%varavg| %total
---------------------------------------------------------------
Pair    | 426.03     | 426.72     | 427.41     |   3.3 | 55.06
Neigh   | 280.69     | 281.69     | 282.68     |   5.9 | 36.34
Comm    | 49.942     | 50.597     | 51.252     |   9.2 |  6.53
Output  | 0.035763   | 0.035777   | 0.035791   |   0.0 |  0.00
Modify  | 12.418     | 13.381     | 14.343     |  26.3 |  1.73
Other   |            | 2.638      |            |       |  0.34

Nlocal:    9826 ave 9830 max 9822 min
Histogram: 1 0 0 0 0 0 0 0 0 1
Nghost:    11277.5 ave 11281 max 11274 min
Histogram: 1 0 0 0 0 0 0 0 0 1
Neighs:    552118 ave 552512 max 551725 min
Histogram: 1 0 0 0 0 0 0 0 0 1

Total # of neighbors = 1104237
Ave neighs/atom = 56.1895
Neighbor list builds = 9505
Dangerous builds not checked
Setting up Verlet run ...
  Unit style    : metal
  Current step  : 480000
  Time step     : 0.001
Per MPI rank memory allocation (min/avg/max) = 11.3 | 11.3 | 11.3 Mbytes
Step Temp Press TotEng PotEng Enthalpy 
  480000    252.69984   -69.685893   -121096.44   -121738.32   -121116.24 
  480495    224.05011    41.767974   -121235.51   -121804.62   -121223.66 
Loop time of 40.9963 on 2 procs for 495 steps with 19652 atoms

Performance: 1.043 ns/day, 23.006 hours/ns, 12.074 timesteps/s
95.0% CPU use with 2 MPI tasks x no OpenMP threads

MPI task timing breakdown:
Section |  min time  |  avg time  |  max time  |%varavg| %total
---------------------------------------------------------------
Pair    | 23.495     | 23.529     | 23.563     |   0.7 | 57.39
Neigh   | 14.649     | 14.694     | 14.739     |   1.2 | 35.84
Comm    | 2.0479     | 2.1273     | 2.2067     |   5.4 |  5.19
Output  | 0.00014687 | 0.00016797 | 0.00018907 |   0.0 |  0.00
Modify  | 0.50623    | 0.50658    | 0.50692    |   0.0 |  1.24
Other   |            | 0.1396     |            |       |  0.34

Nlocal:    9826 ave 9827 max 9825 min
Histogram: 1 0 0 0 0 0 0 0 0 1
Nghost:    11280.5 ave 11281 max 11280 min
Histogram: 1 0 0 0 0 0 0 0 0 1
Neighs:    552598 ave 552892 max 552305 min
Histogram: 1 0 0 0 0 0 0 0 0 1

Total # of neighbors = 1105197
Ave neighs/atom = 56.2384
Neighbor list builds = 495
Dangerous builds not checked
Setting up Verlet run ...
  Unit style    : metal
  Current step  : 480495
  Time step     : 0.001
Per MPI rank memory allocation (min/avg/max) = 11.3 | 11.3 | 11.3 Mbytes
Step Temp Press TotEng PotEng Enthalpy 
  480495    224.05011    41.767974   -121235.51   -121804.62   -121223.66 
  490000    198.98168    466.96816   -121362.34   -121867.77   -121229.89 
Loop time of 800.762 on 2 procs for 9505 steps with 19652 atoms

Performance: 1.026 ns/day, 23.402 hours/ns, 11.870 timesteps/s
95.6% CPU use with 2 MPI tasks x no OpenMP threads

MPI task timing breakdown:
Section |  min time  |  avg time  |  max time  |%varavg| %total
---------------------------------------------------------------
Pair    | 431.81     | 432.17     | 432.53     |   1.7 | 53.97
Neigh   | 281.74     | 281.99     | 282.24     |   1.5 | 35.22
Comm    | 72.055     | 72.657     | 73.26      |   7.1 |  9.07
Output  | 0.039227   | 0.039262   | 0.039297   |   0.0 |  0.00
Modify  | 11.27      | 11.277     | 11.283     |   0.2 |  1.41
Other   |            | 2.63       |            |       |  0.33

Nlocal:    9826 ave 9828 max 9824 min
Histogram: 1 0 0 0 0 0 0 0 0 1
Nghost:    11288.5 ave 11290 max 11287 min
Histogram: 1 0 0 0 0 0 0 0 0 1
Neighs:    553167 ave 553180 max 553154 min
Histogram: 1 0 0 0 0 0 0 0 0 1

Total # of neighbors = 1106334
Ave neighs/atom = 56.2963
Neighbor list builds = 9505
Dangerous builds not checked
Setting up Verlet run ...
  Unit style    : metal
  Current step  : 490000
  Time step     : 0.001
Per MPI rank memory allocation (min/avg/max) = 11.3 | 11.3 | 11.3 Mbytes
Step Temp Press TotEng PotEng Enthalpy 
  490000    198.98168    466.96816   -121362.34   -121867.77   -121229.89 
  490495     175.9505   -145.76733   -121491.59   -121938.52   -121532.95 
Loop time of 38.4234 on 2 procs for 495 steps with 19652 atoms

Performance: 1.113 ns/day, 21.562 hours/ns, 12.883 timesteps/s
99.5% CPU use with 2 MPI tasks x no OpenMP threads

MPI task timing breakdown:
Section |  min time  |  avg time  |  max time  |%varavg| %total
---------------------------------------------------------------
Pair    | 21.36      | 21.528     | 21.696     |   3.6 | 56.03
Neigh   | 14.585     | 14.659     | 14.733     |   1.9 | 38.15
Comm    | 1.5165     | 1.6106     | 1.7047     |   7.4 |  4.19
Output  | 0.00011706 | 0.00015795 | 0.00019884 |   0.0 |  0.00
Modify  | 0.48932    | 0.48955    | 0.48978    |   0.0 |  1.27
Other   |            | 0.1359     |            |       |  0.35

Nlocal:    9826 ave 9828 max 9824 min
Histogram: 1 0 0 0 0 0 0 0 0 1
Nghost:    11289.5 ave 11295 max 11284 min
Histogram: 1 0 0 0 0 0 0 0 0 1
Neighs:    553183 ave 553190 max 553176 min
Histogram: 1 0 0 0 0 0 0 0 0 1

Total # of neighbors = 1106366
Ave neighs/atom = 56.2979
Neighbor list builds = 495
Dangerous builds not checked
Setting up Verlet run ...
  Unit style    : metal
  Current step  : 490495
  Time step     : 0.001
Per MPI rank memory allocation (min/avg/max) = 11.3 | 11.3 | 11.3 Mbytes
Step Temp Press TotEng PotEng Enthalpy 
  490495     175.9505   -145.76733   -121491.59   -121938.52   -121532.95 
  500000    150.88352     250.5176   -121621.03   -122004.29   -121550.03 
Loop time of 792.842 on 2 procs for 9505 steps with 19652 atoms

Performance: 1.036 ns/day, 23.170 hours/ns, 11.989 timesteps/s
96.4% CPU use with 2 MPI tasks x no OpenMP threads

MPI task timing breakdown:
Section |  min time  |  avg time  |  max time  |%varavg| %total
---------------------------------------------------------------
Pair    | 432.23     | 434.99     | 437.76     |  13.3 | 54.87
Neigh   | 284.12     | 284.28     | 284.44     |   0.9 | 35.86
Comm    | 53.723     | 55.97      | 58.217     |  30.0 |  7.06
Output  | 0.040412   | 0.040455   | 0.040497   |   0.0 |  0.01
Modify  | 14.149     | 14.837     | 15.526     |  17.9 |  1.87
Other   |            | 2.725      |            |       |  0.34

Nlocal:    9826 ave 9827 max 9825 min
Histogram: 1 0 0 0 0 0 0 0 0 1
Nghost:    11293 ave 11297 max 11289 min
Histogram: 1 0 0 0 0 0 0 0 0 1
Neighs:    553664 ave 553735 max 553592 min
Histogram: 1 0 0 0 0 0 0 0 0 1

Total # of neighbors = 1107327
Ave neighs/atom = 56.3468
Neighbor list builds = 9505
Dangerous builds not checked
Setting up Verlet run ...
  Unit style    : metal
  Current step  : 500000
  Time step     : 0.001
Per MPI rank memory allocation (min/avg/max) = 11.3 | 11.3 | 11.3 Mbytes
Step Temp Press TotEng PotEng Enthalpy 
  500000    150.88352     250.5176   -121621.03   -122004.29   -121550.03 
  500495    126.77442   -45.893538   -121743.14   -122065.16   -121756.15 
Loop time of 38.8241 on 2 procs for 495 steps with 19652 atoms

Performance: 1.102 ns/day, 21.787 hours/ns, 12.750 timesteps/s
99.7% CPU use with 2 MPI tasks x no OpenMP threads

MPI task timing breakdown:
Section |  min time  |  avg time  |  max time  |%varavg| %total
---------------------------------------------------------------
Pair    | 21.604     | 21.699     | 21.795     |   2.0 | 55.89
Neigh   | 14.803     | 14.833     | 14.863     |   0.8 | 38.21
Comm    | 1.5621     | 1.6285     | 1.6949     |   5.2 |  4.19
Output  | 8.7023e-05 | 0.00013852 | 0.00019002 |   0.0 |  0.00
Modify  | 0.5148     | 0.51604    | 0.51728    |   0.2 |  1.33
Other   |            | 0.1468     |            |       |  0.38

Nlocal:    9826 ave 9828 max 9824 min
Histogram: 1 0 0 0 0 0 0 0 0 1
Nghost:    11278.5 ave 11286 max 11271 min
Histogram: 1 0 0 0 0 0 0 0 0 1
Neighs:    553769 ave 553835 max 553703 min
Histogram: 1 0 0 0 0 0 0 0 0 1

Total # of neighbors = 1107538
Ave neighs/atom = 56.3575
Neighbor list builds = 495
Dangerous builds not checked
Setting up Verlet run ...
  Unit style    : metal
  Current step  : 500495
  Time step     : 0.001
Per MPI rank memory allocation (min/avg/max) = 11.3 | 11.3 | 11.3 Mbytes
Step Temp Press TotEng PotEng Enthalpy 
  500495    126.77442   -45.893538   -121743.14   -122065.16   -121756.15 
  510000    98.783667    152.60779   -121887.68   -122138.59   -121844.45 
Loop time of 763.747 on 2 procs for 9505 steps with 19652 atoms

Performance: 1.075 ns/day, 22.320 hours/ns, 12.445 timesteps/s
97.9% CPU use with 2 MPI tasks x no OpenMP threads

MPI task timing breakdown:
Section |  min time  |  avg time  |  max time  |%varavg| %total
---------------------------------------------------------------
Pair    | 426.4      | 428.12     | 429.85     |   8.3 | 56.06
Neigh   | 286.49     | 286.69     | 286.89     |   1.2 | 37.54
Comm    | 33.543     | 35.095     | 36.647     |  26.2 |  4.60
Output  | 0.03861    | 0.038757   | 0.038904   |   0.1 |  0.01
Modify  | 10.938     | 10.961     | 10.984     |   0.7 |  1.44
Other   |            | 2.84       |            |       |  0.37

Nlocal:    9826 ave 9829 max 9823 min
Histogram: 1 0 0 0 0 0 0 0 0 1
Nghost:    11277 ave 11286 max 11268 min
Histogram: 1 0 0 0 0 0 0 0 0 1
Neighs:    554208 ave 554427 max 553989 min
Histogram: 1 0 0 0 0 0 0 0 0 1

Total # of neighbors = 1108416
Ave neighs/atom = 56.4022
Neighbor list builds = 9505
Dangerous builds not checked
Total wall time: 11:28:28
