LAMMPS (12 Dec 2018)
Lattice spacing in x,y,z = 4 4 4
Created orthogonal box = (0 0 0) to (68 68 68)
  1 by 1 by 1 MPI processor grid
Created 19652 atoms
  Time spent = 0.003829 secs
Setting atom values ...
  0 settings made for type/fraction
Neighbor list info ...
  update every 1 steps, delay 0 steps, check no
  max neighbors/atom: 2000, page size: 100000
  master list distance cutoff = 8.5
  ghost atom cutoff = 8.5
  binsize = 4.25, bins = 16 16 16
  1 neighbor lists, perpetual/occasional/extra = 1 0 0
  (1) pair eam/alloy, perpetual
      attributes: half, newton on
      pair build: half/bin/atomonly/newton
      stencil: half/bin/3d/newton
      bin: standard
Setting up Verlet run ...
  Unit style    : metal
  Current step  : 0
  Time step     : 0.001
Per MPI rank memory allocation (min/avg/max) = 18.19 | 18.19 | 18.19 Mbytes
Step Temp Press TotEng PotEng Enthalpy Volume 
       0          300    270988.05   -20809.105   -21571.132    32373.122       314432 
     667    150.15453     268993.8   -20808.874    -21190.28    31981.975       314432 
    1000    145.93674    268905.98   -20808.868   -21179.561    31964.745       314432 
Loop time of 124.071 on 1 procs for 1000 steps with 19652 atoms

Performance: 0.696 ns/day, 34.464 hours/ns, 8.060 timesteps/s
99.4% CPU use with 1 MPI tasks x no OpenMP threads

MPI task timing breakdown:
Section |  min time  |  avg time  |  max time  |%varavg| %total
---------------------------------------------------------------
Pair    | 69.308     | 69.308     | 69.308     |   0.0 | 55.86
Neigh   | 52.621     | 52.621     | 52.621     |   0.0 | 42.41
Comm    | 0.89636    | 0.89636    | 0.89636    |   0.0 |  0.72
Output  | 0.65666    | 0.65666    | 0.65666    |   0.0 |  0.53
Modify  | 0.30357    | 0.30357    | 0.30357    |   0.0 |  0.24
Other   |            | 0.2857     |            |       |  0.23

Nlocal:    19652 ave 19652 max 19652 min
Histogram: 1 0 0 0 0 0 0 0 0 0
Nghost:    20102 ave 20102 max 20102 min
Histogram: 1 0 0 0 0 0 0 0 0 0
Neighs:    1.5731e+06 ave 1.5731e+06 max 1.5731e+06 min
Histogram: 1 0 0 0 0 0 0 0 0 0

Total # of neighbors = 1573101
Ave neighs/atom = 80.0479
Neighbor list builds = 1000
Dangerous builds not checked
Setting up Verlet run ...
  Unit style    : metal
  Current step  : 1000
  Time step     : 0.001
Per MPI rank memory allocation (min/avg/max) = 18.19 | 18.19 | 18.19 Mbytes
Step Temp Press TotEng PotEng Enthalpy Volume 
    1000    145.93674    268905.98   -20808.868   -21179.561    31964.745       314432 
    1334    146.28534    27034.905   -28861.465   -29233.043    -21708.06    423934.04 
    2000    257.25466    307.07764   -28438.174   -29091.624   -28350.868    455518.46 
Loop time of 107.602 on 1 procs for 1000 steps with 19652 atoms

Performance: 0.803 ns/day, 29.889 hours/ns, 9.294 timesteps/s
99.9% CPU use with 1 MPI tasks x no OpenMP threads

MPI task timing breakdown:
Section |  min time  |  avg time  |  max time  |%varavg| %total
---------------------------------------------------------------
Pair    | 55.489     | 55.489     | 55.489     |   0.0 | 51.57
Neigh   | 49.793     | 49.793     | 49.793     |   0.0 | 46.28
Comm    | 0.82422    | 0.82422    | 0.82422    |   0.0 |  0.77
Output  | 0.081403   | 0.081403   | 0.081403   |   0.0 |  0.08
Modify  | 1.1263     | 1.1263     | 1.1263     |   0.0 |  1.05
Other   |            | 0.2883     |            |       |  0.27

Nlocal:    19652 ave 19652 max 19652 min
Histogram: 1 0 0 0 0 0 0 0 0 0
Nghost:    14808 ave 14808 max 14808 min
Histogram: 1 0 0 0 0 0 0 0 0 0
Neighs:    1.11473e+06 ave 1.11473e+06 max 1.11473e+06 min
Histogram: 1 0 0 0 0 0 0 0 0 0

Total # of neighbors = 1114730
Ave neighs/atom = 56.7235
Neighbor list builds = 1000
Dangerous builds not checked
Setting up Verlet run ...
  Unit style    : metal
  Current step  : 2000
  Time step     : 0.001
Per MPI rank memory allocation (min/avg/max) = 18.19 | 18.19 | 18.19 Mbytes
Step Temp Press TotEng PotEng Enthalpy Volume 
    2000    257.25466    307.07764   -28438.174   -29091.624   -28350.868    455518.46 
    2001     257.2898    306.44409   -28438.165   -29091.704   -28351.039    455518.58 
    2668    367.18012   -259.89806   -27854.756   -28787.427   -27929.382    460040.45 
    3335    575.86761    206.02335   -26734.993   -28197.749   -26674.919    467174.33 
    4002     797.2263   -217.30338   -25393.404   -27418.432   -25458.314    478579.44 
    4669    992.54343    244.15458   -24118.941   -26640.092   -24044.333     489588.7 
    5336    1172.0962   -51.350134   -22738.526   -25715.757   -22754.714    505102.27 
    6003    1323.8358    240.69614   -20909.109   -24271.772   -20829.066     532798.1 
    6670     1555.023    -194.8557   -19231.257   -23181.157   -19299.369    560041.54 
    7337    1731.2698   -164.52374   -18168.489   -22566.072   -18227.707    576680.19 
    8004    1911.0947   -161.47754   -17042.921   -21897.275   -17102.981    595911.19 
    8671     2105.614    147.07254   -15864.551   -21213.003   -15807.833    617878.63 
    9338    2263.0335    289.61149   -14779.065   -20527.376   -14662.905    642618.45 
   10000    2429.6366   -9.0406821   -13540.449   -19711.947   -13544.259    675234.55 
Loop time of 751.53 on 1 procs for 8000 steps with 19652 atoms

Performance: 0.920 ns/day, 26.095 hours/ns, 10.645 timesteps/s
99.3% CPU use with 1 MPI tasks x no OpenMP threads

MPI task timing breakdown:
Section |  min time  |  avg time  |  max time  |%varavg| %total
---------------------------------------------------------------
Pair    | 379.38     | 379.38     | 379.38     |   0.0 | 50.48
Neigh   | 351.21     | 351.21     | 351.21     |   0.0 | 46.73
Comm    | 6.8697     | 6.8697     | 6.8697     |   0.0 |  0.91
Output  | 2.2908     | 2.2908     | 2.2908     |   0.0 |  0.30
Modify  | 9.277      | 9.277      | 9.277      |   0.0 |  1.23
Other   |            | 2.501      |            |       |  0.33

Nlocal:    19652 ave 19652 max 19652 min
Histogram: 1 0 0 0 0 0 0 0 0 0
Nghost:    13682 ave 13682 max 13682 min
Histogram: 1 0 0 0 0 0 0 0 0 0
Neighs:    727007 ave 727007 max 727007 min
Histogram: 1 0 0 0 0 0 0 0 0 0

Total # of neighbors = 727007
Ave neighs/atom = 36.994
Neighbor list builds = 8000
Dangerous builds not checked
Setting up Verlet run ...
  Unit style    : metal
  Current step  : 10000
  Time step     : 0.001
Per MPI rank memory allocation (min/avg/max) = 18.22 | 18.22 | 18.22 Mbytes
Step Temp Press TotEng PotEng Enthalpy Volume 
   10000    2429.6366   -9.0406821   -13540.449   -19711.947   -13544.259    675234.55 
   10005     2432.793   -43.292315    -13540.33   -19719.846   -13558.576     675234.5 
   10672    2456.8588    -326.7513   -13263.891   -19504.536   -13403.944    686729.01 
   11339    2432.2245   -79.866191   -13318.842   -19496.914   -13353.096    687158.35 
   12006    2467.7649    177.30017   -13292.152   -19560.499   -13216.645    682315.06 
   12673     2446.413   -119.78829   -13244.606   -19458.718   -13296.056    688146.72 
   13340    2441.0958   -437.57977   -13245.244    -19445.85   -13433.777    690303.72 
   14007    2445.6692   -34.019274   -13341.079   -19553.302   -13355.606    684167.88 
   14674    2462.5983    -253.4466   -13141.419   -19396.643   -13250.764    691230.21 
   15341    2452.7232    428.58578   -13360.389   -19590.529   -13178.439    680180.66 
   16008    2462.2052   -335.18429   -13209.245    -19463.47   -13353.352     688829.2 
   16675    2455.1101    451.76903   -13242.473   -19478.677   -13049.152    685605.28 
   17342    2447.0102   -325.04162   -13168.201    -19383.83   -13308.861    693334.26 
   18009    2458.6436    49.313095   -13125.388   -19370.567   -13104.056    693079.34 
   18676    2455.0731   -97.767685   -13362.142   -19598.251   -13403.758    681981.52 
   19343      2433.88   -89.749027   -13269.173    -19451.45    -13307.69    687585.71 
   20010    2479.9585    249.24267   -13290.088   -19589.408   -13184.125    681148.92 
   20677    2457.9071   -19.118024   -13254.835   -19498.143   -13263.037     687384.7 
   21344    2474.7933    -37.65238   -13076.236   -19362.437   -13092.544    693905.19 
   22011    2441.8875    327.97164   -13230.232   -19432.849    -13089.42    687883.12 
   22678      2445.66   -132.01413   -13330.499   -19542.698   -13386.994    685647.56 
   23345    2487.1922    158.92381    -13143.58   -19461.275   -13075.354    687813.26 
   24012    2454.1638    397.63308   -13261.312   -19495.111   -13091.632    683688.37 
   24679    2434.7623    107.80076   -13315.366   -19499.884   -13269.244    685480.93 
   25346    2443.6765   -405.51285   -13380.113   -19587.274   -13553.321    684342.86 
   26013    2425.3899    344.67202   -13372.266   -19532.977   -13225.694    681325.67 
   26680    2458.6999   -193.45985   -13214.933   -19460.255   -13298.062    688449.23 
   27347    2477.6868    -97.27979    -13149.77    -19443.32   -13191.617    689213.41 
   28014    2456.7474    232.59017   -13353.185   -19593.547   -13254.366    680701.27 
   28681    2437.4135    127.07228   -13284.216   -19475.468    -13229.82    685849.82 
   29348    2441.3506    37.723684   -13178.707    -19379.96   -13162.441    690814.81 
   30015         2449     177.3334   -13324.298   -19544.981   -13248.638     683568.8 
   30682    2420.9336   -260.76596    -13301.38   -19450.772   -13413.609    689548.72 
   31349    2466.4194    229.66612   -13199.746   -19464.676    -13101.34     686493.8 
   32016    2435.5103   -1.3499737   -13339.043   -19525.461    -13339.62    684770.65 
   32683    2465.2152   -49.181222   -13302.839    -19564.71   -13323.852    684554.38 
   33350     2449.924   -368.32838   -13179.634   -19402.664   -13338.734    692063.77 
   34017    2454.4076    82.400048   -13173.996   -19408.415   -13138.497    690251.17 
   34684    2441.9747     324.6985   -13398.816   -19601.654   -13260.923    680415.75 
   35351    2464.9043   -456.71939   -13172.329    -19433.41   -13369.607    692054.54 
   36018    2448.7467     246.1148   -13121.752   -19341.792    -13015.62    690909.88 
   36685    2429.6344   -9.9974597   -13440.379   -19611.872   -13444.635    681973.84 
   37352    2443.8237    297.25298   -13300.368   -19507.903   -13173.548    683554.61 
   38019    2450.0739 -0.030195014   -13117.774   -19341.184   -13117.787     692671.4 
   38686    2452.7009    187.44369   -13315.215   -19545.299   -13235.153    684330.29 
   39353    2443.6591   -265.23873   -13305.166   -19512.283   -13418.851    686713.07 
   40000    2465.4297   -198.73494    -13207.77   -19470.187   -13293.203    688748.41 
Loop time of 2456.92 on 1 procs for 30000 steps with 19652 atoms

Performance: 1.055 ns/day, 22.749 hours/ns, 12.210 timesteps/s
99.8% CPU use with 1 MPI tasks x no OpenMP threads

MPI task timing breakdown:
Section |  min time  |  avg time  |  max time  |%varavg| %total
---------------------------------------------------------------
Pair    | 1166       | 1166       | 1166       |   0.0 | 47.46
Neigh   | 1218.5     | 1218.5     | 1218.5     |   0.0 | 49.59
Comm    | 25.282     | 25.282     | 25.282     |   0.0 |  1.03
Output  | 3.3688     | 3.3688     | 3.3688     |   0.0 |  0.14
Modify  | 34.799     | 34.799     | 34.799     |   0.0 |  1.42
Other   |            | 8.998      |            |       |  0.37

Nlocal:    19652 ave 19652 max 19652 min
Histogram: 1 0 0 0 0 0 0 0 0 0
Nghost:    13656 ave 13656 max 13656 min
Histogram: 1 0 0 0 0 0 0 0 0 0
Neighs:    713738 ave 713738 max 713738 min
Histogram: 1 0 0 0 0 0 0 0 0 0

Total # of neighbors = 713738
Ave neighs/atom = 36.3188
Neighbor list builds = 30000
Dangerous builds not checked
Setting up Verlet run ...
  Unit style    : metal
  Current step  : 40000
  Time step     : 0.001
Per MPI rank memory allocation (min/avg/max) = 18.22 | 18.22 | 18.22 Mbytes
Step Temp Press TotEng PotEng Enthalpy Volume 
   40000    2465.4297   -198.73494    -13207.77   -19470.187   -13293.203    688748.41 
   40020     2469.113   -167.19509   -13209.702   -19481.474   -13281.576    688739.76 
   40495    2409.6925   -6.8106383   -13445.411   -19566.249   -13448.315    683201.81 
Loop time of 40.3785 on 1 procs for 495 steps with 19652 atoms

Performance: 1.059 ns/day, 22.659 hours/ns, 12.259 timesteps/s
99.9% CPU use with 1 MPI tasks x no OpenMP threads

MPI task timing breakdown:
Section |  min time  |  avg time  |  max time  |%varavg| %total
---------------------------------------------------------------
Pair    | 19.264     | 19.264     | 19.264     |   0.0 | 47.71
Neigh   | 19.881     | 19.881     | 19.881     |   0.0 | 49.24
Comm    | 0.4155     | 0.4155     | 0.4155     |   0.0 |  1.03
Output  | 0.065069   | 0.065069   | 0.065069   |   0.0 |  0.16
Modify  | 0.58802    | 0.58802    | 0.58802    |   0.0 |  1.46
Other   |            | 0.1649     |            |       |  0.41

Nlocal:    19652 ave 19652 max 19652 min
Histogram: 1 0 0 0 0 0 0 0 0 0
Nghost:    13649 ave 13649 max 13649 min
Histogram: 1 0 0 0 0 0 0 0 0 0
Neighs:    719615 ave 719615 max 719615 min
Histogram: 1 0 0 0 0 0 0 0 0 0

Total # of neighbors = 719615
Ave neighs/atom = 36.6179
Neighbor list builds = 495
Dangerous builds not checked
Setting up Verlet run ...
  Unit style    : metal
  Current step  : 40495
  Time step     : 0.001
Per MPI rank memory allocation (min/avg/max) = 18.22 | 18.22 | 18.22 Mbytes
Step Temp Press TotEng PotEng Enthalpy Volume 
   40495    2409.6925   -6.8106383   -13445.411   -19566.249   -13448.315    683201.81 
   40667    2395.0261   -428.67555   -13548.126   -19631.711   -13730.712     682414.9 
Loop time of 13.7887 on 1 procs for 172 steps with 19652 atoms

Performance: 1.078 ns/day, 22.269 hours/ns, 12.474 timesteps/s
100.0% CPU use with 1 MPI tasks x no OpenMP threads

MPI task timing breakdown:
Section |  min time  |  avg time  |  max time  |%varavg| %total
---------------------------------------------------------------
Pair    | 6.6117     | 6.6117     | 6.6117     |   0.0 | 47.95
Neigh   | 6.7793     | 6.7793     | 6.7793     |   0.0 | 49.17
Comm    | 0.1421     | 0.1421     | 0.1421     |   0.0 |  1.03
Output  | 0.00017095 | 0.00017095 | 0.00017095 |   0.0 |  0.00
Modify  | 0.19862    | 0.19862    | 0.19862    |   0.0 |  1.44
Other   |            | 0.0568     |            |       |  0.41

Nlocal:    19652 ave 19652 max 19652 min
Histogram: 1 0 0 0 0 0 0 0 0 0
Nghost:    13739 ave 13739 max 13739 min
Histogram: 1 0 0 0 0 0 0 0 0 0
Neighs:    720399 ave 720399 max 720399 min
Histogram: 1 0 0 0 0 0 0 0 0 0

Total # of neighbors = 720399
Ave neighs/atom = 36.6578
Neighbor list builds = 172
Dangerous builds not checked
Setting up Verlet run ...
  Unit style    : metal
  Current step  : 40667
  Time step     : 0.001
Per MPI rank memory allocation (min/avg/max) = 18.22 | 18.22 | 18.22 Mbytes
Step Temp Press TotEng PotEng Enthalpy Volume 
   40667    2395.0261   -428.67555   -13548.126   -19631.711   -13730.712     682414.9 
   40687     2390.555   -211.56853   -13547.454   -19619.681   -13637.565    682399.11 
   41162    2365.9619   -183.81075   -13789.972   -19799.731   -13867.372    674655.88 
Loop time of 44.2912 on 1 procs for 495 steps with 19652 atoms

Performance: 0.966 ns/day, 24.855 hours/ns, 11.176 timesteps/s
99.4% CPU use with 1 MPI tasks x no OpenMP threads

MPI task timing breakdown:
Section |  min time  |  avg time  |  max time  |%varavg| %total
---------------------------------------------------------------
Pair    | 21.576     | 21.576     | 21.576     |   0.0 | 48.71
Neigh   | 21.351     | 21.351     | 21.351     |   0.0 | 48.21
Comm    | 0.46773    | 0.46773    | 0.46773    |   0.0 |  1.06
Output  | 0.066991   | 0.066991   | 0.066991   |   0.0 |  0.15
Modify  | 0.64909    | 0.64909    | 0.64909    |   0.0 |  1.47
Other   |            | 0.1801     |            |       |  0.41

Nlocal:    19652 ave 19652 max 19652 min
Histogram: 1 0 0 0 0 0 0 0 0 0
Nghost:    13742 ave 13742 max 13742 min
Histogram: 1 0 0 0 0 0 0 0 0 0
Neighs:    728005 ave 728005 max 728005 min
Histogram: 1 0 0 0 0 0 0 0 0 0

Total # of neighbors = 728005
Ave neighs/atom = 37.0448
Neighbor list builds = 495
Dangerous builds not checked
Setting up Verlet run ...
  Unit style    : metal
  Current step  : 41162
  Time step     : 0.001
Per MPI rank memory allocation (min/avg/max) = 18.22 | 18.22 | 18.22 Mbytes
Step Temp Press TotEng PotEng Enthalpy Volume 
   41162    2365.9619   -183.81075   -13789.972   -19799.731   -13867.372    674655.88 
   41334    2345.9729   -301.31313   -13871.267   -19830.252   -13998.044     674110.6 
Loop time of 14.0182 on 1 procs for 172 steps with 19652 atoms

Performance: 1.060 ns/day, 22.639 hours/ns, 12.270 timesteps/s
100.0% CPU use with 1 MPI tasks x no OpenMP threads

MPI task timing breakdown:
Section |  min time  |  avg time  |  max time  |%varavg| %total
---------------------------------------------------------------
Pair    | 6.797      | 6.797      | 6.797      |   0.0 | 48.49
Neigh   | 6.8061     | 6.8061     | 6.8061     |   0.0 | 48.55
Comm    | 0.1542     | 0.1542     | 0.1542     |   0.0 |  1.10
Output  | 0.00015211 | 0.00015211 | 0.00015211 |   0.0 |  0.00
Modify  | 0.2048     | 0.2048     | 0.2048     |   0.0 |  1.46
Other   |            | 0.05591    |            |       |  0.40

Nlocal:    19652 ave 19652 max 19652 min
Histogram: 1 0 0 0 0 0 0 0 0 0
Nghost:    13748 ave 13748 max 13748 min
Histogram: 1 0 0 0 0 0 0 0 0 0
Neighs:    729161 ave 729161 max 729161 min
Histogram: 1 0 0 0 0 0 0 0 0 0

Total # of neighbors = 729161
Ave neighs/atom = 37.1037
Neighbor list builds = 172
Dangerous builds not checked
Setting up Verlet run ...
  Unit style    : metal
  Current step  : 41334
  Time step     : 0.001
Per MPI rank memory allocation (min/avg/max) = 18.22 | 18.22 | 18.22 Mbytes
Step Temp Press TotEng PotEng Enthalpy Volume 
   41334    2345.9729   -301.31313   -13871.267   -19830.252   -13998.044     674110.6 
   41354    2336.8368   -120.14068   -13870.727   -19806.506   -13921.275     674100.4 
   41829    2336.6602    -660.7424   -14110.433   -20045.763   -14385.162    666166.69 
Loop time of 44.4456 on 1 procs for 495 steps with 19652 atoms

Performance: 0.962 ns/day, 24.941 hours/ns, 11.137 timesteps/s
97.6% CPU use with 1 MPI tasks x no OpenMP threads

MPI task timing breakdown:
Section |  min time  |  avg time  |  max time  |%varavg| %total
---------------------------------------------------------------
Pair    | 21.539     | 21.539     | 21.539     |   0.0 | 48.46
Neigh   | 21.54      | 21.54      | 21.54      |   0.0 | 48.46
Comm    | 0.4631     | 0.4631     | 0.4631     |   0.0 |  1.04
Output  | 0.091204   | 0.091204   | 0.091204   |   0.0 |  0.21
Modify  | 0.63261    | 0.63261    | 0.63261    |   0.0 |  1.42
Other   |            | 0.1792     |            |       |  0.40

Nlocal:    19652 ave 19652 max 19652 min
Histogram: 1 0 0 0 0 0 0 0 0 0
Nghost:    13832 ave 13832 max 13832 min
Histogram: 1 0 0 0 0 0 0 0 0 0
Neighs:    737495 ave 737495 max 737495 min
Histogram: 1 0 0 0 0 0 0 0 0 0

Total # of neighbors = 737495
Ave neighs/atom = 37.5277
Neighbor list builds = 495
Dangerous builds not checked
Setting up Verlet run ...
  Unit style    : metal
  Current step  : 41829
  Time step     : 0.001
Per MPI rank memory allocation (min/avg/max) = 18.22 | 18.22 | 18.22 Mbytes
Step Temp Press TotEng PotEng Enthalpy Volume 
   41829    2336.6602    -660.7424   -14110.433   -20045.763   -14385.162    666166.69 
   42001    2296.9581   -510.25243   -14202.417     -20036.9   -14414.045    664503.62 
Loop time of 12.6315 on 1 procs for 172 steps with 19652 atoms

Performance: 1.176 ns/day, 20.400 hours/ns, 13.617 timesteps/s
100.0% CPU use with 1 MPI tasks x no OpenMP threads

MPI task timing breakdown:
Section |  min time  |  avg time  |  max time  |%varavg| %total
---------------------------------------------------------------
Pair    | 6.031      | 6.031      | 6.031      |   0.0 | 47.75
Neigh   | 6.2439     | 6.2439     | 6.2439     |   0.0 | 49.43
Comm    | 0.12693    | 0.12693    | 0.12693    |   0.0 |  1.00
Output  | 0.00019097 | 0.00019097 | 0.00019097 |   0.0 |  0.00
Modify  | 0.17939    | 0.17939    | 0.17939    |   0.0 |  1.42
Other   |            | 0.05006    |            |       |  0.40

Nlocal:    19652 ave 19652 max 19652 min
Histogram: 1 0 0 0 0 0 0 0 0 0
Nghost:    13795 ave 13795 max 13795 min
Histogram: 1 0 0 0 0 0 0 0 0 0
Neighs:    739516 ave 739516 max 739516 min
Histogram: 1 0 0 0 0 0 0 0 0 0

Total # of neighbors = 739516
Ave neighs/atom = 37.6306
Neighbor list builds = 172
Dangerous builds not checked
Setting up Verlet run ...
  Unit style    : metal
  Current step  : 42001
  Time step     : 0.001
Per MPI rank memory allocation (min/avg/max) = 18.22 | 18.22 | 18.22 Mbytes
Step Temp Press TotEng PotEng Enthalpy Volume 
   42001    2296.9581   -510.25243   -14202.417     -20036.9   -14414.045    664503.62 
   42021    2292.1916    -426.3044   -14201.805   -20024.181    -14378.61    664483.53 
   42496    2269.2888   -54.545953   -14448.932   -20213.133   -14471.244    655367.28 
Loop time of 42.062 on 1 procs for 495 steps with 19652 atoms

Performance: 1.017 ns/day, 23.604 hours/ns, 11.768 timesteps/s
99.9% CPU use with 1 MPI tasks x no OpenMP threads

MPI task timing breakdown:
Section |  min time  |  avg time  |  max time  |%varavg| %total
---------------------------------------------------------------
Pair    | 20.352     | 20.352     | 20.352     |   0.0 | 48.39
Neigh   | 20.415     | 20.415     | 20.415     |   0.0 | 48.54
Comm    | 0.43262    | 0.43262    | 0.43262    |   0.0 |  1.03
Output  | 0.088106   | 0.088106   | 0.088106   |   0.0 |  0.21
Modify  | 0.6082     | 0.6082     | 0.6082     |   0.0 |  1.45
Other   |            | 0.1658     |            |       |  0.39

Nlocal:    19652 ave 19652 max 19652 min
Histogram: 1 0 0 0 0 0 0 0 0 0
Nghost:    13937 ave 13937 max 13937 min
Histogram: 1 0 0 0 0 0 0 0 0 0
Neighs:    749648 ave 749648 max 749648 min
Histogram: 1 0 0 0 0 0 0 0 0 0

Total # of neighbors = 749648
Ave neighs/atom = 38.1461
Neighbor list builds = 495
Dangerous builds not checked
Setting up Verlet run ...
  Unit style    : metal
  Current step  : 42496
  Time step     : 0.001
Per MPI rank memory allocation (min/avg/max) = 18.22 | 18.22 | 18.22 Mbytes
Step Temp Press TotEng PotEng Enthalpy Volume 
   42496    2269.2888   -54.545953   -14448.932   -20213.133   -14471.244    655367.28 
   42668    2250.8408   -436.96705   -14557.077   -20274.418   -14735.603    654578.13 
Loop time of 13.6852 on 1 procs for 172 steps with 19652 atoms

Performance: 1.086 ns/day, 22.101 hours/ns, 12.568 timesteps/s
100.0% CPU use with 1 MPI tasks x no OpenMP threads

MPI task timing breakdown:
Section |  min time  |  avg time  |  max time  |%varavg| %total
---------------------------------------------------------------
Pair    | 6.6165     | 6.6165     | 6.6165     |   0.0 | 48.35
Neigh   | 6.6807     | 6.6807     | 6.6807     |   0.0 | 48.82
Comm    | 0.13636    | 0.13636    | 0.13636    |   0.0 |  1.00
Output  | 0.00012898 | 0.00012898 | 0.00012898 |   0.0 |  0.00
Modify  | 0.19698    | 0.19698    | 0.19698    |   0.0 |  1.44
Other   |            | 0.05456    |            |       |  0.40

Nlocal:    19652 ave 19652 max 19652 min
Histogram: 1 0 0 0 0 0 0 0 0 0
Nghost:    13964 ave 13964 max 13964 min
Histogram: 1 0 0 0 0 0 0 0 0 0
Neighs:    749829 ave 749829 max 749829 min
Histogram: 1 0 0 0 0 0 0 0 0 0

Total # of neighbors = 749829
Ave neighs/atom = 38.1554
Neighbor list builds = 172
Dangerous builds not checked
Setting up Verlet run ...
  Unit style    : metal
  Current step  : 42668
  Time step     : 0.001
Per MPI rank memory allocation (min/avg/max) = 18.22 | 18.22 | 18.22 Mbytes
Step Temp Press TotEng PotEng Enthalpy Volume 
   42668    2250.8408   -436.96705   -14557.077   -20274.418   -14735.603    654578.13 
   42688    2251.1865   -511.12063   -14557.132   -20275.351   -14765.948    654559.43 
   43163    2223.6989    80.751227   -14859.576   -20507.973   -14827.136    643628.02 
Loop time of 42.0162 on 1 procs for 495 steps with 19652 atoms

Performance: 1.018 ns/day, 23.578 hours/ns, 11.781 timesteps/s
99.9% CPU use with 1 MPI tasks x no OpenMP threads

MPI task timing breakdown:
Section |  min time  |  avg time  |  max time  |%varavg| %total
---------------------------------------------------------------
Pair    | 20.648     | 20.648     | 20.648     |   0.0 | 49.14
Neigh   | 20.104     | 20.104     | 20.104     |   0.0 | 47.85
Comm    | 0.4325     | 0.4325     | 0.4325     |   0.0 |  1.03
Output  | 0.071874   | 0.071874   | 0.071874   |   0.0 |  0.17
Modify  | 0.59358    | 0.59358    | 0.59358    |   0.0 |  1.41
Other   |            | 0.1664     |            |       |  0.40

Nlocal:    19652 ave 19652 max 19652 min
Histogram: 1 0 0 0 0 0 0 0 0 0
Nghost:    14029 ave 14029 max 14029 min
Histogram: 1 0 0 0 0 0 0 0 0 0
Neighs:    763053 ave 763053 max 763053 min
Histogram: 1 0 0 0 0 0 0 0 0 0

Total # of neighbors = 763053
Ave neighs/atom = 38.8283
Neighbor list builds = 495
Dangerous builds not checked
Setting up Verlet run ...
  Unit style    : metal
  Current step  : 43163
  Time step     : 0.001
Per MPI rank memory allocation (min/avg/max) = 18.22 | 18.22 | 18.22 Mbytes
Step Temp Press TotEng PotEng Enthalpy Volume 
   43163    2223.6989    80.751227   -14859.576   -20507.973   -14827.136    643628.02 
   43335    2207.3887   -249.83506   -14962.953   -20569.922   -15063.278    643377.56 
Loop time of 13.7806 on 1 procs for 172 steps with 19652 atoms

Performance: 1.078 ns/day, 22.255 hours/ns, 12.481 timesteps/s
100.0% CPU use with 1 MPI tasks x no OpenMP threads

MPI task timing breakdown:
Section |  min time  |  avg time  |  max time  |%varavg| %total
---------------------------------------------------------------
Pair    | 6.6973     | 6.6973     | 6.6973     |   0.0 | 48.60
Neigh   | 6.6792     | 6.6792     | 6.6792     |   0.0 | 48.47
Comm    | 0.14247    | 0.14247    | 0.14247    |   0.0 |  1.03
Output  | 0.00016117 | 0.00016117 | 0.00016117 |   0.0 |  0.00
Modify  | 0.20433    | 0.20433    | 0.20433    |   0.0 |  1.48
Other   |            | 0.05704    |            |       |  0.41

Nlocal:    19652 ave 19652 max 19652 min
Histogram: 1 0 0 0 0 0 0 0 0 0
Nghost:    14027 ave 14027 max 14027 min
Histogram: 1 0 0 0 0 0 0 0 0 0
Neighs:    763161 ave 763161 max 763161 min
Histogram: 1 0 0 0 0 0 0 0 0 0

Total # of neighbors = 763161
Ave neighs/atom = 38.8338
Neighbor list builds = 172
Dangerous builds not checked
Setting up Verlet run ...
  Unit style    : metal
  Current step  : 43335
  Time step     : 0.001
Per MPI rank memory allocation (min/avg/max) = 18.22 | 18.22 | 18.22 Mbytes
Step Temp Press TotEng PotEng Enthalpy Volume 
   43335    2207.3887   -249.83506   -14962.953   -20569.922   -15063.278    643377.56 
   43355    2212.3563   -453.12507   -14964.181   -20583.767   -15146.136    643363.68 
   43830    2169.9313   -36.021917   -15247.427    -20759.25     -15261.7    634837.51 
Loop time of 40.5059 on 1 procs for 495 steps with 19652 atoms

Performance: 1.056 ns/day, 22.731 hours/ns, 12.220 timesteps/s
99.9% CPU use with 1 MPI tasks x no OpenMP threads

MPI task timing breakdown:
Section |  min time  |  avg time  |  max time  |%varavg| %total
---------------------------------------------------------------
Pair    | 19.77      | 19.77      | 19.77      |   0.0 | 48.81
Neigh   | 19.491     | 19.491     | 19.491     |   0.0 | 48.12
Comm    | 0.41001    | 0.41001    | 0.41001    |   0.0 |  1.01
Output  | 0.095834   | 0.095834   | 0.095834   |   0.0 |  0.24
Modify  | 0.57773    | 0.57773    | 0.57773    |   0.0 |  1.43
Other   |            | 0.1615     |            |       |  0.40

Nlocal:    19652 ave 19652 max 19652 min
Histogram: 1 0 0 0 0 0 0 0 0 0
Nghost:    14125 ave 14125 max 14125 min
Histogram: 1 0 0 0 0 0 0 0 0 0
Neighs:    773024 ave 773024 max 773024 min
Histogram: 1 0 0 0 0 0 0 0 0 0

Total # of neighbors = 773024
Ave neighs/atom = 39.3356
Neighbor list builds = 495
Dangerous builds not checked
Setting up Verlet run ...
  Unit style    : metal
  Current step  : 43830
  Time step     : 0.001
Per MPI rank memory allocation (min/avg/max) = 18.22 | 18.22 | 18.22 Mbytes
Step Temp Press TotEng PotEng Enthalpy Volume 
   43830    2169.9313   -36.021917   -15247.427    -20759.25     -15261.7    634837.51 
   44002     2135.687   -269.26712   -15335.358   -20760.198   -15441.929    634112.35 
Loop time of 14.988 on 1 procs for 172 steps with 19652 atoms

Performance: 0.992 ns/day, 24.205 hours/ns, 11.476 timesteps/s
100.0% CPU use with 1 MPI tasks x no OpenMP threads

MPI task timing breakdown:
Section |  min time  |  avg time  |  max time  |%varavg| %total
---------------------------------------------------------------
Pair    | 7.4636     | 7.4636     | 7.4636     |   0.0 | 49.80
Neigh   | 7.1015     | 7.1015     | 7.1015     |   0.0 | 47.38
Comm    | 0.15352    | 0.15352    | 0.15352    |   0.0 |  1.02
Output  | 0.00019002 | 0.00019002 | 0.00019002 |   0.0 |  0.00
Modify  | 0.20941    | 0.20941    | 0.20941    |   0.0 |  1.40
Other   |            | 0.05976    |            |       |  0.40

Nlocal:    19652 ave 19652 max 19652 min
Histogram: 1 0 0 0 0 0 0 0 0 0
Nghost:    14084 ave 14084 max 14084 min
Histogram: 1 0 0 0 0 0 0 0 0 0
Neighs:    773917 ave 773917 max 773917 min
Histogram: 1 0 0 0 0 0 0 0 0 0

Total # of neighbors = 773917
Ave neighs/atom = 39.3811
Neighbor list builds = 172
Dangerous builds not checked
Setting up Verlet run ...
  Unit style    : metal
  Current step  : 44002
  Time step     : 0.001
Per MPI rank memory allocation (min/avg/max) = 18.22 | 18.22 | 18.22 Mbytes
Step Temp Press TotEng PotEng Enthalpy Volume 
   44002     2135.687   -269.26712   -15335.358   -20760.198   -15441.929    634112.35 
   44022    2153.2278   -409.40756   -15334.808   -20804.203   -15496.841    634099.34 
   44497    2122.4105     41.57704   -15567.853   -20958.969   -15551.582    627004.14 
Loop time of 41.8203 on 1 procs for 495 steps with 19652 atoms

Performance: 1.023 ns/day, 23.468 hours/ns, 11.836 timesteps/s
99.9% CPU use with 1 MPI tasks x no OpenMP threads

MPI task timing breakdown:
Section |  min time  |  avg time  |  max time  |%varavg| %total
---------------------------------------------------------------
Pair    | 20.565     | 20.565     | 20.565     |   0.0 | 49.18
Neigh   | 19.989     | 19.989     | 19.989     |   0.0 | 47.80
Comm    | 0.41819    | 0.41819    | 0.41819    |   0.0 |  1.00
Output  | 0.089767   | 0.089767   | 0.089767   |   0.0 |  0.21
Modify  | 0.59234    | 0.59234    | 0.59234    |   0.0 |  1.42
Other   |            | 0.1651     |            |       |  0.39

Nlocal:    19652 ave 19652 max 19652 min
Histogram: 1 0 0 0 0 0 0 0 0 0
Nghost:    14212 ave 14212 max 14212 min
Histogram: 1 0 0 0 0 0 0 0 0 0
Neighs:    782411 ave 782411 max 782411 min
Histogram: 1 0 0 0 0 0 0 0 0 0

Total # of neighbors = 782411
Ave neighs/atom = 39.8133
Neighbor list builds = 495
Dangerous builds not checked
Setting up Verlet run ...
  Unit style    : metal
  Current step  : 44497
  Time step     : 0.001
Per MPI rank memory allocation (min/avg/max) = 18.22 | 18.22 | 18.22 Mbytes
Step Temp Press TotEng PotEng Enthalpy Volume 
   44497    2122.4105     41.57704   -15567.853   -20958.969   -15551.582    627004.14 
   44669    2097.6967   -638.63188   -15665.675   -20994.016   -15915.468    626669.84 
Loop time of 15.1579 on 1 procs for 172 steps with 19652 atoms

Performance: 0.980 ns/day, 24.480 hours/ns, 11.347 timesteps/s
100.0% CPU use with 1 MPI tasks x no OpenMP threads

MPI task timing breakdown:
Section |  min time  |  avg time  |  max time  |%varavg| %total
---------------------------------------------------------------
Pair    | 7.5292     | 7.5292     | 7.5292     |   0.0 | 49.67
Neigh   | 7.1893     | 7.1893     | 7.1893     |   0.0 | 47.43
Comm    | 0.15538    | 0.15538    | 0.15538    |   0.0 |  1.03
Output  | 0.00019097 | 0.00019097 | 0.00019097 |   0.0 |  0.00
Modify  | 0.22336    | 0.22336    | 0.22336    |   0.0 |  1.47
Other   |            | 0.06045    |            |       |  0.40

Nlocal:    19652 ave 19652 max 19652 min
Histogram: 1 0 0 0 0 0 0 0 0 0
Nghost:    14198 ave 14198 max 14198 min
Histogram: 1 0 0 0 0 0 0 0 0 0
Neighs:    782725 ave 782725 max 782725 min
Histogram: 1 0 0 0 0 0 0 0 0 0

Total # of neighbors = 782725
Ave neighs/atom = 39.8293
Neighbor list builds = 172
Dangerous builds not checked
Setting up Verlet run ...
  Unit style    : metal
  Current step  : 44669
  Time step     : 0.001
Per MPI rank memory allocation (min/avg/max) = 18.22 | 18.22 | 18.22 Mbytes
Step Temp Press TotEng PotEng Enthalpy Volume 
   44669    2097.6967   -638.63188   -15665.675   -20994.016   -15915.468    626669.84 
   44689    2116.0324   -789.83949   -15666.143   -21041.058   -15975.064    626641.01 
   45164    2064.6033    179.52752   -15926.522   -21170.802   -15857.245    618249.93 
Loop time of 42.6005 on 1 procs for 495 steps with 19652 atoms

Performance: 1.004 ns/day, 23.906 hours/ns, 11.620 timesteps/s
99.9% CPU use with 1 MPI tasks x no OpenMP threads

MPI task timing breakdown:
Section |  min time  |  avg time  |  max time  |%varavg| %total
---------------------------------------------------------------
Pair    | 21.018     | 21.018     | 21.018     |   0.0 | 49.34
Neigh   | 20.336     | 20.336     | 20.336     |   0.0 | 47.74
Comm    | 0.42715    | 0.42715    | 0.42715    |   0.0 |  1.00
Output  | 0.055877   | 0.055877   | 0.055877   |   0.0 |  0.13
Modify  | 0.60003    | 0.60003    | 0.60003    |   0.0 |  1.41
Other   |            | 0.1638     |            |       |  0.38

Nlocal:    19652 ave 19652 max 19652 min
Histogram: 1 0 0 0 0 0 0 0 0 0
Nghost:    14170 ave 14170 max 14170 min
Histogram: 1 0 0 0 0 0 0 0 0 0
Neighs:    794254 ave 794254 max 794254 min
Histogram: 1 0 0 0 0 0 0 0 0 0

Total # of neighbors = 794254
Ave neighs/atom = 40.4159
Neighbor list builds = 495
Dangerous builds not checked
Setting up Verlet run ...
  Unit style    : metal
  Current step  : 45164
  Time step     : 0.001
Per MPI rank memory allocation (min/avg/max) = 18.22 | 18.22 | 18.22 Mbytes
Step Temp Press TotEng PotEng Enthalpy Volume 
   45164    2064.6033    179.52752   -15926.522   -21170.802   -15857.245    618249.93 
   45336    2062.3437   -432.92385   -16013.025   -21251.566   -16180.167    618563.14 
Loop time of 13.1625 on 1 procs for 172 steps with 19652 atoms

Performance: 1.129 ns/day, 21.257 hours/ns, 13.067 timesteps/s
100.0% CPU use with 1 MPI tasks x no OpenMP threads

MPI task timing breakdown:
Section |  min time  |  avg time  |  max time  |%varavg| %total
---------------------------------------------------------------
Pair    | 6.4473     | 6.4473     | 6.4473     |   0.0 | 48.98
Neigh   | 6.3525     | 6.3525     | 6.3525     |   0.0 | 48.26
Comm    | 0.12915    | 0.12915    | 0.12915    |   0.0 |  0.98
Output  | 0.00014806 | 0.00014806 | 0.00014806 |   0.0 |  0.00
Modify  | 0.18207    | 0.18207    | 0.18207    |   0.0 |  1.38
Other   |            | 0.05136    |            |       |  0.39

Nlocal:    19652 ave 19652 max 19652 min
Histogram: 1 0 0 0 0 0 0 0 0 0
Nghost:    14094 ave 14094 max 14094 min
Histogram: 1 0 0 0 0 0 0 0 0 0
Neighs:    793553 ave 793553 max 793553 min
Histogram: 1 0 0 0 0 0 0 0 0 0

Total # of neighbors = 793553
Ave neighs/atom = 40.3803
Neighbor list builds = 172
Dangerous builds not checked
Setting up Verlet run ...
  Unit style    : metal
  Current step  : 45336
  Time step     : 0.001
Per MPI rank memory allocation (min/avg/max) = 18.22 | 18.22 | 18.22 Mbytes
Step Temp Press TotEng PotEng Enthalpy Volume 
   45336    2062.3437   -432.92385   -16013.025   -21251.566   -16180.167    618563.14 
   45356    2057.3854   -495.16608    -16014.28   -21240.226   -16205.446    618544.34 
   45831    2008.8302    489.17147   -16297.338   -21399.949   -16111.163    609776.11 
Loop time of 45.4052 on 1 procs for 495 steps with 19652 atoms

Performance: 0.942 ns/day, 25.480 hours/ns, 10.902 timesteps/s
99.3% CPU use with 1 MPI tasks x no OpenMP threads

MPI task timing breakdown:
Section |  min time  |  avg time  |  max time  |%varavg| %total
---------------------------------------------------------------
Pair    | 22.553     | 22.553     | 22.553     |   0.0 | 49.67
Neigh   | 21.546     | 21.546     | 21.546     |   0.0 | 47.45
Comm    | 0.45769    | 0.45769    | 0.45769    |   0.0 |  1.01
Output  | 0.069802   | 0.069802   | 0.069802   |   0.0 |  0.15
Modify  | 0.60871    | 0.60871    | 0.60871    |   0.0 |  1.34
Other   |            | 0.1695     |            |       |  0.37

Nlocal:    19652 ave 19652 max 19652 min
Histogram: 1 0 0 0 0 0 0 0 0 0
Nghost:    14216 ave 14216 max 14216 min
Histogram: 1 0 0 0 0 0 0 0 0 0
Neighs:    805153 ave 805153 max 805153 min
Histogram: 1 0 0 0 0 0 0 0 0 0

Total # of neighbors = 805153
Ave neighs/atom = 40.9705
Neighbor list builds = 495
Dangerous builds not checked
Setting up Verlet run ...
  Unit style    : metal
  Current step  : 45831
  Time step     : 0.001
Per MPI rank memory allocation (min/avg/max) = 18.22 | 18.22 | 18.22 Mbytes
Step Temp Press TotEng PotEng Enthalpy Volume 
   45831    2008.8302    489.17147   -16297.338   -21399.949   -16111.163    609776.11 
   46003    1990.4971     17.88459    -16384.08   -21440.124   -16377.268    610276.78 
Loop time of 14.1694 on 1 procs for 172 steps with 19652 atoms

Performance: 1.049 ns/day, 22.883 hours/ns, 12.139 timesteps/s
100.0% CPU use with 1 MPI tasks x no OpenMP threads

MPI task timing breakdown:
Section |  min time  |  avg time  |  max time  |%varavg| %total
---------------------------------------------------------------
Pair    | 6.7731     | 6.7731     | 6.7731     |   0.0 | 47.80
Neigh   | 7.0053     | 7.0053     | 7.0053     |   0.0 | 49.44
Comm    | 0.13748    | 0.13748    | 0.13748    |   0.0 |  0.97
Output  | 0.00014114 | 0.00014114 | 0.00014114 |   0.0 |  0.00
Modify  | 0.1986     | 0.1986     | 0.1986     |   0.0 |  1.40
Other   |            | 0.05477    |            |       |  0.39

Nlocal:    19652 ave 19652 max 19652 min
Histogram: 1 0 0 0 0 0 0 0 0 0
Nghost:    14305 ave 14305 max 14305 min
Histogram: 1 0 0 0 0 0 0 0 0 0
Neighs:    804114 ave 804114 max 804114 min
Histogram: 1 0 0 0 0 0 0 0 0 0

Total # of neighbors = 804114
Ave neighs/atom = 40.9177
Neighbor list builds = 172
Dangerous builds not checked
Setting up Verlet run ...
  Unit style    : metal
  Current step  : 46003
  Time step     : 0.001
Per MPI rank memory allocation (min/avg/max) = 18.22 | 18.22 | 18.22 Mbytes
Step Temp Press TotEng PotEng Enthalpy Volume 
   46003    1990.4971     17.88459    -16384.08   -21440.124   -16377.268    610276.78 
   46023    1991.2438    17.929538    -16383.18   -21441.121    -16376.35    610277.78 
   46498     1955.788    398.17035   -16608.811    -21576.69   -16458.436    605084.42 
Loop time of 45.0437 on 1 procs for 495 steps with 19652 atoms

Performance: 0.949 ns/day, 25.277 hours/ns, 10.989 timesteps/s
98.8% CPU use with 1 MPI tasks x no OpenMP threads

MPI task timing breakdown:
Section |  min time  |  avg time  |  max time  |%varavg| %total
---------------------------------------------------------------
Pair    | 21.914     | 21.914     | 21.914     |   0.0 | 48.65
Neigh   | 21.847     | 21.847     | 21.847     |   0.0 | 48.50
Comm    | 0.42919    | 0.42919    | 0.42919    |   0.0 |  0.95
Output  | 0.094724   | 0.094724   | 0.094724   |   0.0 |  0.21
Modify  | 0.59028    | 0.59028    | 0.59028    |   0.0 |  1.31
Other   |            | 0.1691     |            |       |  0.38

Nlocal:    19652 ave 19652 max 19652 min
Histogram: 1 0 0 0 0 0 0 0 0 0
Nghost:    14518 ave 14518 max 14518 min
Histogram: 1 0 0 0 0 0 0 0 0 0
Neighs:    811778 ave 811778 max 811778 min
Histogram: 1 0 0 0 0 0 0 0 0 0

Total # of neighbors = 811778
Ave neighs/atom = 41.3077
Neighbor list builds = 495
Dangerous builds not checked
Setting up Verlet run ...
  Unit style    : metal
  Current step  : 46498
  Time step     : 0.001
Per MPI rank memory allocation (min/avg/max) = 18.22 | 18.22 | 18.22 Mbytes
Step Temp Press TotEng PotEng Enthalpy Volume 
   46498     1955.788    398.17035   -16608.811    -21576.69   -16458.436    605084.42 
   46670    1936.6494   -155.95404   -16685.084    -21604.35    -16744.03    605571.13 
Loop time of 16.6698 on 1 procs for 172 steps with 19652 atoms

Performance: 0.891 ns/day, 26.922 hours/ns, 10.318 timesteps/s
99.9% CPU use with 1 MPI tasks x no OpenMP threads

MPI task timing breakdown:
Section |  min time  |  avg time  |  max time  |%varavg| %total
---------------------------------------------------------------
Pair    | 8.1647     | 8.1647     | 8.1647     |   0.0 | 48.98
Neigh   | 8.0483     | 8.0483     | 8.0483     |   0.0 | 48.28
Comm    | 0.16392    | 0.16392    | 0.16392    |   0.0 |  0.98
Output  | 0.000144   | 0.000144   | 0.000144   |   0.0 |  0.00
Modify  | 0.22985    | 0.22985    | 0.22985    |   0.0 |  1.38
Other   |            | 0.06294    |            |       |  0.38

Nlocal:    19652 ave 19652 max 19652 min
Histogram: 1 0 0 0 0 0 0 0 0 0
Nghost:    14540 ave 14540 max 14540 min
Histogram: 1 0 0 0 0 0 0 0 0 0
Neighs:    810527 ave 810527 max 810527 min
Histogram: 1 0 0 0 0 0 0 0 0 0

Total # of neighbors = 810527
Ave neighs/atom = 41.244
Neighbor list builds = 172
Dangerous builds not checked
Setting up Verlet run ...
  Unit style    : metal
  Current step  : 46670
  Time step     : 0.001
Per MPI rank memory allocation (min/avg/max) = 18.22 | 18.22 | 18.22 Mbytes
Step Temp Press TotEng PotEng Enthalpy Volume 
   46670    1936.6494   -155.95404   -16685.084    -21604.35    -16744.03    605571.13 
   46690    1943.8958   -285.88693   -16684.032   -21621.704   -16792.086    605562.81 
   47165    1914.9403    140.79537   -16891.837    -21755.96   -16839.109    600017.86 
Loop time of 41.7499 on 1 procs for 495 steps with 19652 atoms

Performance: 1.024 ns/day, 23.429 hours/ns, 11.856 timesteps/s
99.9% CPU use with 1 MPI tasks x no OpenMP threads

MPI task timing breakdown:
Section |  min time  |  avg time  |  max time  |%varavg| %total
---------------------------------------------------------------
Pair    | 20.051     | 20.051     | 20.051     |   0.0 | 48.03
Neigh   | 20.513     | 20.513     | 20.513     |   0.0 | 49.13
Comm    | 0.39589    | 0.39589    | 0.39589    |   0.0 |  0.95
Output  | 0.058724   | 0.058724   | 0.058724   |   0.0 |  0.14
Modify  | 0.57204    | 0.57204    | 0.57204    |   0.0 |  1.37
Other   |            | 0.1595     |            |       |  0.38

Nlocal:    19652 ave 19652 max 19652 min
Histogram: 1 0 0 0 0 0 0 0 0 0
Nghost:    14474 ave 14474 max 14474 min
Histogram: 1 0 0 0 0 0 0 0 0 0
Neighs:    818147 ave 818147 max 818147 min
Histogram: 1 0 0 0 0 0 0 0 0 0

Total # of neighbors = 818147
Ave neighs/atom = 41.6317
Neighbor list builds = 495
Dangerous builds not checked
Setting up Verlet run ...
  Unit style    : metal
  Current step  : 47165
  Time step     : 0.001
Per MPI rank memory allocation (min/avg/max) = 18.22 | 18.22 | 18.22 Mbytes
Step Temp Press TotEng PotEng Enthalpy Volume 
   47165    1914.9403    140.79537   -16891.837    -21755.96   -16839.109    600017.86 
   47337    1905.1569    -701.1452   -16975.792   -21815.064   -17238.286    599820.02 
Loop time of 13.893 on 1 procs for 172 steps with 19652 atoms

Performance: 1.070 ns/day, 22.437 hours/ns, 12.380 timesteps/s
100.0% CPU use with 1 MPI tasks x no OpenMP threads

MPI task timing breakdown:
Section |  min time  |  avg time  |  max time  |%varavg| %total
---------------------------------------------------------------
Pair    | 6.6595     | 6.6595     | 6.6595     |   0.0 | 47.93
Neigh   | 6.866      | 6.866      | 6.866      |   0.0 | 49.42
Comm    | 0.12928    | 0.12928    | 0.12928    |   0.0 |  0.93
Output  | 0.00018287 | 0.00018287 | 0.00018287 |   0.0 |  0.00
Modify  | 0.18587    | 0.18587    | 0.18587    |   0.0 |  1.34
Other   |            | 0.05217    |            |       |  0.38

Nlocal:    19652 ave 19652 max 19652 min
Histogram: 1 0 0 0 0 0 0 0 0 0
Nghost:    14443 ave 14443 max 14443 min
Histogram: 1 0 0 0 0 0 0 0 0 0
Neighs:    818035 ave 818035 max 818035 min
Histogram: 1 0 0 0 0 0 0 0 0 0

Total # of neighbors = 818035
Ave neighs/atom = 41.626
Neighbor list builds = 172
Dangerous builds not checked
Setting up Verlet run ...
  Unit style    : metal
  Current step  : 47337
  Time step     : 0.001
Per MPI rank memory allocation (min/avg/max) = 18.22 | 18.22 | 18.22 Mbytes
Step Temp Press TotEng PotEng Enthalpy Volume 
   47337    1905.1569    -701.1452   -16975.792   -21815.064   -17238.286    599820.02 
   47357    1902.2286   -612.88625   -16976.152   -21807.985   -17205.592    599792.63 
   47832    1875.2306    309.96323   -17231.251   -21994.507   -17116.705    592078.36 
Loop time of 44.0614 on 1 procs for 495 steps with 19652 atoms

Performance: 0.971 ns/day, 24.726 hours/ns, 11.234 timesteps/s
99.9% CPU use with 1 MPI tasks x no OpenMP threads

MPI task timing breakdown:
Section |  min time  |  avg time  |  max time  |%varavg| %total
---------------------------------------------------------------
Pair    | 21.462     | 21.462     | 21.462     |   0.0 | 48.71
Neigh   | 21.353     | 21.353     | 21.353     |   0.0 | 48.46
Comm    | 0.41733    | 0.41733    | 0.41733    |   0.0 |  0.95
Output  | 0.075553   | 0.075553   | 0.075553   |   0.0 |  0.17
Modify  | 0.59056    | 0.59056    | 0.59056    |   0.0 |  1.34
Other   |            | 0.1638     |            |       |  0.37

Nlocal:    19652 ave 19652 max 19652 min
Histogram: 1 0 0 0 0 0 0 0 0 0
Nghost:    14433 ave 14433 max 14433 min
Histogram: 1 0 0 0 0 0 0 0 0 0
Neighs:    829086 ave 829086 max 829086 min
Histogram: 1 0 0 0 0 0 0 0 0 0

Total # of neighbors = 829086
Ave neighs/atom = 42.1884
Neighbor list builds = 495
Dangerous builds not checked
Setting up Verlet run ...
  Unit style    : metal
  Current step  : 47832
  Time step     : 0.001
Per MPI rank memory allocation (min/avg/max) = 18.22 | 18.22 | 18.22 Mbytes
Step Temp Press TotEng PotEng Enthalpy Volume 
   47832    1875.2306    309.96323   -17231.251   -21994.507   -17116.705    592078.36 
   48004    1852.7612   -207.57315   -17315.568    -22021.75   -17392.352    592671.61 
Loop time of 15.6024 on 1 procs for 172 steps with 19652 atoms

Performance: 0.952 ns/day, 25.198 hours/ns, 11.024 timesteps/s
100.0% CPU use with 1 MPI tasks x no OpenMP threads

MPI task timing breakdown:
Section |  min time  |  avg time  |  max time  |%varavg| %total
---------------------------------------------------------------
Pair    | 7.6865     | 7.6865     | 7.6865     |   0.0 | 49.27
Neigh   | 7.4924     | 7.4924     | 7.4924     |   0.0 | 48.02
Comm    | 0.14989    | 0.14989    | 0.14989    |   0.0 |  0.96
Output  | 0.0001359  | 0.0001359  | 0.0001359  |   0.0 |  0.00
Modify  | 0.21424    | 0.21424    | 0.21424    |   0.0 |  1.37
Other   |            | 0.0592     |            |       |  0.38

Nlocal:    19652 ave 19652 max 19652 min
Histogram: 1 0 0 0 0 0 0 0 0 0
Nghost:    14461 ave 14461 max 14461 min
Histogram: 1 0 0 0 0 0 0 0 0 0
Neighs:    828596 ave 828596 max 828596 min
Histogram: 1 0 0 0 0 0 0 0 0 0

Total # of neighbors = 828596
Ave neighs/atom = 42.1634
Neighbor list builds = 172
Dangerous builds not checked
Setting up Verlet run ...
  Unit style    : metal
  Current step  : 48004
  Time step     : 0.001
Per MPI rank memory allocation (min/avg/max) = 18.22 | 18.22 | 18.22 Mbytes
Step Temp Press TotEng PotEng Enthalpy Volume 
   48004    1852.7612   -207.57315   -17315.568    -22021.75   -17392.352    592671.61 
   48024    1847.9542   -152.57508   -17315.683   -22009.655   -17372.123    592663.16 
   48499    1817.3518    408.75653   -17548.004   -22164.243   -17398.408    586361.88 
Loop time of 43.4937 on 1 procs for 495 steps with 19652 atoms

Performance: 0.983 ns/day, 24.407 hours/ns, 11.381 timesteps/s
99.9% CPU use with 1 MPI tasks x no OpenMP threads

MPI task timing breakdown:
Section |  min time  |  avg time  |  max time  |%varavg| %total
---------------------------------------------------------------
Pair    | 21.32      | 21.32      | 21.32      |   0.0 | 49.02
Neigh   | 20.98      | 20.98      | 20.98      |   0.0 | 48.24
Comm    | 0.41165    | 0.41165    | 0.41165    |   0.0 |  0.95
Output  | 0.057978   | 0.057978   | 0.057978   |   0.0 |  0.13
Modify  | 0.56538    | 0.56538    | 0.56538    |   0.0 |  1.30
Other   |            | 0.1584     |            |       |  0.36

Nlocal:    19652 ave 19652 max 19652 min
Histogram: 1 0 0 0 0 0 0 0 0 0
Nghost:    14481 ave 14481 max 14481 min
Histogram: 1 0 0 0 0 0 0 0 0 0
Neighs:    837320 ave 837320 max 837320 min
Histogram: 1 0 0 0 0 0 0 0 0 0

Total # of neighbors = 837320
Ave neighs/atom = 42.6074
Neighbor list builds = 495
Dangerous builds not checked
Setting up Verlet run ...
  Unit style    : metal
  Current step  : 48499
  Time step     : 0.001
Per MPI rank memory allocation (min/avg/max) = 18.22 | 18.22 | 18.22 Mbytes
Step Temp Press TotEng PotEng Enthalpy Volume 
   48499    1817.3518    408.75653   -17548.004   -22164.243   -17398.408    586361.88 
   48671    1800.5577   -465.67155   -17633.227   -22206.807   -17803.936     587337.7 
Loop time of 16.4878 on 1 procs for 172 steps with 19652 atoms

Performance: 0.901 ns/day, 26.628 hours/ns, 10.432 timesteps/s
100.0% CPU use with 1 MPI tasks x no OpenMP threads

MPI task timing breakdown:
Section |  min time  |  avg time  |  max time  |%varavg| %total
---------------------------------------------------------------
Pair    | 8.1886     | 8.1886     | 8.1886     |   0.0 | 49.66
Neigh   | 7.8516     | 7.8516     | 7.8516     |   0.0 | 47.62
Comm    | 0.15834    | 0.15834    | 0.15834    |   0.0 |  0.96
Output  | 0.00013399 | 0.00013399 | 0.00013399 |   0.0 |  0.00
Modify  | 0.22584    | 0.22584    | 0.22584    |   0.0 |  1.37
Other   |            | 0.06329    |            |       |  0.38

Nlocal:    19652 ave 19652 max 19652 min
Histogram: 1 0 0 0 0 0 0 0 0 0
Nghost:    14556 ave 14556 max 14556 min
Histogram: 1 0 0 0 0 0 0 0 0 0
Neighs:    835405 ave 835405 max 835405 min
Histogram: 1 0 0 0 0 0 0 0 0 0

Total # of neighbors = 835405
Ave neighs/atom = 42.5099
Neighbor list builds = 172
Dangerous builds not checked
Setting up Verlet run ...
  Unit style    : metal
  Current step  : 48671
  Time step     : 0.001
Per MPI rank memory allocation (min/avg/max) = 18.22 | 18.22 | 18.22 Mbytes
Step Temp Press TotEng PotEng Enthalpy Volume 
   48671    1800.5577   -465.67155   -17633.227   -22206.807   -17803.936     587337.7 
   48691    1809.0254   -497.53673   -17633.768   -22228.858   -17816.152    587316.05 
   49166    1758.4127    194.38589   -17873.636   -22340.165   -17803.046    581824.41 
Loop time of 39.0937 on 1 procs for 495 steps with 19652 atoms

Performance: 1.094 ns/day, 21.938 hours/ns, 12.662 timesteps/s
99.9% CPU use with 1 MPI tasks x no OpenMP threads

MPI task timing breakdown:
Section |  min time  |  avg time  |  max time  |%varavg| %total
---------------------------------------------------------------
Pair    | 18.804     | 18.804     | 18.804     |   0.0 | 48.10
Neigh   | 19.214     | 19.214     | 19.214     |   0.0 | 49.15
Comm    | 0.35306    | 0.35306    | 0.35306    |   0.0 |  0.90
Output  | 0.085852   | 0.085852   | 0.085852   |   0.0 |  0.22
Modify  | 0.50437    | 0.50437    | 0.50437    |   0.0 |  1.29
Other   |            | 0.1317     |            |       |  0.34

Nlocal:    19652 ave 19652 max 19652 min
Histogram: 1 0 0 0 0 0 0 0 0 0
Nghost:    14650 ave 14650 max 14650 min
Histogram: 1 0 0 0 0 0 0 0 0 0
Neighs:    843927 ave 843927 max 843927 min
Histogram: 1 0 0 0 0 0 0 0 0 0

Total # of neighbors = 843927
Ave neighs/atom = 42.9436
Neighbor list builds = 495
Dangerous builds not checked
Setting up Verlet run ...
  Unit style    : metal
  Current step  : 49166
  Time step     : 0.001
Per MPI rank memory allocation (min/avg/max) = 18.22 | 18.22 | 18.22 Mbytes
Step Temp Press TotEng PotEng Enthalpy Volume 
   49166    1758.4127    194.38589   -17873.636   -22340.165   -17803.046    581824.41 
   49338    1746.5867   -130.59711   -17943.332   -22379.821   -17990.773    582009.36 
Loop time of 13.3368 on 1 procs for 172 steps with 19652 atoms

Performance: 1.114 ns/day, 21.539 hours/ns, 12.897 timesteps/s
100.0% CPU use with 1 MPI tasks x no OpenMP threads

MPI task timing breakdown:
Section |  min time  |  avg time  |  max time  |%varavg| %total
---------------------------------------------------------------
Pair    | 6.356      | 6.356      | 6.356      |   0.0 | 47.66
Neigh   | 6.6409     | 6.6409     | 6.6409     |   0.0 | 49.79
Comm    | 0.1198     | 0.1198     | 0.1198     |   0.0 |  0.90
Output  | 0.00011992 | 0.00011992 | 0.00011992 |   0.0 |  0.00
Modify  | 0.17536    | 0.17536    | 0.17536    |   0.0 |  1.31
Other   |            | 0.04459    |            |       |  0.33

Nlocal:    19652 ave 19652 max 19652 min
Histogram: 1 0 0 0 0 0 0 0 0 0
Nghost:    14699 ave 14699 max 14699 min
Histogram: 1 0 0 0 0 0 0 0 0 0
Neighs:    843641 ave 843641 max 843641 min
Histogram: 1 0 0 0 0 0 0 0 0 0

Total # of neighbors = 843641
Ave neighs/atom = 42.929
Neighbor list builds = 172
Dangerous builds not checked
Setting up Verlet run ...
  Unit style    : metal
  Current step  : 49338
  Time step     : 0.001
Per MPI rank memory allocation (min/avg/max) = 18.22 | 18.22 | 18.22 Mbytes
Step Temp Press TotEng PotEng Enthalpy Volume 
   49338    1746.5867   -130.59711   -17943.332   -22379.821   -17990.773    582009.36 
   49358    1754.1142   -318.81173   -17943.076   -22398.685   -18058.886     582002.1 
   49833    1723.0352    181.65988   -18166.293    -22542.96   -18100.929    576493.89 
Loop time of 38.0154 on 1 procs for 495 steps with 19652 atoms

Performance: 1.125 ns/day, 21.333 hours/ns, 13.021 timesteps/s
99.7% CPU use with 1 MPI tasks x no OpenMP threads

MPI task timing breakdown:
Section |  min time  |  avg time  |  max time  |%varavg| %total
---------------------------------------------------------------
Pair    | 18.008     | 18.008     | 18.008     |   0.0 | 47.37
Neigh   | 18.996     | 18.996     | 18.996     |   0.0 | 49.97
Comm    | 0.34336    | 0.34336    | 0.34336    |   0.0 |  0.90
Output  | 0.059609   | 0.059609   | 0.059609   |   0.0 |  0.16
Modify  | 0.48504    | 0.48504    | 0.48504    |   0.0 |  1.28
Other   |            | 0.1238     |            |       |  0.33

Nlocal:    19652 ave 19652 max 19652 min
Histogram: 1 0 0 0 0 0 0 0 0 0
Nghost:    14749 ave 14749 max 14749 min
Histogram: 1 0 0 0 0 0 0 0 0 0
Neighs:    851892 ave 851892 max 851892 min
Histogram: 1 0 0 0 0 0 0 0 0 0

Total # of neighbors = 851892
Ave neighs/atom = 43.3489
Neighbor list builds = 495
Dangerous builds not checked
Setting up Verlet run ...
  Unit style    : metal
  Current step  : 49833
  Time step     : 0.001
Per MPI rank memory allocation (min/avg/max) = 18.22 | 18.22 | 18.22 Mbytes
Step Temp Press TotEng PotEng Enthalpy Volume 
   49833    1723.0352    181.65988   -18166.293    -22542.96   -18100.929    576493.89 
   50005    1700.3637   -345.95938   -18240.284   -22559.363   -18364.889    577059.64 
Loop time of 13.8442 on 1 procs for 172 steps with 19652 atoms

Performance: 1.073 ns/day, 22.358 hours/ns, 12.424 timesteps/s
100.0% CPU use with 1 MPI tasks x no OpenMP threads

MPI task timing breakdown:
Section |  min time  |  avg time  |  max time  |%varavg| %total
---------------------------------------------------------------
Pair    | 6.6531     | 6.6531     | 6.6531     |   0.0 | 48.06
Neigh   | 6.8352     | 6.8352     | 6.8352     |   0.0 | 49.37
Comm    | 0.12711    | 0.12711    | 0.12711    |   0.0 |  0.92
Output  | 0.00012398 | 0.00012398 | 0.00012398 |   0.0 |  0.00
Modify  | 0.18185    | 0.18185    | 0.18185    |   0.0 |  1.31
Other   |            | 0.04679    |            |       |  0.34

Nlocal:    19652 ave 19652 max 19652 min
Histogram: 1 0 0 0 0 0 0 0 0 0
Nghost:    14693 ave 14693 max 14693 min
Histogram: 1 0 0 0 0 0 0 0 0 0
Neighs:    850972 ave 850972 max 850972 min
Histogram: 1 0 0 0 0 0 0 0 0 0

Total # of neighbors = 850972
Ave neighs/atom = 43.3021
Neighbor list builds = 172
Dangerous builds not checked
Setting up Verlet run ...
  Unit style    : metal
  Current step  : 50005
  Time step     : 0.001
Per MPI rank memory allocation (min/avg/max) = 18.22 | 18.22 | 18.22 Mbytes
Step Temp Press TotEng PotEng Enthalpy Volume 
   50005    1700.3637   -345.95938   -18240.284   -22559.363   -18364.889    577059.64 
   50025    1700.9514   -324.09942   -18240.544   -22561.116   -18357.273    577044.24 
   50500    1662.3223    305.47556   -18475.336   -22697.786   -18366.365    571538.29 
Loop time of 37.6656 on 1 procs for 495 steps with 19652 atoms

Performance: 1.135 ns/day, 21.137 hours/ns, 13.142 timesteps/s
99.9% CPU use with 1 MPI tasks x no OpenMP threads

MPI task timing breakdown:
Section |  min time  |  avg time  |  max time  |%varavg| %total
---------------------------------------------------------------
Pair    | 17.889     | 17.889     | 17.889     |   0.0 | 47.49
Neigh   | 18.769     | 18.769     | 18.769     |   0.0 | 49.83
Comm    | 0.34151    | 0.34151    | 0.34151    |   0.0 |  0.91
Output  | 0.060501   | 0.060501   | 0.060501   |   0.0 |  0.16
Modify  | 0.48244    | 0.48244    | 0.48244    |   0.0 |  1.28
Other   |            | 0.1231     |            |       |  0.33

Nlocal:    19652 ave 19652 max 19652 min
Histogram: 1 0 0 0 0 0 0 0 0 0
Nghost:    14727 ave 14727 max 14727 min
Histogram: 1 0 0 0 0 0 0 0 0 0
Neighs:    859547 ave 859547 max 859547 min
Histogram: 1 0 0 0 0 0 0 0 0 0

Total # of neighbors = 859547
Ave neighs/atom = 43.7384
Neighbor list builds = 495
Dangerous builds not checked
Setting up Verlet run ...
  Unit style    : metal
  Current step  : 50500
  Time step     : 0.001
Per MPI rank memory allocation (min/avg/max) = 18.22 | 18.22 | 18.22 Mbytes
Step Temp Press TotEng PotEng Enthalpy Volume 
   50500    1662.3223    305.47556   -18475.336   -22697.786   -18366.365    571538.29 
   50672    1650.5015   -327.26812   -18538.736    -22731.16   -18655.643    572328.44 
Loop time of 13.1069 on 1 procs for 172 steps with 19652 atoms

Performance: 1.134 ns/day, 21.167 hours/ns, 13.123 timesteps/s
100.0% CPU use with 1 MPI tasks x no OpenMP threads

MPI task timing breakdown:
Section |  min time  |  avg time  |  max time  |%varavg| %total
---------------------------------------------------------------
Pair    | 6.2507     | 6.2507     | 6.2507     |   0.0 | 47.69
Neigh   | 6.5233     | 6.5233     | 6.5233     |   0.0 | 49.77
Comm    | 0.11735    | 0.11735    | 0.11735    |   0.0 |  0.90
Output  | 0.00012684 | 0.00012684 | 0.00012684 |   0.0 |  0.00
Modify  | 0.17144    | 0.17144    | 0.17144    |   0.0 |  1.31
Other   |            | 0.044      |            |       |  0.34

Nlocal:    19652 ave 19652 max 19652 min
Histogram: 1 0 0 0 0 0 0 0 0 0
Nghost:    14676 ave 14676 max 14676 min
Histogram: 1 0 0 0 0 0 0 0 0 0
Neighs:    857763 ave 857763 max 857763 min
Histogram: 1 0 0 0 0 0 0 0 0 0

Total # of neighbors = 857763
Ave neighs/atom = 43.6476
Neighbor list builds = 172
Dangerous builds not checked
Setting up Verlet run ...
  Unit style    : metal
  Current step  : 50672
  Time step     : 0.001
Per MPI rank memory allocation (min/avg/max) = 18.22 | 18.22 | 18.22 Mbytes
Step Temp Press TotEng PotEng Enthalpy Volume 
   50672    1650.5015   -327.26812   -18538.736    -22731.16   -18655.643    572328.44 
   50692    1650.9115   -351.48136   -18539.058   -22732.523    -18664.61    572312.72 
   51167    1625.2899   -104.84437   -18771.477   -22899.861   -18808.607    567407.62 
Loop time of 37.1825 on 1 procs for 495 steps with 19652 atoms

Performance: 1.150 ns/day, 20.866 hours/ns, 13.313 timesteps/s
99.9% CPU use with 1 MPI tasks x no OpenMP threads

MPI task timing breakdown:
Section |  min time  |  avg time  |  max time  |%varavg| %total
---------------------------------------------------------------
Pair    | 17.658     | 17.658     | 17.658     |   0.0 | 47.49
Neigh   | 18.539     | 18.539     | 18.539     |   0.0 | 49.86
Comm    | 0.3311     | 0.3311     | 0.3311     |   0.0 |  0.89
Output  | 0.056635   | 0.056635   | 0.056635   |   0.0 |  0.15
Modify  | 0.47618    | 0.47618    | 0.47618    |   0.0 |  1.28
Other   |            | 0.1213     |            |       |  0.33

Nlocal:    19652 ave 19652 max 19652 min
Histogram: 1 0 0 0 0 0 0 0 0 0
Nghost:    14684 ave 14684 max 14684 min
Histogram: 1 0 0 0 0 0 0 0 0 0
Neighs:    865422 ave 865422 max 865422 min
Histogram: 1 0 0 0 0 0 0 0 0 0

Total # of neighbors = 865422
Ave neighs/atom = 44.0373
Neighbor list builds = 495
Dangerous builds not checked
Setting up Verlet run ...
  Unit style    : metal
  Current step  : 51167
  Time step     : 0.001
Per MPI rank memory allocation (min/avg/max) = 18.22 | 18.22 | 18.22 Mbytes
Step Temp Press TotEng PotEng Enthalpy Volume 
   51167    1625.2899   -104.84437   -18771.477   -22899.861   -18808.607    567407.62 
   51339    1595.7556   -6.0101292   -18846.491   -22899.855   -18848.618    567056.87 
Loop time of 13.5067 on 1 procs for 172 steps with 19652 atoms

Performance: 1.100 ns/day, 21.813 hours/ns, 12.734 timesteps/s
99.8% CPU use with 1 MPI tasks x no OpenMP threads

MPI task timing breakdown:
Section |  min time  |  avg time  |  max time  |%varavg| %total
---------------------------------------------------------------
Pair    | 6.4782     | 6.4782     | 6.4782     |   0.0 | 47.96
Neigh   | 6.688      | 6.688      | 6.688      |   0.0 | 49.52
Comm    | 0.12053    | 0.12053    | 0.12053    |   0.0 |  0.89
Output  | 0.00012207 | 0.00012207 | 0.00012207 |   0.0 |  0.00
Modify  | 0.17456    | 0.17456    | 0.17456    |   0.0 |  1.29
Other   |            | 0.04527    |            |       |  0.34

Nlocal:    19652 ave 19652 max 19652 min
Histogram: 1 0 0 0 0 0 0 0 0 0
Nghost:    14718 ave 14718 max 14718 min
Histogram: 1 0 0 0 0 0 0 0 0 0
Neighs:    866152 ave 866152 max 866152 min
Histogram: 1 0 0 0 0 0 0 0 0 0

Total # of neighbors = 866152
Ave neighs/atom = 44.0745
Neighbor list builds = 172
Dangerous builds not checked
Setting up Verlet run ...
  Unit style    : metal
  Current step  : 51339
  Time step     : 0.001
Per MPI rank memory allocation (min/avg/max) = 18.22 | 18.22 | 18.22 Mbytes
Step Temp Press TotEng PotEng Enthalpy Volume 
   51339    1595.7556   -6.0101292   -18846.491   -22899.855   -18848.618    567056.87 
   51359    1604.3675   -106.09223   -18846.316   -22921.556   -18883.865    567055.76 
   51834    1571.9641    154.60137   -19066.077   -23059.009    -19011.75    563011.64 
Loop time of 39.8749 on 1 procs for 495 steps with 19652 atoms

Performance: 1.073 ns/day, 22.377 hours/ns, 12.414 timesteps/s
99.7% CPU use with 1 MPI tasks x no OpenMP threads

MPI task timing breakdown:
Section |  min time  |  avg time  |  max time  |%varavg| %total
---------------------------------------------------------------
Pair    | 19.173     | 19.173     | 19.173     |   0.0 | 48.08
Neigh   | 19.626     | 19.626     | 19.626     |   0.0 | 49.22
Comm    | 0.35926    | 0.35926    | 0.35926    |   0.0 |  0.90
Output  | 0.073049   | 0.073049   | 0.073049   |   0.0 |  0.18
Modify  | 0.5128     | 0.5128     | 0.5128     |   0.0 |  1.29
Other   |            | 0.131      |            |       |  0.33

Nlocal:    19652 ave 19652 max 19652 min
Histogram: 1 0 0 0 0 0 0 0 0 0
Nghost:    14813 ave 14813 max 14813 min
Histogram: 1 0 0 0 0 0 0 0 0 0
Neighs:    872359 ave 872359 max 872359 min
Histogram: 1 0 0 0 0 0 0 0 0 0

Total # of neighbors = 872359
Ave neighs/atom = 44.3903
Neighbor list builds = 495
Dangerous builds not checked
Setting up Verlet run ...
  Unit style    : metal
  Current step  : 51834
  Time step     : 0.001
Per MPI rank memory allocation (min/avg/max) = 18.22 | 18.22 | 18.22 Mbytes
Step Temp Press TotEng PotEng Enthalpy Volume 
   51834    1571.9641    154.60137   -19066.077   -23059.009    -19011.75    563011.64 
   52006      1563.44   -417.84001   -19144.311   -23115.591   -19291.116    562914.39 
Loop time of 14.318 on 1 procs for 172 steps with 19652 atoms

Performance: 1.038 ns/day, 23.123 hours/ns, 12.013 timesteps/s
100.0% CPU use with 1 MPI tasks x no OpenMP threads

MPI task timing breakdown:
Section |  min time  |  avg time  |  max time  |%varavg| %total
---------------------------------------------------------------
Pair    | 6.9566     | 6.9566     | 6.9566     |   0.0 | 48.59
Neigh   | 6.9974     | 6.9974     | 6.9974     |   0.0 | 48.87
Comm    | 0.1281     | 0.1281     | 0.1281     |   0.0 |  0.89
Output  | 0.0001142  | 0.0001142  | 0.0001142  |   0.0 |  0.00
Modify  | 0.18828    | 0.18828    | 0.18828    |   0.0 |  1.31
Other   |            | 0.04762    |            |       |  0.33

Nlocal:    19652 ave 19652 max 19652 min
Histogram: 1 0 0 0 0 0 0 0 0 0
Nghost:    14843 ave 14843 max 14843 min
Histogram: 1 0 0 0 0 0 0 0 0 0
Neighs:    872631 ave 872631 max 872631 min
Histogram: 1 0 0 0 0 0 0 0 0 0

Total # of neighbors = 872631
Ave neighs/atom = 44.4042
Neighbor list builds = 172
Dangerous builds not checked
Setting up Verlet run ...
  Unit style    : metal
  Current step  : 52006
  Time step     : 0.001
Per MPI rank memory allocation (min/avg/max) = 18.22 | 18.22 | 18.22 Mbytes
Step Temp Press TotEng PotEng Enthalpy Volume 
   52006      1563.44   -417.84001   -19144.311   -23115.591   -19291.116    562914.39 
   52026    1558.4542   -412.41871   -19145.795   -23104.411   -19290.691    562895.01 
   52501    1514.2557    150.48058   -19405.476   -23251.824   -19353.107    557584.53 
Loop time of 38.6842 on 1 procs for 495 steps with 19652 atoms

Performance: 1.106 ns/day, 21.708 hours/ns, 12.796 timesteps/s
99.9% CPU use with 1 MPI tasks x no OpenMP threads

MPI task timing breakdown:
Section |  min time  |  avg time  |  max time  |%varavg| %total
---------------------------------------------------------------
Pair    | 18.592     | 18.592     | 18.592     |   0.0 | 48.06
Neigh   | 19.069     | 19.069     | 19.069     |   0.0 | 49.29
Comm    | 0.34604    | 0.34604    | 0.34604    |   0.0 |  0.89
Output  | 0.057999   | 0.057999   | 0.057999   |   0.0 |  0.15
Modify  | 0.49295    | 0.49295    | 0.49295    |   0.0 |  1.27
Other   |            | 0.1256     |            |       |  0.32

Nlocal:    19652 ave 19652 max 19652 min
Histogram: 1 0 0 0 0 0 0 0 0 0
Nghost:    14881 ave 14881 max 14881 min
Histogram: 1 0 0 0 0 0 0 0 0 0
Neighs:    881445 ave 881445 max 881445 min
Histogram: 1 0 0 0 0 0 0 0 0 0

Total # of neighbors = 881445
Ave neighs/atom = 44.8527
Neighbor list builds = 495
Dangerous builds not checked
Setting up Verlet run ...
  Unit style    : metal
  Current step  : 52501
  Time step     : 0.001
Per MPI rank memory allocation (min/avg/max) = 18.22 | 18.22 | 18.22 Mbytes
Step Temp Press TotEng PotEng Enthalpy Volume 
   52501    1514.2557    150.48058   -19405.476   -23251.824   -19353.107    557584.53 
   52673    1509.7566   -293.03309   -19461.565   -23296.484   -19563.616    557966.75 
Loop time of 12.8378 on 1 procs for 172 steps with 19652 atoms

Performance: 1.158 ns/day, 20.733 hours/ns, 13.398 timesteps/s
100.0% CPU use with 1 MPI tasks x no OpenMP threads

MPI task timing breakdown:
Section |  min time  |  avg time  |  max time  |%varavg| %total
---------------------------------------------------------------
Pair    | 6.1477     | 6.1477     | 6.1477     |   0.0 | 47.89
Neigh   | 6.3714     | 6.3714     | 6.3714     |   0.0 | 49.63
Comm    | 0.11309    | 0.11309    | 0.11309    |   0.0 |  0.88
Output  | 0.00012684 | 0.00012684 | 0.00012684 |   0.0 |  0.00
Modify  | 0.16342    | 0.16342    | 0.16342    |   0.0 |  1.27
Other   |            | 0.04205    |            |       |  0.33

Nlocal:    19652 ave 19652 max 19652 min
Histogram: 1 0 0 0 0 0 0 0 0 0
Nghost:    14785 ave 14785 max 14785 min
Histogram: 1 0 0 0 0 0 0 0 0 0
Neighs:    880899 ave 880899 max 880899 min
Histogram: 1 0 0 0 0 0 0 0 0 0

Total # of neighbors = 880899
Ave neighs/atom = 44.8249
Neighbor list builds = 172
Dangerous builds not checked
Setting up Verlet run ...
  Unit style    : metal
  Current step  : 52673
  Time step     : 0.001
Per MPI rank memory allocation (min/avg/max) = 18.22 | 18.22 | 18.22 Mbytes
Step Temp Press TotEng PotEng Enthalpy Volume 
   52673    1509.7566   -293.03309   -19461.565   -23296.484   -19563.616    557966.75 
   52693    1494.6305   -81.342164   -19462.297   -23258.795   -19490.625    557955.55 
   53168    1466.5973    118.06139   -19687.026   -23412.316   -19646.222    553736.32 
Loop time of 37.8276 on 1 procs for 495 steps with 19652 atoms

Performance: 1.131 ns/day, 21.228 hours/ns, 13.086 timesteps/s
99.9% CPU use with 1 MPI tasks x no OpenMP threads

MPI task timing breakdown:
Section |  min time  |  avg time  |  max time  |%varavg| %total
---------------------------------------------------------------
Pair    | 18.149     | 18.149     | 18.149     |   0.0 | 47.98
Neigh   | 18.666     | 18.666     | 18.666     |   0.0 | 49.35
Comm    | 0.33472    | 0.33472    | 0.33472    |   0.0 |  0.88
Output  | 0.076764   | 0.076764   | 0.076764   |   0.0 |  0.20
Modify  | 0.47895    | 0.47895    | 0.47895    |   0.0 |  1.27
Other   |            | 0.1225     |            |       |  0.32

Nlocal:    19652 ave 19652 max 19652 min
Histogram: 1 0 0 0 0 0 0 0 0 0
Nghost:    15023 ave 15023 max 15023 min
Histogram: 1 0 0 0 0 0 0 0 0 0
Neighs:    887831 ave 887831 max 887831 min
Histogram: 1 0 0 0 0 0 0 0 0 0

Total # of neighbors = 887831
Ave neighs/atom = 45.1776
Neighbor list builds = 495
Dangerous builds not checked
Setting up Verlet run ...
  Unit style    : metal
  Current step  : 53168
  Time step     : 0.001
Per MPI rank memory allocation (min/avg/max) = 18.22 | 18.22 | 18.22 Mbytes
Step Temp Press TotEng PotEng Enthalpy Volume 
   53168    1466.5973    118.06139   -19687.026   -23412.316   -19646.222    553736.32 
   53340     1445.546   -123.98835   -19758.827   -23430.646   -19801.656    553439.47 
Loop time of 13.3749 on 1 procs for 172 steps with 19652 atoms

Performance: 1.111 ns/day, 21.600 hours/ns, 12.860 timesteps/s
100.0% CPU use with 1 MPI tasks x no OpenMP threads

MPI task timing breakdown:
Section |  min time  |  avg time  |  max time  |%varavg| %total
---------------------------------------------------------------
Pair    | 6.4712     | 6.4712     | 6.4712     |   0.0 | 48.38
Neigh   | 6.5715     | 6.5715     | 6.5715     |   0.0 | 49.13
Comm    | 0.11786    | 0.11786    | 0.11786    |   0.0 |  0.88
Output  | 0.00012898 | 0.00012898 | 0.00012898 |   0.0 |  0.00
Modify  | 0.17084    | 0.17084    | 0.17084    |   0.0 |  1.28
Other   |            | 0.0434     |            |       |  0.32

Nlocal:    19652 ave 19652 max 19652 min
Histogram: 1 0 0 0 0 0 0 0 0 0
Nghost:    14936 ave 14936 max 14936 min
Histogram: 1 0 0 0 0 0 0 0 0 0
Neighs:    888123 ave 888123 max 888123 min
Histogram: 1 0 0 0 0 0 0 0 0 0

Total # of neighbors = 888123
Ave neighs/atom = 45.1925
Neighbor list builds = 172
Dangerous builds not checked
Setting up Verlet run ...
  Unit style    : metal
  Current step  : 53340
  Time step     : 0.001
Per MPI rank memory allocation (min/avg/max) = 18.22 | 18.22 | 18.22 Mbytes
Step Temp Press TotEng PotEng Enthalpy Volume 
   53340     1445.546   -123.98835   -19758.827   -23430.646   -19801.656    553439.47 
   53360    1452.2402   -92.042152   -19758.572   -23447.395   -19790.366    553434.54 
   53835    1414.5804    394.47619   -19981.445   -23574.608   -19846.261    549053.45 
Loop time of 39.222 on 1 procs for 495 steps with 19652 atoms

Performance: 1.090 ns/day, 22.010 hours/ns, 12.620 timesteps/s
99.9% CPU use with 1 MPI tasks x no OpenMP threads

MPI task timing breakdown:
Section |  min time  |  avg time  |  max time  |%varavg| %total
---------------------------------------------------------------
Pair    | 18.986     | 18.986     | 18.986     |   0.0 | 48.41
Neigh   | 19.21      | 19.21      | 19.21      |   0.0 | 48.98
Comm    | 0.35048    | 0.35048    | 0.35048    |   0.0 |  0.89
Output  | 0.053887   | 0.053887   | 0.053887   |   0.0 |  0.14
Modify  | 0.49418    | 0.49418    | 0.49418    |   0.0 |  1.26
Other   |            | 0.1266     |            |       |  0.32

Nlocal:    19652 ave 19652 max 19652 min
Histogram: 1 0 0 0 0 0 0 0 0 0
Nghost:    14987 ave 14987 max 14987 min
Histogram: 1 0 0 0 0 0 0 0 0 0
Neighs:    895496 ave 895496 max 895496 min
Histogram: 1 0 0 0 0 0 0 0 0 0

Total # of neighbors = 895496
Ave neighs/atom = 45.5677
Neighbor list builds = 495
Dangerous builds not checked
Setting up Verlet run ...
  Unit style    : metal
  Current step  : 53835
  Time step     : 0.001
Per MPI rank memory allocation (min/avg/max) = 18.22 | 18.22 | 18.22 Mbytes
Step Temp Press TotEng PotEng Enthalpy Volume 
   53835    1414.5804    394.47619   -19981.445   -23574.608   -19846.261    549053.45 
   54007    1404.6566   -127.13672   -20059.028   -23626.983   -20102.609    549215.91 
Loop time of 13.2123 on 1 procs for 172 steps with 19652 atoms

Performance: 1.125 ns/day, 21.338 hours/ns, 13.018 timesteps/s
100.0% CPU use with 1 MPI tasks x no OpenMP threads

MPI task timing breakdown:
Section |  min time  |  avg time  |  max time  |%varavg| %total
---------------------------------------------------------------
Pair    | 6.4006     | 6.4006     | 6.4006     |   0.0 | 48.44
Neigh   | 6.4845     | 6.4845     | 6.4845     |   0.0 | 49.08
Comm    | 0.11702    | 0.11702    | 0.11702    |   0.0 |  0.89
Output  | 0.00012112 | 0.00012112 | 0.00012112 |   0.0 |  0.00
Modify  | 0.16717    | 0.16717    | 0.16717    |   0.0 |  1.27
Other   |            | 0.04289    |            |       |  0.32

Nlocal:    19652 ave 19652 max 19652 min
Histogram: 1 0 0 0 0 0 0 0 0 0
Nghost:    15027 ave 15027 max 15027 min
Histogram: 1 0 0 0 0 0 0 0 0 0
Neighs:    895291 ave 895291 max 895291 min
Histogram: 1 0 0 0 0 0 0 0 0 0

Total # of neighbors = 895291
Ave neighs/atom = 45.5572
Neighbor list builds = 172
Dangerous builds not checked
Setting up Verlet run ...
  Unit style    : metal
  Current step  : 54007
  Time step     : 0.001
Per MPI rank memory allocation (min/avg/max) = 18.22 | 18.22 | 18.22 Mbytes
Step Temp Press TotEng PotEng Enthalpy Volume 
   54007    1404.6566   -127.13672   -20059.028   -23626.983   -20102.609    549215.91 
   54027    1400.1083   -92.923906   -20059.516   -23615.919    -20091.37     549210.4 
   54502    1367.0407    271.04495   -20313.964   -23786.372   -20221.871    544370.36 
Loop time of 40.7675 on 1 procs for 495 steps with 19652 atoms

Performance: 1.049 ns/day, 22.877 hours/ns, 12.142 timesteps/s
100.0% CPU use with 1 MPI tasks x no OpenMP threads

MPI task timing breakdown:
Section |  min time  |  avg time  |  max time  |%varavg| %total
---------------------------------------------------------------
Pair    | 19.872     | 19.872     | 19.872     |   0.0 | 48.75
Neigh   | 19.822     | 19.822     | 19.822     |   0.0 | 48.62
Comm    | 0.36502    | 0.36502    | 0.36502    |   0.0 |  0.90
Output  | 0.055496   | 0.055496   | 0.055496   |   0.0 |  0.14
Modify  | 0.52062    | 0.52062    | 0.52062    |   0.0 |  1.28
Other   |            | 0.1327     |            |       |  0.33

Nlocal:    19652 ave 19652 max 19652 min
Histogram: 1 0 0 0 0 0 0 0 0 0
Nghost:    15016 ave 15016 max 15016 min
Histogram: 1 0 0 0 0 0 0 0 0 0
Neighs:    903771 ave 903771 max 903771 min
Histogram: 1 0 0 0 0 0 0 0 0 0

Total # of neighbors = 903771
Ave neighs/atom = 45.9888
Neighbor list builds = 495
Dangerous builds not checked
Setting up Verlet run ...
  Unit style    : metal
  Current step  : 54502
  Time step     : 0.001
Per MPI rank memory allocation (min/avg/max) = 18.22 | 18.22 | 18.22 Mbytes
Step Temp Press TotEng PotEng Enthalpy Volume 
   54502    1367.0407    271.04495   -20313.964   -23786.372   -20221.871    544370.36 
   54674    1358.8234   -342.88048   -20376.803   -23828.338   -20493.423    544934.07 
Loop time of 13.3175 on 1 procs for 172 steps with 19652 atoms

Performance: 1.116 ns/day, 21.508 hours/ns, 12.915 timesteps/s
100.0% CPU use with 1 MPI tasks x no OpenMP threads

MPI task timing breakdown:
Section |  min time  |  avg time  |  max time  |%varavg| %total
---------------------------------------------------------------
Pair    | 6.4403     | 6.4403     | 6.4403     |   0.0 | 48.36
Neigh   | 6.5464     | 6.5464     | 6.5464     |   0.0 | 49.16
Comm    | 0.11765    | 0.11765    | 0.11765    |   0.0 |  0.88
Output  | 0.00012183 | 0.00012183 | 0.00012183 |   0.0 |  0.00
Modify  | 0.16944    | 0.16944    | 0.16944    |   0.0 |  1.27
Other   |            | 0.04358    |            |       |  0.33

Nlocal:    19652 ave 19652 max 19652 min
Histogram: 1 0 0 0 0 0 0 0 0 0
Nghost:    15027 ave 15027 max 15027 min
Histogram: 1 0 0 0 0 0 0 0 0 0
Neighs:    902856 ave 902856 max 902856 min
Histogram: 1 0 0 0 0 0 0 0 0 0

Total # of neighbors = 902856
Ave neighs/atom = 45.9422
Neighbor list builds = 172
Dangerous builds not checked
Setting up Verlet run ...
  Unit style    : metal
  Current step  : 54674
  Time step     : 0.001
Per MPI rank memory allocation (min/avg/max) = 18.22 | 18.22 | 18.22 Mbytes
Step Temp Press TotEng PotEng Enthalpy Volume 
   54674    1358.8234   -342.88048   -20376.803   -23828.338   -20493.423    544934.07 
   54694    1353.3792   -329.40275   -20377.605   -23815.311   -20489.638    544917.35 
   55169    1311.1764    305.00092   -20597.088   -23927.596   -20494.093    541034.14 
Loop time of 39.4108 on 1 procs for 495 steps with 19652 atoms

Performance: 1.085 ns/day, 22.116 hours/ns, 12.560 timesteps/s
99.9% CPU use with 1 MPI tasks x no OpenMP threads

MPI task timing breakdown:
Section |  min time  |  avg time  |  max time  |%varavg| %total
---------------------------------------------------------------
Pair    | 19.215     | 19.215     | 19.215     |   0.0 | 48.76
Neigh   | 19.154     | 19.154     | 19.154     |   0.0 | 48.60
Comm    | 0.35019    | 0.35019    | 0.35019    |   0.0 |  0.89
Output  | 0.064938   | 0.064938   | 0.064938   |   0.0 |  0.16
Modify  | 0.49506    | 0.49506    | 0.49506    |   0.0 |  1.26
Other   |            | 0.1315     |            |       |  0.33

Nlocal:    19652 ave 19652 max 19652 min
Histogram: 1 0 0 0 0 0 0 0 0 0
Nghost:    15103 ave 15103 max 15103 min
Histogram: 1 0 0 0 0 0 0 0 0 0
Neighs:    909263 ave 909263 max 909263 min
Histogram: 1 0 0 0 0 0 0 0 0 0

Total # of neighbors = 909263
Ave neighs/atom = 46.2682
Neighbor list builds = 495
Dangerous builds not checked
Setting up Verlet run ...
  Unit style    : metal
  Current step  : 55169
  Time step     : 0.001
Per MPI rank memory allocation (min/avg/max) = 18.22 | 18.22 | 18.22 Mbytes
Step Temp Press TotEng PotEng Enthalpy Volume 
   55169    1311.1764    305.00092   -20597.088   -23927.596   -20494.093    541034.14 
   55341    1315.4331   -403.98652   -20668.313   -24009.633   -20804.749    541093.13 
Loop time of 14.4616 on 1 procs for 172 steps with 19652 atoms

Performance: 1.028 ns/day, 23.355 hours/ns, 11.894 timesteps/s
99.9% CPU use with 1 MPI tasks x no OpenMP threads

MPI task timing breakdown:
Section |  min time  |  avg time  |  max time  |%varavg| %total
---------------------------------------------------------------
Pair    | 7.1637     | 7.1637     | 7.1637     |   0.0 | 49.54
Neigh   | 6.9286     | 6.9286     | 6.9286     |   0.0 | 47.91
Comm    | 0.13368    | 0.13368    | 0.13368    |   0.0 |  0.92
Output  | 0.00016212 | 0.00016212 | 0.00016212 |   0.0 |  0.00
Modify  | 0.18319    | 0.18319    | 0.18319    |   0.0 |  1.27
Other   |            | 0.05228    |            |       |  0.36

Nlocal:    19652 ave 19652 max 19652 min
Histogram: 1 0 0 0 0 0 0 0 0 0
Nghost:    15003 ave 15003 max 15003 min
Histogram: 1 0 0 0 0 0 0 0 0 0
Neighs:    909108 ave 909108 max 909108 min
Histogram: 1 0 0 0 0 0 0 0 0 0

Total # of neighbors = 909108
Ave neighs/atom = 46.2603
[...]
Modify  | 0.56695    | 0.56695    | 0.56695    |   0.0 |  1.17
Other   |            | 0.1616     |            |       |  0.33

Nlocal:    19652 ave 19652 max 19652 min
Histogram: 1 0 0 0 0 0 0 0 0 0
Nghost:    15808 ave 15808 max 15808 min
Histogram: 1 0 0 0 0 0 0 0 0 0
Neighs:    1.04479e+06 ave 1.04479e+06 max 1.04479e+06 min
Histogram: 1 0 0 0 0 0 0 0 0 0

Total # of neighbors = 1044794
Ave neighs/atom = 53.1648
Neighbor list builds = 495
Dangerous builds not checked
Setting up Verlet run ...
  Unit style    : metal
  Current step  : 67175
  Time step     : 0.001
Per MPI rank memory allocation (min/avg/max) = 18.22 | 18.22 | 18.22 Mbytes
Step Temp Press TotEng PotEng Enthalpy Volume 
   67175    426.55529   -221.67081   -26227.877   -27311.367   -26294.298    480072.04 
   67347    414.00463    196.97845   -26286.434   -27338.044    -26227.56    478867.77 
Loop time of 16.3324 on 1 procs for 172 steps with 19652 atoms

Performance: 0.910 ns/day, 26.377 hours/ns, 10.531 timesteps/s
100.0% CPU use with 1 MPI tasks x no OpenMP threads

MPI task timing breakdown:
Section |  min time  |  avg time  |  max time  |%varavg| %total
---------------------------------------------------------------
Pair    | 8.2318     | 8.2318     | 8.2318     |   0.0 | 50.40
Neigh   | 7.7206     | 7.7206     | 7.7206     |   0.0 | 47.27
Comm    | 0.13346    | 0.13346    | 0.13346    |   0.0 |  0.82
Output  | 0.00015903 | 0.00015903 | 0.00015903 |   0.0 |  0.00
Modify  | 0.19231    | 0.19231    | 0.19231    |   0.0 |  1.18
Other   |            | 0.05412    |            |       |  0.33

Nlocal:    19652 ave 19652 max 19652 min
Histogram: 1 0 0 0 0 0 0 0 0 0
Nghost:    15830 ave 15830 max 15830 min
Histogram: 1 0 0 0 0 0 0 0 0 0
Neighs:    1.04829e+06 ave 1.04829e+06 max 1.04829e+06 min
Histogram: 1 0 0 0 0 0 0 0 0 0

Total # of neighbors = 1048290
Ave neighs/atom = 53.3427
Neighbor list builds = 172
Dangerous builds not checked
Setting up Verlet run ...
  Unit style    : metal
  Current step  : 67347
  Time step     : 0.001
Per MPI rank memory allocation (min/avg/max) = 18.22 | 18.22 | 18.22 Mbytes
Step Temp Press TotEng PotEng Enthalpy Volume 
   67347    414.00463    196.97845   -26286.434   -27338.044    -26227.56    478867.77 
   67367    417.04104    115.72002   -26288.145   -27347.467   -26253.556    478889.32 
   67842    377.84386   -210.73805   -26523.187   -27482.945   -26585.971    477323.86 
Loop time of 45.8823 on 1 procs for 495 steps with 19652 atoms

Performance: 0.932 ns/day, 25.748 hours/ns, 10.788 timesteps/s
99.9% CPU use with 1 MPI tasks x no OpenMP threads

MPI task timing breakdown:
Section |  min time  |  avg time  |  max time  |%varavg| %total
---------------------------------------------------------------
Pair    | 23.103     | 23.103     | 23.103     |   0.0 | 50.35
Neigh   | 21.659     | 21.659     | 21.659     |   0.0 | 47.21
Comm    | 0.37395    | 0.37395    | 0.37395    |   0.0 |  0.82
Output  | 0.068045   | 0.068045   | 0.068045   |   0.0 |  0.15
Modify  | 0.52745    | 0.52745    | 0.52745    |   0.0 |  1.15
Other   |            | 0.1505     |            |       |  0.33

Nlocal:    19652 ave 19652 max 19652 min
Histogram: 1 0 0 0 0 0 0 0 0 0
Nghost:    15797 ave 15797 max 15797 min
Histogram: 1 0 0 0 0 0 0 0 0 0
Neighs:    1.05296e+06 ave 1.05296e+06 max 1.05296e+06 min
Histogram: 1 0 0 0 0 0 0 0 0 0

Total # of neighbors = 1052965
Ave neighs/atom = 53.5806
Neighbor list builds = 495
Dangerous builds not checked
Setting up Verlet run ...
  Unit style    : metal
  Current step  : 67842
  Time step     : 0.001
Per MPI rank memory allocation (min/avg/max) = 18.22 | 18.22 | 18.22 Mbytes
Step Temp Press TotEng PotEng Enthalpy Volume 
   67842    377.84386   -210.73805   -26523.187   -27482.945   -26585.971    477323.86 
   68014    367.60907    331.39453   -26582.021   -27515.782    -26483.59    475878.04 
Loop time of 17.324 on 1 procs for 172 steps with 19652 atoms

Performance: 0.858 ns/day, 27.978 hours/ns, 9.928 timesteps/s
99.5% CPU use with 1 MPI tasks x no OpenMP threads

MPI task timing breakdown:
Section |  min time  |  avg time  |  max time  |%varavg| %total
---------------------------------------------------------------
Pair    | 8.8412     | 8.8412     | 8.8412     |   0.0 | 51.03
Neigh   | 8.0719     | 8.0719     | 8.0719     |   0.0 | 46.59
Comm    | 0.14834    | 0.14834    | 0.14834    |   0.0 |  0.86
Output  | 0.000139   | 0.000139   | 0.000139   |   0.0 |  0.00
Modify  | 0.20464    | 0.20464    | 0.20464    |   0.0 |  1.18
Other   |            | 0.05776    |            |       |  0.33

Nlocal:    19652 ave 19652 max 19652 min
Histogram: 1 0 0 0 0 0 0 0 0 0
Nghost:    15803 ave 15803 max 15803 min
Histogram: 1 0 0 0 0 0 0 0 0 0
Neighs:    1.05587e+06 ave 1.05587e+06 max 1.05587e+06 min
Histogram: 1 0 0 0 0 0 0 0 0 0

Total # of neighbors = 1055874
Ave neighs/atom = 53.7286
Neighbor list builds = 172
Dangerous builds not checked
Setting up Verlet run ...
  Unit style    : metal
  Current step  : 68014
  Time step     : 0.001
Per MPI rank memory allocation (min/avg/max) = 18.22 | 18.22 | 18.22 Mbytes
Step Temp Press TotEng PotEng Enthalpy Volume 
   68014    367.60907    331.39453   -26582.021   -27515.782    -26483.59    475878.04 
   68034    371.10236    252.63976   -26584.193   -27526.827   -26509.147    475921.99 
   68509    327.33333   -199.82728   -26820.873    -27652.33   -26880.085    474745.26 
Loop time of 45.6851 on 1 procs for 495 steps with 19652 atoms

Performance: 0.936 ns/day, 25.637 hours/ns, 10.835 timesteps/s
100.0% CPU use with 1 MPI tasks x no OpenMP threads

MPI task timing breakdown:
Section |  min time  |  avg time  |  max time  |%varavg| %total
---------------------------------------------------------------
Pair    | 23.073     | 23.073     | 23.073     |   0.0 | 50.50
Neigh   | 21.491     | 21.491     | 21.491     |   0.0 | 47.04
Comm    | 0.37236    | 0.37236    | 0.37236    |   0.0 |  0.82
Output  | 0.074662   | 0.074662   | 0.074662   |   0.0 |  0.16
Modify  | 0.52474    | 0.52474    | 0.52474    |   0.0 |  1.15
Other   |            | 0.1497     |            |       |  0.33

Nlocal:    19652 ave 19652 max 19652 min
Histogram: 1 0 0 0 0 0 0 0 0 0
Nghost:    15778 ave 15778 max 15778 min
Histogram: 1 0 0 0 0 0 0 0 0 0
Neighs:    1.05991e+06 ave 1.05991e+06 max 1.05991e+06 min
Histogram: 1 0 0 0 0 0 0 0 0 0

Total # of neighbors = 1059910
Ave neighs/atom = 53.934
Neighbor list builds = 495
Dangerous builds not checked
Setting up Verlet run ...
  Unit style    : metal
  Current step  : 68509
  Time step     : 0.001
Per MPI rank memory allocation (min/avg/max) = 18.22 | 18.22 | 18.22 Mbytes
Step Temp Press TotEng PotEng Enthalpy Volume 
   68509    327.33333   -199.82728   -26820.873    -27652.33   -26880.085    474745.26 
   68681    318.43197    171.49532     -26879.6   -27688.446    -26828.91    473566.61 
Loop time of 16.638 on 1 procs for 172 steps with 19652 atoms

Performance: 0.893 ns/day, 26.870 hours/ns, 10.338 timesteps/s
100.0% CPU use with 1 MPI tasks x no OpenMP threads

MPI task timing breakdown:
Section |  min time  |  avg time  |  max time  |%varavg| %total
---------------------------------------------------------------
Pair    | 8.4888     | 8.4888     | 8.4888     |   0.0 | 51.02
Neigh   | 7.768      | 7.768      | 7.768      |   0.0 | 46.69
Comm    | 0.13696    | 0.13696    | 0.13696    |   0.0 |  0.82
Output  | 0.00014305 | 0.00014305 | 0.00014305 |   0.0 |  0.00
Modify  | 0.18952    | 0.18952    | 0.18952    |   0.0 |  1.14
Other   |            | 0.05457    |            |       |  0.33

Nlocal:    19652 ave 19652 max 19652 min
Histogram: 1 0 0 0 0 0 0 0 0 0
Nghost:    15818 ave 15818 max 15818 min
Histogram: 1 0 0 0 0 0 0 0 0 0
Neighs:    1.06317e+06 ave 1.06317e+06 max 1.06317e+06 min
Histogram: 1 0 0 0 0 0 0 0 0 0

Total # of neighbors = 1063170
Ave neighs/atom = 54.0998
Neighbor list builds = 172
Dangerous builds not checked
Setting up Verlet run ...
  Unit style    : metal
  Current step  : 68681
  Time step     : 0.001
Per MPI rank memory allocation (min/avg/max) = 18.22 | 18.22 | 18.22 Mbytes
Step Temp Press TotEng PotEng Enthalpy Volume 
   68681    318.43197    171.49532     -26879.6   -27688.446    -26828.91    473566.61 
   68701    319.66195    103.42662   -26881.748   -27693.719   -26851.176    473591.59 
   69176    277.94078   -65.475105   -27105.631   -27811.626   -27124.923    472086.26 
Loop time of 48.4967 on 1 procs for 495 steps with 19652 atoms

Performance: 0.882 ns/day, 27.215 hours/ns, 10.207 timesteps/s
100.0% CPU use with 1 MPI tasks x no OpenMP threads

MPI task timing breakdown:
Section |  min time  |  avg time  |  max time  |%varavg| %total
---------------------------------------------------------------
Pair    | 24.669     | 24.669     | 24.669     |   0.0 | 50.87
Neigh   | 22.645     | 22.645     | 22.645     |   0.0 | 46.69
Comm    | 0.3992     | 0.3992     | 0.3992     |   0.0 |  0.82
Output  | 0.058047   | 0.058047   | 0.058047   |   0.0 |  0.12
Modify  | 0.56426    | 0.56426    | 0.56426    |   0.0 |  1.16
Other   |            | 0.1604     |            |       |  0.33

Nlocal:    19652 ave 19652 max 19652 min
Histogram: 1 0 0 0 0 0 0 0 0 0
Nghost:    15912 ave 15912 max 15912 min
Histogram: 1 0 0 0 0 0 0 0 0 0
Neighs:    1.06778e+06 ave 1.06778e+06 max 1.06778e+06 min
Histogram: 1 0 0 0 0 0 0 0 0 0

Total # of neighbors = 1067775
Ave neighs/atom = 54.3342
Neighbor list builds = 495
Dangerous builds not checked
Setting up Verlet run ...
  Unit style    : metal
  Current step  : 69176
  Time step     : 0.001
Per MPI rank memory allocation (min/avg/max) = 18.22 | 18.22 | 18.22 Mbytes
Step Temp Press TotEng PotEng Enthalpy Volume 
   69176    277.94078   -65.475105   -27105.631   -27811.626   -27124.923    472086.26 
   69348    269.76418    52.140635   -27162.235    -27847.46   -27146.895    471354.05 
Loop time of 17.0091 on 1 procs for 172 steps with 19652 atoms

Performance: 0.874 ns/day, 27.469 hours/ns, 10.112 timesteps/s
100.0% CPU use with 1 MPI tasks x no OpenMP threads

MPI task timing breakdown:
Section |  min time  |  avg time  |  max time  |%varavg| %total
---------------------------------------------------------------
Pair    | 8.7066     | 8.7066     | 8.7066     |   0.0 | 51.19
Neigh   | 7.9037     | 7.9037     | 7.9037     |   0.0 | 46.47
Comm    | 0.14289    | 0.14289    | 0.14289    |   0.0 |  0.84
Output  | 0.00016689 | 0.00016689 | 0.00016689 |   0.0 |  0.00
Modify  | 0.19983    | 0.19983    | 0.19983    |   0.0 |  1.17
Other   |            | 0.0559     |            |       |  0.33

Nlocal:    19652 ave 19652 max 19652 min
Histogram: 1 0 0 0 0 0 0 0 0 0
Nghost:    15931 ave 15931 max 15931 min
Histogram: 1 0 0 0 0 0 0 0 0 0
Neighs:    1.06991e+06 ave 1.06991e+06 max 1.06991e+06 min
Histogram: 1 0 0 0 0 0 0 0 0 0

Total # of neighbors = 1069908
Ave neighs/atom = 54.4427
Neighbor list builds = 172
Dangerous builds not checked
Setting up Verlet run ...
  Unit style    : metal
  Current step  : 69348
  Time step     : 0.001
Per MPI rank memory allocation (min/avg/max) = 18.22 | 18.22 | 18.22 Mbytes
Step Temp Press TotEng PotEng Enthalpy Volume 
   69348    269.76418    52.140635   -27162.235    -27847.46   -27146.895    471354.05 
   69368    272.65739    2.2470951   -27164.642   -27857.216   -27163.981    471360.74 
   69843    230.00062    72.916952   -27384.936   -27969.159   -27363.567    469543.82 
Loop time of 46.5729 on 1 procs for 495 steps with 19652 atoms

Performance: 0.918 ns/day, 26.135 hours/ns, 10.629 timesteps/s
100.0% CPU use with 1 MPI tasks x no OpenMP threads

MPI task timing breakdown:
Section |  min time  |  avg time  |  max time  |%varavg| %total
---------------------------------------------------------------
Pair    | 23.591     | 23.591     | 23.591     |   0.0 | 50.65
Neigh   | 21.854     | 21.854     | 21.854     |   0.0 | 46.92
Comm    | 0.37867    | 0.37867    | 0.37867    |   0.0 |  0.81
Output  | 0.055458   | 0.055458   | 0.055458   |   0.0 |  0.12
Modify  | 0.54029    | 0.54029    | 0.54029    |   0.0 |  1.16
Other   |            | 0.1531     |            |       |  0.33

Nlocal:    19652 ave 19652 max 19652 min
Histogram: 1 0 0 0 0 0 0 0 0 0
Nghost:    15890 ave 15890 max 15890 min
Histogram: 1 0 0 0 0 0 0 0 0 0
Neighs:    1.07504e+06 ave 1.07504e+06 max 1.07504e+06 min
Histogram: 1 0 0 0 0 0 0 0 0 0

Total # of neighbors = 1075042
Ave neighs/atom = 54.7039
Neighbor list builds = 495
Dangerous builds not checked
Setting up Verlet run ...
  Unit style    : metal
  Current step  : 69843
  Time step     : 0.001
Per MPI rank memory allocation (min/avg/max) = 18.22 | 18.22 | 18.22 Mbytes
Step Temp Press TotEng PotEng Enthalpy Volume 
   69843    230.00062    72.916952   -27384.936   -27969.159   -27363.567    469543.82 
   70015    219.91742    138.61261   -27441.835   -28000.445   -27401.266    468923.58 
Loop time of 15.0487 on 1 procs for 172 steps with 19652 atoms

Performance: 0.988 ns/day, 24.303 hours/ns, 11.430 timesteps/s
100.0% CPU use with 1 MPI tasks x no OpenMP threads

MPI task timing breakdown:
Section |  min time  |  avg time  |  max time  |%varavg| %total
---------------------------------------------------------------
Pair    | 7.5984     | 7.5984     | 7.5984     |   0.0 | 50.49
Neigh   | 7.1114     | 7.1114     | 7.1114     |   0.0 | 47.26
Comm    | 0.11955    | 0.11955    | 0.11955    |   0.0 |  0.79
Output  | 0.00014091 | 0.00014091 | 0.00014091 |   0.0 |  0.00
Modify  | 0.17014    | 0.17014    | 0.17014    |   0.0 |  1.13
Other   |            | 0.04902    |            |       |  0.33

Nlocal:    19652 ave 19652 max 19652 min
Histogram: 1 0 0 0 0 0 0 0 0 0
Nghost:    15914 ave 15914 max 15914 min
Histogram: 1 0 0 0 0 0 0 0 0 0
Neighs:    1.07694e+06 ave 1.07694e+06 max 1.07694e+06 min
Histogram: 1 0 0 0 0 0 0 0 0 0

Total # of neighbors = 1076945
Ave neighs/atom = 54.8008
Neighbor list builds = 172
Dangerous builds not checked
Setting up Verlet run ...
  Unit style    : metal
  Current step  : 70015
  Time step     : 0.001
Per MPI rank memory allocation (min/avg/max) = 18.22 | 18.22 | 18.22 Mbytes
Step Temp Press TotEng PotEng Enthalpy Volume 
   70015    219.91742    138.61261   -27441.835   -28000.445   -27401.266    468923.58 
   70035    220.27804    95.194674   -27444.173     -28003.7    -27416.31    468954.85 
   70510    182.81341    39.855526   -27653.912   -28118.274   -27642.284    467437.21 
Loop time of 49.2322 on 1 procs for 495 steps with 19652 atoms

Performance: 0.869 ns/day, 27.627 hours/ns, 10.054 timesteps/s
99.9% CPU use with 1 MPI tasks x no OpenMP threads

MPI task timing breakdown:
Section |  min time  |  avg time  |  max time  |%varavg| %total
---------------------------------------------------------------
Pair    | 25.207     | 25.207     | 25.207     |   0.0 | 51.20
Neigh   | 22.831     | 22.831     | 22.831     |   0.0 | 46.37
Comm    | 0.40084    | 0.40084    | 0.40084    |   0.0 |  0.81
Output  | 0.061089   | 0.061089   | 0.061089   |   0.0 |  0.12
Modify  | 0.57051    | 0.57051    | 0.57051    |   0.0 |  1.16
Other   |            | 0.1626     |            |       |  0.33

Nlocal:    19652 ave 19652 max 19652 min
Histogram: 1 0 0 0 0 0 0 0 0 0
Nghost:    15980 ave 15980 max 15980 min
Histogram: 1 0 0 0 0 0 0 0 0 0
Neighs:    1.08099e+06 ave 1.08099e+06 max 1.08099e+06 min
Histogram: 1 0 0 0 0 0 0 0 0 0

Total # of neighbors = 1080987
Ave neighs/atom = 55.0065
Neighbor list builds = 495
Dangerous builds not checked
Setting up Verlet run ...
  Unit style    : metal
  Current step  : 70510
  Time step     : 0.001
Per MPI rank memory allocation (min/avg/max) = 18.22 | 18.22 | 18.22 Mbytes
Step Temp Press TotEng PotEng Enthalpy Volume 
   70510    182.81341    39.855526   -27653.912   -28118.274   -27642.284    467437.21 
   70682    171.02619    73.296009   -27711.116   -28145.538   -27689.756    466914.83 
Loop time of 16.5227 on 1 procs for 172 steps with 19652 atoms

Performance: 0.899 ns/day, 26.684 hours/ns, 10.410 timesteps/s
100.0% CPU use with 1 MPI tasks x no OpenMP threads

MPI task timing breakdown:
Section |  min time  |  avg time  |  max time  |%varavg| %total
---------------------------------------------------------------
Pair    | 8.4402     | 8.4402     | 8.4402     |   0.0 | 51.08
Neigh   | 7.7036     | 7.7036     | 7.7036     |   0.0 | 46.62
Comm    | 0.13462    | 0.13462    | 0.13462    |   0.0 |  0.81
Output  | 0.00014901 | 0.00014901 | 0.00014901 |   0.0 |  0.00
Modify  | 0.18986    | 0.18986    | 0.18986    |   0.0 |  1.15
Other   |            | 0.05425    |            |       |  0.33

Nlocal:    19652 ave 19652 max 19652 min
Histogram: 1 0 0 0 0 0 0 0 0 0
Nghost:    15960 ave 15960 max 15960 min
Histogram: 1 0 0 0 0 0 0 0 0 0
Neighs:    1.08289e+06 ave 1.08289e+06 max 1.08289e+06 min
Histogram: 1 0 0 0 0 0 0 0 0 0

Total # of neighbors = 1082894
Ave neighs/atom = 55.1035
Neighbor list builds = 172
Dangerous builds not checked
Setting up Verlet run ...
  Unit style    : metal
  Current step  : 70682
  Time step     : 0.001
Per MPI rank memory allocation (min/avg/max) = 18.22 | 18.22 | 18.22 Mbytes
Step Temp Press TotEng PotEng Enthalpy Volume 
   70682    171.02619    73.296009   -27711.116   -28145.538   -27689.756    466914.83 
   70702    171.11951    29.151086   -27713.579   -28148.238   -27705.083    466934.15 
   71177    131.71593   -27.011984   -27918.237   -28252.808   -27926.085    465483.08 
Loop time of 50.0857 on 1 procs for 495 steps with 19652 atoms

Performance: 0.854 ns/day, 28.106 hours/ns, 9.883 timesteps/s
99.8% CPU use with 1 MPI tasks x no OpenMP threads

MPI task timing breakdown:
Section |  min time  |  avg time  |  max time  |%varavg| %total
---------------------------------------------------------------
Pair    | 25.77      | 25.77      | 25.77      |   0.0 | 51.45
Neigh   | 23.064     | 23.064     | 23.064     |   0.0 | 46.05
Comm    | 0.41909    | 0.41909    | 0.41909    |   0.0 |  0.84
Output  | 0.084421   | 0.084421   | 0.084421   |   0.0 |  0.17
Modify  | 0.58001    | 0.58001    | 0.58001    |   0.0 |  1.16
Other   |            | 0.1679     |            |       |  0.34

Nlocal:    19652 ave 19652 max 19652 min
Histogram: 1 0 0 0 0 0 0 0 0 0
Nghost:    15999 ave 15999 max 15999 min
Histogram: 1 0 0 0 0 0 0 0 0 0
Neighs:    1.08686e+06 ave 1.08686e+06 max 1.08686e+06 min
Histogram: 1 0 0 0 0 0 0 0 0 0

Total # of neighbors = 1086862
Ave neighs/atom = 55.3054
Neighbor list builds = 495
Dangerous builds not checked
Setting up Verlet run ...
  Unit style    : metal
  Current step  : 71177
  Time step     : 0.001
Per MPI rank memory allocation (min/avg/max) = 18.22 | 18.22 | 18.22 Mbytes
Step Temp Press TotEng PotEng Enthalpy Volume 
   71177    131.71593   -27.011984   -27918.237   -28252.808   -27926.085    465483.08 
   71349    123.21991   -20.726169   -27972.612   -28285.601   -27978.627    465034.05 
Loop time of 16.962 on 1 procs for 172 steps with 19652 atoms

Performance: 0.876 ns/day, 27.393 hours/ns, 10.140 timesteps/s
100.0% CPU use with 1 MPI tasks x no OpenMP threads

MPI task timing breakdown:
Section |  min time  |  avg time  |  max time  |%varavg| %total
---------------------------------------------------------------
Pair    | 8.7218     | 8.7218     | 8.7218     |   0.0 | 51.42
Neigh   | 7.845      | 7.845      | 7.845      |   0.0 | 46.25
Comm    | 0.14024    | 0.14024    | 0.14024    |   0.0 |  0.83
Output  | 0.0001471  | 0.0001471  | 0.0001471  |   0.0 |  0.00
Modify  | 0.19956    | 0.19956    | 0.19956    |   0.0 |  1.18
Other   |            | 0.05528    |            |       |  0.33

Nlocal:    19652 ave 19652 max 19652 min
Histogram: 1 0 0 0 0 0 0 0 0 0
Nghost:    15969 ave 15969 max 15969 min
Histogram: 1 0 0 0 0 0 0 0 0 0
Neighs:    1.08793e+06 ave 1.08793e+06 max 1.08793e+06 min
Histogram: 1 0 0 0 0 0 0 0 0 0

Total # of neighbors = 1087932
Ave neighs/atom = 55.3599
Neighbor list builds = 172
Dangerous builds not checked
Total wall time: 1:43:42
