LAMMPS (12 Dec 2018)
Lattice spacing in x,y,z = 4 4 4
Created orthogonal box = (0 0 0) to (68 68 68)
  1 by 1 by 1 MPI processor grid
Created 19652 atoms
  Time spent = 0.00310898 secs
Setting atom values ...
  19480 settings made for type/fraction
Neighbor list info ...
  update every 1 steps, delay 0 steps, check no
  max neighbors/atom: 2000, page size: 100000
  master list distance cutoff = 8.5
  ghost atom cutoff = 8.5
  binsize = 4.25, bins = 16 16 16
  1 neighbor lists, perpetual/occasional/extra = 1 0 0
  (1) pair eam/alloy, perpetual
      attributes: half, newton on
      pair build: half/bin/atomonly/newton
      stencil: half/bin/3d/newton
      bin: standard
Setting up Verlet run ...
  Unit style    : metal
  Current step  : 0
  Time step     : 0.001
Per MPI rank memory allocation (min/avg/max) = 18.19 | 18.19 | 18.19 Mbytes
Step Temp Press TotEng PotEng Enthalpy 
       0          300    33431.605    -65131.79   -65893.818   -58570.736 
    1000    161.71575    39109.507   -65131.645   -65542.417   -57456.285 
Loop time of 137.009 on 1 procs for 1000 steps with 19652 atoms

Performance: 0.631 ns/day, 38.058 hours/ns, 7.299 timesteps/s
99.2% CPU use with 1 MPI tasks x no OpenMP threads

MPI task timing breakdown:
Section |  min time  |  avg time  |  max time  |%varavg| %total
---------------------------------------------------------------
Pair    | 77.036     | 77.036     | 77.036     |   0.0 | 56.23
Neigh   | 58.263     | 58.263     | 58.263     |   0.0 | 42.52
Comm    | 1.0139     | 1.0139     | 1.0139     |   0.0 |  0.74
Output  | 0.00015497 | 0.00015497 | 0.00015497 |   0.0 |  0.00
Modify  | 0.35811    | 0.35811    | 0.35811    |   0.0 |  0.26
Other   |            | 0.3386     |            |       |  0.25

Nlocal:    19652 ave 19652 max 19652 min
Histogram: 1 0 0 0 0 0 0 0 0 0
Nghost:    20102 ave 20102 max 20102 min
Histogram: 1 0 0 0 0 0 0 0 0 0
Neighs:    1.56972e+06 ave 1.56972e+06 max 1.56972e+06 min
Histogram: 1 0 0 0 0 0 0 0 0 0

Total # of neighbors = 1569722
Ave neighs/atom = 79.8759
Neighbor list builds = 1000
Dangerous builds not checked
Setting up Verlet run ...
  Unit style    : metal
  Current step  : 1000
  Time step     : 0.001
Per MPI rank memory allocation (min/avg/max) = 18.19 | 18.19 | 18.19 Mbytes
Step Temp Press TotEng PotEng Enthalpy 
    1000    161.71575    39109.507   -65131.645   -65542.417   -57456.285 
    2000    299.69335    21.014455   -64494.923   -65256.172   -64490.562 
Loop time of 145.749 on 1 procs for 1000 steps with 19652 atoms

Performance: 0.593 ns/day, 40.486 hours/ns, 6.861 timesteps/s
99.0% CPU use with 1 MPI tasks x no OpenMP threads

MPI task timing breakdown:
Section |  min time  |  avg time  |  max time  |%varavg| %total
---------------------------------------------------------------
Pair    | 80.168     | 80.168     | 80.168     |   0.0 | 55.00
Neigh   | 62.713     | 62.713     | 62.713     |   0.0 | 43.03
Comm    | 1.0614     | 1.0614     | 1.0614     |   0.0 |  0.73
Output  | 0.00013113 | 0.00013113 | 0.00013113 |   0.0 |  0.00
Modify  | 1.4285     | 1.4285     | 1.4285     |   0.0 |  0.98
Other   |            | 0.3782     |            |       |  0.26

Nlocal:    19652 ave 19652 max 19652 min
Histogram: 1 0 0 0 0 0 0 0 0 0
Nghost:    20096 ave 20096 max 20096 min
Histogram: 1 0 0 0 0 0 0 0 0 0
Neighs:    1.44068e+06 ave 1.44068e+06 max 1.44068e+06 min
Histogram: 1 0 0 0 0 0 0 0 0 0

Total # of neighbors = 1440679
Ave neighs/atom = 73.3095
Neighbor list builds = 1000
Dangerous builds not checked
Setting up Verlet run ...
  Unit style    : metal
  Current step  : 2000
  Time step     : 0.001
Per MPI rank memory allocation (min/avg/max) = 18.19 | 18.19 | 18.19 Mbytes
Step Temp Press TotEng PotEng Enthalpy 
    2000    299.69335    21.014455   -64494.923   -65256.172   -64490.562 
    5000    1077.2149    129.31728   -59812.814   -62549.037   -59783.686 
   10000    2424.3747   -317.72159   -50937.529   -57095.661   -51025.633 
Loop time of 1015.23 on 1 procs for 8000 steps with 19652 atoms

Performance: 0.681 ns/day, 35.251 hours/ns, 7.880 timesteps/s
99.3% CPU use with 1 MPI tasks x no OpenMP threads

MPI task timing breakdown:
Section |  min time  |  avg time  |  max time  |%varavg| %total
---------------------------------------------------------------
Pair    | 529.49     | 529.49     | 529.49     |   0.0 | 52.15
Neigh   | 465.36     | 465.36     | 465.36     |   0.0 | 45.84
Comm    | 7.4977     | 7.4977     | 7.4977     |   0.0 |  0.74
Output  | 0.11598    | 0.11598    | 0.11598    |   0.0 |  0.01
Modify  | 10.133     | 10.133     | 10.133     |   0.0 |  1.00
Other   |            | 2.633      |            |       |  0.26

Nlocal:    19652 ave 19652 max 19652 min
Histogram: 1 0 0 0 0 0 0 0 0 0
Nghost:    16229 ave 16229 max 16229 min
Histogram: 1 0 0 0 0 0 0 0 0 0
Neighs:    1.10909e+06 ave 1.10909e+06 max 1.10909e+06 min
Histogram: 1 0 0 0 0 0 0 0 0 0

Total # of neighbors = 1109093
Ave neighs/atom = 56.4366
Neighbor list builds = 8000
Dangerous builds not checked
Setting up Verlet run ...
  Unit style    : metal
  Current step  : 10000
  Time step     : 0.001
Per MPI rank memory allocation (min/avg/max) = 18.2 | 18.2 | 18.2 Mbytes
Step Temp Press TotEng PotEng Enthalpy 
   10000    2424.3747   -317.72159   -50937.529   -57095.661   -51025.633 
   15000    2463.5828    863.76345   -50763.969   -57021.694   -50524.511 
   20000    2472.7489   -670.80543   -50722.372    -57003.38   -50909.214 
   25000    2467.1254    1082.8187   -50725.321   -56992.045   -50425.244 
   30000    2441.6856   -744.85664   -50858.856    -57060.96   -51065.633 
   35000    2462.9149    132.26408   -50835.359   -57091.387   -50798.721 
   40000    2441.9854   -26.206747   -50922.182   -57125.047   -50929.433 
Loop time of 4762.39 on 1 procs for 30000 steps with 19652 atoms

Performance: 0.544 ns/day, 44.096 hours/ns, 6.299 timesteps/s
89.4% CPU use with 1 MPI tasks x no OpenMP threads

MPI task timing breakdown:
Section |  min time  |  avg time  |  max time  |%varavg| %total
---------------------------------------------------------------
Pair    | 2436.7     | 2436.7     | 2436.7     |   0.0 | 51.17
Neigh   | 2224.2     | 2224.2     | 2224.2     |   0.0 | 46.70
Comm    | 36.862     | 36.862     | 36.862     |   0.0 |  0.77
Output  | 0.38812    | 0.38812    | 0.38812    |   0.0 |  0.01
Modify  | 51.095     | 51.095     | 51.095     |   0.0 |  1.07
Other   |            | 13.16      |            |       |  0.28

Nlocal:    19652 ave 19652 max 19652 min
Histogram: 1 0 0 0 0 0 0 0 0 0
Nghost:    16211 ave 16211 max 16211 min
Histogram: 1 0 0 0 0 0 0 0 0 0
Neighs:    1.11044e+06 ave 1.11044e+06 max 1.11044e+06 min
Histogram: 1 0 0 0 0 0 0 0 0 0

Total # of neighbors = 1110444
Ave neighs/atom = 56.5054
Neighbor list builds = 30000
Dangerous builds not checked
Setting up Verlet run ...
  Unit style    : metal
  Current step  : 40000
  Time step     : 0.001
Per MPI rank memory allocation (min/avg/max) = 18.2 | 18.2 | 18.2 Mbytes
Step Temp Press TotEng PotEng Enthalpy 
   40000    2441.9854   -26.206747   -50922.182   -57125.047   -50929.433 
   40495     2395.912    331.59095   -51080.819   -57166.653   -50989.344 
Loop time of 81.1911 on 1 procs for 495 steps with 19652 atoms

Performance: 0.527 ns/day, 45.562 hours/ns, 6.097 timesteps/s
83.7% CPU use with 1 MPI tasks x no OpenMP threads

MPI task timing breakdown:
Section |  min time  |  avg time  |  max time  |%varavg| %total
---------------------------------------------------------------
Pair    | 41.527     | 41.527     | 41.527     |   0.0 | 51.15
Neigh   | 37.92      | 37.92      | 37.92      |   0.0 | 46.70
Comm    | 0.60319    | 0.60319    | 0.60319    |   0.0 |  0.74
Output  | 0.00018191 | 0.00018191 | 0.00018191 |   0.0 |  0.00
Modify  | 0.92179    | 0.92179    | 0.92179    |   0.0 |  1.14
Other   |            | 0.2186     |            |       |  0.27

Nlocal:    19652 ave 19652 max 19652 min
Histogram: 1 0 0 0 0 0 0 0 0 0
Nghost:    16238 ave 16238 max 16238 min
Histogram: 1 0 0 0 0 0 0 0 0 0
Neighs:    1.11451e+06 ave 1.11451e+06 max 1.11451e+06 min
Histogram: 1 0 0 0 0 0 0 0 0 0

Total # of neighbors = 1114512
Ave neighs/atom = 56.7124
Neighbor list builds = 495
Dangerous builds not checked
Setting up Verlet run ...
  Unit style    : metal
  Current step  : 40495
  Time step     : 0.001
Per MPI rank memory allocation (min/avg/max) = 18.2 | 18.2 | 18.2 Mbytes
Step Temp Press TotEng PotEng Enthalpy 
   40495     2395.912    331.59095   -51080.819   -57166.653   -50989.344 
   45000    2410.6769    1262.3989   -51100.714   -57224.053   -50753.837 
Loop time of 731.167 on 1 procs for 4505 steps with 19652 atoms

Performance: 0.532 ns/day, 45.084 hours/ns, 6.161 timesteps/s
88.3% CPU use with 1 MPI tasks x no OpenMP threads

MPI task timing breakdown:
Section |  min time  |  avg time  |  max time  |%varavg| %total
---------------------------------------------------------------
Pair    | 377.85     | 377.85     | 377.85     |   0.0 | 51.68
Neigh   | 337.96     | 337.96     | 337.96     |   0.0 | 46.22
Comm    | 5.6112     | 5.6112     | 5.6112     |   0.0 |  0.77
Output  | 0.057442   | 0.057442   | 0.057442   |   0.0 |  0.01
Modify  | 7.6513     | 7.6513     | 7.6513     |   0.0 |  1.05
Other   |            | 2.044      |            |       |  0.28

Nlocal:    19652 ave 19652 max 19652 min
Histogram: 1 0 0 0 0 0 0 0 0 0
Nghost:    16281 ave 16281 max 16281 min
Histogram: 1 0 0 0 0 0 0 0 0 0
Neighs:    1.11914e+06 ave 1.11914e+06 max 1.11914e+06 min
Histogram: 1 0 0 0 0 0 0 0 0 0

Total # of neighbors = 1119137
Ave neighs/atom = 56.9477
Neighbor list builds = 4505
Dangerous builds not checked
Setting up Verlet run ...
  Unit style    : metal
  Current step  : 45000
  Time step     : 0.001
Per MPI rank memory allocation (min/avg/max) = 18.2 | 18.2 | 18.2 Mbytes
Step Temp Press TotEng PotEng Enthalpy 
   45000    2410.6769    1262.3989   -51100.714   -57224.053   -50753.837 
   45495    2363.5489    252.38174   -51344.289   -57347.918   -51275.044 
Loop time of 78.3384 on 1 procs for 495 steps with 19652 atoms

Performance: 0.546 ns/day, 43.961 hours/ns, 6.319 timesteps/s
86.9% CPU use with 1 MPI tasks x no OpenMP threads

MPI task timing breakdown:
Section |  min time  |  avg time  |  max time  |%varavg| %total
---------------------------------------------------------------
Pair    | 40.36      | 40.36      | 40.36      |   0.0 | 51.52
Neigh   | 36.338     | 36.338     | 36.338     |   0.0 | 46.39
Comm    | 0.5854     | 0.5854     | 0.5854     |   0.0 |  0.75
Output  | 0.00016117 | 0.00016117 | 0.00016117 |   0.0 |  0.00
Modify  | 0.83548    | 0.83548    | 0.83548    |   0.0 |  1.07
Other   |            | 0.2194     |            |       |  0.28

Nlocal:    19652 ave 19652 max 19652 min
Histogram: 1 0 0 0 0 0 0 0 0 0
Nghost:    16353 ave 16353 max 16353 min
Histogram: 1 0 0 0 0 0 0 0 0 0
Neighs:    1.12048e+06 ave 1.12048e+06 max 1.12048e+06 min
Histogram: 1 0 0 0 0 0 0 0 0 0

Total # of neighbors = 1120478
Ave neighs/atom = 57.016
Neighbor list builds = 495
Dangerous builds not checked
Setting up Verlet run ...
  Unit style    : metal
  Current step  : 45495
  Time step     : 0.001
Per MPI rank memory allocation (min/avg/max) = 18.2 | 18.2 | 18.2 Mbytes
Step Temp Press TotEng PotEng Enthalpy 
   45495    2363.5489    252.38174   -51344.289   -57347.918   -51275.044 
   50000    2348.6762   -1006.6721   -51365.703   -57331.554   -51642.493 
Loop time of 723.641 on 1 procs for 4505 steps with 19652 atoms

Performance: 0.538 ns/day, 44.620 hours/ns, 6.225 timesteps/s
88.0% CPU use with 1 MPI tasks x no OpenMP threads

MPI task timing breakdown:
Section |  min time  |  avg time  |  max time  |%varavg| %total
---------------------------------------------------------------
Pair    | 371.91     | 371.91     | 371.91     |   0.0 | 51.39
Neigh   | 336.25     | 336.25     | 336.25     |   0.0 | 46.47
Comm    | 5.6368     | 5.6368     | 5.6368     |   0.0 |  0.78
Output  | 0.071144   | 0.071144   | 0.071144   |   0.0 |  0.01
Modify  | 7.8071     | 7.8071     | 7.8071     |   0.0 |  1.08
Other   |            | 1.964      |            |       |  0.27

Nlocal:    19652 ave 19652 max 19652 min
Histogram: 1 0 0 0 0 0 0 0 0 0
Nghost:    16489 ave 16489 max 16489 min
Histogram: 1 0 0 0 0 0 0 0 0 0
Neighs:    1.11829e+06 ave 1.11829e+06 max 1.11829e+06 min
Histogram: 1 0 0 0 0 0 0 0 0 0

Total # of neighbors = 1118293
Ave neighs/atom = 56.9048
Neighbor list builds = 4505
Dangerous builds not checked
Setting up Verlet run ...
  Unit style    : metal
  Current step  : 50000
  Time step     : 0.001
Per MPI rank memory allocation (min/avg/max) = 18.2 | 18.2 | 18.2 Mbytes
Step Temp Press TotEng PotEng Enthalpy 
   50000    2348.6762   -1006.6721   -51365.703   -57331.554   -51642.493 
   50495       2312.9     1049.588   -51613.278   -57488.255   -51327.447 
Loop time of 81.9857 on 1 procs for 495 steps with 19652 atoms

Performance: 0.522 ns/day, 46.008 hours/ns, 6.038 timesteps/s
83.3% CPU use with 1 MPI tasks x no OpenMP threads

MPI task timing breakdown:
Section |  min time  |  avg time  |  max time  |%varavg| %total
---------------------------------------------------------------
Pair    | 41.935     | 41.935     | 41.935     |   0.0 | 51.15
Neigh   | 38.238     | 38.238     | 38.238     |   0.0 | 46.64
Comm    | 0.70503    | 0.70503    | 0.70503    |   0.0 |  0.86
Output  | 0.00021315 | 0.00021315 | 0.00021315 |   0.0 |  0.00
Modify  | 0.88988    | 0.88988    | 0.88988    |   0.0 |  1.09
Other   |            | 0.2169     |            |       |  0.26

Nlocal:    19652 ave 19652 max 19652 min
Histogram: 1 0 0 0 0 0 0 0 0 0
Nghost:    16407 ave 16407 max 16407 min
Histogram: 1 0 0 0 0 0 0 0 0 0
Neighs:    1.1289e+06 ave 1.1289e+06 max 1.1289e+06 min
Histogram: 1 0 0 0 0 0 0 0 0 0

Total # of neighbors = 1128903
Ave neighs/atom = 57.4447
Neighbor list builds = 495
Dangerous builds not checked
Setting up Verlet run ...
  Unit style    : metal
  Current step  : 50495
  Time step     : 0.001
Per MPI rank memory allocation (min/avg/max) = 18.2 | 18.2 | 18.2 Mbytes
Step Temp Press TotEng PotEng Enthalpy 
   50495       2312.9     1049.588   -51613.278   -57488.255   -51327.447 
   55000    2326.7327      102.864   -51567.367    -57477.48   -51539.315 
Loop time of 717.454 on 1 procs for 4505 steps with 19652 atoms

Performance: 0.543 ns/day, 44.238 hours/ns, 6.279 timesteps/s
88.8% CPU use with 1 MPI tasks x no OpenMP threads

MPI task timing breakdown:
Section |  min time  |  avg time  |  max time  |%varavg| %total
---------------------------------------------------------------
Pair    | 369.84     | 369.84     | 369.84     |   0.0 | 51.55
Neigh   | 332.34     | 332.34     | 332.34     |   0.0 | 46.32
Comm    | 5.4583     | 5.4583     | 5.4583     |   0.0 |  0.76
Output  | 0.062221   | 0.062221   | 0.062221   |   0.0 |  0.01
Modify  | 7.7581     | 7.7581     | 7.7581     |   0.0 |  1.08
Other   |            | 1.995      |            |       |  0.28

Nlocal:    19652 ave 19652 max 19652 min
Histogram: 1 0 0 0 0 0 0 0 0 0
Nghost:    16351 ave 16351 max 16351 min
Histogram: 1 0 0 0 0 0 0 0 0 0
Neighs:    1.12806e+06 ave 1.12806e+06 max 1.12806e+06 min
Histogram: 1 0 0 0 0 0 0 0 0 0

Total # of neighbors = 1128057
Ave neighs/atom = 57.4016
Neighbor list builds = 4505
Dangerous builds not checked
Setting up Verlet run ...
  Unit style    : metal
  Current step  : 55000
  Time step     : 0.001
Per MPI rank memory allocation (min/avg/max) = 18.2 | 18.2 | 18.2 Mbytes
Step Temp Press TotEng PotEng Enthalpy 
   55000    2326.7327      102.864   -51567.367    -57477.48   -51539.315 
   55495    2270.0404     480.4857    -51910.17    -57676.28   -51780.143 
Loop time of 74.2841 on 1 procs for 495 steps with 19652 atoms

Performance: 0.576 ns/day, 41.686 hours/ns, 6.664 timesteps/s
91.3% CPU use with 1 MPI tasks x no OpenMP threads

MPI task timing breakdown:
Section |  min time  |  avg time  |  max time  |%varavg| %total
---------------------------------------------------------------
Pair    | 38.257     | 38.257     | 38.257     |   0.0 | 51.50
Neigh   | 34.43      | 34.43      | 34.43      |   0.0 | 46.35
Comm    | 0.57301    | 0.57301    | 0.57301    |   0.0 |  0.77
Output  | 0.00019383 | 0.00019383 | 0.00019383 |   0.0 |  0.00
Modify  | 0.80601    | 0.80601    | 0.80601    |   0.0 |  1.09
Other   |            | 0.2182     |            |       |  0.29

Nlocal:    19652 ave 19652 max 19652 min
Histogram: 1 0 0 0 0 0 0 0 0 0
Nghost:    16534 ave 16534 max 16534 min
Histogram: 1 0 0 0 0 0 0 0 0 0
Neighs:    1.13666e+06 ave 1.13666e+06 max 1.13666e+06 min
Histogram: 1 0 0 0 0 0 0 0 0 0

Total # of neighbors = 1136660
Ave neighs/atom = 57.8394
Neighbor list builds = 495
Dangerous builds not checked
Setting up Verlet run ...
  Unit style    : metal
  Current step  : 55495
  Time step     : 0.001
Per MPI rank memory allocation (min/avg/max) = 18.2 | 18.2 | 18.2 Mbytes
Step Temp Press TotEng PotEng Enthalpy 
   55495    2270.0404     480.4857    -51910.17    -57676.28   -51780.143 
   60000    2242.2672    1527.9115    -52010.95   -57706.513   -51599.291 
Loop time of 723.834 on 1 procs for 4505 steps with 19652 atoms

Performance: 0.538 ns/day, 44.632 hours/ns, 6.224 timesteps/s
88.2% CPU use with 1 MPI tasks x no OpenMP threads

MPI task timing breakdown:
Section |  min time  |  avg time  |  max time  |%varavg| %total
---------------------------------------------------------------
Pair    | 375.52     | 375.52     | 375.52     |   0.0 | 51.88
Neigh   | 332.91     | 332.91     | 332.91     |   0.0 | 45.99
Comm    | 5.5897     | 5.5897     | 5.5897     |   0.0 |  0.77
Output  | 0.066764   | 0.066764   | 0.066764   |   0.0 |  0.01
Modify  | 7.7044     | 7.7044     | 7.7044     |   0.0 |  1.06
Other   |            | 2.045      |            |       |  0.28

Nlocal:    19652 ave 19652 max 19652 min
Histogram: 1 0 0 0 0 0 0 0 0 0
Nghost:    16478 ave 16478 max 16478 min
Histogram: 1 0 0 0 0 0 0 0 0 0
Neighs:    1.14146e+06 ave 1.14146e+06 max 1.14146e+06 min
Histogram: 1 0 0 0 0 0 0 0 0 0

Total # of neighbors = 1141465
Ave neighs/atom = 58.0839
Neighbor list builds = 4505
Dangerous builds not checked
Setting up Verlet run ...
  Unit style    : metal
  Current step  : 60000
  Time step     : 0.001
Per MPI rank memory allocation (min/avg/max) = 18.2 | 18.2 | 18.2 Mbytes
Step Temp Press TotEng PotEng Enthalpy 
   60000    2242.2672    1527.9115    -52010.95   -57706.513   -51599.291 
   60495     2210.312   -186.25415   -52111.335   -57725.729   -52161.678 
Loop time of 75.345 on 1 procs for 495 steps with 19652 atoms

Performance: 0.568 ns/day, 42.281 hours/ns, 6.570 timesteps/s
90.7% CPU use with 1 MPI tasks x no OpenMP threads

MPI task timing breakdown:
Section |  min time  |  avg time  |  max time  |%varavg| %total
---------------------------------------------------------------
Pair    | 38.497     | 38.497     | 38.497     |   0.0 | 51.09
Neigh   | 35.27      | 35.27      | 35.27      |   0.0 | 46.81
Comm    | 0.57561    | 0.57561    | 0.57561    |   0.0 |  0.76
Output  | 0.00018692 | 0.00018692 | 0.00018692 |   0.0 |  0.00
Modify  | 0.79396    | 0.79396    | 0.79396    |   0.0 |  1.05
Other   |            | 0.2075     |            |       |  0.28

Nlocal:    19652 ave 19652 max 19652 min
Histogram: 1 0 0 0 0 0 0 0 0 0
Nghost:    16485 ave 16485 max 16485 min
Histogram: 1 0 0 0 0 0 0 0 0 0
Neighs:    1.13736e+06 ave 1.13736e+06 max 1.13736e+06 min
Histogram: 1 0 0 0 0 0 0 0 0 0

Total # of neighbors = 1137365
Ave neighs/atom = 57.8753
Neighbor list builds = 495
Dangerous builds not checked
Setting up Verlet run ...
  Unit style    : metal
  Current step  : 60495
  Time step     : 0.001
Per MPI rank memory allocation (min/avg/max) = 18.2 | 18.2 | 18.2 Mbytes
Step Temp Press TotEng PotEng Enthalpy 
   60495     2210.312   -186.25415   -52111.335   -57725.729   -52161.678 
   65000    2177.4101   -240.11366   -52260.029    -57790.85   -52324.732 
Loop time of 711.192 on 1 procs for 4505 steps with 19652 atoms

Performance: 0.547 ns/day, 43.852 hours/ns, 6.334 timesteps/s
90.2% CPU use with 1 MPI tasks x no OpenMP threads

MPI task timing breakdown:
Section |  min time  |  avg time  |  max time  |%varavg| %total
---------------------------------------------------------------
Pair    | 368.15     | 368.15     | 368.15     |   0.0 | 51.76
Neigh   | 328.13     | 328.13     | 328.13     |   0.0 | 46.14
Comm    | 5.3523     | 5.3523     | 5.3523     |   0.0 |  0.75
Output  | 0.06388    | 0.06388    | 0.06388    |   0.0 |  0.01
Modify  | 7.5161     | 7.5161     | 7.5161     |   0.0 |  1.06
Other   |            | 1.984      |            |       |  0.28

Nlocal:    19652 ave 19652 max 19652 min
Histogram: 1 0 0 0 0 0 0 0 0 0
Nghost:    16474 ave 16474 max 16474 min
Histogram: 1 0 0 0 0 0 0 0 0 0
Neighs:    1.14108e+06 ave 1.14108e+06 max 1.14108e+06 min
Histogram: 1 0 0 0 0 0 0 0 0 0

Total # of neighbors = 1141085
Ave neighs/atom = 58.0646
Neighbor list builds = 4505
Dangerous builds not checked
Setting up Verlet run ...
  Unit style    : metal
  Current step  : 65000
  Time step     : 0.001
Per MPI rank memory allocation (min/avg/max) = 18.2 | 18.2 | 18.2 Mbytes
Step Temp Press TotEng PotEng Enthalpy 
   65000    2177.4101   -240.11366   -52260.029    -57790.85   -52324.732 
   65495    2157.7356    315.18325   -52479.443   -57960.288   -52395.082 
Loop time of 73.1291 on 1 procs for 495 steps with 19652 atoms

Performance: 0.585 ns/day, 41.038 hours/ns, 6.769 timesteps/s
94.4% CPU use with 1 MPI tasks x no OpenMP threads

MPI task timing breakdown:
Section |  min time  |  avg time  |  max time  |%varavg| %total
---------------------------------------------------------------
Pair    | 37.82      | 37.82      | 37.82      |   0.0 | 51.72
Neigh   | 33.798     | 33.798     | 33.798     |   0.0 | 46.22
Comm    | 0.55139    | 0.55139    | 0.55139    |   0.0 |  0.75
Output  | 0.000283   | 0.000283   | 0.000283   |   0.0 |  0.00
Modify  | 0.75588    | 0.75588    | 0.75588    |   0.0 |  1.03
Other   |            | 0.2043     |            |       |  0.28

Nlocal:    19652 ave 19652 max 19652 min
Histogram: 1 0 0 0 0 0 0 0 0 0
Nghost:    16565 ave 16565 max 16565 min
Histogram: 1 0 0 0 0 0 0 0 0 0
Neighs:    1.14899e+06 ave 1.14899e+06 max 1.14899e+06 min
Histogram: 1 0 0 0 0 0 0 0 0 0

Total # of neighbors = 1148988
Ave neighs/atom = 58.4667
Neighbor list builds = 495
Dangerous builds not checked
Setting up Verlet run ...
  Unit style    : metal
  Current step  : 65495
  Time step     : 0.001
Per MPI rank memory allocation (min/avg/max) = 18.2 | 18.2 | 18.2 Mbytes
Step Temp Press TotEng PotEng Enthalpy 
   65495    2157.7356    315.18325   -52479.443   -57960.288   -52395.082 
   70000    2150.3419    423.90605   -52485.638   -57947.702   -52372.187 
Loop time of 676.687 on 1 procs for 4505 steps with 19652 atoms

Performance: 0.575 ns/day, 41.724 hours/ns, 6.657 timesteps/s
96.5% CPU use with 1 MPI tasks x no OpenMP threads

MPI task timing breakdown:
Section |  min time  |  avg time  |  max time  |%varavg| %total
---------------------------------------------------------------
Pair    | 352.97     | 352.97     | 352.97     |   0.0 | 52.16
Neigh   | 309.64     | 309.64     | 309.64     |   0.0 | 45.76
Comm    | 5.1212     | 5.1212     | 5.1212     |   0.0 |  0.76
Output  | 0.1189     | 0.1189     | 0.1189     |   0.0 |  0.02
Modify  | 7.0066     | 7.0066     | 7.0066     |   0.0 |  1.04
Other   |            | 1.829      |            |       |  0.27

Nlocal:    19652 ave 19652 max 19652 min
Histogram: 1 0 0 0 0 0 0 0 0 0
Nghost:    16502 ave 16502 max 16502 min
Histogram: 1 0 0 0 0 0 0 0 0 0
Neighs:    1.14928e+06 ave 1.14928e+06 max 1.14928e+06 min
Histogram: 1 0 0 0 0 0 0 0 0 0

Total # of neighbors = 1149279
Ave neighs/atom = 58.4815
Neighbor list builds = 4505
Dangerous builds not checked
Setting up Verlet run ...
  Unit style    : metal
  Current step  : 70000
  Time step     : 0.001
Per MPI rank memory allocation (min/avg/max) = 18.2 | 18.2 | 18.2 Mbytes
Step Temp Press TotEng PotEng Enthalpy 
   70000    2150.3419    423.90605   -52485.638   -57947.702   -52372.187 
   70495    2120.2167    415.18815   -52722.923   -58108.466   -52612.441 
Loop time of 72.329 on 1 procs for 495 steps with 19652 atoms

Performance: 0.591 ns/day, 40.589 hours/ns, 6.844 timesteps/s
97.9% CPU use with 1 MPI tasks x no OpenMP threads

MPI task timing breakdown:
Section |  min time  |  avg time  |  max time  |%varavg| %total
---------------------------------------------------------------
Pair    | 37.756     | 37.756     | 37.756     |   0.0 | 52.20
Neigh   | 33.09      | 33.09      | 33.09      |   0.0 | 45.75
Comm    | 0.52798    | 0.52798    | 0.52798    |   0.0 |  0.73
Output  | 0.00018692 | 0.00018692 | 0.00018692 |   0.0 |  0.00
Modify  | 0.75512    | 0.75512    | 0.75512    |   0.0 |  1.04
Other   |            | 0.1998     |            |       |  0.28

Nlocal:    19652 ave 19652 max 19652 min
Histogram: 1 0 0 0 0 0 0 0 0 0
Nghost:    16418 ave 16418 max 16418 min
Histogram: 1 0 0 0 0 0 0 0 0 0
Neighs:    1.15574e+06 ave 1.15574e+06 max 1.15574e+06 min
Histogram: 1 0 0 0 0 0 0 0 0 0

Total # of neighbors = 1155739
Ave neighs/atom = 58.8102
Neighbor list builds = 495
Dangerous builds not checked
Setting up Verlet run ...
  Unit style    : metal
  Current step  : 70495
  Time step     : 0.001
Per MPI rank memory allocation (min/avg/max) = 18.2 | 18.2 | 18.2 Mbytes
Step Temp Press TotEng PotEng Enthalpy 
   70495    2120.2167    415.18815   -52722.923   -58108.466   -52612.441 
   75000    2101.5971    1082.4907   -52810.335   -58148.583   -52523.665 
Loop time of 654.712 on 1 procs for 4505 steps with 19652 atoms

Performance: 0.595 ns/day, 40.369 hours/ns, 6.881 timesteps/s
97.9% CPU use with 1 MPI tasks x no OpenMP threads

MPI task timing breakdown:
Section |  min time  |  avg time  |  max time  |%varavg| %total
---------------------------------------------------------------
Pair    | 341.52     | 341.52     | 341.52     |   0.0 | 52.16
Neigh   | 299.59     | 299.59     | 299.59     |   0.0 | 45.76
Comm    | 4.9855     | 4.9855     | 4.9855     |   0.0 |  0.76
Output  | 0.061229   | 0.061229   | 0.061229   |   0.0 |  0.01
Modify  | 6.7863     | 6.7863     | 6.7863     |   0.0 |  1.04
Other   |            | 1.764      |            |       |  0.27

Nlocal:    19652 ave 19652 max 19652 min
Histogram: 1 0 0 0 0 0 0 0 0 0
Nghost:    16664 ave 16664 max 16664 min
Histogram: 1 0 0 0 0 0 0 0 0 0
Neighs:    1.16172e+06 ave 1.16172e+06 max 1.16172e+06 min
Histogram: 1 0 0 0 0 0 0 0 0 0

Total # of neighbors = 1161719
Ave neighs/atom = 59.1145
Neighbor list builds = 4505
Dangerous builds not checked
Setting up Verlet run ...
  Unit style    : metal
  Current step  : 75000
  Time step     : 0.001
Per MPI rank memory allocation (min/avg/max) = 18.2 | 18.2 | 18.2 Mbytes
Step Temp Press TotEng PotEng Enthalpy 
   75000    2101.5971    1082.4907   -52810.335   -58148.583   -52523.665 
   75495    2066.5649   -333.28846   -52938.507   -58187.771   -53027.096 
Loop time of 63.4161 on 1 procs for 495 steps with 19652 atoms

Performance: 0.674 ns/day, 35.587 hours/ns, 7.806 timesteps/s
99.9% CPU use with 1 MPI tasks x no OpenMP threads

MPI task timing breakdown:
Section |  min time  |  avg time  |  max time  |%varavg| %total
---------------------------------------------------------------
Pair    | 32.746     | 32.746     | 32.746     |   0.0 | 51.64
Neigh   | 29.342     | 29.342     | 29.342     |   0.0 | 46.27
Comm    | 0.48106    | 0.48106    | 0.48106    |   0.0 |  0.76
Output  | 0.00020981 | 0.00020981 | 0.00020981 |   0.0 |  0.00
Modify  | 0.67114    | 0.67114    | 0.67114    |   0.0 |  1.06
Other   |            | 0.1749     |            |       |  0.28

Nlocal:    19652 ave 19652 max 19652 min
Histogram: 1 0 0 0 0 0 0 0 0 0
Nghost:    16595 ave 16595 max 16595 min
Histogram: 1 0 0 0 0 0 0 0 0 0
Neighs:    1.15779e+06 ave 1.15779e+06 max 1.15779e+06 min
Histogram: 1 0 0 0 0 0 0 0 0 0

Total # of neighbors = 1157790
Ave neighs/atom = 58.9146
Neighbor list builds = 495
Dangerous builds not checked
Setting up Verlet run ...
  Unit style    : metal
  Current step  : 75495
  Time step     : 0.001
Per MPI rank memory allocation (min/avg/max) = 18.2 | 18.2 | 18.2 Mbytes
Step Temp Press TotEng PotEng Enthalpy 
   75495    2066.5649   -333.28846   -52938.507   -58187.771   -53027.096 
   80000    2058.0806    286.91692   -53100.486   -58328.198   -53024.767 
Loop time of 591.718 on 1 procs for 4505 steps with 19652 atoms

Performance: 0.658 ns/day, 36.485 hours/ns, 7.613 timesteps/s
99.8% CPU use with 1 MPI tasks x no OpenMP threads

MPI task timing breakdown:
Section |  min time  |  avg time  |  max time  |%varavg| %total
---------------------------------------------------------------
Pair    | 306.76     | 306.76     | 306.76     |   0.0 | 51.84
Neigh   | 272.4      | 272.4      | 272.4      |   0.0 | 46.04
Comm    | 4.4873     | 4.4873     | 4.4873     |   0.0 |  0.76
Output  | 0.3621     | 0.3621     | 0.3621     |   0.0 |  0.06
Modify  | 6.1195     | 6.1195     | 6.1195     |   0.0 |  1.03
Other   |            | 1.591      |            |       |  0.27

Nlocal:    19652 ave 19652 max 19652 min
Histogram: 1 0 0 0 0 0 0 0 0 0
Nghost:    16692 ave 16692 max 16692 min
Histogram: 1 0 0 0 0 0 0 0 0 0
Neighs:    1.16567e+06 ave 1.16567e+06 max 1.16567e+06 min
Histogram: 1 0 0 0 0 0 0 0 0 0

Total # of neighbors = 1165672
Ave neighs/atom = 59.3157
Neighbor list builds = 4505
Dangerous builds not checked
Setting up Verlet run ...
  Unit style    : metal
  Current step  : 80000
  Time step     : 0.001
Per MPI rank memory allocation (min/avg/max) = 18.2 | 18.2 | 18.2 Mbytes
Step Temp Press TotEng PotEng Enthalpy 
   80000    2058.0806    286.91692   -53100.486   -58328.198   -53024.767 
   80495    2004.6281   -616.28569   -53231.978   -58323.916   -53394.781 
Loop time of 60.1213 on 1 procs for 495 steps with 19652 atoms

Performance: 0.711 ns/day, 33.738 hours/ns, 8.233 timesteps/s
99.8% CPU use with 1 MPI tasks x no OpenMP threads

MPI task timing breakdown:
Section |  min time  |  avg time  |  max time  |%varavg| %total
---------------------------------------------------------------
Pair    | 30.858     | 30.858     | 30.858     |   0.0 | 51.33
Neigh   | 27.994     | 27.994     | 27.994     |   0.0 | 46.56
Comm    | 0.46235    | 0.46235    | 0.46235    |   0.0 |  0.77
Output  | 0.00016594 | 0.00016594 | 0.00016594 |   0.0 |  0.00
Modify  | 0.64118    | 0.64118    | 0.64118    |   0.0 |  1.07
Other   |            | 0.1658     |            |       |  0.28

Nlocal:    19652 ave 19652 max 19652 min
Histogram: 1 0 0 0 0 0 0 0 0 0
Nghost:    16619 ave 16619 max 16619 min
Histogram: 1 0 0 0 0 0 0 0 0 0
Neighs:    1.16438e+06 ave 1.16438e+06 max 1.16438e+06 min
Histogram: 1 0 0 0 0 0 0 0 0 0

Total # of neighbors = 1164384
Ave neighs/atom = 59.2502
Neighbor list builds = 495
Dangerous builds not checked
Setting up Verlet run ...
  Unit style    : metal
  Current step  : 80495
  Time step     : 0.001
Per MPI rank memory allocation (min/avg/max) = 18.2 | 18.2 | 18.2 Mbytes
Step Temp Press TotEng PotEng Enthalpy 
   80495    2004.6281   -616.28569   -53231.978   -58323.916   -53394.781 
   85000    1996.9493   -460.36436   -53396.755   -58469.188   -53517.739 
Loop time of 602.56 on 1 procs for 4505 steps with 19652 atoms

Performance: 0.646 ns/day, 37.154 hours/ns, 7.476 timesteps/s
99.9% CPU use with 1 MPI tasks x no OpenMP threads

MPI task timing breakdown:
Section |  min time  |  avg time  |  max time  |%varavg| %total
---------------------------------------------------------------
Pair    | 312.37     | 312.37     | 312.37     |   0.0 | 51.84
Neigh   | 277.72     | 277.72     | 277.72     |   0.0 | 46.09
Comm    | 4.563      | 4.563      | 4.563      |   0.0 |  0.76
Output  | 0.061158   | 0.061158   | 0.061158   |   0.0 |  0.01
Modify  | 6.2341     | 6.2341     | 6.2341     |   0.0 |  1.03
Other   |            | 1.615      |            |       |  0.27

Nlocal:    19652 ave 19652 max 19652 min
Histogram: 1 0 0 0 0 0 0 0 0 0
Nghost:    16657 ave 16657 max 16657 min
Histogram: 1 0 0 0 0 0 0 0 0 0
Neighs:    1.17121e+06 ave 1.17121e+06 max 1.17121e+06 min
Histogram: 1 0 0 0 0 0 0 0 0 0

Total # of neighbors = 1171207
Ave neighs/atom = 59.5973
Neighbor list builds = 4505
Dangerous builds not checked
Setting up Verlet run ...
  Unit style    : metal
  Current step  : 85000
  Time step     : 0.001
Per MPI rank memory allocation (min/avg/max) = 18.2 | 18.2 | 18.2 Mbytes
Step Temp Press TotEng PotEng Enthalpy 
   85000    1996.9493   -460.36436   -53396.755   -58469.188   -53517.739 
   85495    1951.5385     960.0965   -53568.336   -58525.422   -53317.216 
Loop time of 62.4396 on 1 procs for 495 steps with 19652 atoms

Performance: 0.685 ns/day, 35.039 hours/ns, 7.928 timesteps/s
99.9% CPU use with 1 MPI tasks x no OpenMP threads

MPI task timing breakdown:
Section |  min time  |  avg time  |  max time  |%varavg| %total
---------------------------------------------------------------
Pair    | 32.136     | 32.136     | 32.136     |   0.0 | 51.47
Neigh   | 28.984     | 28.984     | 28.984     |   0.0 | 46.42
Comm    | 0.47794    | 0.47794    | 0.47794    |   0.0 |  0.77
Output  | 0.000144   | 0.000144   | 0.000144   |   0.0 |  0.00
Modify  | 0.66914    | 0.66914    | 0.66914    |   0.0 |  1.07
Other   |            | 0.1726     |            |       |  0.28

Nlocal:    19652 ave 19652 max 19652 min
Histogram: 1 0 0 0 0 0 0 0 0 0
Nghost:    16545 ave 16545 max 16545 min
Histogram: 1 0 0 0 0 0 0 0 0 0
Neighs:    1.17647e+06 ave 1.17647e+06 max 1.17647e+06 min
Histogram: 1 0 0 0 0 0 0 0 0 0

Total # of neighbors = 1176469
Ave neighs/atom = 59.8651
Neighbor list builds = 495
Dangerous builds not checked
Setting up Verlet run ...
  Unit style    : metal
  Current step  : 85495
  Time step     : 0.001
Per MPI rank memory allocation (min/avg/max) = 18.2 | 18.2 | 18.2 Mbytes
Step Temp Press TotEng PotEng Enthalpy 
   85495    1951.5385     960.0965   -53568.336   -58525.422   -53317.216 
   90000    1948.6949     264.7392   -53605.809   -58555.672   -53536.607 
Loop time of 594.305 on 1 procs for 4505 steps with 19652 atoms

Performance: 0.655 ns/day, 36.645 hours/ns, 7.580 timesteps/s
99.9% CPU use with 1 MPI tasks x no OpenMP threads

MPI task timing breakdown:
Section |  min time  |  avg time  |  max time  |%varavg| %total
---------------------------------------------------------------
Pair    | 308.37     | 308.37     | 308.37     |   0.0 | 51.89
Neigh   | 273.65     | 273.65     | 273.65     |   0.0 | 46.04
Comm    | 4.4959     | 4.4959     | 4.4959     |   0.0 |  0.76
Output  | 0.064317   | 0.064317   | 0.064317   |   0.0 |  0.01
Modify  | 6.1307     | 6.1307     | 6.1307     |   0.0 |  1.03
Other   |            | 1.596      |            |       |  0.27

Nlocal:    19652 ave 19652 max 19652 min
Histogram: 1 0 0 0 0 0 0 0 0 0
Nghost:    16649 ave 16649 max 16649 min
Histogram: 1 0 0 0 0 0 0 0 0 0
Neighs:    1.17706e+06 ave 1.17706e+06 max 1.17706e+06 min
Histogram: 1 0 0 0 0 0 0 0 0 0

Total # of neighbors = 1177057
Ave neighs/atom = 59.895
Neighbor list builds = 4505
Dangerous builds not checked
Setting up Verlet run ...
  Unit style    : metal
  Current step  : 90000
  Time step     : 0.001
Per MPI rank memory allocation (min/avg/max) = 18.2 | 18.2 | 18.2 Mbytes
Step Temp Press TotEng PotEng Enthalpy 
   90000    1948.6949     264.7392   -53605.809   -58555.672   -53536.607 
   90495    1914.0552    174.09751   -53810.719   -58672.593   -53765.362 
Loop time of 63.6561 on 1 procs for 495 steps with 19652 atoms

Performance: 0.672 ns/day, 35.722 hours/ns, 7.776 timesteps/s
99.9% CPU use with 1 MPI tasks x no OpenMP threads

MPI task timing breakdown:
Section |  min time  |  avg time  |  max time  |%varavg| %total
---------------------------------------------------------------
Pair    | 33.038     | 33.038     | 33.038     |   0.0 | 51.90
Neigh   | 29.311     | 29.311     | 29.311     |   0.0 | 46.05
Comm    | 0.47241    | 0.47241    | 0.47241    |   0.0 |  0.74
Output  | 0.00018096 | 0.00018096 | 0.00018096 |   0.0 |  0.00
Modify  | 0.6638     | 0.6638     | 0.6638     |   0.0 |  1.04
Other   |            | 0.1712     |            |       |  0.27

Nlocal:    19652 ave 19652 max 19652 min
Histogram: 1 0 0 0 0 0 0 0 0 0
Nghost:    16735 ave 16735 max 16735 min
Histogram: 1 0 0 0 0 0 0 0 0 0
Neighs:    1.18116e+06 ave 1.18116e+06 max 1.18116e+06 min
Histogram: 1 0 0 0 0 0 0 0 0 0

Total # of neighbors = 1181155
Ave neighs/atom = 60.1036
Neighbor list builds = 495
Dangerous builds not checked
Setting up Verlet run ...
  Unit style    : metal
  Current step  : 90495
  Time step     : 0.001
Per MPI rank memory allocation (min/avg/max) = 18.2 | 18.2 | 18.2 Mbytes
Step Temp Press TotEng PotEng Enthalpy 
   90495    1914.0552    174.09751   -53810.719   -58672.593   -53765.362 
   95000    1914.2443    84.651832   -53876.358   -58738.713   -53854.358 
Loop time of 596.229 on 1 procs for 4505 steps with 19652 atoms

Performance: 0.653 ns/day, 36.763 hours/ns, 7.556 timesteps/s
99.8% CPU use with 1 MPI tasks x no OpenMP threads

MPI task timing breakdown:
Section |  min time  |  avg time  |  max time  |%varavg| %total
---------------------------------------------------------------
Pair    | 310.69     | 310.69     | 310.69     |   0.0 | 52.11
Neigh   | 273.28     | 273.28     | 273.28     |   0.0 | 45.83
Comm    | 4.5009     | 4.5009     | 4.5009     |   0.0 |  0.75
Output  | 0.051501   | 0.051501   | 0.051501   |   0.0 |  0.01
Modify  | 6.119      | 6.119      | 6.119      |   0.0 |  1.03
Other   |            | 1.59       |            |       |  0.27

Nlocal:    19652 ave 19652 max 19652 min
Histogram: 1 0 0 0 0 0 0 0 0 0
Nghost:    16634 ave 16634 max 16634 min
Histogram: 1 0 0 0 0 0 0 0 0 0
Neighs:    1.18425e+06 ave 1.18425e+06 max 1.18425e+06 min
Histogram: 1 0 0 0 0 0 0 0 0 0

Total # of neighbors = 1184246
Ave neighs/atom = 60.2608
Neighbor list builds = 4505
Dangerous builds not checked
Setting up Verlet run ...
  Unit style    : metal
  Current step  : 95000
  Time step     : 0.001
Per MPI rank memory allocation (min/avg/max) = 18.2 | 18.2 | 18.2 Mbytes
Step Temp Press TotEng PotEng Enthalpy 
   95000    1914.2443    84.651832   -53876.358   -58738.713   -53854.358 
   95495    1876.1384    187.30016   -54076.837     -58842.4   -54028.302 
Loop time of 63.2171 on 1 procs for 495 steps with 19652 atoms

Performance: 0.677 ns/day, 35.475 hours/ns, 7.830 timesteps/s
99.9% CPU use with 1 MPI tasks x no OpenMP threads

MPI task timing breakdown:
Section |  min time  |  avg time  |  max time  |%varavg| %total
---------------------------------------------------------------
Pair    | 32.801     | 32.801     | 32.801     |   0.0 | 51.89
Neigh   | 29.11      | 29.11      | 29.11      |   0.0 | 46.05
Comm    | 0.47531    | 0.47531    | 0.47531    |   0.0 |  0.75
Output  | 0.00018692 | 0.00018692 | 0.00018692 |   0.0 |  0.00
Modify  | 0.65851    | 0.65851    | 0.65851    |   0.0 |  1.04
Other   |            | 0.1719     |            |       |  0.27

Nlocal:    19652 ave 19652 max 19652 min
Histogram: 1 0 0 0 0 0 0 0 0 0
Nghost:    16747 ave 16747 max 16747 min
Histogram: 1 0 0 0 0 0 0 0 0 0
Neighs:    1.1876e+06 ave 1.1876e+06 max 1.1876e+06 min
Histogram: 1 0 0 0 0 0 0 0 0 0

Total # of neighbors = 1187600
Ave neighs/atom = 60.4315
Neighbor list builds = 495
Dangerous builds not checked
Setting up Verlet run ...
  Unit style    : metal
  Current step  : 95495
  Time step     : 0.001
Per MPI rank memory allocation (min/avg/max) = 18.2 | 18.2 | 18.2 Mbytes
Step Temp Press TotEng PotEng Enthalpy 
   95495    1876.1384    187.30016   -54076.837     -58842.4   -54028.302 
  100000    1867.6464    521.05732   -54170.683   -58914.675   -54036.203 
Loop time of 579.678 on 1 procs for 4505 steps with 19652 atoms

Performance: 0.671 ns/day, 35.743 hours/ns, 7.772 timesteps/s
99.9% CPU use with 1 MPI tasks x no OpenMP threads

MPI task timing breakdown:
Section |  min time  |  avg time  |  max time  |%varavg| %total
---------------------------------------------------------------
Pair    | 301.44     | 301.44     | 301.44     |   0.0 | 52.00
Neigh   | 266.32     | 266.32     | 266.32     |   0.0 | 45.94
Comm    | 4.3729     | 4.3729     | 4.3729     |   0.0 |  0.75
Output  | 0.051809   | 0.051809   | 0.051809   |   0.0 |  0.01
Modify  | 5.9433     | 5.9433     | 5.9433     |   0.0 |  1.03
Other   |            | 1.546      |            |       |  0.27

Nlocal:    19652 ave 19652 max 19652 min
Histogram: 1 0 0 0 0 0 0 0 0 0
Nghost:    16784 ave 16784 max 16784 min
Histogram: 1 0 0 0 0 0 0 0 0 0
Neighs:    1.19262e+06 ave 1.19262e+06 max 1.19262e+06 min
Histogram: 1 0 0 0 0 0 0 0 0 0

Total # of neighbors = 1192616
Ave neighs/atom = 60.6867
Neighbor list builds = 4505
Dangerous builds not checked
Setting up Verlet run ...
  Unit style    : metal
  Current step  : 100000
  Time step     : 0.001
Per MPI rank memory allocation (min/avg/max) = 18.2 | 18.2 | 18.2 Mbytes
Step Temp Press TotEng PotEng Enthalpy 
  100000    1867.6464    521.05732   -54170.683   -58914.675   -54036.203 
  100495    1817.1641    556.97429   -54360.014   -58975.776    -54216.65 
Loop time of 61.3767 on 1 procs for 495 steps with 19652 atoms

Performance: 0.697 ns/day, 34.443 hours/ns, 8.065 timesteps/s
100.0% CPU use with 1 MPI tasks x no OpenMP threads

MPI task timing breakdown:
Section |  min time  |  avg time  |  max time  |%varavg| %total
---------------------------------------------------------------
Pair    | 31.759     | 31.759     | 31.759     |   0.0 | 51.74
Neigh   | 28.353     | 28.353     | 28.353     |   0.0 | 46.20
Comm    | 0.46221    | 0.46221    | 0.46221    |   0.0 |  0.75
Output  | 0.00018716 | 0.00018716 | 0.00018716 |   0.0 |  0.00
Modify  | 0.63642    | 0.63642    | 0.63642    |   0.0 |  1.04
Other   |            | 0.166      |            |       |  0.27

Nlocal:    19652 ave 19652 max 19652 min
Histogram: 1 0 0 0 0 0 0 0 0 0
Nghost:    16717 ave 16717 max 16717 min
Histogram: 1 0 0 0 0 0 0 0 0 0
Neighs:    1.19608e+06 ave 1.19608e+06 max 1.19608e+06 min
Histogram: 1 0 0 0 0 0 0 0 0 0

Total # of neighbors = 1196080
Ave neighs/atom = 60.863
Neighbor list builds = 495
Dangerous builds not checked
Setting up Verlet run ...
  Unit style    : metal
  Current step  : 100495
  Time step     : 0.001
Per MPI rank memory allocation (min/avg/max) = 18.2 | 18.2 | 18.2 Mbytes
Step Temp Press TotEng PotEng Enthalpy 
  100495    1817.1641    556.97429   -54360.014   -58975.776    -54216.65 
  105000    1809.6293   -754.28617   -54357.818   -58954.441   -54552.507 
Loop time of 573.33 on 1 procs for 4505 steps with 19652 atoms

Performance: 0.679 ns/day, 35.351 hours/ns, 7.858 timesteps/s
99.9% CPU use with 1 MPI tasks x no OpenMP threads

MPI task timing breakdown:
Section |  min time  |  avg time  |  max time  |%varavg| %total
---------------------------------------------------------------
Pair    | 297.82     | 297.82     | 297.82     |   0.0 | 51.95
Neigh   | 263.69     | 263.69     | 263.69     |   0.0 | 45.99
Comm    | 4.3376     | 4.3376     | 4.3376     |   0.0 |  0.76
Output  | 0.070628   | 0.070628   | 0.070628   |   0.0 |  0.01
Modify  | 5.8807     | 5.8807     | 5.8807     |   0.0 |  1.03
Other   |            | 1.534      |            |       |  0.27

Nlocal:    19652 ave 19652 max 19652 min
Histogram: 1 0 0 0 0 0 0 0 0 0
Nghost:    16730 ave 16730 max 16730 min
Histogram: 1 0 0 0 0 0 0 0 0 0
Neighs:    1.19175e+06 ave 1.19175e+06 max 1.19175e+06 min
Histogram: 1 0 0 0 0 0 0 0 0 0

Total # of neighbors = 1191754
Ave neighs/atom = 60.6429
Neighbor list builds = 4505
Dangerous builds not checked
Setting up Verlet run ...
  Unit style    : metal
  Current step  : 105000
  Time step     : 0.001
Per MPI rank memory allocation (min/avg/max) = 18.2 | 18.2 | 18.2 Mbytes
Step Temp Press TotEng PotEng Enthalpy 
  105000    1809.6293   -754.28617   -54357.818   -58954.441   -54552.507 
  105495    1760.8086    436.97957   -54655.784   -59128.399   -54543.925 
Loop time of 62.0071 on 1 procs for 495 steps with 19652 atoms

Performance: 0.690 ns/day, 34.796 hours/ns, 7.983 timesteps/s
99.6% CPU use with 1 MPI tasks x no OpenMP threads

MPI task timing breakdown:
Section |  min time  |  avg time  |  max time  |%varavg| %total
---------------------------------------------------------------
Pair    | 32.404     | 32.404     | 32.404     |   0.0 | 52.26
Neigh   | 28.342     | 28.342     | 28.342     |   0.0 | 45.71
Comm    | 0.46323    | 0.46323    | 0.46323    |   0.0 |  0.75
Output  | 0.00020099 | 0.00020099 | 0.00020099 |   0.0 |  0.00
Modify  | 0.63186    | 0.63186    | 0.63186    |   0.0 |  1.02
Other   |            | 0.1653     |            |       |  0.27

Nlocal:    19652 ave 19652 max 19652 min
Histogram: 1 0 0 0 0 0 0 0 0 0
Nghost:    16826 ave 16826 max 16826 min
Histogram: 1 0 0 0 0 0 0 0 0 0
Neighs:    1.20149e+06 ave 1.20149e+06 max 1.20149e+06 min
Histogram: 1 0 0 0 0 0 0 0 0 0

Total # of neighbors = 1201488
Ave neighs/atom = 61.1382
Neighbor list builds = 495
Dangerous builds not checked
Setting up Verlet run ...
  Unit style    : metal
  Current step  : 105495
  Time step     : 0.001
Per MPI rank memory allocation (min/avg/max) = 18.2 | 18.2 | 18.2 Mbytes
Step Temp Press TotEng PotEng Enthalpy 
  105495    1760.8086    436.97957   -54655.784   -59128.399   -54543.925 
  110000    1758.5682    112.65869   -54764.332   -59231.256   -54735.581 
Loop time of 582.467 on 1 procs for 4505 steps with 19652 atoms

Performance: 0.668 ns/day, 35.915 hours/ns, 7.734 timesteps/s
99.8% CPU use with 1 MPI tasks x no OpenMP threads

MPI task timing breakdown:
Section |  min time  |  avg time  |  max time  |%varavg| %total
---------------------------------------------------------------
Pair    | 304.45     | 304.45     | 304.45     |   0.0 | 52.27
Neigh   | 266.08     | 266.08     | 266.08     |   0.0 | 45.68
Comm    | 4.3948     | 4.3948     | 4.3948     |   0.0 |  0.75
Output  | 0.049616   | 0.049616   | 0.049616   |   0.0 |  0.01
Modify  | 5.9402     | 5.9402     | 5.9402     |   0.0 |  1.02
Other   |            | 1.551      |            |       |  0.27

Nlocal:    19652 ave 19652 max 19652 min
Histogram: 1 0 0 0 0 0 0 0 0 0
Nghost:    16806 ave 16806 max 16806 min
Histogram: 1 0 0 0 0 0 0 0 0 0
Neighs:    1.20622e+06 ave 1.20622e+06 max 1.20622e+06 min
Histogram: 1 0 0 0 0 0 0 0 0 0

Total # of neighbors = 1206223
Ave neighs/atom = 61.3791
Neighbor list builds = 4505
Dangerous builds not checked
Setting up Verlet run ...
  Unit style    : metal
  Current step  : 110000
  Time step     : 0.001
Per MPI rank memory allocation (min/avg/max) = 18.2 | 18.2 | 18.2 Mbytes
Step Temp Press TotEng PotEng Enthalpy 
  110000    1758.5682    112.65869   -54764.332   -59231.256   -54735.581 
  110495    1715.5762   -564.46512   -54901.613   -59259.332   -55045.636 
Loop time of 61.6742 on 1 procs for 495 steps with 19652 atoms

Performance: 0.693 ns/day, 34.610 hours/ns, 8.026 timesteps/s
99.7% CPU use with 1 MPI tasks x no OpenMP threads

MPI task timing breakdown:
Section |  min time  |  avg time  |  max time  |%varavg| %total
---------------------------------------------------------------
Pair    | 32.075     | 32.075     | 32.075     |   0.0 | 52.01
Neigh   | 28.343     | 28.343     | 28.343     |   0.0 | 45.96
Comm    | 0.45969    | 0.45969    | 0.45969    |   0.0 |  0.75
Output  | 0.00018907 | 0.00018907 | 0.00018907 |   0.0 |  0.00
Modify  | 0.63013    | 0.63013    | 0.63013    |   0.0 |  1.02
Other   |            | 0.1654     |            |       |  0.27

Nlocal:    19652 ave 19652 max 19652 min
Histogram: 1 0 0 0 0 0 0 0 0 0
Nghost:    16880 ave 16880 max 16880 min
Histogram: 1 0 0 0 0 0 0 0 0 0
Neighs:    1.2072e+06 ave 1.2072e+06 max 1.2072e+06 min
Histogram: 1 0 0 0 0 0 0 0 0 0

Total # of neighbors = 1207204
Ave neighs/atom = 61.4291
Neighbor list builds = 495
Dangerous builds not checked
Setting up Verlet run ...
  Unit style    : metal
  Current step  : 110495
  Time step     : 0.001
Per MPI rank memory allocation (min/avg/max) = 18.2 | 18.2 | 18.2 Mbytes
Step Temp Press TotEng PotEng Enthalpy 
  110495    1715.5762   -564.46512   -54901.613   -59259.332   -55045.636 
  115000    1703.5508    72.414338   -54946.432   -59273.606   -54927.967 
Loop time of 587.566 on 1 procs for 4505 steps with 19652 atoms

Performance: 0.662 ns/day, 36.229 hours/ns, 7.667 timesteps/s
99.9% CPU use with 1 MPI tasks x no OpenMP threads

MPI task timing breakdown:
Section |  min time  |  avg time  |  max time  |%varavg| %total
---------------------------------------------------------------
Pair    | 306.87     | 306.87     | 306.87     |   0.0 | 52.23
Neigh   | 268.67     | 268.67     | 268.67     |   0.0 | 45.73
Comm    | 4.414      | 4.414      | 4.414      |   0.0 |  0.75
Output  | 0.051866   | 0.051866   | 0.051866   |   0.0 |  0.01
Modify  | 5.9978     | 5.9978     | 5.9978     |   0.0 |  1.02
Other   |            | 1.564      |            |       |  0.27

Nlocal:    19652 ave 19652 max 19652 min
Histogram: 1 0 0 0 0 0 0 0 0 0
Nghost:    16810 ave 16810 max 16810 min
Histogram: 1 0 0 0 0 0 0 0 0 0
Neighs:    1.20747e+06 ave 1.20747e+06 max 1.20747e+06 min
Histogram: 1 0 0 0 0 0 0 0 0 0

Total # of neighbors = 1207472
Ave neighs/atom = 61.4427
Neighbor list builds = 4505
Dangerous builds not checked
Setting up Verlet run ...
  Unit style    : metal
  Current step  : 115000
  Time step     : 0.001
Per MPI rank memory allocation (min/avg/max) = 18.2 | 18.2 | 18.2 Mbytes
Step Temp Press TotEng PotEng Enthalpy 
  115000    1703.5508    72.414338   -54946.432   -59273.606   -54927.967 
  115495    1664.0499     890.1367   -55214.946   -59441.784    -54989.81 
Loop time of 67.3529 on 1 procs for 495 steps with 19652 atoms

Performance: 0.635 ns/day, 37.796 hours/ns, 7.349 timesteps/s
99.9% CPU use with 1 MPI tasks x no OpenMP threads

MPI task timing breakdown:
Section |  min time  |  avg time  |  max time  |%varavg| %total
---------------------------------------------------------------
Pair    | 35.364     | 35.364     | 35.364     |   0.0 | 52.51
Neigh   | 30.592     | 30.592     | 30.592     |   0.0 | 45.42
Comm    | 0.50515    | 0.50515    | 0.50515    |   0.0 |  0.75
Output  | 0.00017691 | 0.00017691 | 0.00017691 |   0.0 |  0.00
Modify  | 0.70972    | 0.70972    | 0.70972    |   0.0 |  1.05
Other   |            | 0.182      |            |       |  0.27

Nlocal:    19652 ave 19652 max 19652 min
Histogram: 1 0 0 0 0 0 0 0 0 0
Nghost:    16917 ave 16917 max 16917 min
Histogram: 1 0 0 0 0 0 0 0 0 0
Neighs:    1.21709e+06 ave 1.21709e+06 max 1.21709e+06 min
Histogram: 1 0 0 0 0 0 0 0 0 0

Total # of neighbors = 1217094
Ave neighs/atom = 61.9323
Neighbor list builds = 495
Dangerous builds not checked
Setting up Verlet run ...
  Unit style    : metal
  Current step  : 115495
  Time step     : 0.001
Per MPI rank memory allocation (min/avg/max) = 18.2 | 18.2 | 18.2 Mbytes
Step Temp Press TotEng PotEng Enthalpy 
  115495    1664.0499     890.1367   -55214.946   -59441.784    -54989.81 
  120000    1662.0873    14.905853   -55283.918   -59505.771   -55280.149 
Loop time of 649.881 on 1 procs for 4505 steps with 19652 atoms

Performance: 0.599 ns/day, 40.072 hours/ns, 6.932 timesteps/s
99.4% CPU use with 1 MPI tasks x no OpenMP threads

MPI task timing breakdown:
Section |  min time  |  avg time  |  max time  |%varavg| %total
---------------------------------------------------------------
Pair    | 347.38     | 347.38     | 347.38     |   0.0 | 53.45
Neigh   | 286.32     | 286.32     | 286.32     |   0.0 | 44.06
Comm    | 4.8949     | 4.8949     | 4.8949     |   0.0 |  0.75
Output  | 3.1381     | 3.1381     | 3.1381     |   0.0 |  0.48
Modify  | 6.4353     | 6.4353     | 6.4353     |   0.0 |  0.99
Other   |            | 1.718      |            |       |  0.26

Nlocal:    19652 ave 19652 max 19652 min
Histogram: 1 0 0 0 0 0 0 0 0 0
Nghost:    16875 ave 16875 max 16875 min
Histogram: 1 0 0 0 0 0 0 0 0 0
Neighs:    1.218e+06 ave 1.218e+06 max 1.218e+06 min
Histogram: 1 0 0 0 0 0 0 0 0 0

Total # of neighbors = 1218002
Ave neighs/atom = 61.9785
Neighbor list builds = 4505
Dangerous builds not checked
Setting up Verlet run ...
  Unit style    : metal
  Current step  : 120000
  Time step     : 0.001
Per MPI rank memory allocation (min/avg/max) = 18.2 | 18.2 | 18.2 Mbytes
Step Temp Press TotEng PotEng Enthalpy 
  120000    1662.0873    14.905853   -55283.918   -59505.771   -55280.149 
  120495    1626.3023    6.2694272   -55500.997   -59631.952   -55499.419 
Loop time of 59.0388 on 1 procs for 495 steps with 19652 atoms

Performance: 0.724 ns/day, 33.131 hours/ns, 8.384 timesteps/s
100.0% CPU use with 1 MPI tasks x no OpenMP threads

MPI task timing breakdown:
Section |  min time  |  avg time  |  max time  |%varavg| %total
---------------------------------------------------------------
Pair    | 30.761     | 30.761     | 30.761     |   0.0 | 52.10
Neigh   | 27.056     | 27.056     | 27.056     |   0.0 | 45.83
Comm    | 0.4469     | 0.4469     | 0.4469     |   0.0 |  0.76
Output  | 0.00022602 | 0.00022602 | 0.00022602 |   0.0 |  0.00
Modify  | 0.61315    | 0.61315    | 0.61315    |   0.0 |  1.04
Other   |            | 0.162      |            |       |  0.27

Nlocal:    19652 ave 19652 max 19652 min
Histogram: 1 0 0 0 0 0 0 0 0 0
Nghost:    16903 ave 16903 max 16903 min
Histogram: 1 0 0 0 0 0 0 0 0 0
Neighs:    1.22394e+06 ave 1.22394e+06 max 1.22394e+06 min
Histogram: 1 0 0 0 0 0 0 0 0 0

Total # of neighbors = 1223940
Ave neighs/atom = 62.2807
Neighbor list builds = 495
Dangerous builds not checked
Setting up Verlet run ...
  Unit style    : metal
  Current step  : 120495
  Time step     : 0.001
Per MPI rank memory allocation (min/avg/max) = 18.2 | 18.2 | 18.2 Mbytes
Step Temp Press TotEng PotEng Enthalpy 
  120495    1626.3023    6.2694272   -55500.997   -59631.952   -55499.419 
  125000    1588.6063    741.00506   -55575.808   -59611.013   -55389.604 
Loop time of 577.577 on 1 procs for 4505 steps with 19652 atoms

Performance: 0.674 ns/day, 35.613 hours/ns, 7.800 timesteps/s
99.9% CPU use with 1 MPI tasks x no OpenMP threads

MPI task timing breakdown:
Section |  min time  |  avg time  |  max time  |%varavg| %total
---------------------------------------------------------------
Pair    | 305.07     | 305.07     | 305.07     |   0.0 | 52.82
Neigh   | 260.74     | 260.74     | 260.74     |   0.0 | 45.14
Comm    | 4.353      | 4.353      | 4.353      |   0.0 |  0.75
Output  | 0.053913   | 0.053913   | 0.053913   |   0.0 |  0.01
Modify  | 5.8204     | 5.8204     | 5.8204     |   0.0 |  1.01
Other   |            | 1.54       |            |       |  0.27

Nlocal:    19652 ave 19652 max 19652 min
Histogram: 1 0 0 0 0 0 0 0 0 0
Nghost:    16917 ave 16917 max 16917 min
Histogram: 1 0 0 0 0 0 0 0 0 0
Neighs:    1.22558e+06 ave 1.22558e+06 max 1.22558e+06 min
Histogram: 1 0 0 0 0 0 0 0 0 0

Total # of neighbors = 1225578
Ave neighs/atom = 62.364
Neighbor list builds = 4505
Dangerous builds not checked
Setting up Verlet run ...
  Unit style    : metal
  Current step  : 125000
  Time step     : 0.001
Per MPI rank memory allocation (min/avg/max) = 18.2 | 18.2 | 18.2 Mbytes
Step Temp Press TotEng PotEng Enthalpy 
  125000    1588.6063    741.00506   -55575.808   -59611.013   -55389.604 
  125495    1560.4098    699.23771   -55758.364   -59721.947   -55583.242 
Loop time of 68.6487 on 1 procs for 495 steps with 19652 atoms

Performance: 0.623 ns/day, 38.523 hours/ns, 7.211 timesteps/s
99.8% CPU use with 1 MPI tasks x no OpenMP threads

MPI task timing breakdown:
Section |  min time  |  avg time  |  max time  |%varavg| %total
---------------------------------------------------------------
Pair    | 36.48      | 36.48      | 36.48      |   0.0 | 53.14
Neigh   | 30.727     | 30.727     | 30.727     |   0.0 | 44.76
Comm    | 0.5232     | 0.5232     | 0.5232     |   0.0 |  0.76
Output  | 0.00017691 | 0.00017691 | 0.00017691 |   0.0 |  0.00
Modify  | 0.7265     | 0.7265     | 0.7265     |   0.0 |  1.06
Other   |            | 0.1919     |            |       |  0.28

Nlocal:    19652 ave 19652 max 19652 min
Histogram: 1 0 0 0 0 0 0 0 0 0
Nghost:    16944 ave 16944 max 16944 min
Histogram: 1 0 0 0 0 0 0 0 0 0
Neighs:    1.22919e+06 ave 1.22919e+06 max 1.22919e+06 min
Histogram: 1 0 0 0 0 0 0 0 0 0

Total # of neighbors = 1229188
Ave neighs/atom = 62.5477
Neighbor list builds = 495
Dangerous builds not checked
Setting up Verlet run ...
  Unit style    : metal
  Current step  : 125495
  Time step     : 0.001
Per MPI rank memory allocation (min/avg/max) = 18.2 | 18.2 | 18.2 Mbytes
Step Temp Press TotEng PotEng Enthalpy 
  125495    1560.4098    699.23771   -55758.364   -59721.947   -55583.242 
  130000     1565.185    19.996598   -55824.991   -59800.704   -55819.989 
Loop time of 603.638 on 1 procs for 4505 steps with 19652 atoms

Performance: 0.645 ns/day, 37.220 hours/ns, 7.463 timesteps/s
99.9% CPU use with 1 MPI tasks x no OpenMP threads

MPI task timing breakdown:
Section |  min time  |  avg time  |  max time  |%varavg| %total
---------------------------------------------------------------
Pair    | 319.97     | 319.97     | 319.97     |   0.0 | 53.01
Neigh   | 271.18     | 271.18     | 271.18     |   0.0 | 44.92
Comm    | 4.6119     | 4.6119     | 4.6119     |   0.0 |  0.76
Output  | 0.052477   | 0.052477   | 0.052477   |   0.0 |  0.01
Modify  | 6.1811     | 6.1811     | 6.1811     |   0.0 |  1.02
Other   |            | 1.651      |            |       |  0.27

Nlocal:    19652 ave 19652 max 19652 min
Histogram: 1 0 0 0 0 0 0 0 0 0
Nghost:    17047 ave 17047 max 17047 min
Histogram: 1 0 0 0 0 0 0 0 0 0
Neighs:    1.23118e+06 ave 1.23118e+06 max 1.23118e+06 min
Histogram: 1 0 0 0 0 0 0 0 0 0

Total # of neighbors = 1231176
Ave neighs/atom = 62.6489
Neighbor list builds = 4505
Dangerous builds not checked
Setting up Verlet run ...
  Unit style    : metal
  Current step  : 130000
  Time step     : 0.001
Per MPI rank memory allocation (min/avg/max) = 18.2 | 18.2 | 18.2 Mbytes
Step Temp Press TotEng PotEng Enthalpy 
  130000     1565.185    19.996598   -55824.991   -59800.704   -55819.989 
  130495    1518.9276   -14.216021   -56030.692   -59888.906   -56034.239 
Loop time of 62.029 on 1 procs for 495 steps with 19652 atoms

Performance: 0.689 ns/day, 34.809 hours/ns, 7.980 timesteps/s
100.0% CPU use with 1 MPI tasks x no OpenMP threads

MPI task timing breakdown:
Section |  min time  |  avg time  |  max time  |%varavg| %total
---------------------------------------------------------------
Pair    | 32.643     | 32.643     | 32.643     |   0.0 | 52.62
Neigh   | 28.115     | 28.115     | 28.115     |   0.0 | 45.33
Comm    | 0.46689    | 0.46689    | 0.46689    |   0.0 |  0.75
Output  | 0.00014496 | 0.00014496 | 0.00014496 |   0.0 |  0.00
Modify  | 0.63393    | 0.63393    | 0.63393    |   0.0 |  1.02
Other   |            | 0.1698     |            |       |  0.27

Nlocal:    19652 ave 19652 max 19652 min
Histogram: 1 0 0 0 0 0 0 0 0 0
Nghost:    17038 ave 17038 max 17038 min
Histogram: 1 0 0 0 0 0 0 0 0 0
Neighs:    1.23507e+06 ave 1.23507e+06 max 1.23507e+06 min
Histogram: 1 0 0 0 0 0 0 0 0 0

Total # of neighbors = 1235074
Ave neighs/atom = 62.8472
Neighbor list builds = 495
Dangerous builds not checked
Setting up Verlet run ...
  Unit style    : metal
  Current step  : 130495
  Time step     : 0.001
Per MPI rank memory allocation (min/avg/max) = 18.2 | 18.2 | 18.2 Mbytes
Step Temp Press TotEng PotEng Enthalpy 
  130495    1518.9276   -14.216021   -56030.692   -59888.906   -56034.239 
  135000    1499.6357    772.35066   -56156.962   -59966.173    -55965.16 
Loop time of 609.504 on 1 procs for 4505 steps with 19652 atoms

Performance: 0.639 ns/day, 37.582 hours/ns, 7.391 timesteps/s
99.9% CPU use with 1 MPI tasks x no OpenMP threads

MPI task timing breakdown:
Section |  min time  |  avg time  |  max time  |%varavg| %total
---------------------------------------------------------------
Pair    | 324.07     | 324.07     | 324.07     |   0.0 | 53.17
Neigh   | 272.88     | 272.88     | 272.88     |   0.0 | 44.77
Comm    | 4.6217     | 4.6217     | 4.6217     |   0.0 |  0.76
Output  | 0.063005   | 0.063005   | 0.063005   |   0.0 |  0.01
Modify  | 6.2149     | 6.2149     | 6.2149     |   0.0 |  1.02
Other   |            | 1.658      |            |       |  0.27

Nlocal:    19652 ave 19652 max 19652 min
Histogram: 1 0 0 0 0 0 0 0 0 0
Nghost:    17009 ave 17009 max 17009 min
Histogram: 1 0 0 0 0 0 0 0 0 0
Neighs:    1.24036e+06 ave 1.24036e+06 max 1.24036e+06 min
Histogram: 1 0 0 0 0 0 0 0 0 0

Total # of neighbors = 1240363
Ave neighs/atom = 63.1164
Neighbor list builds = 4505
Dangerous builds not checked
Setting up Verlet run ...
  Unit style    : metal
  Current step  : 135000
  Time step     : 0.001
Per MPI rank memory allocation (min/avg/max) = 18.2 | 18.2 | 18.2 Mbytes
Step Temp Press TotEng PotEng Enthalpy 
  135000    1499.6357    772.35066   -56156.962   -59966.173    -55965.16 
  135495     1466.192   -116.57007   -56335.821   -60060.082   -56364.736 
Loop time of 66.2607 on 1 procs for 495 steps with 19652 atoms

Performance: 0.645 ns/day, 37.183 hours/ns, 7.470 timesteps/s
99.9% CPU use with 1 MPI tasks x no OpenMP threads

MPI task timing breakdown:
Section |  min time  |  avg time  |  max time  |%varavg| %total
---------------------------------------------------------------
Pair    | 35.213     | 35.213     | 35.213     |   0.0 | 53.14
Neigh   | 29.672     | 29.672     | 29.672     |   0.0 | 44.78
Comm    | 0.50067    | 0.50067    | 0.50067    |   0.0 |  0.76
Output  | 0.00024509 | 0.00024509 | 0.00024509 |   0.0 |  0.00
Modify  | 0.69062    | 0.69062    | 0.69062    |   0.0 |  1.04
Other   |            | 0.1839     |            |       |  0.28

Nlocal:    19652 ave 19652 max 19652 min
Histogram: 1 0 0 0 0 0 0 0 0 0
Nghost:    17026 ave 17026 max 17026 min
Histogram: 1 0 0 0 0 0 0 0 0 0
Neighs:    1.24197e+06 ave 1.24197e+06 max 1.24197e+06 min
Histogram: 1 0 0 0 0 0 0 0 0 0

Total # of neighbors = 1241973
Ave neighs/atom = 63.1983
Neighbor list builds = 495
Dangerous builds not checked
Setting up Verlet run ...
  Unit style    : metal
  Current step  : 135495
  Time step     : 0.001
Per MPI rank memory allocation (min/avg/max) = 18.2 | 18.2 | 18.2 Mbytes
Step Temp Press TotEng PotEng Enthalpy 
  135495     1466.192   -116.57007   -56335.821   -60060.082   -56364.736 
  140000    1450.7565     492.6259   -56388.397   -60073.451   -56266.419 
Loop time of 612.977 on 1 procs for 4505 steps with 19652 atoms

Performance: 0.635 ns/day, 37.796 hours/ns, 7.349 timesteps/s
99.9% CPU use with 1 MPI tasks x no OpenMP threads

MPI task timing breakdown:
Section |  min time  |  avg time  |  max time  |%varavg| %total
---------------------------------------------------------------
Pair    | 327.4      | 327.4      | 327.4      |   0.0 | 53.41
Neigh   | 272.99     | 272.99     | 272.99     |   0.0 | 44.54
Comm    | 4.6228     | 4.6228     | 4.6228     |   0.0 |  0.75
Output  | 0.066192   | 0.066192   | 0.066192   |   0.0 |  0.01
Modify  | 6.2271     | 6.2271     | 6.2271     |   0.0 |  1.02
Other   |            | 1.663      |            |       |  0.27

Nlocal:    19652 ave 19652 max 19652 min
Histogram: 1 0 0 0 0 0 0 0 0 0
Nghost:    17100 ave 17100 max 17100 min
Histogram: 1 0 0 0 0 0 0 0 0 0
Neighs:    1.2438e+06 ave 1.2438e+06 max 1.2438e+06 min
Histogram: 1 0 0 0 0 0 0 0 0 0

Total # of neighbors = 1243795
Ave neighs/atom = 63.291
Neighbor list builds = 4505
Dangerous builds not checked
Setting up Verlet run ...
  Unit style    : metal
  Current step  : 140000
  Time step     : 0.001
Per MPI rank memory allocation (min/avg/max) = 18.2 | 18.2 | 18.2 Mbytes
Step Temp Press TotEng PotEng Enthalpy 
  140000    1450.7565     492.6259   -56388.397   -60073.451   -56266.419 
  140495    1420.7555    970.70764   -56614.313   -60223.161   -56375.314 
Loop time of 62.5552 on 1 procs for 495 steps with 19652 atoms

Performance: 0.684 ns/day, 35.104 hours/ns, 7.913 timesteps/s
100.0% CPU use with 1 MPI tasks x no OpenMP threads

MPI task timing breakdown:
Section |  min time  |  avg time  |  max time  |%varavg| %total
---------------------------------------------------------------
Pair    | 33.002     | 33.002     | 33.002     |   0.0 | 52.76
Neigh   | 28.247     | 28.247     | 28.247     |   0.0 | 45.16
Comm    | 0.47758    | 0.47758    | 0.47758    |   0.0 |  0.76
Output  | 0.000211   | 0.000211   | 0.000211   |   0.0 |  0.00
Modify  | 0.65345    | 0.65345    | 0.65345    |   0.0 |  1.04
Other   |            | 0.1744     |            |       |  0.28

Nlocal:    19652 ave 19652 max 19652 min
Histogram: 1 0 0 0 0 0 0 0 0 0
Nghost:    17168 ave 17168 max 17168 min
Histogram: 1 0 0 0 0 0 0 0 0 0
Neighs:    1.25101e+06 ave 1.25101e+06 max 1.25101e+06 min
Histogram: 1 0 0 0 0 0 0 0 0 0

Total # of neighbors = 1251009
Ave neighs/atom = 63.6581
Neighbor list builds = 495
Dangerous builds not checked
Setting up Verlet run ...
  Unit style    : metal
  Current step  : 140495
  Time step     : 0.001
Per MPI rank memory allocation (min/avg/max) = 18.2 | 18.2 | 18.2 Mbytes
Step Temp Press TotEng PotEng Enthalpy 
  140495    1420.7555    970.70764   -56614.313   -60223.161   -56375.314 
  145000    1395.6025   -234.55319   -56711.377   -60256.334   -56769.151 
Loop time of 585.474 on 1 procs for 4505 steps with 19652 atoms

Performance: 0.665 ns/day, 36.100 hours/ns, 7.695 timesteps/s
99.9% CPU use with 1 MPI tasks x no OpenMP threads

MPI task timing breakdown:
Section |  min time  |  avg time  |  max time  |%varavg| %total
---------------------------------------------------------------
Pair    | 310.22     | 310.22     | 310.22     |   0.0 | 52.99
Neigh   | 263.25     | 263.25     | 263.25     |   0.0 | 44.96
Comm    | 4.4251     | 4.4251     | 4.4251     |   0.0 |  0.76
Output  | 0.042071   | 0.042071   | 0.042071   |   0.0 |  0.01
Modify  | 5.9687     | 5.9687     | 5.9687     |   0.0 |  1.02
Other   |            | 1.571      |            |       |  0.27

Nlocal:    19652 ave 19652 max 19652 min
Histogram: 1 0 0 0 0 0 0 0 0 0
Nghost:    17076 ave 17076 max 17076 min
Histogram: 1 0 0 0 0 0 0 0 0 0
Neighs:    1.25073e+06 ave 1.25073e+06 max 1.25073e+06 min
Histogram: 1 0 0 0 0 0 0 0 0 0

Total # of neighbors = 1250732
Ave neighs/atom = 63.644
Neighbor list builds = 4505
Dangerous builds not checked
Setting up Verlet run ...
  Unit style    : metal
  Current step  : 145000
  Time step     : 0.001
Per MPI rank memory allocation (min/avg/max) = 18.2 | 18.2 | 18.2 Mbytes
Step Temp Press TotEng PotEng Enthalpy 
  145000    1395.6025   -234.55319   -56711.377   -60256.334   -56769.151 
  145495    1352.9607    130.15848   -56923.159   -60359.803   -56891.248 
Loop time of 65.1282 on 1 procs for 495 steps with 19652 atoms

Performance: 0.657 ns/day, 36.548 hours/ns, 7.600 timesteps/s
99.9% CPU use with 1 MPI tasks x no OpenMP threads

MPI task timing breakdown:
Section |  min time  |  avg time  |  max time  |%varavg| %total
---------------------------------------------------------------
Pair    | 34.536     | 34.536     | 34.536     |   0.0 | 53.03
Neigh   | 29.236     | 29.236     | 29.236     |   0.0 | 44.89
Comm    | 0.49148    | 0.49148    | 0.49148    |   0.0 |  0.75
Output  | 0.00018001 | 0.00018001 | 0.00018001 |   0.0 |  0.00
Modify  | 0.68544    | 0.68544    | 0.68544    |   0.0 |  1.05
Other   |            | 0.1788     |            |       |  0.27

Nlocal:    19652 ave 19652 max 19652 min
Histogram: 1 0 0 0 0 0 0 0 0 0
Nghost:    17066 ave 17066 max 17066 min
Histogram: 1 0 0 0 0 0 0 0 0 0
Neighs:    1.25684e+06 ave 1.25684e+06 max 1.25684e+06 min
Histogram: 1 0 0 0 0 0 0 0 0 0

Total # of neighbors = 1256844
Ave neighs/atom = 63.955
Neighbor list builds = 495
Dangerous builds not checked
Setting up Verlet run ...
  Unit style    : metal
  Current step  : 145495
  Time step     : 0.001
Per MPI rank memory allocation (min/avg/max) = 18.2 | 18.2 | 18.2 Mbytes
Step Temp Press TotEng PotEng Enthalpy 
  145495    1352.9607    130.15848   -56923.159   -60359.803   -56891.248 
  150000    1353.4111    669.71166   -56981.466   -60419.254   -56817.719 
Loop time of 585.851 on 1 procs for 4505 steps with 19652 atoms

Performance: 0.664 ns/day, 36.123 hours/ns, 7.690 timesteps/s
99.8% CPU use with 1 MPI tasks x no OpenMP threads

MPI task timing breakdown:
Section |  min time  |  avg time  |  max time  |%varavg| %total
---------------------------------------------------------------
Pair    | 311.46     | 311.46     | 311.46     |   0.0 | 53.16
Neigh   | 262.46     | 262.46     | 262.46     |   0.0 | 44.80
Comm    | 4.3761     | 4.3761     | 4.3761     |   0.0 |  0.75
Output  | 0.067624   | 0.067624   | 0.067624   |   0.0 |  0.01
Modify  | 5.9286     | 5.9286     | 5.9286     |   0.0 |  1.01
Other   |            | 1.564      |            |       |  0.27

Nlocal:    19652 ave 19652 max 19652 min
Histogram: 1 0 0 0 0 0 0 0 0 0
Nghost:    17247 ave 17247 max 17247 min
Histogram: 1 0 0 0 0 0 0 0 0 0
Neighs:    1.26024e+06 ave 1.26024e+06 max 1.26024e+06 min
Histogram: 1 0 0 0 0 0 0 0 0 0

Total # of neighbors = 1260237
Ave neighs/atom = 64.1277
Neighbor list builds = 4505
Dangerous builds not checked
Setting up Verlet run ...
  Unit style    : metal
  Current step  : 150000
  Time step     : 0.001
Per MPI rank memory allocation (min/avg/max) = 18.2 | 18.2 | 18.2 Mbytes
Step Temp Press TotEng PotEng Enthalpy 
  150000    1353.4111    669.71166   -56981.466   -60419.254   -56817.719 
  150495     1325.618    170.90227   -57171.159   -60538.349   -57129.461 
Loop time of 63.1078 on 1 procs for 495 steps with 19652 atoms

Performance: 0.678 ns/day, 35.414 hours/ns, 7.844 timesteps/s
99.9% CPU use with 1 MPI tasks x no OpenMP threads

MPI task timing breakdown:
Section |  min time  |  avg time  |  max time  |%varavg| %total
---------------------------------------------------------------
Pair    | 33.614     | 33.614     | 33.614     |   0.0 | 53.26
Neigh   | 28.199     | 28.199     | 28.199     |   0.0 | 44.68
Comm    | 0.4733     | 0.4733     | 0.4733     |   0.0 |  0.75
Output  | 0.00018597 | 0.00018597 | 0.00018597 |   0.0 |  0.00
Modify  | 0.6454     | 0.6454     | 0.6454     |   0.0 |  1.02
Other   |            | 0.1758     |            |       |  0.28

Nlocal:    19652 ave 19652 max 19652 min
Histogram: 1 0 0 0 0 0 0 0 0 0
Nghost:    17119 ave 17119 max 17119 min
Histogram: 1 0 0 0 0 0 0 0 0 0
Neighs:    1.26272e+06 ave 1.26272e+06 max 1.26272e+06 min
Histogram: 1 0 0 0 0 0 0 0 0 0

Total # of neighbors = 1262715
Ave neighs/atom = 64.2538
Neighbor list builds = 495
Dangerous builds not checked
Setting up Verlet run ...
  Unit style    : metal
  Current step  : 150495
  Time step     : 0.001
Per MPI rank memory allocation (min/avg/max) = 18.2 | 18.2 | 18.2 Mbytes
Step Temp Press TotEng PotEng Enthalpy 
  150495     1325.618    170.90227   -57171.159   -60538.349   -57129.461 
  155000    1312.0774   -679.36492   -57242.789   -60575.585   -57408.497 
Loop time of 585.71 on 1 procs for 4505 steps with 19652 atoms

Performance: 0.665 ns/day, 36.115 hours/ns, 7.692 timesteps/s
99.9% CPU use with 1 MPI tasks x no OpenMP threads

MPI task timing breakdown:
Section |  min time  |  avg time  |  max time  |%varavg| %total
---------------------------------------------------------------
Pair    | 310.82     | 310.82     | 310.82     |   0.0 | 53.07
Neigh   | 262.86     | 262.86     | 262.86     |   0.0 | 44.88
Comm    | 4.3886     | 4.3886     | 4.3886     |   0.0 |  0.75
Output  | 0.063235   | 0.063235   | 0.063235   |   0.0 |  0.01
Modify  | 5.9998     | 5.9998     | 5.9998     |   0.0 |  1.02
Other   |            | 1.579      |            |       |  0.27

Nlocal:    19652 ave 19652 max 19652 min
Histogram: 1 0 0 0 0 0 0 0 0 0
Nghost:    17107 ave 17107 max 17107 min
Histogram: 1 0 0 0 0 0 0 0 0 0
Neighs:    1.26384e+06 ave 1.26384e+06 max 1.26384e+06 min
Histogram: 1 0 0 0 0 0 0 0 0 0

Total # of neighbors = 1263840
Ave neighs/atom = 64.311
Neighbor list builds = 4505
Dangerous builds not checked
Setting up Verlet run ...
  Unit style    : metal
  Current step  : 155000
  Time step     : 0.001
Per MPI rank memory allocation (min/avg/max) = 18.2 | 18.2 | 18.2 Mbytes
Step Temp Press TotEng PotEng Enthalpy 
  155000    1312.0774   -679.36492   -57242.789   -60575.585   -57408.497 
  155495    1266.4334   -365.36344   -57475.614    -60692.47   -57564.284 
Loop time of 67.67 on 1 procs for 495 steps with 19652 atoms

Performance: 0.632 ns/day, 37.974 hours/ns, 7.315 timesteps/s
99.9% CPU use with 1 MPI tasks x no OpenMP threads

MPI task timing breakdown:
Section |  min time  |  avg time  |  max time  |%varavg| %total
---------------------------------------------------------------
Pair    | 36.09      | 36.09      | 36.09      |   0.0 | 53.33
Neigh   | 30.186     | 30.186     | 30.186     |   0.0 | 44.61
Comm    | 0.50126    | 0.50126    | 0.50126    |   0.0 |  0.74
Output  | 0.00018597 | 0.00018597 | 0.00018597 |   0.0 |  0.00
Modify  | 0.70784    | 0.70784    | 0.70784    |   0.0 |  1.05
Other   |            | 0.1846     |            |       |  0.27

Nlocal:    19652 ave 19652 max 19652 min
Histogram: 1 0 0 0 0 0 0 0 0 0
Nghost:    17258 ave 17258 max 17258 min
Histogram: 1 0 0 0 0 0 0 0 0 0
Neighs:    1.26997e+06 ave 1.26997e+06 max 1.26997e+06 min
Histogram: 1 0 0 0 0 0 0 0 0 0

Total # of neighbors = 1269970
Ave neighs/atom = 64.6229
Neighbor list builds = 495
Dangerous builds not checked
Setting up Verlet run ...
  Unit style    : metal
  Current step  : 155495
  Time step     : 0.001
Per MPI rank memory allocation (min/avg/max) = 18.2 | 18.2 | 18.2 Mbytes
Step Temp Press TotEng PotEng Enthalpy 
  155495    1266.4334   -365.36344   -57475.614    -60692.47   -57564.284 
  160000      1267.67   -88.863677   -57506.593    -60726.59   -57528.123 
Loop time of 538.869 on 1 procs for 4505 steps with 19652 atoms

Performance: 0.722 ns/day, 33.227 hours/ns, 8.360 timesteps/s
100.0% CPU use with 1 MPI tasks x no OpenMP threads

MPI task timing breakdown:
Section |  min time  |  avg time  |  max time  |%varavg| %total
---------------------------------------------------------------
Pair    | 284.03     | 284.03     | 284.03     |   0.0 | 52.71
Neigh   | 244        | 244        | 244        |   0.0 | 45.28
Comm    | 4.0073     | 4.0073     | 4.0073     |   0.0 |  0.74
Output  | 0.041202   | 0.041202   | 0.041202   |   0.0 |  0.01
Modify  | 5.3639     | 5.3639     | 5.3639     |   0.0 |  1.00
Other   |            | 1.428      |            |       |  0.27

Nlocal:    19652 ave 19652 max 19652 min
Histogram: 1 0 0 0 0 0 0 0 0 0
Nghost:    17145 ave 17145 max 17145 min
Histogram: 1 0 0 0 0 0 0 0 0 0
Neighs:    1.27239e+06 ave 1.27239e+06 max 1.27239e+06 min
Histogram: 1 0 0 0 0 0 0 0 0 0

Total # of neighbors = 1272392
Ave neighs/atom = 64.7462
Neighbor list builds = 4505
Dangerous builds not checked
Setting up Verlet run ...
  Unit style    : metal
  Current step  : 160000
  Time step     : 0.001
Per MPI rank memory allocation (min/avg/max) = 18.2 | 18.2 | 18.2 Mbytes
Step Temp Press TotEng PotEng Enthalpy 
  160000      1267.67   -88.863677   -57506.593    -60726.59   -57528.123 
  160495    1215.6787    108.04837   -57746.615    -60834.55   -57720.533 
Loop time of 67.1057 on 1 procs for 495 steps with 19652 atoms

Performance: 0.637 ns/day, 37.658 hours/ns, 7.376 timesteps/s
99.9% CPU use with 1 MPI tasks x no OpenMP threads

MPI task timing breakdown:
Section |  min time  |  avg time  |  max time  |%varavg| %total
---------------------------------------------------------------
Pair    | 35.907     | 35.907     | 35.907     |   0.0 | 53.51
Neigh   | 29.815     | 29.815     | 29.815     |   0.0 | 44.43
Comm    | 0.49638    | 0.49638    | 0.49638    |   0.0 |  0.74
Output  | 0.00021815 | 0.00021815 | 0.00021815 |   0.0 |  0.00
Modify  | 0.70419    | 0.70419    | 0.70419    |   0.0 |  1.05
Other   |            | 0.1828     |            |       |  0.27

Nlocal:    19652 ave 19652 max 19652 min
Histogram: 1 0 0 0 0 0 0 0 0 0
Nghost:    17211 ave 17211 max 17211 min
Histogram: 1 0 0 0 0 0 0 0 0 0
Neighs:    1.27688e+06 ave 1.27688e+06 max 1.27688e+06 min
Histogram: 1 0 0 0 0 0 0 0 0 0

Total # of neighbors = 1276876
Ave neighs/atom = 64.9744
Neighbor list builds = 495
Dangerous builds not checked
Setting up Verlet run ...
  Unit style    : metal
  Current step  : 160495
  Time step     : 0.001
Per MPI rank memory allocation (min/avg/max) = 18.2 | 18.2 | 18.2 Mbytes
Step Temp Press TotEng PotEng Enthalpy 
  160495    1215.6787    108.04837   -57746.615    -60834.55   -57720.533 
  165000    1195.1234    -351.7256   -57913.445   -60949.167   -57998.099 
Loop time of 661.514 on 1 procs for 4505 steps with 19652 atoms

Performance: 0.588 ns/day, 40.789 hours/ns, 6.810 timesteps/s
99.8% CPU use with 1 MPI tasks x no OpenMP threads

MPI task timing breakdown:
Section |  min time  |  avg time  |  max time  |%varavg| %total
---------------------------------------------------------------
Pair    | 358.45     | 358.45     | 358.45     |   0.0 | 54.19
Neigh   | 289.73     | 289.73     | 289.73     |   0.0 | 43.80
Comm    | 4.9355     | 4.9355     | 4.9355     |   0.0 |  0.75
Output  | 0.068151   | 0.068151   | 0.068151   |   0.0 |  0.01
Modify  | 6.5694     | 6.5694     | 6.5694     |   0.0 |  0.99
Other   |            | 1.759      |            |       |  0.27

Nlocal:    19652 ave 19652 max 19652 min
Histogram: 1 0 0 0 0 0 0 0 0 0
Nghost:    17190 ave 17190 max 17190 min
Histogram: 1 0 0 0 0 0 0 0 0 0
Neighs:    1.2811e+06 ave 1.2811e+06 max 1.2811e+06 min
Histogram: 1 0 0 0 0 0 0 0 0 0

Total # of neighbors = 1281095
Ave neighs/atom = 65.189
Neighbor list builds = 4505
Dangerous builds not checked
Setting up Verlet run ...
  Unit style    : metal
  Current step  : 165000
  Time step     : 0.001
Per MPI rank memory allocation (min/avg/max) = 18.2 | 18.2 | 18.2 Mbytes
Step Temp Press TotEng PotEng Enthalpy 
  165000    1195.1234    -351.7256   -57913.445   -60949.167   -57998.099 
  165495    1156.3355    577.80504   -58076.325   -61013.523    -57937.78 
Loop time of 75.072 on 1 procs for 495 steps with 19652 atoms

Performance: 0.570 ns/day, 42.128 hours/ns, 6.594 timesteps/s
100.0% CPU use with 1 MPI tasks x no OpenMP threads

MPI task timing breakdown:
Section |  min time  |  avg time  |  max time  |%varavg| %total
---------------------------------------------------------------
Pair    | 40.749     | 40.749     | 40.749     |   0.0 | 54.28
Neigh   | 32.795     | 32.795     | 32.795     |   0.0 | 43.68
Comm    | 0.55857    | 0.55857    | 0.55857    |   0.0 |  0.74
Output  | 0.00028181 | 0.00028181 | 0.00028181 |   0.0 |  0.00
Modify  | 0.76934    | 0.76934    | 0.76934    |   0.0 |  1.02
Other   |            | 0.1992     |            |       |  0.27

Nlocal:    19652 ave 19652 max 19652 min
Histogram: 1 0 0 0 0 0 0 0 0 0
Nghost:    17252 ave 17252 max 17252 min
Histogram: 1 0 0 0 0 0 0 0 0 0
Neighs:    1.28558e+06 ave 1.28558e+06 max 1.28558e+06 min
Histogram: 1 0 0 0 0 0 0 0 0 0

Total # of neighbors = 1285576
Ave neighs/atom = 65.4171
Neighbor list builds = 495
Dangerous builds not checked
Setting up Verlet run ...
  Unit style    : metal
  Current step  : 165495
  Time step     : 0.001
Per MPI rank memory allocation (min/avg/max) = 18.2 | 18.2 | 18.2 Mbytes
Step Temp Press TotEng PotEng Enthalpy 
  165495    1156.3355    577.80504   -58076.325   -61013.523    -57937.78 
  170000    1127.6412    419.30819   -58203.126   -61067.438   -58102.772 
Loop time of 698.486 on 1 procs for 4505 steps with 19652 atoms

Performance: 0.557 ns/day, 43.069 hours/ns, 6.450 timesteps/s
99.6% CPU use with 1 MPI tasks x no OpenMP threads

MPI task timing breakdown:
Section |  min time  |  avg time  |  max time  |%varavg| %total
[...]
Neighbor list builds = 4505
Dangerous builds not checked
Setting up Verlet run ...
  Unit style    : metal
  Current step  : 240000
  Time step     : 0.001
Per MPI rank memory allocation (min/avg/max) = 18.2 | 18.2 | 18.2 Mbytes
Step Temp Press TotEng PotEng Enthalpy 
  240000    450.23536    373.98716   -62683.134   -63826.773   -62601.072 
  240495    422.52899    -484.9794   -62826.207   -63899.469   -62932.574 
Loop time of 76.4651 on 1 procs for 495 steps with 19652 atoms

Performance: 0.559 ns/day, 42.910 hours/ns, 6.474 timesteps/s
99.5% CPU use with 1 MPI tasks x no OpenMP threads

MPI task timing breakdown:
Section |  min time  |  avg time  |  max time  |%varavg| %total
---------------------------------------------------------------
Pair    | 40.886     | 40.886     | 40.886     |   0.0 | 53.47
Neigh   | 34.08      | 34.08      | 34.08      |   0.0 | 44.57
Comm    | 0.54513    | 0.54513    | 0.54513    |   0.0 |  0.71
Output  | 0.00019598 | 0.00019598 | 0.00019598 |   0.0 |  0.00
Modify  | 0.75563    | 0.75563    | 0.75563    |   0.0 |  0.99
Other   |            | 0.1983     |            |       |  0.26

Nlocal:    19652 ave 19652 max 19652 min
Histogram: 1 0 0 0 0 0 0 0 0 0
Nghost:    17887 ave 17887 max 17887 min
Histogram: 1 0 0 0 0 0 0 0 0 0
Neighs:    1.40734e+06 ave 1.40734e+06 max 1.40734e+06 min
Histogram: 1 0 0 0 0 0 0 0 0 0

Total # of neighbors = 1407335
Ave neighs/atom = 71.6128
Neighbor list builds = 495
Dangerous builds not checked
Setting up Verlet run ...
  Unit style    : metal
  Current step  : 240495
  Time step     : 0.001
Per MPI rank memory allocation (min/avg/max) = 18.2 | 18.2 | 18.2 Mbytes
Step Temp Press TotEng PotEng Enthalpy 
  240495    422.52899    -484.9794   -62826.207   -63899.469   -62932.574 
  245000    401.10178    430.92135   -62982.416   -64001.251   -62888.276 
Loop time of 655.683 on 1 procs for 4505 steps with 19652 atoms

Performance: 0.594 ns/day, 40.429 hours/ns, 6.871 timesteps/s
99.9% CPU use with 1 MPI tasks x no OpenMP threads

MPI task timing breakdown:
Section |  min time  |  avg time  |  max time  |%varavg| %total
---------------------------------------------------------------
Pair    | 349.62     | 349.62     | 349.62     |   0.0 | 53.32
Neigh   | 293.33     | 293.33     | 293.33     |   0.0 | 44.74
Comm    | 4.6537     | 4.6537     | 4.6537     |   0.0 |  0.71
Output  | 0.051069   | 0.051069   | 0.051069   |   0.0 |  0.01
Modify  | 6.3451     | 6.3451     | 6.3451     |   0.0 |  0.97
Other   |            | 1.685      |            |       |  0.26

Nlocal:    19652 ave 19652 max 19652 min
Histogram: 1 0 0 0 0 0 0 0 0 0
Nghost:    17923 ave 17923 max 17923 min
Histogram: 1 0 0 0 0 0 0 0 0 0
Neighs:    1.4128e+06 ave 1.4128e+06 max 1.4128e+06 min
Histogram: 1 0 0 0 0 0 0 0 0 0

Total # of neighbors = 1412803
Ave neighs/atom = 71.8911
Neighbor list builds = 4505
Dangerous builds not checked
Setting up Verlet run ...
  Unit style    : metal
  Current step  : 245000
  Time step     : 0.001
Per MPI rank memory allocation (min/avg/max) = 18.2 | 18.2 | 18.2 Mbytes
Step Temp Press TotEng PotEng Enthalpy 
  245000    401.10178    430.92135   -62982.416   -64001.251   -62888.276 
  245495    375.56606    204.83722   -63133.635   -64087.607   -63088.978 
Loop time of 66.2873 on 1 procs for 495 steps with 19652 atoms

Performance: 0.645 ns/day, 37.198 hours/ns, 7.467 timesteps/s
100.0% CPU use with 1 MPI tasks x no OpenMP threads

MPI task timing breakdown:
Section |  min time  |  avg time  |  max time  |%varavg| %total
---------------------------------------------------------------
Pair    | 34.998     | 34.998     | 34.998     |   0.0 | 52.80
Neigh   | 30.026     | 30.026     | 30.026     |   0.0 | 45.30
Comm    | 0.46405    | 0.46405    | 0.46405    |   0.0 |  0.70
Output  | 0.00017405 | 0.00017405 | 0.00017405 |   0.0 |  0.00
Modify  | 0.63136    | 0.63136    | 0.63136    |   0.0 |  0.95
Other   |            | 0.168      |            |       |  0.25

Nlocal:    19652 ave 19652 max 19652 min
Histogram: 1 0 0 0 0 0 0 0 0 0
Nghost:    17922 ave 17922 max 17922 min
Histogram: 1 0 0 0 0 0 0 0 0 0
Neighs:    1.41587e+06 ave 1.41587e+06 max 1.41587e+06 min
Histogram: 1 0 0 0 0 0 0 0 0 0

Total # of neighbors = 1415871
Ave neighs/atom = 72.0472
Neighbor list builds = 495
Dangerous builds not checked
Setting up Verlet run ...
  Unit style    : metal
  Current step  : 245495
  Time step     : 0.001
Per MPI rank memory allocation (min/avg/max) = 18.2 | 18.2 | 18.2 Mbytes
Step Temp Press TotEng PotEng Enthalpy 
  245495    375.56606    204.83722   -63133.635   -64087.607   -63088.978 
  250000    348.91961    416.48783   -63293.131   -64179.419   -63202.662 
Loop time of 634.698 on 1 procs for 4505 steps with 19652 atoms

Performance: 0.613 ns/day, 39.135 hours/ns, 7.098 timesteps/s
99.7% CPU use with 1 MPI tasks x no OpenMP threads

MPI task timing breakdown:
Section |  min time  |  avg time  |  max time  |%varavg| %total
---------------------------------------------------------------
Pair    | 336.8      | 336.8      | 336.8      |   0.0 | 53.06
Neigh   | 285.2      | 285.2      | 285.2      |   0.0 | 44.94
Comm    | 4.5103     | 4.5103     | 4.5103     |   0.0 |  0.71
Output  | 0.40541    | 0.40541    | 0.40541    |   0.0 |  0.06
Modify  | 6.1508     | 6.1508     | 6.1508     |   0.0 |  0.97
Other   |            | 1.632      |            |       |  0.26

Nlocal:    19652 ave 19652 max 19652 min
Histogram: 1 0 0 0 0 0 0 0 0 0
Nghost:    17942 ave 17942 max 17942 min
Histogram: 1 0 0 0 0 0 0 0 0 0
Neighs:    1.4212e+06 ave 1.4212e+06 max 1.4212e+06 min
Histogram: 1 0 0 0 0 0 0 0 0 0

Total # of neighbors = 1421204
Ave neighs/atom = 72.3185
Neighbor list builds = 4505
Dangerous builds not checked
Setting up Verlet run ...
  Unit style    : metal
  Current step  : 250000
  Time step     : 0.001
Per MPI rank memory allocation (min/avg/max) = 18.2 | 18.2 | 18.2 Mbytes
Step Temp Press TotEng PotEng Enthalpy 
  250000    348.91961    416.48783   -63293.131   -64179.419   -63202.662 
  250495    325.18615    490.58781   -63438.198   -64264.201   -63331.793 
Loop time of 70.5558 on 1 procs for 495 steps with 19652 atoms

Performance: 0.606 ns/day, 39.594 hours/ns, 7.016 timesteps/s
99.4% CPU use with 1 MPI tasks x no OpenMP threads

MPI task timing breakdown:
Section |  min time  |  avg time  |  max time  |%varavg| %total
---------------------------------------------------------------
Pair    | 37.587     | 37.587     | 37.587     |   0.0 | 53.27
Neigh   | 31.588     | 31.588     | 31.588     |   0.0 | 44.77
Comm    | 0.50753    | 0.50753    | 0.50753    |   0.0 |  0.72
Output  | 0.00018001 | 0.00018001 | 0.00018001 |   0.0 |  0.00
Modify  | 0.69004    | 0.69004    | 0.69004    |   0.0 |  0.98
Other   |            | 0.1833     |            |       |  0.26

Nlocal:    19652 ave 19652 max 19652 min
Histogram: 1 0 0 0 0 0 0 0 0 0
Nghost:    17956 ave 17956 max 17956 min
Histogram: 1 0 0 0 0 0 0 0 0 0
Neighs:    1.42288e+06 ave 1.42288e+06 max 1.42288e+06 min
Histogram: 1 0 0 0 0 0 0 0 0 0

Total # of neighbors = 1422878
Ave neighs/atom = 72.4037
Neighbor list builds = 495
Dangerous builds not checked
Setting up Verlet run ...
  Unit style    : metal
  Current step  : 250495
  Time step     : 0.001
Per MPI rank memory allocation (min/avg/max) = 18.2 | 18.2 | 18.2 Mbytes
Step Temp Press TotEng PotEng Enthalpy 
  250495    325.18615    490.58781   -63438.198   -64264.201   -63331.793 
  255000    299.95131   -153.15362   -63575.428   -64337.332   -63608.624 
Loop time of 655.609 on 1 procs for 4505 steps with 19652 atoms

Performance: 0.594 ns/day, 40.425 hours/ns, 6.871 timesteps/s
99.8% CPU use with 1 MPI tasks x no OpenMP threads

MPI task timing breakdown:
Section |  min time  |  avg time  |  max time  |%varavg| %total
---------------------------------------------------------------
Pair    | 350.74     | 350.74     | 350.74     |   0.0 | 53.50
Neigh   | 292.04     | 292.04     | 292.04     |   0.0 | 44.55
Comm    | 4.6882     | 4.6882     | 4.6882     |   0.0 |  0.72
Output  | 0.041263   | 0.041263   | 0.041263   |   0.0 |  0.01
Modify  | 6.3985     | 6.3985     | 6.3985     |   0.0 |  0.98
Other   |            | 1.699      |            |       |  0.26

Nlocal:    19652 ave 19652 max 19652 min
Histogram: 1 0 0 0 0 0 0 0 0 0
Nghost:    17988 ave 17988 max 17988 min
Histogram: 1 0 0 0 0 0 0 0 0 0
Neighs:    1.42371e+06 ave 1.42371e+06 max 1.42371e+06 min
Histogram: 1 0 0 0 0 0 0 0 0 0

Total # of neighbors = 1423714
Ave neighs/atom = 72.4463
Neighbor list builds = 4505
Dangerous builds not checked
Setting up Verlet run ...
  Unit style    : metal
  Current step  : 255000
  Time step     : 0.001
Per MPI rank memory allocation (min/avg/max) = 18.2 | 18.2 | 18.2 Mbytes
Step Temp Press TotEng PotEng Enthalpy 
  255000    299.95131   -153.15362   -63575.428   -64337.332   -63608.624 
  255495    274.64933   -109.62411   -63721.159   -64418.793   -63744.871 
Loop time of 69.3439 on 1 procs for 495 steps with 19652 atoms

Performance: 0.617 ns/day, 38.914 hours/ns, 7.138 timesteps/s
99.9% CPU use with 1 MPI tasks x no OpenMP threads

MPI task timing breakdown:
Section |  min time  |  avg time  |  max time  |%varavg| %total
---------------------------------------------------------------
Pair    | 36.842     | 36.842     | 36.842     |   0.0 | 53.13
Neigh   | 31.167     | 31.167     | 31.167     |   0.0 | 44.95
Comm    | 0.48917    | 0.48917    | 0.48917    |   0.0 |  0.71
Output  | 0.00022817 | 0.00022817 | 0.00022817 |   0.0 |  0.00
Modify  | 0.66805    | 0.66805    | 0.66805    |   0.0 |  0.96
Other   |            | 0.1782     |            |       |  0.26

Nlocal:    19652 ave 19652 max 19652 min
Histogram: 1 0 0 0 0 0 0 0 0 0
Nghost:    17935 ave 17935 max 17935 min
Histogram: 1 0 0 0 0 0 0 0 0 0
Neighs:    1.42675e+06 ave 1.42675e+06 max 1.42675e+06 min
Histogram: 1 0 0 0 0 0 0 0 0 0

Total # of neighbors = 1426748
Ave neighs/atom = 72.6007
Neighbor list builds = 495
Dangerous builds not checked
Setting up Verlet run ...
  Unit style    : metal
  Current step  : 255495
  Time step     : 0.001
Per MPI rank memory allocation (min/avg/max) = 18.2 | 18.2 | 18.2 Mbytes
Step Temp Press TotEng PotEng Enthalpy 
  255495    274.64933   -109.62411   -63721.159   -64418.793   -63744.871 
  260000    250.13005   -614.35117   -63861.095   -64496.448   -63993.849 
Loop time of 641.794 on 1 procs for 4505 steps with 19652 atoms

Performance: 0.606 ns/day, 39.573 hours/ns, 7.019 timesteps/s
99.8% CPU use with 1 MPI tasks x no OpenMP threads

MPI task timing breakdown:
Section |  min time  |  avg time  |  max time  |%varavg| %total
---------------------------------------------------------------
Pair    | 342.08     | 342.08     | 342.08     |   0.0 | 53.30
Neigh   | 287.15     | 287.15     | 287.15     |   0.0 | 44.74
Comm    | 4.6045     | 4.6045     | 4.6045     |   0.0 |  0.72
Output  | 0.04096    | 0.04096    | 0.04096    |   0.0 |  0.01
Modify  | 6.2636     | 6.2636     | 6.2636     |   0.0 |  0.98
Other   |            | 1.661      |            |       |  0.26

Nlocal:    19652 ave 19652 max 19652 min
Histogram: 1 0 0 0 0 0 0 0 0 0
Nghost:    17950 ave 17950 max 17950 min
Histogram: 1 0 0 0 0 0 0 0 0 0
Neighs:    1.42813e+06 ave 1.42813e+06 max 1.42813e+06 min
Histogram: 1 0 0 0 0 0 0 0 0 0

Total # of neighbors = 1428126
Ave neighs/atom = 72.6708
Neighbor list builds = 4505
Dangerous builds not checked
Setting up Verlet run ...
  Unit style    : metal
  Current step  : 260000
  Time step     : 0.001
Per MPI rank memory allocation (min/avg/max) = 18.2 | 18.2 | 18.2 Mbytes
Step Temp Press TotEng PotEng Enthalpy 
  260000    250.13005   -614.35117   -63861.095   -64496.448   -63993.849 
  260495    225.95369     352.1455   -63997.023   -64570.966   -63921.159 
Loop time of 70.6638 on 1 procs for 495 steps with 19652 atoms

Performance: 0.605 ns/day, 39.654 hours/ns, 7.005 timesteps/s
100.0% CPU use with 1 MPI tasks x no OpenMP threads

MPI task timing breakdown:
Section |  min time  |  avg time  |  max time  |%varavg| %total
---------------------------------------------------------------
Pair    | 37.861     | 37.861     | 37.861     |   0.0 | 53.58
Neigh   | 31.423     | 31.423     | 31.423     |   0.0 | 44.47
Comm    | 0.50828    | 0.50828    | 0.50828    |   0.0 |  0.72
Output  | 0.000314   | 0.000314   | 0.000314   |   0.0 |  0.00
Modify  | 0.68934    | 0.68934    | 0.68934    |   0.0 |  0.98
Other   |            | 0.1817     |            |       |  0.26

Nlocal:    19652 ave 19652 max 19652 min
Histogram: 1 0 0 0 0 0 0 0 0 0
Nghost:    17975 ave 17975 max 17975 min
Histogram: 1 0 0 0 0 0 0 0 0 0
Neighs:    1.4324e+06 ave 1.4324e+06 max 1.4324e+06 min
Histogram: 1 0 0 0 0 0 0 0 0 0

Total # of neighbors = 1432397
Ave neighs/atom = 72.8881
Neighbor list builds = 495
Dangerous builds not checked
Setting up Verlet run ...
  Unit style    : metal
  Current step  : 260495
  Time step     : 0.001
Per MPI rank memory allocation (min/avg/max) = 18.2 | 18.2 | 18.2 Mbytes
Step Temp Press TotEng PotEng Enthalpy 
  260495    225.95369     352.1455   -63997.023   -64570.966   -63921.159 
  265000    198.98878   -367.28978    -64138.42   -64643.869   -64217.506 
Loop time of 661.943 on 1 procs for 4505 steps with 19652 atoms

Performance: 0.588 ns/day, 40.815 hours/ns, 6.806 timesteps/s
99.6% CPU use with 1 MPI tasks x no OpenMP threads

MPI task timing breakdown:
Section |  min time  |  avg time  |  max time  |%varavg| %total
---------------------------------------------------------------
Pair    | 354.87     | 354.87     | 354.87     |   0.0 | 53.61
Neigh   | 294.1      | 294.1      | 294.1      |   0.0 | 44.43
Comm    | 4.7221     | 4.7221     | 4.7221     |   0.0 |  0.71
Output  | 0.053512   | 0.053512   | 0.053512   |   0.0 |  0.01
Modify  | 6.4802     | 6.4802     | 6.4802     |   0.0 |  0.98
Other   |            | 1.718      |            |       |  0.26

Nlocal:    19652 ave 19652 max 19652 min
Histogram: 1 0 0 0 0 0 0 0 0 0
Nghost:    17982 ave 17982 max 17982 min
Histogram: 1 0 0 0 0 0 0 0 0 0
Neighs:    1.43308e+06 ave 1.43308e+06 max 1.43308e+06 min
Histogram: 1 0 0 0 0 0 0 0 0 0

Total # of neighbors = 1433084
Ave neighs/atom = 72.9231
Neighbor list builds = 4505
Dangerous builds not checked
Setting up Verlet run ...
  Unit style    : metal
  Current step  : 265000
  Time step     : 0.001
Per MPI rank memory allocation (min/avg/max) = 18.2 | 18.2 | 18.2 Mbytes
Step Temp Press TotEng PotEng Enthalpy 
  265000    198.98878   -367.28978    -64138.42   -64643.869   -64217.506 
  265495    175.56364   -317.85991   -64263.278   -64709.226   -64331.618 
Loop time of 68.2736 on 1 procs for 495 steps with 19652 atoms

Performance: 0.626 ns/day, 38.313 hours/ns, 7.250 timesteps/s
100.0% CPU use with 1 MPI tasks x no OpenMP threads

MPI task timing breakdown:
Section |  min time  |  avg time  |  max time  |%varavg| %total
---------------------------------------------------------------
Pair    | 36.376     | 36.376     | 36.376     |   0.0 | 53.28
Neigh   | 30.558     | 30.558     | 30.558     |   0.0 | 44.76
Comm    | 0.49059    | 0.49059    | 0.49059    |   0.0 |  0.72
Output  | 0.00020194 | 0.00020194 | 0.00020194 |   0.0 |  0.00
Modify  | 0.67014    | 0.67014    | 0.67014    |   0.0 |  0.98
Other   |            | 0.179      |            |       |  0.26

Nlocal:    19652 ave 19652 max 19652 min
Histogram: 1 0 0 0 0 0 0 0 0 0
Nghost:    18042 ave 18042 max 18042 min
Histogram: 1 0 0 0 0 0 0 0 0 0
Neighs:    1.43537e+06 ave 1.43537e+06 max 1.43537e+06 min
Histogram: 1 0 0 0 0 0 0 0 0 0

Total # of neighbors = 1435369
Ave neighs/atom = 73.0393
Neighbor list builds = 495
Dangerous builds not checked
Setting up Verlet run ...
  Unit style    : metal
  Current step  : 265495
  Time step     : 0.001
Per MPI rank memory allocation (min/avg/max) = 18.2 | 18.2 | 18.2 Mbytes
Step Temp Press TotEng PotEng Enthalpy 
  265495    175.56364   -317.85991   -64263.278   -64709.226   -64331.618 
  270000     149.9197    51.791852   -64401.552   -64782.362   -64390.439 
Loop time of 668.947 on 1 procs for 4505 steps with 19652 atoms

Performance: 0.582 ns/day, 41.247 hours/ns, 6.734 timesteps/s
99.6% CPU use with 1 MPI tasks x no OpenMP threads

MPI task timing breakdown:
Section |  min time  |  avg time  |  max time  |%varavg| %total
---------------------------------------------------------------
Pair    | 358.62     | 358.62     | 358.62     |   0.0 | 53.61
Neigh   | 297.06     | 297.06     | 297.06     |   0.0 | 44.41
Comm    | 4.8212     | 4.8212     | 4.8212     |   0.0 |  0.72
Output  | 0.065615   | 0.065615   | 0.065615   |   0.0 |  0.01
Modify  | 6.6185     | 6.6185     | 6.6185     |   0.0 |  0.99
Other   |            | 1.763      |            |       |  0.26

Nlocal:    19652 ave 19652 max 19652 min
Histogram: 1 0 0 0 0 0 0 0 0 0
Nghost:    17974 ave 17974 max 17974 min
Histogram: 1 0 0 0 0 0 0 0 0 0
Neighs:    1.43764e+06 ave 1.43764e+06 max 1.43764e+06 min
Histogram: 1 0 0 0 0 0 0 0 0 0

Total # of neighbors = 1437641
Ave neighs/atom = 73.1549
Neighbor list builds = 4505
Dangerous builds not checked
Setting up Verlet run ...
  Unit style    : metal
  Current step  : 270000
  Time step     : 0.001
Per MPI rank memory allocation (min/avg/max) = 18.2 | 18.2 | 18.2 Mbytes
Step Temp Press TotEng PotEng Enthalpy 
  270000     149.9197    51.791852   -64401.552   -64782.362   -64390.439 
  270495    126.05843   -358.05133   -64520.432   -64840.631   -64597.199 
Loop time of 74.6388 on 1 procs for 495 steps with 19652 atoms

Performance: 0.573 ns/day, 41.885 hours/ns, 6.632 timesteps/s
99.6% CPU use with 1 MPI tasks x no OpenMP threads

MPI task timing breakdown:
Section |  min time  |  avg time  |  max time  |%varavg| %total
---------------------------------------------------------------
Pair    | 40.074     | 40.074     | 40.074     |   0.0 | 53.69
Neigh   | 33.087     | 33.087     | 33.087     |   0.0 | 44.33
Comm    | 0.53813    | 0.53813    | 0.53813    |   0.0 |  0.72
Output  | 0.00018811 | 0.00018811 | 0.00018811 |   0.0 |  0.00
Modify  | 0.74211    | 0.74211    | 0.74211    |   0.0 |  0.99
Other   |            | 0.1978     |            |       |  0.27

Nlocal:    19652 ave 19652 max 19652 min
Histogram: 1 0 0 0 0 0 0 0 0 0
Nghost:    18028 ave 18028 max 18028 min
Histogram: 1 0 0 0 0 0 0 0 0 0
Neighs:    1.43901e+06 ave 1.43901e+06 max 1.43901e+06 min
Histogram: 1 0 0 0 0 0 0 0 0 0

Total # of neighbors = 1439010
Ave neighs/atom = 73.2246
Neighbor list builds = 495
Dangerous builds not checked
Setting up Verlet run ...
  Unit style    : metal
  Current step  : 270495
  Time step     : 0.001
Per MPI rank memory allocation (min/avg/max) = 18.2 | 18.2 | 18.2 Mbytes
Step Temp Press TotEng PotEng Enthalpy 
  270495    126.05843   -358.05133   -64520.432   -64840.631   -64597.199 
  275000    101.04297   -228.42713   -64661.066   -64917.724   -64709.967 
Loop time of 680.957 on 1 procs for 4505 steps with 19652 atoms

Performance: 0.572 ns/day, 41.988 hours/ns, 6.616 timesteps/s
99.7% CPU use with 1 MPI tasks x no OpenMP threads

MPI task timing breakdown:
Section |  min time  |  avg time  |  max time  |%varavg| %total
---------------------------------------------------------------
Pair    | 365.18     | 365.18     | 365.18     |   0.0 | 53.63
Neigh   | 302.13     | 302.13     | 302.13     |   0.0 | 44.37
Comm    | 4.9669     | 4.9669     | 4.9669     |   0.0 |  0.73
Output  | 0.061761   | 0.061761   | 0.061761   |   0.0 |  0.01
Modify  | 6.8088     | 6.8088     | 6.8088     |   0.0 |  1.00
Other   |            | 1.815      |            |       |  0.27

Nlocal:    19652 ave 19652 max 19652 min
Histogram: 1 0 0 0 0 0 0 0 0 0
Nghost:    18024 ave 18024 max 18024 min
Histogram: 1 0 0 0 0 0 0 0 0 0
Neighs:    1.44147e+06 ave 1.44147e+06 max 1.44147e+06 min
Histogram: 1 0 0 0 0 0 0 0 0 0

Total # of neighbors = 1441473
Ave neighs/atom = 73.3499
Neighbor list builds = 4505
Dangerous builds not checked
Total wall time: 11:05:46
