LAMMPS (12 Dec 2018)
Lattice spacing in x,y,z = 4 4 4
Created orthogonal box = (0 0 0) to (68 68 68)
  1 by 1 by 1 MPI processor grid
Created 19652 atoms
  Time spent = 0.00469208 secs
Setting atom values ...
  206 settings made for type/fraction
Neighbor list info ...
  update every 1 steps, delay 0 steps, check no
  max neighbors/atom: 2000, page size: 100000
  master list distance cutoff = 8.5
  ghost atom cutoff = 8.5
  binsize = 4.25, bins = 16 16 16
  1 neighbor lists, perpetual/occasional/extra = 1 0 0
  (1) pair eam/alloy, perpetual
      attributes: half, newton on
      pair build: half/bin/atomonly/newton
      stencil: half/bin/3d/newton
      bin: standard
Setting up Verlet run ...
  Unit style    : metal
  Current step  : 0
  Time step     : 0.001
Per MPI rank memory allocation (min/avg/max) = 18.19 | 18.19 | 18.19 Mbytes
Step Temp Press TotEng PotEng Enthalpy 
       0          300    275404.51    -21190.05   -21952.077    32858.922 
    1000    158.92961    273514.59   -21189.824    -21593.52    32488.244 
Loop time of 165.825 on 1 procs for 1000 steps with 19652 atoms

Performance: 0.521 ns/day, 46.062 hours/ns, 6.030 timesteps/s
99.8% CPU use with 1 MPI tasks x no OpenMP threads

MPI task timing breakdown:
Section |  min time  |  avg time  |  max time  |%varavg| %total
---------------------------------------------------------------
Pair    | 100.59     | 100.59     | 100.59     |   0.0 | 60.66
Neigh   | 62.489     | 62.489     | 62.489     |   0.0 | 37.68
Comm    | 1.6165     | 1.6165     | 1.6165     |   0.0 |  0.97
Output  | 0.00039291 | 0.00039291 | 0.00039291 |   0.0 |  0.00
Modify  | 0.66132    | 0.66132    | 0.66132    |   0.0 |  0.40
Other   |            | 0.4703     |            |       |  0.28

Nlocal:    19652 ave 19652 max 19652 min
Histogram: 1 0 0 0 0 0 0 0 0 0
Nghost:    20102 ave 20102 max 20102 min
Histogram: 1 0 0 0 0 0 0 0 0 0
Neighs:    1.57359e+06 ave 1.57359e+06 max 1.57359e+06 min
Histogram: 1 0 0 0 0 0 0 0 0 0

Total # of neighbors = 1573590
Ave neighs/atom = 80.0728
Neighbor list builds = 1000
Dangerous builds not checked
Setting up Verlet run ...
  Unit style    : metal
  Current step  : 1000
  Time step     : 0.001
Per MPI rank memory allocation (min/avg/max) = 18.19 | 18.19 | 18.19 Mbytes
Step Temp Press TotEng PotEng Enthalpy 
    1000    158.92961    273514.59   -21189.824    -21593.52    32488.244 
    2000    260.69605    282.98553   -28931.943   -29594.135   -28851.045 
Loop time of 135.902 on 1 procs for 1000 steps with 19652 atoms

Performance: 0.636 ns/day, 37.751 hours/ns, 7.358 timesteps/s
99.8% CPU use with 1 MPI tasks x no OpenMP threads

MPI task timing breakdown:
Section |  min time  |  avg time  |  max time  |%varavg| %total
---------------------------------------------------------------
Pair    | 76.081     | 76.081     | 76.081     |   0.0 | 55.98
Neigh   | 56.2       | 56.2       | 56.2       |   0.0 | 41.35
Comm    | 1.3687     | 1.3687     | 1.3687     |   0.0 |  1.01
Output  | 0.054076   | 0.054076   | 0.054076   |   0.0 |  0.04
Modify  | 1.7579     | 1.7579     | 1.7579     |   0.0 |  1.29
Other   |            | 0.4399     |            |       |  0.32

Nlocal:    19652 ave 19652 max 19652 min
Histogram: 1 0 0 0 0 0 0 0 0 0
Nghost:    14808 ave 14808 max 14808 min
Histogram: 1 0 0 0 0 0 0 0 0 0
Neighs:    1.09712e+06 ave 1.09712e+06 max 1.09712e+06 min
Histogram: 1 0 0 0 0 0 0 0 0 0

Total # of neighbors = 1097115
Ave neighs/atom = 55.8271
Neighbor list builds = 1000
Dangerous builds not checked
Setting up Verlet run ...
  Unit style    : metal
  Current step  : 2000
  Time step     : 0.001
Per MPI rank memory allocation (min/avg/max) = 18.19 | 18.19 | 18.19 Mbytes
Step Temp Press TotEng PotEng Enthalpy 
    2000    260.69605    282.98553   -28931.943   -29594.135   -28851.045 
    4000     788.9415    136.97401   -25810.229   -27814.212   -25768.658 
    6000    1349.9108    108.04547   -21215.789   -24644.686   -21178.955 
    8000    1894.5955    445.81764   -17994.487   -22806.932   -17830.031 
   10000    2463.6344   -383.22949   -14707.197   -20965.053   -14864.196 
Loop time of 903.603 on 1 procs for 8000 steps with 19652 atoms

Performance: 0.765 ns/day, 31.375 hours/ns, 8.853 timesteps/s
99.7% CPU use with 1 MPI tasks x no OpenMP threads

MPI task timing breakdown:
Section |  min time  |  avg time  |  max time  |%varavg| %total
---------------------------------------------------------------
Pair    | 494        | 494        | 494        |   0.0 | 54.67
Neigh   | 381.86     | 381.86     | 381.86     |   0.0 | 42.26
Comm    | 10.442     | 10.442     | 10.442     |   0.0 |  1.16
Output  | 0.20002    | 0.20002    | 0.20002    |   0.0 |  0.02
Modify  | 13.779     | 13.779     | 13.779     |   0.0 |  1.52
Other   |            | 3.318      |            |       |  0.37

Nlocal:    19652 ave 19652 max 19652 min
Histogram: 1 0 0 0 0 0 0 0 0 0
Nghost:    13973 ave 13973 max 13973 min
Histogram: 1 0 0 0 0 0 0 0 0 0
Neighs:    747116 ave 747116 max 747116 min
Histogram: 1 0 0 0 0 0 0 0 0 0

Total # of neighbors = 747116
Ave neighs/atom = 38.0173
Neighbor list builds = 8000
Dangerous builds not checked
Setting up Verlet run ...
  Unit style    : metal
  Current step  : 10000
  Time step     : 0.001
Per MPI rank memory allocation (min/avg/max) = 18.22 | 18.22 | 18.22 Mbytes
Step Temp Press TotEng PotEng Enthalpy 
   10000    2463.6344   -383.22949   -14707.197   -20965.053   -14864.196 
   12000     2446.695    393.88386   -14654.414   -20869.242   -14493.096 
   14000     2446.065   -167.99394   -14692.297   -20905.525   -14761.242 
   16000    2462.4955   -363.86292   -14575.902   -20830.865   -14725.822 
   18000    2463.1573   -804.27135   -14536.787   -20793.431   -14869.942 
   20000    2433.4575   -218.41438   -14605.686    -20786.89   -14695.978 
   22000    2444.5433   -315.37614   -14544.138   -20753.501   -14674.786 
   24000    2445.4366   -29.202174   -14581.872   -20793.504   -14593.905 
   26000    2428.8667    263.64594   -14715.157   -20884.699   -14607.166 
   28000    2452.9222   -178.24774   -14528.804    -20759.45   -14602.599 
   30000     2439.481    6.1838373   -14709.725   -20906.229   -14707.196 
   32000    2437.3334   -507.99926   -14631.213   -20822.261   -14840.968 
   34000    2426.2368   -140.65973   -14602.831   -20765.693   -14660.959 
   36000    2437.9124    233.16071   -14633.661   -20826.181   -14537.816 
   38000      2430.11    469.43367   -14729.287   -20901.988   -14537.615 
   40000    2456.9688   -189.78734   -14652.421   -20893.346   -14730.317 
Loop time of 3025.28 on 1 procs for 30000 steps with 19652 atoms

Performance: 0.857 ns/day, 28.012 hours/ns, 9.916 timesteps/s
99.8% CPU use with 1 MPI tasks x no OpenMP threads

MPI task timing breakdown:
Section |  min time  |  avg time  |  max time  |%varavg| %total
---------------------------------------------------------------
Pair    | 1567.5     | 1567.5     | 1567.5     |   0.0 | 51.81
Neigh   | 1353.7     | 1353.7     | 1353.7     |   0.0 | 44.75
Comm    | 39.422     | 39.422     | 39.422     |   0.0 |  1.30
Output  | 0.76254    | 0.76254    | 0.76254    |   0.0 |  0.03
Modify  | 51.618     | 51.618     | 51.618     |   0.0 |  1.71
Other   |            | 12.24      |            |       |  0.40

Nlocal:    19652 ave 19652 max 19652 min
Histogram: 1 0 0 0 0 0 0 0 0 0
Nghost:    13863 ave 13863 max 13863 min
Histogram: 1 0 0 0 0 0 0 0 0 0
Neighs:    746065 ave 746065 max 746065 min
Histogram: 1 0 0 0 0 0 0 0 0 0

Total # of neighbors = 746065
Ave neighs/atom = 37.9638
Neighbor list builds = 30000
Dangerous builds not checked
Setting up Verlet run ...
  Unit style    : metal
  Current step  : 40000
  Time step     : 0.001
Per MPI rank memory allocation (min/avg/max) = 18.22 | 18.22 | 18.22 Mbytes
Step Temp Press TotEng PotEng Enthalpy 
   40000    2456.9688   -189.78734   -14652.421   -20893.346   -14730.317 
   40495    2414.3927    99.172485   -14781.832   -20914.609   -14741.255 
Loop time of 49.0665 on 1 procs for 495 steps with 19652 atoms

Performance: 0.872 ns/day, 27.534 hours/ns, 10.088 timesteps/s
99.8% CPU use with 1 MPI tasks x no OpenMP threads

MPI task timing breakdown:
Section |  min time  |  avg time  |  max time  |%varavg| %total
---------------------------------------------------------------
Pair    | 25.521     | 25.521     | 25.521     |   0.0 | 52.01
Neigh   | 21.858     | 21.858     | 21.858     |   0.0 | 44.55
Comm    | 0.63136    | 0.63136    | 0.63136    |   0.0 |  1.29
Output  | 0.00031185 | 0.00031185 | 0.00031185 |   0.0 |  0.00
Modify  | 0.85277    | 0.85277    | 0.85277    |   0.0 |  1.74
Other   |            | 0.2031     |            |       |  0.41

Nlocal:    19652 ave 19652 max 19652 min
Histogram: 1 0 0 0 0 0 0 0 0 0
Nghost:    13903 ave 13903 max 13903 min
Histogram: 1 0 0 0 0 0 0 0 0 0
Neighs:    749503 ave 749503 max 749503 min
Histogram: 1 0 0 0 0 0 0 0 0 0

Total # of neighbors = 749503
Ave neighs/atom = 38.1388
Neighbor list builds = 495
Dangerous builds not checked
Setting up Verlet run ...
  Unit style    : metal
  Current step  : 40495
  Time step     : 0.001
Per MPI rank memory allocation (min/avg/max) = 18.22 | 18.22 | 18.22 Mbytes
Step Temp Press TotEng PotEng Enthalpy 
   40495    2414.3927    99.172485   -14781.832   -20914.609   -14741.255 
   42000    2386.8044    103.64846   -14922.133   -20984.833   -14879.956 
Loop time of 151.738 on 1 procs for 1505 steps with 19652 atoms

Performance: 0.857 ns/day, 28.006 hours/ns, 9.918 timesteps/s
99.9% CPU use with 1 MPI tasks x no OpenMP threads

MPI task timing breakdown:
Section |  min time  |  avg time  |  max time  |%varavg| %total
---------------------------------------------------------------
Pair    | 79.139     | 79.139     | 79.139     |   0.0 | 52.16
Neigh   | 67.379     | 67.379     | 67.379     |   0.0 | 44.41
Comm    | 1.9626     | 1.9626     | 1.9626     |   0.0 |  1.29
Output  | 0.050901   | 0.050901   | 0.050901   |   0.0 |  0.03
Modify  | 2.5881     | 2.5881     | 2.5881     |   0.0 |  1.71
Other   |            | 0.6177     |            |       |  0.41

Nlocal:    19652 ave 19652 max 19652 min
Histogram: 1 0 0 0 0 0 0 0 0 0
Nghost:    13933 ave 13933 max 13933 min
Histogram: 1 0 0 0 0 0 0 0 0 0
Neighs:    752575 ave 752575 max 752575 min
Histogram: 1 0 0 0 0 0 0 0 0 0

Total # of neighbors = 752575
Ave neighs/atom = 38.2951
Neighbor list builds = 1505
Dangerous builds not checked
Setting up Verlet run ...
  Unit style    : metal
  Current step  : 42000
  Time step     : 0.001
Per MPI rank memory allocation (min/avg/max) = 18.22 | 18.22 | 18.22 Mbytes
Step Temp Press TotEng PotEng Enthalpy 
   42000    2386.8044    103.64846   -14922.133   -20984.833   -14879.956 
   42495    2363.3887   -311.76215   -15100.503   -21103.725   -15226.905 
Loop time of 49.2036 on 1 procs for 495 steps with 19652 atoms

Performance: 0.869 ns/day, 27.611 hours/ns, 10.060 timesteps/s
99.9% CPU use with 1 MPI tasks x no OpenMP threads

MPI task timing breakdown:
Section |  min time  |  avg time  |  max time  |%varavg| %total
---------------------------------------------------------------
Pair    | 25.696     | 25.696     | 25.696     |   0.0 | 52.22
Neigh   | 21.822     | 21.822     | 21.822     |   0.0 | 44.35
Comm    | 0.63257    | 0.63257    | 0.63257    |   0.0 |  1.29
Output  | 0.00030804 | 0.00030804 | 0.00030804 |   0.0 |  0.00
Modify  | 0.84922    | 0.84922    | 0.84922    |   0.0 |  1.73
Other   |            | 0.2032     |            |       |  0.41

Nlocal:    19652 ave 19652 max 19652 min
Histogram: 1 0 0 0 0 0 0 0 0 0
Nghost:    13939 ave 13939 max 13939 min
Histogram: 1 0 0 0 0 0 0 0 0 0
Neighs:    755629 ave 755629 max 755629 min
Histogram: 1 0 0 0 0 0 0 0 0 0

Total # of neighbors = 755629
Ave neighs/atom = 38.4505
Neighbor list builds = 495
Dangerous builds not checked
Setting up Verlet run ...
  Unit style    : metal
  Current step  : 42495
  Time step     : 0.001
Per MPI rank memory allocation (min/avg/max) = 18.22 | 18.22 | 18.22 Mbytes
Step Temp Press TotEng PotEng Enthalpy 
   42495    2363.3887   -311.76215   -15100.503   -21103.725   -15226.905 
   44000    2361.8942   -214.63754   -15200.717   -21200.143   -15287.221 
Loop time of 152.993 on 1 procs for 1505 steps with 19652 atoms

Performance: 0.850 ns/day, 28.238 hours/ns, 9.837 timesteps/s
99.6% CPU use with 1 MPI tasks x no OpenMP threads

MPI task timing breakdown:
Section |  min time  |  avg time  |  max time  |%varavg| %total
---------------------------------------------------------------
Pair    | 80.18      | 80.18      | 80.18      |   0.0 | 52.41
Neigh   | 67.575     | 67.575     | 67.575     |   0.0 | 44.17
Comm    | 1.9659     | 1.9659     | 1.9659     |   0.0 |  1.28
Output  | 0.051263   | 0.051263   | 0.051263   |   0.0 |  0.03
Modify  | 2.5984     | 2.5984     | 2.5984     |   0.0 |  1.70
Other   |            | 0.6224     |            |       |  0.41

Nlocal:    19652 ave 19652 max 19652 min
Histogram: 1 0 0 0 0 0 0 0 0 0
Nghost:    13926 ave 13926 max 13926 min
Histogram: 1 0 0 0 0 0 0 0 0 0
Neighs:    759848 ave 759848 max 759848 min
Histogram: 1 0 0 0 0 0 0 0 0 0

Total # of neighbors = 759848
Ave neighs/atom = 38.6652
Neighbor list builds = 1505
Dangerous builds not checked
Setting up Verlet run ...
  Unit style    : metal
  Current step  : 44000
  Time step     : 0.001
Per MPI rank memory allocation (min/avg/max) = 18.22 | 18.22 | 18.22 Mbytes
Step Temp Press TotEng PotEng Enthalpy 
   44000    2361.8942   -214.63754   -15200.717   -21200.143   -15287.221 
   44495    2316.2223    27.066998   -15472.018   -21355.433   -15461.216 
Loop time of 49.5159 on 1 procs for 495 steps with 19652 atoms

Performance: 0.864 ns/day, 27.787 hours/ns, 9.997 timesteps/s
99.9% CPU use with 1 MPI tasks x no OpenMP threads

MPI task timing breakdown:
Section |  min time  |  avg time  |  max time  |%varavg| %total
---------------------------------------------------------------
Pair    | 25.968     | 25.968     | 25.968     |   0.0 | 52.44
Neigh   | 21.857     | 21.857     | 21.857     |   0.0 | 44.14
Comm    | 0.63314    | 0.63314    | 0.63314    |   0.0 |  1.28
Output  | 0.00029516 | 0.00029516 | 0.00029516 |   0.0 |  0.00
Modify  | 0.85315    | 0.85315    | 0.85315    |   0.0 |  1.72
Other   |            | 0.2042     |            |       |  0.41

Nlocal:    19652 ave 19652 max 19652 min
Histogram: 1 0 0 0 0 0 0 0 0 0
Nghost:    13891 ave 13891 max 13891 min
Histogram: 1 0 0 0 0 0 0 0 0 0
Neighs:    767294 ave 767294 max 767294 min
Histogram: 1 0 0 0 0 0 0 0 0 0

Total # of neighbors = 767294
Ave neighs/atom = 39.0441
Neighbor list builds = 495
Dangerous builds not checked
Setting up Verlet run ...
  Unit style    : metal
  Current step  : 44495
  Time step     : 0.001
Per MPI rank memory allocation (min/avg/max) = 18.22 | 18.22 | 18.22 Mbytes
Step Temp Press TotEng PotEng Enthalpy 
   44495    2316.2223    27.066998   -15472.018   -21355.433   -15461.216 
   46000    2297.7902   -297.52285   -15512.414    -21349.01   -15631.612 
Loop time of 152.808 on 1 procs for 1505 steps with 19652 atoms

Performance: 0.851 ns/day, 28.204 hours/ns, 9.849 timesteps/s
99.9% CPU use with 1 MPI tasks x no OpenMP threads

MPI task timing breakdown:
Section |  min time  |  avg time  |  max time  |%varavg| %total
---------------------------------------------------------------
Pair    | 80.245     | 80.245     | 80.245     |   0.0 | 52.51
Neigh   | 67.364     | 67.364     | 67.364     |   0.0 | 44.08
Comm    | 1.9591     | 1.9591     | 1.9591     |   0.0 |  1.28
Output  | 0.051074   | 0.051074   | 0.051074   |   0.0 |  0.03
Modify  | 2.5772     | 2.5772     | 2.5772     |   0.0 |  1.69
Other   |            | 0.6117     |            |       |  0.40

Nlocal:    19652 ave 19652 max 19652 min
Histogram: 1 0 0 0 0 0 0 0 0 0
Nghost:    14052 ave 14052 max 14052 min
Histogram: 1 0 0 0 0 0 0 0 0 0
Neighs:    764306 ave 764306 max 764306 min
Histogram: 1 0 0 0 0 0 0 0 0 0

Total # of neighbors = 764306
Ave neighs/atom = 38.892
Neighbor list builds = 1505
Dangerous builds not checked
Setting up Verlet run ...
  Unit style    : metal
  Current step  : 46000
  Time step     : 0.001
Per MPI rank memory allocation (min/avg/max) = 18.22 | 18.22 | 18.22 Mbytes
Step Temp Press TotEng PotEng Enthalpy 
   46000    2297.7902   -297.52285   -15512.414    -21349.01   -15631.612 
   46495    2279.0653   -240.94892   -15775.139   -21564.172   -15870.375 
Loop time of 49.7229 on 1 procs for 495 steps with 19652 atoms

Performance: 0.860 ns/day, 27.903 hours/ns, 9.955 timesteps/s
99.9% CPU use with 1 MPI tasks x no OpenMP threads

MPI task timing breakdown:
Section |  min time  |  avg time  |  max time  |%varavg| %total
---------------------------------------------------------------
Pair    | 26.146     | 26.146     | 26.146     |   0.0 | 52.58
Neigh   | 21.886     | 21.886     | 21.886     |   0.0 | 44.02
Comm    | 0.63531    | 0.63531    | 0.63531    |   0.0 |  1.28
Output  | 0.00033522 | 0.00033522 | 0.00033522 |   0.0 |  0.00
Modify  | 0.85197    | 0.85197    | 0.85197    |   0.0 |  1.71
Other   |            | 0.2033     |            |       |  0.41

Nlocal:    19652 ave 19652 max 19652 min
Histogram: 1 0 0 0 0 0 0 0 0 0
Nghost:    14142 ave 14142 max 14142 min
Histogram: 1 0 0 0 0 0 0 0 0 0
Neighs:    774605 ave 774605 max 774605 min
Histogram: 1 0 0 0 0 0 0 0 0 0

Total # of neighbors = 774605
Ave neighs/atom = 39.4161
Neighbor list builds = 495
Dangerous builds not checked
Setting up Verlet run ...
  Unit style    : metal
  Current step  : 46495
  Time step     : 0.001
Per MPI rank memory allocation (min/avg/max) = 18.22 | 18.22 | 18.22 Mbytes
Step Temp Press TotEng PotEng Enthalpy 
   46495    2279.0653   -240.94892   -15775.139   -21564.172   -15870.375 
   48000    2255.9854   -443.51158   -15823.171   -21553.579   -15998.559 
Loop time of 153.747 on 1 procs for 1505 steps with 19652 atoms

Performance: 0.846 ns/day, 28.377 hours/ns, 9.789 timesteps/s
99.9% CPU use with 1 MPI tasks x no OpenMP threads

MPI task timing breakdown:
Section |  min time  |  avg time  |  max time  |%varavg| %total
---------------------------------------------------------------
Pair    | 81.07      | 81.07      | 81.07      |   0.0 | 52.73
Neigh   | 67.448     | 67.448     | 67.448     |   0.0 | 43.87
Comm    | 1.9706     | 1.9706     | 1.9706     |   0.0 |  1.28
Output  | 0.051235   | 0.051235   | 0.051235   |   0.0 |  0.03
Modify  | 2.589      | 2.589      | 2.589      |   0.0 |  1.68
Other   |            | 0.6181     |            |       |  0.40

Nlocal:    19652 ave 19652 max 19652 min
Histogram: 1 0 0 0 0 0 0 0 0 0
Nghost:    14153 ave 14153 max 14153 min
Histogram: 1 0 0 0 0 0 0 0 0 0
Neighs:    774077 ave 774077 max 774077 min
Histogram: 1 0 0 0 0 0 0 0 0 0

Total # of neighbors = 774077
Ave neighs/atom = 39.3892
Neighbor list builds = 1505
Dangerous builds not checked
Setting up Verlet run ...
  Unit style    : metal
  Current step  : 48000
  Time step     : 0.001
Per MPI rank memory allocation (min/avg/max) = 18.22 | 18.22 | 18.22 Mbytes
Step Temp Press TotEng PotEng Enthalpy 
   48000    2255.9854   -443.51158   -15823.171   -21553.579   -15998.559 
   48495     2216.922   -98.678929   -16094.865   -21726.049   -16133.475 
Loop time of 50.0462 on 1 procs for 495 steps with 19652 atoms

Performance: 0.855 ns/day, 28.084 hours/ns, 9.891 timesteps/s
99.9% CPU use with 1 MPI tasks x no OpenMP threads

MPI task timing breakdown:
Section |  min time  |  avg time  |  max time  |%varavg| %total
---------------------------------------------------------------
Pair    | 26.494     | 26.494     | 26.494     |   0.0 | 52.94
Neigh   | 21.867     | 21.867     | 21.867     |   0.0 | 43.69
Comm    | 0.6333     | 0.6333     | 0.6333     |   0.0 |  1.27
Output  | 0.00030804 | 0.00030804 | 0.00030804 |   0.0 |  0.00
Modify  | 0.84868    | 0.84868    | 0.84868    |   0.0 |  1.70
Other   |            | 0.2028     |            |       |  0.41

Nlocal:    19652 ave 19652 max 19652 min
Histogram: 1 0 0 0 0 0 0 0 0 0
Nghost:    14144 ave 14144 max 14144 min
Histogram: 1 0 0 0 0 0 0 0 0 0
Neighs:    782543 ave 782543 max 782543 min
Histogram: 1 0 0 0 0 0 0 0 0 0

Total # of neighbors = 782543
Ave neighs/atom = 39.82
Neighbor list builds = 495
Dangerous builds not checked
Setting up Verlet run ...
  Unit style    : metal
  Current step  : 48495
  Time step     : 0.001
Per MPI rank memory allocation (min/avg/max) = 18.22 | 18.22 | 18.22 Mbytes
Step Temp Press TotEng PotEng Enthalpy 
   48495     2216.922   -98.678929   -16094.865   -21726.049   -16133.475 
   50000     2199.762   -151.03299   -16226.735    -21814.33   -16285.658 
Loop time of 154.779 on 1 procs for 1505 steps with 19652 atoms

Performance: 0.840 ns/day, 28.568 hours/ns, 9.724 timesteps/s
99.7% CPU use with 1 MPI tasks x no OpenMP threads

MPI task timing breakdown:
Section |  min time  |  avg time  |  max time  |%varavg| %total
---------------------------------------------------------------
Pair    | 81.973     | 81.973     | 81.973     |   0.0 | 52.96
Neigh   | 67.574     | 67.574     | 67.574     |   0.0 | 43.66
Comm    | 1.9727     | 1.9727     | 1.9727     |   0.0 |  1.27
Output  | 0.050658   | 0.050658   | 0.050658   |   0.0 |  0.03
Modify  | 2.5879     | 2.5879     | 2.5879     |   0.0 |  1.67
Other   |            | 0.6209     |            |       |  0.40

Nlocal:    19652 ave 19652 max 19652 min
Histogram: 1 0 0 0 0 0 0 0 0 0
Nghost:    14194 ave 14194 max 14194 min
Histogram: 1 0 0 0 0 0 0 0 0 0
Neighs:    785141 ave 785141 max 785141 min
Histogram: 1 0 0 0 0 0 0 0 0 0

Total # of neighbors = 785141
Ave neighs/atom = 39.9522
Neighbor list builds = 1505
Dangerous builds not checked
Setting up Verlet run ...
  Unit style    : metal
  Current step  : 50000
  Time step     : 0.001
Per MPI rank memory allocation (min/avg/max) = 18.22 | 18.22 | 18.22 Mbytes
Step Temp Press TotEng PotEng Enthalpy 
   50000     2199.762   -151.03299   -16226.735    -21814.33   -16285.658 
   50495    2162.6187   -403.53074   -16405.174   -21898.423   -16561.706 
Loop time of 50.1167 on 1 procs for 495 steps with 19652 atoms

Performance: 0.853 ns/day, 28.124 hours/ns, 9.877 timesteps/s
99.9% CPU use with 1 MPI tasks x no OpenMP threads

MPI task timing breakdown:
Section |  min time  |  avg time  |  max time  |%varavg| %total
---------------------------------------------------------------
Pair    | 26.547     | 26.547     | 26.547     |   0.0 | 52.97
Neigh   | 21.882     | 21.882     | 21.882     |   0.0 | 43.66
Comm    | 0.63776    | 0.63776    | 0.63776    |   0.0 |  1.27
Output  | 0.00030112 | 0.00030112 | 0.00030112 |   0.0 |  0.00
Modify  | 0.84732    | 0.84732    | 0.84732    |   0.0 |  1.69
Other   |            | 0.2029     |            |       |  0.40

Nlocal:    19652 ave 19652 max 19652 min
Histogram: 1 0 0 0 0 0 0 0 0 0
Nghost:    14232 ave 14232 max 14232 min
Histogram: 1 0 0 0 0 0 0 0 0 0
Neighs:    789512 ave 789512 max 789512 min
Histogram: 1 0 0 0 0 0 0 0 0 0

Total # of neighbors = 789512
Ave neighs/atom = 40.1746
Neighbor list builds = 495
Dangerous builds not checked
Setting up Verlet run ...
  Unit style    : metal
  Current step  : 50495
  Time step     : 0.001
Per MPI rank memory allocation (min/avg/max) = 18.22 | 18.22 | 18.22 Mbytes
Step Temp Press TotEng PotEng Enthalpy 
   50495    2162.6187   -403.53074   -16405.174   -21898.423   -16561.706 
   52000    2142.2131   -142.77909   -16579.601   -22021.018   -16634.619 
Loop time of 155.036 on 1 procs for 1505 steps with 19652 atoms

Performance: 0.839 ns/day, 28.615 hours/ns, 9.707 timesteps/s
99.9% CPU use with 1 MPI tasks x no OpenMP threads

MPI task timing breakdown:
Section |  min time  |  avg time  |  max time  |%varavg| %total
---------------------------------------------------------------
Pair    | 82.365     | 82.365     | 82.365     |   0.0 | 53.13
Neigh   | 67.454     | 67.454     | 67.454     |   0.0 | 43.51
Comm    | 1.9648     | 1.9648     | 1.9648     |   0.0 |  1.27
Output  | 0.050893   | 0.050893   | 0.050893   |   0.0 |  0.03
Modify  | 2.5835     | 2.5835     | 2.5835     |   0.0 |  1.67
Other   |            | 0.618      |            |       |  0.40

Nlocal:    19652 ave 19652 max 19652 min
Histogram: 1 0 0 0 0 0 0 0 0 0
Nghost:    14313 ave 14313 max 14313 min
Histogram: 1 0 0 0 0 0 0 0 0 0
Neighs:    794907 ave 794907 max 794907 min
Histogram: 1 0 0 0 0 0 0 0 0 0

Total # of neighbors = 794907
Ave neighs/atom = 40.4492
Neighbor list builds = 1505
Dangerous builds not checked
Setting up Verlet run ...
  Unit style    : metal
  Current step  : 52000
  Time step     : 0.001
Per MPI rank memory allocation (min/avg/max) = 18.22 | 18.22 | 18.22 Mbytes
Step Temp Press TotEng PotEng Enthalpy 
   52000    2142.2131   -142.77909   -16579.601   -22021.018   -16634.619 
   52495    2110.7259    -527.4724   -16736.015   -22097.451   -16939.161 
Loop time of 50.435 on 1 procs for 495 steps with 19652 atoms

Performance: 0.848 ns/day, 28.302 hours/ns, 9.815 timesteps/s
99.9% CPU use with 1 MPI tasks x no OpenMP threads

MPI task timing breakdown:
Section |  min time  |  avg time  |  max time  |%varavg| %total
---------------------------------------------------------------
Pair    | 26.847     | 26.847     | 26.847     |   0.0 | 53.23
Neigh   | 21.903     | 21.903     | 21.903     |   0.0 | 43.43
Comm    | 0.63629    | 0.63629    | 0.63629    |   0.0 |  1.26
Output  | 0.00022697 | 0.00022697 | 0.00022697 |   0.0 |  0.00
Modify  | 0.84651    | 0.84651    | 0.84651    |   0.0 |  1.68
Other   |            | 0.2019     |            |       |  0.40

Nlocal:    19652 ave 19652 max 19652 min
Histogram: 1 0 0 0 0 0 0 0 0 0
Nghost:    14348 ave 14348 max 14348 min
Histogram: 1 0 0 0 0 0 0 0 0 0
Neighs:    794586 ave 794586 max 794586 min
Histogram: 1 0 0 0 0 0 0 0 0 0

Total # of neighbors = 794586
Ave neighs/atom = 40.4328
Neighbor list builds = 495
Dangerous builds not checked
Setting up Verlet run ...
  Unit style    : metal
  Current step  : 52495
  Time step     : 0.001
Per MPI rank memory allocation (min/avg/max) = 18.22 | 18.22 | 18.22 Mbytes
Step Temp Press TotEng PotEng Enthalpy 
   52495    2110.7259    -527.4724   -16736.015   -22097.451   -16939.161 
   54000    2101.5472   -131.46969   -16832.522   -22170.643   -16882.806 
Loop time of 159.576 on 1 procs for 1505 steps with 19652 atoms

Performance: 0.815 ns/day, 29.453 hours/ns, 9.431 timesteps/s
99.9% CPU use with 1 MPI tasks x no OpenMP threads

MPI task timing breakdown:
Section |  min time  |  avg time  |  max time  |%varavg| %total
---------------------------------------------------------------
Pair    | 82.812     | 82.812     | 82.812     |   0.0 | 51.89
Neigh   | 71.547     | 71.547     | 71.547     |   0.0 | 44.84
Comm    | 1.9706     | 1.9706     | 1.9706     |   0.0 |  1.23
Output  | 0.051065   | 0.051065   | 0.051065   |   0.0 |  0.03
Modify  | 2.5814     | 2.5814     | 2.5814     |   0.0 |  1.62
Other   |            | 0.6147     |            |       |  0.39

Nlocal:    19652 ave 19652 max 19652 min
Histogram: 1 0 0 0 0 0 0 0 0 0
Nghost:    14371 ave 14371 max 14371 min
Histogram: 1 0 0 0 0 0 0 0 0 0
Neighs:    800443 ave 800443 max 800443 min
Histogram: 1 0 0 0 0 0 0 0 0 0

Total # of neighbors = 800443
Ave neighs/atom = 40.7309
Neighbor list builds = 1505
Dangerous builds not checked
Setting up Verlet run ...
  Unit style    : metal
  Current step  : 54000
  Time step     : 0.001
Per MPI rank memory allocation (min/avg/max) = 18.22 | 18.22 | 18.22 Mbytes
Step Temp Press TotEng PotEng Enthalpy 
   54000    2101.5472   -131.46969   -16832.522   -22170.643   -16882.806 
   54495    2077.9337   -209.67611   -17043.564   -22321.705   -17123.176 
Loop time of 52.2668 on 1 procs for 495 steps with 19652 atoms

Performance: 0.818 ns/day, 29.330 hours/ns, 9.471 timesteps/s
99.9% CPU use with 1 MPI tasks x no OpenMP threads

MPI task timing breakdown:
Section |  min time  |  avg time  |  max time  |%varavg| %total
---------------------------------------------------------------
Pair    | 27.137     | 27.137     | 27.137     |   0.0 | 51.92
Neigh   | 23.436     | 23.436     | 23.436     |   0.0 | 44.84
Comm    | 0.63904    | 0.63904    | 0.63904    |   0.0 |  1.22
Output  | 0.00030708 | 0.00030708 | 0.00030708 |   0.0 |  0.00
Modify  | 0.85107    | 0.85107    | 0.85107    |   0.0 |  1.63
Other   |            | 0.2038     |            |       |  0.39

Nlocal:    19652 ave 19652 max 19652 min
Histogram: 1 0 0 0 0 0 0 0 0 0
Nghost:    14480 ave 14480 max 14480 min
Histogram: 1 0 0 0 0 0 0 0 0 0
Neighs:    806371 ave 806371 max 806371 min
Histogram: 1 0 0 0 0 0 0 0 0 0

Total # of neighbors = 806371
Ave neighs/atom = 41.0325
Neighbor list builds = 495
Dangerous builds not checked
Setting up Verlet run ...
  Unit style    : metal
  Current step  : 54495
  Time step     : 0.001
Per MPI rank memory allocation (min/avg/max) = 18.22 | 18.22 | 18.22 Mbytes
Step Temp Press TotEng PotEng Enthalpy 
   54495    2077.9337   -209.67611   -17043.564   -22321.705   -17123.176 
   56000    2045.2917      240.199   -17101.903    -22297.13   -17010.737 
Loop time of 161.122 on 1 procs for 1505 steps with 19652 atoms

Performance: 0.807 ns/day, 29.738 hours/ns, 9.341 timesteps/s
99.6% CPU use with 1 MPI tasks x no OpenMP threads

MPI task timing breakdown:
Section |  min time  |  avg time  |  max time  |%varavg| %total
---------------------------------------------------------------
Pair    | 83.57      | 83.57      | 83.57      |   0.0 | 51.87
Neigh   | 72.339     | 72.339     | 72.339     |   0.0 | 44.90
Comm    | 1.971      | 1.971      | 1.971      |   0.0 |  1.22
Output  | 0.051014   | 0.051014   | 0.051014   |   0.0 |  0.03
Modify  | 2.5784     | 2.5784     | 2.5784     |   0.0 |  1.60
Other   |            | 0.6124     |            |       |  0.38

Nlocal:    19652 ave 19652 max 19652 min
Histogram: 1 0 0 0 0 0 0 0 0 0
Nghost:    14438 ave 14438 max 14438 min
Histogram: 1 0 0 0 0 0 0 0 0 0
Neighs:    806545 ave 806545 max 806545 min
Histogram: 1 0 0 0 0 0 0 0 0 0

Total # of neighbors = 806545
Ave neighs/atom = 41.0414
Neighbor list builds = 1505
Dangerous builds not checked
Setting up Verlet run ...
  Unit style    : metal
  Current step  : 56000
  Time step     : 0.001
Per MPI rank memory allocation (min/avg/max) = 18.22 | 18.22 | 18.22 Mbytes
Step Temp Press TotEng PotEng Enthalpy 
   56000    2045.2917      240.199   -17101.903    -22297.13   -17010.737 
   56495    2013.4247    211.23168    -17329.11   -22443.392   -17249.616 
Loop time of 52.3765 on 1 procs for 495 steps with 19652 atoms

Performance: 0.817 ns/day, 29.392 hours/ns, 9.451 timesteps/s
99.9% CPU use with 1 MPI tasks x no OpenMP threads

MPI task timing breakdown:
Section |  min time  |  avg time  |  max time  |%varavg| %total
---------------------------------------------------------------
Pair    | 27.208     | 27.208     | 27.208     |   0.0 | 51.95
Neigh   | 23.476     | 23.476     | 23.476     |   0.0 | 44.82
Comm    | 0.63737    | 0.63737    | 0.63737    |   0.0 |  1.22
Output  | 0.00023103 | 0.00023103 | 0.00023103 |   0.0 |  0.00
Modify  | 0.85132    | 0.85132    | 0.85132    |   0.0 |  1.63
Other   |            | 0.2029     |            |       |  0.39

Nlocal:    19652 ave 19652 max 19652 min
Histogram: 1 0 0 0 0 0 0 0 0 0
Nghost:    14404 ave 14404 max 14404 min
Histogram: 1 0 0 0 0 0 0 0 0 0
Neighs:    813603 ave 813603 max 813603 min
Histogram: 1 0 0 0 0 0 0 0 0 0

Total # of neighbors = 813603
Ave neighs/atom = 41.4005
Neighbor list builds = 495
Dangerous builds not checked
Setting up Verlet run ...
  Unit style    : metal
  Current step  : 56495
  Time step     : 0.001
Per MPI rank memory allocation (min/avg/max) = 18.22 | 18.22 | 18.22 Mbytes
Step Temp Press TotEng PotEng Enthalpy 
   56495    2013.4247    211.23168    -17329.11   -22443.392   -17249.616 
   58000    1987.7765   -375.80085   -17523.124   -22572.257   -17664.316 
Loop time of 161.847 on 1 procs for 1505 steps with 19652 atoms

Performance: 0.803 ns/day, 29.872 hours/ns, 9.299 timesteps/s
99.5% CPU use with 1 MPI tasks x no OpenMP threads

MPI task timing breakdown:
Section |  min time  |  avg time  |  max time  |%varavg| %total
---------------------------------------------------------------
Pair    | 84.102     | 84.102     | 84.102     |   0.0 | 51.96
Neigh   | 72.519     | 72.519     | 72.519     |   0.0 | 44.81
Comm    | 1.9749     | 1.9749     | 1.9749     |   0.0 |  1.22
Output  | 0.051313   | 0.051313   | 0.051313   |   0.0 |  0.03
Modify  | 2.5857     | 2.5857     | 2.5857     |   0.0 |  1.60
Other   |            | 0.6134     |            |       |  0.38

Nlocal:    19652 ave 19652 max 19652 min
Histogram: 1 0 0 0 0 0 0 0 0 0
Nghost:    14437 ave 14437 max 14437 min
Histogram: 1 0 0 0 0 0 0 0 0 0
Neighs:    815229 ave 815229 max 815229 min
Histogram: 1 0 0 0 0 0 0 0 0 0

Total # of neighbors = 815229
Ave neighs/atom = 41.4833
Neighbor list builds = 1505
Dangerous builds not checked
Setting up Verlet run ...
  Unit style    : metal
  Current step  : 58000
  Time step     : 0.001
Per MPI rank memory allocation (min/avg/max) = 18.22 | 18.22 | 18.22 Mbytes
Step Temp Press TotEng PotEng Enthalpy 
   58000    1987.7765   -375.80085   -17523.124   -22572.257   -17664.316 
   58495     1965.009    246.24905   -17633.482   -22624.784   -17541.536 
Loop time of 52.7478 on 1 procs for 495 steps with 19652 atoms

Performance: 0.811 ns/day, 29.600 hours/ns, 9.384 timesteps/s
99.8% CPU use with 1 MPI tasks x no OpenMP threads

MPI task timing breakdown:
Section |  min time  |  avg time  |  max time  |%varavg| %total
---------------------------------------------------------------
Pair    | 27.539     | 27.539     | 27.539     |   0.0 | 52.21
Neigh   | 23.516     | 23.516     | 23.516     |   0.0 | 44.58
Comm    | 0.6379     | 0.6379     | 0.6379     |   0.0 |  1.21
Output  | 0.00030708 | 0.00030708 | 0.00030708 |   0.0 |  0.00
Modify  | 0.85105    | 0.85105    | 0.85105    |   0.0 |  1.61
Other   |            | 0.2037     |            |       |  0.39

Nlocal:    19652 ave 19652 max 19652 min
Histogram: 1 0 0 0 0 0 0 0 0 0
Nghost:    14489 ave 14489 max 14489 min
Histogram: 1 0 0 0 0 0 0 0 0 0
Neighs:    820271 ave 820271 max 820271 min
Histogram: 1 0 0 0 0 0 0 0 0 0

Total # of neighbors = 820271
Ave neighs/atom = 41.7398
Neighbor list builds = 495
Dangerous builds not checked
Setting up Verlet run ...
  Unit style    : metal
  Current step  : 58495
  Time step     : 0.001
Per MPI rank memory allocation (min/avg/max) = 18.22 | 18.22 | 18.22 Mbytes
Step Temp Press TotEng PotEng Enthalpy 
   58495     1965.009    246.24905   -17633.482   -22624.784   -17541.536 
   60000    1953.9463   -383.65275   -17643.077   -22606.279   -17786.767 
Loop time of 162.18 on 1 procs for 1505 steps with 19652 atoms

Performance: 0.802 ns/day, 29.934 hours/ns, 9.280 timesteps/s
99.9% CPU use with 1 MPI tasks x no OpenMP threads

MPI task timing breakdown:
Section |  min time  |  avg time  |  max time  |%varavg| %total
---------------------------------------------------------------
Pair    | 84.742     | 84.742     | 84.742     |   0.0 | 52.25
Neigh   | 72.202     | 72.202     | 72.202     |   0.0 | 44.52
Comm    | 1.9907     | 1.9907     | 1.9907     |   0.0 |  1.23
Output  | 0.051734   | 0.051734   | 0.051734   |   0.0 |  0.03
Modify  | 2.5794     | 2.5794     | 2.5794     |   0.0 |  1.59
Other   |            | 0.6138     |            |       |  0.38

Nlocal:    19652 ave 19652 max 19652 min
Histogram: 1 0 0 0 0 0 0 0 0 0
Nghost:    14395 ave 14395 max 14395 min
Histogram: 1 0 0 0 0 0 0 0 0 0
Neighs:    818146 ave 818146 max 818146 min
Histogram: 1 0 0 0 0 0 0 0 0 0

Total # of neighbors = 818146
Ave neighs/atom = 41.6317
Neighbor list builds = 1505
Dangerous builds not checked
Setting up Verlet run ...
  Unit style    : metal
  Current step  : 60000
  Time step     : 0.001
Per MPI rank memory allocation (min/avg/max) = 18.22 | 18.22 | 18.22 Mbytes
Step Temp Press TotEng PotEng Enthalpy 
   60000    1953.9463   -383.65275   -17643.077   -22606.279   -17786.767 
   60495    1909.6209    334.31607    -17935.12   -22785.732   -17811.485 
Loop time of 52.7531 on 1 procs for 495 steps with 19652 atoms

Performance: 0.811 ns/day, 29.603 hours/ns, 9.383 timesteps/s
99.9% CPU use with 1 MPI tasks x no OpenMP threads

MPI task timing breakdown:
Section |  min time  |  avg time  |  max time  |%varavg| %total
---------------------------------------------------------------
Pair    | 27.615     | 27.615     | 27.615     |   0.0 | 52.35
Neigh   | 23.448     | 23.448     | 23.448     |   0.0 | 44.45
Comm    | 0.63684    | 0.63684    | 0.63684    |   0.0 |  1.21
Output  | 0.00022817 | 0.00022817 | 0.00022817 |   0.0 |  0.00
Modify  | 0.84991    | 0.84991    | 0.84991    |   0.0 |  1.61
Other   |            | 0.2036     |            |       |  0.39

Nlocal:    19652 ave 19652 max 19652 min
Histogram: 1 0 0 0 0 0 0 0 0 0
Nghost:    14525 ave 14525 max 14525 min
Histogram: 1 0 0 0 0 0 0 0 0 0
Neighs:    828015 ave 828015 max 828015 min
Histogram: 1 0 0 0 0 0 0 0 0 0

Total # of neighbors = 828015
Ave neighs/atom = 42.1339
Neighbor list builds = 495
Dangerous builds not checked
Setting up Verlet run ...
  Unit style    : metal
  Current step  : 60495
  Time step     : 0.001
Per MPI rank memory allocation (min/avg/max) = 18.22 | 18.22 | 18.22 Mbytes
Step Temp Press TotEng PotEng Enthalpy 
   60495    1909.6209    334.31607    -17935.12   -22785.732   -17811.485 
   62000    1901.0545   -94.623984   -18018.156   -22847.008    -18053.16 
Loop time of 163.048 on 1 procs for 1505 steps with 19652 atoms

Performance: 0.798 ns/day, 30.094 hours/ns, 9.230 timesteps/s
99.7% CPU use with 1 MPI tasks x no OpenMP threads

MPI task timing breakdown:
Section |  min time  |  avg time  |  max time  |%varavg| %total
---------------------------------------------------------------
Pair    | 85.488     | 85.488     | 85.488     |   0.0 | 52.43
Neigh   | 72.338     | 72.338     | 72.338     |   0.0 | 44.37
Comm    | 1.9692     | 1.9692     | 1.9692     |   0.0 |  1.21
Output  | 0.051025   | 0.051025   | 0.051025   |   0.0 |  0.03
Modify  | 2.5843     | 2.5843     | 2.5843     |   0.0 |  1.58
Other   |            | 0.6175     |            |       |  0.38

Nlocal:    19652 ave 19652 max 19652 min
Histogram: 1 0 0 0 0 0 0 0 0 0
Nghost:    14487 ave 14487 max 14487 min
Histogram: 1 0 0 0 0 0 0 0 0 0
Neighs:    828148 ave 828148 max 828148 min
Histogram: 1 0 0 0 0 0 0 0 0 0

Total # of neighbors = 828148
Ave neighs/atom = 42.1406
Neighbor list builds = 1505
Dangerous builds not checked
Setting up Verlet run ...
  Unit style    : metal
  Current step  : 62000
  Time step     : 0.001
Per MPI rank memory allocation (min/avg/max) = 18.22 | 18.22 | 18.22 Mbytes
Step Temp Press TotEng PotEng Enthalpy 
   62000    1901.0545   -94.623984   -18018.156   -22847.008    -18053.16 
   62495    1862.6246    68.558695   -18230.724   -22961.961   -18205.522 
Loop time of 52.9847 on 1 procs for 495 steps with 19652 atoms

Performance: 0.807 ns/day, 29.733 hours/ns, 9.342 timesteps/s
99.8% CPU use with 1 MPI tasks x no OpenMP threads

MPI task timing breakdown:
Section |  min time  |  avg time  |  max time  |%varavg| %total
---------------------------------------------------------------
Pair    | 27.831     | 27.831     | 27.831     |   0.0 | 52.53
Neigh   | 23.463     | 23.463     | 23.463     |   0.0 | 44.28
Comm    | 0.637      | 0.637      | 0.637      |   0.0 |  1.20
Output  | 0.00030899 | 0.00030899 | 0.00030899 |   0.0 |  0.00
Modify  | 0.84953    | 0.84953    | 0.84953    |   0.0 |  1.60
Other   |            | 0.204      |            |       |  0.38

Nlocal:    19652 ave 19652 max 19652 min
Histogram: 1 0 0 0 0 0 0 0 0 0
Nghost:    14662 ave 14662 max 14662 min
Histogram: 1 0 0 0 0 0 0 0 0 0
Neighs:    833393 ave 833393 max 833393 min
Histogram: 1 0 0 0 0 0 0 0 0 0

Total # of neighbors = 833393
Ave neighs/atom = 42.4075
Neighbor list builds = 495
Dangerous builds not checked
Setting up Verlet run ...
  Unit style    : metal
  Current step  : 62495
  Time step     : 0.001
Per MPI rank memory allocation (min/avg/max) = 18.22 | 18.22 | 18.22 Mbytes
Step Temp Press TotEng PotEng Enthalpy 
   62495    1862.6246    68.558695   -18230.724   -22961.961   -18205.522 
   64000    1846.9397   -745.72091    -18311.48   -23002.875   -18585.767 
Loop time of 163.393 on 1 procs for 1505 steps with 19652 atoms

Performance: 0.796 ns/day, 30.157 hours/ns, 9.211 timesteps/s
99.9% CPU use with 1 MPI tasks x no OpenMP threads

MPI task timing breakdown:
Section |  min time  |  avg time  |  max time  |%varavg| %total
---------------------------------------------------------------
Pair    | 85.974     | 85.974     | 85.974     |   0.0 | 52.62
Neigh   | 72.194     | 72.194     | 72.194     |   0.0 | 44.18
Comm    | 1.9706     | 1.9706     | 1.9706     |   0.0 |  1.21
Output  | 0.051215   | 0.051215   | 0.051215   |   0.0 |  0.03
Modify  | 2.5828     | 2.5828     | 2.5828     |   0.0 |  1.58
Other   |            | 0.6205     |            |       |  0.38

Nlocal:    19652 ave 19652 max 19652 min
Histogram: 1 0 0 0 0 0 0 0 0 0
Nghost:    14526 ave 14526 max 14526 min
Histogram: 1 0 0 0 0 0 0 0 0 0
Neighs:    832387 ave 832387 max 832387 min
Histogram: 1 0 0 0 0 0 0 0 0 0

Total # of neighbors = 832387
Ave neighs/atom = 42.3564
Neighbor list builds = 1505
Dangerous builds not checked
Setting up Verlet run ...
  Unit style    : metal
  Current step  : 64000
  Time step     : 0.001
Per MPI rank memory allocation (min/avg/max) = 18.22 | 18.22 | 18.22 Mbytes
Step Temp Press TotEng PotEng Enthalpy 
   64000    1846.9397   -745.72091    -18311.48   -23002.875   -18585.767 
   64495    1820.9761    98.017064   -18539.919   -23165.364   -18504.229 
Loop time of 53.3592 on 1 procs for 495 steps with 19652 atoms

Performance: 0.802 ns/day, 29.943 hours/ns, 9.277 timesteps/s
99.8% CPU use with 1 MPI tasks x no OpenMP threads

MPI task timing breakdown:
Section |  min time  |  avg time  |  max time  |%varavg| %total
---------------------------------------------------------------
Pair    | 28.117     | 28.117     | 28.117     |   0.0 | 52.69
Neigh   | 23.548     | 23.548     | 23.548     |   0.0 | 44.13
Comm    | 0.63888    | 0.63888    | 0.63888    |   0.0 |  1.20
Output  | 0.00029707 | 0.00029707 | 0.00029707 |   0.0 |  0.00
Modify  | 0.851      | 0.851      | 0.851      |   0.0 |  1.59
Other   |            | 0.2048     |            |       |  0.38

Nlocal:    19652 ave 19652 max 19652 min
Histogram: 1 0 0 0 0 0 0 0 0 0
Nghost:    14598 ave 14598 max 14598 min
Histogram: 1 0 0 0 0 0 0 0 0 0
Neighs:    841245 ave 841245 max 841245 min
Histogram: 1 0 0 0 0 0 0 0 0 0

Total # of neighbors = 841245
Ave neighs/atom = 42.8071
Neighbor list builds = 495
Dangerous builds not checked
Setting up Verlet run ...
  Unit style    : metal
  Current step  : 64495
  Time step     : 0.001
Per MPI rank memory allocation (min/avg/max) = 18.22 | 18.22 | 18.22 Mbytes
Step Temp Press TotEng PotEng Enthalpy 
   64495    1820.9761    98.017064   -18539.919   -23165.364   -18504.229 
   66000    1797.6686   -345.69954    -18596.01   -23162.252   -18722.101 
Loop time of 164.014 on 1 procs for 1505 steps with 19652 atoms

Performance: 0.793 ns/day, 30.272 hours/ns, 9.176 timesteps/s
99.8% CPU use with 1 MPI tasks x no OpenMP threads

MPI task timing breakdown:
Section |  min time  |  avg time  |  max time  |%varavg| %total
---------------------------------------------------------------
Pair    | 86.57      | 86.57      | 86.57      |   0.0 | 52.78
Neigh   | 72.204     | 72.204     | 72.204     |   0.0 | 44.02
Comm    | 1.9738     | 1.9738     | 1.9738     |   0.0 |  1.20
Output  | 0.051505   | 0.051505   | 0.051505   |   0.0 |  0.03
Modify  | 2.5939     | 2.5939     | 2.5939     |   0.0 |  1.58
Other   |            | 0.6205     |            |       |  0.38

Nlocal:    19652 ave 19652 max 19652 min
Histogram: 1 0 0 0 0 0 0 0 0 0
Nghost:    14630 ave 14630 max 14630 min
Histogram: 1 0 0 0 0 0 0 0 0 0
Neighs:    839257 ave 839257 max 839257 min
Histogram: 1 0 0 0 0 0 0 0 0 0

Total # of neighbors = 839257
Ave neighs/atom = 42.7059
Neighbor list builds = 1505
Dangerous builds not checked
Setting up Verlet run ...
  Unit style    : metal
  Current step  : 66000
  Time step     : 0.001
Per MPI rank memory allocation (min/avg/max) = 18.22 | 18.22 | 18.22 Mbytes
Step Temp Press TotEng PotEng Enthalpy 
   66000    1797.6686   -345.69954    -18596.01   -23162.252   -18722.101 
   66495    1760.0271    475.57033   -18820.707   -23291.336   -18648.843 
Loop time of 53.9654 on 1 procs for 495 steps with 19652 atoms

Performance: 0.793 ns/day, 30.284 hours/ns, 9.173 timesteps/s
99.0% CPU use with 1 MPI tasks x no OpenMP threads

MPI task timing breakdown:
Section |  min time  |  avg time  |  max time  |%varavg| %total
---------------------------------------------------------------
Pair    | 28.519     | 28.519     | 28.519     |   0.0 | 52.85
Neigh   | 23.727     | 23.727     | 23.727     |   0.0 | 43.97
Comm    | 0.64461    | 0.64461    | 0.64461    |   0.0 |  1.19
Output  | 0.00031996 | 0.00031996 | 0.00031996 |   0.0 |  0.00
Modify  | 0.85313    | 0.85313    | 0.85313    |   0.0 |  1.58
Other   |            | 0.2218     |            |       |  0.41

Nlocal:    19652 ave 19652 max 19652 min
Histogram: 1 0 0 0 0 0 0 0 0 0
Nghost:    14649 ave 14649 max 14649 min
Histogram: 1 0 0 0 0 0 0 0 0 0
Neighs:    848306 ave 848306 max 848306 min
Histogram: 1 0 0 0 0 0 0 0 0 0

Total # of neighbors = 848306
Ave neighs/atom = 43.1664
Neighbor list builds = 495
Dangerous builds not checked
Setting up Verlet run ...
  Unit style    : metal
  Current step  : 66495
  Time step     : 0.001
Per MPI rank memory allocation (min/avg/max) = 18.22 | 18.22 | 18.22 Mbytes
Step Temp Press TotEng PotEng Enthalpy 
   66495    1760.0271    475.57033   -18820.707   -23291.336   -18648.843 
   68000    1756.0275    236.61326   -18929.462   -23389.931   -18844.241 
Loop time of 164.614 on 1 procs for 1505 steps with 19652 atoms

Performance: 0.790 ns/day, 30.383 hours/ns, 9.143 timesteps/s
99.7% CPU use with 1 MPI tasks x no OpenMP threads

MPI task timing breakdown:
Section |  min time  |  avg time  |  max time  |%varavg| %total
---------------------------------------------------------------
Pair    | 87.019     | 87.019     | 87.019     |   0.0 | 52.86
Neigh   | 72.335     | 72.335     | 72.335     |   0.0 | 43.94
Comm    | 1.9731     | 1.9731     | 1.9731     |   0.0 |  1.20
Output  | 0.051986   | 0.051986   | 0.051986   |   0.0 |  0.03
Modify  | 2.616      | 2.616      | 2.616      |   0.0 |  1.59
Other   |            | 0.6189     |            |       |  0.38

Nlocal:    19652 ave 19652 max 19652 min
Histogram: 1 0 0 0 0 0 0 0 0 0
Nghost:    14663 ave 14663 max 14663 min
Histogram: 1 0 0 0 0 0 0 0 0 0
Neighs:    850612 ave 850612 max 850612 min
Histogram: 1 0 0 0 0 0 0 0 0 0

Total # of neighbors = 850612
Ave neighs/atom = 43.2837
Neighbor list builds = 1505
Dangerous builds not checked
Setting up Verlet run ...
  Unit style    : metal
  Current step  : 68000
  Time step     : 0.001
Per MPI rank memory allocation (min/avg/max) = 18.22 | 18.22 | 18.22 Mbytes
Step Temp Press TotEng PotEng Enthalpy 
   68000    1756.0275    236.61326   -18929.462   -23389.931   -18844.241 
   68495    1701.8032     -127.934    -19076.63   -23399.366   -19122.716 
Loop time of 53.6634 on 1 procs for 495 steps with 19652 atoms

Performance: 0.797 ns/day, 30.114 hours/ns, 9.224 timesteps/s
99.8% CPU use with 1 MPI tasks x no OpenMP threads

MPI task timing breakdown:
Section |  min time  |  avg time  |  max time  |%varavg| %total
---------------------------------------------------------------
Pair    | 28.417     | 28.417     | 28.417     |   0.0 | 52.95
Neigh   | 23.546     | 23.546     | 23.546     |   0.0 | 43.88
Comm    | 0.64237    | 0.64237    | 0.64237    |   0.0 |  1.20
Output  | 0.00033712 | 0.00033712 | 0.00033712 |   0.0 |  0.00
Modify  | 0.85239    | 0.85239    | 0.85239    |   0.0 |  1.59
Other   |            | 0.2057     |            |       |  0.38

Nlocal:    19652 ave 19652 max 19652 min
Histogram: 1 0 0 0 0 0 0 0 0 0
Nghost:    14696 ave 14696 max 14696 min
Histogram: 1 0 0 0 0 0 0 0 0 0
Neighs:    850241 ave 850241 max 850241 min
Histogram: 1 0 0 0 0 0 0 0 0 0

Total # of neighbors = 850241
Ave neighs/atom = 43.2649
Neighbor list builds = 495
Dangerous builds not checked
Setting up Verlet run ...
  Unit style    : metal
  Current step  : 68495
  Time step     : 0.001
Per MPI rank memory allocation (min/avg/max) = 18.22 | 18.22 | 18.22 Mbytes
Step Temp Press TotEng PotEng Enthalpy 
   68495    1701.8032     -127.934    -19076.63   -23399.366   -19122.716 
   70000     1717.451   -57.040849    -19146.08   -23508.562   -19166.531 
Loop time of 164.967 on 1 procs for 1505 steps with 19652 atoms

Performance: 0.788 ns/day, 30.448 hours/ns, 9.123 timesteps/s
99.8% CPU use with 1 MPI tasks x no OpenMP threads

MPI task timing breakdown:
Section |  min time  |  avg time  |  max time  |%varavg| %total
---------------------------------------------------------------
Pair    | 87.51      | 87.51      | 87.51      |   0.0 | 53.05
Neigh   | 72.217     | 72.217     | 72.217     |   0.0 | 43.78
Comm    | 1.9776     | 1.9776     | 1.9776     |   0.0 |  1.20
Output  | 0.050941   | 0.050941   | 0.050941   |   0.0 |  0.03
Modify  | 2.5914     | 2.5914     | 2.5914     |   0.0 |  1.57
Other   |            | 0.6203     |            |       |  0.38

Nlocal:    19652 ave 19652 max 19652 min
Histogram: 1 0 0 0 0 0 0 0 0 0
Nghost:    14649 ave 14649 max 14649 min
Histogram: 1 0 0 0 0 0 0 0 0 0
Neighs:    854269 ave 854269 max 854269 min
Histogram: 1 0 0 0 0 0 0 0 0 0

Total # of neighbors = 854269
Ave neighs/atom = 43.4698
Neighbor list builds = 1505
Dangerous builds not checked
Setting up Verlet run ...
  Unit style    : metal
  Current step  : 70000
  Time step     : 0.001
Per MPI rank memory allocation (min/avg/max) = 18.22 | 18.22 | 18.22 Mbytes
Step Temp Press TotEng PotEng Enthalpy 
   70000     1717.451   -57.040849    -19146.08   -23508.562   -19166.531 
   70495    1664.9156   -269.66616    -19347.42   -23576.457   -19443.845 
Loop time of 53.9441 on 1 procs for 495 steps with 19652 atoms

Performance: 0.793 ns/day, 30.272 hours/ns, 9.176 timesteps/s
99.7% CPU use with 1 MPI tasks x no OpenMP threads

MPI task timing breakdown:
Section |  min time  |  avg time  |  max time  |%varavg| %total
---------------------------------------------------------------
Pair    | 28.712     | 28.712     | 28.712     |   0.0 | 53.23
Neigh   | 23.537     | 23.537     | 23.537     |   0.0 | 43.63
Comm    | 0.64135    | 0.64135    | 0.64135    |   0.0 |  1.19
Output  | 0.00030208 | 0.00030208 | 0.00030208 |   0.0 |  0.00
Modify  | 0.85039    | 0.85039    | 0.85039    |   0.0 |  1.58
Other   |            | 0.2032     |            |       |  0.38

Nlocal:    19652 ave 19652 max 19652 min
Histogram: 1 0 0 0 0 0 0 0 0 0
Nghost:    14711 ave 14711 max 14711 min
Histogram: 1 0 0 0 0 0 0 0 0 0
Neighs:    856528 ave 856528 max 856528 min
Histogram: 1 0 0 0 0 0 0 0 0 0

Total # of neighbors = 856528
Ave neighs/atom = 43.5848
Neighbor list builds = 495
Dangerous builds not checked
Setting up Verlet run ...
  Unit style    : metal
  Current step  : 70495
  Time step     : 0.001
Per MPI rank memory allocation (min/avg/max) = 18.22 | 18.22 | 18.22 Mbytes
Step Temp Press TotEng PotEng Enthalpy 
   70495    1664.9156   -269.66616    -19347.42   -23576.457   -19443.845 
   72000     1643.999     254.6042   -19478.381   -23654.288   -19387.881 
Loop time of 166.274 on 1 procs for 1505 steps with 19652 atoms

Performance: 0.782 ns/day, 30.689 hours/ns, 9.051 timesteps/s
99.5% CPU use with 1 MPI tasks x no OpenMP threads

MPI task timing breakdown:
Section |  min time  |  avg time  |  max time  |%varavg| %total
---------------------------------------------------------------
Pair    | 88.493     | 88.493     | 88.493     |   0.0 | 53.22
Neigh   | 72.537     | 72.537     | 72.537     |   0.0 | 43.62
Comm    | 1.991      | 1.991      | 1.991      |   0.0 |  1.20
Output  | 0.051324   | 0.051324   | 0.051324   |   0.0 |  0.03
Modify  | 2.5867     | 2.5867     | 2.5867     |   0.0 |  1.56
Other   |            | 0.6154     |            |       |  0.37

Nlocal:    19652 ave 19652 max 19652 min
Histogram: 1 0 0 0 0 0 0 0 0 0
Nghost:    14716 ave 14716 max 14716 min
Histogram: 1 0 0 0 0 0 0 0 0 0
Neighs:    862158 ave 862158 max 862158 min
Histogram: 1 0 0 0 0 0 0 0 0 0

Total # of neighbors = 862158
Ave neighs/atom = 43.8713
Neighbor list builds = 1505
Dangerous builds not checked
Setting up Verlet run ...
  Unit style    : metal
  Current step  : 72000
  Time step     : 0.001
Per MPI rank memory allocation (min/avg/max) = 18.22 | 18.22 | 18.22 Mbytes
Step Temp Press TotEng PotEng Enthalpy 
   72000     1643.999     254.6042   -19478.381   -23654.288   -19387.881 
   72495    1630.1313   -123.88694   -19655.216   -23795.898   -19699.116 
Loop time of 54.1415 on 1 procs for 495 steps with 19652 atoms

Performance: 0.790 ns/day, 30.382 hours/ns, 9.143 timesteps/s
99.8% CPU use with 1 MPI tasks x no OpenMP threads

MPI task timing breakdown:
Section |  min time  |  avg time  |  max time  |%varavg| %total
---------------------------------------------------------------
Pair    | 28.897     | 28.897     | 28.897     |   0.0 | 53.37
Neigh   | 23.546     | 23.546     | 23.546     |   0.0 | 43.49
Comm    | 0.63962    | 0.63962    | 0.63962    |   0.0 |  1.18
Output  | 0.00023794 | 0.00023794 | 0.00023794 |   0.0 |  0.00
Modify  | 0.8518     | 0.8518     | 0.8518     |   0.0 |  1.57
Other   |            | 0.2069     |            |       |  0.38

Nlocal:    19652 ave 19652 max 19652 min
Histogram: 1 0 0 0 0 0 0 0 0 0
Nghost:    14678 ave 14678 max 14678 min
Histogram: 1 0 0 0 0 0 0 0 0 0
Neighs:    864879 ave 864879 max 864879 min
Histogram: 1 0 0 0 0 0 0 0 0 0

Total # of neighbors = 864879
Ave neighs/atom = 44.0097
Neighbor list builds = 495
Dangerous builds not checked
Setting up Verlet run ...
  Unit style    : metal
  Current step  : 72495
  Time step     : 0.001
Per MPI rank memory allocation (min/avg/max) = 18.22 | 18.22 | 18.22 Mbytes
Step Temp Press TotEng PotEng Enthalpy 
   72495    1630.1313   -123.88694   -19655.216   -23795.898   -19699.116 
   74000    1598.8811    471.81629   -19766.712   -23828.016   -19600.521 
Loop time of 166.266 on 1 procs for 1505 steps with 19652 atoms

Performance: 0.782 ns/day, 30.688 hours/ns, 9.052 timesteps/s
99.8% CPU use with 1 MPI tasks x no OpenMP threads

MPI task timing breakdown:
Section |  min time  |  avg time  |  max time  |%varavg| %total
---------------------------------------------------------------
Pair    | 88.83      | 88.83      | 88.83      |   0.0 | 53.43
Neigh   | 72.199     | 72.199     | 72.199     |   0.0 | 43.42
Comm    | 1.9718     | 1.9718     | 1.9718     |   0.0 |  1.19
Output  | 0.051544   | 0.051544   | 0.051544   |   0.0 |  0.03
Modify  | 2.5918     | 2.5918     | 2.5918     |   0.0 |  1.56
Other   |            | 0.6222     |            |       |  0.37

Nlocal:    19652 ave 19652 max 19652 min
Histogram: 1 0 0 0 0 0 0 0 0 0
Nghost:    14809 ave 14809 max 14809 min
Histogram: 1 0 0 0 0 0 0 0 0 0
Neighs:    869987 ave 869987 max 869987 min
Histogram: 1 0 0 0 0 0 0 0 0 0

Total # of neighbors = 869987
Ave neighs/atom = 44.2696
Neighbor list builds = 1505
Dangerous builds not checked
Setting up Verlet run ...
  Unit style    : metal
  Current step  : 74000
  Time step     : 0.001
Per MPI rank memory allocation (min/avg/max) = 18.22 | 18.22 | 18.22 Mbytes
Step Temp Press TotEng PotEng Enthalpy 
   74000    1598.8811    471.81629   -19766.712   -23828.016   -19600.521 
   74495    1564.9925   -201.18864   -19925.607    -23900.83    -19996.55 
Loop time of 54.2558 on 1 procs for 495 steps with 19652 atoms

Performance: 0.788 ns/day, 30.447 hours/ns, 9.123 timesteps/s
99.9% CPU use with 1 MPI tasks x no OpenMP threads

MPI task timing breakdown:
Section |  min time  |  avg time  |  max time  |%varavg| %total
---------------------------------------------------------------
Pair    | 29.036     | 29.036     | 29.036     |   0.0 | 53.52
Neigh   | 23.523     | 23.523     | 23.523     |   0.0 | 43.36
Comm    | 0.64072    | 0.64072    | 0.64072    |   0.0 |  1.18
Output  | 0.00030613 | 0.00030613 | 0.00030613 |   0.0 |  0.00
Modify  | 0.85105    | 0.85105    | 0.85105    |   0.0 |  1.57
Other   |            | 0.2051     |            |       |  0.38

Nlocal:    19652 ave 19652 max 19652 min
Histogram: 1 0 0 0 0 0 0 0 0 0
Nghost:    14775 ave 14775 max 14775 min
Histogram: 1 0 0 0 0 0 0 0 0 0
Neighs:    868960 ave 868960 max 868960 min
Histogram: 1 0 0 0 0 0 0 0 0 0

Total # of neighbors = 868960
Ave neighs/atom = 44.2174
Neighbor list builds = 495
Dangerous builds not checked
Setting up Verlet run ...
  Unit style    : metal
  Current step  : 74495
  Time step     : 0.001
Per MPI rank memory allocation (min/avg/max) = 18.22 | 18.22 | 18.22 Mbytes
Step Temp Press TotEng PotEng Enthalpy 
   74495    1564.9925   -201.18864   -19925.607    -23900.83    -19996.55 
   76000    1537.3762    46.300596   -20112.322   -24017.398   -20096.094 
Loop time of 166.924 on 1 procs for 1505 steps with 19652 atoms

Performance: 0.779 ns/day, 30.809 hours/ns, 9.016 timesteps/s
99.7% CPU use with 1 MPI tasks x no OpenMP threads

MPI task timing breakdown:
Section |  min time  |  avg time  |  max time  |%varavg| %total
---------------------------------------------------------------
Pair    | 89.43      | 89.43      | 89.43      |   0.0 | 53.58
Neigh   | 72.258     | 72.258     | 72.258     |   0.0 | 43.29
Comm    | 1.9726     | 1.9726     | 1.9726     |   0.0 |  1.18
Output  | 0.051126   | 0.051126   | 0.051126   |   0.0 |  0.03
Modify  | 2.5898     | 2.5898     | 2.5898     |   0.0 |  1.55
Other   |            | 0.6216     |            |       |  0.37

Nlocal:    19652 ave 19652 max 19652 min
Histogram: 1 0 0 0 0 0 0 0 0 0
Nghost:    14854 ave 14854 max 14854 min
Histogram: 1 0 0 0 0 0 0 0 0 0
Neighs:    874617 ave 874617 max 874617 min
Histogram: 1 0 0 0 0 0 0 0 0 0

Total # of neighbors = 874617
Ave neighs/atom = 44.5052
Neighbor list builds = 1505
Dangerous builds not checked
Setting up Verlet run ...
  Unit style    : metal
  Current step  : 76000
  Time step     : 0.001
Per MPI rank memory allocation (min/avg/max) = 18.22 | 18.22 | 18.22 Mbytes
Step Temp Press TotEng PotEng Enthalpy 
   76000    1537.3762    46.300596   -20112.322   -24017.398   -20096.094 
   76495    1512.7572   -294.10866   -20187.571   -24030.112   -20290.811 
Loop time of 54.335 on 1 procs for 495 steps with 19652 atoms

Performance: 0.787 ns/day, 30.491 hours/ns, 9.110 timesteps/s
99.9% CPU use with 1 MPI tasks x no OpenMP threads

MPI task timing breakdown:
Section |  min time  |  avg time  |  max time  |%varavg| %total
---------------------------------------------------------------
Pair    | 29.148     | 29.148     | 29.148     |   0.0 | 53.65
Neigh   | 23.499     | 23.499     | 23.499     |   0.0 | 43.25
Comm    | 0.63882    | 0.63882    | 0.63882    |   0.0 |  1.18
Output  | 0.000314   | 0.000314   | 0.000314   |   0.0 |  0.00
Modify  | 0.84667    | 0.84667    | 0.84667    |   0.0 |  1.56
Other   |            | 0.2023     |            |       |  0.37

Nlocal:    19652 ave 19652 max 19652 min
Histogram: 1 0 0 0 0 0 0 0 0 0
Nghost:    14816 ave 14816 max 14816 min
Histogram: 1 0 0 0 0 0 0 0 0 0
Neighs:    873527 ave 873527 max 873527 min
Histogram: 1 0 0 0 0 0 0 0 0 0

Total # of neighbors = 873527
Ave neighs/atom = 44.4498
Neighbor list builds = 495
Dangerous builds not checked
Setting up Verlet run ...
  Unit style    : metal
  Current step  : 76495
  Time step     : 0.001
Per MPI rank memory allocation (min/avg/max) = 18.22 | 18.22 | 18.22 Mbytes
Step Temp Press TotEng PotEng Enthalpy 
   76495    1512.7572   -294.10866   -20187.571   -24030.112   -20290.811 
   78000    1487.0821    222.90281   -20330.709   -24108.033   -20253.039 
Loop time of 167.632 on 1 procs for 1505 steps with 19652 atoms

Performance: 0.776 ns/day, 30.940 hours/ns, 8.978 timesteps/s
99.7% CPU use with 1 MPI tasks x no OpenMP threads

MPI task timing breakdown:
Section |  min time  |  avg time  |  max time  |%varavg| %total
---------------------------------------------------------------
Pair    | 90.075     | 90.075     | 90.075     |   0.0 | 53.73
Neigh   | 72.313     | 72.313     | 72.313     |   0.0 | 43.14
Comm    | 1.9789     | 1.9789     | 1.9789     |   0.0 |  1.18
Output  | 0.051481   | 0.051481   | 0.051481   |   0.0 |  0.03
Modify  | 2.5884     | 2.5884     | 2.5884     |   0.0 |  1.54
Other   |            | 0.6248     |            |       |  0.37

Nlocal:    19652 ave 19652 max 19652 min
Histogram: 1 0 0 0 0 0 0 0 0 0
Nghost:    14812 ave 14812 max 14812 min
Histogram: 1 0 0 0 0 0 0 0 0 0
Neighs:    879506 ave 879506 max 879506 min
Histogram: 1 0 0 0 0 0 0 0 0 0

Total # of neighbors = 879506
Ave neighs/atom = 44.754
Neighbor list builds = 1505
Dangerous builds not checked
Setting up Verlet run ...
  Unit style    : metal
  Current step  : 78000
  Time step     : 0.001
Per MPI rank memory allocation (min/avg/max) = 18.22 | 18.22 | 18.22 Mbytes
Step Temp Press TotEng PotEng Enthalpy 
   78000    1487.0821    222.90281   -20330.709   -24108.033   -20253.039 
   78495    1467.3833   -162.54597   -20500.739   -24228.027   -20557.218 
Loop time of 54.6339 on 1 procs for 495 steps with 19652 atoms

Performance: 0.783 ns/day, 30.659 hours/ns, 9.060 timesteps/s
99.7% CPU use with 1 MPI tasks x no OpenMP threads

MPI task timing breakdown:
Section |  min time  |  avg time  |  max time  |%varavg| %total
---------------------------------------------------------------
Pair    | 29.39      | 29.39      | 29.39      |   0.0 | 53.79
Neigh   | 23.561     | 23.561     | 23.561     |   0.0 | 43.12
Comm    | 0.63717    | 0.63717    | 0.63717    |   0.0 |  1.17
Output  | 0.000319   | 0.000319   | 0.000319   |   0.0 |  0.00
Modify  | 0.84509    | 0.84509    | 0.84509    |   0.0 |  1.55
Other   |            | 0.2012     |            |       |  0.37

Nlocal:    19652 ave 19652 max 19652 min
Histogram: 1 0 0 0 0 0 0 0 0 0
Nghost:    14860 ave 14860 max 14860 min
Histogram: 1 0 0 0 0 0 0 0 0 0
Neighs:    882714 ave 882714 max 882714 min
Histogram: 1 0 0 0 0 0 0 0 0 0

Total # of neighbors = 882714
Ave neighs/atom = 44.9173
Neighbor list builds = 495
Dangerous builds not checked
Setting up Verlet run ...
  Unit style    : metal
  Current step  : 78495
  Time step     : 0.001
Per MPI rank memory allocation (min/avg/max) = 18.22 | 18.22 | 18.22 Mbytes
Step Temp Press TotEng PotEng Enthalpy 
   78495    1467.3833   -162.54597   -20500.739   -24228.027   -20557.218 
   80000    1443.8421   -6.8154015   -20626.467   -24293.957   -20628.827 
Loop time of 167.658 on 1 procs for 1505 steps with 19652 atoms

Performance: 0.776 ns/day, 30.945 hours/ns, 8.977 timesteps/s
99.9% CPU use with 1 MPI tasks x no OpenMP threads

MPI task timing breakdown:
Section |  min time  |  avg time  |  max time  |%varavg| %total
---------------------------------------------------------------
Pair    | 90.311     | 90.311     | 90.311     |   0.0 | 53.87
Neigh   | 72.112     | 72.112     | 72.112     |   0.0 | 43.01
Comm    | 1.9802     | 1.9802     | 1.9802     |   0.0 |  1.18
Output  | 0.051335   | 0.051335   | 0.051335   |   0.0 |  0.03
Modify  | 2.5871     | 2.5871     | 2.5871     |   0.0 |  1.54
Other   |            | 0.6169     |            |       |  0.37

Nlocal:    19652 ave 19652 max 19652 min
Histogram: 1 0 0 0 0 0 0 0 0 0
Nghost:    14832 ave 14832 max 14832 min
Histogram: 1 0 0 0 0 0 0 0 0 0
Neighs:    885626 ave 885626 max 885626 min
Histogram: 1 0 0 0 0 0 0 0 0 0

Total # of neighbors = 885626
Ave neighs/atom = 45.0654
Neighbor list builds = 1505
Dangerous builds not checked
Setting up Verlet run ...
  Unit style    : metal
  Current step  : 80000
  Time step     : 0.001
Per MPI rank memory allocation (min/avg/max) = 18.22 | 18.22 | 18.22 Mbytes
Step Temp Press TotEng PotEng Enthalpy 
   80000    1443.8421   -6.8154015   -20626.467   -24293.957   -20628.827 
   80495    1412.6674   -111.61145   -20792.192   -24380.496   -20830.759 
Loop time of 54.6958 on 1 procs for 495 steps with 19652 atoms

Performance: 0.782 ns/day, 30.694 hours/ns, 9.050 timesteps/s
99.9% CPU use with 1 MPI tasks x no OpenMP threads

MPI task timing breakdown:
Section |  min time  |  avg time  |  max time  |%varavg| %total
---------------------------------------------------------------
Pair    | 29.511     | 29.511     | 29.511     |   0.0 | 53.95
Neigh   | 23.502     | 23.502     | 23.502     |   0.0 | 42.97
Comm    | 0.63603    | 0.63603    | 0.63603    |   0.0 |  1.16
Output  | 0.00032496 | 0.00032496 | 0.00032496 |   0.0 |  0.00
Modify  | 0.84385    | 0.84385    | 0.84385    |   0.0 |  1.54
Other   |            | 0.2026     |            |       |  0.37

Nlocal:    19652 ave 19652 max 19652 min
Histogram: 1 0 0 0 0 0 0 0 0 0
Nghost:    14906 ave 14906 max 14906 min
Histogram: 1 0 0 0 0 0 0 0 0 0
Neighs:    887955 ave 887955 max 887955 min
Histogram: 1 0 0 0 0 0 0 0 0 0

Total # of neighbors = 887955
Ave neighs/atom = 45.184
Neighbor list builds = 495
Dangerous builds not checked
Setting up Verlet run ...
  Unit style    : metal
  Current step  : 80495
  Time step     : 0.001
Per MPI rank memory allocation (min/avg/max) = 18.22 | 18.22 | 18.22 Mbytes
Step Temp Press TotEng PotEng Enthalpy 
   80495    1412.6674   -111.61145   -20792.192   -24380.496   -20830.759 
   82000    1394.2957    -397.9145   -20909.905   -24451.543   -21047.051 
Loop time of 168.318 on 1 procs for 1505 steps with 19652 atoms

Performance: 0.773 ns/day, 31.066 hours/ns, 8.941 timesteps/s
99.8% CPU use with 1 MPI tasks x no OpenMP threads

MPI task timing breakdown:
Section |  min time  |  avg time  |  max time  |%varavg| %total
---------------------------------------------------------------
Pair    | 90.904     | 90.904     | 90.904     |   0.0 | 54.01
Neigh   | 72.178     | 72.178     | 72.178     |   0.0 | 42.88
Comm    | 1.973      | 1.973      | 1.973      |   0.0 |  1.17
Output  | 0.051581   | 0.051581   | 0.051581   |   0.0 |  0.03
Modify  | 2.5872     | 2.5872     | 2.5872     |   0.0 |  1.54
Other   |            | 0.6239     |            |       |  0.37

Nlocal:    19652 ave 19652 max 19652 min
Histogram: 1 0 0 0 0 0 0 0 0 0
Nghost:    14922 ave 14922 max 14922 min
Histogram: 1 0 0 0 0 0 0 0 0 0
Neighs:    889436 ave 889436 max 889436 min
Histogram: 1 0 0 0 0 0 0 0 0 0

Total # of neighbors = 889436
Ave neighs/atom = 45.2593
Neighbor list builds = 1505
Dangerous builds not checked
Setting up Verlet run ...
  Unit style    : metal
  Current step  : 82000
  Time step     : 0.001
Per MPI rank memory allocation (min/avg/max) = 18.22 | 18.22 | 18.22 Mbytes
Step Temp Press TotEng PotEng Enthalpy 
   82000    1394.2957    -397.9145   -20909.905   -24451.543   -21047.051 
   82495    1358.6312    232.42609   -21115.528   -24566.575   -21036.014 
Loop time of 55.1712 on 1 procs for 495 steps with 19652 atoms

Performance: 0.775 ns/day, 30.960 hours/ns, 8.972 timesteps/s
99.7% CPU use with 1 MPI tasks x no OpenMP threads

MPI task timing breakdown:
Section |  min time  |  avg time  |  max time  |%varavg| %total
---------------------------------------------------------------
Pair    | 29.913     | 29.913     | 29.913     |   0.0 | 54.22
Neigh   | 23.558     | 23.558     | 23.558     |   0.0 | 42.70
Comm    | 0.64076    | 0.64076    | 0.64076    |   0.0 |  1.16
Output  | 0.00032282 | 0.00032282 | 0.00032282 |   0.0 |  0.00
Modify  | 0.85319    | 0.85319    | 0.85319    |   0.0 |  1.55
Other   |            | 0.2058     |            |       |  0.37

Nlocal:    19652 ave 19652 max 19652 min
Histogram: 1 0 0 0 0 0 0 0 0 0
Nghost:    14896 ave 14896 max 14896 min
Histogram: 1 0 0 0 0 0 0 0 0 0
Neighs:    896591 ave 896591 max 896591 min
Histogram: 1 0 0 0 0 0 0 0 0 0

Total # of neighbors = 896591
Ave neighs/atom = 45.6234
Neighbor list builds = 495
Dangerous builds not checked
Setting up Verlet run ...
  Unit style    : metal
  Current step  : 82495
  Time step     : 0.001
Per MPI rank memory allocation (min/avg/max) = 18.22 | 18.22 | 18.22 Mbytes
Step Temp Press TotEng PotEng Enthalpy 
   82495    1358.6312    232.42609   -21115.528   -24566.575   -21036.014 
   84000    1356.3433    364.22087   -21206.401   -24651.637   -21082.109 
Loop time of 169.453 on 1 procs for 1505 steps with 19652 atoms

Performance: 0.767 ns/day, 31.276 hours/ns, 8.882 timesteps/s
99.7% CPU use with 1 MPI tasks x no OpenMP threads

MPI task timing breakdown:
Section |  min time  |  avg time  |  max time  |%varavg| %total
---------------------------------------------------------------
Pair    | 91.888     | 91.888     | 91.888     |   0.0 | 54.23
Neigh   | 72.31      | 72.31      | 72.31      |   0.0 | 42.67
Comm    | 1.976      | 1.976      | 1.976      |   0.0 |  1.17
Output  | 0.051591   | 0.051591   | 0.051591   |   0.0 |  0.03
Modify  | 2.602      | 2.602      | 2.602      |   0.0 |  1.54
Other   |            | 0.6247     |            |       |  0.37

Nlocal:    19652 ave 19652 max 19652 min
Histogram: 1 0 0 0 0 0 0 0 0 0
Nghost:    15018 ave 15018 max 15018 min
Histogram: 1 0 0 0 0 0 0 0 0 0
Neighs:    899517 ave 899517 max 899517 min
Histogram: 1 0 0 0 0 0 0 0 0 0

Total # of neighbors = 899517
Ave neighs/atom = 45.7723
Neighbor list builds = 1505
Dangerous builds not checked
Setting up Verlet run ...
  Unit style    : metal
  Current step  : 84000
  Time step     : 0.001
Per MPI rank memory allocation (min/avg/max) = 18.22 | 18.22 | 18.22 Mbytes
Step Temp Press TotEng PotEng Enthalpy 
   84000    1356.3433    364.22087   -21206.401   -24651.637   -21082.109 
   84495    1311.1868    230.31791   -21382.376    -24712.91   -21304.033 
Loop time of 55.3396 on 1 procs for 495 steps with 19652 atoms

Performance: 0.773 ns/day, 31.055 hours/ns, 8.945 timesteps/s
99.8% CPU use with 1 MPI tasks x no OpenMP threads

MPI task timing breakdown:
Section |  min time  |  avg time  |  max time  |%varavg| %total
---------------------------------------------------------------
Pair    | 30.107     | 30.107     | 30.107     |   0.0 | 54.40
Neigh   | 23.531     | 23.531     | 23.531     |   0.0 | 42.52
Comm    | 0.6422     | 0.6422     | 0.6422     |   0.0 |  1.16
Output  | 0.00030684 | 0.00030684 | 0.00030684 |   0.0 |  0.00
Modify  | 0.85247    | 0.85247    | 0.85247    |   0.0 |  1.54
Other   |            | 0.2066     |            |       |  0.37

Nlocal:    19652 ave 19652 max 19652 min
Histogram: 1 0 0 0 0 0 0 0 0 0
Nghost:    14894 ave 14894 max 14894 min
Histogram: 1 0 0 0 0 0 0 0 0 0
Neighs:    902139 ave 902139 max 902139 min
Histogram: 1 0 0 0 0 0 0 0 0 0

Total # of neighbors = 902139
Ave neighs/atom = 45.9057
Neighbor list builds = 495
Dangerous builds not checked
Setting up Verlet run ...
  Unit style    : metal
  Current step  : 84495
  Time step     : 0.001
Per MPI rank memory allocation (min/avg/max) = 18.22 | 18.22 | 18.22 Mbytes
Step Temp Press TotEng PotEng Enthalpy 
   84495    1311.1868    230.31791   -21382.376    -24712.91   -21304.033 
   86000    1306.6685    279.24796   -21409.906   -24728.963   -21314.989 
Loop time of 169.911 on 1 procs for 1505 steps with 19652 atoms

Performance: 0.765 ns/day, 31.360 hours/ns, 8.858 timesteps/s
99.9% CPU use with 1 MPI tasks x no OpenMP threads

MPI task timing breakdown:
Section |  min time  |  avg time  |  max time  |%varavg| %total
---------------------------------------------------------------
Pair    | 92.475     | 92.475     | 92.475     |   0.0 | 54.43
Neigh   | 72.188     | 72.188     | 72.188     |   0.0 | 42.49
Comm    | 1.9769     | 1.9769     | 1.9769     |   0.0 |  1.16
Output  | 0.051463   | 0.051463   | 0.051463   |   0.0 |  0.03
Modify  | 2.5951     | 2.5951     | 2.5951     |   0.0 |  1.53
Other   |            | 0.6248     |            |       |  0.37

Nlocal:    19652 ave 19652 max 19652 min
Histogram: 1 0 0 0 0 0 0 0 0 0
Nghost:    14918 ave 14918 max 14918 min
Histogram: 1 0 0 0 0 0 0 0 0 0
Neighs:    902756 ave 902756 max 902756 min
Histogram: 1 0 0 0 0 0 0 0 0 0

Total # of neighbors = 902756
Ave neighs/atom = 45.9371
Neighbor list builds = 1505
Dangerous builds not checked
Setting up Verlet run ...
  Unit style    : metal
  Current step  : 86000
  Time step     : 0.001
Per MPI rank memory allocation (min/avg/max) = 18.22 | 18.22 | 18.22 Mbytes
Step Temp Press TotEng PotEng Enthalpy 
   86000    1306.6685    279.24796   -21409.906   -24728.963   -21314.989 
   86495    1256.1956    359.38595   -21640.731   -24831.582   -21519.155 
Loop time of 55.4538 on 1 procs for 495 steps with 19652 atoms

Performance: 0.771 ns/day, 31.119 hours/ns, 8.926 timesteps/s
99.9% CPU use with 1 MPI tasks x no OpenMP threads

MPI task timing breakdown:
Section |  min time  |  avg time  |  max time  |%varavg| %total
---------------------------------------------------------------
Pair    | 30.233     | 30.233     | 30.233     |   0.0 | 54.52
Neigh   | 23.52      | 23.52      | 23.52      |   0.0 | 42.41
Comm    | 0.64141    | 0.64141    | 0.64141    |   0.0 |  1.16
Output  | 0.000319   | 0.000319   | 0.000319   |   0.0 |  0.00
Modify  | 0.85299    | 0.85299    | 0.85299    |   0.0 |  1.54
Other   |            | 0.2061     |            |       |  0.37

Nlocal:    19652 ave 19652 max 19652 min
Histogram: 1 0 0 0 0 0 0 0 0 0
Nghost:    14953 ave 14953 max 14953 min
Histogram: 1 0 0 0 0 0 0 0 0 0
Neighs:    907547 ave 907547 max 907547 min
Histogram: 1 0 0 0 0 0 0 0 0 0

Total # of neighbors = 907547
Ave neighs/atom = 46.1809
Neighbor list builds = 495
Dangerous builds not checked
Setting up Verlet run ...
  Unit style    : metal
  Current step  : 86495
  Time step     : 0.001
Per MPI rank memory allocation (min/avg/max) = 18.22 | 18.22 | 18.22 Mbytes
Step Temp Press TotEng PotEng Enthalpy 
   86495    1256.1956    359.38595   -21640.731   -24831.582   -21519.155 
   88000    1249.2096   -527.10757   -21728.009   -24901.115   -21906.497 
Loop time of 170.581 on 1 procs for 1505 steps with 19652 atoms

Performance: 0.762 ns/day, 31.484 hours/ns, 8.823 timesteps/s
99.8% CPU use with 1 MPI tasks x no OpenMP threads

MPI task timing breakdown:
Section |  min time  |  avg time  |  max time  |%varavg| %total
---------------------------------------------------------------
Pair    | 93.061     | 93.061     | 93.061     |   0.0 | 54.56
Neigh   | 72.267     | 72.267     | 72.267     |   0.0 | 42.37
Comm    | 1.9775     | 1.9775     | 1.9775     |   0.0 |  1.16
Output  | 0.054988   | 0.054988   | 0.054988   |   0.0 |  0.03
Modify  | 2.6006     | 2.6006     | 2.6006     |   0.0 |  1.52
Other   |            | 0.6201     |            |       |  0.36

Nlocal:    19652 ave 19652 max 19652 min
Histogram: 1 0 0 0 0 0 0 0 0 0
Nghost:    15044 ave 15044 max 15044 min
Histogram: 1 0 0 0 0 0 0 0 0 0
Neighs:    906467 ave 906467 max 906467 min
Histogram: 1 0 0 0 0 0 0 0 0 0

Total # of neighbors = 906467
Ave neighs/atom = 46.1259
Neighbor list builds = 1505
Dangerous builds not checked
Setting up Verlet run ...
  Unit style    : metal
  Current step  : 88000
  Time step     : 0.001
Per MPI rank memory allocation (min/avg/max) = 18.22 | 18.22 | 18.22 Mbytes
Step Temp Press TotEng PotEng Enthalpy 
   88000    1249.2096   -527.10757   -21728.009   -24901.115   -21906.497 
   88495    1211.3904    82.678636   -21950.244   -25027.286   -21922.443 
Loop time of 55.8472 on 1 procs for 495 steps with 19652 atoms

Performance: 0.766 ns/day, 31.340 hours/ns, 8.863 timesteps/s
99.8% CPU use with 1 MPI tasks x no OpenMP threads

MPI task timing breakdown:
Section |  min time  |  avg time  |  max time  |%varavg| %total
---------------------------------------------------------------
Pair    | 30.593     | 30.593     | 30.593     |   0.0 | 54.78
Neigh   | 23.55      | 23.55      | 23.55      |   0.0 | 42.17
Comm    | 0.643      | 0.643      | 0.643      |   0.0 |  1.15
Output  | 0.000319   | 0.000319   | 0.000319   |   0.0 |  0.00
Modify  | 0.85141    | 0.85141    | 0.85141    |   0.0 |  1.52
Other   |            | 0.2094     |            |       |  0.38

Nlocal:    19652 ave 19652 max 19652 min
Histogram: 1 0 0 0 0 0 0 0 0 0
Nghost:    15100 ave 15100 max 15100 min
Histogram: 1 0 0 0 0 0 0 0 0 0
Neighs:    913337 ave 913337 max 913337 min
Histogram: 1 0 0 0 0 0 0 0 0 0

Total # of neighbors = 913337
Ave neighs/atom = 46.4755
Neighbor list builds = 495
Dangerous builds not checked
Setting up Verlet run ...
  Unit style    : metal
  Current step  : 88495
  Time step     : 0.001
Per MPI rank memory allocation (min/avg/max) = 18.22 | 18.22 | 18.22 Mbytes
Step Temp Press TotEng PotEng Enthalpy 
   88495    1211.3904    82.678636   -21950.244   -25027.286   -21922.443 
   90000    1197.2801   -840.89144   -22068.348   -25109.549   -22350.985 
Loop time of 171.213 on 1 procs for 1505 steps with 19652 atoms

Performance: 0.759 ns/day, 31.601 hours/ns, 8.790 timesteps/s
99.8% CPU use with 1 MPI tasks x no OpenMP threads

MPI task timing breakdown:
Section |  min time  |  avg time  |  max time  |%varavg| %total
---------------------------------------------------------------
Pair    | 93.891     | 93.891     | 93.891     |   0.0 | 54.84
Neigh   | 72.107     | 72.107     | 72.107     |   0.0 | 42.12
Comm    | 1.9739     | 1.9739     | 1.9739     |   0.0 |  1.15
Output  | 0.05127    | 0.05127    | 0.05127    |   0.0 |  0.03
Modify  | 2.5746     | 2.5746     | 2.5746     |   0.0 |  1.50
Other   |            | 0.6158     |            |       |  0.36

Nlocal:    19652 ave 19652 max 19652 min
Histogram: 1 0 0 0 0 0 0 0 0 0
Nghost:    15119 ave 15119 max 15119 min
Histogram: 1 0 0 0 0 0 0 0 0 0
Neighs:    913503 ave 913503 max 913503 min
Histogram: 1 0 0 0 0 0 0 0 0 0

Total # of neighbors = 913503
Ave neighs/atom = 46.484
Neighbor list builds = 1505
Dangerous builds not checked
Setting up Verlet run ...
  Unit style    : metal
  Current step  : 90000
  Time step     : 0.001
Per MPI rank memory allocation (min/avg/max) = 18.22 | 18.22 | 18.22 Mbytes
Step Temp Press TotEng PotEng Enthalpy 
   90000    1197.2801   -840.89144   -22068.348   -25109.549   -22350.985 
   90495    1165.4087   -269.02948   -22266.768   -25227.012   -22356.632 
Loop time of 55.9772 on 1 procs for 495 steps with 19652 atoms

Performance: 0.764 ns/day, 31.413 hours/ns, 8.843 timesteps/s
99.9% CPU use with 1 MPI tasks x no OpenMP threads

MPI task timing breakdown:
Section |  min time  |  avg time  |  max time  |%varavg| %total
---------------------------------------------------------------
Pair    | 30.715     | 30.715     | 30.715     |   0.0 | 54.87
Neigh   | 23.559     | 23.559     | 23.559     |   0.0 | 42.09
Comm    | 0.64396    | 0.64396    | 0.64396    |   0.0 |  1.15
Output  | 0.00023317 | 0.00023317 | 0.00023317 |   0.0 |  0.00
Modify  | 0.854      | 0.854      | 0.854      |   0.0 |  1.53
Other   |            | 0.2052     |            |       |  0.37

Nlocal:    19652 ave 19652 max 19652 min
Histogram: 1 0 0 0 0 0 0 0 0 0
Nghost:    15178 ave 15178 max 15178 min
Histogram: 1 0 0 0 0 0 0 0 0 0
Neighs:    920046 ave 920046 max 920046 min
Histogram: 1 0 0 0 0 0 0 0 0 0

Total # of neighbors = 920046
Ave neighs/atom = 46.8169
Neighbor list builds = 495
Dangerous builds not checked
Setting up Verlet run ...
  Unit style    : metal
  Current step  : 90495
  Time step     : 0.001
Per MPI rank memory allocation (min/avg/max) = 18.22 | 18.22 | 18.22 Mbytes
Step Temp Press TotEng PotEng Enthalpy 
   90495    1165.4087   -269.02948   -22266.768   -25227.012   -22356.632 
   92000    1140.2263    542.06722   -22398.541   -25294.819   -22218.523 
Loop time of 171.602 on 1 procs for 1505 steps with 19652 atoms

Performance: 0.758 ns/day, 31.673 hours/ns, 8.770 timesteps/s
[...]
Setting up Verlet run ...
  Unit style    : metal
  Current step  : 120000
  Time step     : 0.001
Per MPI rank memory allocation (min/avg/max) = 18.22 | 18.22 | 18.22 Mbytes
Step Temp Press TotEng PotEng Enthalpy 
  120000    450.47286   -194.53671   -26726.724   -27870.966   -26785.763 
  120495    420.36144    75.690673   -26884.103    -27951.86   -26861.228 
Loop time of 60.5861 on 1 procs for 495 steps with 19652 atoms

Performance: 0.706 ns/day, 33.999 hours/ns, 8.170 timesteps/s
99.9% CPU use with 1 MPI tasks x no OpenMP threads

MPI task timing breakdown:
Section |  min time  |  avg time  |  max time  |%varavg| %total
---------------------------------------------------------------
Pair    | 33.731     | 33.731     | 33.731     |   0.0 | 55.67
Neigh   | 25.168     | 25.168     | 25.168     |   0.0 | 41.54
Comm    | 0.63303    | 0.63303    | 0.63303    |   0.0 |  1.04
Output  | 0.00040102 | 0.00040102 | 0.00040102 |   0.0 |  0.00
Modify  | 0.84774    | 0.84774    | 0.84774    |   0.0 |  1.40
Other   |            | 0.2054     |            |       |  0.34

Nlocal:    19652 ave 19652 max 19652 min
Histogram: 1 0 0 0 0 0 0 0 0 0
Nghost:    15765 ave 15765 max 15765 min
Histogram: 1 0 0 0 0 0 0 0 0 0
Neighs:    1.03494e+06 ave 1.03494e+06 max 1.03494e+06 min
Histogram: 1 0 0 0 0 0 0 0 0 0

Total # of neighbors = 1034938
Ave neighs/atom = 52.6632
Neighbor list builds = 495
Dangerous builds not checked
Setting up Verlet run ...
  Unit style    : metal
  Current step  : 120495
  Time step     : 0.001
Per MPI rank memory allocation (min/avg/max) = 18.22 | 18.22 | 18.22 Mbytes
Step Temp Press TotEng PotEng Enthalpy 
  120495    420.36144    75.690673   -26884.103    -27951.86   -26861.228 
  122000    402.32456    171.02179   -27043.987   -28065.928   -26992.506 
Loop time of 185.208 on 1 procs for 1505 steps with 19652 atoms

Performance: 0.702 ns/day, 34.184 hours/ns, 8.126 timesteps/s
99.9% CPU use with 1 MPI tasks x no OpenMP threads

MPI task timing breakdown:
Section |  min time  |  avg time  |  max time  |%varavg| %total
---------------------------------------------------------------
Pair    | 103.21     | 103.21     | 103.21     |   0.0 | 55.73
Neigh   | 76.792     | 76.792     | 76.792     |   0.0 | 41.46
Comm    | 1.9416     | 1.9416     | 1.9416     |   0.0 |  1.05
Output  | 0.052206   | 0.052206   | 0.052206   |   0.0 |  0.03
Modify  | 2.5842     | 2.5842     | 2.5842     |   0.0 |  1.40
Other   |            | 0.6279     |            |       |  0.34

Nlocal:    19652 ave 19652 max 19652 min
Histogram: 1 0 0 0 0 0 0 0 0 0
Nghost:    15777 ave 15777 max 15777 min
Histogram: 1 0 0 0 0 0 0 0 0 0
Neighs:    1.04042e+06 ave 1.04042e+06 max 1.04042e+06 min
Histogram: 1 0 0 0 0 0 0 0 0 0

Total # of neighbors = 1040416
Ave neighs/atom = 52.942
Neighbor list builds = 1505
Dangerous builds not checked
Setting up Verlet run ...
  Unit style    : metal
  Current step  : 122000
  Time step     : 0.001
Per MPI rank memory allocation (min/avg/max) = 18.22 | 18.22 | 18.22 Mbytes
Step Temp Press TotEng PotEng Enthalpy 
  122000    402.32456    171.02179   -27043.987   -28065.928   -26992.506 
  122495     372.0006   -457.54774   -27194.922   -28139.838   -27332.488 
Loop time of 60.7576 on 1 procs for 495 steps with 19652 atoms

Performance: 0.704 ns/day, 34.095 hours/ns, 8.147 timesteps/s
99.9% CPU use with 1 MPI tasks x no OpenMP threads

MPI task timing breakdown:
Section |  min time  |  avg time  |  max time  |%varavg| %total
---------------------------------------------------------------
Pair    | 33.877     | 33.877     | 33.877     |   0.0 | 55.76
Neigh   | 25.183     | 25.183     | 25.183     |   0.0 | 41.45
Comm    | 0.63756    | 0.63756    | 0.63756    |   0.0 |  1.05
Output  | 0.00030589 | 0.00030589 | 0.00030589 |   0.0 |  0.00
Modify  | 0.8512     | 0.8512     | 0.8512     |   0.0 |  1.40
Other   |            | 0.2078     |            |       |  0.34

Nlocal:    19652 ave 19652 max 19652 min
Histogram: 1 0 0 0 0 0 0 0 0 0
Nghost:    15775 ave 15775 max 15775 min
Histogram: 1 0 0 0 0 0 0 0 0 0
Neighs:    1.04249e+06 ave 1.04249e+06 max 1.04249e+06 min
Histogram: 1 0 0 0 0 0 0 0 0 0

Total # of neighbors = 1042493
Ave neighs/atom = 53.0477
Neighbor list builds = 495
Dangerous builds not checked
Setting up Verlet run ...
  Unit style    : metal
  Current step  : 122495
  Time step     : 0.001
Per MPI rank memory allocation (min/avg/max) = 18.22 | 18.22 | 18.22 Mbytes
Step Temp Press TotEng PotEng Enthalpy 
  122495     372.0006   -457.54774   -27194.922   -28139.838   -27332.488 
  124000    352.45362   -397.22718   -27343.059   -28238.323   -27462.087 
Loop time of 185.67 on 1 procs for 1505 steps with 19652 atoms

Performance: 0.700 ns/day, 34.269 hours/ns, 8.106 timesteps/s
99.7% CPU use with 1 MPI tasks x no OpenMP threads

MPI task timing breakdown:
Section |  min time  |  avg time  |  max time  |%varavg| %total
---------------------------------------------------------------
Pair    | 103.58     | 103.58     | 103.58     |   0.0 | 55.79
Neigh   | 76.873     | 76.873     | 76.873     |   0.0 | 41.40
Comm    | 1.9478     | 1.9478     | 1.9478     |   0.0 |  1.05
Output  | 0.051731   | 0.051731   | 0.051731   |   0.0 |  0.03
Modify  | 2.5932     | 2.5932     | 2.5932     |   0.0 |  1.40
Other   |            | 0.6277     |            |       |  0.34

Nlocal:    19652 ave 19652 max 19652 min
Histogram: 1 0 0 0 0 0 0 0 0 0
Nghost:    15754 ave 15754 max 15754 min
Histogram: 1 0 0 0 0 0 0 0 0 0
Neighs:    1.047e+06 ave 1.047e+06 max 1.047e+06 min
Histogram: 1 0 0 0 0 0 0 0 0 0

Total # of neighbors = 1046999
Ave neighs/atom = 53.277
Neighbor list builds = 1505
Dangerous builds not checked
Setting up Verlet run ...
  Unit style    : metal
  Current step  : 124000
  Time step     : 0.001
Per MPI rank memory allocation (min/avg/max) = 18.22 | 18.22 | 18.22 Mbytes
Step Temp Press TotEng PotEng Enthalpy 
  124000    352.45362   -397.22718   -27343.059   -28238.323   -27462.087 
  124495    324.69781    16.200487   -27501.233   -28325.995   -27496.401 
Loop time of 60.8754 on 1 procs for 495 steps with 19652 atoms

Performance: 0.703 ns/day, 34.161 hours/ns, 8.131 timesteps/s
99.9% CPU use with 1 MPI tasks x no OpenMP threads

MPI task timing breakdown:
Section |  min time  |  avg time  |  max time  |%varavg| %total
---------------------------------------------------------------
Pair    | 33.959     | 33.959     | 33.959     |   0.0 | 55.78
Neigh   | 25.229     | 25.229     | 25.229     |   0.0 | 41.44
Comm    | 0.63527    | 0.63527    | 0.63527    |   0.0 |  1.04
Output  | 0.00030398 | 0.00030398 | 0.00030398 |   0.0 |  0.00
Modify  | 0.8453     | 0.8453     | 0.8453     |   0.0 |  1.39
Other   |            | 0.2068     |            |       |  0.34

Nlocal:    19652 ave 19652 max 19652 min
Histogram: 1 0 0 0 0 0 0 0 0 0
Nghost:    15830 ave 15830 max 15830 min
Histogram: 1 0 0 0 0 0 0 0 0 0
Neighs:    1.05268e+06 ave 1.05268e+06 max 1.05268e+06 min
Histogram: 1 0 0 0 0 0 0 0 0 0

Total # of neighbors = 1052683
Ave neighs/atom = 53.5662
Neighbor list builds = 495
Dangerous builds not checked
Setting up Verlet run ...
  Unit style    : metal
  Current step  : 124495
  Time step     : 0.001
Per MPI rank memory allocation (min/avg/max) = 18.22 | 18.22 | 18.22 Mbytes
Step Temp Press TotEng PotEng Enthalpy 
  124495    324.69781    16.200487   -27501.233   -28325.995   -27496.401 
  126000     297.4879   -454.16795   -27658.876   -28414.523   -27794.162 
Loop time of 185.638 on 1 procs for 1505 steps with 19652 atoms

Performance: 0.700 ns/day, 34.263 hours/ns, 8.107 timesteps/s
99.9% CPU use with 1 MPI tasks x no OpenMP threads

MPI task timing breakdown:
Section |  min time  |  avg time  |  max time  |%varavg| %total
---------------------------------------------------------------
Pair    | 103.79     | 103.79     | 103.79     |   0.0 | 55.91
Neigh   | 76.659     | 76.659     | 76.659     |   0.0 | 41.29
Comm    | 1.9329     | 1.9329     | 1.9329     |   0.0 |  1.04
Output  | 0.051249   | 0.051249   | 0.051249   |   0.0 |  0.03
Modify  | 2.5797     | 2.5797     | 2.5797     |   0.0 |  1.39
Other   |            | 0.6302     |            |       |  0.34

Nlocal:    19652 ave 19652 max 19652 min
Histogram: 1 0 0 0 0 0 0 0 0 0
Nghost:    15813 ave 15813 max 15813 min
Histogram: 1 0 0 0 0 0 0 0 0 0
Neighs:    1.05526e+06 ave 1.05526e+06 max 1.05526e+06 min
Histogram: 1 0 0 0 0 0 0 0 0 0

Total # of neighbors = 1055256
Ave neighs/atom = 53.6971
Neighbor list builds = 1505
Dangerous builds not checked
Setting up Verlet run ...
  Unit style    : metal
  Current step  : 126000
  Time step     : 0.001
Per MPI rank memory allocation (min/avg/max) = 18.22 | 18.22 | 18.22 Mbytes
Step Temp Press TotEng PotEng Enthalpy 
  126000     297.4879   -454.16795   -27658.876   -28414.523   -27794.162 
  126495    272.74004      -200.56   -27798.328   -28491.112   -27857.835 
Loop time of 61.1533 on 1 procs for 495 steps with 19652 atoms

Performance: 0.699 ns/day, 34.317 hours/ns, 8.094 timesteps/s
99.8% CPU use with 1 MPI tasks x no OpenMP threads

MPI task timing breakdown:
Section |  min time  |  avg time  |  max time  |%varavg| %total
---------------------------------------------------------------
Pair    | 34.278     | 34.278     | 34.278     |   0.0 | 56.05
Neigh   | 25.182     | 25.182     | 25.182     |   0.0 | 41.18
Comm    | 0.63367    | 0.63367    | 0.63367    |   0.0 |  1.04
Output  | 0.00029802 | 0.00029802 | 0.00029802 |   0.0 |  0.00
Modify  | 0.85168    | 0.85168    | 0.85168    |   0.0 |  1.39
Other   |            | 0.2081     |            |       |  0.34

Nlocal:    19652 ave 19652 max 19652 min
Histogram: 1 0 0 0 0 0 0 0 0 0
Nghost:    15822 ave 15822 max 15822 min
Histogram: 1 0 0 0 0 0 0 0 0 0
Neighs:    1.05985e+06 ave 1.05985e+06 max 1.05985e+06 min
Histogram: 1 0 0 0 0 0 0 0 0 0

Total # of neighbors = 1059847
Ave neighs/atom = 53.9307
Neighbor list builds = 495
Dangerous builds not checked
Setting up Verlet run ...
  Unit style    : metal
  Current step  : 126495
  Time step     : 0.001
Per MPI rank memory allocation (min/avg/max) = 18.22 | 18.22 | 18.22 Mbytes
Step Temp Press TotEng PotEng Enthalpy 
  126495    272.74004      -200.56   -27798.328   -28491.112   -27857.835 
  128000    249.09962   -367.41479    -27937.64   -28570.375   -28046.444 
Loop time of 186.956 on 1 procs for 1505 steps with 19652 atoms

Performance: 0.696 ns/day, 34.507 hours/ns, 8.050 timesteps/s
99.5% CPU use with 1 MPI tasks x no OpenMP threads

MPI task timing breakdown:
Section |  min time  |  avg time  |  max time  |%varavg| %total
---------------------------------------------------------------
Pair    | 104.92     | 104.92     | 104.92     |   0.0 | 56.12
Neigh   | 76.814     | 76.814     | 76.814     |   0.0 | 41.09
Comm    | 1.9454     | 1.9454     | 1.9454     |   0.0 |  1.04
Output  | 0.051006   | 0.051006   | 0.051006   |   0.0 |  0.03
Modify  | 2.5931     | 2.5931     | 2.5931     |   0.0 |  1.39
Other   |            | 0.6298     |            |       |  0.34

Nlocal:    19652 ave 19652 max 19652 min
Histogram: 1 0 0 0 0 0 0 0 0 0
Nghost:    15884 ave 15884 max 15884 min
Histogram: 1 0 0 0 0 0 0 0 0 0
Neighs:    1.06264e+06 ave 1.06264e+06 max 1.06264e+06 min
Histogram: 1 0 0 0 0 0 0 0 0 0

Total # of neighbors = 1062638
Ave neighs/atom = 54.0728
Neighbor list builds = 1505
Dangerous builds not checked
Setting up Verlet run ...
  Unit style    : metal
  Current step  : 128000
  Time step     : 0.001
Per MPI rank memory allocation (min/avg/max) = 18.22 | 18.22 | 18.22 Mbytes
Step Temp Press TotEng PotEng Enthalpy 
  128000    249.09962   -367.41479    -27937.64   -28570.375   -28046.444 
  128495     224.0028   -158.33319   -28075.356   -28644.344   -28122.087 
Loop time of 61.9027 on 1 procs for 495 steps with 19652 atoms

Performance: 0.691 ns/day, 34.738 hours/ns, 7.996 timesteps/s
99.0% CPU use with 1 MPI tasks x no OpenMP threads

MPI task timing breakdown:
Section |  min time  |  avg time  |  max time  |%varavg| %total
---------------------------------------------------------------
Pair    | 34.902     | 34.902     | 34.902     |   0.0 | 56.38
Neigh   | 25.311     | 25.311     | 25.311     |   0.0 | 40.89
Comm    | 0.63475    | 0.63475    | 0.63475    |   0.0 |  1.03
Output  | 0.00022888 | 0.00022888 | 0.00022888 |   0.0 |  0.00
Modify  | 0.84818    | 0.84818    | 0.84818    |   0.0 |  1.37
Other   |            | 0.2074     |            |       |  0.34

Nlocal:    19652 ave 19652 max 19652 min
Histogram: 1 0 0 0 0 0 0 0 0 0
Nghost:    15846 ave 15846 max 15846 min
Histogram: 1 0 0 0 0 0 0 0 0 0
Neighs:    1.06688e+06 ave 1.06688e+06 max 1.06688e+06 min
Histogram: 1 0 0 0 0 0 0 0 0 0

Total # of neighbors = 1066880
Ave neighs/atom = 54.2886
Neighbor list builds = 495
Dangerous builds not checked
Setting up Verlet run ...
  Unit style    : metal
  Current step  : 128495
  Time step     : 0.001
Per MPI rank memory allocation (min/avg/max) = 18.22 | 18.22 | 18.22 Mbytes
Step Temp Press TotEng PotEng Enthalpy 
  128495     224.0028   -158.33319   -28075.356   -28644.344   -28122.087 
  130000    198.42419   -155.12618   -28220.628   -28724.644   -28266.282 
Loop time of 187.174 on 1 procs for 1505 steps with 19652 atoms

Performance: 0.695 ns/day, 34.547 hours/ns, 8.041 timesteps/s
99.8% CPU use with 1 MPI tasks x no OpenMP threads

MPI task timing breakdown:
Section |  min time  |  avg time  |  max time  |%varavg| %total
---------------------------------------------------------------
Pair    | 105.42     | 105.42     | 105.42     |   0.0 | 56.32
Neigh   | 76.544     | 76.544     | 76.544     |   0.0 | 40.89
Comm    | 1.9297     | 1.9297     | 1.9297     |   0.0 |  1.03
Output  | 0.052029   | 0.052029   | 0.052029   |   0.0 |  0.03
Modify  | 2.5875     | 2.5875     | 2.5875     |   0.0 |  1.38
Other   |            | 0.6377     |            |       |  0.34

Nlocal:    19652 ave 19652 max 19652 min
Histogram: 1 0 0 0 0 0 0 0 0 0
Nghost:    15860 ave 15860 max 15860 min
Histogram: 1 0 0 0 0 0 0 0 0 0
Neighs:    1.07092e+06 ave 1.07092e+06 max 1.07092e+06 min
Histogram: 1 0 0 0 0 0 0 0 0 0

Total # of neighbors = 1070917
Ave neighs/atom = 54.494
Neighbor list builds = 1505
Dangerous builds not checked
Setting up Verlet run ...
  Unit style    : metal
  Current step  : 130000
  Time step     : 0.001
Per MPI rank memory allocation (min/avg/max) = 18.22 | 18.22 | 18.22 Mbytes
Step Temp Press TotEng PotEng Enthalpy 
  130000    198.42419   -155.12618   -28220.628   -28724.644   -28266.282 
  130495    176.20219   -102.18888   -28348.749   -28796.319   -28378.751 
Loop time of 61.6369 on 1 procs for 495 steps with 19652 atoms

Performance: 0.694 ns/day, 34.589 hours/ns, 8.031 timesteps/s
99.8% CPU use with 1 MPI tasks x no OpenMP threads

MPI task timing breakdown:
Section |  min time  |  avg time  |  max time  |%varavg| %total
---------------------------------------------------------------
Pair    | 34.78      | 34.78      | 34.78      |   0.0 | 56.43
Neigh   | 25.161     | 25.161     | 25.161     |   0.0 | 40.82
Comm    | 0.63341    | 0.63341    | 0.63341    |   0.0 |  1.03
Output  | 0.0003109  | 0.0003109  | 0.0003109  |   0.0 |  0.00
Modify  | 0.85434    | 0.85434    | 0.85434    |   0.0 |  1.39
Other   |            | 0.2082     |            |       |  0.34

Nlocal:    19652 ave 19652 max 19652 min
Histogram: 1 0 0 0 0 0 0 0 0 0
Nghost:    15911 ave 15911 max 15911 min
Histogram: 1 0 0 0 0 0 0 0 0 0
Neighs:    1.0739e+06 ave 1.0739e+06 max 1.0739e+06 min
Histogram: 1 0 0 0 0 0 0 0 0 0

Total # of neighbors = 1073897
Ave neighs/atom = 54.6457
Neighbor list builds = 495
Dangerous builds not checked
Setting up Verlet run ...
  Unit style    : metal
  Current step  : 130495
  Time step     : 0.001
Per MPI rank memory allocation (min/avg/max) = 18.22 | 18.22 | 18.22 Mbytes
Step Temp Press TotEng PotEng Enthalpy 
  130495    176.20219   -102.18888   -28348.749   -28796.319   -28378.751 
  132000    149.02377    22.868815   -28500.939   -28879.473   -28494.246 
Loop time of 187.644 on 1 procs for 1505 steps with 19652 atoms

Performance: 0.693 ns/day, 34.633 hours/ns, 8.021 timesteps/s
99.8% CPU use with 1 MPI tasks x no OpenMP threads

MPI task timing breakdown:
Section |  min time  |  avg time  |  max time  |%varavg| %total
---------------------------------------------------------------
Pair    | 105.91     | 105.91     | 105.91     |   0.0 | 56.44
Neigh   | 76.525     | 76.525     | 76.525     |   0.0 | 40.78
Comm    | 1.9306     | 1.9306     | 1.9306     |   0.0 |  1.03
Output  | 0.051817   | 0.051817   | 0.051817   |   0.0 |  0.03
Modify  | 2.5876     | 2.5876     | 2.5876     |   0.0 |  1.38
Other   |            | 0.6343     |            |       |  0.34

Nlocal:    19652 ave 19652 max 19652 min
Histogram: 1 0 0 0 0 0 0 0 0 0
Nghost:    15927 ave 15927 max 15927 min
Histogram: 1 0 0 0 0 0 0 0 0 0
Neighs:    1.07817e+06 ave 1.07817e+06 max 1.07817e+06 min
Histogram: 1 0 0 0 0 0 0 0 0 0

Total # of neighbors = 1078166
Ave neighs/atom = 54.8629
Neighbor list builds = 1505
Dangerous builds not checked
Setting up Verlet run ...
  Unit style    : metal
  Current step  : 132000
  Time step     : 0.001
Per MPI rank memory allocation (min/avg/max) = 18.22 | 18.22 | 18.22 Mbytes
Step Temp Press TotEng PotEng Enthalpy 
  132000    149.02377    22.868815   -28500.939   -28879.473   -28494.246 
  132495    127.97582     5.807835   -28616.175   -28941.246   -28614.479 
Loop time of 61.7554 on 1 procs for 495 steps with 19652 atoms

Performance: 0.693 ns/day, 34.655 hours/ns, 8.015 timesteps/s
99.9% CPU use with 1 MPI tasks x no OpenMP threads

MPI task timing breakdown:
Section |  min time  |  avg time  |  max time  |%varavg| %total
---------------------------------------------------------------
Pair    | 34.956     | 34.956     | 34.956     |   0.0 | 56.60
Neigh   | 25.119     | 25.119     | 25.119     |   0.0 | 40.67
Comm    | 0.63025    | 0.63025    | 0.63025    |   0.0 |  1.02
Output  | 0.0003159  | 0.0003159  | 0.0003159  |   0.0 |  0.00
Modify  | 0.84505    | 0.84505    | 0.84505    |   0.0 |  1.37
Other   |            | 0.2048     |            |       |  0.33

Nlocal:    19652 ave 19652 max 19652 min
Histogram: 1 0 0 0 0 0 0 0 0 0
Nghost:    15944 ave 15944 max 15944 min
Histogram: 1 0 0 0 0 0 0 0 0 0
Neighs:    1.08145e+06 ave 1.08145e+06 max 1.08145e+06 min
Histogram: 1 0 0 0 0 0 0 0 0 0

Total # of neighbors = 1081454
Ave neighs/atom = 55.0302
Neighbor list builds = 495
Dangerous builds not checked
Setting up Verlet run ...
  Unit style    : metal
  Current step  : 132495
  Time step     : 0.001
Per MPI rank memory allocation (min/avg/max) = 18.22 | 18.22 | 18.22 Mbytes
Step Temp Press TotEng PotEng Enthalpy 
  132495    127.97582     5.807835   -28616.175   -28941.246   -28614.479 
  134000    99.165074    51.430292   -28765.346   -29017.234   -28750.367 
Loop time of 187.561 on 1 procs for 1505 steps with 19652 atoms

Performance: 0.693 ns/day, 34.618 hours/ns, 8.024 timesteps/s
99.7% CPU use with 1 MPI tasks x no OpenMP threads

MPI task timing breakdown:
Section |  min time  |  avg time  |  max time  |%varavg| %total
---------------------------------------------------------------
Pair    | 106.14     | 106.14     | 106.14     |   0.0 | 56.59
Neigh   | 76.335     | 76.335     | 76.335     |   0.0 | 40.70
Comm    | 1.8936     | 1.8936     | 1.8936     |   0.0 |  1.01
Output  | 0.051268   | 0.051268   | 0.051268   |   0.0 |  0.03
Modify  | 2.538      | 2.538      | 2.538      |   0.0 |  1.35
Other   |            | 0.6        |            |       |  0.32

Nlocal:    19652 ave 19652 max 19652 min
Histogram: 1 0 0 0 0 0 0 0 0 0
Nghost:    15965 ave 15965 max 15965 min
Histogram: 1 0 0 0 0 0 0 0 0 0
Neighs:    1.0846e+06 ave 1.0846e+06 max 1.0846e+06 min
Histogram: 1 0 0 0 0 0 0 0 0 0

Total # of neighbors = 1084604
Ave neighs/atom = 55.1905
Neighbor list builds = 1505
Dangerous builds not checked
Total wall time: 4:08:56
