LAMMPS (12 Dec 2018)
Lattice spacing in x,y,z = 4 4 4
Created orthogonal box = (0 0 0) to (68 68 68)
  1 by 1 by 1 MPI processor grid
Created 19652 atoms
  Time spent = 0.00402808 secs
Setting atom values ...
  19652 settings made for type/fraction
Neighbor list info ...
  update every 1 steps, delay 0 steps, check no
  max neighbors/atom: 2000, page size: 100000
  master list distance cutoff = 8.5
  ghost atom cutoff = 8.5
  binsize = 4.25, bins = 16 16 16
  1 neighbor lists, perpetual/occasional/extra = 1 0 0
  (1) pair eam/alloy, perpetual
      attributes: half, newton on
      pair build: half/bin/atomonly/newton
      stencil: half/bin/3d/newton
      bin: standard
Setting up Verlet run ...
  Unit style    : metal
  Current step  : 0
  Time step     : 0.001
Per MPI rank memory allocation (min/avg/max) = 18.19 | 18.19 | 18.19 Mbytes
Step Temp Press TotEng PotEng Enthalpy 
       0          300    12386.671   -65314.961   -66076.988   -62884.039 
    1000    148.51978    19462.087   -65314.771   -65692.025   -61495.278 
Loop time of 130.797 on 1 procs for 1000 steps with 19652 atoms

Performance: 0.661 ns/day, 36.333 hours/ns, 7.645 timesteps/s
99.9% CPU use with 1 MPI tasks x no OpenMP threads

MPI task timing breakdown:
Section |  min time  |  avg time  |  max time  |%varavg| %total
---------------------------------------------------------------
Pair    | 73.717     | 73.717     | 73.717     |   0.0 | 56.36
Neigh   | 55.389     | 55.389     | 55.389     |   0.0 | 42.35
Comm    | 1.0143     | 1.0143     | 1.0143     |   0.0 |  0.78
Output  | 0.00012016 | 0.00012016 | 0.00012016 |   0.0 |  0.00
Modify  | 0.34611    | 0.34611    | 0.34611    |   0.0 |  0.26
Other   |            | 0.3304     |            |       |  0.25

Nlocal:    19652 ave 19652 max 19652 min
Histogram: 1 0 0 0 0 0 0 0 0 0
Nghost:    20102 ave 20102 max 20102 min
Histogram: 1 0 0 0 0 0 0 0 0 0
Neighs:    1.57408e+06 ave 1.57408e+06 max 1.57408e+06 min
Histogram: 1 0 0 0 0 0 0 0 0 0

Total # of neighbors = 1574085
Ave neighs/atom = 80.098
Neighbor list builds = 1000
Dangerous builds not checked
Setting up Verlet run ...
  Unit style    : metal
  Current step  : 1000
  Time step     : 0.001
Per MPI rank memory allocation (min/avg/max) = 18.19 | 18.19 | 18.19 Mbytes
Step Temp Press TotEng PotEng Enthalpy 
    1000    148.51978    19462.087   -65314.771   -65692.025   -61495.278 
    2000     296.0852   -76.153853   -64533.248   -65285.332   -64548.761 
Loop time of 124.501 on 1 procs for 1000 steps with 19652 atoms

Performance: 0.694 ns/day, 34.584 hours/ns, 8.032 timesteps/s
99.8% CPU use with 1 MPI tasks x no OpenMP threads

MPI task timing breakdown:
Section |  min time  |  avg time  |  max time  |%varavg| %total
---------------------------------------------------------------
Pair    | 69.151     | 69.151     | 69.151     |   0.0 | 55.54
Neigh   | 52.736     | 52.736     | 52.736     |   0.0 | 42.36
Comm    | 0.91262    | 0.91262    | 0.91262    |   0.0 |  0.73
Output  | 0.25346    | 0.25346    | 0.25346    |   0.0 |  0.20
Modify  | 1.1272     | 1.1272     | 1.1272     |   0.0 |  0.91
Other   |            | 0.3214     |            |       |  0.26

Nlocal:    19652 ave 19652 max 19652 min
Histogram: 1 0 0 0 0 0 0 0 0 0
Nghost:    20102 ave 20102 max 20102 min
Histogram: 1 0 0 0 0 0 0 0 0 0
Neighs:    1.46454e+06 ave 1.46454e+06 max 1.46454e+06 min
Histogram: 1 0 0 0 0 0 0 0 0 0

Total # of neighbors = 1464539
Ave neighs/atom = 74.5237
Neighbor list builds = 1000
Dangerous builds not checked
Setting up Verlet run ...
  Unit style    : metal
  Current step  : 2000
  Time step     : 0.001
Per MPI rank memory allocation (min/avg/max) = 18.19 | 18.19 | 18.19 Mbytes
Step Temp Press TotEng PotEng Enthalpy 
    2000     296.0852   -76.153853   -64533.248   -65285.332   -64548.761 
    4000    784.41177    -90.72126   -61666.041   -63658.518   -61685.494 
    6000    1345.2423    80.296005   -56506.068   -59923.106   -56486.371 
    8000    1906.5287   -591.15335   -53185.098   -58027.855   -53341.132 
   10000    2408.1247   -164.41493   -50290.225   -56407.081   -50336.435 
Loop time of 1097.07 on 1 procs for 8000 steps with 19652 atoms

Performance: 0.630 ns/day, 38.093 hours/ns, 7.292 timesteps/s
99.2% CPU use with 1 MPI tasks x no OpenMP threads

MPI task timing breakdown:
Section |  min time  |  avg time  |  max time  |%varavg| %total
---------------------------------------------------------------
Pair    | 583.88     | 583.88     | 583.88     |   0.0 | 53.22
Neigh   | 490.68     | 490.68     | 490.68     |   0.0 | 44.73
Comm    | 8.2874     | 8.2874     | 8.2874     |   0.0 |  0.76
Output  | 0.63393    | 0.63393    | 0.63393    |   0.0 |  0.06
Modify  | 10.719     | 10.719     | 10.719     |   0.0 |  0.98
Other   |            | 2.881      |            |       |  0.26

Nlocal:    19652 ave 19652 max 19652 min
Histogram: 1 0 0 0 0 0 0 0 0 0
Nghost:    16126 ave 16126 max 16126 min
Histogram: 1 0 0 0 0 0 0 0 0 0
Neighs:    1.0952e+06 ave 1.0952e+06 max 1.0952e+06 min
Histogram: 1 0 0 0 0 0 0 0 0 0

Total # of neighbors = 1095196
Ave neighs/atom = 55.7295
Neighbor list builds = 8000
Dangerous builds not checked
Setting up Verlet run ...
  Unit style    : metal
  Current step  : 10000
  Time step     : 0.001
Per MPI rank memory allocation (min/avg/max) = 18.2 | 18.2 | 18.2 Mbytes
Step Temp Press TotEng PotEng Enthalpy 
   10000    2408.1247   -164.41493   -50290.225   -56407.081   -50336.435 
   12000    2474.4991    464.97932   -50202.059   -56487.512   -50071.923 
   14000    2432.7175   -119.20304   -50304.778   -56484.102   -50338.179 
   16000    2433.8803    251.78538   -50333.211   -56515.489   -50262.757 
   18000    2437.8099     1211.186   -50237.025   -56429.285   -49897.776 
   20000    2447.8732    959.93605   -50221.208   -56439.029   -49952.199 
   22000    2441.5563   -224.50441   -50166.301   -56368.077   -50229.532 
   24000    2446.3561   -224.07904   -50206.843   -56420.811   -50269.784 
   26000    2444.5979   -436.30504   -50261.404   -56470.906   -50383.823 
   28000    2471.9607   -486.19257   -50142.836   -56421.841   -50279.557 
   30000     2458.706    386.12794    -50167.15   -56412.488   -50058.716 
   32000    2459.1376    472.06275   -50269.528   -56515.961   -50137.568 
   34000    2459.8262   -459.57092   -50129.112   -56377.294   -50258.592 
   36000    2445.8946   -149.01204   -50195.951   -56408.746   -50237.863 
   38000    2414.1777     349.7093   -50398.249    -56530.48    -50300.56 
   40000     2462.085    101.64483   -50186.564   -56440.484   -50158.044 
Loop time of 3922.81 on 1 procs for 30000 steps with 19652 atoms

Performance: 0.661 ns/day, 36.322 hours/ns, 7.648 timesteps/s
98.8% CPU use with 1 MPI tasks x no OpenMP threads

MPI task timing breakdown:
Section |  min time  |  avg time  |  max time  |%varavg| %total
---------------------------------------------------------------
Pair    | 2093.1     | 2093.1     | 2093.1     |   0.0 | 53.36
Neigh   | 1733       | 1733       | 1733       |   0.0 | 44.18
Comm    | 31.814     | 31.814     | 31.814     |   0.0 |  0.81
Output  | 12.844     | 12.844     | 12.844     |   0.0 |  0.33
Modify  | 41.08      | 41.08      | 41.08      |   0.0 |  1.05
Other   |            | 11.04      |            |       |  0.28

Nlocal:    19652 ave 19652 max 19652 min
Histogram: 1 0 0 0 0 0 0 0 0 0
Nghost:    16252 ave 16252 max 16252 min
Histogram: 1 0 0 0 0 0 0 0 0 0
Neighs:    1.09826e+06 ave 1.09826e+06 max 1.09826e+06 min
Histogram: 1 0 0 0 0 0 0 0 0 0

Total # of neighbors = 1098263
Ave neighs/atom = 55.8856
Neighbor list builds = 30000
Dangerous builds not checked
Setting up Verlet run ...
  Unit style    : metal
  Current step  : 40000
  Time step     : 0.001
Per MPI rank memory allocation (min/avg/max) = 18.2 | 18.2 | 18.2 Mbytes
Step Temp Press TotEng PotEng Enthalpy 
   40000     2462.085    101.64483   -50186.564   -56440.484   -50158.044 
   40495    2400.5884    638.16388   -50414.802   -56512.515   -50236.479 
Loop time of 59.2752 on 1 procs for 495 steps with 19652 atoms

Performance: 0.722 ns/day, 33.263 hours/ns, 8.351 timesteps/s
99.1% CPU use with 1 MPI tasks x no OpenMP threads

MPI task timing breakdown:
Section |  min time  |  avg time  |  max time  |%varavg| %total
---------------------------------------------------------------
Pair    | 31.597     | 31.597     | 31.597     |   0.0 | 53.31
Neigh   | 26.381     | 26.381     | 26.381     |   0.0 | 44.51
Comm    | 0.48254    | 0.48254    | 0.48254    |   0.0 |  0.81
Output  | 0.00021505 | 0.00021505 | 0.00021505 |   0.0 |  0.00
Modify  | 0.63762    | 0.63762    | 0.63762    |   0.0 |  1.08
Other   |            | 0.1766     |            |       |  0.30

Nlocal:    19652 ave 19652 max 19652 min
Histogram: 1 0 0 0 0 0 0 0 0 0
Nghost:    16283 ave 16283 max 16283 min
Histogram: 1 0 0 0 0 0 0 0 0 0
Neighs:    1.10224e+06 ave 1.10224e+06 max 1.10224e+06 min
Histogram: 1 0 0 0 0 0 0 0 0 0

Total # of neighbors = 1102245
Ave neighs/atom = 56.0882
Neighbor list builds = 495
Dangerous builds not checked
Setting up Verlet run ...
  Unit style    : metal
  Current step  : 40495
  Time step     : 0.001
Per MPI rank memory allocation (min/avg/max) = 18.2 | 18.2 | 18.2 Mbytes
Step Temp Press TotEng PotEng Enthalpy 
   40495    2400.5884    638.16388   -50414.802   -56512.515   -50236.479 
   42000    2401.4056    234.49772   -50559.679   -56659.468   -50494.463 
Loop time of 209.675 on 1 procs for 1505 steps with 19652 atoms

Performance: 0.620 ns/day, 38.700 hours/ns, 7.178 timesteps/s
99.0% CPU use with 1 MPI tasks x no OpenMP threads

MPI task timing breakdown:
Section |  min time  |  avg time  |  max time  |%varavg| %total
---------------------------------------------------------------
Pair    | 110.98     | 110.98     | 110.98     |   0.0 | 52.93
Neigh   | 94.006     | 94.006     | 94.006     |   0.0 | 44.83
Comm    | 1.701      | 1.701      | 1.701      |   0.0 |  0.81
Output  | 0.22444    | 0.22444    | 0.22444    |   0.0 |  0.11
Modify  | 2.1936     | 2.1936     | 2.1936     |   0.0 |  1.05
Other   |            | 0.5736     |            |       |  0.27

Nlocal:    19652 ave 19652 max 19652 min
Histogram: 1 0 0 0 0 0 0 0 0 0
Nghost:    16218 ave 16218 max 16218 min
Histogram: 1 0 0 0 0 0 0 0 0 0
Neighs:    1.10728e+06 ave 1.10728e+06 max 1.10728e+06 min
Histogram: 1 0 0 0 0 0 0 0 0 0

Total # of neighbors = 1107285
Ave neighs/atom = 56.3446
Neighbor list builds = 1505
Dangerous builds not checked
Setting up Verlet run ...
  Unit style    : metal
  Current step  : 42000
  Time step     : 0.001
Per MPI rank memory allocation (min/avg/max) = 18.2 | 18.2 | 18.2 Mbytes
Step Temp Press TotEng PotEng Enthalpy 
   42000    2401.4056    234.49772   -50559.679   -56659.468   -50494.463 
   42495    2371.4919   -514.37488   -50661.968   -56685.774   -50805.036 
Loop time of 66.998 on 1 procs for 495 steps with 19652 atoms

Performance: 0.638 ns/day, 37.597 hours/ns, 7.388 timesteps/s
98.1% CPU use with 1 MPI tasks x no OpenMP threads

MPI task timing breakdown:
Section |  min time  |  avg time  |  max time  |%varavg| %total
---------------------------------------------------------------
Pair    | 34.789     | 34.789     | 34.789     |   0.0 | 51.93
Neigh   | 30.759     | 30.759     | 30.759     |   0.0 | 45.91
Comm    | 0.53699    | 0.53699    | 0.53699    |   0.0 |  0.80
Output  | 0.00012994 | 0.00012994 | 0.00012994 |   0.0 |  0.00
Modify  | 0.71298    | 0.71298    | 0.71298    |   0.0 |  1.06
Other   |            | 0.1993     |            |       |  0.30

Nlocal:    19652 ave 19652 max 19652 min
Histogram: 1 0 0 0 0 0 0 0 0 0
Nghost:    16304 ave 16304 max 16304 min
Histogram: 1 0 0 0 0 0 0 0 0 0
Neighs:    1.10743e+06 ave 1.10743e+06 max 1.10743e+06 min
Histogram: 1 0 0 0 0 0 0 0 0 0

Total # of neighbors = 1107434
Ave neighs/atom = 56.3522
Neighbor list builds = 495
Dangerous builds not checked
Setting up Verlet run ...
  Unit style    : metal
  Current step  : 42495
  Time step     : 0.001
Per MPI rank memory allocation (min/avg/max) = 18.2 | 18.2 | 18.2 Mbytes
Step Temp Press TotEng PotEng Enthalpy 
   42495    2371.4919   -514.37488   -50661.968   -56685.774   -50805.036 
   44000    2378.5862    1335.6934    -50675.77   -56717.595   -50305.843 
Loop time of 211.78 on 1 procs for 1505 steps with 19652 atoms

Performance: 0.614 ns/day, 39.088 hours/ns, 7.106 timesteps/s
98.8% CPU use with 1 MPI tasks x no OpenMP threads

MPI task timing breakdown:
Section |  min time  |  avg time  |  max time  |%varavg| %total
---------------------------------------------------------------
Pair    | 110.92     | 110.92     | 110.92     |   0.0 | 52.38
Neigh   | 96.306     | 96.306     | 96.306     |   0.0 | 45.47
Comm    | 1.6351     | 1.6351     | 1.6351     |   0.0 |  0.77
Output  | 0.16379    | 0.16379    | 0.16379    |   0.0 |  0.08
Modify  | 2.1704     | 2.1704     | 2.1704     |   0.0 |  1.02
Other   |            | 0.5804     |            |       |  0.27

Nlocal:    19652 ave 19652 max 19652 min
Histogram: 1 0 0 0 0 0 0 0 0 0
Nghost:    16230 ave 16230 max 16230 min
Histogram: 1 0 0 0 0 0 0 0 0 0
Neighs:    1.11198e+06 ave 1.11198e+06 max 1.11198e+06 min
Histogram: 1 0 0 0 0 0 0 0 0 0

Total # of neighbors = 1111982
Ave neighs/atom = 56.5837
Neighbor list builds = 1505
Dangerous builds not checked
Setting up Verlet run ...
  Unit style    : metal
  Current step  : 44000
  Time step     : 0.001
Per MPI rank memory allocation (min/avg/max) = 18.2 | 18.2 | 18.2 Mbytes
Step Temp Press TotEng PotEng Enthalpy 
   44000    2378.5862    1335.6934    -50675.77   -56717.595   -50305.843 
   44495    2294.3479    403.13022   -50940.096   -56767.949   -50828.533 
Loop time of 67.7937 on 1 procs for 495 steps with 19652 atoms

Performance: 0.631 ns/day, 38.044 hours/ns, 7.302 timesteps/s
99.7% CPU use with 1 MPI tasks x no OpenMP threads

MPI task timing breakdown:
Section |  min time  |  avg time  |  max time  |%varavg| %total
---------------------------------------------------------------
Pair    | 35.206     | 35.206     | 35.206     |   0.0 | 51.93
Neigh   | 31.163     | 31.163     | 31.163     |   0.0 | 45.97
Comm    | 0.52516    | 0.52516    | 0.52516    |   0.0 |  0.77
Output  | 0.0001719  | 0.0001719  | 0.0001719  |   0.0 |  0.00
Modify  | 0.70615    | 0.70615    | 0.70615    |   0.0 |  1.04
Other   |            | 0.1937     |            |       |  0.29

Nlocal:    19652 ave 19652 max 19652 min
Histogram: 1 0 0 0 0 0 0 0 0 0
Nghost:    16254 ave 16254 max 16254 min
Histogram: 1 0 0 0 0 0 0 0 0 0
Neighs:    1.11321e+06 ave 1.11321e+06 max 1.11321e+06 min
Histogram: 1 0 0 0 0 0 0 0 0 0

Total # of neighbors = 1113206
Ave neighs/atom = 56.6459
Neighbor list builds = 495
Dangerous builds not checked
Setting up Verlet run ...
  Unit style    : metal
  Current step  : 44495
  Time step     : 0.001
Per MPI rank memory allocation (min/avg/max) = 18.2 | 18.2 | 18.2 Mbytes
Step Temp Press TotEng PotEng Enthalpy 
   44495    2294.3479    403.13022   -50940.096   -56767.949   -50828.533 
   46000    2309.8763    1010.0519   -50969.001   -56836.298   -50690.593 
Loop time of 191.577 on 1 procs for 1505 steps with 19652 atoms

Performance: 0.679 ns/day, 35.359 hours/ns, 7.856 timesteps/s
99.0% CPU use with 1 MPI tasks x no OpenMP threads

MPI task timing breakdown:
Section |  min time  |  avg time  |  max time  |%varavg| %total
---------------------------------------------------------------
Pair    | 97.736     | 97.736     | 97.736     |   0.0 | 51.02
Neigh   | 88.52      | 88.52      | 88.52      |   0.0 | 46.21
Comm    | 1.4908     | 1.4908     | 1.4908     |   0.0 |  0.78
Output  | 1.3253     | 1.3253     | 1.3253     |   0.0 |  0.69
Modify  | 1.9707     | 1.9707     | 1.9707     |   0.0 |  1.03
Other   |            | 0.5343     |            |       |  0.28

Nlocal:    19652 ave 19652 max 19652 min
Histogram: 1 0 0 0 0 0 0 0 0 0
Nghost:    16267 ave 16267 max 16267 min
Histogram: 1 0 0 0 0 0 0 0 0 0
Neighs:    1.11785e+06 ave 1.11785e+06 max 1.11785e+06 min
Histogram: 1 0 0 0 0 0 0 0 0 0

Total # of neighbors = 1117849
Ave neighs/atom = 56.8822
Neighbor list builds = 1505
Dangerous builds not checked
Setting up Verlet run ...
  Unit style    : metal
  Current step  : 46000
  Time step     : 0.001
Per MPI rank memory allocation (min/avg/max) = 18.2 | 18.2 | 18.2 Mbytes
Step Temp Press TotEng PotEng Enthalpy 
   46000    2309.8763    1010.0519   -50969.001   -56836.298   -50690.593 
   46495    2251.7036     353.9597   -51226.399   -56945.931   -51129.094 
Loop time of 62.2106 on 1 procs for 495 steps with 19652 atoms

Performance: 0.687 ns/day, 34.911 hours/ns, 7.957 timesteps/s
100.0% CPU use with 1 MPI tasks x no OpenMP threads

MPI task timing breakdown:
Section |  min time  |  avg time  |  max time  |%varavg| %total
---------------------------------------------------------------
Pair    | 31.974     | 31.974     | 31.974     |   0.0 | 51.40
Neigh   | 28.891     | 28.891     | 28.891     |   0.0 | 46.44
Comm    | 0.5002     | 0.5002     | 0.5002     |   0.0 |  0.80
Output  | 0.00018716 | 0.00018716 | 0.00018716 |   0.0 |  0.00
Modify  | 0.6651     | 0.6651     | 0.6651     |   0.0 |  1.07
Other   |            | 0.1797     |            |       |  0.29

Nlocal:    19652 ave 19652 max 19652 min
Histogram: 1 0 0 0 0 0 0 0 0 0
Nghost:    16286 ave 16286 max 16286 min
Histogram: 1 0 0 0 0 0 0 0 0 0
Neighs:    1.12058e+06 ave 1.12058e+06 max 1.12058e+06 min
Histogram: 1 0 0 0 0 0 0 0 0 0

Total # of neighbors = 1120577
Ave neighs/atom = 57.021
Neighbor list builds = 495
Dangerous builds not checked
Setting up Verlet run ...
  Unit style    : metal
  Current step  : 46495
  Time step     : 0.001
Per MPI rank memory allocation (min/avg/max) = 18.2 | 18.2 | 18.2 Mbytes
Step Temp Press TotEng PotEng Enthalpy 
   46495    2251.7036     353.9597   -51226.399   -56945.931   -51129.094 
   48000    2273.0585    708.42574   -51259.534    -57033.31    -51065.56 
Loop time of 195.223 on 1 procs for 1505 steps with 19652 atoms

Performance: 0.666 ns/day, 36.032 hours/ns, 7.709 timesteps/s
96.3% CPU use with 1 MPI tasks x no OpenMP threads

MPI task timing breakdown:
Section |  min time  |  avg time  |  max time  |%varavg| %total
---------------------------------------------------------------
Pair    | 98.289     | 98.289     | 98.289     |   0.0 | 50.35
Neigh   | 87.278     | 87.278     | 87.278     |   0.0 | 44.71
Comm    | 1.4982     | 1.4982     | 1.4982     |   0.0 |  0.77
Output  | 5.6907     | 5.6907     | 5.6907     |   0.0 |  2.91
Modify  | 1.9446     | 1.9446     | 1.9446     |   0.0 |  1.00
Other   |            | 0.5227     |            |       |  0.27

Nlocal:    19652 ave 19652 max 19652 min
Histogram: 1 0 0 0 0 0 0 0 0 0
Nghost:    16269 ave 16269 max 16269 min
Histogram: 1 0 0 0 0 0 0 0 0 0
Neighs:    1.12479e+06 ave 1.12479e+06 max 1.12479e+06 min
Histogram: 1 0 0 0 0 0 0 0 0 0

Total # of neighbors = 1124792
Ave neighs/atom = 57.2355
Neighbor list builds = 1505
Dangerous builds not checked
Setting up Verlet run ...
  Unit style    : metal
  Current step  : 48000
  Time step     : 0.001
Per MPI rank memory allocation (min/avg/max) = 18.2 | 18.2 | 18.2 Mbytes
Step Temp Press TotEng PotEng Enthalpy 
   48000    2273.0585    708.42574   -51259.534    -57033.31    -51065.56 
   48495    2209.3249     993.9505   -51458.813   -57070.699   -51186.985 
Loop time of 59.714 on 1 procs for 495 steps with 19652 atoms

Performance: 0.716 ns/day, 33.510 hours/ns, 8.290 timesteps/s
97.6% CPU use with 1 MPI tasks x no OpenMP threads

MPI task timing breakdown:
Section |  min time  |  avg time  |  max time  |%varavg| %total
---------------------------------------------------------------
Pair    | 30.332     | 30.332     | 30.332     |   0.0 | 50.80
Neigh   | 28.096     | 28.096     | 28.096     |   0.0 | 47.05
Comm    | 0.4716     | 0.4716     | 0.4716     |   0.0 |  0.79
Output  | 0.00016308 | 0.00016308 | 0.00016308 |   0.0 |  0.00
Modify  | 0.64657    | 0.64657    | 0.64657    |   0.0 |  1.08
Other   |            | 0.1674     |            |       |  0.28

Nlocal:    19652 ave 19652 max 19652 min
Histogram: 1 0 0 0 0 0 0 0 0 0
Nghost:    16345 ave 16345 max 16345 min
Histogram: 1 0 0 0 0 0 0 0 0 0
Neighs:    1.12694e+06 ave 1.12694e+06 max 1.12694e+06 min
Histogram: 1 0 0 0 0 0 0 0 0 0

Total # of neighbors = 1126941
Ave neighs/atom = 57.3449
Neighbor list builds = 495
Dangerous builds not checked
Setting up Verlet run ...
  Unit style    : metal
  Current step  : 48495
  Time step     : 0.001
Per MPI rank memory allocation (min/avg/max) = 18.2 | 18.2 | 18.2 Mbytes
Step Temp Press TotEng PotEng Enthalpy 
   48495    2209.3249     993.9505   -51458.813   -57070.699   -51186.985 
   50000    2203.7571   -395.12275    -51632.81   -57230.554   -51740.389 
Loop time of 188.656 on 1 procs for 1505 steps with 19652 atoms

Performance: 0.689 ns/day, 34.820 hours/ns, 7.977 timesteps/s
95.8% CPU use with 1 MPI tasks x no OpenMP threads

MPI task timing breakdown:
Section |  min time  |  avg time  |  max time  |%varavg| %total
---------------------------------------------------------------
Pair    | 93.447     | 93.447     | 93.447     |   0.0 | 49.53
Neigh   | 83.796     | 83.796     | 83.796     |   0.0 | 44.42
Comm    | 1.4287     | 1.4287     | 1.4287     |   0.0 |  0.76
Output  | 7.6381     | 7.6381     | 7.6381     |   0.0 |  4.05
Modify  | 1.8524     | 1.8524     | 1.8524     |   0.0 |  0.98
Other   |            | 0.4942     |            |       |  0.26

Nlocal:    19652 ave 19652 max 19652 min
Histogram: 1 0 0 0 0 0 0 0 0 0
Nghost:    16293 ave 16293 max 16293 min
Histogram: 1 0 0 0 0 0 0 0 0 0
Neighs:    1.13166e+06 ave 1.13166e+06 max 1.13166e+06 min
Histogram: 1 0 0 0 0 0 0 0 0 0

Total # of neighbors = 1131661
Ave neighs/atom = 57.585
Neighbor list builds = 1505
Dangerous builds not checked
Setting up Verlet run ...
  Unit style    : metal
  Current step  : 50000
  Time step     : 0.001
Per MPI rank memory allocation (min/avg/max) = 18.2 | 18.2 | 18.2 Mbytes
Step Temp Press TotEng PotEng Enthalpy 
   50000    2203.7571   -395.12275    -51632.81   -57230.554   -51740.389 
   50495    2148.2306   -547.13924   -51751.538   -57208.239   -51900.578 
Loop time of 53.9078 on 1 procs for 495 steps with 19652 atoms

Performance: 0.793 ns/day, 30.251 hours/ns, 9.182 timesteps/s
99.9% CPU use with 1 MPI tasks x no OpenMP threads

MPI task timing breakdown:
Section |  min time  |  avg time  |  max time  |%varavg| %total
---------------------------------------------------------------
Pair    | 27.304     | 27.304     | 27.304     |   0.0 | 50.65
Neigh   | 25.474     | 25.474     | 25.474     |   0.0 | 47.25
Comm    | 0.42312    | 0.42312    | 0.42312    |   0.0 |  0.78
Output  | 0.00016499 | 0.00016499 | 0.00016499 |   0.0 |  0.00
Modify  | 0.55671    | 0.55671    | 0.55671    |   0.0 |  1.03
Other   |            | 0.1502     |            |       |  0.28

Nlocal:    19652 ave 19652 max 19652 min
Histogram: 1 0 0 0 0 0 0 0 0 0
Nghost:    16385 ave 16385 max 16385 min
Histogram: 1 0 0 0 0 0 0 0 0 0
Neighs:    1.13135e+06 ave 1.13135e+06 max 1.13135e+06 min
Histogram: 1 0 0 0 0 0 0 0 0 0

Total # of neighbors = 1131353
Ave neighs/atom = 57.5694
Neighbor list builds = 495
Dangerous builds not checked
Setting up Verlet run ...
  Unit style    : metal
  Current step  : 50495
  Time step     : 0.001
Per MPI rank memory allocation (min/avg/max) = 18.2 | 18.2 | 18.2 Mbytes
Step Temp Press TotEng PotEng Enthalpy 
   50495    2148.2306   -547.13924   -51751.538   -57208.239   -51900.578 
   52000    2170.1425    444.90757   -51800.159   -57312.518   -51679.603 
Loop time of 183.967 on 1 procs for 1505 steps with 19652 atoms

Performance: 0.707 ns/day, 33.955 hours/ns, 8.181 timesteps/s
99.4% CPU use with 1 MPI tasks x no OpenMP threads

MPI task timing breakdown:
Section |  min time  |  avg time  |  max time  |%varavg| %total
---------------------------------------------------------------
Pair    | 94.691     | 94.691     | 94.691     |   0.0 | 51.47
Neigh   | 84.995     | 84.995     | 84.995     |   0.0 | 46.20
Comm    | 1.4368     | 1.4368     | 1.4368     |   0.0 |  0.78
Output  | 0.4706     | 0.4706     | 0.4706     |   0.0 |  0.26
Modify  | 1.8818     | 1.8818     | 1.8818     |   0.0 |  1.02
Other   |            | 0.4923     |            |       |  0.27

Nlocal:    19652 ave 19652 max 19652 min
Histogram: 1 0 0 0 0 0 0 0 0 0
Nghost:    16349 ave 16349 max 16349 min
Histogram: 1 0 0 0 0 0 0 0 0 0
Neighs:    1.13747e+06 ave 1.13747e+06 max 1.13747e+06 min
Histogram: 1 0 0 0 0 0 0 0 0 0

Total # of neighbors = 1137472
Ave neighs/atom = 57.8807
Neighbor list builds = 1505
Dangerous builds not checked
Setting up Verlet run ...
  Unit style    : metal
  Current step  : 52000
  Time step     : 0.001
Per MPI rank memory allocation (min/avg/max) = 18.2 | 18.2 | 18.2 Mbytes
Step Temp Press TotEng PotEng Enthalpy 
   52000    2170.1425    444.90757   -51800.159   -57312.518   -51679.603 
   52495    2122.3139    381.72883   -52035.262   -57426.133   -51932.271 
Loop time of 55.5028 on 1 procs for 495 steps with 19652 atoms

Performance: 0.771 ns/day, 31.146 hours/ns, 8.918 timesteps/s
99.5% CPU use with 1 MPI tasks x no OpenMP threads

MPI task timing breakdown:
Section |  min time  |  avg time  |  max time  |%varavg| %total
---------------------------------------------------------------
Pair    | 28.191     | 28.191     | 28.191     |   0.0 | 50.79
Neigh   | 26.161     | 26.161     | 26.161     |   0.0 | 47.13
Comm    | 0.42516    | 0.42516    | 0.42516    |   0.0 |  0.77
Output  | 0.00013304 | 0.00013304 | 0.00013304 |   0.0 |  0.00
Modify  | 0.56943    | 0.56943    | 0.56943    |   0.0 |  1.03
Other   |            | 0.1557     |            |       |  0.28

Nlocal:    19652 ave 19652 max 19652 min
Histogram: 1 0 0 0 0 0 0 0 0 0
Nghost:    16393 ave 16393 max 16393 min
Histogram: 1 0 0 0 0 0 0 0 0 0
Neighs:    1.14154e+06 ave 1.14154e+06 max 1.14154e+06 min
Histogram: 1 0 0 0 0 0 0 0 0 0

Total # of neighbors = 1141538
Ave neighs/atom = 58.0876
Neighbor list builds = 495
Dangerous builds not checked
Setting up Verlet run ...
  Unit style    : metal
  Current step  : 52495
  Time step     : 0.001
Per MPI rank memory allocation (min/avg/max) = 18.2 | 18.2 | 18.2 Mbytes
Step Temp Press TotEng PotEng Enthalpy 
   52495    2122.3139    381.72883   -52035.262   -57426.133   -51932.271 
   54000     2108.155   -971.40666   -52054.889   -57409.795   -52317.707 
Loop time of 169.772 on 1 procs for 1505 steps with 19652 atoms

Performance: 0.766 ns/day, 31.335 hours/ns, 8.865 timesteps/s
99.8% CPU use with 1 MPI tasks x no OpenMP threads

MPI task timing breakdown:
Section |  min time  |  avg time  |  max time  |%varavg| %total
---------------------------------------------------------------
Pair    | 86.866     | 86.866     | 86.866     |   0.0 | 51.17
Neigh   | 79.284     | 79.284     | 79.284     |   0.0 | 46.70
Comm    | 1.3309     | 1.3309     | 1.3309     |   0.0 |  0.78
Output  | 0.1212     | 0.1212     | 0.1212     |   0.0 |  0.07
Modify  | 1.7161     | 1.7161     | 1.7161     |   0.0 |  1.01
Other   |            | 0.4532     |            |       |  0.27

Nlocal:    19652 ave 19652 max 19652 min
Histogram: 1 0 0 0 0 0 0 0 0 0
Nghost:    16414 ave 16414 max 16414 min
Histogram: 1 0 0 0 0 0 0 0 0 0
Neighs:    1.13902e+06 ave 1.13902e+06 max 1.13902e+06 min
Histogram: 1 0 0 0 0 0 0 0 0 0

Total # of neighbors = 1139018
Ave neighs/atom = 57.9594
Neighbor list builds = 1505
Dangerous builds not checked
Setting up Verlet run ...
  Unit style    : metal
  Current step  : 54000
  Time step     : 0.001
Per MPI rank memory allocation (min/avg/max) = 18.2 | 18.2 | 18.2 Mbytes
Step Temp Press TotEng PotEng Enthalpy 
   54000     2108.155   -971.40666   -52054.889   -57409.795   -52317.707 
   54495    2071.0192    76.473569   -52343.217   -57603.795   -52322.726 
Loop time of 55.596 on 1 procs for 495 steps with 19652 atoms

Performance: 0.769 ns/day, 31.199 hours/ns, 8.904 timesteps/s
99.6% CPU use with 1 MPI tasks x no OpenMP threads

MPI task timing breakdown:
Section |  min time  |  avg time  |  max time  |%varavg| %total
---------------------------------------------------------------
Pair    | 28.434     | 28.434     | 28.434     |   0.0 | 51.14
Neigh   | 26.01      | 26.01      | 26.01      |   0.0 | 46.78
Comm    | 0.42845    | 0.42845    | 0.42845    |   0.0 |  0.77
Output  | 0.00015903 | 0.00015903 | 0.00015903 |   0.0 |  0.00
Modify  | 0.57322    | 0.57322    | 0.57322    |   0.0 |  1.03
Other   |            | 0.1496     |            |       |  0.27

Nlocal:    19652 ave 19652 max 19652 min
Histogram: 1 0 0 0 0 0 0 0 0 0
Nghost:    16433 ave 16433 max 16433 min
Histogram: 1 0 0 0 0 0 0 0 0 0
Neighs:    1.15056e+06 ave 1.15056e+06 max 1.15056e+06 min
Histogram: 1 0 0 0 0 0 0 0 0 0

Total # of neighbors = 1150558
Ave neighs/atom = 58.5466
Neighbor list builds = 495
Dangerous builds not checked
Setting up Verlet run ...
  Unit style    : metal
  Current step  : 54495
  Time step     : 0.001
Per MPI rank memory allocation (min/avg/max) = 18.2 | 18.2 | 18.2 Mbytes
Step Temp Press TotEng PotEng Enthalpy 
   54495    2071.0192    76.473569   -52343.217   -57603.795   -52322.726 
   56000    2059.5044   -248.72457   -52386.933   -57618.262   -52453.571 
Loop time of 177.546 on 1 procs for 1505 steps with 19652 atoms

Performance: 0.732 ns/day, 32.770 hours/ns, 8.477 timesteps/s
99.5% CPU use with 1 MPI tasks x no OpenMP threads

MPI task timing breakdown:
Section |  min time  |  avg time  |  max time  |%varavg| %total
---------------------------------------------------------------
Pair    | 91.251     | 91.251     | 91.251     |   0.0 | 51.40
Neigh   | 82.484     | 82.484     | 82.484     |   0.0 | 46.46
Comm    | 1.3684     | 1.3684     | 1.3684     |   0.0 |  0.77
Output  | 0.1791     | 0.1791     | 0.1791     |   0.0 |  0.10
Modify  | 1.7904     | 1.7904     | 1.7904     |   0.0 |  1.01
Other   |            | 0.4726     |            |       |  0.27

Nlocal:    19652 ave 19652 max 19652 min
Histogram: 1 0 0 0 0 0 0 0 0 0
Nghost:    16528 ave 16528 max 16528 min
Histogram: 1 0 0 0 0 0 0 0 0 0
Neighs:    1.15076e+06 ave 1.15076e+06 max 1.15076e+06 min
Histogram: 1 0 0 0 0 0 0 0 0 0

Total # of neighbors = 1150764
Ave neighs/atom = 58.5571
Neighbor list builds = 1505
Dangerous builds not checked
Setting up Verlet run ...
  Unit style    : metal
  Current step  : 56000
  Time step     : 0.001
Per MPI rank memory allocation (min/avg/max) = 18.2 | 18.2 | 18.2 Mbytes
Step Temp Press TotEng PotEng Enthalpy 
   56000    2059.5044   -248.72457   -52386.933   -57618.262   -52453.571 
   56495    2013.3002    225.19183   -52579.137   -57693.103   -52519.045 
Loop time of 57.2717 on 1 procs for 495 steps with 19652 atoms

Performance: 0.747 ns/day, 32.139 hours/ns, 8.643 timesteps/s
99.0% CPU use with 1 MPI tasks x no OpenMP threads

MPI task timing breakdown:
Section |  min time  |  avg time  |  max time  |%varavg| %total
---------------------------------------------------------------
Pair    | 29.457     | 29.457     | 29.457     |   0.0 | 51.43
Neigh   | 26.626     | 26.626     | 26.626     |   0.0 | 46.49
Comm    | 0.44039    | 0.44039    | 0.44039    |   0.0 |  0.77
Output  | 0.00017095 | 0.00017095 | 0.00017095 |   0.0 |  0.00
Modify  | 0.59078    | 0.59078    | 0.59078    |   0.0 |  1.03
Other   |            | 0.1573     |            |       |  0.27

Nlocal:    19652 ave 19652 max 19652 min
Histogram: 1 0 0 0 0 0 0 0 0 0
Nghost:    16462 ave 16462 max 16462 min
Histogram: 1 0 0 0 0 0 0 0 0 0
Neighs:    1.15492e+06 ave 1.15492e+06 max 1.15492e+06 min
Histogram: 1 0 0 0 0 0 0 0 0 0

Total # of neighbors = 1154918
Ave neighs/atom = 58.7685
Neighbor list builds = 495
Dangerous builds not checked
Setting up Verlet run ...
  Unit style    : metal
  Current step  : 56495
  Time step     : 0.001
Per MPI rank memory allocation (min/avg/max) = 18.2 | 18.2 | 18.2 Mbytes
Step Temp Press TotEng PotEng Enthalpy 
   56495    2013.3002    225.19183   -52579.137   -57693.103   -52519.045 
   58000    1980.1174   -174.40667    -52683.73   -57713.408   -52730.272 
Loop time of 202.375 on 1 procs for 1505 steps with 19652 atoms

Performance: 0.643 ns/day, 37.352 hours/ns, 7.437 timesteps/s
99.0% CPU use with 1 MPI tasks x no OpenMP threads

MPI task timing breakdown:
Section |  min time  |  avg time  |  max time  |%varavg| %total
---------------------------------------------------------------
Pair    | 106.61     | 106.61     | 106.61     |   0.0 | 52.68
Neigh   | 91.15      | 91.15      | 91.15      |   0.0 | 45.04
Comm    | 1.579      | 1.579      | 1.579      |   0.0 |  0.78
Output  | 0.437      | 0.437      | 0.437      |   0.0 |  0.22
Modify  | 2.0247     | 2.0247     | 2.0247     |   0.0 |  1.00
Other   |            | 0.5744     |            |       |  0.28

Nlocal:    19652 ave 19652 max 19652 min
Histogram: 1 0 0 0 0 0 0 0 0 0
Nghost:    16522 ave 16522 max 16522 min
Histogram: 1 0 0 0 0 0 0 0 0 0
Neighs:    1.15509e+06 ave 1.15509e+06 max 1.15509e+06 min
Histogram: 1 0 0 0 0 0 0 0 0 0

Total # of neighbors = 1155086
Ave neighs/atom = 58.777
Neighbor list builds = 1505
Dangerous builds not checked
Setting up Verlet run ...
  Unit style    : metal
  Current step  : 58000
  Time step     : 0.001
Per MPI rank memory allocation (min/avg/max) = 18.2 | 18.2 | 18.2 Mbytes
Step Temp Press TotEng PotEng Enthalpy 
   58000    1980.1174   -174.40667    -52683.73   -57713.408   -52730.272 
   58495    1952.6189     440.2675   -52893.052   -57852.882   -52776.338 
Loop time of 62.5077 on 1 procs for 495 steps with 19652 atoms

Performance: 0.684 ns/day, 35.077 hours/ns, 7.919 timesteps/s
97.5% CPU use with 1 MPI tasks x no OpenMP threads

MPI task timing breakdown:
Section |  min time  |  avg time  |  max time  |%varavg| %total
---------------------------------------------------------------
Pair    | 32.525     | 32.525     | 32.525     |   0.0 | 52.03
Neigh   | 28.686     | 28.686     | 28.686     |   0.0 | 45.89
Comm    | 0.47918    | 0.47918    | 0.47918    |   0.0 |  0.77
Output  | 0.00015092 | 0.00015092 | 0.00015092 |   0.0 |  0.00
Modify  | 0.64287    | 0.64287    | 0.64287    |   0.0 |  1.03
Other   |            | 0.1742     |            |       |  0.28

Nlocal:    19652 ave 19652 max 19652 min
Histogram: 1 0 0 0 0 0 0 0 0 0
Nghost:    16538 ave 16538 max 16538 min
Histogram: 1 0 0 0 0 0 0 0 0 0
Neighs:    1.16265e+06 ave 1.16265e+06 max 1.16265e+06 min
Histogram: 1 0 0 0 0 0 0 0 0 0

Total # of neighbors = 1162652
Ave neighs/atom = 59.162
Neighbor list builds = 495
Dangerous builds not checked
Setting up Verlet run ...
  Unit style    : metal
  Current step  : 58495
  Time step     : 0.001
Per MPI rank memory allocation (min/avg/max) = 18.2 | 18.2 | 18.2 Mbytes
Step Temp Press TotEng PotEng Enthalpy 
   58495    1952.6189     440.2675   -52893.052   -57852.882   -52776.338 
   60000    1950.3972   -172.65585   -52917.946   -57872.133   -52963.769 
Loop time of 177.575 on 1 procs for 1505 steps with 19652 atoms

Performance: 0.732 ns/day, 32.775 hours/ns, 8.475 timesteps/s
99.2% CPU use with 1 MPI tasks x no OpenMP threads

MPI task timing breakdown:
Section |  min time  |  avg time  |  max time  |%varavg| %total
---------------------------------------------------------------
Pair    | 91.784     | 91.784     | 91.784     |   0.0 | 51.69
Neigh   | 82.039     | 82.039     | 82.039     |   0.0 | 46.20
Comm    | 1.3825     | 1.3825     | 1.3825     |   0.0 |  0.78
Output  | 0.068867   | 0.068867   | 0.068867   |   0.0 |  0.04
Modify  | 1.7959     | 1.7959     | 1.7959     |   0.0 |  1.01
Other   |            | 0.5041     |            |       |  0.28

Nlocal:    19652 ave 19652 max 19652 min
Histogram: 1 0 0 0 0 0 0 0 0 0
Nghost:    16582 ave 16582 max 16582 min
Histogram: 1 0 0 0 0 0 0 0 0 0
Neighs:    1.16221e+06 ave 1.16221e+06 max 1.16221e+06 min
Histogram: 1 0 0 0 0 0 0 0 0 0

Total # of neighbors = 1162210
Ave neighs/atom = 59.1395
Neighbor list builds = 1505
Dangerous builds not checked
Setting up Verlet run ...
  Unit style    : metal
  Current step  : 60000
  Time step     : 0.001
Per MPI rank memory allocation (min/avg/max) = 18.2 | 18.2 | 18.2 Mbytes
Step Temp Press TotEng PotEng Enthalpy 
   60000    1950.3972   -172.65585   -52917.946   -57872.133   -52963.769 
   60495    1915.8539   -213.00868   -53166.566    -58033.01   -53222.703 
Loop time of 60.5289 on 1 procs for 495 steps with 19652 atoms

Performance: 0.707 ns/day, 33.967 hours/ns, 8.178 timesteps/s
98.9% CPU use with 1 MPI tasks x no OpenMP threads

MPI task timing breakdown:
Section |  min time  |  avg time  |  max time  |%varavg| %total
---------------------------------------------------------------
Pair    | 31.476     | 31.476     | 31.476     |   0.0 | 52.00
Neigh   | 27.759     | 27.759     | 27.759     |   0.0 | 45.86
Comm    | 0.47697    | 0.47697    | 0.47697    |   0.0 |  0.79
Output  | 0.00011992 | 0.00011992 | 0.00011992 |   0.0 |  0.00
Modify  | 0.62974    | 0.62974    | 0.62974    |   0.0 |  1.04
Other   |            | 0.1876     |            |       |  0.31

Nlocal:    19652 ave 19652 max 19652 min
Histogram: 1 0 0 0 0 0 0 0 0 0
Nghost:    16549 ave 16549 max 16549 min
Histogram: 1 0 0 0 0 0 0 0 0 0
Neighs:    1.17077e+06 ave 1.17077e+06 max 1.17077e+06 min
Histogram: 1 0 0 0 0 0 0 0 0 0

Total # of neighbors = 1170766
Ave neighs/atom = 59.5749
Neighbor list builds = 495
Dangerous builds not checked
Setting up Verlet run ...
  Unit style    : metal
  Current step  : 60495
  Time step     : 0.001
Per MPI rank memory allocation (min/avg/max) = 18.2 | 18.2 | 18.2 Mbytes
Step Temp Press TotEng PotEng Enthalpy 
   60495    1915.8539   -213.00868   -53166.566    -58033.01   -53222.703 
   62000    1907.2376    588.31351   -53207.351   -58051.908   -53052.654 
Loop time of 184.499 on 1 procs for 1505 steps with 19652 atoms

Performance: 0.705 ns/day, 34.053 hours/ns, 8.157 timesteps/s
99.2% CPU use with 1 MPI tasks x no OpenMP threads

MPI task timing breakdown:
Section |  min time  |  avg time  |  max time  |%varavg| %total
---------------------------------------------------------------
Pair    | 95.402     | 95.402     | 95.402     |   0.0 | 51.71
Neigh   | 85.083     | 85.083     | 85.083     |   0.0 | 46.12
Comm    | 1.4428     | 1.4428     | 1.4428     |   0.0 |  0.78
Output  | 0.17103    | 0.17103    | 0.17103    |   0.0 |  0.09
Modify  | 1.8902     | 1.8902     | 1.8902     |   0.0 |  1.02
Other   |            | 0.5096     |            |       |  0.28

Nlocal:    19652 ave 19652 max 19652 min
Histogram: 1 0 0 0 0 0 0 0 0 0
Nghost:    16653 ave 16653 max 16653 min
Histogram: 1 0 0 0 0 0 0 0 0 0
Neighs:    1.1729e+06 ave 1.1729e+06 max 1.1729e+06 min
Histogram: 1 0 0 0 0 0 0 0 0 0

Total # of neighbors = 1172901
Ave neighs/atom = 59.6835
Neighbor list builds = 1505
Dangerous builds not checked
Setting up Verlet run ...
  Unit style    : metal
  Current step  : 62000
  Time step     : 0.001
Per MPI rank memory allocation (min/avg/max) = 18.2 | 18.2 | 18.2 Mbytes
Step Temp Press TotEng PotEng Enthalpy 
   62000    1907.2376    588.31351   -53207.351   -58051.908   -53052.654 
   62495    1864.6476   -268.96969   -53377.892   -58114.267   -53448.575 
Loop time of 55.5216 on 1 procs for 495 steps with 19652 atoms

Performance: 0.770 ns/day, 31.157 hours/ns, 8.915 timesteps/s
99.8% CPU use with 1 MPI tasks x no OpenMP threads

MPI task timing breakdown:
Section |  min time  |  avg time  |  max time  |%varavg| %total
---------------------------------------------------------------
Pair    | 28.361     | 28.361     | 28.361     |   0.0 | 51.08
Neigh   | 26.008     | 26.008     | 26.008     |   0.0 | 46.84
Comm    | 0.41992    | 0.41992    | 0.41992    |   0.0 |  0.76
Output  | 0.00012708 | 0.00012708 | 0.00012708 |   0.0 |  0.00
Modify  | 0.57662    | 0.57662    | 0.57662    |   0.0 |  1.04
Other   |            | 0.1562     |            |       |  0.28

Nlocal:    19652 ave 19652 max 19652 min
Histogram: 1 0 0 0 0 0 0 0 0 0
Nghost:    16588 ave 16588 max 16588 min
Histogram: 1 0 0 0 0 0 0 0 0 0
Neighs:    1.17387e+06 ave 1.17387e+06 max 1.17387e+06 min
Histogram: 1 0 0 0 0 0 0 0 0 0

Total # of neighbors = 1173874
Ave neighs/atom = 59.7331
Neighbor list builds = 495
Dangerous builds not checked
Setting up Verlet run ...
  Unit style    : metal
  Current step  : 62495
  Time step     : 0.001
Per MPI rank memory allocation (min/avg/max) = 18.2 | 18.2 | 18.2 Mbytes
Step Temp Press TotEng PotEng Enthalpy 
   62495    1864.6476   -268.96969   -53377.892   -58114.267   -53448.575 
   64000     1843.914    320.95781    -53536.56    -58220.27   -53452.613 
Loop time of 157.833 on 1 procs for 1505 steps with 19652 atoms

Performance: 0.824 ns/day, 29.131 hours/ns, 9.535 timesteps/s
99.7% CPU use with 1 MPI tasks x no OpenMP threads

MPI task timing breakdown:
Section |  min time  |  avg time  |  max time  |%varavg| %total
---------------------------------------------------------------
Pair    | 79.993     | 79.993     | 79.993     |   0.0 | 50.68
Neigh   | 74.233     | 74.233     | 74.233     |   0.0 | 47.03
Comm    | 1.2014     | 1.2014     | 1.2014     |   0.0 |  0.76
Output  | 0.40057    | 0.40057    | 0.40057    |   0.0 |  0.25
Modify  | 1.5846     | 1.5846     | 1.5846     |   0.0 |  1.00
Other   |            | 0.4213     |            |       |  0.27

Nlocal:    19652 ave 19652 max 19652 min
Histogram: 1 0 0 0 0 0 0 0 0 0
Nghost:    16701 ave 16701 max 16701 min
Histogram: 1 0 0 0 0 0 0 0 0 0
Neighs:    1.17939e+06 ave 1.17939e+06 max 1.17939e+06 min
Histogram: 1 0 0 0 0 0 0 0 0 0

Total # of neighbors = 1179388
Ave neighs/atom = 60.0136
Neighbor list builds = 1505
Dangerous builds not checked
Setting up Verlet run ...
  Unit style    : metal
  Current step  : 64000
  Time step     : 0.001
Per MPI rank memory allocation (min/avg/max) = 18.2 | 18.2 | 18.2 Mbytes
Step Temp Press TotEng PotEng Enthalpy 
   64000     1843.914    320.95781    -53536.56    -58220.27   -53452.613 
   64495    1811.6165    577.04051   -53703.296   -58304.967   -53552.909 
Loop time of 49.8562 on 1 procs for 495 steps with 19652 atoms

Performance: 0.858 ns/day, 27.978 hours/ns, 9.929 timesteps/s
100.0% CPU use with 1 MPI tasks x no OpenMP threads

MPI task timing breakdown:
Section |  min time  |  avg time  |  max time  |%varavg| %total
---------------------------------------------------------------
Pair    | 25.328     | 25.328     | 25.328     |   0.0 | 50.80
Neigh   | 23.509     | 23.509     | 23.509     |   0.0 | 47.15
Comm    | 0.3843     | 0.3843     | 0.3843     |   0.0 |  0.77
Output  | 0.00014305 | 0.00014305 | 0.00014305 |   0.0 |  0.00
Modify  | 0.5017     | 0.5017     | 0.5017     |   0.0 |  1.01
Other   |            | 0.1332     |            |       |  0.27

Nlocal:    19652 ave 19652 max 19652 min
Histogram: 1 0 0 0 0 0 0 0 0 0
Nghost:    16627 ave 16627 max 16627 min
Histogram: 1 0 0 0 0 0 0 0 0 0
Neighs:    1.18367e+06 ave 1.18367e+06 max 1.18367e+06 min
Histogram: 1 0 0 0 0 0 0 0 0 0

Total # of neighbors = 1183673
Ave neighs/atom = 60.2317
Neighbor list builds = 495
Dangerous builds not checked
Setting up Verlet run ...
  Unit style    : metal
  Current step  : 64495
  Time step     : 0.001
Per MPI rank memory allocation (min/avg/max) = 18.2 | 18.2 | 18.2 Mbytes
Step Temp Press TotEng PotEng Enthalpy 
   64495    1811.6165    577.04051   -53703.296   -58304.967   -53552.909 
   66000    1793.6416    5.4665016   -53831.489   -58387.502   -53830.068 
Loop time of 151.628 on 1 procs for 1505 steps with 19652 atoms

Performance: 0.858 ns/day, 27.986 hours/ns, 9.926 timesteps/s
99.9% CPU use with 1 MPI tasks x no OpenMP threads

MPI task timing breakdown:
Section |  min time  |  avg time  |  max time  |%varavg| %total
---------------------------------------------------------------
Pair    | 77.068     | 77.068     | 77.068     |   0.0 | 50.83
Neigh   | 71.407     | 71.407     | 71.407     |   0.0 | 47.09
Comm    | 1.168      | 1.168      | 1.168      |   0.0 |  0.77
Output  | 0.10579    | 0.10579    | 0.10579    |   0.0 |  0.07
Modify  | 1.4833     | 1.4833     | 1.4833     |   0.0 |  0.98
Other   |            | 0.3962     |            |       |  0.26

Nlocal:    19652 ave 19652 max 19652 min
Histogram: 1 0 0 0 0 0 0 0 0 0
Nghost:    16739 ave 16739 max 16739 min
Histogram: 1 0 0 0 0 0 0 0 0 0
Neighs:    1.18721e+06 ave 1.18721e+06 max 1.18721e+06 min
Histogram: 1 0 0 0 0 0 0 0 0 0

Total # of neighbors = 1187206
Ave neighs/atom = 60.4115
Neighbor list builds = 1505
Dangerous builds not checked
Setting up Verlet run ...
  Unit style    : metal
  Current step  : 66000
  Time step     : 0.001
Per MPI rank memory allocation (min/avg/max) = 18.2 | 18.2 | 18.2 Mbytes
Step Temp Press TotEng PotEng Enthalpy 
   66000    1793.6416    5.4665016   -53831.489   -58387.502   -53830.068 
   66495     1756.788    397.41807   -53978.206   -58440.607    -53875.16 
Loop time of 50.1025 on 1 procs for 495 steps with 19652 atoms

Performance: 0.854 ns/day, 28.116 hours/ns, 9.880 timesteps/s
100.0% CPU use with 1 MPI tasks x no OpenMP threads

MPI task timing breakdown:
Section |  min time  |  avg time  |  max time  |%varavg| %total
---------------------------------------------------------------
Pair    | 25.469     | 25.469     | 25.469     |   0.0 | 50.83
Neigh   | 23.617     | 23.617     | 23.617     |   0.0 | 47.14
Comm    | 0.38572    | 0.38572    | 0.38572    |   0.0 |  0.77
Output  | 0.00011206 | 0.00011206 | 0.00011206 |   0.0 |  0.00
Modify  | 0.49733    | 0.49733    | 0.49733    |   0.0 |  0.99
Other   |            | 0.1336     |            |       |  0.27

Nlocal:    19652 ave 19652 max 19652 min
Histogram: 1 0 0 0 0 0 0 0 0 0
Nghost:    16728 ave 16728 max 16728 min
Histogram: 1 0 0 0 0 0 0 0 0 0
Neighs:    1.18958e+06 ave 1.18958e+06 max 1.18958e+06 min
Histogram: 1 0 0 0 0 0 0 0 0 0

Total # of neighbors = 1189579
Ave neighs/atom = 60.5322
Neighbor list builds = 495
Dangerous builds not checked
Setting up Verlet run ...
  Unit style    : metal
  Current step  : 66495
  Time step     : 0.001
Per MPI rank memory allocation (min/avg/max) = 18.2 | 18.2 | 18.2 Mbytes
Step Temp Press TotEng PotEng Enthalpy 
   66495     1756.788    397.41807   -53978.206   -58440.607    -53875.16 
   68000    1745.1902    619.88367   -54070.559   -58503.501   -53910.366 
Loop time of 154.78 on 1 procs for 1505 steps with 19652 atoms

Performance: 0.840 ns/day, 28.568 hours/ns, 9.723 timesteps/s
99.7% CPU use with 1 MPI tasks x no OpenMP threads

MPI task timing breakdown:
Section |  min time  |  avg time  |  max time  |%varavg| %total
---------------------------------------------------------------
Pair    | 79.266     | 79.266     | 79.266     |   0.0 | 51.21
Neigh   | 72.222     | 72.222     | 72.222     |   0.0 | 46.66
Comm    | 1.2167     | 1.2167     | 1.2167     |   0.0 |  0.79
Output  | 0.10708    | 0.10708    | 0.10708    |   0.0 |  0.07
Modify  | 1.5239     | 1.5239     | 1.5239     |   0.0 |  0.98
Other   |            | 0.444      |            |       |  0.29

Nlocal:    19652 ave 19652 max 19652 min
Histogram: 1 0 0 0 0 0 0 0 0 0
Nghost:    16822 ave 16822 max 16822 min
Histogram: 1 0 0 0 0 0 0 0 0 0
Neighs:    1.194e+06 ave 1.194e+06 max 1.194e+06 min
Histogram: 1 0 0 0 0 0 0 0 0 0

Total # of neighbors = 1194002
Ave neighs/atom = 60.7573
Neighbor list builds = 1505
Dangerous builds not checked
Setting up Verlet run ...
  Unit style    : metal
  Current step  : 68000
  Time step     : 0.001
Per MPI rank memory allocation (min/avg/max) = 18.2 | 18.2 | 18.2 Mbytes
Step Temp Press TotEng PotEng Enthalpy 
   68000    1745.1902    619.88367   -54070.559   -58503.501   -53910.366 
   68495    1720.5461    920.54185   -54261.709   -58632.052   -54024.984 
Loop time of 49.5923 on 1 procs for 495 steps with 19652 atoms

Performance: 0.862 ns/day, 27.830 hours/ns, 9.981 timesteps/s
99.9% CPU use with 1 MPI tasks x no OpenMP threads

MPI task timing breakdown:
Section |  min time  |  avg time  |  max time  |%varavg| %total
---------------------------------------------------------------
Pair    | 25.21      | 25.21      | 25.21      |   0.0 | 50.83
Neigh   | 23.345     | 23.345     | 23.345     |   0.0 | 47.07
Comm    | 0.38977    | 0.38977    | 0.38977    |   0.0 |  0.79
Output  | 0.00013113 | 0.00013113 | 0.00013113 |   0.0 |  0.00
Modify  | 0.4979     | 0.4979     | 0.4979     |   0.0 |  1.00
Other   |            | 0.149      |            |       |  0.30

Nlocal:    19652 ave 19652 max 19652 min
Histogram: 1 0 0 0 0 0 0 0 0 0
Nghost:    16782 ave 16782 max 16782 min
Histogram: 1 0 0 0 0 0 0 0 0 0
Neighs:    1.19991e+06 ave 1.19991e+06 max 1.19991e+06 min
Histogram: 1 0 0 0 0 0 0 0 0 0

Total # of neighbors = 1199909
Ave neighs/atom = 61.0579
Neighbor list builds = 495
Dangerous builds not checked
Setting up Verlet run ...
  Unit style    : metal
  Current step  : 68495
  Time step     : 0.001
Per MPI rank memory allocation (min/avg/max) = 18.2 | 18.2 | 18.2 Mbytes
Step Temp Press TotEng PotEng Enthalpy 
   68495    1720.5461    920.54185   -54261.709   -58632.052   -54024.984 
   70000    1705.0732   -40.330967   -54363.901   -58694.943   -54374.266 
Loop time of 148.155 on 1 procs for 1505 steps with 19652 atoms

Performance: 0.878 ns/day, 27.345 hours/ns, 10.158 timesteps/s
99.5% CPU use with 1 MPI tasks x no OpenMP threads

MPI task timing breakdown:
Section |  min time  |  avg time  |  max time  |%varavg| %total
---------------------------------------------------------------
Pair    | 74.014     | 74.014     | 74.014     |   0.0 | 49.96
Neigh   | 70.35      | 70.35      | 70.35      |   0.0 | 47.48
Comm    | 1.1441     | 1.1441     | 1.1441     |   0.0 |  0.77
Output  | 0.78407    | 0.78407    | 0.78407    |   0.0 |  0.53
Modify  | 1.4589     | 1.4589     | 1.4589     |   0.0 |  0.98
Other   |            | 0.4036     |            |       |  0.27

Nlocal:    19652 ave 19652 max 19652 min
Histogram: 1 0 0 0 0 0 0 0 0 0
Nghost:    16804 ave 16804 max 16804 min
Histogram: 1 0 0 0 0 0 0 0 0 0
Neighs:    1.20049e+06 ave 1.20049e+06 max 1.20049e+06 min
Histogram: 1 0 0 0 0 0 0 0 0 0

Total # of neighbors = 1200494
Ave neighs/atom = 61.0876
Neighbor list builds = 1505
Dangerous builds not checked
Setting up Verlet run ...
  Unit style    : metal
  Current step  : 70000
  Time step     : 0.001
Per MPI rank memory allocation (min/avg/max) = 18.2 | 18.2 | 18.2 Mbytes
Step Temp Press TotEng PotEng Enthalpy 
   70000    1705.0732   -40.330967   -54363.901   -58694.943   -54374.266 
   70495    1659.9182    796.85882   -54577.301   -58793.644   -54373.639 
Loop time of 48.1963 on 1 procs for 495 steps with 19652 atoms

Performance: 0.887 ns/day, 27.046 hours/ns, 10.270 timesteps/s
100.0% CPU use with 1 MPI tasks x no OpenMP threads

MPI task timing breakdown:
Section |  min time  |  avg time  |  max time  |%varavg| %total
---------------------------------------------------------------
Pair    | 24.283     | 24.283     | 24.283     |   0.0 | 50.38
Neigh   | 22.9       | 22.9       | 22.9       |   0.0 | 47.51
Comm    | 0.38119    | 0.38119    | 0.38119    |   0.0 |  0.79
Output  | 0.00012803 | 0.00012803 | 0.00012803 |   0.0 |  0.00
Modify  | 0.48611    | 0.48611    | 0.48611    |   0.0 |  1.01
Other   |            | 0.146      |            |       |  0.30

Nlocal:    19652 ave 19652 max 19652 min
Histogram: 1 0 0 0 0 0 0 0 0 0
Nghost:    16750 ave 16750 max 16750 min
Histogram: 1 0 0 0 0 0 0 0 0 0
Neighs:    1.20801e+06 ave 1.20801e+06 max 1.20801e+06 min
Histogram: 1 0 0 0 0 0 0 0 0 0

Total # of neighbors = 1208011
Ave neighs/atom = 61.4701
Neighbor list builds = 495
Dangerous builds not checked
Setting up Verlet run ...
  Unit style    : metal
  Current step  : 70495
  Time step     : 0.001
Per MPI rank memory allocation (min/avg/max) = 18.2 | 18.2 | 18.2 Mbytes
Step Temp Press TotEng PotEng Enthalpy 
   70495    1659.9182    796.85882   -54577.301   -58793.644   -54373.639 
   72000    1664.6986   -720.61246   -54588.015   -58816.501   -54772.552 
Loop time of 146.347 on 1 procs for 1505 steps with 19652 atoms

Performance: 0.889 ns/day, 27.011 hours/ns, 10.284 timesteps/s
99.5% CPU use with 1 MPI tasks x no OpenMP threads

MPI task timing breakdown:
Section |  min time  |  avg time  |  max time  |%varavg| %total
---------------------------------------------------------------
Pair    | 73.071     | 73.071     | 73.071     |   0.0 | 49.93
Neigh   | 69.525     | 69.525     | 69.525     |   0.0 | 47.51
Comm    | 1.1144     | 1.1144     | 1.1144     |   0.0 |  0.76
Output  | 0.78576    | 0.78576    | 0.78576    |   0.0 |  0.54
Modify  | 1.4442     | 1.4442     | 1.4442     |   0.0 |  0.99
Other   |            | 0.4065     |            |       |  0.28

Nlocal:    19652 ave 19652 max 19652 min
Histogram: 1 0 0 0 0 0 0 0 0 0
Nghost:    16866 ave 16866 max 16866 min
Histogram: 1 0 0 0 0 0 0 0 0 0
Neighs:    1.20572e+06 ave 1.20572e+06 max 1.20572e+06 min
Histogram: 1 0 0 0 0 0 0 0 0 0

Total # of neighbors = 1205717
Ave neighs/atom = 61.3534
Neighbor list builds = 1505
Dangerous builds not checked
Setting up Verlet run ...
  Unit style    : metal
  Current step  : 72000
  Time step     : 0.001
Per MPI rank memory allocation (min/avg/max) = 18.2 | 18.2 | 18.2 Mbytes
Step Temp Press TotEng PotEng Enthalpy 
   72000    1664.6986   -720.61246   -54588.015   -58816.501   -54772.552 
   72495    1617.1615    39.430461   -54825.402    -58933.14   -54815.367 
Loop time of 47.173 on 1 procs for 495 steps with 19652 atoms

Performance: 0.907 ns/day, 26.472 hours/ns, 10.493 timesteps/s
100.0% CPU use with 1 MPI tasks x no OpenMP threads

MPI task timing breakdown:
Section |  min time  |  avg time  |  max time  |%varavg| %total
---------------------------------------------------------------
Pair    | 23.63      | 23.63      | 23.63      |   0.0 | 50.09
Neigh   | 22.592     | 22.592     | 22.592     |   0.0 | 47.89
Comm    | 0.35403    | 0.35403    | 0.35403    |   0.0 |  0.75
Output  | 0.000139   | 0.000139   | 0.000139   |   0.0 |  0.00
Modify  | 0.4712     | 0.4712     | 0.4712     |   0.0 |  1.00
Other   |            | 0.1254     |            |       |  0.27

Nlocal:    19652 ave 19652 max 19652 min
Histogram: 1 0 0 0 0 0 0 0 0 0
Nghost:    16821 ave 16821 max 16821 min
Histogram: 1 0 0 0 0 0 0 0 0 0
Neighs:    1.21319e+06 ave 1.21319e+06 max 1.21319e+06 min
Histogram: 1 0 0 0 0 0 0 0 0 0

Total # of neighbors = 1213190
Ave neighs/atom = 61.7337
Neighbor list builds = 495
Dangerous builds not checked
Setting up Verlet run ...
  Unit style    : metal
  Current step  : 72495
  Time step     : 0.001
Per MPI rank memory allocation (min/avg/max) = 18.2 | 18.2 | 18.2 Mbytes
Step Temp Press TotEng PotEng Enthalpy 
   72495    1617.1615    39.430461   -54825.402    -58933.14   -54815.367 
   74000    1606.1024    622.20009   -54865.459   -58945.106   -54707.274 
Loop time of 144.913 on 1 procs for 1505 steps with 19652 atoms

Performance: 0.897 ns/day, 26.747 hours/ns, 10.386 timesteps/s
99.9% CPU use with 1 MPI tasks x no OpenMP threads

MPI task timing breakdown:
Section |  min time  |  avg time  |  max time  |%varavg| %total
---------------------------------------------------------------
Pair    | 72.633     | 72.633     | 72.633     |   0.0 | 50.12
Neigh   | 69.275     | 69.275     | 69.275     |   0.0 | 47.80
Comm    | 1.0814     | 1.0814     | 1.0814     |   0.0 |  0.75
Output  | 0.11692    | 0.11692    | 0.11692    |   0.0 |  0.08
Modify  | 1.4285     | 1.4285     | 1.4285     |   0.0 |  0.99
Other   |            | 0.3789     |            |       |  0.26

Nlocal:    19652 ave 19652 max 19652 min
Histogram: 1 0 0 0 0 0 0 0 0 0
Nghost:    16845 ave 16845 max 16845 min
Histogram: 1 0 0 0 0 0 0 0 0 0
Neighs:    1.21408e+06 ave 1.21408e+06 max 1.21408e+06 min
Histogram: 1 0 0 0 0 0 0 0 0 0

Total # of neighbors = 1214080
Ave neighs/atom = 61.779
Neighbor list builds = 1505
Dangerous builds not checked
Setting up Verlet run ...
  Unit style    : metal
  Current step  : 74000
  Time step     : 0.001
Per MPI rank memory allocation (min/avg/max) = 18.2 | 18.2 | 18.2 Mbytes
Step Temp Press TotEng PotEng Enthalpy 
   74000    1606.1024    622.20009   -54865.459   -58945.106   -54707.274 
   74495    1569.7689    807.42522   -55090.402   -59077.758   -54886.188 
Loop time of 48.4052 on 1 procs for 495 steps with 19652 atoms

Performance: 0.884 ns/day, 27.163 hours/ns, 10.226 timesteps/s
100.0% CPU use with 1 MPI tasks x no OpenMP threads

MPI task timing breakdown:
Section |  min time  |  avg time  |  max time  |%varavg| %total
---------------------------------------------------------------
Pair    | 24.379     | 24.379     | 24.379     |   0.0 | 50.36
Neigh   | 23.053     | 23.053     | 23.053     |   0.0 | 47.63
Comm    | 0.35984    | 0.35984    | 0.35984    |   0.0 |  0.74
Output  | 0.00016809 | 0.00016809 | 0.00016809 |   0.0 |  0.00
Modify  | 0.48472    | 0.48472    | 0.48472    |   0.0 |  1.00
Other   |            | 0.1284     |            |       |  0.27

Nlocal:    19652 ave 19652 max 19652 min
Histogram: 1 0 0 0 0 0 0 0 0 0
Nghost:    16905 ave 16905 max 16905 min
Histogram: 1 0 0 0 0 0 0 0 0 0
Neighs:    1.22108e+06 ave 1.22108e+06 max 1.22108e+06 min
Histogram: 1 0 0 0 0 0 0 0 0 0

Total # of neighbors = 1221077
Ave neighs/atom = 62.135
Neighbor list builds = 495
Dangerous builds not checked
Setting up Verlet run ...
  Unit style    : metal
  Current step  : 74495
  Time step     : 0.001
Per MPI rank memory allocation (min/avg/max) = 18.2 | 18.2 | 18.2 Mbytes
Step Temp Press TotEng PotEng Enthalpy 
   74495    1569.7689    807.42522   -55090.402   -59077.758   -54886.188 
   76000    1550.4079    427.17779   -55246.704   -59184.881   -55139.038 
Loop time of 148.967 on 1 procs for 1505 steps with 19652 atoms

Performance: 0.873 ns/day, 27.495 hours/ns, 10.103 timesteps/s
98.7% CPU use with 1 MPI tasks x no OpenMP threads

MPI task timing breakdown:
Section |  min time  |  avg time  |  max time  |%varavg| %total
---------------------------------------------------------------
Pair    | 74.129     | 74.129     | 74.129     |   0.0 | 49.76
Neigh   | 69.853     | 69.853     | 69.853     |   0.0 | 46.89
Comm    | 1.1207     | 1.1207     | 1.1207     |   0.0 |  0.75
Output  | 2.0181     | 2.0181     | 2.0181     |   0.0 |  1.35
Modify  | 1.4485     | 1.4485     | 1.4485     |   0.0 |  0.97
Other   |            | 0.3982     |            |       |  0.27

Nlocal:    19652 ave 19652 max 19652 min
Histogram: 1 0 0 0 0 0 0 0 0 0
Nghost:    16896 ave 16896 max 16896 min
Histogram: 1 0 0 0 0 0 0 0 0 0
Neighs:    1.22498e+06 ave 1.22498e+06 max 1.22498e+06 min
Histogram: 1 0 0 0 0 0 0 0 0 0

Total # of neighbors = 1224983
Ave neighs/atom = 62.3338
Neighbor list builds = 1505
Dangerous builds not checked
Setting up Verlet run ...
  Unit style    : metal
  Current step  : 76000
  Time step     : 0.001
Per MPI rank memory allocation (min/avg/max) = 18.2 | 18.2 | 18.2 Mbytes
Step Temp Press TotEng PotEng Enthalpy 
   76000    1550.4079    427.17779   -55246.704   -59184.881   -55139.038 
   76495     1527.729    903.66219    -55419.25   -59299.821   -55192.541 
Loop time of 48.5283 on 1 procs for 495 steps with 19652 atoms

Performance: 0.881 ns/day, 27.233 hours/ns, 10.200 timesteps/s
100.0% CPU use with 1 MPI tasks x no OpenMP threads

MPI task timing breakdown:
Section |  min time  |  avg time  |  max time  |%varavg| %total
---------------------------------------------------------------
Pair    | 24.563     | 24.563     | 24.563     |   0.0 | 50.62
Neigh   | 22.958     | 22.958     | 22.958     |   0.0 | 47.31
Comm    | 0.37308    | 0.37308    | 0.37308    |   0.0 |  0.77
Output  | 0.0001328  | 0.0001328  | 0.0001328  |   0.0 |  0.00
Modify  | 0.48863    | 0.48863    | 0.48863    |   0.0 |  1.01
Other   |            | 0.1453     |            |       |  0.30

Nlocal:    19652 ave 19652 max 19652 min
Histogram: 1 0 0 0 0 0 0 0 0 0
Nghost:    16988 ave 16988 max 16988 min
Histogram: 1 0 0 0 0 0 0 0 0 0
Neighs:    1.2308e+06 ave 1.2308e+06 max 1.2308e+06 min
Histogram: 1 0 0 0 0 0 0 0 0 0

Total # of neighbors = 1230801
Ave neighs/atom = 62.6298
Neighbor list builds = 495
Dangerous builds not checked
Setting up Verlet run ...
  Unit style    : metal
  Current step  : 76495
  Time step     : 0.001
Per MPI rank memory allocation (min/avg/max) = 18.2 | 18.2 | 18.2 Mbytes
Step Temp Press TotEng PotEng Enthalpy 
   76495     1527.729    903.66219    -55419.25   -59299.821   -55192.541 
   78000    1501.6792    1306.5578   -55528.607   -59343.009   -55201.788 
Loop time of 149.79 on 1 procs for 1505 steps with 19652 atoms

Performance: 0.868 ns/day, 27.647 hours/ns, 10.047 timesteps/s
99.6% CPU use with 1 MPI tasks x no OpenMP threads

MPI task timing breakdown:
Section |  min time  |  avg time  |  max time  |%varavg| %total
---------------------------------------------------------------
Pair    | 75.567     | 75.567     | 75.567     |   0.0 | 50.45
Neigh   | 70.549     | 70.549     | 70.549     |   0.0 | 47.10
Comm    | 1.1356     | 1.1356     | 1.1356     |   0.0 |  0.76
Output  | 0.64292    | 0.64292    | 0.64292    |   0.0 |  0.43
Modify  | 1.4749     | 1.4749     | 1.4749     |   0.0 |  0.98
Other   |            | 0.4203     |            |       |  0.28

Nlocal:    19652 ave 19652 max 19652 min
Histogram: 1 0 0 0 0 0 0 0 0 0
Nghost:    16948 ave 16948 max 16948 min
Histogram: 1 0 0 0 0 0 0 0 0 0
Neighs:    1.23491e+06 ave 1.23491e+06 max 1.23491e+06 min
Histogram: 1 0 0 0 0 0 0 0 0 0

Total # of neighbors = 1234907
Ave neighs/atom = 62.8387
Neighbor list builds = 1505
Dangerous builds not checked
Setting up Verlet run ...
  Unit style    : metal
  Current step  : 78000
  Time step     : 0.001
Per MPI rank memory allocation (min/avg/max) = 18.2 | 18.2 | 18.2 Mbytes
Step Temp Press TotEng PotEng Enthalpy 
   78000    1501.6792    1306.5578   -55528.607   -59343.009   -55201.788 
   78495    1466.8336    464.83781   -55666.614   -59392.505    -55550.43 
Loop time of 48.8334 on 1 procs for 495 steps with 19652 atoms

Performance: 0.876 ns/day, 27.404 hours/ns, 10.136 timesteps/s
99.7% CPU use with 1 MPI tasks x no OpenMP threads

MPI task timing breakdown:
Section |  min time  |  avg time  |  max time  |%varavg| %total
---------------------------------------------------------------
Pair    | 24.74      | 24.74      | 24.74      |   0.0 | 50.66
Neigh   | 23.088     | 23.088     | 23.088     |   0.0 | 47.28
Comm    | 0.37283    | 0.37283    | 0.37283    |   0.0 |  0.76
Output  | 0.00011396 | 0.00011396 | 0.00011396 |   0.0 |  0.00
Modify  | 0.48749    | 0.48749    | 0.48749    |   0.0 |  1.00
Other   |            | 0.1453     |            |       |  0.30

Nlocal:    19652 ave 19652 max 19652 min
Histogram: 1 0 0 0 0 0 0 0 0 0
Nghost:    16973 ave 16973 max 16973 min
Histogram: 1 0 0 0 0 0 0 0 0 0
Neighs:    1.23594e+06 ave 1.23594e+06 max 1.23594e+06 min
Histogram: 1 0 0 0 0 0 0 0 0 0

Total # of neighbors = 1235945
Ave neighs/atom = 62.8916
Neighbor list builds = 495
Dangerous builds not checked
Setting up Verlet run ...
  Unit style    : metal
  Current step  : 78495
  Time step     : 0.001
Per MPI rank memory allocation (min/avg/max) = 18.2 | 18.2 | 18.2 Mbytes
Step Temp Press TotEng PotEng Enthalpy 
   78495    1466.8336    464.83781   -55666.614   -59392.505    -55550.43 
   80000     1438.849    -182.2872   -55854.939   -59509.747   -55900.354 
Loop time of 149.402 on 1 procs for 1505 steps with 19652 atoms

Performance: 0.870 ns/day, 27.575 hours/ns, 10.074 timesteps/s
99.9% CPU use with 1 MPI tasks x no OpenMP threads

MPI task timing breakdown:
Section |  min time  |  avg time  |  max time  |%varavg| %total
---------------------------------------------------------------
Pair    | 75.533     | 75.533     | 75.533     |   0.0 | 50.56
Neigh   | 70.743     | 70.743     | 70.743     |   0.0 | 47.35
Comm    | 1.1224     | 1.1224     | 1.1224     |   0.0 |  0.75
Output  | 0.1363     | 0.1363     | 0.1363     |   0.0 |  0.09
Modify  | 1.4684     | 1.4684     | 1.4684     |   0.0 |  0.98
Other   |            | 0.398      |            |       |  0.27

Nlocal:    19652 ave 19652 max 19652 min
Histogram: 1 0 0 0 0 0 0 0 0 0
Nghost:    16982 ave 16982 max 16982 min
Histogram: 1 0 0 0 0 0 0 0 0 0
Neighs:    1.24022e+06 ave 1.24022e+06 max 1.24022e+06 min
Histogram: 1 0 0 0 0 0 0 0 0 0

Total # of neighbors = 1240224
Ave neighs/atom = 63.1093
Neighbor list builds = 1505
Dangerous builds not checked
Setting up Verlet run ...
  Unit style    : metal
  Current step  : 80000
  Time step     : 0.001
Per MPI rank memory allocation (min/avg/max) = 18.2 | 18.2 | 18.2 Mbytes
Step Temp Press TotEng PotEng Enthalpy 
   80000     1438.849    -182.2872   -55854.939   -59509.747   -55900.354 
   80495    1413.5946    121.84053   -55981.018   -59571.677   -55950.746 
Loop time of 47.8387 on 1 procs for 495 steps with 19652 atoms

Performance: 0.894 ns/day, 26.846 hours/ns, 10.347 timesteps/s
100.0% CPU use with 1 MPI tasks x no OpenMP threads

MPI task timing breakdown:
Section |  min time  |  avg time  |  max time  |%varavg| %total
---------------------------------------------------------------
Pair    | 24.2       | 24.2       | 24.2       |   0.0 | 50.59
Neigh   | 22.682     | 22.682     | 22.682     |   0.0 | 47.41
Comm    | 0.35676    | 0.35676    | 0.35676    |   0.0 |  0.75
Output  | 0.00012994 | 0.00012994 | 0.00012994 |   0.0 |  0.00
Modify  | 0.47299    | 0.47299    | 0.47299    |   0.0 |  0.99
Other   |            | 0.1264     |            |       |  0.26

Nlocal:    19652 ave 19652 max 19652 min
Histogram: 1 0 0 0 0 0 0 0 0 0
Nghost:    17070 ave 17070 max 17070 min
Histogram: 1 0 0 0 0 0 0 0 0 0
Neighs:    1.24412e+06 ave 1.24412e+06 max 1.24412e+06 min
Histogram: 1 0 0 0 0 0 0 0 0 0

Total # of neighbors = 1244125
Ave neighs/atom = 63.3078
Neighbor list builds = 495
Dangerous builds not checked
Setting up Verlet run ...
  Unit style    : metal
  Current step  : 80495
  Time step     : 0.001
Per MPI rank memory allocation (min/avg/max) = 18.2 | 18.2 | 18.2 Mbytes
Step Temp Press TotEng PotEng Enthalpy 
   80495    1413.5946    121.84053   -55981.018   -59571.677   -55950.746 
   82000     1391.284   -1199.0735   -56083.635   -59617.623   -56381.756 
Loop time of 155.475 on 1 procs for 1505 steps with 19652 atoms

Performance: 0.836 ns/day, 28.696 hours/ns, 9.680 timesteps/s
98.6% CPU use with 1 MPI tasks x no OpenMP threads

MPI task timing breakdown:
Section |  min time  |  avg time  |  max time  |%varavg| %total
---------------------------------------------------------------
Pair    | 78.348     | 78.348     | 78.348     |   0.0 | 50.39
Neigh   | 71.827     | 71.827     | 71.827     |   0.0 | 46.20
Comm    | 1.176      | 1.176      | 1.176      |   0.0 |  0.76
Output  | 2.1777     | 2.1777     | 2.1777     |   0.0 |  1.40
Modify  | 1.503      | 1.503      | 1.503      |   0.0 |  0.97
Other   |            | 0.4426     |            |       |  0.28

Nlocal:    19652 ave 19652 max 19652 min
Histogram: 1 0 0 0 0 0 0 0 0 0
Nghost:    16980 ave 16980 max 16980 min
Histogram: 1 0 0 0 0 0 0 0 0 0
Neighs:    1.24324e+06 ave 1.24324e+06 max 1.24324e+06 min
Histogram: 1 0 0 0 0 0 0 0 0 0

Total # of neighbors = 1243235
Ave neighs/atom = 63.2625
Neighbor list builds = 1505
Dangerous builds not checked
Setting up Verlet run ...
  Unit style    : metal
  Current step  : 82000
  Time step     : 0.001
Per MPI rank memory allocation (min/avg/max) = 18.2 | 18.2 | 18.2 Mbytes
Step Temp Press TotEng PotEng Enthalpy 
   82000     1391.284   -1199.0735   -56083.635   -59617.623   -56381.756 
   82495    1363.0872   -960.74845   -56294.026   -59756.392    -56531.63 
Loop time of 48.7437 on 1 procs for 495 steps with 19652 atoms

Performance: 0.877 ns/day, 27.353 hours/ns, 10.155 timesteps/s
99.8% CPU use with 1 MPI tasks x no OpenMP threads

MPI task timing breakdown:
Section |  min time  |  avg time  |  max time  |%varavg| %total
---------------------------------------------------------------
Pair    | 24.818     | 24.818     | 24.818     |   0.0 | 50.92
Neigh   | 22.931     | 22.931     | 22.931     |   0.0 | 47.04
Comm    | 0.36683    | 0.36683    | 0.36683    |   0.0 |  0.75
Output  | 0.00012302 | 0.00012302 | 0.00012302 |   0.0 |  0.00
Modify  | 0.48187    | 0.48187    | 0.48187    |   0.0 |  0.99
Other   |            | 0.1459     |            |       |  0.30

Nlocal:    19652 ave 19652 max 19652 min
Histogram: 1 0 0 0 0 0 0 0 0 0
Nghost:    17063 ave 17063 max 17063 min
Histogram: 1 0 0 0 0 0 0 0 0 0
Neighs:    1.24993e+06 ave 1.24993e+06 max 1.24993e+06 min
Histogram: 1 0 0 0 0 0 0 0 0 0

Total # of neighbors = 1249932
Ave neighs/atom = 63.6033
Neighbor list builds = 495
Dangerous builds not checked
Setting up Verlet run ...
  Unit style    : metal
  Current step  : 82495
  Time step     : 0.001
Per MPI rank memory allocation (min/avg/max) = 18.2 | 18.2 | 18.2 Mbytes
Step Temp Press TotEng PotEng Enthalpy 
   82495    1363.0872   -960.74845   -56294.026   -59756.392    -56531.63 
   84000    1349.4532    87.360069   -56320.203   -59747.937   -56298.635 
Loop time of 152.038 on 1 procs for 1505 steps with 19652 atoms

Performance: 0.855 ns/day, 28.062 hours/ns, 9.899 timesteps/s
99.8% CPU use with 1 MPI tasks x no OpenMP threads

MPI task timing breakdown:
Section |  min time  |  avg time  |  max time  |%varavg| %total
---------------------------------------------------------------
Pair    | 77.412     | 77.412     | 77.412     |   0.0 | 50.92
Neigh   | 71.321     | 71.321     | 71.321     |   0.0 | 46.91
Comm    | 1.1467     | 1.1467     | 1.1467     |   0.0 |  0.75
Output  | 0.25254    | 0.25254    | 0.25254    |   0.0 |  0.17
Modify  | 1.4879     | 1.4879     | 1.4879     |   0.0 |  0.98
Other   |            | 0.418      |            |       |  0.27

Nlocal:    19652 ave 19652 max 19652 min
Histogram: 1 0 0 0 0 0 0 0 0 0
Nghost:    17063 ave 17063 max 17063 min
Histogram: 1 0 0 0 0 0 0 0 0 0
Neighs:    1.25224e+06 ave 1.25224e+06 max 1.25224e+06 min
Histogram: 1 0 0 0 0 0 0 0 0 0

Total # of neighbors = 1252242
Ave neighs/atom = 63.7208
Neighbor list builds = 1505
Dangerous builds not checked
Setting up Verlet run ...
  Unit style    : metal
  Current step  : 84000
  Time step     : 0.001
Per MPI rank memory allocation (min/avg/max) = 18.2 | 18.2 | 18.2 Mbytes
Step Temp Press TotEng PotEng Enthalpy 
   84000    1349.4532    87.360069   -56320.203   -59747.937   -56298.635 
   84495    1314.5639   -22.433541   -56572.129   -59911.241   -56577.633 
Loop time of 52.1682 on 1 procs for 495 steps with 19652 atoms

Performance: 0.820 ns/day, 29.275 hours/ns, 9.489 timesteps/s
99.8% CPU use with 1 MPI tasks x no OpenMP threads

MPI task timing breakdown:
Section |  min time  |  avg time  |  max time  |%varavg| %total
---------------------------------------------------------------
Pair    | 26.74      | 26.74      | 26.74      |   0.0 | 51.26
Neigh   | 24.354     | 24.354     | 24.354     |   0.0 | 46.68
Comm    | 0.39845    | 0.39845    | 0.39845    |   0.0 |  0.76
Output  | 0.00012398 | 0.00012398 | 0.00012398 |   0.0 |  0.00
Modify  | 0.5208     | 0.5208     | 0.5208     |   0.0 |  1.00
Other   |            | 0.1551     |            |       |  0.30

Nlocal:    19652 ave 19652 max 19652 min
Histogram: 1 0 0 0 0 0 0 0 0 0
Nghost:    17123 ave 17123 max 17123 min
Histogram: 1 0 0 0 0 0 0 0 0 0
Neighs:    1.25979e+06 ave 1.25979e+06 max 1.25979e+06 min
Histogram: 1 0 0 0 0 0 0 0 0 0

Total # of neighbors = 1259791
Ave neighs/atom = 64.105
Neighbor list builds = 495
Dangerous builds not checked
Setting up Verlet run ...
  Unit style    : metal
  Current step  : 84495
  Time step     : 0.001
Per MPI rank memory allocation (min/avg/max) = 18.2 | 18.2 | 18.2 Mbytes
Step Temp Press TotEng PotEng Enthalpy 
   84495    1314.5639   -22.433541   -56572.129   -59911.241   -56577.633 
   86000     1292.844   -935.46026   -56696.714   -59980.656   -56926.066 
Loop time of 154.284 on 1 procs for 1505 steps with 19652 atoms

Performance: 0.843 ns/day, 28.476 hours/ns, 9.755 timesteps/s
98.9% CPU use with 1 MPI tasks x no OpenMP threads

MPI task timing breakdown:
Section |  min time  |  avg time  |  max time  |%varavg| %total
---------------------------------------------------------------
Pair    | 77.995     | 77.995     | 77.995     |   0.0 | 50.55
Neigh   | 71.538     | 71.538     | 71.538     |   0.0 | 46.37
Comm    | 1.1469     | 1.1469     | 1.1469     |   0.0 |  0.74
Output  | 1.6996     | 1.6996     | 1.6996     |   0.0 |  1.10
Modify  | 1.4986     | 1.4986     | 1.4986     |   0.0 |  0.97
Other   |            | 0.4053     |            |       |  0.26

Nlocal:    19652 ave 19652 max 19652 min
Histogram: 1 0 0 0 0 0 0 0 0 0
Nghost:    17086 ave 17086 max 17086 min
Histogram: 1 0 0 0 0 0 0 0 0 0
Neighs:    1.26159e+06 ave 1.26159e+06 max 1.26159e+06 min
Histogram: 1 0 0 0 0 0 0 0 0 0

Total # of neighbors = 1261592
Ave neighs/atom = 64.1966
Neighbor list builds = 1505
Dangerous builds not checked
Setting up Verlet run ...
  Unit style    : metal
  Current step  : 86000
  Time step     : 0.001
Per MPI rank memory allocation (min/avg/max) = 18.2 | 18.2 | 18.2 Mbytes
Step Temp Press TotEng PotEng Enthalpy 
   86000     1292.844   -935.46026   -56696.714   -59980.656   -56926.066 
   86495    1261.7629   -235.54046   -56867.043   -60072.036   -56924.535 
Loop time of 50.6746 on 1 procs for 495 steps with 19652 atoms

Performance: 0.844 ns/day, 28.437 hours/ns, 9.768 timesteps/s
100.0% CPU use with 1 MPI tasks x no OpenMP threads

MPI task timing breakdown:
Section |  min time  |  avg time  |  max time  |%varavg| %total
---------------------------------------------------------------
Pair    | 25.992     | 25.992     | 25.992     |   0.0 | 51.29
Neigh   | 23.65      | 23.65      | 23.65      |   0.0 | 46.67
Comm    | 0.38336    | 0.38336    | 0.38336    |   0.0 |  0.76
Output  | 0.00010896 | 0.00010896 | 0.00010896 |   0.0 |  0.00
Modify  | 0.50037    | 0.50037    | 0.50037    |   0.0 |  0.99
Other   |            | 0.1494     |            |       |  0.29

Nlocal:    19652 ave 19652 max 19652 min
Histogram: 1 0 0 0 0 0 0 0 0 0
Nghost:    17197 ave 17197 max 17197 min
Histogram: 1 0 0 0 0 0 0 0 0 0
Neighs:    1.26766e+06 ave 1.26766e+06 max 1.26766e+06 min
Histogram: 1 0 0 0 0 0 0 0 0 0

Total # of neighbors = 1267658
Ave neighs/atom = 64.5053
Neighbor list builds = 495
Dangerous builds not checked
Setting up Verlet run ...
  Unit style    : metal
  Current step  : 86495
  Time step     : 0.001
Per MPI rank memory allocation (min/avg/max) = 18.2 | 18.2 | 18.2 Mbytes
Step Temp Press TotEng PotEng Enthalpy 
   86495    1261.7629   -235.54046   -56867.043   -60072.036   -56924.535 
   88000    1248.6793    1524.4331   -56943.189   -60114.948   -56573.001 
Loop time of 159.933 on 1 procs for 1505 steps with 19652 atoms

Performance: 0.813 ns/day, 29.519 hours/ns, 9.410 timesteps/s
99.7% CPU use with 1 MPI tasks x no OpenMP threads

MPI task timing breakdown:
Section |  min time  |  avg time  |  max time  |%varavg| %total
---------------------------------------------------------------
Pair    | 82.437     | 82.437     | 82.437     |   0.0 | 51.54
Neigh   | 73.988     | 73.988     | 73.988     |   0.0 | 46.26
Comm    | 1.2233     | 1.2233     | 1.2233     |   0.0 |  0.76
Output  | 0.22999    | 0.22999    | 0.22999    |   0.0 |  0.14
Modify  | 1.5815     | 1.5815     | 1.5815     |   0.0 |  0.99
Other   |            | 0.4729     |            |       |  0.30

Nlocal:    19652 ave 19652 max 19652 min
Histogram: 1 0 0 0 0 0 0 0 0 0
Nghost:    17152 ave 17152 max 17152 min
Histogram: 1 0 0 0 0 0 0 0 0 0
Neighs:    1.27398e+06 ave 1.27398e+06 max 1.27398e+06 min
Histogram: 1 0 0 0 0 0 0 0 0 0

Total # of neighbors = 1273983
Ave neighs/atom = 64.8271
Neighbor list builds = 1505
Dangerous builds not checked
Setting up Verlet run ...
  Unit style    : metal
  Current step  : 88000
  Time step     : 0.001
Per MPI rank memory allocation (min/avg/max) = 18.2 | 18.2 | 18.2 Mbytes
Step Temp Press TotEng PotEng Enthalpy 
   88000    1248.6793    1524.4331   -56943.189   -60114.948   -56573.001 
   88495    1216.2888    964.24906   -57160.435    -60249.92   -56927.169 
Loop time of 50.9209 on 1 procs for 495 steps with 19652 atoms

Performance: 0.840 ns/day, 28.575 hours/ns, 9.721 timesteps/s
99.6% CPU use with 1 MPI tasks x no OpenMP threads

MPI task timing breakdown:
Section |  min time  |  avg time  |  max time  |%varavg| %total
---------------------------------------------------------------
Pair    | 26.188     | 26.188     | 26.188     |   0.0 | 51.43
Neigh   | 23.687     | 23.687     | 23.687     |   0.0 | 46.52
Comm    | 0.38681    | 0.38681    | 0.38681    |   0.0 |  0.76
Output  | 0.00010991 | 0.00010991 | 0.00010991 |   0.0 |  0.00
Modify  | 0.50558    | 0.50558    | 0.50558    |   0.0 |  0.99
Other   |            | 0.1531     |            |       |  0.30

Nlocal:    19652 ave 19652 max 19652 min
Histogram: 1 0 0 0 0 0 0 0 0 0
Nghost:    17214 ave 17214 max 17214 min
Histogram: 1 0 0 0 0 0 0 0 0 0
Neighs:    1.27877e+06 ave 1.27877e+06 max 1.27877e+06 min
Histogram: 1 0 0 0 0 0 0 0 0 0

Total # of neighbors = 1278766
Ave neighs/atom = 65.0705
Neighbor list builds = 495
Dangerous builds not checked
Setting up Verlet run ...
  Unit style    : metal
  Current step  : 88495
  Time step     : 0.001
Per MPI rank memory allocation (min/avg/max) = 18.2 | 18.2 | 18.2 Mbytes
Step Temp Press TotEng PotEng Enthalpy 
   88495    1216.2888    964.24906   -57160.435    -60249.92   -56927.169 
   90000    1197.9359   -1302.7533   -57249.528   -60292.394   -57565.297 
Loop time of 162.056 on 1 procs for 1505 steps with 19652 atoms

Performance: 0.802 ns/day, 29.911 hours/ns, 9.287 timesteps/s
99.7% CPU use with 1 MPI tasks x no OpenMP threads

MPI task timing breakdown:
Section |  min time  |  avg time  |  max time  |%varavg| %total
---------------------------------------------------------------
Pair    | 83.67      | 83.67      | 83.67      |   0.0 | 51.63
Neigh   | 74.834     | 74.834     | 74.834     |   0.0 | 46.18
Comm    | 1.231      | 1.231      | 1.231      |   0.0 |  0.76
Output  | 0.22448    | 0.22448    | 0.22448    |   0.0 |  0.14
Modify  | 1.6044     | 1.6044     | 1.6044     |   0.0 |  0.99
Other   |            | 0.4914     |            |       |  0.30

Nlocal:    19652 ave 19652 max 19652 min
Histogram: 1 0 0 0 0 0 0 0 0 0
Nghost:    17220 ave 17220 max 17220 min
Histogram: 1 0 0 0 0 0 0 0 0 0
Neighs:    1.27718e+06 ave 1.27718e+06 max 1.27718e+06 min
Histogram: 1 0 0 0 0 0 0 0 0 0

Total # of neighbors = 1277182
Ave neighs/atom = 64.9899
Neighbor list builds = 1505
Dangerous builds not checked
Setting up Verlet run ...
  Unit style    : metal
  Current step  : 90000
  Time step     : 0.001
Per MPI rank memory allocation (min/avg/max) = 18.2 | 18.2 | 18.2 Mbytes
Step Temp Press TotEng PotEng Enthalpy 
   90000    1197.9359   -1302.7533   -57249.528   -60292.394   -57565.297 
   90495    1172.0178   -986.72715   -57462.996   -60440.028   -57700.841 
Loop time of 54.2051 on 1 procs for 495 steps with 19652 atoms

Performance: 0.789 ns/day, 30.418 hours/ns, 9.132 timesteps/s
99.8% CPU use with 1 MPI tasks x no OpenMP threads

MPI task timing breakdown:
Section |  min time  |  avg time  |  max time  |%varavg| %total
---------------------------------------------------------------
Pair    | 28.175     | 28.175     | 28.175     |   0.0 | 51.98
Neigh   | 24.907     | 24.907     | 24.907     |   0.0 | 45.95
Comm    | 0.41045    | 0.41045    | 0.41045    |   0.0 |  0.76
Output  | 0.000108   | 0.000108   | 0.000108   |   0.0 |  0.00
Modify  | 0.54802    | 0.54802    | 0.54802    |   0.0 |  1.01
Other   |            | 0.1643     |            |       |  0.30

Nlocal:    19652 ave 19652 max 19652 min
Histogram: 1 0 0 0 0 0 0 0 0 0
Nghost:    17295 ave 17295 max 17295 min
Histogram: 1 0 0 0 0 0 0 0 0 0
[...]
Neighbor list builds = 1505
Dangerous builds not checked
Setting up Verlet run ...
  Unit style    : metal
  Current step  : 120000
  Time step     : 0.001
Per MPI rank memory allocation (min/avg/max) = 18.2 | 18.2 | 18.2 Mbytes
Step Temp Press TotEng PotEng Enthalpy 
  120000     449.4994   -522.61597   -62239.585   -63381.355    -62352.81 
  120495    418.57676   -261.23781    -62397.87   -63461.093   -62454.256 
Loop time of 53.8554 on 1 procs for 495 steps with 19652 atoms

Performance: 0.794 ns/day, 30.222 hours/ns, 9.191 timesteps/s
99.0% CPU use with 1 MPI tasks x no OpenMP threads

MPI task timing breakdown:
Section |  min time  |  avg time  |  max time  |%varavg| %total
---------------------------------------------------------------
Pair    | 27.686     | 27.686     | 27.686     |   0.0 | 51.41
Neigh   | 25.037     | 25.037     | 25.037     |   0.0 | 46.49
Comm    | 0.36929    | 0.36929    | 0.36929    |   0.0 |  0.69
Output  | 0.12686    | 0.12686    | 0.12686    |   0.0 |  0.24
Modify  | 0.49967    | 0.49967    | 0.49967    |   0.0 |  0.93
Other   |            | 0.1367     |            |       |  0.25

Nlocal:    19652 ave 19652 max 19652 min
Histogram: 1 0 0 0 0 0 0 0 0 0
Nghost:    18023 ave 18023 max 18023 min
Histogram: 1 0 0 0 0 0 0 0 0 0
Neighs:    1.4392e+06 ave 1.4392e+06 max 1.4392e+06 min
Histogram: 1 0 0 0 0 0 0 0 0 0

Total # of neighbors = 1439196
Ave neighs/atom = 73.2341
Neighbor list builds = 495
Dangerous builds not checked
Setting up Verlet run ...
  Unit style    : metal
  Current step  : 120495
  Time step     : 0.001
Per MPI rank memory allocation (min/avg/max) = 18.2 | 18.2 | 18.2 Mbytes
Step Temp Press TotEng PotEng Enthalpy 
  120495    418.57676   -261.23781    -62397.87   -63461.093   -62454.256 
  122000     401.1043   -567.12138   -62570.922   -63589.763   -62692.884 
Loop time of 167.667 on 1 procs for 1505 steps with 19652 atoms

Performance: 0.776 ns/day, 30.946 hours/ns, 8.976 timesteps/s
99.5% CPU use with 1 MPI tasks x no OpenMP threads

MPI task timing breakdown:
Section |  min time  |  avg time  |  max time  |%varavg| %total
---------------------------------------------------------------
Pair    | 86.179     | 86.179     | 86.179     |   0.0 | 51.40
Neigh   | 77.554     | 77.554     | 77.554     |   0.0 | 46.25
Comm    | 1.1529     | 1.1529     | 1.1529     |   0.0 |  0.69
Output  | 0.80546    | 0.80546    | 0.80546    |   0.0 |  0.48
Modify  | 1.5531     | 1.5531     | 1.5531     |   0.0 |  0.93
Other   |            | 0.4229     |            |       |  0.25

Nlocal:    19652 ave 19652 max 19652 min
Histogram: 1 0 0 0 0 0 0 0 0 0
Nghost:    18066 ave 18066 max 18066 min
Histogram: 1 0 0 0 0 0 0 0 0 0
Neighs:    1.44467e+06 ave 1.44467e+06 max 1.44467e+06 min
Histogram: 1 0 0 0 0 0 0 0 0 0

Total # of neighbors = 1444669
Ave neighs/atom = 73.5126
Neighbor list builds = 1505
Dangerous builds not checked
Setting up Verlet run ...
  Unit style    : metal
  Current step  : 122000
  Time step     : 0.001
Per MPI rank memory allocation (min/avg/max) = 18.2 | 18.2 | 18.2 Mbytes
Step Temp Press TotEng PotEng Enthalpy 
  122000     401.1043   -567.12138   -62570.922   -63589.763   -62692.884 
  122495    372.86781   -462.45798   -62734.515   -63681.634   -62833.637 
Loop time of 53.9251 on 1 procs for 495 steps with 19652 atoms

Performance: 0.793 ns/day, 30.261 hours/ns, 9.179 timesteps/s
100.0% CPU use with 1 MPI tasks x no OpenMP threads

MPI task timing breakdown:
Section |  min time  |  avg time  |  max time  |%varavg| %total
---------------------------------------------------------------
Pair    | 27.839     | 27.839     | 27.839     |   0.0 | 51.62
Neigh   | 25.062     | 25.062     | 25.062     |   0.0 | 46.48
Comm    | 0.37858    | 0.37858    | 0.37858    |   0.0 |  0.70
Output  | 0.0001092  | 0.0001092  | 0.0001092  |   0.0 |  0.00
Modify  | 0.50606    | 0.50606    | 0.50606    |   0.0 |  0.94
Other   |            | 0.1397     |            |       |  0.26

Nlocal:    19652 ave 19652 max 19652 min
Histogram: 1 0 0 0 0 0 0 0 0 0
Nghost:    18110 ave 18110 max 18110 min
Histogram: 1 0 0 0 0 0 0 0 0 0
Neighs:    1.44989e+06 ave 1.44989e+06 max 1.44989e+06 min
Histogram: 1 0 0 0 0 0 0 0 0 0

Total # of neighbors = 1449893
Ave neighs/atom = 73.7784
Neighbor list builds = 495
Dangerous builds not checked
Setting up Verlet run ...
  Unit style    : metal
  Current step  : 122495
  Time step     : 0.001
Per MPI rank memory allocation (min/avg/max) = 18.2 | 18.2 | 18.2 Mbytes
Step Temp Press TotEng PotEng Enthalpy 
  122495    372.86781   -462.45798   -62734.515   -63681.634   -62833.637 
  124000    348.61689    318.27912   -62909.725   -63795.243   -62841.832 
Loop time of 163.069 on 1 procs for 1505 steps with 19652 atoms

Performance: 0.797 ns/day, 30.098 hours/ns, 9.229 timesteps/s
99.8% CPU use with 1 MPI tasks x no OpenMP threads

MPI task timing breakdown:
Section |  min time  |  avg time  |  max time  |%varavg| %total
---------------------------------------------------------------
Pair    | 84.169     | 84.169     | 84.169     |   0.0 | 51.62
Neigh   | 75.451     | 75.451     | 75.451     |   0.0 | 46.27
Comm    | 1.1396     | 1.1396     | 1.1396     |   0.0 |  0.70
Output  | 0.35637    | 0.35637    | 0.35637    |   0.0 |  0.22
Modify  | 1.5133     | 1.5133     | 1.5133     |   0.0 |  0.93
Other   |            | 0.4392     |            |       |  0.27

Nlocal:    19652 ave 19652 max 19652 min
Histogram: 1 0 0 0 0 0 0 0 0 0
Nghost:    18116 ave 18116 max 18116 min
Histogram: 1 0 0 0 0 0 0 0 0 0
Neighs:    1.45664e+06 ave 1.45664e+06 max 1.45664e+06 min
Histogram: 1 0 0 0 0 0 0 0 0 0

Total # of neighbors = 1456637
Ave neighs/atom = 74.1216
Neighbor list builds = 1505
Dangerous builds not checked
Setting up Verlet run ...
  Unit style    : metal
  Current step  : 124000
  Time step     : 0.001
Per MPI rank memory allocation (min/avg/max) = 18.2 | 18.2 | 18.2 Mbytes
Step Temp Press TotEng PotEng Enthalpy 
  124000    348.61689    318.27912   -62909.725   -63795.243   -62841.832 
  124495    321.86952     526.9022   -63053.926   -63871.504    -62941.88 
Loop time of 53.2747 on 1 procs for 495 steps with 19652 atoms

Performance: 0.803 ns/day, 29.896 hours/ns, 9.291 timesteps/s
99.7% CPU use with 1 MPI tasks x no OpenMP threads

MPI task timing breakdown:
Section |  min time  |  avg time  |  max time  |%varavg| %total
---------------------------------------------------------------
Pair    | 27.535     | 27.535     | 27.535     |   0.0 | 51.68
Neigh   | 24.716     | 24.716     | 24.716     |   0.0 | 46.39
Comm    | 0.37631    | 0.37631    | 0.37631    |   0.0 |  0.71
Output  | 0.00012302 | 0.00012302 | 0.00012302 |   0.0 |  0.00
Modify  | 0.49575    | 0.49575    | 0.49575    |   0.0 |  0.93
Other   |            | 0.1514     |            |       |  0.28

Nlocal:    19652 ave 19652 max 19652 min
Histogram: 1 0 0 0 0 0 0 0 0 0
Nghost:    18086 ave 18086 max 18086 min
Histogram: 1 0 0 0 0 0 0 0 0 0
Neighs:    1.46046e+06 ave 1.46046e+06 max 1.46046e+06 min
Histogram: 1 0 0 0 0 0 0 0 0 0

Total # of neighbors = 1460459
Ave neighs/atom = 74.316
Neighbor list builds = 495
Dangerous builds not checked
Setting up Verlet run ...
  Unit style    : metal
  Current step  : 124495
  Time step     : 0.001
Per MPI rank memory allocation (min/avg/max) = 18.2 | 18.2 | 18.2 Mbytes
Step Temp Press TotEng PotEng Enthalpy 
  124495    321.86952     526.9022   -63053.926   -63871.504    -62941.88 
  126000     301.4419    718.01285    -63211.77    -63977.46   -63059.645 
Loop time of 160.853 on 1 procs for 1505 steps with 19652 atoms

Performance: 0.808 ns/day, 29.689 hours/ns, 9.356 timesteps/s
99.8% CPU use with 1 MPI tasks x no OpenMP threads

MPI task timing breakdown:
Section |  min time  |  avg time  |  max time  |%varavg| %total
---------------------------------------------------------------
Pair    | 83.183     | 83.183     | 83.183     |   0.0 | 51.71
Neigh   | 74.443     | 74.443     | 74.443     |   0.0 | 46.28
Comm    | 1.1215     | 1.1215     | 1.1215     |   0.0 |  0.70
Output  | 0.17711    | 0.17711    | 0.17711    |   0.0 |  0.11
Modify  | 1.4848     | 1.4848     | 1.4848     |   0.0 |  0.92
Other   |            | 0.4437     |            |       |  0.28

Nlocal:    19652 ave 19652 max 19652 min
Histogram: 1 0 0 0 0 0 0 0 0 0
Nghost:    18155 ave 18155 max 18155 min
Histogram: 1 0 0 0 0 0 0 0 0 0
Neighs:    1.46531e+06 ave 1.46531e+06 max 1.46531e+06 min
Histogram: 1 0 0 0 0 0 0 0 0 0

Total # of neighbors = 1465310
Ave neighs/atom = 74.5629
Neighbor list builds = 1505
Dangerous builds not checked
Setting up Verlet run ...
  Unit style    : metal
  Current step  : 126000
  Time step     : 0.001
Per MPI rank memory allocation (min/avg/max) = 18.2 | 18.2 | 18.2 Mbytes
Step Temp Press TotEng PotEng Enthalpy 
  126000     301.4419    718.01285    -63211.77    -63977.46   -63059.645 
  126495    273.70414   -253.25368   -63356.689   -64051.923   -63410.282 
Loop time of 51.9307 on 1 procs for 495 steps with 19652 atoms

Performance: 0.824 ns/day, 29.142 hours/ns, 9.532 timesteps/s
99.6% CPU use with 1 MPI tasks x no OpenMP threads

MPI task timing breakdown:
Section |  min time  |  avg time  |  max time  |%varavg| %total
---------------------------------------------------------------
Pair    | 26.824     | 26.824     | 26.824     |   0.0 | 51.65
Neigh   | 24.146     | 24.146     | 24.146     |   0.0 | 46.50
Comm    | 0.35499    | 0.35499    | 0.35499    |   0.0 |  0.68
Output  | 0.00012398 | 0.00012398 | 0.00012398 |   0.0 |  0.00
Modify  | 0.47558    | 0.47558    | 0.47558    |   0.0 |  0.92
Other   |            | 0.1301     |            |       |  0.25

Nlocal:    19652 ave 19652 max 19652 min
Histogram: 1 0 0 0 0 0 0 0 0 0
Nghost:    18161 ave 18161 max 18161 min
Histogram: 1 0 0 0 0 0 0 0 0 0
Neighs:    1.46713e+06 ave 1.46713e+06 max 1.46713e+06 min
Histogram: 1 0 0 0 0 0 0 0 0 0

Total # of neighbors = 1467129
Ave neighs/atom = 74.6555
Neighbor list builds = 495
Dangerous builds not checked
Setting up Verlet run ...
  Unit style    : metal
  Current step  : 126495
  Time step     : 0.001
Per MPI rank memory allocation (min/avg/max) = 18.2 | 18.2 | 18.2 Mbytes
Step Temp Press TotEng PotEng Enthalpy 
  126495    273.70414   -253.25368   -63356.689   -64051.923   -63410.282 
  128000    248.47138    122.23028   -63508.979   -64140.119   -63483.199 
Loop time of 162.283 on 1 procs for 1505 steps with 19652 atoms

Performance: 0.801 ns/day, 29.953 hours/ns, 9.274 timesteps/s
99.7% CPU use with 1 MPI tasks x no OpenMP threads

MPI task timing breakdown:
Section |  min time  |  avg time  |  max time  |%varavg| %total
---------------------------------------------------------------
Pair    | 83.974     | 83.974     | 83.974     |   0.0 | 51.75
Neigh   | 75.177     | 75.177     | 75.177     |   0.0 | 46.32
Comm    | 1.1243     | 1.1243     | 1.1243     |   0.0 |  0.69
Output  | 0.10304    | 0.10304    | 0.10304    |   0.0 |  0.06
Modify  | 1.497      | 1.497      | 1.497      |   0.0 |  0.92
Other   |            | 0.4081     |            |       |  0.25

Nlocal:    19652 ave 19652 max 19652 min
Histogram: 1 0 0 0 0 0 0 0 0 0
Nghost:    18153 ave 18153 max 18153 min
Histogram: 1 0 0 0 0 0 0 0 0 0
Neighs:    1.47136e+06 ave 1.47136e+06 max 1.47136e+06 min
Histogram: 1 0 0 0 0 0 0 0 0 0

Total # of neighbors = 1471360
Ave neighs/atom = 74.8708
Neighbor list builds = 1505
Dangerous builds not checked
Setting up Verlet run ...
  Unit style    : metal
  Current step  : 128000
  Time step     : 0.001
Per MPI rank memory allocation (min/avg/max) = 18.2 | 18.2 | 18.2 Mbytes
Step Temp Press TotEng PotEng Enthalpy 
  128000    248.47138    122.23028   -63508.979   -64140.119   -63483.199 
  128495     226.2566   -1.1259019   -63646.798   -64221.511   -63647.035 
Loop time of 55.7297 on 1 procs for 495 steps with 19652 atoms

Performance: 0.767 ns/day, 31.274 hours/ns, 8.882 timesteps/s
99.9% CPU use with 1 MPI tasks x no OpenMP threads

MPI task timing breakdown:
Section |  min time  |  avg time  |  max time  |%varavg| %total
---------------------------------------------------------------
Pair    | 29.059     | 29.059     | 29.059     |   0.0 | 52.14
Neigh   | 25.622     | 25.622     | 25.622     |   0.0 | 45.98
Comm    | 0.38656    | 0.38656    | 0.38656    |   0.0 |  0.69
Output  | 0.00013995 | 0.00013995 | 0.00013995 |   0.0 |  0.00
Modify  | 0.52126    | 0.52126    | 0.52126    |   0.0 |  0.94
Other   |            | 0.1406     |            |       |  0.25

Nlocal:    19652 ave 19652 max 19652 min
Histogram: 1 0 0 0 0 0 0 0 0 0
Nghost:    18229 ave 18229 max 18229 min
Histogram: 1 0 0 0 0 0 0 0 0 0
Neighs:    1.4743e+06 ave 1.4743e+06 max 1.4743e+06 min
Histogram: 1 0 0 0 0 0 0 0 0 0

Total # of neighbors = 1474304
Ave neighs/atom = 75.0206
Neighbor list builds = 495
Dangerous builds not checked
Setting up Verlet run ...
  Unit style    : metal
  Current step  : 128495
  Time step     : 0.001
Per MPI rank memory allocation (min/avg/max) = 18.2 | 18.2 | 18.2 Mbytes
Step Temp Press TotEng PotEng Enthalpy 
  128495     226.2566   -1.1259019   -63646.798   -64221.511   -63647.035 
  130000    198.62362   -131.00014   -63797.272   -64301.794    -63824.77 
Loop time of 163.204 on 1 procs for 1505 steps with 19652 atoms

Performance: 0.797 ns/day, 30.123 hours/ns, 9.222 timesteps/s
99.6% CPU use with 1 MPI tasks x no OpenMP threads

MPI task timing breakdown:
Section |  min time  |  avg time  |  max time  |%varavg| %total
---------------------------------------------------------------
Pair    | 84.398     | 84.398     | 84.398     |   0.0 | 51.71
Neigh   | 75.145     | 75.145     | 75.145     |   0.0 | 46.04
Comm    | 1.1265     | 1.1265     | 1.1265     |   0.0 |  0.69
Output  | 0.6272     | 0.6272     | 0.6272     |   0.0 |  0.38
Modify  | 1.4996     | 1.4996     | 1.4996     |   0.0 |  0.92
Other   |            | 0.408      |            |       |  0.25

Nlocal:    19652 ave 19652 max 19652 min
Histogram: 1 0 0 0 0 0 0 0 0 0
Nghost:    18226 ave 18226 max 18226 min
Histogram: 1 0 0 0 0 0 0 0 0 0
Neighs:    1.47777e+06 ave 1.47777e+06 max 1.47777e+06 min
Histogram: 1 0 0 0 0 0 0 0 0 0

Total # of neighbors = 1477768
Ave neighs/atom = 75.1968
Neighbor list builds = 1505
Dangerous builds not checked
Setting up Verlet run ...
  Unit style    : metal
  Current step  : 130000
  Time step     : 0.001
Per MPI rank memory allocation (min/avg/max) = 18.2 | 18.2 | 18.2 Mbytes
Step Temp Press TotEng PotEng Enthalpy 
  130000    198.62362   -131.00014   -63797.272   -64301.794    -63824.77 
  130495    175.89593   -99.902771   -63926.354   -64373.145   -63947.273 
Loop time of 55.0172 on 1 procs for 495 steps with 19652 atoms

Performance: 0.777 ns/day, 30.874 hours/ns, 8.997 timesteps/s
99.9% CPU use with 1 MPI tasks x no OpenMP threads

MPI task timing breakdown:
Section |  min time  |  avg time  |  max time  |%varavg| %total
---------------------------------------------------------------
Pair    | 28.672     | 28.672     | 28.672     |   0.0 | 52.11
Neigh   | 25.314     | 25.314     | 25.314     |   0.0 | 46.01
Comm    | 0.37914    | 0.37914    | 0.37914    |   0.0 |  0.69
Output  | 0.00012803 | 0.00012803 | 0.00012803 |   0.0 |  0.00
Modify  | 0.51414    | 0.51414    | 0.51414    |   0.0 |  0.93
Other   |            | 0.1379     |            |       |  0.25

Nlocal:    19652 ave 19652 max 19652 min
Histogram: 1 0 0 0 0 0 0 0 0 0
Nghost:    18261 ave 18261 max 18261 min
Histogram: 1 0 0 0 0 0 0 0 0 0
Neighs:    1.48082e+06 ave 1.48082e+06 max 1.48082e+06 min
Histogram: 1 0 0 0 0 0 0 0 0 0

Total # of neighbors = 1480824
Ave neighs/atom = 75.3523
Neighbor list builds = 495
Dangerous builds not checked
Setting up Verlet run ...
  Unit style    : metal
  Current step  : 130495
  Time step     : 0.001
Per MPI rank memory allocation (min/avg/max) = 18.2 | 18.2 | 18.2 Mbytes
Step Temp Press TotEng PotEng Enthalpy 
  130495    175.89593   -99.902771   -63926.354   -64373.145   -63947.273 
  132000    150.79122   -138.98084   -64073.928   -64456.951   -64102.956 
Loop time of 172.26 on 1 procs for 1505 steps with 19652 atoms

Performance: 0.755 ns/day, 31.794 hours/ns, 8.737 timesteps/s
99.5% CPU use with 1 MPI tasks x no OpenMP threads

MPI task timing breakdown:
Section |  min time  |  avg time  |  max time  |%varavg| %total
---------------------------------------------------------------
Pair    | 89.981     | 89.981     | 89.981     |   0.0 | 52.24
Neigh   | 78.852     | 78.852     | 78.852     |   0.0 | 45.78
Comm    | 1.2311     | 1.2311     | 1.2311     |   0.0 |  0.71
Output  | 0.10612    | 0.10612    | 0.10612    |   0.0 |  0.06
Modify  | 1.6137     | 1.6137     | 1.6137     |   0.0 |  0.94
Other   |            | 0.476      |            |       |  0.28

Nlocal:    19652 ave 19652 max 19652 min
Histogram: 1 0 0 0 0 0 0 0 0 0
Nghost:    18283 ave 18283 max 18283 min
Histogram: 1 0 0 0 0 0 0 0 0 0
Neighs:    1.48438e+06 ave 1.48438e+06 max 1.48438e+06 min
Histogram: 1 0 0 0 0 0 0 0 0 0

Total # of neighbors = 1484376
Ave neighs/atom = 75.5331
Neighbor list builds = 1505
Dangerous builds not checked
Setting up Verlet run ...
  Unit style    : metal
  Current step  : 132000
  Time step     : 0.001
Per MPI rank memory allocation (min/avg/max) = 18.2 | 18.2 | 18.2 Mbytes
Step Temp Press TotEng PotEng Enthalpy 
  132000    150.79122   -138.98084   -64073.928   -64456.951   -64102.956 
  132495     128.0088    96.620945   -64193.768   -64518.922   -64173.632 
Loop time of 55.5938 on 1 procs for 495 steps with 19652 atoms

Performance: 0.769 ns/day, 31.197 hours/ns, 8.904 timesteps/s
99.9% CPU use with 1 MPI tasks x no OpenMP threads

MPI task timing breakdown:
Section |  min time  |  avg time  |  max time  |%varavg| %total
---------------------------------------------------------------
Pair    | 29.009     | 29.009     | 29.009     |   0.0 | 52.18
Neigh   | 25.527     | 25.527     | 25.527     |   0.0 | 45.92
Comm    | 0.39094    | 0.39094    | 0.39094    |   0.0 |  0.70
Output  | 0.00012612 | 0.00012612 | 0.00012612 |   0.0 |  0.00
Modify  | 0.52265    | 0.52265    | 0.52265    |   0.0 |  0.94
Other   |            | 0.1445     |            |       |  0.26

Nlocal:    19652 ave 19652 max 19652 min
Histogram: 1 0 0 0 0 0 0 0 0 0
Nghost:    18266 ave 18266 max 18266 min
Histogram: 1 0 0 0 0 0 0 0 0 0
Neighs:    1.48787e+06 ave 1.48787e+06 max 1.48787e+06 min
Histogram: 1 0 0 0 0 0 0 0 0 0

Total # of neighbors = 1487872
Ave neighs/atom = 75.711
Neighbor list builds = 495
Dangerous builds not checked
Setting up Verlet run ...
  Unit style    : metal
  Current step  : 132495
  Time step     : 0.001
Per MPI rank memory allocation (min/avg/max) = 18.2 | 18.2 | 18.2 Mbytes
Step Temp Press TotEng PotEng Enthalpy 
  132495     128.0088    96.620945   -64193.768   -64518.922   -64173.632 
  134000    98.789268    264.32988   -64347.575   -64598.509   -64292.639 
Loop time of 179.412 on 1 procs for 1505 steps with 19652 atoms

Performance: 0.725 ns/day, 33.114 hours/ns, 8.389 timesteps/s
99.9% CPU use with 1 MPI tasks x no OpenMP threads

MPI task timing breakdown:
Section |  min time  |  avg time  |  max time  |%varavg| %total
---------------------------------------------------------------
Pair    | 94.014     | 94.014     | 94.014     |   0.0 | 52.40
Neigh   | 81.818     | 81.818     | 81.818     |   0.0 | 45.60
Comm    | 1.2603     | 1.2603     | 1.2603     |   0.0 |  0.70
Output  | 0.15942    | 0.15942    | 0.15942    |   0.0 |  0.09
Modify  | 1.6935     | 1.6935     | 1.6935     |   0.0 |  0.94
Other   |            | 0.4667     |            |       |  0.26

Nlocal:    19652 ave 19652 max 19652 min
Histogram: 1 0 0 0 0 0 0 0 0 0
Nghost:    18316 ave 18316 max 18316 min
Histogram: 1 0 0 0 0 0 0 0 0 0
Neighs:    1.49098e+06 ave 1.49098e+06 max 1.49098e+06 min
Histogram: 1 0 0 0 0 0 0 0 0 0

Total # of neighbors = 1490977
Ave neighs/atom = 75.869
Neighbor list builds = 1505
Dangerous builds not checked
Total wall time: 4:23:36
