LAMMPS (12 Dec 2018)
Lattice spacing in x,y,z = 4 4 4
Created orthogonal box = (0 0 0) to (68 68 68)
  1 by 2 by 3 MPI processor grid
Created 19652 atoms
  Time spent = 0.000851154 secs
Setting atom values ...
  206 settings made for type/fraction
Neighbor list info ...
  update every 1 steps, delay 0 steps, check no
  max neighbors/atom: 2000, page size: 100000
  master list distance cutoff = 8.5
  ghost atom cutoff = 8.5
  binsize = 4.25, bins = 16 16 16
  1 neighbor lists, perpetual/occasional/extra = 1 0 0
  (1) pair eam/alloy, perpetual
      attributes: half, newton on
      pair build: half/bin/atomonly/newton
      stencil: half/bin/3d/newton
      bin: standard
Setting up Verlet run ...
  Unit style    : metal
  Current step  : 0
  Time step     : 0.001
Per MPI rank memory allocation (min/avg/max) = 5.546 | 5.705 | 5.983 Mbytes
Step Temp Press TotEng PotEng Enthalpy 
       0          300    264566.39   -21465.716   -22227.744    30456.241 
    1000     164.2289    261825.17   -21465.506   -21882.662    29918.478 
Loop time of 35.0385 on 6 procs for 1000 steps with 19652 atoms

Performance: 2.466 ns/day, 9.733 hours/ns, 28.540 timesteps/s
98.5% CPU use with 6 MPI tasks x no OpenMP threads

MPI task timing breakdown:
Section |  min time  |  avg time  |  max time  |%varavg| %total
---------------------------------------------------------------
Pair    | 19.463     | 19.727     | 20.175     |   5.7 | 56.30
Neigh   | 11.592     | 12.254     | 12.872     |  12.1 | 34.97
Comm    | 2.525      | 2.8811     | 3.0973     |  11.5 |  8.22
Output  | 0.00011301 | 0.00015469 | 0.00029516 |   0.0 |  0.00
Modify  | 0.084572   | 0.08629    | 0.087806   |   0.5 |  0.25
Other   |            | 0.08979    |            |       |  0.26

Nlocal:    3275.33 ave 3345 max 3176 min
Histogram: 2 0 0 0 0 0 0 1 1 2
Nghost:    7728.17 ave 7884 max 7471 min
Histogram: 2 0 0 0 0 0 0 0 1 3
Neighs:    261593 ave 270725 max 253834 min
Histogram: 2 0 0 1 1 0 0 0 0 2

Total # of neighbors = 1569559
Ave neighs/atom = 79.8676
Neighbor list builds = 1000
Dangerous builds not checked
Setting up Verlet run ...
  Unit style    : metal
  Current step  : 1000
  Time step     : 0.001
Per MPI rank memory allocation (min/avg/max) = 5.549 | 5.838 | 5.987 Mbytes
Step Temp Press TotEng PotEng Enthalpy 
    1000     164.2289    261825.17   -21465.506   -21882.662    29918.478 
    2000    268.52998    283.36411   -28726.721   -29408.812   -28646.497 
Loop time of 27.0105 on 6 procs for 1000 steps with 19652 atoms

Performance: 3.199 ns/day, 7.503 hours/ns, 37.023 timesteps/s
99.6% CPU use with 6 MPI tasks x no OpenMP threads

MPI task timing breakdown:
Section |  min time  |  avg time  |  max time  |%varavg| %total
---------------------------------------------------------------
Pair    | 14.166     | 14.341     | 14.521     |   3.7 | 53.09
Neigh   | 10.039     | 10.67      | 11.349     |  14.4 | 39.50
Comm    | 0.94934    | 1.5338     | 1.9754     |  27.6 |  5.68
Output  | 5.7936e-05 | 7.2956e-05 | 0.00013399 |   0.0 |  0.00
Modify  | 0.33382    | 0.37919    | 0.41238    |   5.3 |  1.40
Other   |            | 0.08647    |            |       |  0.32

Nlocal:    3275.33 ave 3346 max 3171 min
Histogram: 2 0 0 0 0 0 0 1 1 2
Nghost:    6060.17 ave 6180 max 5987 min
Histogram: 3 0 1 0 0 0 0 0 0 2
Neighs:    187456 ave 191848 max 181028 min
Histogram: 1 1 0 0 0 0 0 1 2 1

Total # of neighbors = 1124734
Ave neighs/atom = 57.2325
Neighbor list builds = 1000
Dangerous builds not checked
Setting up Verlet run ...
  Unit style    : metal
  Current step  : 2000
  Time step     : 0.001
Per MPI rank memory allocation (min/avg/max) = 5.549 | 5.838 | 5.987 Mbytes
Step Temp Press TotEng PotEng Enthalpy 
    2000    268.52998    283.36411   -28726.721   -29408.812   -28646.497 
   10000    2445.0034   -45.404926   -13977.852   -20188.383   -13996.792 
Loop time of 185.036 on 6 procs for 8000 steps with 19652 atoms

Performance: 3.735 ns/day, 6.425 hours/ns, 43.235 timesteps/s
97.7% CPU use with 6 MPI tasks x no OpenMP threads

MPI task timing breakdown:
Section |  min time  |  avg time  |  max time  |%varavg| %total
---------------------------------------------------------------
Pair    | 92.526     | 93.509     | 94.317     |   6.2 | 50.54
Neigh   | 65.75      | 68.818     | 70.229     |  20.4 | 37.19
Comm    | 16.538     | 18.408     | 20.741     |  32.8 |  9.95
Output  | 5.0068e-05 | 5.6664e-05 | 8.4877e-05 |   0.0 |  0.00
Modify  | 3.6354     | 3.6914     | 3.7704     |   2.7 |  1.99
Other   |            | 0.6107     |            |       |  0.33

Nlocal:    3275.33 ave 3309 max 3226 min
Histogram: 1 1 0 0 0 0 0 2 0 2
Nghost:    5340.17 ave 5397 max 5298 min
Histogram: 1 1 0 2 0 0 0 1 0 1
Neighs:    122384 ave 125501 max 118826 min
Histogram: 1 0 0 0 2 1 1 0 0 1

Total # of neighbors = 734303
Ave neighs/atom = 37.3653
Neighbor list builds = 8000
Dangerous builds not checked
Setting up Verlet run ...
  Unit style    : metal
  Current step  : 10000
  Time step     : 0.001
Per MPI rank memory allocation (min/avg/max) = 5.553 | 5.841 | 5.989 Mbytes
Step Temp Press TotEng PotEng Enthalpy 
   10000    2445.0034   -45.404926   -13977.852   -20188.383   -13996.792 
   40000    2454.0214    134.25621   -13784.182    -20017.62   -13727.481 
Loop time of 662.499 on 6 procs for 30000 steps with 19652 atoms

Performance: 3.912 ns/day, 6.134 hours/ns, 45.283 timesteps/s
98.9% CPU use with 6 MPI tasks x no OpenMP threads

MPI task timing breakdown:
Section |  min time  |  avg time  |  max time  |%varavg| %total
---------------------------------------------------------------
Pair    | 335.86     | 337.44     | 339.26     |   7.2 | 50.94
Neigh   | 258.21     | 259.45     | 262.88     |  10.6 | 39.16
Comm    | 45.714     | 50.712     | 53.458     |  34.7 |  7.65
Output  | 6.0797e-05 | 7.3155e-05 | 0.00012422 |   0.0 |  0.00
Modify  | 12.141     | 12.219     | 12.298     |   1.6 |  1.84
Other   |            | 2.675      |            |       |  0.40

Nlocal:    3275.33 ave 3323 max 3258 min
Histogram: 2 2 1 0 0 0 0 0 0 1
Nghost:    5295.67 ave 5326 max 5248 min
Histogram: 1 0 1 0 0 0 1 1 0 2
Neighs:    121068 ave 123922 max 118420 min
Histogram: 2 0 0 1 0 1 0 0 0 2

Total # of neighbors = 726405
Ave neighs/atom = 36.9634
Neighbor list builds = 30000
Dangerous builds not checked
Setting up Verlet run ...
  Unit style    : metal
  Current step  : 40000
  Time step     : 0.001
Per MPI rank memory allocation (min/avg/max) = 5.553 | 5.841 | 5.989 Mbytes
Step Temp Press TotEng PotEng Enthalpy 
   40000    2454.0214    134.25621   -13784.182    -20017.62   -13727.481 
   40495     2416.374    159.68761   -13941.043   -20078.853   -13873.804 
Loop time of 10.6956 on 6 procs for 495 steps with 19652 atoms

Performance: 3.999 ns/day, 6.002 hours/ns, 46.281 timesteps/s
99.0% CPU use with 6 MPI tasks x no OpenMP threads

MPI task timing breakdown:
Section |  min time  |  avg time  |  max time  |%varavg| %total
---------------------------------------------------------------
Pair    | 5.5117     | 5.5401     | 5.5867     |   1.1 | 51.80
Neigh   | 4.1489     | 4.2302     | 4.3519     |   4.0 | 39.55
Comm    | 0.55833    | 0.70529    | 0.81667    |  12.7 |  6.59
Output  | 0.00035095 | 0.00036081 | 0.00038791 |   0.0 |  0.00
Modify  | 0.16997    | 0.17458    | 0.17931    |   0.8 |  1.63
Other   |            | 0.04506    |            |       |  0.42

Nlocal:    3275.33 ave 3302 max 3262 min
Histogram: 2 1 0 1 0 1 0 0 0 1
Nghost:    5308.33 ave 5355 max 5277 min
Histogram: 1 2 1 0 0 0 0 0 0 2
Neighs:    121474 ave 122094 max 120648 min
Histogram: 1 0 0 0 1 1 1 0 1 1

Total # of neighbors = 728847
Ave neighs/atom = 37.0877
Neighbor list builds = 495
Dangerous builds not checked
Setting up Verlet run ...
  Unit style    : metal
  Current step  : 40495
  Time step     : 0.001
Per MPI rank memory allocation (min/avg/max) = 5.553 | 5.841 | 5.989 Mbytes
Step Temp Press TotEng PotEng Enthalpy 
   40495     2416.374    159.68761   -13941.043   -20078.853   -13873.804 
   66667    2375.7352    570.04994   -14246.739   -20281.323   -14010.879 
  106667    2386.8024    52.631644   -14271.757   -20334.452   -14250.022 
Loop time of 2127.68 on 6 procs for 66172 steps with 19652 atoms

Performance: 2.687 ns/day, 8.932 hours/ns, 31.101 timesteps/s
92.0% CPU use with 6 MPI tasks x no OpenMP threads

MPI task timing breakdown:
Section |  min time  |  avg time  |  max time  |%varavg| %total
---------------------------------------------------------------
Pair    | 1072.5     | 1079.8     | 1088.8     |  15.4 | 50.75
Neigh   | 612.04     | 623.83     | 631.7      |  24.9 | 29.32
Comm    | 292.12     | 304.79     | 317.75     |  53.0 | 14.33
Output  | 0.016711   | 0.016727   | 0.016797   |   0.0 |  0.00
Modify  | 110.61     | 113.02     | 115.67     |  16.2 |  5.31
Other   |            | 6.193      |            |       |  0.29

Nlocal:    3275.33 ave 3298 max 3247 min
Histogram: 1 0 1 0 1 0 0 0 2 1
Nghost:    5345.17 ave 5381 max 5331 min
Histogram: 3 0 1 1 0 0 0 0 0 1
Neighs:    123638 ave 126324 max 121565 min
Histogram: 1 2 0 0 1 0 0 0 0 2

Total # of neighbors = 741831
Ave neighs/atom = 37.7484
Neighbor list builds = 66172
Dangerous builds not checked
Setting up Verlet run ...
  Unit style    : metal
  Current step  : 106667
  Time step     : 0.001
Per MPI rank memory allocation (min/avg/max) = 5.572 | 5.86 | 6.005 Mbytes
Step Temp Press TotEng PotEng Enthalpy 
  106667    2386.8024    52.631644   -14271.757   -20334.452   -14250.022 
  107162    2367.1476   -384.48402   -14364.636   -20377.406    -14523.69 
Loop time of 19.2447 on 6 procs for 495 steps with 19652 atoms

Performance: 2.222 ns/day, 10.799 hours/ns, 25.721 timesteps/s
85.6% CPU use with 6 MPI tasks x no OpenMP threads

MPI task timing breakdown:
Section |  min time  |  avg time  |  max time  |%varavg| %total
---------------------------------------------------------------
Pair    | 9.4256     | 9.6341     | 9.8632     |   5.4 | 50.06
Neigh   | 4.1368     | 4.5869     | 4.9009     |  12.4 | 23.83
Comm    | 3.0236     | 3.5779     | 4.0585     |  19.7 | 18.59
Output  | 9.5129e-05 | 0.00013804 | 0.00034404 |   0.0 |  0.00
Modify  | 1.259      | 1.3965     | 1.5679     |   9.7 |  7.26
Other   |            | 0.04909    |            |       |  0.26

Nlocal:    3275.33 ave 3301 max 3250 min
Histogram: 1 0 1 0 0 3 0 0 0 1
Nghost:    5359.83 ave 5396 max 5286 min
Histogram: 1 0 0 0 1 0 1 0 0 3
Neighs:    123534 ave 125958 max 120456 min
Histogram: 1 0 0 2 0 0 0 1 0 2

Total # of neighbors = 741201
Ave neighs/atom = 37.7163
Neighbor list builds = 495
Dangerous builds not checked
Setting up Verlet run ...
  Unit style    : metal
  Current step  : 107162
  Time step     : 0.001
Per MPI rank memory allocation (min/avg/max) = 5.572 | 5.86 | 6.005 Mbytes
Step Temp Press TotEng PotEng Enthalpy 
  107162    2367.1476   -384.48402   -14364.636   -20377.406    -14523.69 
  133334    2336.7699   -119.45823   -14534.388   -20469.997   -14583.369 
  173334    2338.3679    -46.77774   -14583.921   -20523.589   -14603.044 
Loop time of 2591.93 on 6 procs for 66172 steps with 19652 atoms

Performance: 2.206 ns/day, 10.880 hours/ns, 25.530 timesteps/s
87.7% CPU use with 6 MPI tasks x no OpenMP threads

MPI task timing breakdown:
Section |  min time  |  avg time  |  max time  |%varavg| %total
---------------------------------------------------------------
Pair    | 1305.4     | 1311.7     | 1317.6     |  12.1 | 50.61
Neigh   | 633.86     | 647.45     | 655.78     |  27.5 | 24.98
Comm    | 443.89     | 455.04     | 471.62     |  44.1 | 17.56
Output  | 0.063628   | 0.070325   | 0.094722   |   4.3 |  0.00
Modify  | 168        | 171.41     | 174.7      |  19.4 |  6.61
Other   |            | 6.29       |            |       |  0.24

Nlocal:    3275.33 ave 3314 max 3221 min
Histogram: 1 0 0 0 1 2 0 0 0 2
Nghost:    5399.17 ave 5468 max 5339 min
Histogram: 1 0 0 1 2 1 0 0 0 1
Neighs:    124994 ave 128709 max 121690 min
Histogram: 1 1 1 0 0 0 1 0 1 1

Total # of neighbors = 749963
Ave neighs/atom = 38.1622
Neighbor list builds = 66172
Dangerous builds not checked
Setting up Verlet run ...
  Unit style    : metal
  Current step  : 173334
  Time step     : 0.001
Per MPI rank memory allocation (min/avg/max) = 5.572 | 5.86 | 6.005 Mbytes
Step Temp Press TotEng PotEng Enthalpy 
  173334    2338.3679    -46.77774   -14583.921   -20523.589   -14603.044 
  173829     2302.409   -60.572589   -14709.223   -20557.551   -14733.959 
Loop time of 13.5062 on 6 procs for 495 steps with 19652 atoms

Performance: 3.167 ns/day, 7.579 hours/ns, 36.650 timesteps/s
94.2% CPU use with 6 MPI tasks x no OpenMP threads

MPI task timing breakdown:
Section |  min time  |  avg time  |  max time  |%varavg| %total
---------------------------------------------------------------
Pair    | 6.8541     | 6.9393     | 7.0182     |   2.2 | 51.38
Neigh   | 4.2099     | 4.4042     | 4.5928     |   6.5 | 32.61
Comm    | 1.3979     | 1.6354     | 1.8361     |  11.3 | 12.11
Output  | 6.9857e-05 | 8.1778e-05 | 0.00013089 |   0.0 |  0.00
Modify  | 0.43631    | 0.48247    | 0.51767    |   4.1 |  3.57
Other   |            | 0.04472    |            |       |  0.33

Nlocal:    3275.33 ave 3350 max 3234 min
Histogram: 2 0 1 1 1 0 0 0 0 1
Nghost:    5368 ave 5411 max 5306 min
Histogram: 1 0 0 0 1 1 0 2 0 1
Neighs:    125081 ave 130450 max 121310 min
Histogram: 1 2 0 0 1 0 0 1 0 1

Total # of neighbors = 750487
Ave neighs/atom = 38.1888
Neighbor list builds = 495
Dangerous builds not checked
Setting up Verlet run ...
  Unit style    : metal
  Current step  : 173829
  Time step     : 0.001
Per MPI rank memory allocation (min/avg/max) = 5.572 | 5.86 | 6.005 Mbytes
Step Temp Press TotEng PotEng Enthalpy 
  173829     2302.409   -60.572589   -14709.223   -20557.551   -14733.959 
  200001    2296.2925    192.63857   -14914.129   -20746.921   -14836.585 
  240001    2272.8135    29.890757   -14995.807   -20768.961   -14983.789 
Loop time of 2101.92 on 6 procs for 66172 steps with 19652 atoms

Performance: 2.720 ns/day, 8.823 hours/ns, 31.482 timesteps/s
91.5% CPU use with 6 MPI tasks x no OpenMP threads

MPI task timing breakdown:
Section |  min time  |  avg time  |  max time  |%varavg| %total
---------------------------------------------------------------
Pair    | 1061.4     | 1070.4     | 1078.3     |  17.5 | 50.93
Neigh   | 609.17     | 620.14     | 631.17     |  29.8 | 29.50
Comm    | 280.84     | 293.81     | 312.82     |  67.2 | 13.98
Output  | 0.030964   | 0.030994   | 0.031078   |   0.0 |  0.00
Modify  | 108.21     | 111.24     | 113.85     |  16.6 |  5.29
Other   |            | 6.284      |            |       |  0.30

Nlocal:    3275.33 ave 3308 max 3250 min
Histogram: 1 0 1 2 0 0 1 0 0 1
Nghost:    5413 ave 5464 max 5372 min
Histogram: 1 1 0 0 1 1 1 0 0 1
Neighs:    127057 ave 128931 max 123756 min
Histogram: 1 0 0 0 0 1 1 1 1 1

Total # of neighbors = 762340
Ave neighs/atom = 38.792
Neighbor list builds = 66172
Dangerous builds not checked
Setting up Verlet run ...
  Unit style    : metal
  Current step  : 240001
  Time step     : 0.001
Per MPI rank memory allocation (min/avg/max) = 5.572 | 5.86 | 6.005 Mbytes
Step Temp Press TotEng PotEng Enthalpy 
  240001    2272.8135    29.890757   -14995.807   -20768.961   -14983.789 
  240496    2243.3507    222.83462   -15115.329   -20813.644   -15025.837 
Loop time of 10.2168 on 6 procs for 495 steps with 19652 atoms

Performance: 4.186 ns/day, 5.733 hours/ns, 48.450 timesteps/s
100.0% CPU use with 6 MPI tasks x no OpenMP threads

MPI task timing breakdown:
Section |  min time  |  avg time  |  max time  |%varavg| %total
---------------------------------------------------------------
Pair    | 5.2043     | 5.2887     | 5.3652     |   2.7 | 51.77
Neigh   | 3.9871     | 4.0566     | 4.2473     |   4.4 | 39.71
Comm    | 0.55543    | 0.66781    | 0.82279    |  10.1 |  6.54
Output  | 8.0109e-05 | 0.00010169 | 0.00016093 |   0.0 |  0.00
Modify  | 0.15785    | 0.15984    | 0.16415    |   0.5 |  1.56
Other   |            | 0.04365    |            |       |  0.43

Nlocal:    3275.33 ave 3311 max 3250 min
Histogram: 1 2 0 0 0 1 1 0 0 1
Nghost:    5415.5 ave 5449 max 5389 min
Histogram: 2 0 0 1 0 0 2 0 0 1
Neighs:    127246 ave 128924 max 125232 min
Histogram: 1 0 1 0 0 1 1 0 1 1

Total # of neighbors = 763476
Ave neighs/atom = 38.8498
Neighbor list builds = 495
Dangerous builds not checked
Setting up Verlet run ...
  Unit style    : metal
  Current step  : 240496
  Time step     : 0.001
Per MPI rank memory allocation (min/avg/max) = 5.572 | 5.86 | 6.005 Mbytes
Step Temp Press TotEng PotEng Enthalpy 
  240496    2243.3507    222.83462   -15115.329   -20813.644   -15025.837 
  266668    2244.3893   -96.548346   -15261.022   -20961.976   -15299.443 
  306668    2253.5102    43.214227   -15246.875   -20970.996   -15229.674 
Loop time of 1507.79 on 6 procs for 66172 steps with 19652 atoms

Performance: 3.792 ns/day, 6.329 hours/ns, 43.887 timesteps/s
99.8% CPU use with 6 MPI tasks x no OpenMP threads

MPI task timing breakdown:
Section |  min time  |  avg time  |  max time  |%varavg| %total
---------------------------------------------------------------
Pair    | 777.18     | 790.36     | 800.68     |  30.1 | 52.42
Neigh   | 589.49     | 598.18     | 607.46     |  24.0 | 39.67
Comm    | 77.582     | 88.317     | 110.36     | 136.4 |  5.86
Output  | 0.018492   | 0.018515   | 0.018624   |   0.0 |  0.00
Modify  | 24.315     | 24.474     | 24.592     |   2.1 |  1.62
Other   |            | 6.442      |            |       |  0.43

Nlocal:    3275.33 ave 3324 max 3239 min
Histogram: 1 1 1 0 1 0 0 1 0 1
Nghost:    5417.33 ave 5469 max 5391 min
Histogram: 2 2 0 0 0 0 1 0 0 1
Neighs:    128283 ave 131348 max 125427 min
Histogram: 1 1 0 0 1 0 1 1 0 1

Total # of neighbors = 769697
Ave neighs/atom = 39.1663
Neighbor list builds = 66172
Dangerous builds not checked
Setting up Verlet run ...
  Unit style    : metal
  Current step  : 306668
  Time step     : 0.001
Per MPI rank memory allocation (min/avg/max) = 5.572 | 5.86 | 6.005 Mbytes
Step Temp Press TotEng PotEng Enthalpy 
  306668    2253.5102    43.214227   -15246.875   -20970.996   -15229.674 
  307163    2220.0094   -274.40287   -15451.159   -21090.185   -15559.718 
Loop time of 10.4559 on 6 procs for 495 steps with 19652 atoms

Performance: 4.090 ns/day, 5.867 hours/ns, 47.342 timesteps/s
99.9% CPU use with 6 MPI tasks x no OpenMP threads

MPI task timing breakdown:
Section |  min time  |  avg time  |  max time  |%varavg| %total
---------------------------------------------------------------
Pair    | 5.3315     | 5.4314     | 5.517      |   2.5 | 51.95
Neigh   | 4.1409     | 4.2045     | 4.3035     |   3.2 | 40.21
Comm    | 0.46795    | 0.59476    | 0.70233    |   9.2 |  5.69
Output  | 5.2929e-05 | 6.4929e-05 | 0.00011396 |   0.0 |  0.00
Modify  | 0.17526    | 0.17651    | 0.1784     |   0.3 |  1.69
Other   |            | 0.04867    |            |       |  0.47

Nlocal:    3275.33 ave 3304 max 3246 min
Histogram: 1 1 1 0 0 0 1 0 1 1
Nghost:    5467.33 ave 5486 max 5439 min
Histogram: 1 0 0 0 1 1 0 1 1 1
Neighs:    129062 ave 131631 max 127402 min
Histogram: 2 1 0 0 0 1 1 0 0 1

Total # of neighbors = 774370
Ave neighs/atom = 39.4041
Neighbor list builds = 495
Dangerous builds not checked
Setting up Verlet run ...
  Unit style    : metal
  Current step  : 307163
  Time step     : 0.001
Per MPI rank memory allocation (min/avg/max) = 5.572 | 5.86 | 6.005 Mbytes
Step Temp Press TotEng PotEng Enthalpy 
  307163    2220.0094   -274.40287   -15451.159   -21090.185   -15559.718 
  333335    2190.9242    8.8770301   -15489.135   -21054.282   -15485.621 
  373335     2201.431   -13.989982   -15623.401   -21215.236   -15628.899 
Loop time of 1510.21 on 6 procs for 66172 steps with 19652 atoms

Performance: 3.786 ns/day, 6.340 hours/ns, 43.816 timesteps/s
99.9% CPU use with 6 MPI tasks x no OpenMP threads

MPI task timing breakdown:
Section |  min time  |  avg time  |  max time  |%varavg| %total
---------------------------------------------------------------
Pair    | 785.25     | 794.84     | 803.59     |  24.9 | 52.63
Neigh   | 586.44     | 597.25     | 605.79     |  27.1 | 39.55
Comm    | 73.835     | 88.075     | 107.9      | 143.8 |  5.83
Output  | 0.019813   | 0.019841   | 0.01997    |   0.0 |  0.00
Modify  | 23.366     | 23.598     | 23.743     |   2.8 |  1.56
Other   |            | 6.435      |            |       |  0.43

Nlocal:    3275.33 ave 3308 max 3241 min
Histogram: 2 0 0 1 0 0 0 1 0 2
Nghost:    5472.5 ave 5505 max 5428 min
Histogram: 1 1 0 0 0 0 0 2 1 1
Neighs:    130056 ave 131842 max 128832 min
Histogram: 2 0 0 2 0 0 1 0 0 1

Total # of neighbors = 780335
Ave neighs/atom = 39.7077
Neighbor list builds = 66172
Dangerous builds not checked
Setting up Verlet run ...
  Unit style    : metal
  Current step  : 373335
  Time step     : 0.001
Per MPI rank memory allocation (min/avg/max) = 5.572 | 5.86 | 6.005 Mbytes
Step Temp Press TotEng PotEng Enthalpy 
  373335     2201.431   -13.989982   -15623.401   -21215.236   -15628.899 
  373830    2153.3847    286.43471   -15773.407   -21243.201   -15661.325 
Loop time of 10.7548 on 6 procs for 495 steps with 19652 atoms

Performance: 3.977 ns/day, 6.035 hours/ns, 46.026 timesteps/s
99.8% CPU use with 6 MPI tasks x no OpenMP threads

MPI task timing breakdown:
Section |  min time  |  avg time  |  max time  |%varavg| %total
---------------------------------------------------------------
Pair    | 5.5924     | 5.6763     | 5.745      |   2.3 | 52.78
Neigh   | 4.2287     | 4.3089     | 4.4066     |   2.7 | 40.06
Comm    | 0.49935    | 0.5486     | 0.63874    |   6.0 |  5.10
Output  | 9.203e-05  | 0.00012203 | 0.00025392 |   0.0 |  0.00
Modify  | 0.17217    | 0.17297    | 0.17413    |   0.2 |  1.61
Other   |            | 0.04791    |            |       |  0.45

Nlocal:    3275.33 ave 3305 max 3240 min
Histogram: 1 0 1 0 0 0 2 1 0 1
Nghost:    5454 ave 5518 max 5400 min
Histogram: 1 1 0 0 1 2 0 0 0 1
Neighs:    130593 ave 132748 max 128110 min
Histogram: 1 1 0 0 0 1 1 1 0 1

Total # of neighbors = 783558
Ave neighs/atom = 39.8717
Neighbor list builds = 495
Dangerous builds not checked
Setting up Verlet run ...
  Unit style    : metal
  Current step  : 373830
  Time step     : 0.001
Per MPI rank memory allocation (min/avg/max) = 5.572 | 5.86 | 6.005 Mbytes
Step Temp Press TotEng PotEng Enthalpy 
  373830    2153.3847    286.43471   -15773.407   -21243.201   -15661.325 
  400002    2166.4526     569.8697   -15866.643    -21369.63   -15645.469 
  440002    2133.8884   -477.19923   -15824.201   -21244.472   -16011.558 
Loop time of 1520.65 on 6 procs for 66172 steps with 19652 atoms

Performance: 3.760 ns/day, 6.383 hours/ns, 43.516 timesteps/s
99.9% CPU use with 6 MPI tasks x no OpenMP threads

MPI task timing breakdown:
Section |  min time  |  avg time  |  max time  |%varavg| %total
---------------------------------------------------------------
Pair    | 791.5      | 803.48     | 812.45     |  27.4 | 52.84
Neigh   | 588.12     | 598.28     | 604.9      |  22.9 | 39.34
Comm    | 77.358     | 88.716     | 106.26     | 128.6 |  5.83
Output  | 0.015863   | 0.015885   | 0.01598    |   0.0 |  0.00
Modify  | 23.471     | 23.699     | 23.8       |   2.4 |  1.56
Other   |            | 6.464      |            |       |  0.43

Nlocal:    3275.33 ave 3300 max 3250 min
Histogram: 1 0 1 0 2 0 0 0 0 2
Nghost:    5457.17 ave 5499 max 5404 min
Histogram: 1 0 0 0 1 1 1 1 0 1
Neighs:    130090 ave 133714 max 127350 min
Histogram: 2 0 1 0 1 0 0 0 1 1

Total # of neighbors = 780537
Ave neighs/atom = 39.7179
Neighbor list builds = 66172
Dangerous builds not checked
Setting up Verlet run ...
  Unit style    : metal
  Current step  : 440002
  Time step     : 0.001
Per MPI rank memory allocation (min/avg/max) = 5.572 | 5.86 | 6.005 Mbytes
Step Temp Press TotEng PotEng Enthalpy 
  440002    2133.8884   -477.19923   -15824.201   -21244.472   -16011.558 
  440497    2117.3601      85.0517   -16065.015   -21443.302   -16032.038 
Loop time of 10.8604 on 6 procs for 495 steps with 19652 atoms

Performance: 3.938 ns/day, 6.094 hours/ns, 45.579 timesteps/s
100.0% CPU use with 6 MPI tasks x no OpenMP threads

MPI task timing breakdown:
Section |  min time  |  avg time  |  max time  |%varavg| %total
---------------------------------------------------------------
Pair    | 5.6482     | 5.7269     | 5.7784     |   2.1 | 52.73
Neigh   | 4.1344     | 4.285      | 4.4757     |   5.8 | 39.46
Comm    | 0.38164    | 0.6286     | 0.86217    |  21.4 |  5.79
Output  | 5.2929e-05 | 6.3539e-05 | 0.00011182 |   0.0 |  0.00
Modify  | 0.16768    | 0.17135    | 0.17572    |   0.8 |  1.58
Other   |            | 0.04841    |            |       |  0.45

Nlocal:    3275.33 ave 3310 max 3252 min
Histogram: 2 0 0 2 0 0 0 1 0 1
Nghost:    5485 ave 5523 max 5457 min
Histogram: 2 0 0 2 0 0 0 1 0 1
Neighs:    131785 ave 134537 max 128453 min
Histogram: 2 0 0 0 1 0 0 1 0 2

Total # of neighbors = 790708
Ave neighs/atom = 40.2355
Neighbor list builds = 495
Dangerous builds not checked
Setting up Verlet run ...
  Unit style    : metal
  Current step  : 440497
  Time step     : 0.001
Per MPI rank memory allocation (min/avg/max) = 5.572 | 5.86 | 6.005 Mbytes
Step Temp Press TotEng PotEng Enthalpy 
  440497    2117.3601      85.0517   -16065.015   -21443.302   -16032.038 
  466669    2083.9473   -29.346252   -16303.017   -21596.433   -16314.289 
  506669    2100.4361   -320.74047   -16227.955   -21563.254   -16351.477 
Loop time of 1528.82 on 6 procs for 66172 steps with 19652 atoms

Performance: 3.740 ns/day, 6.418 hours/ns, 43.283 timesteps/s
99.9% CPU use with 6 MPI tasks x no OpenMP threads

MPI task timing breakdown:
Section |  min time  |  avg time  |  max time  |%varavg| %total
---------------------------------------------------------------
Pair    | 796.53     | 807.35     | 816.93     |  24.8 | 52.81
Neigh   | 590.49     | 602.57     | 607.75     |  24.0 | 39.41
Comm    | 74.963     | 88.841     | 111.96     | 134.8 |  5.81
Output  | 0.015664   | 0.015701   | 0.015871   |   0.1 |  0.00
Modify  | 23.403     | 23.584     | 23.747     |   2.6 |  1.54
Other   |            | 6.459      |            |       |  0.42

Nlocal:    3275.33 ave 3298 max 3250 min
Histogram: 1 1 0 0 0 1 1 1 0 1
Nghost:    5490 ave 5520 max 5454 min
Histogram: 1 0 0 1 0 0 3 0 0 1
Neighs:    132592 ave 134247 max 129881 min
Histogram: 1 0 0 1 0 0 1 1 0 2

Total # of neighbors = 795554
Ave neighs/atom = 40.4821
Neighbor list builds = 66172
Dangerous builds not checked
Setting up Verlet run ...
  Unit style    : metal
  Current step  : 506669
  Time step     : 0.001
Per MPI rank memory allocation (min/avg/max) = 5.577 | 5.866 | 6.011 Mbytes
Step Temp Press TotEng PotEng Enthalpy 
  506669    2100.4361   -320.74047   -16227.955   -21563.254   -16351.477 
  507164    2054.8208    -128.4058    -16429.11   -21648.542   -16478.363 
Loop time of 11.0297 on 6 procs for 495 steps with 19652 atoms

Performance: 3.878 ns/day, 6.190 hours/ns, 44.879 timesteps/s
98.4% CPU use with 6 MPI tasks x no OpenMP threads

MPI task timing breakdown:
Section |  min time  |  avg time  |  max time  |%varavg| %total
---------------------------------------------------------------
Pair    | 5.5029     | 5.7714     | 6.0133     |   8.0 | 52.33
Neigh   | 4.1044     | 4.1932     | 4.3236     |   3.8 | 38.02
Comm    | 0.49383    | 0.83776    | 1.1894     |  26.9 |  7.60
Output  | 6.7949e-05 | 0.00010411 | 0.000278   |   0.0 |  0.00
Modify  | 0.17679    | 0.17801    | 0.17891    |   0.2 |  1.61
Other   |            | 0.04923    |            |       |  0.45

Nlocal:    3275.33 ave 3307 max 3211 min
Histogram: 1 0 1 0 0 0 0 0 1 3
Nghost:    5547.33 ave 5602 max 5503 min
Histogram: 1 1 0 1 0 1 1 0 0 1
Neighs:    133149 ave 135862 max 127470 min
Histogram: 1 0 0 0 0 1 1 0 1 2

Total # of neighbors = 798894
Ave neighs/atom = 40.652
Neighbor list builds = 495
Dangerous builds not checked
Setting up Verlet run ...
  Unit style    : metal
  Current step  : 507164
  Time step     : 0.001
Per MPI rank memory allocation (min/avg/max) = 5.577 | 5.866 | 6.011 Mbytes
Step Temp Press TotEng PotEng Enthalpy 
  507164    2054.8208    -128.4058    -16429.11   -21648.542   -16478.363 
  533336    2065.1637   -105.94783   -16512.715   -21758.419   -16553.125 
  573336    2030.9419   -163.61358   -16551.329   -21710.107   -16613.742 
Loop time of 1588.47 on 6 procs for 66172 steps with 19652 atoms

Performance: 3.599 ns/day, 6.668 hours/ns, 41.658 timesteps/s
99.8% CPU use with 6 MPI tasks x no OpenMP threads

MPI task timing breakdown:
Section |  min time  |  avg time  |  max time  |%varavg| %total
---------------------------------------------------------------
Pair    | 809.54     | 825.28     | 836.2      |  32.8 | 51.95
Neigh   | 630.87     | 640.06     | 649.09     |  22.2 | 40.29
Comm    | 79.842     | 92.547     | 117.83     | 140.2 |  5.83
Output  | 0.017602   | 0.017638   | 0.017811   |   0.1 |  0.00
Modify  | 23.734     | 24.097     | 24.333     |   5.1 |  1.52
Other   |            | 6.47       |            |       |  0.41

Nlocal:    3275.33 ave 3329 max 3220 min
Histogram: 1 0 1 0 1 0 1 1 0 1
Nghost:    5507.33 ave 5568 max 5444 min
Histogram: 1 2 0 0 0 0 0 0 2 1
Neighs:    133887 ave 136529 max 127915 min
Histogram: 1 0 0 0 0 1 0 0 2 2

Total # of neighbors = 803320
Ave neighs/atom = 40.8773
Neighbor list builds = 66172
Dangerous builds not checked
Setting up Verlet run ...
  Unit style    : metal
  Current step  : 573336
  Time step     : 0.001
Per MPI rank memory allocation (min/avg/max) = 5.577 | 5.866 | 6.011 Mbytes
Step Temp Press TotEng PotEng Enthalpy 
  573336    2030.9419   -163.61358   -16551.329   -21710.107   -16613.742 
  573831     2006.079   -131.56757       -16760   -21855.623   -16809.835 
Loop time of 11.482 on 6 procs for 495 steps with 19652 atoms

Performance: 3.725 ns/day, 6.443 hours/ns, 43.111 timesteps/s
99.9% CPU use with 6 MPI tasks x no OpenMP threads

MPI task timing breakdown:
Section |  min time  |  avg time  |  max time  |%varavg| %total
---------------------------------------------------------------
Pair    | 5.7932     | 5.9346     | 6.0408     |   3.3 | 51.69
Neigh   | 4.5287     | 4.6721     | 4.8276     |   4.6 | 40.69
Comm    | 0.46779    | 0.64718    | 0.9356     |  19.5 |  5.64
Output  | 6.1989e-05 | 7.4347e-05 | 0.00012493 |   0.0 |  0.00
Modify  | 0.17527    | 0.17884    | 0.18196    |   0.6 |  1.56
Other   |            | 0.04921    |            |       |  0.43

Nlocal:    3275.33 ave 3295 max 3252 min
Histogram: 1 0 2 0 0 0 0 0 1 2
Nghost:    5572.33 ave 5621 max 5538 min
Histogram: 1 0 2 1 0 0 1 0 0 1
Neighs:    134826 ave 137118 max 131603 min
Histogram: 1 0 0 0 0 2 1 1 0 1

Total # of neighbors = 808957
Ave neighs/atom = 41.1641
Neighbor list builds = 495
Dangerous builds not checked
Setting up Verlet run ...
  Unit style    : metal
  Current step  : 573831
  Time step     : 0.001
Per MPI rank memory allocation (min/avg/max) = 5.577 | 5.866 | 6.011 Mbytes
Step Temp Press TotEng PotEng Enthalpy 
  573831     2006.079   -131.56757       -16760   -21855.623   -16809.835 
  600003    1997.6268     428.4298   -16928.796    -22002.95   -16768.069 
  640003    1967.9473     65.02911   -16973.869   -21972.635   -16949.439 
Loop time of 1598.56 on 6 procs for 66172 steps with 19652 atoms

Performance: 3.577 ns/day, 6.710 hours/ns, 41.395 timesteps/s
99.9% CPU use with 6 MPI tasks x no OpenMP threads

MPI task timing breakdown:
Section |  min time  |  avg time  |  max time  |%varavg| %total
---------------------------------------------------------------
Pair    | 815.07     | 831.81     | 848.93     |  37.3 | 52.03
Neigh   | 630.69     | 642.33     | 649.76     |  26.3 | 40.18
Comm    | 74.26      | 93.877     | 122.46     | 168.6 |  5.87
Output  | 0.016473   | 0.016497   | 0.016602   |   0.0 |  0.00
Modify  | 23.854     | 24.044     | 24.272     |   3.1 |  1.50
Other   |            | 6.48       |            |       |  0.41

Nlocal:    3275.33 ave 3295 max 3250 min
Histogram: 1 0 0 1 1 0 1 0 0 2
Nghost:    5572.5 ave 5605 max 5525 min
Histogram: 1 0 0 1 0 1 0 1 1 1
Neighs:    136025 ave 137861 max 134167 min
Histogram: 1 0 1 0 0 1 2 0 0 1

Total # of neighbors = 816148
Ave neighs/atom = 41.53
Neighbor list builds = 66172
Dangerous builds not checked
Setting up Verlet run ...
  Unit style    : metal
  Current step  : 640003
  Time step     : 0.001
Per MPI rank memory allocation (min/avg/max) = 5.577 | 5.866 | 6.011 Mbytes
Step Temp Press TotEng PotEng Enthalpy 
  640003    1967.9473     65.02911   -16973.869   -21972.635   -16949.439 
  640498    1951.9624   -174.72397   -17043.584   -22001.746     -17109.3 
Loop time of 11.4757 on 6 procs for 495 steps with 19652 atoms

Performance: 3.727 ns/day, 6.440 hours/ns, 43.135 timesteps/s
100.0% CPU use with 6 MPI tasks x no OpenMP threads

MPI task timing breakdown:
Section |  min time  |  avg time  |  max time  |%varavg| %total
---------------------------------------------------------------
Pair    | 5.7669     | 5.9429     | 6.067      |   4.0 | 51.79
Neigh   | 4.5218     | 4.6646     | 4.8293     |   4.9 | 40.65
Comm    | 0.43892    | 0.64102    | 0.826      |  17.0 |  5.59
Output  | 6.2943e-05 | 7.4704e-05 | 0.00012517 |   0.0 |  0.00
Modify  | 0.17561    | 0.17845    | 0.181      |   0.4 |  1.55
Other   |            | 0.04867    |            |       |  0.42

Nlocal:    3275.33 ave 3307 max 3256 min
Histogram: 1 0 2 1 1 0 0 0 0 1
Nghost:    5575.33 ave 5592 max 5560 min
Histogram: 1 1 1 0 0 0 1 1 0 1
Neighs:    135732 ave 137597 max 132531 min
Histogram: 1 0 0 0 0 1 1 2 0 1

Total # of neighbors = 814394
Ave neighs/atom = 41.4408
Neighbor list builds = 495
Dangerous builds not checked
Setting up Verlet run ...
  Unit style    : metal
  Current step  : 640498
  Time step     : 0.001
Per MPI rank memory allocation (min/avg/max) = 5.577 | 5.866 | 6.011 Mbytes
Step Temp Press TotEng PotEng Enthalpy 
  640498    1951.9624   -174.72397   -17043.584   -22001.746     -17109.3 
  666670    1950.4968   -219.34622   -17149.659   -22104.099   -17231.727 
  706670    1939.3831   -1181.8747   -17172.759   -22098.968   -17616.895 
Loop time of 1598.79 on 6 procs for 66172 steps with 19652 atoms

Performance: 3.576 ns/day, 6.711 hours/ns, 41.389 timesteps/s
99.9% CPU use with 6 MPI tasks x no OpenMP threads

MPI task timing breakdown:
Section |  min time  |  avg time  |  max time  |%varavg| %total
---------------------------------------------------------------
Pair    | 815.03     | 834.06     | 847.46     |  35.5 | 52.17
Neigh   | 635.95     | 642.06     | 654.47     |  24.3 | 40.16
Comm    | 75.597     | 92.19      | 117.41     | 150.3 |  5.77
Output  | 0.018062   | 0.018094   | 0.018245   |   0.1 |  0.00
Modify  | 23.771     | 23.979     | 24.161     |   2.6 |  1.50
Other   |            | 6.485      |            |       |  0.41

Nlocal:    3275.33 ave 3303 max 3206 min
Histogram: 1 0 0 0 0 0 1 1 1 2
Nghost:    5583.33 ave 5600 max 5561 min
Histogram: 1 0 1 0 0 0 1 1 1 1
Neighs:    135774 ave 138571 max 131864 min
Histogram: 1 0 0 0 1 0 2 0 1 1

Total # of neighbors = 814646
Ave neighs/atom = 41.4536
Neighbor list builds = 66172
Dangerous builds not checked
Setting up Verlet run ...
  Unit style    : metal
  Current step  : 706670
  Time step     : 0.001
Per MPI rank memory allocation (min/avg/max) = 5.577 | 5.866 | 6.011 Mbytes
Step Temp Press TotEng PotEng Enthalpy 
  706670    1939.3831   -1181.8747   -17172.759   -22098.968   -17616.895 
  707165    1911.5217    257.13718   -17389.553   -22244.992   -17294.274 
Loop time of 11.1964 on 6 procs for 495 steps with 19652 atoms

Performance: 3.820 ns/day, 6.283 hours/ns, 44.211 timesteps/s
99.9% CPU use with 6 MPI tasks x no OpenMP threads

MPI task timing breakdown:
Section |  min time  |  avg time  |  max time  |%varavg| %total
---------------------------------------------------------------
Pair    | 5.668      | 5.8002     | 5.9065     |   3.1 | 51.80
Neigh   | 4.4031     | 4.5619     | 4.6762     |   4.6 | 40.74
Comm    | 0.48484    | 0.61108    | 0.81934    |  15.6 |  5.46
Output  | 9.8944e-05 | 0.00011516 | 0.00018501 |   0.0 |  0.00
Modify  | 0.17346    | 0.17511    | 0.17776    |   0.3 |  1.56
Other   |            | 0.04808    |            |       |  0.43

Nlocal:    3275.33 ave 3304 max 3231 min
Histogram: 1 0 0 0 1 1 0 1 1 1
Nghost:    5623 ave 5667 max 5570 min
Histogram: 1 1 0 0 0 1 1 0 0 2
Neighs:    137861 ave 140466 max 135636 min
Histogram: 2 0 0 0 1 0 2 0 0 1

Total # of neighbors = 827164
Ave neighs/atom = 42.0906
Neighbor list builds = 495
Dangerous builds not checked
Setting up Verlet run ...
  Unit style    : metal
  Current step  : 707165
  Time step     : 0.001
Per MPI rank memory allocation (min/avg/max) = 5.577 | 5.866 | 6.011 Mbytes
Step Temp Press TotEng PotEng Enthalpy 
  707165    1911.5217    257.13718   -17389.553   -22244.992   -17294.274 
  733337    1903.4966   -379.20922   -17413.872   -22248.927   -17554.553 
  773337    1892.5836     440.3583   -17545.539   -22352.873   -17383.524 
Loop time of 1605.55 on 6 procs for 66172 steps with 19652 atoms

Performance: 3.561 ns/day, 6.740 hours/ns, 41.214 timesteps/s
99.8% CPU use with 6 MPI tasks x no OpenMP threads

MPI task timing breakdown:
Section |  min time  |  avg time  |  max time  |%varavg| %total
---------------------------------------------------------------
Pair    | 823.29     | 840.76     | 851.85     |  32.3 | 52.37
Neigh   | 632.47     | 641.88     | 646.67     |  18.6 | 39.98
Comm    | 80.103     | 92.164     | 119.19     | 143.7 |  5.74
Output  | 0.016606   | 0.016635   | 0.016762   |   0.0 |  0.00
Modify  | 24.115     | 24.256     | 24.391     |   1.8 |  1.51
Other   |            | 6.485      |            |       |  0.40

Nlocal:    3275.33 ave 3295 max 3261 min
Histogram: 3 0 0 0 0 0 0 2 0 1
Nghost:    5614.67 ave 5639 max 5596 min
Histogram: 1 1 0 1 1 0 1 0 0 1
Neighs:    138812 ave 141817 max 136152 min
Histogram: 2 0 0 1 1 0 0 0 0 2

Total # of neighbors = 832872
Ave neighs/atom = 42.381
Neighbor list builds = 66172
Dangerous builds not checked
Setting up Verlet run ...
  Unit style    : metal
  Current step  : 773337
  Time step     : 0.001
Per MPI rank memory allocation (min/avg/max) = 5.577 | 5.866 | 6.011 Mbytes
Step Temp Press TotEng PotEng Enthalpy 
  773337    1892.5836     440.3583   -17545.539   -22352.873   -17383.524 
  773832    1858.9382   -380.36716   -17668.077   -22389.949   -17808.205 
Loop time of 11.4797 on 6 procs for 495 steps with 19652 atoms

Performance: 3.726 ns/day, 6.442 hours/ns, 43.120 timesteps/s
99.9% CPU use with 6 MPI tasks x no OpenMP threads

MPI task timing breakdown:
Section |  min time  |  avg time  |  max time  |%varavg| %total
---------------------------------------------------------------
Pair    | 5.836      | 5.9652     | 6.0498     |   2.9 | 51.96
Neigh   | 4.6005     | 4.6694     | 4.7683     |   2.9 | 40.68
Comm    | 0.43553    | 0.6218     | 0.79403    |  15.1 |  5.42
Output  | 6.485e-05  | 7.5777e-05 | 0.00012708 |   0.0 |  0.00
Modify  | 0.17187    | 0.17414    | 0.17644    |   0.3 |  1.52
Other   |            | 0.04905    |            |       |  0.43

Nlocal:    3275.33 ave 3323 max 3248 min
Histogram: 2 0 1 0 1 1 0 0 0 1
Nghost:    5621.67 ave 5692 max 5590 min
Histogram: 2 1 1 0 1 0 0 0 0 1
Neighs:    138685 ave 143980 max 135968 min
Histogram: 1 2 0 2 0 0 0 0 0 1

Total # of neighbors = 832109
Ave neighs/atom = 42.3422
Neighbor list builds = 495
Dangerous builds not checked
Setting up Verlet run ...
  Unit style    : metal
  Current step  : 773832
  Time step     : 0.001
Per MPI rank memory allocation (min/avg/max) = 5.577 | 5.866 | 6.011 Mbytes
Step Temp Press TotEng PotEng Enthalpy 
  773832    1858.9382   -380.36716   -17668.077   -22389.949   -17808.205 
  800004    1845.5336   -401.19029   -17823.794   -22511.618   -17970.763 
  840004    1856.9867   -100.27918   -17774.101   -22491.016   -17810.798 
Loop time of 1628.06 on 6 procs for 66172 steps with 19652 atoms

Performance: 3.512 ns/day, 6.834 hours/ns, 40.645 timesteps/s
99.5% CPU use with 6 MPI tasks x no OpenMP threads

MPI task timing breakdown:
Section |  min time  |  avg time  |  max time  |%varavg| %total
---------------------------------------------------------------
Pair    | 835.74     | 849.87     | 861.53     |  28.8 | 52.20
Neigh   | 620.73     | 633.2      | 639.42     |  25.6 | 38.89
Comm    | 97.525     | 113.78     | 140.55     | 132.4 |  6.99
Output  | 0.016703   | 0.016751   | 0.016832   |   0.0 |  0.00
Modify  | 24.659     | 24.834     | 25.019     |   2.8 |  1.53
Other   |            | 6.363      |            |       |  0.39

Nlocal:    3275.33 ave 3290 max 3257 min
Histogram: 1 0 0 1 0 0 2 1 0 1
Nghost:    5617.67 ave 5652 max 5592 min
Histogram: 1 0 1 0 2 1 0 0 0 1
Neighs:    139542 ave 142230 max 136447 min
Histogram: 1 0 0 0 2 1 0 0 1 1

Total # of neighbors = 837251
Ave neighs/atom = 42.6039
Neighbor list builds = 66172
Dangerous builds not checked
Setting up Verlet run ...
  Unit style    : metal
  Current step  : 840004
  Time step     : 0.001
Per MPI rank memory allocation (min/avg/max) = 5.577 | 5.866 | 6.011 Mbytes
Step Temp Press TotEng PotEng Enthalpy 
  840004    1856.9867   -100.27918   -17774.101   -22491.016   -17810.798 
  840499    1815.0744   -184.58699     -18007.1   -22617.555   -18074.321 
Loop time of 11.1532 on 6 procs for 495 steps with 19652 atoms

Performance: 3.835 ns/day, 6.259 hours/ns, 44.382 timesteps/s
99.9% CPU use with 6 MPI tasks x no OpenMP threads

MPI task timing breakdown:
Section |  min time  |  avg time  |  max time  |%varavg| %total
---------------------------------------------------------------
Pair    | 5.5932     | 5.7409     | 5.9455     |   4.5 | 51.47
Neigh   | 4.2083     | 4.3679     | 4.7304     |   9.2 | 39.16
Comm    | 0.50434    | 0.83165    | 1.1419     |  23.6 |  7.46
Output  | 5.2929e-05 | 8.4956e-05 | 0.0002389  |   0.0 |  0.00
Modify  | 0.16288    | 0.16736    | 0.17555    |   1.1 |  1.50
Other   |            | 0.04528    |            |       |  0.41

Nlocal:    3275.33 ave 3299 max 3253 min
Histogram: 1 0 1 0 0 3 0 0 0 1
Nghost:    5636.17 ave 5679 max 5614 min
Histogram: 1 0 3 1 0 0 0 0 0 1
Neighs:    140250 ave 142972 max 136726 min
Histogram: 1 0 0 0 0 2 2 0 0 1

Total # of neighbors = 841497
Ave neighs/atom = 42.8199
Neighbor list builds = 495
Dangerous builds not checked
Setting up Verlet run ...
  Unit style    : metal
  Current step  : 840499
  Time step     : 0.001
Per MPI rank memory allocation (min/avg/max) = 5.577 | 5.866 | 6.011 Mbytes
Step Temp Press TotEng PotEng Enthalpy 
  840499    1815.0744   -184.58699     -18007.1   -22617.555   -18074.321 
  866671    1803.7259    595.67405   -18127.813   -22709.441    -17912.63 
  906671     1803.883    689.83435   -18164.219   -22746.246   -17915.525 
Loop time of 1598.61 on 6 procs for 66172 steps with 19652 atoms

Performance: 3.576 ns/day, 6.711 hours/ns, 41.394 timesteps/s
99.1% CPU use with 6 MPI tasks x no OpenMP threads

MPI task timing breakdown:
Section |  min time  |  avg time  |  max time  |%varavg| %total
---------------------------------------------------------------
Pair    | 813.19     | 828.55     | 840.49     |  31.9 | 51.83
Neigh   | 598.7      | 611.14     | 621.61     |  29.6 | 38.23
Comm    | 108.91     | 127.92     | 155.72     | 143.4 |  8.00
Output  | 0.016521   | 0.016567   | 0.016701   |   0.0 |  0.00
Modify  | 24.709     | 25.042     | 25.25      |   3.9 |  1.57
Other   |            | 5.938      |            |       |  0.37

Nlocal:    3275.33 ave 3302 max 3238 min
Histogram: 1 0 0 0 1 0 1 2 0 1
Nghost:    5691.5 ave 5718 max 5669 min
Histogram: 1 1 0 1 1 0 0 1 0 1
Neighs:    141769 ave 143860 max 139526 min
Histogram: 1 1 1 0 0 0 0 0 2 1

Total # of neighbors = 850614
Ave neighs/atom = 43.2838
Neighbor list builds = 66172
Dangerous builds not checked
Setting up Verlet run ...
  Unit style    : metal
  Current step  : 906671
  Time step     : 0.001
Per MPI rank memory allocation (min/avg/max) = 5.577 | 5.866 | 6.011 Mbytes
Step Temp Press TotEng PotEng Enthalpy 
  906671     1803.883    689.83435   -18164.219   -22746.246   -17915.525 
  907166    1768.8221   -332.10975   -18283.649   -22776.619   -18403.817 
Loop time of 10.1263 on 6 procs for 495 steps with 19652 atoms

Performance: 4.223 ns/day, 5.683 hours/ns, 48.883 timesteps/s
100.0% CPU use with 6 MPI tasks x no OpenMP threads

MPI task timing breakdown:
Section |  min time  |  avg time  |  max time  |%varavg| %total
---------------------------------------------------------------
Pair    | 5.0565     | 5.1799     | 5.2373     |   2.8 | 51.15
Neigh   | 4.0694     | 4.1177     | 4.1811     |   1.9 | 40.66
Comm    | 0.54347    | 0.63364    | 0.77767    |  10.9 |  6.26
Output  | 5.6028e-05 | 6.8307e-05 | 0.00012398 |   0.0 |  0.00
Modify  | 0.15314    | 0.15377    | 0.15471    |   0.1 |  1.52
Other   |            | 0.0412     |            |       |  0.41

Nlocal:    3275.33 ave 3297 max 3259 min
Histogram: 1 1 0 1 0 2 0 0 0 1
Nghost:    5681.33 ave 5730 max 5643 min
Histogram: 1 0 2 1 0 0 0 0 1 1
Neighs:    141214 ave 143955 max 138596 min
Histogram: 1 0 1 1 0 1 1 0 0 1

Total # of neighbors = 847283
Ave neighs/atom = 43.1143
Neighbor list builds = 495
Dangerous builds not checked
Setting up Verlet run ...
  Unit style    : metal
  Current step  : 907166
  Time step     : 0.001
Per MPI rank memory allocation (min/avg/max) = 5.577 | 5.866 | 6.011 Mbytes
Step Temp Press TotEng PotEng Enthalpy 
  907166    1768.8221   -332.10975   -18283.649   -22776.619   -18403.817 
  933338    1765.0674   -441.38312   -18366.417   -22849.849   -18525.627 
  973338     1745.843    145.61736   -18471.403   -22906.003   -18419.189 
Loop time of 1591.17 on 6 procs for 66172 steps with 19652 atoms

Performance: 3.593 ns/day, 6.679 hours/ns, 41.587 timesteps/s
98.7% CPU use with 6 MPI tasks x no OpenMP threads

MPI task timing breakdown:
Section |  min time  |  avg time  |  max time  |%varavg| %total
---------------------------------------------------------------
Pair    | 813.02     | 826.79     | 834.93     |  26.4 | 51.96
Neigh   | 586.39     | 602.1      | 613.76     |  46.0 | 37.84
Comm    | 109.99     | 129.93     | 159.3      | 163.3 |  8.17
Output  | 0.015289   | 0.015327   | 0.015464   |   0.0 |  0.00
Modify  | 26.303     | 26.551     | 26.762     |   2.9 |  1.67
Other   |            | 5.786      |            |       |  0.36

Nlocal:    3275.33 ave 3301 max 3257 min
Histogram: 1 1 1 0 1 0 1 0 0 1
Nghost:    5693.83 ave 5718 max 5664 min
Histogram: 1 1 0 0 0 1 0 1 0 2
Neighs:    142408 ave 144406 max 140771 min
Histogram: 1 1 1 0 0 0 2 0 0 1

Total # of neighbors = 854450
Ave neighs/atom = 43.479
Neighbor list builds = 66172
Dangerous builds not checked
Setting up Verlet run ...
  Unit style    : metal
  Current step  : 973338
  Time step     : 0.001
Per MPI rank memory allocation (min/avg/max) = 5.577 | 5.866 | 6.011 Mbytes
Step Temp Press TotEng PotEng Enthalpy 
  973338     1745.843    145.61736   -18471.403   -22906.003   -18419.189 
  973833    1709.8109   -674.04499   -18602.065   -22945.141   -18844.091 
Loop time of 11.2019 on 6 procs for 495 steps with 19652 atoms

Performance: 3.818 ns/day, 6.286 hours/ns, 44.189 timesteps/s
99.9% CPU use with 6 MPI tasks x no OpenMP threads

MPI task timing breakdown:
Section |  min time  |  avg time  |  max time  |%varavg| %total
---------------------------------------------------------------
Pair    | 5.6369     | 5.7888     | 6.0199     |   4.8 | 51.68
Neigh   | 4.2829     | 4.4284     | 4.6174     |   5.8 | 39.53
Comm    | 0.56815    | 0.77613    | 1.0775     |  21.9 |  6.93
Output  | 8.1062e-05 | 9.4533e-05 | 0.00015998 |   0.0 |  0.00
Modify  | 0.1608     | 0.16355    | 0.16905    |   0.8 |  1.46
Other   |            | 0.04493    |            |       |  0.40

Nlocal:    3275.33 ave 3290 max 3260 min
Histogram: 1 0 2 0 0 0 1 0 0 2
Nghost:    5699.67 ave 5712 max 5684 min
Histogram: 1 0 0 1 0 2 0 0 0 2
Neighs:    142264 ave 145546 max 139554 min
Histogram: 1 1 0 0 2 0 1 0 0 1

Total # of neighbors = 853587
Ave neighs/atom = 43.4351
Neighbor list builds = 495
Dangerous builds not checked
Setting up Verlet run ...
  Unit style    : metal
  Current step  : 973833
  Time step     : 0.001
Per MPI rank memory allocation (min/avg/max) = 5.577 | 5.866 | 6.011 Mbytes
Step Temp Press TotEng PotEng Enthalpy 
  973833    1709.8109   -674.04499   -18602.065   -22945.141   -18844.091 
 1000005    1713.0889   -170.68453   -18627.706   -22979.108   -18688.736 
 1040005    1677.8866    3.4418536   -18800.175    -23062.16    -18798.95 
Loop time of 1612.84 on 6 procs for 66172 steps with 19652 atoms

Performance: 3.545 ns/day, 6.770 hours/ns, 41.028 timesteps/s
98.6% CPU use with 6 MPI tasks x no OpenMP threads

MPI task timing breakdown:
Section |  min time  |  avg time  |  max time  |%varavg| %total
---------------------------------------------------------------
Pair    | 826.42     | 842.33     | 850.2      |  29.5 | 52.23
Neigh   | 590.44     | 599.82     | 606.07     |  21.5 | 37.19
Comm    | 128.3      | 138.55     | 163.97     |  99.5 |  8.59
Output  | 0.016297   | 0.016325   | 0.016406   |   0.0 |  0.00
Modify  | 26.256     | 26.33      | 26.485     |   1.6 |  1.63
Other   |            | 5.793      |            |       |  0.36

Nlocal:    3275.33 ave 3288 max 3254 min
Histogram: 1 0 1 0 0 0 0 1 1 2
Nghost:    5689.5 ave 5708 max 5657 min
Histogram: 1 0 0 0 0 1 1 1 1 1
Neighs:    143575 ave 145621 max 141972 min
Histogram: 1 0 1 1 1 1 0 0 0 1

Total # of neighbors = 861449
Ave neighs/atom = 43.8352
Neighbor list builds = 66172
Dangerous builds not checked
Setting up Verlet run ...
  Unit style    : metal
  Current step  : 1040005
  Time step     : 0.001
Per MPI rank memory allocation (min/avg/max) = 5.577 | 5.866 | 6.011 Mbytes
Step Temp Press TotEng PotEng Enthalpy 
 1040005    1677.8866    3.4418536   -18800.175    -23062.16    -18798.95 
 1040500    1664.1441   -575.00791   -18896.528   -23123.605   -19101.321 
Loop time of 10.5081 on 6 procs for 495 steps with 19652 atoms

Performance: 4.070 ns/day, 5.897 hours/ns, 47.106 timesteps/s
100.0% CPU use with 6 MPI tasks x no OpenMP threads

MPI task timing breakdown:
Section |  min time  |  avg time  |  max time  |%varavg| %total
---------------------------------------------------------------
Pair    | 5.2452     | 5.4211     | 5.4912     |   3.6 | 51.59
Neigh   | 4.0438     | 4.1635     | 4.5449     |   8.4 | 39.62
Comm    | 0.51018    | 0.72901    | 0.82028    |  12.3 |  6.94
Output  | 6.3896e-05 | 7.9791e-05 | 0.00014877 |   0.0 |  0.00
Modify  | 0.15086    | 0.15346    | 0.16354    |   1.2 |  1.46
Other   |            | 0.04099    |            |       |  0.39

Nlocal:    3275.33 ave 3286 max 3269 min
Histogram: 2 1 0 0 1 1 0 0 0 1
Nghost:    5712.67 ave 5752 max 5684 min
Histogram: 1 2 0 0 0 1 1 0 0 1
Neighs:    143513 ave 145633 max 141544 min
Histogram: 1 1 1 0 0 1 0 0 0 2

Total # of neighbors = 861076
Ave neighs/atom = 43.8162
Neighbor list builds = 495
Dangerous builds not checked
Setting up Verlet run ...
  Unit style    : metal
  Current step  : 1040500
  Time step     : 0.001
Per MPI rank memory allocation (min/avg/max) = 5.577 | 5.866 | 6.011 Mbytes
Step Temp Press TotEng PotEng Enthalpy 
 1040500    1664.1441   -575.00791   -18896.528   -23123.605   -19101.321 
 1066672    1642.1742   -291.44511   -19072.586   -23243.858   -19175.527 
 1106672    1645.2177   -570.84666   -19018.957    -23197.96   -19221.479 
Loop time of 1493.43 on 6 procs for 66172 steps with 19652 atoms

Performance: 3.828 ns/day, 6.269 hours/ns, 44.309 timesteps/s
99.7% CPU use with 6 MPI tasks x no OpenMP threads

MPI task timing breakdown:
Section |  min time  |  avg time  |  max time  |%varavg| %total
---------------------------------------------------------------
Pair    | 759.07     | 774.44     | 784.28     |  33.7 | 51.86
Neigh   | 585.14     | 590.34     | 597.28     |  15.1 | 39.53
Comm    | 89.118     | 101.24     | 116.48     | 101.3 |  6.78
Output  | 0.016789   | 0.016811   | 0.016902   |   0.0 |  0.00
Modify  | 21.347     | 21.762     | 22.027     |   5.4 |  1.46
Other   |            | 5.622      |            |       |  0.38

Nlocal:    3275.33 ave 3301 max 3258 min
Histogram: 2 0 1 0 0 1 1 0 0 1
Nghost:    5704.5 ave 5721 max 5684 min
Histogram: 1 1 0 0 1 0 0 1 0 2
Neighs:    143987 ave 146301 max 141086 min
Histogram: 2 0 0 0 0 1 0 1 0 2

Total # of neighbors = 863923
Ave neighs/atom = 43.9611
Neighbor list builds = 66172
Dangerous builds not checked
Setting up Verlet run ...
  Unit style    : metal
  Current step  : 1106672
  Time step     : 0.001
Per MPI rank memory allocation (min/avg/max) = 5.578 | 5.866 | 6.011 Mbytes
Step Temp Press TotEng PotEng Enthalpy 
 1106672    1645.2177   -570.84666   -19018.957    -23197.96   -19221.479 
 1107167    1621.6566   -17.119281   -19243.493   -23362.648   -19249.505 
Loop time of 10.5801 on 6 procs for 495 steps with 19652 atoms

Performance: 4.042 ns/day, 5.937 hours/ns, 46.786 timesteps/s
99.9% CPU use with 6 MPI tasks x no OpenMP threads

MPI task timing breakdown:
Section |  min time  |  avg time  |  max time  |%varavg| %total
---------------------------------------------------------------
Pair    | 5.3466     | 5.4844     | 5.5827     |   3.7 | 51.84
Neigh   | 4.0244     | 4.1332     | 4.388      |   5.8 | 39.07
Comm    | 0.6375     | 0.76313    | 0.90685    |   9.0 |  7.21
Output  | 7.1049e-05 | 9.493e-05  | 0.00020409 |   0.0 |  0.00
Modify  | 0.15433    | 0.15693    | 0.16346    |   0.8 |  1.48
Other   |            | 0.04224    |            |       |  0.40

Nlocal:    3275.33 ave 3294 max 3238 min
Histogram: 1 0 0 0 0 0 1 2 1 1
Nghost:    5742.17 ave 5771 max 5698 min
Histogram: 1 0 0 0 1 0 1 2 0 1
Neighs:    145484 ave 146912 max 144726 min
Histogram: 4 0 0 0 0 0 0 0 0 2

Total # of neighbors = 872901
Ave neighs/atom = 44.4179
Neighbor list builds = 495
Dangerous builds not checked
Setting up Verlet run ...
  Unit style    : metal
  Current step  : 1107167
  Time step     : 0.001
Per MPI rank memory allocation (min/avg/max) = 5.578 | 5.866 | 6.011 Mbytes
Step Temp Press TotEng PotEng Enthalpy 
 1107167    1621.6566   -17.119281   -19243.493   -23362.648   -19249.505 
 1133339    1587.0001   -592.90215   -19388.195   -23419.319   -19596.358 
 1173339    1605.0748   -161.66707   -19354.057   -23431.093   -19410.694 
Loop time of 1497.97 on 6 procs for 66172 steps with 19652 atoms

Performance: 3.817 ns/day, 6.288 hours/ns, 44.175 timesteps/s
99.7% CPU use with 6 MPI tasks x no OpenMP threads

MPI task timing breakdown:
Section |  min time  |  avg time  |  max time  |%varavg| %total
---------------------------------------------------------------
Pair    | 764.81     | 780.76     | 790.99     |  32.9 | 52.12
Neigh   | 588.39     | 591.26     | 595.15     |   9.8 | 39.47
Comm    | 89.95      | 98.605     | 115.06     |  86.7 |  6.58
Output  | 0.016464   | 0.016512   | 0.016731   |   0.1 |  0.00
Modify  | 21.439     | 21.653     | 21.823     |   3.3 |  1.45
Other   |            | 5.67       |            |       |  0.38

Nlocal:    3275.33 ave 3292 max 3256 min
Histogram: 1 0 1 0 1 0 1 0 0 2
Nghost:    5767.33 ave 5814 max 5711 min
Histogram: 1 0 0 1 2 0 0 0 0 2
Neighs:    145878 ave 148606 max 144054 min
Histogram: 2 1 0 0 0 1 1 0 0 1

Total # of neighbors = 875267
Ave neighs/atom = 44.5383
Neighbor list builds = 66172
Dangerous builds not checked
Setting up Verlet run ...
  Unit style    : metal
  Current step  : 1173339
  Time step     : 0.001
Per MPI rank memory allocation (min/avg/max) = 5.578 | 5.866 | 6.011 Mbytes
Step Temp Press TotEng PotEng Enthalpy 
 1173339    1605.0748   -161.66707   -19354.057   -23431.093   -19410.694 
 1173834    1566.3773    29.831164   -19552.051   -23530.792   -19541.657 
Loop time of 10.8677 on 6 procs for 495 steps with 19652 atoms

Performance: 3.935 ns/day, 6.099 hours/ns, 45.548 timesteps/s
99.9% CPU use with 6 MPI tasks x no OpenMP threads

MPI task timing breakdown:
Section |  min time  |  avg time  |  max time  |%varavg| %total
---------------------------------------------------------------
Pair    | 5.5564     | 5.6458     | 5.7985     |   3.4 | 51.95
Neigh   | 4.0362     | 4.3545     | 4.6025     |  10.8 | 40.07
Comm    | 0.38236    | 0.66265    | 0.89912    |  25.8 |  6.10
Output  | 5.2929e-05 | 6.3697e-05 | 0.00010204 |   0.0 |  0.00
Modify  | 0.15468    | 0.16142    | 0.16842    |   1.2 |  1.49
Other   |            | 0.04322    |            |       |  0.40

Nlocal:    3275.33 ave 3303 max 3255 min
Histogram: 1 2 1 0 0 0 0 0 0 2
Nghost:    5759 ave 5818 max 5742 min
Histogram: 4 1 0 0 0 0 0 0 0 1
Neighs:    146771 ave 149638 max 144148 min
Histogram: 1 0 0 2 0 1 0 1 0 1

Total # of neighbors = 880624
Ave neighs/atom = 44.8109
Neighbor list builds = 495
Dangerous builds not checked
Setting up Verlet run ...
  Unit style    : metal
  Current step  : 1173834
  Time step     : 0.001
Per MPI rank memory allocation (min/avg/max) = 5.578 | 5.866 | 6.011 Mbytes
Step Temp Press TotEng PotEng Enthalpy 
 1173834    1566.3773    29.831164   -19552.051   -23530.792   -19541.657 
 1200006    1565.1537    77.829988   -19595.068   -23570.701   -19567.996 
 1240006    1545.9218    382.55128   -19636.605   -23563.387   -19503.765 
Loop time of 1597.07 on 6 procs for 66172 steps with 19652 atoms

Performance: 3.580 ns/day, 6.704 hours/ns, 41.433 timesteps/s
99.8% CPU use with 6 MPI tasks x no OpenMP threads

MPI task timing breakdown:
Section |  min time  |  avg time  |  max time  |%varavg| %total
---------------------------------------------------------------
Pair    | 827.12     | 842.56     | 853.63     |  33.9 | 52.76
Neigh   | 612.37     | 619.49     | 626.88     |  19.8 | 38.79
Comm    | 89.868     | 105.64     | 124.92     | 127.3 |  6.61
Output  | 0.017716   | 0.017743   | 0.017862   |   0.0 |  0.00
Modify  | 22.983     | 23.2       | 23.342     |   2.5 |  1.45
Other   |            | 6.168      |            |       |  0.39

Nlocal:    3275.33 ave 3285 max 3256 min
Histogram: 1 0 0 0 1 1 0 0 0 3
Nghost:    5783.17 ave 5812 max 5735 min
Histogram: 1 0 1 0 0 0 0 1 1 2
Neighs:    147325 ave 149695 max 144010 min
Histogram: 1 0 0 1 0 1 1 0 1 1

Total # of neighbors = 883949
Ave neighs/atom = 44.9801
Neighbor list builds = 66172
Dangerous builds not checked
Setting up Verlet run ...
  Unit style    : metal
  Current step  : 1240006
  Time step     : 0.001
Per MPI rank memory allocation (min/avg/max) = 5.578 | 5.866 | 6.011 Mbytes
Step Temp Press TotEng PotEng Enthalpy 
 1240006    1545.9218    382.55128   -19636.605   -23563.387   -19503.765 
 1240501    1516.7503    66.875105   -19831.042   -23683.726   -19807.897 
Loop time of 11.7048 on 6 procs for 495 steps with 19652 atoms

Performance: 3.654 ns/day, 6.568 hours/ns, 42.290 timesteps/s
99.9% CPU use with 6 MPI tasks x no OpenMP threads

MPI task timing breakdown:
Section |  min time  |  avg time  |  max time  |%varavg| %total
---------------------------------------------------------------
Pair    | 6.0553     | 6.1954     | 6.2801     |   3.4 | 52.93
Neigh   | 4.4344     | 4.5737     | 4.7821     |   6.3 | 39.08
Comm    | 0.48758    | 0.71478    | 0.8816     |  17.9 |  6.11
Output  | 5.1975e-05 | 6.4651e-05 | 0.00010991 |   0.0 |  0.00
Modify  | 0.16929    | 0.17385    | 0.17799    |   0.8 |  1.49
Other   |            | 0.04707    |            |       |  0.40

Nlocal:    3275.33 ave 3285 max 3254 min
Histogram: 1 0 0 0 0 1 0 1 1 2
Nghost:    5784.83 ave 5809 max 5745 min
Histogram: 1 1 0 0 0 0 0 1 1 2
Neighs:    147768 ave 150933 max 144315 min
Histogram: 1 0 0 1 1 1 1 0 0 1

Total # of neighbors = 886610
Ave neighs/atom = 45.1155
Neighbor list builds = 495
Dangerous builds not checked
Setting up Verlet run ...
  Unit style    : metal
  Current step  : 1240501
  Time step     : 0.001
Per MPI rank memory allocation (min/avg/max) = 5.578 | 5.866 | 6.011 Mbytes
Step Temp Press TotEng PotEng Enthalpy 
 1240501    1516.7503    66.875105   -19831.042   -23683.726   -19807.897 
 1266673    1506.0083    289.78369   -19892.861    -23718.26   -19792.855 
 1306673    1505.6918    41.417794   -19899.663   -23724.257   -19885.363 
Loop time of 1623.46 on 6 procs for 66172 steps with 19652 atoms

Performance: 3.522 ns/day, 6.815 hours/ns, 40.760 timesteps/s
99.9% CPU use with 6 MPI tasks x no OpenMP threads

MPI task timing breakdown:
Section |  min time  |  avg time  |  max time  |%varavg| %total
---------------------------------------------------------------
Pair    | 845.26     | 861.88     | 874.02     |  37.3 | 53.09
Neigh   | 617.32     | 630.66     | 639.36     |  29.2 | 38.85
Comm    | 86.179     | 101.28     | 131.51     | 169.0 |  6.24
Output  | 0.016936   | 0.017027   | 0.017259   |   0.1 |  0.00
Modify  | 23.083     | 23.291     | 23.431     |   2.7 |  1.43
Other   |            | 6.331      |            |       |  0.39

Nlocal:    3275.33 ave 3293 max 3252 min
Histogram: 1 0 0 1 0 1 1 0 1 1
Nghost:    5806.5 ave 5851 max 5779 min
Histogram: 2 0 2 0 0 0 0 1 0 1
Neighs:    148196 ave 150445 max 145471 min
Histogram: 2 0 0 0 0 0 1 1 1 1

Total # of neighbors = 889174
Ave neighs/atom = 45.246
Neighbor list builds = 66172
Dangerous builds not checked
Setting up Verlet run ...
  Unit style    : metal
  Current step  : 1306673
  Time step     : 0.001
Per MPI rank memory allocation (min/avg/max) = 5.578 | 5.866 | 6.011 Mbytes
Step Temp Press TotEng PotEng Enthalpy 
 1306673    1505.6918    41.417794   -19899.663   -23724.257   -19885.363 
 1307168    1480.5185    -214.4557   -20114.027   -23874.679   -20187.736 
Loop time of 11.5335 on 6 procs for 495 steps with 19652 atoms

Performance: 3.708 ns/day, 6.472 hours/ns, 42.919 timesteps/s
99.9% CPU use with 6 MPI tasks x no OpenMP threads

MPI task timing breakdown:
Section |  min time  |  avg time  |  max time  |%varavg| %total
---------------------------------------------------------------
Pair    | 5.9758     | 6.0889     | 6.1549     |   2.9 | 52.79
Neigh   | 4.2719     | 4.4868     | 4.6302     |   5.9 | 38.90
Comm    | 0.53005    | 0.73208    | 1.0647     |  22.8 |  6.35
Output  | 6.1989e-05 | 7.2996e-05 | 0.00011706 |   0.0 |  0.00
Modify  | 0.1736     | 0.17758    | 0.18089    |   0.6 |  1.54
Other   |            | 0.04801    |            |       |  0.42

Nlocal:    3275.33 ave 3303 max 3247 min
Histogram: 2 0 1 0 0 0 0 1 0 2
Nghost:    5795 ave 5836 max 5781 min
Histogram: 2 2 1 0 0 0 0 0 0 1
Neighs:    148702 ave 151353 max 144613 min
Histogram: 1 0 0 0 1 1 0 0 2 1

Total # of neighbors = 892214
Ave neighs/atom = 45.4007
Neighbor list builds = 495
Dangerous builds not checked
Setting up Verlet run ...
  Unit style    : metal
  Current step  : 1307168
  Time step     : 0.001
Per MPI rank memory allocation (min/avg/max) = 5.578 | 5.866 | 6.011 Mbytes
Step Temp Press TotEng PotEng Enthalpy 
 1307168    1480.5185    -214.4557   -20114.027   -23874.679   -20187.736 
 1333340    1441.1685   -184.21151   -20288.101   -23948.801   -20351.136 
 1373340    1467.6027   -145.13256    -20221.71   -23949.554   -20271.405 
Loop time of 1626.36 on 6 procs for 66172 steps with 19652 atoms

Performance: 3.515 ns/day, 6.827 hours/ns, 40.687 timesteps/s
99.8% CPU use with 6 MPI tasks x no OpenMP threads

MPI task timing breakdown:
Section |  min time  |  avg time  |  max time  |%varavg| %total
---------------------------------------------------------------
Pair    | 848.53     | 865.49     | 879.66     |  39.5 | 53.22
Neigh   | 619.14     | 628.78     | 634.99     |  21.7 | 38.66
Comm    | 85.363     | 102.33     | 129.38     | 161.6 |  6.29
Output  | 0.018968   | 0.019018   | 0.019234   |   0.1 |  0.00
Modify  | 22.994     | 23.413     | 23.661     |   6.0 |  1.44
Other   |            | 6.329      |            |       |  0.39

Nlocal:    3275.33 ave 3304 max 3257 min
Histogram: 2 1 0 1 0 0 0 1 0 1
Nghost:    5804.5 ave 5836 max 5774 min
Histogram: 1 0 1 0 1 1 1 0 0 1
Neighs:    149400 ave 154080 max 144771 min
Histogram: 1 0 1 0 1 1 0 1 0 1

Total # of neighbors = 896398
Ave neighs/atom = 45.6136
Neighbor list builds = 66172
Dangerous builds not checked
Setting up Verlet run ...
  Unit style    : metal
  Current step  : 1373340
  Time step     : 0.001
Per MPI rank memory allocation (min/avg/max) = 5.578 | 5.866 | 6.011 Mbytes
Step Temp Press TotEng PotEng Enthalpy 
 1373340    1467.6027   -145.13256    -20221.71   -23949.554   -20271.405 
 1373835    1423.0022  -0.67332404   -20434.641   -24049.196    -20434.87 
Loop time of 11.8243 on 6 procs for 495 steps with 19652 atoms

Performance: 3.617 ns/day, 6.635 hours/ns, 41.863 timesteps/s
99.9% CPU use with 6 MPI tasks x no OpenMP threads

MPI task timing breakdown:
Section |  min time  |  avg time  |  max time  |%varavg| %total
---------------------------------------------------------------
Pair    | 6.1337     | 6.2484     | 6.4021     |   3.3 | 52.84
Neigh   | 4.4041     | 4.5796     | 4.7272     |   5.2 | 38.73
Comm    | 0.62331    | 0.77275    | 0.97644    |  13.1 |  6.54
Output  | 6.1989e-05 | 7.542e-05  | 0.00013685 |   0.0 |  0.00
Modify  | 0.17338    | 0.17607    | 0.18089    |   0.6 |  1.49
Other   |            | 0.04734    |            |       |  0.40

Nlocal:    3275.33 ave 3287 max 3248 min
Histogram: 1 0 0 0 0 0 1 1 1 2
Nghost:    5820.5 ave 5847 max 5792 min
Histogram: 2 0 0 0 1 0 1 0 0 2
Neighs:    150177 ave 153547 max 145928 min
Histogram: 1 0 1 0 0 0 2 1 0 1

Total # of neighbors = 901061
Ave neighs/atom = 45.8509
Neighbor list builds = 495
Dangerous builds not checked
Setting up Verlet run ...
  Unit style    : metal
  Current step  : 1373835
  Time step     : 0.001
Per MPI rank memory allocation (min/avg/max) = 5.578 | 5.866 | 6.011 Mbytes
Step Temp Press TotEng PotEng Enthalpy 
 1373835    1423.0022  -0.67332404   -20434.641   -24049.196    -20434.87 
 1400007    1391.8173   -461.06022    -20618.89   -24154.233   -20775.482 
 1440007    1400.8576    210.42214   -20532.237   -24090.543   -20460.826 
Loop time of 1628.49 on 6 procs for 66172 steps with 19652 atoms

Performance: 3.511 ns/day, 6.836 hours/ns, 40.634 timesteps/s
99.8% CPU use with 6 MPI tasks x no OpenMP threads

MPI task timing breakdown:
Section |  min time  |  avg time  |  max time  |%varavg| %total
---------------------------------------------------------------
Pair    | 849.47     | 867.73     | 880.17     |  38.0 | 53.28
Neigh   | 621.48     | 627.75     | 635.27     |  20.9 | 38.55
Comm    | 88.242     | 103.56     | 127.05     | 145.8 |  6.36
Output  | 0.016097   | 0.016124   | 0.016236   |   0.0 |  0.00
Modify  | 22.94      | 23.113     | 23.277     |   2.3 |  1.42
Other   |            | 6.328      |            |       |  0.39

Nlocal:    3275.33 ave 3292 max 3233 min
Histogram: 1 0 0 0 0 0 1 0 2 2
Nghost:    5811.17 ave 5834 max 5787 min
Histogram: 1 0 0 1 1 0 2 0 0 1
Neighs:    150735 ave 152001 max 149487 min
Histogram: 2 0 1 0 0 0 0 1 0 2

Total # of neighbors = 904410
Ave neighs/atom = 46.0213
Neighbor list builds = 66172
Dangerous builds not checked
Setting up Verlet run ...
  Unit style    : metal
  Current step  : 1440007
  Time step     : 0.001
Per MPI rank memory allocation (min/avg/max) = 5.578 | 5.866 | 6.011 Mbytes
Step Temp Press TotEng PotEng Enthalpy 
 1440007    1400.8576    210.42214   -20532.237   -24090.543   -20460.826 
 1440502    1357.4268   -123.38163   -20734.316   -24182.303   -20776.055 
Loop time of 11.8102 on 6 procs for 495 steps with 19652 atoms

Performance: 3.621 ns/day, 6.627 hours/ns, 41.913 timesteps/s
99.7% CPU use with 6 MPI tasks x no OpenMP threads

MPI task timing breakdown:
Section |  min time  |  avg time  |  max time  |%varavg| %total
---------------------------------------------------------------
Pair    | 6.1997     | 6.2969     | 6.3617     |   2.3 | 53.32
Neigh   | 4.5222     | 4.6619     | 4.7681     |   4.3 | 39.47
Comm    | 0.48359    | 0.62657    | 0.83819    |  15.2 |  5.31
Output  | 5.2929e-05 | 6.8943e-05 | 0.00014186 |   0.0 |  0.00
Modify  | 0.1732     | 0.17617    | 0.17851    |   0.4 |  1.49
Other   |            | 0.04857    |            |       |  0.41

Nlocal:    3275.33 ave 3297 max 3250 min
Histogram: 1 0 1 0 0 1 0 2 0 1
Nghost:    5841.5 ave 5890 max 5814 min
Histogram: 1 1 1 2 0 0 0 0 0 1
Neighs:    151197 ave 154264 max 148332 min
Histogram: 1 0 0 1 1 2 0 0 0 1

Total # of neighbors = 907180
Ave neighs/atom = 46.1622
Neighbor list builds = 495
Dangerous builds not checked
Setting up Verlet run ...
  Unit style    : metal
  Current step  : 1440502
  Time step     : 0.001
Per MPI rank memory allocation (min/avg/max) = 5.578 | 5.866 | 6.011 Mbytes
Step Temp Press TotEng PotEng Enthalpy 
 1440502    1357.4268   -123.38163   -20734.316   -24182.303   -20776.055 
 1466674    1357.2248    603.64986   -20882.458   -24329.933   -20679.791 
 1506674    1362.3019    -108.5987   -20837.529     -24297.9   -20874.158 
Loop time of 1647.28 on 6 procs for 66172 steps with 19652 atoms

Performance: 3.471 ns/day, 6.915 hours/ns, 40.170 timesteps/s
99.7% CPU use with 6 MPI tasks x no OpenMP threads

MPI task timing breakdown:
Section |  min time  |  avg time  |  max time  |%varavg| %total
---------------------------------------------------------------
Pair    | 865.02     | 883.23     | 892.27     |  34.2 | 53.62
Neigh   | 622.03     | 628.57     | 633.69     |  16.8 | 38.16
Comm    | 91.128     | 105.31     | 128.22     | 134.1 |  6.39
Output  | 0.016007   | 0.016036   | 0.01616    |   0.0 |  0.00
Modify  | 23.535     | 23.789     | 23.965     |   3.1 |  1.44
Other   |            | 6.374      |            |       |  0.39

Nlocal:    3275.33 ave 3297 max 3255 min
Histogram: 1 1 0 0 1 0 1 1 0 1
Nghost:    5831.33 ave 5871 max 5782 min
Histogram: 2 0 0 0 0 1 0 1 0 2
Neighs:    151756 ave 155181 max 147891 min
Histogram: 1 0 1 1 0 0 0 0 2 1

Total # of neighbors = 910537
Ave neighs/atom = 46.333
Neighbor list builds = 66172
Dangerous builds not checked
Setting up Verlet run ...
  Unit style    : metal
  Current step  : 1506674
  Time step     : 0.001
Per MPI rank memory allocation (min/avg/max) = 5.578 | 5.866 | 6.011 Mbytes
Step Temp Press TotEng PotEng Enthalpy 
 1506674    1362.3019    -108.5987   -20837.529     -24297.9   -20874.158 
 1507169    1318.8018     367.5261   -21033.427   -24383.304   -20910.174 
Loop time of 11.5038 on 6 procs for 495 steps with 19652 atoms

Performance: 3.718 ns/day, 6.456 hours/ns, 43.029 timesteps/s
99.9% CPU use with 6 MPI tasks x no OpenMP threads

MPI task timing breakdown:
Section |  min time  |  avg time  |  max time  |%varavg| %total
---------------------------------------------------------------
Pair    | 5.9335     | 6.0892     | 6.181      |   3.3 | 52.93
Neigh   | 4.3241     | 4.4979     | 4.7666     |   8.2 | 39.10
Comm    | 0.43481    | 0.69867    | 0.88761    |  22.2 |  6.07
Output  | 0.00011706 | 0.00015636 | 0.00025415 |   0.0 |  0.00
Modify  | 0.1669     | 0.17077    | 0.17533    |   0.8 |  1.48
Other   |            | 0.04714    |            |       |  0.41

Nlocal:    3275.33 ave 3311 max 3253 min
Histogram: 1 2 0 1 0 1 0 0 0 1
Nghost:    5852 ave 5921 max 5801 min
Histogram: 1 0 2 0 1 1 0 0 0 1
Neighs:    152661 ave 155326 max 148330 min
Histogram: 1 0 0 0 2 0 0 0 1 2

Total # of neighbors = 915968
Ave neighs/atom = 46.6094
Neighbor list builds = 495
Dangerous builds not checked
Setting up Verlet run ...
  Unit style    : metal
  Current step  : 1507169
  Time step     : 0.001
Per MPI rank memory allocation (min/avg/max) = 5.578 | 5.866 | 6.011 Mbytes
Step Temp Press TotEng PotEng Enthalpy 
 1507169    1318.8018     367.5261   -21033.427   -24383.304   -20910.174 
 1533341    1300.4563   -885.76801   -21159.808   -24463.085   -21457.273 
 1573341    1309.1906   -12.148912   -21137.127    -24462.59   -21141.191 
Loop time of 1646.84 on 6 procs for 66172 steps with 19652 atoms

Performance: 3.472 ns/day, 6.913 hours/ns, 40.181 timesteps/s
99.7% CPU use with 6 MPI tasks x no OpenMP threads

MPI task timing breakdown:
Section |  min time  |  avg time  |  max time  |%varavg| %total
---------------------------------------------------------------
Pair    | 864.83     | 880.91     | 890.29     |  31.5 | 53.49
Neigh   | 614.29     | 622.9      | 630.3      |  23.3 | 37.82
Comm    | 99.029     | 112.02     | 137.03     | 136.0 |  6.80
Output  | 0.01746    | 0.017492   | 0.017628   |   0.0 |  0.00
Modify  | 24.369     | 24.713     | 25.022     |   5.2 |  1.50
Other   |            | 6.282      |            |       |  0.38

Nlocal:    3275.33 ave 3299 max 3229 min
Histogram: 1 0 0 0 0 0 1 2 1 1
Nghost:    5868 ave 5906 max 5839 min
Histogram: 1 0 2 1 0 0 0 1 0 1
Neighs:    153036 ave 155720 max 149410 min
Histogram: 1 0 0 2 0 0 0 0 2 1

Total # of neighbors = 918218
Ave neighs/atom = 46.7239
Neighbor list builds = 66172
Dangerous builds not checked
Setting up Verlet run ...
  Unit style    : metal
  Current step  : 1573341
  Time step     : 0.001
Per MPI rank memory allocation (min/avg/max) = 5.578 | 5.866 | 6.011 Mbytes
Step Temp Press TotEng PotEng Enthalpy 
 1573341    1309.1906   -12.148912   -21137.127    -24462.59   -21141.191 
 1573836    1269.0034    243.13853   -21363.317   -24586.701   -21282.426 
Loop time of 13.2285 on 6 procs for 495 steps with 19652 atoms

Performance: 3.233 ns/day, 7.423 hours/ns, 37.419 timesteps/s
99.8% CPU use with 6 MPI tasks x no OpenMP threads

MPI task timing breakdown:
Section |  min time  |  avg time  |  max time  |%varavg| %total
---------------------------------------------------------------
Pair    | 7.1466     | 7.2673     | 7.3367     |   2.3 | 54.94
Neigh   | 4.7234     | 4.842      | 4.9133     |   3.0 | 36.60
Comm    | 0.74494    | 0.86961    | 1.113      |  12.7 |  6.57
Output  | 5.6028e-05 | 6.779e-05  | 0.00011277 |   0.0 |  0.00
Modify  | 0.19296    | 0.19619    | 0.19921    |   0.5 |  1.48
Other   |            | 0.05335    |            |       |  0.40

Nlocal:    3275.33 ave 3282 max 3261 min
Histogram: 1 0 0 0 0 1 0 1 1 2
Nghost:    5884 ave 5906 max 5865 min
Histogram: 1 0 1 1 0 1 1 0 0 1
Neighs:    153931 ave 156591 max 152100 min
Histogram: 1 1 1 0 1 0 1 0 0 1

Total # of neighbors = 923586
Ave neighs/atom = 46.997
Neighbor list builds = 495
Dangerous builds not checked
Setting up Verlet run ...
  Unit style    : metal
  Current step  : 1573836
  Time step     : 0.001
Per MPI rank memory allocation (min/avg/max) = 5.578 | 5.866 | 6.011 Mbytes
Step Temp Press TotEng PotEng Enthalpy 
 1573836    1269.0034    243.13853   -21363.317   -24586.701   -21282.426 
 1600008    1258.8161   -378.28777   -21463.212    -24660.72   -21588.943 
 1640008    1261.1882    579.31859   -21461.325   -24664.858   -21269.477 
Loop time of 1823.45 on 6 procs for 66172 steps with 19652 atoms

Performance: 3.135 ns/day, 7.655 hours/ns, 36.289 timesteps/s
99.4% CPU use with 6 MPI tasks x no OpenMP threads

MPI task timing breakdown:
Section |  min time  |  avg time  |  max time  |%varavg| %total
---------------------------------------------------------------
Pair    | 980.05     | 997.75     | 1009.1     |  32.2 | 54.72
Neigh   | 641.68     | 646.85     | 649.82     |  12.3 | 35.47
Comm    | 127.71     | 141.6      | 164.37     | 110.2 |  7.77
Output  | 0.017147   | 0.017194   | 0.017422   |   0.1 |  0.00
Modify  | 29.428     | 30.284     | 30.637     |   7.3 |  1.66
Other   |            | 6.948      |            |       |  0.38

Nlocal:    3275.33 ave 3289 max 3252 min
Histogram: 1 0 0 0 1 0 0 2 1 1
Nghost:    5891.67 ave 5927 max 5880 min
Histogram: 3 1 1 0 0 0 0 0 0 1
Neighs:    154733 ave 156683 max 152896 min
Histogram: 1 0 0 0 3 0 1 0 0 1

Total # of neighbors = 928398
Ave neighs/atom = 47.2419
Neighbor list builds = 66172
Dangerous builds not checked
Setting up Verlet run ...
  Unit style    : metal
  Current step  : 1640008
  Time step     : 0.001
Per MPI rank memory allocation (min/avg/max) = 5.578 | 5.866 | 6.011 Mbytes
Step Temp Press TotEng PotEng Enthalpy 
 1640008    1261.1882    579.31859   -21461.325   -24664.858   -21269.477 
 1640503    1209.2793    296.71079   -21656.976   -24728.655   -21558.917 
Loop time of 13.4476 on 6 procs for 495 steps with 19652 atoms

Performance: 3.180 ns/day, 7.546 hours/ns, 36.810 timesteps/s
96.6% CPU use with 6 MPI tasks x no OpenMP threads

MPI task timing breakdown:
Section |  min time  |  avg time  |  max time  |%varavg| %total
---------------------------------------------------------------
Pair    | 7.5345     | 7.6453     | 7.7934     |   3.1 | 56.85
Neigh   | 4.4603     | 4.5969     | 4.7161     |   4.1 | 34.18
Comm    | 0.80728    | 0.97446    | 1.1366     |  11.2 |  7.25
Output  | 7.5102e-05 | 0.00014218 | 0.00045896 |   0.0 |  0.00
Modify  | 0.17885    | 0.18119    | 0.18398    |   0.4 |  1.35
Other   |            | 0.04969    |            |       |  0.37

Nlocal:    3275.33 ave 3304 max 3245 min
Histogram: 1 0 1 0 0 2 0 1 0 1
Nghost:    5903.5 ave 5933 max 5886 min
Histogram: 1 1 0 3 0 0 0 0 0 1
Neighs:    155062 ave 156968 max 153495 min
Histogram: 2 0 0 0 1 1 0 1 0 1

Total # of neighbors = 930375
Ave neighs/atom = 47.3425
Neighbor list builds = 495
Dangerous builds not checked
Setting up Verlet run ...
  Unit style    : metal
  Current step  : 1640503
  Time step     : 0.001
Per MPI rank memory allocation (min/avg/max) = 5.578 | 5.866 | 6.011 Mbytes
Step Temp Press TotEng PotEng Enthalpy 
 1640503    1209.2793    296.71079   -21656.976   -24728.655   -21558.917 
 1666675    1202.0577    210.89806   -21785.075   -24838.412   -21715.648 
 1706675    1200.5958    228.50186   -21762.144   -24811.766    -21686.84 
Loop time of 1929.17 on 6 procs for 66172 steps with 19652 atoms

Performance: 2.964 ns/day, 8.098 hours/ns, 34.301 timesteps/s
98.3% CPU use with 6 MPI tasks x no OpenMP threads

MPI task timing breakdown:
Section |  min time  |  avg time  |  max time  |%varavg| %total
---------------------------------------------------------------
Pair    | 1042.3     | 1059.5     | 1071.1     |  32.2 | 54.92
Neigh   | 660.13     | 665.54     | 669.65     |  13.4 | 34.50
Comm    | 145.6      | 157.68     | 178.57     | 107.1 |  8.17
Output  | 0.019454   | 0.019473   | 0.019551   |   0.0 |  0.00
Modify  | 38.439     | 39.43      | 40.354     |  10.1 |  2.04
Other   |            | 6.991      |            |       |  0.36

Nlocal:    3275.33 ave 3287 max 3262 min
Histogram: 1 0 1 1 0 0 1 0 0 2
Nghost:    5925.83 ave 5944 max 5907 min
Histogram: 1 1 0 0 1 0 1 0 1 1
Neighs:    155494 ave 157672 max 153051 min
Histogram: 2 0 0 0 0 1 1 0 0 2

Total # of neighbors = 932963
Ave neighs/atom = 47.4742
Neighbor list builds = 66172
Dangerous builds not checked
Setting up Verlet run ...
  Unit style    : metal
  Current step  : 1706675
  Time step     : 0.001
Per MPI rank memory allocation (min/avg/max) = 5.578 | 5.866 | 6.011 Mbytes
Step Temp Press TotEng PotEng Enthalpy 
 1706675    1200.5958    228.50186   -21762.144   -24811.766    -21686.84 
 1707170     1169.749    257.78086     -21965.5   -24936.769   -21880.914 
Loop time of 14.6459 on 6 procs for 495 steps with 19652 atoms

Performance: 2.920 ns/day, 8.219 hours/ns, 33.798 timesteps/s
96.5% CPU use with 6 MPI tasks x no OpenMP threads

MPI task timing breakdown:
Section |  min time  |  avg time  |  max time  |%varavg| %total
---------------------------------------------------------------
Pair    | 7.7033     | 7.8899     | 8.0723     |   4.5 | 53.87
Neigh   | 4.7928     | 4.921      | 5.2208     |   7.8 | 33.60
Comm    | 1.1736     | 1.4041     | 1.7174     |  16.1 |  9.59
Output  | 0.00014687 | 0.00016681 | 0.00020504 |   0.0 |  0.00
Modify  | 0.37277    | 0.38025    | 0.39482    |   1.1 |  2.60
Other   |            | 0.0504     |            |       |  0.34

Nlocal:    3275.33 ave 3291 max 3262 min
Histogram: 1 0 0 3 0 0 1 0 0 1
Nghost:    5931.5 ave 5959 max 5894 min
Histogram: 1 1 0 0 0 0 1 1 0 2
Neighs:    156320 ave 157443 max 155004 min
Histogram: 1 0 0 1 1 0 1 1 0 1

[...]
Loop time of 11.4793 on 6 procs for 495 steps with 19652 atoms

Performance: 3.726 ns/day, 6.442 hours/ns, 43.121 timesteps/s
99.4% CPU use with 6 MPI tasks x no OpenMP threads

MPI task timing breakdown:
Section |  min time  |  avg time  |  max time  |%varavg| %total
---------------------------------------------------------------
Pair    | 6.1224     | 6.1953     | 6.2437     |   1.7 | 53.97
Neigh   | 3.6815     | 3.9962     | 4.5398     |  15.9 | 34.81
Comm    | 0.61334    | 1.1028     | 1.3772     |  27.5 |  9.61
Output  | 5.6028e-05 | 6.4214e-05 | 9.6083e-05 |   0.0 |  0.00
Modify  | 0.14288    | 0.14893    | 0.16322    |   1.8 |  1.30
Other   |            | 0.03603    |            |       |  0.31

Nlocal:    3275.33 ave 3289 max 3254 min
Histogram: 1 0 0 0 0 1 1 2 0 1
Nghost:    6199.33 ave 6218 max 6170 min
Histogram: 1 0 0 0 1 0 2 0 0 2
Neighs:    176721 ave 177558 max 175343 min
Histogram: 1 0 0 0 0 1 1 1 1 1

Total # of neighbors = 1060325
Ave neighs/atom = 53.9551
Neighbor list builds = 495
Dangerous builds not checked
Setting up Verlet run ...
  Unit style    : metal
  Current step  : 2707175
  Time step     : 0.001
Per MPI rank memory allocation (min/avg/max) = 5.578 | 5.866 | 6.011 Mbytes
Step Temp Press TotEng PotEng Enthalpy 
 2707175    422.09889    -167.1487   -26857.011    -27929.18   -26906.457 
 2733347    395.05853   -206.09211   -27022.798   -28026.283   -27083.567 
 2773347     400.9018    291.17181    -27020.53   -28038.857   -26934.862 
Loop time of 1454.8 on 6 procs for 66172 steps with 19652 atoms

Performance: 3.930 ns/day, 6.107 hours/ns, 45.485 timesteps/s
99.7% CPU use with 6 MPI tasks x no OpenMP threads

MPI task timing breakdown:
Section |  min time  |  avg time  |  max time  |%varavg| %total
---------------------------------------------------------------
Pair    | 767.94     | 773.88     | 777.43     |  11.3 | 53.19
Neigh   | 507.79     | 514.27     | 520.51     |  21.9 | 35.35
Comm    | 140.29     | 143.93     | 149.45     |  31.7 |  9.89
Output  | 0.015218   | 0.015243   | 0.015346   |   0.0 |  0.00
Modify  | 17.945     | 18.109     | 18.337     |   3.0 |  1.24
Other   |            | 4.602      |            |       |  0.32

Nlocal:    3275.33 ave 3286 max 3269 min
Histogram: 2 2 0 0 0 0 0 0 1 1
Nghost:    6230.83 ave 6257 max 6208 min
Histogram: 1 1 0 2 0 0 0 0 1 1
Neighs:    178027 ave 179131 max 177165 min
Histogram: 1 1 0 0 1 2 0 0 0 1

Total # of neighbors = 1068162
Ave neighs/atom = 54.3539
Neighbor list builds = 66172
Dangerous builds not checked
Setting up Verlet run ...
  Unit style    : metal
  Current step  : 2773347
  Time step     : 0.001
Per MPI rank memory allocation (min/avg/max) = 5.578 | 5.866 | 6.011 Mbytes
Step Temp Press TotEng PotEng Enthalpy 
 2773347     400.9018    291.17181    -27020.53   -28038.857   -26934.862 
 2773842    373.75875   -275.58752   -27178.288   -28127.669   -27259.324 
Loop time of 10.6988 on 6 procs for 495 steps with 19652 atoms

Performance: 3.997 ns/day, 6.004 hours/ns, 46.267 timesteps/s
99.8% CPU use with 6 MPI tasks x no OpenMP threads

MPI task timing breakdown:
Section |  min time  |  avg time  |  max time  |%varavg| %total
---------------------------------------------------------------
Pair    | 5.5852     | 5.6694     | 5.7302     |   2.0 | 52.99
Neigh   | 3.5462     | 3.7709     | 4.0496     |   9.5 | 35.25
Comm    | 0.88701    | 1.0904     | 1.261      |  14.2 | 10.19
Output  | 6.1035e-05 | 7.081e-05  | 0.00010991 |   0.0 |  0.00
Modify  | 0.12845    | 0.13322    | 0.13959    |   1.1 |  1.25
Other   |            | 0.03486    |            |       |  0.33

Nlocal:    3275.33 ave 3289 max 3261 min
Histogram: 1 1 0 1 0 0 0 2 0 1
Nghost:    6226.5 ave 6233 max 6211 min
Histogram: 1 0 0 0 1 0 0 0 0 4
Neighs:    178250 ave 179363 max 177269 min
Histogram: 1 0 1 1 1 0 1 0 0 1

Total # of neighbors = 1069503
Ave neighs/atom = 54.4221
Neighbor list builds = 495
Dangerous builds not checked
Setting up Verlet run ...
  Unit style    : metal
  Current step  : 2773842
  Time step     : 0.001
Per MPI rank memory allocation (min/avg/max) = 5.578 | 5.866 | 6.011 Mbytes
Step Temp Press TotEng PotEng Enthalpy 
 2773842    373.75875   -275.58752   -27178.288   -28127.669   -27259.324 
 2800014    350.17659    121.30333   -27330.894   -28220.374   -27295.404 
 2840014    350.68367    26.121132   -27348.953   -28239.722   -27341.312 
Loop time of 1361.41 on 6 procs for 66172 steps with 19652 atoms

Performance: 4.200 ns/day, 5.715 hours/ns, 48.605 timesteps/s
99.8% CPU use with 6 MPI tasks x no OpenMP threads

MPI task timing breakdown:
Section |  min time  |  avg time  |  max time  |%varavg| %total
---------------------------------------------------------------
Pair    | 716.15     | 721.73     | 724.34     |   9.7 | 53.01
Neigh   | 483.28     | 490.05     | 494.59     |  16.6 | 36.00
Comm    | 122.62     | 127.97     | 134.83     |  39.6 |  9.40
Output  | 0.48638    | 0.4864     | 0.48646    |   0.0 |  0.04
Modify  | 16.571     | 16.736     | 16.833     |   2.2 |  1.23
Other   |            | 4.434      |            |       |  0.33

Nlocal:    3275.33 ave 3282 max 3268 min
Histogram: 1 0 1 1 0 0 1 0 0 2
Nghost:    6234.33 ave 6255 max 6216 min
Histogram: 1 1 0 1 0 1 0 1 0 1
Neighs:    179316 ave 180139 max 178572 min
Histogram: 2 0 0 0 1 1 0 1 0 1

Total # of neighbors = 1075897
Ave neighs/atom = 54.7475
Neighbor list builds = 66172
Dangerous builds not checked
Setting up Verlet run ...
  Unit style    : metal
  Current step  : 2840014
  Time step     : 0.001
Per MPI rank memory allocation (min/avg/max) = 5.578 | 5.866 | 6.011 Mbytes
Step Temp Press TotEng PotEng Enthalpy 
 2840014    350.68367    26.121132   -27348.953   -28239.722   -27341.312 
 2840509    320.81633   -109.51418   -27492.508   -28307.411   -27524.491 
Loop time of 10.7394 on 6 procs for 495 steps with 19652 atoms

Performance: 3.982 ns/day, 6.027 hours/ns, 46.092 timesteps/s
98.9% CPU use with 6 MPI tasks x no OpenMP threads

MPI task timing breakdown:
Section |  min time  |  avg time  |  max time  |%varavg| %total
---------------------------------------------------------------
Pair    | 5.7852     | 5.8134     | 5.8593     |   1.0 | 54.13
Neigh   | 3.4239     | 3.7044     | 3.8926     |   8.0 | 34.49
Comm    | 0.89164    | 1.0575     | 1.3001     |  13.9 |  9.85
Output  | 6.3896e-05 | 8.6824e-05 | 0.00018907 |   0.0 |  0.00
Modify  | 0.12596    | 0.13015    | 0.13276    |   0.7 |  1.21
Other   |            | 0.03385    |            |       |  0.32

Nlocal:    3275.33 ave 3282 max 3256 min
Histogram: 1 0 0 0 0 0 0 0 3 2
Nghost:    6244 ave 6258 max 6227 min
Histogram: 2 0 0 0 0 1 0 1 0 2
Neighs:    179741 ave 180192 max 179080 min
Histogram: 2 0 0 0 0 0 0 0 3 1

Total # of neighbors = 1078447
Ave neighs/atom = 54.8772
Neighbor list builds = 495
Dangerous builds not checked
Setting up Verlet run ...
  Unit style    : metal
  Current step  : 2840509
  Time step     : 0.001
Per MPI rank memory allocation (min/avg/max) = 5.578 | 5.866 | 6.011 Mbytes
Step Temp Press TotEng PotEng Enthalpy 
 2840509    320.81633   -109.51418   -27492.508   -28307.411   -27524.491 
 2866681    302.44198   -734.83682   -27624.371   -28392.601   -27838.836 
 2906681    300.75759   -295.54416   -27632.371   -28396.323   -27718.525 
Loop time of 1311.14 on 6 procs for 66172 steps with 19652 atoms

Performance: 4.361 ns/day, 5.504 hours/ns, 50.469 timesteps/s
99.9% CPU use with 6 MPI tasks x no OpenMP threads

MPI task timing breakdown:
Section |  min time  |  avg time  |  max time  |%varavg| %total
---------------------------------------------------------------
Pair    | 689.83     | 693.77     | 696.26     |   7.5 | 52.91
Neigh   | 479.79     | 482.44     | 484.74     |   7.4 | 36.80
Comm    | 109.64     | 114.51     | 121.12     |  33.1 |  8.73
Output  | 0.015754   | 0.01577    | 0.015843   |   0.0 |  0.00
Modify  | 16.021     | 16.072     | 16.119     |   0.9 |  1.23
Other   |            | 4.332      |            |       |  0.33

Nlocal:    3275.33 ave 3281 max 3270 min
Histogram: 2 0 1 0 0 0 0 1 0 2
Nghost:    6245.17 ave 6261 max 6226 min
Histogram: 1 0 0 0 1 1 1 1 0 1
Neighs:    180270 ave 180681 max 179775 min
Histogram: 1 0 1 1 0 0 1 0 0 2

Total # of neighbors = 1081619
Ave neighs/atom = 55.0386
Neighbor list builds = 66172
Dangerous builds not checked
Setting up Verlet run ...
  Unit style    : metal
  Current step  : 2906681
  Time step     : 0.001
Per MPI rank memory allocation (min/avg/max) = 5.578 | 5.866 | 6.011 Mbytes
Step Temp Press TotEng PotEng Enthalpy 
 2906681    300.75759   -295.54416   -27632.371   -28396.323   -27718.525 
 2907176    273.72091   -136.15844   -27776.665   -28471.941   -27816.231 
Loop time of 10.107 on 6 procs for 495 steps with 19652 atoms

Performance: 4.232 ns/day, 5.672 hours/ns, 48.976 timesteps/s
99.7% CPU use with 6 MPI tasks x no OpenMP threads

MPI task timing breakdown:
Section |  min time  |  avg time  |  max time  |%varavg| %total
---------------------------------------------------------------
Pair    | 5.2159     | 5.2922     | 5.332      |   1.6 | 52.36
Neigh   | 3.4916     | 3.5811     | 3.837      |   6.4 | 35.43
Comm    | 0.89239    | 1.0798     | 1.1747     |   8.8 | 10.68
Output  | 6.0081e-05 | 7.1883e-05 | 0.000108   |   0.0 |  0.00
Modify  | 0.11808    | 0.12047    | 0.12545    |   0.7 |  1.19
Other   |            | 0.03332    |            |       |  0.33

Nlocal:    3275.33 ave 3292 max 3262 min
Histogram: 1 1 1 1 0 0 0 0 0 2
Nghost:    6253.5 ave 6293 max 6227 min
Histogram: 2 0 0 1 1 1 0 0 0 1
Neighs:    180863 ave 181837 max 180254 min
Histogram: 1 2 1 0 0 0 0 0 1 1

Total # of neighbors = 1085177
Ave neighs/atom = 55.2197
Neighbor list builds = 495
Dangerous builds not checked
Setting up Verlet run ...
  Unit style    : metal
  Current step  : 2907176
  Time step     : 0.001
Per MPI rank memory allocation (min/avg/max) = 5.578 | 5.866 | 6.011 Mbytes
Step Temp Press TotEng PotEng Enthalpy 
 2907176    273.72091   -136.15844   -27776.665   -28471.941   -27816.231 
 2933348    251.38716   -23.421051   -27908.123   -28546.669   -27914.911 
 2973348    250.61762   -104.25265   -27909.107   -28545.699   -27939.332 
Loop time of 1219.24 on 6 procs for 66172 steps with 19652 atoms

Performance: 4.689 ns/day, 5.118 hours/ns, 54.273 timesteps/s
99.8% CPU use with 6 MPI tasks x no OpenMP threads

MPI task timing breakdown:
Section |  min time  |  avg time  |  max time  |%varavg| %total
---------------------------------------------------------------
Pair    | 632.31     | 636.05     | 638.06     |   7.2 | 52.17
Neigh   | 473.63     | 478.4      | 481.16     |  12.6 | 39.24
Comm    | 80.62      | 85.57      | 89.973     |  32.5 |  7.02
Output  | 0.014937   | 0.014953   | 0.015014   |   0.0 |  0.00
Modify  | 14.853     | 15.043     | 15.181     |   3.5 |  1.23
Other   |            | 4.162      |            |       |  0.34

Nlocal:    3275.33 ave 3289 max 3255 min
Histogram: 1 0 0 1 0 1 0 0 2 1
Nghost:    6264.67 ave 6295 max 6238 min
Histogram: 1 2 0 0 0 0 1 1 0 1
Neighs:    181454 ave 182420 max 180307 min
Histogram: 1 1 0 0 0 0 2 0 1 1

Total # of neighbors = 1088724
Ave neighs/atom = 55.4002
Neighbor list builds = 66172
Dangerous builds not checked
Setting up Verlet run ...
  Unit style    : metal
  Current step  : 2973348
  Time step     : 0.001
Per MPI rank memory allocation (min/avg/max) = 5.578 | 5.866 | 6.011 Mbytes
Step Temp Press TotEng PotEng Enthalpy 
 2973348    250.61762   -104.25265   -27909.107   -28545.699   -27939.332 
 2973843    224.97415   -150.69208   -28047.615    -28619.07   -28091.205 
Loop time of 7.47913 on 6 procs for 495 steps with 19652 atoms

Performance: 5.718 ns/day, 4.197 hours/ns, 66.184 timesteps/s
100.0% CPU use with 6 MPI tasks x no OpenMP threads

MPI task timing breakdown:
Section |  min time  |  avg time  |  max time  |%varavg| %total
---------------------------------------------------------------
Pair    | 3.7626     | 3.7755     | 3.7855     |   0.4 | 50.48
Neigh   | 3.3821     | 3.3997     | 3.4091     |   0.5 | 45.46
Comm    | 0.17154    | 0.1815     | 0.19796    |   2.1 |  2.43
Output  | 5.1975e-05 | 5.9644e-05 | 9.3937e-05 |   0.0 |  0.00
Modify  | 0.091768   | 0.092059   | 0.092465   |   0.1 |  1.23
Other   |            | 0.03034    |            |       |  0.41

Nlocal:    3275.33 ave 3282 max 3266 min
Histogram: 1 0 0 0 0 3 0 0 1 1
Nghost:    6271 ave 6294 max 6229 min
Histogram: 1 0 0 0 1 1 0 0 0 3
Neighs:    181951 ave 182345 max 181479 min
Histogram: 1 0 0 2 0 0 1 0 0 2

Total # of neighbors = 1091704
Ave neighs/atom = 55.5518
Neighbor list builds = 495
Dangerous builds not checked
Setting up Verlet run ...
  Unit style    : metal
  Current step  : 2973843
  Time step     : 0.001
Per MPI rank memory allocation (min/avg/max) = 5.578 | 5.866 | 6.011 Mbytes
Step Temp Press TotEng PotEng Enthalpy 
 2973843    224.97415   -150.69208   -28047.615    -28619.07   -28091.205 
 3000015    200.16326   -324.95561    -28179.97   -28688.403   -28273.811 
 3040015     200.2536    67.518083   -28182.175   -28690.837     -28162.7 
Loop time of 1095.1 on 6 procs for 66172 steps with 19652 atoms

Performance: 5.221 ns/day, 4.597 hours/ns, 60.425 timesteps/s
99.9% CPU use with 6 MPI tasks x no OpenMP threads

MPI task timing breakdown:
Section |  min time  |  avg time  |  max time  |%varavg| %total
---------------------------------------------------------------
Pair    | 556.66     | 561.4      | 564.37     |  10.2 | 51.26
Neigh   | 460.64     | 464.31     | 466.33     |   8.9 | 42.40
Comm    | 48.838     | 51.734     | 55.421     |  33.2 |  4.72
Output  | 0.01459    | 0.014605   | 0.014673   |   0.0 |  0.00
Modify  | 13.479     | 13.542     | 13.632     |   1.6 |  1.24
Other   |            | 4.11       |            |       |  0.38

Nlocal:    3275.33 ave 3287 max 3261 min
Histogram: 1 0 0 0 1 1 1 1 0 1
Nghost:    6269.33 ave 6300 max 6243 min
Histogram: 1 0 1 0 2 0 1 0 0 1
Neighs:    182632 ave 183224 max 181860 min
Histogram: 2 0 0 0 0 0 1 0 2 1

Total # of neighbors = 1095791
Ave neighs/atom = 55.7598
Neighbor list builds = 66172
Dangerous builds not checked
Setting up Verlet run ...
  Unit style    : metal
  Current step  : 3040015
  Time step     : 0.001
Per MPI rank memory allocation (min/avg/max) = 5.578 | 5.866 | 6.011 Mbytes
Step Temp Press TotEng PotEng Enthalpy 
 3040015     200.2536    67.518083   -28182.175   -28690.837     -28162.7 
 3040510    176.01728   -94.119209   -28310.397   -28757.497   -28337.505 
Loop time of 9.67346 on 6 procs for 495 steps with 19652 atoms

Performance: 4.421 ns/day, 5.428 hours/ns, 51.171 timesteps/s
100.0% CPU use with 6 MPI tasks x no OpenMP threads

MPI task timing breakdown:
Section |  min time  |  avg time  |  max time  |%varavg| %total
---------------------------------------------------------------
Pair    | 5.0764     | 5.0973     | 5.1219     |   0.7 | 52.69
Neigh   | 3.5333     | 3.6157     | 3.7585     |   3.7 | 37.38
Comm    | 0.64084    | 0.81202    | 0.89606    |   9.2 |  8.39
Output  | 6.1989e-05 | 7.2479e-05 | 0.0001049  |   0.0 |  0.00
Modify  | 0.11475    | 0.11685    | 0.11942    |   0.4 |  1.21
Other   |            | 0.03146    |            |       |  0.33

Nlocal:    3275.33 ave 3296 max 3251 min
Histogram: 1 0 0 0 2 0 2 0 0 1
Nghost:    6266.17 ave 6292 max 6240 min
Histogram: 1 1 0 0 0 1 1 1 0 1
Neighs:    182998 ave 183864 max 181005 min
Histogram: 1 0 0 0 0 1 0 1 1 2

Total # of neighbors = 1097989
Ave neighs/atom = 55.8716
Neighbor list builds = 495
Dangerous builds not checked
Setting up Verlet run ...
  Unit style    : metal
  Current step  : 3040510
  Time step     : 0.001
Per MPI rank memory allocation (min/avg/max) = 5.578 | 5.866 | 6.011 Mbytes
Step Temp Press TotEng PotEng Enthalpy 
 3040510    176.01728   -94.119209   -28310.397   -28757.497   -28337.505 
 3066682    149.45931    294.45383   -28449.993   -28829.633    -28365.49 
 3106682    149.34099   -293.71124   -28454.363   -28833.703   -28538.803 
Loop time of 1208.68 on 6 procs for 66172 steps with 19652 atoms

Performance: 4.730 ns/day, 5.074 hours/ns, 54.747 timesteps/s
99.9% CPU use with 6 MPI tasks x no OpenMP threads

MPI task timing breakdown:
Section |  min time  |  avg time  |  max time  |%varavg| %total
---------------------------------------------------------------
Pair    | 626.77     | 631.34     | 634.32     |  10.1 | 52.23
Neigh   | 473.96     | 475.67     | 478.17     |   7.1 | 39.35
Comm    | 79.469     | 82.332     | 87.504     |  29.3 |  6.81
Output  | 0.014366   | 0.014385   | 0.014453   |   0.0 |  0.00
Modify  | 15.102     | 15.155     | 15.206     |   1.0 |  1.25
Other   |            | 4.164      |            |       |  0.34

Nlocal:    3275.33 ave 3282 max 3267 min
Histogram: 1 1 0 1 0 0 0 0 0 3
Nghost:    6275.17 ave 6297 max 6253 min
Histogram: 1 0 1 0 0 1 2 0 0 1
Neighs:    183441 ave 184196 max 182645 min
Histogram: 1 0 2 0 0 1 0 0 0 2

Total # of neighbors = 1100646
Ave neighs/atom = 56.0068
Neighbor list builds = 66172
Dangerous builds not checked
Setting up Verlet run ...
  Unit style    : metal
  Current step  : 3106682
  Time step     : 0.001
Per MPI rank memory allocation (min/avg/max) = 5.578 | 5.866 | 6.011 Mbytes
Step Temp Press TotEng PotEng Enthalpy 
 3106682    149.34099   -293.71124   -28454.363   -28833.703   -28538.803 
 3107177    128.04451    162.13404   -28569.152   -28894.397   -28522.684 
Loop time of 8.31997 on 6 procs for 495 steps with 19652 atoms

Performance: 5.140 ns/day, 4.669 hours/ns, 59.495 timesteps/s
100.0% CPU use with 6 MPI tasks x no OpenMP threads

MPI task timing breakdown:
Section |  min time  |  avg time  |  max time  |%varavg| %total
---------------------------------------------------------------
Pair    | 4.2464     | 4.2851     | 4.3361     |   1.5 | 51.50
Neigh   | 3.3958     | 3.4534     | 3.5448     |   2.9 | 41.51
Comm    | 0.37343    | 0.45051    | 0.48557    |   5.5 |  5.41
Output  | 5.1022e-05 | 6.1552e-05 | 9.7036e-05 |   0.0 |  0.00
Modify  | 0.09938    | 0.10091    | 0.10341    |   0.4 |  1.21
Other   |            | 0.03       |            |       |  0.36

Nlocal:    3275.33 ave 3285 max 3267 min
Histogram: 1 0 2 0 0 1 0 1 0 1
Nghost:    6279.67 ave 6298 max 6258 min
Histogram: 1 0 0 1 1 0 1 1 0 1
Neighs:    184050 ave 185013 max 183592 min
Histogram: 1 1 2 1 0 0 0 0 0 1

Total # of neighbors = 1104297
Ave neighs/atom = 56.1926
Neighbor list builds = 495
Dangerous builds not checked
Setting up Verlet run ...
  Unit style    : metal
  Current step  : 3107177
  Time step     : 0.001
Per MPI rank memory allocation (min/avg/max) = 5.578 | 5.866 | 6.011 Mbytes
Step Temp Press TotEng PotEng Enthalpy 
 3107177    128.04451    162.13404   -28569.152   -28894.397   -28522.684 
 3133349    99.513117   -193.84562    -28710.35   -28963.123   -28765.847 
 3173349     100.5256    118.80108    -28709.16   -28964.504   -28675.183 
Loop time of 1069.61 on 6 procs for 66172 steps with 19652 atoms

Performance: 5.345 ns/day, 4.490 hours/ns, 61.865 timesteps/s
99.8% CPU use with 6 MPI tasks x no OpenMP threads

MPI task timing breakdown:
Section |  min time  |  avg time  |  max time  |%varavg| %total
---------------------------------------------------------------
Pair    | 544.35     | 548.58     | 551.61     |  10.2 | 51.29
Neigh   | 457.71     | 459.91     | 461.99     |   6.7 | 43.00
Comm    | 39.852     | 43.651     | 47.637     |  38.7 |  4.08
Output  | 0.010288   | 0.010302   | 0.010364   |   0.0 |  0.00
Modify  | 13.394     | 13.415     | 13.449     |   0.5 |  1.25
Other   |            | 4.051      |            |       |  0.38

Nlocal:    3275.33 ave 3283 max 3263 min
Histogram: 1 0 0 0 1 0 0 1 2 1
Nghost:    6300.5 ave 6317 max 6287 min
Histogram: 1 1 0 1 0 1 0 1 0 1
Neighs:    184540 ave 185559 max 183361 min
Histogram: 1 0 0 0 1 2 1 0 0 1

Total # of neighbors = 1107240
Ave neighs/atom = 56.3424
Neighbor list builds = 66172
Dangerous builds not checked
Total wall time: 20:53:48
