LAMMPS (12 Dec 2018)
Lattice spacing in x,y,z = 4 4 4
Created orthogonal box = (0 0 0) to (68 68 68)
  1 by 1 by 1 MPI processor grid
Created 19652 atoms
  Time spent = 0.00296783 secs
Setting atom values ...
  19281 settings made for type/fraction
Neighbor list info ...
  update every 1 steps, delay 0 steps, check no
  max neighbors/atom: 2000, page size: 100000
  master list distance cutoff = 8.5
  ghost atom cutoff = 8.5
  binsize = 4.25, bins = 16 16 16
  1 neighbor lists, perpetual/occasional/extra = 1 0 0
  (1) pair eam/alloy, perpetual
      attributes: half, newton on
      pair build: half/bin/atomonly/newton
      stencil: half/bin/3d/newton
      bin: standard
Setting up Verlet run ...
  Unit style    : metal
  Current step  : 0
  Time step     : 0.001
Per MPI rank memory allocation (min/avg/max) = 18.19 | 18.19 | 18.19 Mbytes
Step Temp Press TotEng PotEng Enthalpy 
       0          300    37241.191   -65214.093    -65976.12   -57905.396 
    1000    276.23116    50866.288   -65214.121   -65915.773   -55231.458 
Loop time of 160.059 on 1 procs for 1000 steps with 19652 atoms

Performance: 0.540 ns/day, 44.461 hours/ns, 6.248 timesteps/s
99.8% CPU use with 1 MPI tasks x no OpenMP threads

MPI task timing breakdown:
Section |  min time  |  avg time  |  max time  |%varavg| %total
---------------------------------------------------------------
Pair    | 90.989     | 90.989     | 90.989     |   0.0 | 56.85
Neigh   | 67.069     | 67.069     | 67.069     |   0.0 | 41.90
Comm    | 1.1857     | 1.1857     | 1.1857     |   0.0 |  0.74
Output  | 0.00038791 | 0.00038791 | 0.00038791 |   0.0 |  0.00
Modify  | 0.41999    | 0.41999    | 0.41999    |   0.0 |  0.26
Other   |            | 0.3944     |            |       |  0.25

Nlocal:    19652 ave 19652 max 19652 min
Histogram: 1 0 0 0 0 0 0 0 0 0
Nghost:    20091 ave 20091 max 20091 min
Histogram: 1 0 0 0 0 0 0 0 0 0
Neighs:    1.56861e+06 ave 1.56861e+06 max 1.56861e+06 min
Histogram: 1 0 0 0 0 0 0 0 0 0

Total # of neighbors = 1568609
Ave neighs/atom = 79.8193
Neighbor list builds = 1000
Dangerous builds not checked
Setting up Verlet run ...
  Unit style    : metal
  Current step  : 1000
  Time step     : 0.001
Per MPI rank memory allocation (min/avg/max) = 18.2 | 18.2 | 18.2 Mbytes
Step Temp Press TotEng PotEng Enthalpy 
    1000    276.23116    50866.288   -65214.121   -65915.773   -55231.458 
    2000     300.3056   -84.448918   -65198.301   -65961.105   -65215.986 
Loop time of 156.174 on 1 procs for 1000 steps with 19652 atoms

Performance: 0.553 ns/day, 43.382 hours/ns, 6.403 timesteps/s
99.8% CPU use with 1 MPI tasks x no OpenMP threads

MPI task timing breakdown:
Section |  min time  |  avg time  |  max time  |%varavg| %total
---------------------------------------------------------------
Pair    | 85.974     | 85.974     | 85.974     |   0.0 | 55.05
Neigh   | 67.227     | 67.227     | 67.227     |   0.0 | 43.05
Comm    | 1.1144     | 1.1144     | 1.1144     |   0.0 |  0.71
Output  | 0.00016689 | 0.00016689 | 0.00016689 |   0.0 |  0.00
Modify  | 1.4649     | 1.4649     | 1.4649     |   0.0 |  0.94
Other   |            | 0.3933     |            |       |  0.25

Nlocal:    19652 ave 19652 max 19652 min
Histogram: 1 0 0 0 0 0 0 0 0 0
Nghost:    19939 ave 19939 max 19939 min
Histogram: 1 0 0 0 0 0 0 0 0 0
Neighs:    1.44702e+06 ave 1.44702e+06 max 1.44702e+06 min
Histogram: 1 0 0 0 0 0 0 0 0 0

Total # of neighbors = 1447017
Ave neighs/atom = 73.632
Neighbor list builds = 1000
Dangerous builds not checked
Setting up Verlet run ...
  Unit style    : metal
  Current step  : 2000
  Time step     : 0.001
Per MPI rank memory allocation (min/avg/max) = 18.2 | 18.2 | 18.2 Mbytes
Step Temp Press TotEng PotEng Enthalpy 
    2000     300.3056   -84.448918   -65198.301   -65961.105   -65215.986 
    6667    1543.1166    419.32282   -56747.271   -60666.927   -56640.588 
   10000    2435.6468    -565.8489   -51642.402   -57829.167   -51803.999 
Loop time of 1107.99 on 1 procs for 8000 steps with 19652 atoms

Performance: 0.624 ns/day, 38.472 hours/ns, 7.220 timesteps/s
99.8% CPU use with 1 MPI tasks x no OpenMP threads

MPI task timing breakdown:
Section |  min time  |  avg time  |  max time  |%varavg| %total
---------------------------------------------------------------
Pair    | 586.17     | 586.17     | 586.17     |   0.0 | 52.90
Neigh   | 499.62     | 499.62     | 499.62     |   0.0 | 45.09
Comm    | 8.2382     | 8.2382     | 8.2382     |   0.0 |  0.74
Output  | 0.068283   | 0.068283   | 0.068283   |   0.0 |  0.01
Modify  | 11         | 11         | 11         |   0.0 |  0.99
Other   |            | 2.893      |            |       |  0.26

Nlocal:    19652 ave 19652 max 19652 min
Histogram: 1 0 0 0 0 0 0 0 0 0
Nghost:    15993 ave 15993 max 15993 min
Histogram: 1 0 0 0 0 0 0 0 0 0
Neighs:    1.07825e+06 ave 1.07825e+06 max 1.07825e+06 min
Histogram: 1 0 0 0 0 0 0 0 0 0

Total # of neighbors = 1078251
Ave neighs/atom = 54.8672
Neighbor list builds = 8000
Dangerous builds not checked
Setting up Verlet run ...
  Unit style    : metal
  Current step  : 10000
  Time step     : 0.001
Per MPI rank memory allocation (min/avg/max) = 18.2 | 18.2 | 18.2 Mbytes
Step Temp Press TotEng PotEng Enthalpy 
   10000    2435.6468    -565.8489   -51642.402   -57829.167   -51803.999 
   13334    2442.5481   -1118.9395   -51496.753   -57701.047   -51818.034 
   20001    2415.9404   -547.24831   -51633.024   -57769.733   -51789.496 
   26668    2445.3897    361.95358   -51732.684   -57944.196   -51629.983 
   33335    2457.4527    1162.3285   -51619.719   -57861.873   -51289.251 
   40000    2444.1248     -132.379   -51564.322   -57772.622   -51602.176 
Loop time of 4112.06 on 1 procs for 30000 steps with 19652 atoms

Performance: 0.630 ns/day, 38.075 hours/ns, 7.296 timesteps/s
99.9% CPU use with 1 MPI tasks x no OpenMP threads

MPI task timing breakdown:
Section |  min time  |  avg time  |  max time  |%varavg| %total
---------------------------------------------------------------
Pair    | 2189.6     | 2189.6     | 2189.6     |   0.0 | 53.25
Neigh   | 1834.1     | 1834.1     | 1834.1     |   0.0 | 44.60
Comm    | 32.713     | 32.713     | 32.713     |   0.0 |  0.80
Output  | 0.2593     | 0.2593     | 0.2593     |   0.0 |  0.01
Modify  | 44.051     | 44.051     | 44.051     |   0.0 |  1.07
Other   |            | 11.3       |            |       |  0.27

Nlocal:    19652 ave 19652 max 19652 min
Histogram: 1 0 0 0 0 0 0 0 0 0
Nghost:    16040 ave 16040 max 16040 min
Histogram: 1 0 0 0 0 0 0 0 0 0
Neighs:    1.07687e+06 ave 1.07687e+06 max 1.07687e+06 min
Histogram: 1 0 0 0 0 0 0 0 0 0

Total # of neighbors = 1076868
Ave neighs/atom = 54.7969
Neighbor list builds = 30000
Dangerous builds not checked
Setting up Verlet run ...
  Unit style    : metal
  Current step  : 40000
  Time step     : 0.001
Per MPI rank memory allocation (min/avg/max) = 18.2 | 18.2 | 18.2 Mbytes
Step Temp Press TotEng PotEng Enthalpy 
   40000    2444.1248     -132.379   -51564.322   -57772.622   -51602.176 
   40002    2444.4795   -162.72644   -51564.309   -57773.509    -51610.84 
   40495    2419.5347    684.75613   -51822.298   -57968.136   -51628.111 
Loop time of 63.3682 on 1 procs for 495 steps with 19652 atoms

Performance: 0.675 ns/day, 35.560 hours/ns, 7.811 timesteps/s
99.9% CPU use with 1 MPI tasks x no OpenMP threads

MPI task timing breakdown:
Section |  min time  |  avg time  |  max time  |%varavg| %total
---------------------------------------------------------------
Pair    | 33.407     | 33.407     | 33.407     |   0.0 | 52.72
Neigh   | 28.523     | 28.523     | 28.523     |   0.0 | 45.01
Comm    | 0.50744    | 0.50744    | 0.50744    |   0.0 |  0.80
Output  | 0.052285   | 0.052285   | 0.052285   |   0.0 |  0.08
Modify  | 0.69811    | 0.69811    | 0.69811    |   0.0 |  1.10
Other   |            | 0.1812     |            |       |  0.29

Nlocal:    19652 ave 19652 max 19652 min
Histogram: 1 0 0 0 0 0 0 0 0 0
Nghost:    16131 ave 16131 max 16131 min
Histogram: 1 0 0 0 0 0 0 0 0 0
Neighs:    1.08626e+06 ave 1.08626e+06 max 1.08626e+06 min
Histogram: 1 0 0 0 0 0 0 0 0 0

Total # of neighbors = 1086260
Ave neighs/atom = 55.2748
Neighbor list builds = 495
Dangerous builds not checked
Setting up Verlet run ...
  Unit style    : metal
  Current step  : 40495
  Time step     : 0.001
Per MPI rank memory allocation (min/avg/max) = 18.2 | 18.2 | 18.2 Mbytes
Step Temp Press TotEng PotEng Enthalpy 
   40495    2419.5347    684.75613   -51822.298   -57968.136   -51628.111 
   46667    2434.2281    222.36543    -51731.79   -57914.951   -51668.619 
Loop time of 704.921 on 1 procs for 6172 steps with 19652 atoms

Performance: 0.756 ns/day, 31.726 hours/ns, 8.756 timesteps/s
99.9% CPU use with 1 MPI tasks x no OpenMP threads

MPI task timing breakdown:
Section |  min time  |  avg time  |  max time  |%varavg| %total
---------------------------------------------------------------
Pair    | 367.37     | 367.37     | 367.37     |   0.0 | 52.11
Neigh   | 322.36     | 322.36     | 322.36     |   0.0 | 45.73
Comm    | 5.6546     | 5.6546     | 5.6546     |   0.0 |  0.80
Output  | 0.00015497 | 0.00015497 | 0.00015497 |   0.0 |  0.00
Modify  | 7.5862     | 7.5862     | 7.5862     |   0.0 |  1.08
Other   |            | 1.949      |            |       |  0.28

Nlocal:    19652 ave 19652 max 19652 min
Histogram: 1 0 0 0 0 0 0 0 0 0
Nghost:    16215 ave 16215 max 16215 min
Histogram: 1 0 0 0 0 0 0 0 0 0
Neighs:    1.08425e+06 ave 1.08425e+06 max 1.08425e+06 min
Histogram: 1 0 0 0 0 0 0 0 0 0

Total # of neighbors = 1084250
Ave neighs/atom = 55.1725
Neighbor list builds = 6172
Dangerous builds not checked
Setting up Verlet run ...
  Unit style    : metal
  Current step  : 46667
  Time step     : 0.001
Per MPI rank memory allocation (min/avg/max) = 18.2 | 18.2 | 18.2 Mbytes
Step Temp Press TotEng PotEng Enthalpy 
   46667    2434.2281    222.36543    -51731.79   -57914.951   -51668.619 
   46669    2434.1515    218.34694   -51731.825   -57914.791   -51669.796 
   47162    2365.2907    382.20189   -52069.403   -58077.457   -51961.585 
Loop time of 46.7037 on 1 procs for 495 steps with 19652 atoms

Performance: 0.916 ns/day, 26.209 hours/ns, 10.599 timesteps/s
98.7% CPU use with 1 MPI tasks x no OpenMP threads

MPI task timing breakdown:
Section |  min time  |  avg time  |  max time  |%varavg| %total
---------------------------------------------------------------
Pair    | 23.431     | 23.431     | 23.431     |   0.0 | 50.17
Neigh   | 21.631     | 21.631     | 21.631     |   0.0 | 46.32
Comm    | 0.36994    | 0.36994    | 0.36994    |   0.0 |  0.79
Output  | 0.63447    | 0.63447    | 0.63447    |   0.0 |  1.36
Modify  | 0.50681    | 0.50681    | 0.50681    |   0.0 |  1.09
Other   |            | 0.1309     |            |       |  0.28

Nlocal:    19652 ave 19652 max 19652 min
Histogram: 1 0 0 0 0 0 0 0 0 0
Nghost:    16145 ave 16145 max 16145 min
Histogram: 1 0 0 0 0 0 0 0 0 0
Neighs:    1.09196e+06 ave 1.09196e+06 max 1.09196e+06 min
Histogram: 1 0 0 0 0 0 0 0 0 0

Total # of neighbors = 1091957
Ave neighs/atom = 55.5647
Neighbor list builds = 495
Dangerous builds not checked
Setting up Verlet run ...
  Unit style    : metal
  Current step  : 47162
  Time step     : 0.001
Per MPI rank memory allocation (min/avg/max) = 18.2 | 18.2 | 18.2 Mbytes
Step Temp Press TotEng PotEng Enthalpy 
   47162    2365.2907    382.20189   -52069.403   -58077.457   -51961.585 
   53334    2333.4323   -1025.6143   -52145.818   -58072.949    -52436.05 
Loop time of 643.225 on 1 procs for 6172 steps with 19652 atoms

Performance: 0.829 ns/day, 28.949 hours/ns, 9.595 timesteps/s
99.8% CPU use with 1 MPI tasks x no OpenMP threads

MPI task timing breakdown:
Section |  min time  |  avg time  |  max time  |%varavg| %total
---------------------------------------------------------------
Pair    | 332.54     | 332.54     | 332.54     |   0.0 | 51.70
Neigh   | 296.88     | 296.88     | 296.88     |   0.0 | 46.16
Comm    | 5.1903     | 5.1903     | 5.1903     |   0.0 |  0.81
Output  | 0.0001359  | 0.0001359  | 0.0001359  |   0.0 |  0.00
Modify  | 6.8466     | 6.8466     | 6.8466     |   0.0 |  1.06
Other   |            | 1.768      |            |       |  0.27

Nlocal:    19652 ave 19652 max 19652 min
Histogram: 1 0 0 0 0 0 0 0 0 0
Nghost:    16253 ave 16253 max 16253 min
Histogram: 1 0 0 0 0 0 0 0 0 0
Neighs:    1.0882e+06 ave 1.0882e+06 max 1.0882e+06 min
Histogram: 1 0 0 0 0 0 0 0 0 0

Total # of neighbors = 1088199
Ave neighs/atom = 55.3734
Neighbor list builds = 6172
Dangerous builds not checked
Setting up Verlet run ...
  Unit style    : metal
  Current step  : 53334
  Time step     : 0.001
Per MPI rank memory allocation (min/avg/max) = 18.2 | 18.2 | 18.2 Mbytes
Step Temp Press TotEng PotEng Enthalpy 
   53334    2333.4323   -1025.6143   -52145.818   -58072.949    -52436.05 
   53336    2332.3555   -988.69294   -52145.807   -58070.202   -52425.591 
   53829    2313.1777   -105.04209   -52375.024   -58250.706   -52404.504 
Loop time of 52.7269 on 1 procs for 495 steps with 19652 atoms

Performance: 0.811 ns/day, 29.589 hours/ns, 9.388 timesteps/s
99.5% CPU use with 1 MPI tasks x no OpenMP threads

MPI task timing breakdown:
Section |  min time  |  avg time  |  max time  |%varavg| %total
---------------------------------------------------------------
Pair    | 27.073     | 27.073     | 27.073     |   0.0 | 51.35
Neigh   | 24.253     | 24.253     | 24.253     |   0.0 | 46.00
Comm    | 0.41505    | 0.41505    | 0.41505    |   0.0 |  0.79
Output  | 0.27568    | 0.27568    | 0.27568    |   0.0 |  0.52
Modify  | 0.56528    | 0.56528    | 0.56528    |   0.0 |  1.07
Other   |            | 0.1453     |            |       |  0.28

Nlocal:    19652 ave 19652 max 19652 min
Histogram: 1 0 0 0 0 0 0 0 0 0
Nghost:    16226 ave 16226 max 16226 min
Histogram: 1 0 0 0 0 0 0 0 0 0
Neighs:    1.09736e+06 ave 1.09736e+06 max 1.09736e+06 min
Histogram: 1 0 0 0 0 0 0 0 0 0

Total # of neighbors = 1097357
Ave neighs/atom = 55.8395
Neighbor list builds = 495
Dangerous builds not checked
Setting up Verlet run ...
  Unit style    : metal
  Current step  : 53829
  Time step     : 0.001
Per MPI rank memory allocation (min/avg/max) = 18.2 | 18.2 | 18.2 Mbytes
Step Temp Press TotEng PotEng Enthalpy 
   53829    2313.1777   -105.04209   -52375.024   -58250.706   -52404.504 
   60001     2309.148   -595.09431     -52425.3   -58290.746   -52592.123 
Loop time of 737.799 on 1 procs for 6172 steps with 19652 atoms

Performance: 0.723 ns/day, 33.205 hours/ns, 8.365 timesteps/s
99.9% CPU use with 1 MPI tasks x no OpenMP threads

MPI task timing breakdown:
Section |  min time  |  avg time  |  max time  |%varavg| %total
---------------------------------------------------------------
Pair    | 389.49     | 389.49     | 389.49     |   0.0 | 52.79
Neigh   | 332.4      | 332.4      | 332.4      |   0.0 | 45.05
Comm    | 5.9503     | 5.9503     | 5.9503     |   0.0 |  0.81
Output  | 0.0002141  | 0.0002141  | 0.0002141  |   0.0 |  0.00
Modify  | 7.8933     | 7.8933     | 7.8933     |   0.0 |  1.07
Other   |            | 2.064      |            |       |  0.28

Nlocal:    19652 ave 19652 max 19652 min
Histogram: 1 0 0 0 0 0 0 0 0 0
Nghost:    16183 ave 16183 max 16183 min
Histogram: 1 0 0 0 0 0 0 0 0 0
Neighs:    1.09909e+06 ave 1.09909e+06 max 1.09909e+06 min
Histogram: 1 0 0 0 0 0 0 0 0 0

Total # of neighbors = 1099089
Ave neighs/atom = 55.9276
Neighbor list builds = 6172
Dangerous builds not checked
Setting up Verlet run ...
  Unit style    : metal
  Current step  : 60001
  Time step     : 0.001
Per MPI rank memory allocation (min/avg/max) = 18.21 | 18.21 | 18.21 Mbytes
Step Temp Press TotEng PotEng Enthalpy 
   60001     2309.148   -595.09431     -52425.3   -58290.746   -52592.123 
   60003     2308.604   -608.45506   -52425.304   -58289.368   -52595.872 
   60496    2247.0129    595.16091   -52621.186   -58328.803   -52455.023 
Loop time of 57.1319 on 1 procs for 495 steps with 19652 atoms

Performance: 0.749 ns/day, 32.061 hours/ns, 8.664 timesteps/s
99.9% CPU use with 1 MPI tasks x no OpenMP threads

MPI task timing breakdown:
Section |  min time  |  avg time  |  max time  |%varavg| %total
---------------------------------------------------------------
Pair    | 29.975     | 29.975     | 29.975     |   0.0 | 52.47
Neigh   | 25.848     | 25.848     | 25.848     |   0.0 | 45.24
Comm    | 0.46153    | 0.46153    | 0.46153    |   0.0 |  0.81
Output  | 0.054825   | 0.054825   | 0.054825   |   0.0 |  0.10
Modify  | 0.62971    | 0.62971    | 0.62971    |   0.0 |  1.10
Other   |            | 0.1624     |            |       |  0.28

Nlocal:    19652 ave 19652 max 19652 min
Histogram: 1 0 0 0 0 0 0 0 0 0
Nghost:    16243 ave 16243 max 16243 min
Histogram: 1 0 0 0 0 0 0 0 0 0
Neighs:    1.10372e+06 ave 1.10372e+06 max 1.10372e+06 min
Histogram: 1 0 0 0 0 0 0 0 0 0

Total # of neighbors = 1103718
Ave neighs/atom = 56.1631
Neighbor list builds = 495
Dangerous builds not checked
Setting up Verlet run ...
  Unit style    : metal
  Current step  : 60496
  Time step     : 0.001
Per MPI rank memory allocation (min/avg/max) = 18.21 | 18.21 | 18.21 Mbytes
Step Temp Press TotEng PotEng Enthalpy 
   60496    2247.0129    595.16091   -52621.186   -58328.803   -52455.023 
   66668    2264.3803   -529.92328   -52650.486   -58402.218   -52798.333 
Loop time of 874.459 on 1 procs for 6172 steps with 19652 atoms

Performance: 0.610 ns/day, 39.356 hours/ns, 7.058 timesteps/s
99.9% CPU use with 1 MPI tasks x no OpenMP threads

MPI task timing breakdown:
Section |  min time  |  avg time  |  max time  |%varavg| %total
---------------------------------------------------------------
Pair    | 456.05     | 456.05     | 456.05     |   0.0 | 52.15
Neigh   | 400.27     | 400.27     | 400.27     |   0.0 | 45.77
Comm    | 6.7525     | 6.7525     | 6.7525     |   0.0 |  0.77
Output  | 0.00025415 | 0.00025415 | 0.00025415 |   0.0 |  0.00
Modify  | 9.0222     | 9.0222     | 9.0222     |   0.0 |  1.03
Other   |            | 2.364      |            |       |  0.27

Nlocal:    19652 ave 19652 max 19652 min
Histogram: 1 0 0 0 0 0 0 0 0 0
Nghost:    16307 ave 16307 max 16307 min
Histogram: 1 0 0 0 0 0 0 0 0 0
Neighs:    1.10433e+06 ave 1.10433e+06 max 1.10433e+06 min
Histogram: 1 0 0 0 0 0 0 0 0 0

Total # of neighbors = 1104334
Ave neighs/atom = 56.1945
Neighbor list builds = 6172
Dangerous builds not checked
Setting up Verlet run ...
  Unit style    : metal
  Current step  : 66668
  Time step     : 0.001
Per MPI rank memory allocation (min/avg/max) = 18.21 | 18.21 | 18.21 Mbytes
Step Temp Press TotEng PotEng Enthalpy 
   66668    2264.3803   -529.92328   -52650.486   -58402.218   -52798.333 
   66670    2262.8742   -520.28634    -52650.49   -58398.397   -52795.649 
   67163    2209.7315    189.06633     -52898.3   -58511.219   -52845.872 
Loop time of 74.7648 on 1 procs for 495 steps with 19652 atoms

Performance: 0.572 ns/day, 41.956 hours/ns, 6.621 timesteps/s
99.9% CPU use with 1 MPI tasks x no OpenMP threads

MPI task timing breakdown:
Section |  min time  |  avg time  |  max time  |%varavg| %total
---------------------------------------------------------------
Pair    | 38.794     | 38.794     | 38.794     |   0.0 | 51.89
Neigh   | 34.31      | 34.31      | 34.31      |   0.0 | 45.89
Comm    | 0.5578     | 0.5578     | 0.5578     |   0.0 |  0.75
Output  | 0.069027   | 0.069027   | 0.069027   |   0.0 |  0.09
Modify  | 0.82961    | 0.82961    | 0.82961    |   0.0 |  1.11
Other   |            | 0.2047     |            |       |  0.27

Nlocal:    19652 ave 19652 max 19652 min
Histogram: 1 0 0 0 0 0 0 0 0 0
Nghost:    16367 ave 16367 max 16367 min
Histogram: 1 0 0 0 0 0 0 0 0 0
Neighs:    1.11064e+06 ave 1.11064e+06 max 1.11064e+06 min
Histogram: 1 0 0 0 0 0 0 0 0 0

Total # of neighbors = 1110635
Ave neighs/atom = 56.5151
Neighbor list builds = 495
Dangerous builds not checked
Setting up Verlet run ...
  Unit style    : metal
  Current step  : 67163
  Time step     : 0.001
Per MPI rank memory allocation (min/avg/max) = 18.21 | 18.21 | 18.21 Mbytes
Step Temp Press TotEng PotEng Enthalpy 
   67163    2209.7315    189.06633     -52898.3   -58511.219   -52845.872 
   73335    2186.0526   -40.805425       -52908   -58460.772   -52919.326 
Loop time of 960.145 on 1 procs for 6172 steps with 19652 atoms

Performance: 0.555 ns/day, 43.212 hours/ns, 6.428 timesteps/s
99.7% CPU use with 1 MPI tasks x no OpenMP threads

MPI task timing breakdown:
Section |  min time  |  avg time  |  max time  |%varavg| %total
---------------------------------------------------------------
Pair    | 502.54     | 502.54     | 502.54     |   0.0 | 52.34
Neigh   | 437.89     | 437.89     | 437.89     |   0.0 | 45.61
Comm    | 7.276      | 7.276      | 7.276      |   0.0 |  0.76
Output  | 0.00027108 | 0.00027108 | 0.00027108 |   0.0 |  0.00
Modify  | 9.9045     | 9.9045     | 9.9045     |   0.0 |  1.03
Other   |            | 2.529      |            |       |  0.26

Nlocal:    19652 ave 19652 max 19652 min
Histogram: 1 0 0 0 0 0 0 0 0 0
Nghost:    16326 ave 16326 max 16326 min
Histogram: 1 0 0 0 0 0 0 0 0 0
Neighs:    1.1102e+06 ave 1.1102e+06 max 1.1102e+06 min
Histogram: 1 0 0 0 0 0 0 0 0 0

Total # of neighbors = 1110196
Ave neighs/atom = 56.4928
Neighbor list builds = 6172
Dangerous builds not checked
Setting up Verlet run ...
  Unit style    : metal
  Current step  : 73335
  Time step     : 0.001
Per MPI rank memory allocation (min/avg/max) = 18.21 | 18.21 | 18.21 Mbytes
Step Temp Press TotEng PotEng Enthalpy 
   73335    2186.0526   -40.805425       -52908   -58460.772   -52919.326 
   73337    2186.4533   -38.030433    -52907.99   -58461.781   -52918.547 
   73830    2162.0416    561.45302   -53168.594   -58660.377   -53013.799 
Loop time of 75.9081 on 1 procs for 495 steps with 19652 atoms

Performance: 0.563 ns/day, 42.597 hours/ns, 6.521 timesteps/s
100.0% CPU use with 1 MPI tasks x no OpenMP threads

MPI task timing breakdown:
Section |  min time  |  avg time  |  max time  |%varavg| %total
---------------------------------------------------------------
Pair    | 39.656     | 39.656     | 39.656     |   0.0 | 52.24
Neigh   | 34.609     | 34.609     | 34.609     |   0.0 | 45.59
Comm    | 0.56559    | 0.56559    | 0.56559    |   0.0 |  0.75
Output  | 0.068569   | 0.068569   | 0.068569   |   0.0 |  0.09
Modify  | 0.80535    | 0.80535    | 0.80535    |   0.0 |  1.06
Other   |            | 0.2033     |            |       |  0.27

Nlocal:    19652 ave 19652 max 19652 min
Histogram: 1 0 0 0 0 0 0 0 0 0
Nghost:    16363 ave 16363 max 16363 min
Histogram: 1 0 0 0 0 0 0 0 0 0
Neighs:    1.11764e+06 ave 1.11764e+06 max 1.11764e+06 min
Histogram: 1 0 0 0 0 0 0 0 0 0

Total # of neighbors = 1117636
Ave neighs/atom = 56.8714
Neighbor list builds = 495
Dangerous builds not checked
Setting up Verlet run ...
  Unit style    : metal
  Current step  : 73830
  Time step     : 0.001
Per MPI rank memory allocation (min/avg/max) = 18.21 | 18.21 | 18.21 Mbytes
Step Temp Press TotEng PotEng Enthalpy 
   73830    2162.0416    561.45302   -53168.594   -58660.377   -53013.799 
   80002    2134.7182   -102.48516   -53264.663   -58687.042   -53292.903 
Loop time of 952.749 on 1 procs for 6172 steps with 19652 atoms

Performance: 0.560 ns/day, 42.880 hours/ns, 6.478 timesteps/s
99.9% CPU use with 1 MPI tasks x no OpenMP threads

MPI task timing breakdown:
Section |  min time  |  avg time  |  max time  |%varavg| %total
---------------------------------------------------------------
Pair    | 501.07     | 501.07     | 501.07     |   0.0 | 52.59
Neigh   | 432.08     | 432.08     | 432.08     |   0.0 | 45.35
Comm    | 7.2756     | 7.2756     | 7.2756     |   0.0 |  0.76
Output  | 0.00024509 | 0.00024509 | 0.00024509 |   0.0 |  0.00
Modify  | 9.8051     | 9.8051     | 9.8051     |   0.0 |  1.03
Other   |            | 2.515      |            |       |  0.26

Nlocal:    19652 ave 19652 max 19652 min
Histogram: 1 0 0 0 0 0 0 0 0 0
Nghost:    16351 ave 16351 max 16351 min
Histogram: 1 0 0 0 0 0 0 0 0 0
Neighs:    1.1184e+06 ave 1.1184e+06 max 1.1184e+06 min
Histogram: 1 0 0 0 0 0 0 0 0 0

Total # of neighbors = 1118403
Ave neighs/atom = 56.9104
Neighbor list builds = 6172
Dangerous builds not checked
Setting up Verlet run ...
  Unit style    : metal
  Current step  : 80002
  Time step     : 0.001
Per MPI rank memory allocation (min/avg/max) = 18.21 | 18.21 | 18.21 Mbytes
Step Temp Press TotEng PotEng Enthalpy 
   80002    2134.7182   -102.48516   -53264.663   -58687.042   -53292.903 
   80004    2132.4153   -55.486988   -53264.637   -58681.166   -53279.927 
   80497      2099.66  -0.62706197   -53449.626   -58782.954   -53449.799 
Loop time of 73.2155 on 1 procs for 495 steps with 19652 atoms

Performance: 0.584 ns/day, 41.086 hours/ns, 6.761 timesteps/s
100.0% CPU use with 1 MPI tasks x no OpenMP threads

MPI task timing breakdown:
Section |  min time  |  avg time  |  max time  |%varavg| %total
---------------------------------------------------------------
Pair    | 38.369     | 38.369     | 38.369     |   0.0 | 52.41
Neigh   | 33.248     | 33.248     | 33.248     |   0.0 | 45.41
Comm    | 0.56198    | 0.56198    | 0.56198    |   0.0 |  0.77
Output  | 0.062462   | 0.062462   | 0.062462   |   0.0 |  0.09
Modify  | 0.77427    | 0.77427    | 0.77427    |   0.0 |  1.06
Other   |            | 0.1999     |            |       |  0.27

Nlocal:    19652 ave 19652 max 19652 min
Histogram: 1 0 0 0 0 0 0 0 0 0
Nghost:    16370 ave 16370 max 16370 min
Histogram: 1 0 0 0 0 0 0 0 0 0
Neighs:    1.12295e+06 ave 1.12295e+06 max 1.12295e+06 min
Histogram: 1 0 0 0 0 0 0 0 0 0

Total # of neighbors = 1122948
Ave neighs/atom = 57.1417
Neighbor list builds = 495
Dangerous builds not checked
Setting up Verlet run ...
  Unit style    : metal
  Current step  : 80497
  Time step     : 0.001
Per MPI rank memory allocation (min/avg/max) = 18.21 | 18.21 | 18.21 Mbytes
Step Temp Press TotEng PotEng Enthalpy 
   80497      2099.66  -0.62706197   -53449.626   -58782.954   -53449.799 
   86669    2100.3936     338.8023   -53532.564   -58867.755    -53439.97 
Loop time of 953.877 on 1 procs for 6172 steps with 19652 atoms

Performance: 0.559 ns/day, 42.930 hours/ns, 6.470 timesteps/s
99.8% CPU use with 1 MPI tasks x no OpenMP threads

MPI task timing breakdown:
Section |  min time  |  avg time  |  max time  |%varavg| %total
---------------------------------------------------------------
Pair    | 502.84     | 502.84     | 502.84     |   0.0 | 52.72
Neigh   | 431.63     | 431.63     | 431.63     |   0.0 | 45.25
Comm    | 7.2252     | 7.2252     | 7.2252     |   0.0 |  0.76
Output  | 0.00022078 | 0.00022078 | 0.00022078 |   0.0 |  0.00
Modify  | 9.6753     | 9.6753     | 9.6753     |   0.0 |  1.01
Other   |            | 2.507      |            |       |  0.26

Nlocal:    19652 ave 19652 max 19652 min
Histogram: 1 0 0 0 0 0 0 0 0 0
Nghost:    16369 ave 16369 max 16369 min
Histogram: 1 0 0 0 0 0 0 0 0 0
Neighs:    1.12738e+06 ave 1.12738e+06 max 1.12738e+06 min
Histogram: 1 0 0 0 0 0 0 0 0 0

Total # of neighbors = 1127383
Ave neighs/atom = 57.3673
Neighbor list builds = 6172
Dangerous builds not checked
Setting up Verlet run ...
  Unit style    : metal
  Current step  : 86669
  Time step     : 0.001
Per MPI rank memory allocation (min/avg/max) = 18.21 | 18.21 | 18.21 Mbytes
Step Temp Press TotEng PotEng Enthalpy 
   86669    2100.3936     338.8023   -53532.564   -58867.755    -53439.97 
   86671     2101.096    339.53066   -53532.565   -58869.541   -53439.772 
   87164     2062.438   -366.06143   -53699.966   -58938.747   -53799.836 
Loop time of 71.7873 on 1 procs for 495 steps with 19652 atoms

Performance: 0.596 ns/day, 40.285 hours/ns, 6.895 timesteps/s
99.9% CPU use with 1 MPI tasks x no OpenMP threads

MPI task timing breakdown:
Section |  min time  |  avg time  |  max time  |%varavg| %total
---------------------------------------------------------------
Pair    | 37.663     | 37.663     | 37.663     |   0.0 | 52.46
Neigh   | 32.555     | 32.555     | 32.555     |   0.0 | 45.35
Comm    | 0.54632    | 0.54632    | 0.54632    |   0.0 |  0.76
Output  | 0.067871   | 0.067871   | 0.067871   |   0.0 |  0.09
Modify  | 0.75644    | 0.75644    | 0.75644    |   0.0 |  1.05
Other   |            | 0.1986     |            |       |  0.28

Nlocal:    19652 ave 19652 max 19652 min
Histogram: 1 0 0 0 0 0 0 0 0 0
Nghost:    16431 ave 16431 max 16431 min
Histogram: 1 0 0 0 0 0 0 0 0 0
Neighs:    1.12972e+06 ave 1.12972e+06 max 1.12972e+06 min
Histogram: 1 0 0 0 0 0 0 0 0 0

Total # of neighbors = 1129715
Ave neighs/atom = 57.486
Neighbor list builds = 495
Dangerous builds not checked
Setting up Verlet run ...
  Unit style    : metal
  Current step  : 87164
  Time step     : 0.001
Per MPI rank memory allocation (min/avg/max) = 18.21 | 18.21 | 18.21 Mbytes
Step Temp Press TotEng PotEng Enthalpy 
   87164     2062.438   -366.06143   -53699.966   -58938.747   -53799.836 
   93336    2055.7966   -102.00811   -53799.006   -59020.917   -53826.755 
Loop time of 962.678 on 1 procs for 6172 steps with 19652 atoms

Performance: 0.554 ns/day, 43.326 hours/ns, 6.411 timesteps/s
99.9% CPU use with 1 MPI tasks x no OpenMP threads

MPI task timing breakdown:
Section |  min time  |  avg time  |  max time  |%varavg| %total
---------------------------------------------------------------
Pair    | 506.73     | 506.73     | 506.73     |   0.0 | 52.64
Neigh   | 436.43     | 436.43     | 436.43     |   0.0 | 45.34
Comm    | 7.2552     | 7.2552     | 7.2552     |   0.0 |  0.75
Output  | 0.00023198 | 0.00023198 | 0.00023198 |   0.0 |  0.00
Modify  | 9.762      | 9.762      | 9.762      |   0.0 |  1.01
Other   |            | 2.496      |            |       |  0.26

Nlocal:    19652 ave 19652 max 19652 min
Histogram: 1 0 0 0 0 0 0 0 0 0
Nghost:    16368 ave 16368 max 16368 min
Histogram: 1 0 0 0 0 0 0 0 0 0
Neighs:    1.13322e+06 ave 1.13322e+06 max 1.13322e+06 min
Histogram: 1 0 0 0 0 0 0 0 0 0

Total # of neighbors = 1133220
Ave neighs/atom = 57.6644
Neighbor list builds = 6172
Dangerous builds not checked
Setting up Verlet run ...
  Unit style    : metal
  Current step  : 93336
  Time step     : 0.001
Per MPI rank memory allocation (min/avg/max) = 18.21 | 18.21 | 18.21 Mbytes
Step Temp Press TotEng PotEng Enthalpy 
   93336    2055.7966   -102.00811   -53799.006   -59020.917   -53826.755 
   93338    2055.3462   -76.729072   -53799.014   -59019.781   -53819.887 
   93831    2008.0874    879.95077   -54006.374   -59107.098   -53768.268 
Loop time of 72.2663 on 1 procs for 495 steps with 19652 atoms

Performance: 0.592 ns/day, 40.553 hours/ns, 6.850 timesteps/s
99.6% CPU use with 1 MPI tasks x no OpenMP threads

MPI task timing breakdown:
Section |  min time  |  avg time  |  max time  |%varavg| %total
---------------------------------------------------------------
Pair    | 37.708     | 37.708     | 37.708     |   0.0 | 52.18
Neigh   | 33.006     | 33.006     | 33.006     |   0.0 | 45.67
Comm    | 0.54282    | 0.54282    | 0.54282    |   0.0 |  0.75
Output  | 0.067114   | 0.067114   | 0.067114   |   0.0 |  0.09
Modify  | 0.74625    | 0.74625    | 0.74625    |   0.0 |  1.03
Other   |            | 0.196      |            |       |  0.27

Nlocal:    19652 ave 19652 max 19652 min
Histogram: 1 0 0 0 0 0 0 0 0 0
Nghost:    16486 ave 16486 max 16486 min
Histogram: 1 0 0 0 0 0 0 0 0 0
Neighs:    1.13972e+06 ave 1.13972e+06 max 1.13972e+06 min
Histogram: 1 0 0 0 0 0 0 0 0 0

Total # of neighbors = 1139716
Ave neighs/atom = 57.9949
Neighbor list builds = 495
Dangerous builds not checked
Setting up Verlet run ...
  Unit style    : metal
  Current step  : 93831
  Time step     : 0.001
Per MPI rank memory allocation (min/avg/max) = 18.21 | 18.21 | 18.21 Mbytes
Step Temp Press TotEng PotEng Enthalpy 
   93831    2008.0874    879.95077   -54006.374   -59107.098   -53768.268 
  100003     2019.945    656.34563   -53984.569   -59115.414   -53807.111 
Loop time of 929.276 on 1 procs for 6172 steps with 19652 atoms

Performance: 0.574 ns/day, 41.823 hours/ns, 6.642 timesteps/s
99.8% CPU use with 1 MPI tasks x no OpenMP threads

MPI task timing breakdown:
Section |  min time  |  avg time  |  max time  |%varavg| %total
---------------------------------------------------------------
Pair    | 486.36     | 486.36     | 486.36     |   0.0 | 52.34
Neigh   | 423.83     | 423.83     | 423.83     |   0.0 | 45.61
Comm    | 7.0778     | 7.0778     | 7.0778     |   0.0 |  0.76
Output  | 0.00026202 | 0.00026202 | 0.00026202 |   0.0 |  0.00
Modify  | 9.5278     | 9.5278     | 9.5278     |   0.0 |  1.03
Other   |            | 2.486      |            |       |  0.27

Nlocal:    19652 ave 19652 max 19652 min
Histogram: 1 0 0 0 0 0 0 0 0 0
Nghost:    16495 ave 16495 max 16495 min
Histogram: 1 0 0 0 0 0 0 0 0 0
Neighs:    1.14009e+06 ave 1.14009e+06 max 1.14009e+06 min
Histogram: 1 0 0 0 0 0 0 0 0 0

Total # of neighbors = 1140088
Ave neighs/atom = 58.0138
Neighbor list builds = 6172
Dangerous builds not checked
Setting up Verlet run ...
  Unit style    : metal
  Current step  : 100003
  Time step     : 0.001
Per MPI rank memory allocation (min/avg/max) = 18.21 | 18.21 | 18.21 Mbytes
Step Temp Press TotEng PotEng Enthalpy 
  100003     2019.945    656.34563   -53984.569   -59115.414   -53807.111 
  100005    2020.1439     624.9423   -53984.587   -59115.936   -53815.619 
  100498    1976.0228    9.6841378   -54287.188   -59306.466   -54284.584 
Loop time of 75.8604 on 1 procs for 495 steps with 19652 atoms

Performance: 0.564 ns/day, 42.570 hours/ns, 6.525 timesteps/s
100.0% CPU use with 1 MPI tasks x no OpenMP threads

MPI task timing breakdown:
Section |  min time  |  avg time  |  max time  |%varavg| %total
---------------------------------------------------------------
Pair    | 39.173     | 39.173     | 39.173     |   0.0 | 51.64
Neigh   | 35.024     | 35.024     | 35.024     |   0.0 | 46.17
Comm    | 0.57699    | 0.57699    | 0.57699    |   0.0 |  0.76
Output  | 0.065013   | 0.065013   | 0.065013   |   0.0 |  0.09
Modify  | 0.81786    | 0.81786    | 0.81786    |   0.0 |  1.08
Other   |            | 0.2041     |            |       |  0.27

Nlocal:    19652 ave 19652 max 19652 min
Histogram: 1 0 0 0 0 0 0 0 0 0
Nghost:    16372 ave 16372 max 16372 min
Histogram: 1 0 0 0 0 0 0 0 0 0
Neighs:    1.14693e+06 ave 1.14693e+06 max 1.14693e+06 min
Histogram: 1 0 0 0 0 0 0 0 0 0

Total # of neighbors = 1146930
Ave neighs/atom = 58.362
Neighbor list builds = 495
Dangerous builds not checked
Setting up Verlet run ...
  Unit style    : metal
  Current step  : 100498
  Time step     : 0.001
Per MPI rank memory allocation (min/avg/max) = 18.21 | 18.21 | 18.21 Mbytes
Step Temp Press TotEng PotEng Enthalpy 
  100498    1976.0228    9.6841378   -54287.188   -59306.466   -54284.584 
  106670    1945.4654    612.64162   -54388.477   -59330.136   -54224.127 
Loop time of 951.365 on 1 procs for 6172 steps with 19652 atoms

Performance: 0.561 ns/day, 42.817 hours/ns, 6.488 timesteps/s
99.9% CPU use with 1 MPI tasks x no OpenMP threads

MPI task timing breakdown:
Section |  min time  |  avg time  |  max time  |%varavg| %total
---------------------------------------------------------------
Pair    | 494.34     | 494.34     | 494.34     |   0.0 | 51.96
Neigh   | 437.37     | 437.37     | 437.37     |   0.0 | 45.97
Comm    | 7.1915     | 7.1915     | 7.1915     |   0.0 |  0.76
Output  | 0.00025415 | 0.00025415 | 0.00025415 |   0.0 |  0.00
Modify  | 9.9612     | 9.9612     | 9.9612     |   0.0 |  1.05
Other   |            | 2.501      |            |       |  0.26

Nlocal:    19652 ave 19652 max 19652 min
Histogram: 1 0 0 0 0 0 0 0 0 0
Nghost:    16498 ave 16498 max 16498 min
Histogram: 1 0 0 0 0 0 0 0 0 0
Neighs:    1.14924e+06 ave 1.14924e+06 max 1.14924e+06 min
Histogram: 1 0 0 0 0 0 0 0 0 0

Total # of neighbors = 1149239
Ave neighs/atom = 58.4795
Neighbor list builds = 6172
Dangerous builds not checked
Setting up Verlet run ...
  Unit style    : metal
  Current step  : 106670
  Time step     : 0.001
Per MPI rank memory allocation (min/avg/max) = 18.21 | 18.21 | 18.21 Mbytes
Step Temp Press TotEng PotEng Enthalpy 
  106670    1945.4654    612.64162   -54388.477   -59330.136   -54224.127 
  106672    1944.0056     642.2475   -54388.467   -59326.418   -54216.174 
  107165     1926.926   -220.72248   -54551.814   -59446.382   -54610.833 
Loop time of 68.475 on 1 procs for 495 steps with 19652 atoms

Performance: 0.625 ns/day, 38.426 hours/ns, 7.229 timesteps/s
99.9% CPU use with 1 MPI tasks x no OpenMP threads

MPI task timing breakdown:
Section |  min time  |  avg time  |  max time  |%varavg| %total
---------------------------------------------------------------
Pair    | 35.931     | 35.931     | 35.931     |   0.0 | 52.47
Neigh   | 31.075     | 31.075     | 31.075     |   0.0 | 45.38
Comm    | 0.51369    | 0.51369    | 0.51369    |   0.0 |  0.75
Output  | 0.063681   | 0.063681   | 0.063681   |   0.0 |  0.09
Modify  | 0.69858    | 0.69858    | 0.69858    |   0.0 |  1.02
Other   |            | 0.1924     |            |       |  0.28

Nlocal:    19652 ave 19652 max 19652 min
Histogram: 1 0 0 0 0 0 0 0 0 0
Nghost:    16480 ave 16480 max 16480 min
Histogram: 1 0 0 0 0 0 0 0 0 0
Neighs:    1.1533e+06 ave 1.1533e+06 max 1.1533e+06 min
Histogram: 1 0 0 0 0 0 0 0 0 0

Total # of neighbors = 1153299
Ave neighs/atom = 58.6861
Neighbor list builds = 495
Dangerous builds not checked
Setting up Verlet run ...
  Unit style    : metal
  Current step  : 107165
  Time step     : 0.001
Per MPI rank memory allocation (min/avg/max) = 18.21 | 18.21 | 18.21 Mbytes
Step Temp Press TotEng PotEng Enthalpy 
  107165     1926.926   -220.72248   -54551.814   -59446.382   -54610.833 
  113337    1916.8357    662.80314    -54584.05   -59452.988   -54407.133 
Loop time of 934.516 on 1 procs for 6172 steps with 19652 atoms

Performance: 0.571 ns/day, 42.059 hours/ns, 6.604 timesteps/s
99.8% CPU use with 1 MPI tasks x no OpenMP threads

MPI task timing breakdown:
Section |  min time  |  avg time  |  max time  |%varavg| %total
---------------------------------------------------------------
Pair    | 488.52     | 488.52     | 488.52     |   0.0 | 52.28
Neigh   | 426.78     | 426.78     | 426.78     |   0.0 | 45.67
Comm    | 7.0544     | 7.0544     | 7.0544     |   0.0 |  0.75
Output  | 0.00026417 | 0.00026417 | 0.00026417 |   0.0 |  0.00
Modify  | 9.6621     | 9.6621     | 9.6621     |   0.0 |  1.03
Other   |            | 2.494      |            |       |  0.27

Nlocal:    19652 ave 19652 max 19652 min
Histogram: 1 0 0 0 0 0 0 0 0 0
Nghost:    16551 ave 16551 max 16551 min
Histogram: 1 0 0 0 0 0 0 0 0 0
Neighs:    1.15485e+06 ave 1.15485e+06 max 1.15485e+06 min
Histogram: 1 0 0 0 0 0 0 0 0 0

Total # of neighbors = 1154849
Ave neighs/atom = 58.765
Neighbor list builds = 6172
Dangerous builds not checked
Setting up Verlet run ...
  Unit style    : metal
  Current step  : 113337
  Time step     : 0.001
Per MPI rank memory allocation (min/avg/max) = 18.21 | 18.21 | 18.21 Mbytes
Step Temp Press TotEng PotEng Enthalpy 
  113337    1916.8357    662.80314    -54584.05   -59452.988   -54407.133 
  113339    1918.7871      639.144   -54584.076    -59457.97   -54413.474 
  113832    1871.1089    72.390623   -54850.634   -59603.421   -54831.404 
Loop time of 73.0087 on 1 procs for 495 steps with 19652 atoms

Performance: 0.586 ns/day, 40.970 hours/ns, 6.780 timesteps/s
99.9% CPU use with 1 MPI tasks x no OpenMP threads

MPI task timing breakdown:
Section |  min time  |  avg time  |  max time  |%varavg| %total
---------------------------------------------------------------
Pair    | 38.019     | 38.019     | 38.019     |   0.0 | 52.08
Neigh   | 33.434     | 33.434     | 33.434     |   0.0 | 45.79
Comm    | 0.54263    | 0.54263    | 0.54263    |   0.0 |  0.74
Output  | 0.064323   | 0.064323   | 0.064323   |   0.0 |  0.09
Modify  | 0.75314    | 0.75314    | 0.75314    |   0.0 |  1.03
Other   |            | 0.1957     |            |       |  0.27

Nlocal:    19652 ave 19652 max 19652 min
Histogram: 1 0 0 0 0 0 0 0 0 0
Nghost:    16576 ave 16576 max 16576 min
Histogram: 1 0 0 0 0 0 0 0 0 0
Neighs:    1.16127e+06 ave 1.16127e+06 max 1.16127e+06 min
Histogram: 1 0 0 0 0 0 0 0 0 0

Total # of neighbors = 1161270
Ave neighs/atom = 59.0917
Neighbor list builds = 495
Dangerous builds not checked
Setting up Verlet run ...
  Unit style    : metal
  Current step  : 113832
  Time step     : 0.001
Per MPI rank memory allocation (min/avg/max) = 18.21 | 18.21 | 18.21 Mbytes
Step Temp Press TotEng PotEng Enthalpy 
  113832    1871.1089    72.390623   -54850.634   -59603.421   -54831.404 
  120004    1856.9037   -681.30385   -54932.922   -59649.626   -55113.816 
Loop time of 932.017 on 1 procs for 6172 steps with 19652 atoms

Performance: 0.572 ns/day, 41.946 hours/ns, 6.622 timesteps/s
99.9% CPU use with 1 MPI tasks x no OpenMP threads

MPI task timing breakdown:
Section |  min time  |  avg time  |  max time  |%varavg| %total
---------------------------------------------------------------
Pair    | 487.07     | 487.07     | 487.07     |   0.0 | 52.26
Neigh   | 425.78     | 425.78     | 425.78     |   0.0 | 45.68
Comm    | 7.0423     | 7.0423     | 7.0423     |   0.0 |  0.76
Output  | 0.00025702 | 0.00025702 | 0.00025702 |   0.0 |  0.00
Modify  | 9.6523     | 9.6523     | 9.6523     |   0.0 |  1.04
Other   |            | 2.479      |            |       |  0.27

Nlocal:    19652 ave 19652 max 19652 min
Histogram: 1 0 0 0 0 0 0 0 0 0
Nghost:    16568 ave 16568 max 16568 min
Histogram: 1 0 0 0 0 0 0 0 0 0
Neighs:    1.16176e+06 ave 1.16176e+06 max 1.16176e+06 min
Histogram: 1 0 0 0 0 0 0 0 0 0

Total # of neighbors = 1161759
Ave neighs/atom = 59.1166
Neighbor list builds = 6172
Dangerous builds not checked
Setting up Verlet run ...
  Unit style    : metal
  Current step  : 120004
  Time step     : 0.001
Per MPI rank memory allocation (min/avg/max) = 18.21 | 18.21 | 18.21 Mbytes
Step Temp Press TotEng PotEng Enthalpy 
  120004    1856.9037   -681.30385   -54932.922   -59649.626   -55113.816 
  120006    1855.9776   -690.85885   -54932.926   -59647.279   -55116.357 
  120499    1799.8794     348.3358   -55148.306   -59720.163   -55056.365 
Loop time of 71.9966 on 1 procs for 495 steps with 19652 atoms

Performance: 0.594 ns/day, 40.402 hours/ns, 6.875 timesteps/s
100.0% CPU use with 1 MPI tasks x no OpenMP threads

MPI task timing breakdown:
Section |  min time  |  avg time  |  max time  |%varavg| %total
---------------------------------------------------------------
Pair    | 37.54      | 37.54      | 37.54      |   0.0 | 52.14
Neigh   | 32.886     | 32.886     | 32.886     |   0.0 | 45.68
Comm    | 0.54787    | 0.54787    | 0.54787    |   0.0 |  0.76
Output  | 0.063035   | 0.063035   | 0.063035   |   0.0 |  0.09
Modify  | 0.76482    | 0.76482    | 0.76482    |   0.0 |  1.06
Other   |            | 0.1955     |            |       |  0.27

Nlocal:    19652 ave 19652 max 19652 min
Histogram: 1 0 0 0 0 0 0 0 0 0
Nghost:    16572 ave 16572 max 16572 min
Histogram: 1 0 0 0 0 0 0 0 0 0
Neighs:    1.16858e+06 ave 1.16858e+06 max 1.16858e+06 min
Histogram: 1 0 0 0 0 0 0 0 0 0

Total # of neighbors = 1168579
Ave neighs/atom = 59.4636
Neighbor list builds = 495
Dangerous builds not checked
Setting up Verlet run ...
  Unit style    : metal
  Current step  : 120499
  Time step     : 0.001
Per MPI rank memory allocation (min/avg/max) = 18.21 | 18.21 | 18.21 Mbytes
Step Temp Press TotEng PotEng Enthalpy 
  120499    1799.8794     348.3358   -55148.306   -59720.163   -55056.365 
  126671    1802.7694    687.36739   -55218.465   -59797.663   -55037.487 
Loop time of 936.528 on 1 procs for 6172 steps with 19652 atoms

Performance: 0.569 ns/day, 42.150 hours/ns, 6.590 timesteps/s
99.9% CPU use with 1 MPI tasks x no OpenMP threads

MPI task timing breakdown:
Section |  min time  |  avg time  |  max time  |%varavg| %total
---------------------------------------------------------------
Pair    | 491.7      | 491.7      | 491.7      |   0.0 | 52.50
Neigh   | 425.71     | 425.71     | 425.71     |   0.0 | 45.46
Comm    | 7.0032     | 7.0032     | 7.0032     |   0.0 |  0.75
Output  | 0.00022388 | 0.00022388 | 0.00022388 |   0.0 |  0.00
Modify  | 9.6405     | 9.6405     | 9.6405     |   0.0 |  1.03
Other   |            | 2.475      |            |       |  0.26

Nlocal:    19652 ave 19652 max 19652 min
Histogram: 1 0 0 0 0 0 0 0 0 0
Nghost:    16573 ave 16573 max 16573 min
Histogram: 1 0 0 0 0 0 0 0 0 0
Neighs:    1.17134e+06 ave 1.17134e+06 max 1.17134e+06 min
Histogram: 1 0 0 0 0 0 0 0 0 0

Total # of neighbors = 1171339
Ave neighs/atom = 59.6041
Neighbor list builds = 6172
Dangerous builds not checked
Setting up Verlet run ...
  Unit style    : metal
  Current step  : 126671
  Time step     : 0.001
Per MPI rank memory allocation (min/avg/max) = 18.21 | 18.21 | 18.21 Mbytes
Step Temp Press TotEng PotEng Enthalpy 
  126671    1802.7694    687.36739   -55218.465   -59797.663   -55037.487 
  126673    1803.5542    662.85945   -55218.472   -59799.664   -55043.947 
  127166    1761.4409    481.65959    -55441.73    -59915.95   -55315.544 
Loop time of 63.1544 on 1 procs for 495 steps with 19652 atoms

Performance: 0.677 ns/day, 35.440 hours/ns, 7.838 timesteps/s
99.9% CPU use with 1 MPI tasks x no OpenMP threads

MPI task timing breakdown:
Section |  min time  |  avg time  |  max time  |%varavg| %total
---------------------------------------------------------------
Pair    | 33.137     | 33.137     | 33.137     |   0.0 | 52.47
Neigh   | 28.644     | 28.644     | 28.644     |   0.0 | 45.36
Comm    | 0.488      | 0.488      | 0.488      |   0.0 |  0.77
Output  | 0.052335   | 0.052335   | 0.052335   |   0.0 |  0.08
Modify  | 0.65596    | 0.65596    | 0.65596    |   0.0 |  1.04
Other   |            | 0.1769     |            |       |  0.28

Nlocal:    19652 ave 19652 max 19652 min
Histogram: 1 0 0 0 0 0 0 0 0 0
Nghost:    16667 ave 16667 max 16667 min
Histogram: 1 0 0 0 0 0 0 0 0 0
Neighs:    1.17759e+06 ave 1.17759e+06 max 1.17759e+06 min
Histogram: 1 0 0 0 0 0 0 0 0 0

Total # of neighbors = 1177589
Ave neighs/atom = 59.9221
Neighbor list builds = 495
Dangerous builds not checked
Setting up Verlet run ...
  Unit style    : metal
  Current step  : 127166
  Time step     : 0.001
Per MPI rank memory allocation (min/avg/max) = 18.21 | 18.21 | 18.21 Mbytes
Step Temp Press TotEng PotEng Enthalpy 
  127166    1761.4409    481.65959    -55441.73    -59915.95   -55315.544 
  133338    1740.4984    809.09102   -55539.832   -59960.857   -55328.335 
Loop time of 804.299 on 1 procs for 6172 steps with 19652 atoms

Performance: 0.663 ns/day, 36.198 hours/ns, 7.674 timesteps/s
100.0% CPU use with 1 MPI tasks x no OpenMP threads

MPI task timing breakdown:
Section |  min time  |  avg time  |  max time  |%varavg| %total
---------------------------------------------------------------
Pair    | 417.41     | 417.41     | 417.41     |   0.0 | 51.90
Neigh   | 370.52     | 370.52     | 370.52     |   0.0 | 46.07
Comm    | 6.0347     | 6.0347     | 6.0347     |   0.0 |  0.75
Output  | 0.00023389 | 0.00023389 | 0.00023389 |   0.0 |  0.00
Modify  | 8.1776     | 8.1776     | 8.1776     |   0.0 |  1.02
Other   |            | 2.159      |            |       |  0.27

Nlocal:    19652 ave 19652 max 19652 min
Histogram: 1 0 0 0 0 0 0 0 0 0
Nghost:    16674 ave 16674 max 16674 min
Histogram: 1 0 0 0 0 0 0 0 0 0
Neighs:    1.18004e+06 ave 1.18004e+06 max 1.18004e+06 min
Histogram: 1 0 0 0 0 0 0 0 0 0

Total # of neighbors = 1180042
Ave neighs/atom = 60.0469
Neighbor list builds = 6172
Dangerous builds not checked
Setting up Verlet run ...
  Unit style    : metal
  Current step  : 133338
  Time step     : 0.001
Per MPI rank memory allocation (min/avg/max) = 18.21 | 18.21 | 18.21 Mbytes
Step Temp Press TotEng PotEng Enthalpy 
  133338    1740.4984    809.09102   -55539.832   -59960.857   -55328.335 
  133340    1741.1902    787.03515   -55539.824   -59962.606   -55334.092 
  133833    1727.8871     -119.267   -55707.156   -60096.146   -55738.236 
Loop time of 57.7735 on 1 procs for 495 steps with 19652 atoms

Performance: 0.740 ns/day, 32.421 hours/ns, 8.568 timesteps/s
100.0% CPU use with 1 MPI tasks x no OpenMP threads

MPI task timing breakdown:
Section |  min time  |  avg time  |  max time  |%varavg| %total
---------------------------------------------------------------
Pair    | 29.64      | 29.64      | 29.64      |   0.0 | 51.30
Neigh   | 26.914     | 26.914     | 26.914     |   0.0 | 46.59
Comm    | 0.42974    | 0.42974    | 0.42974    |   0.0 |  0.74
Output  | 0.051244   | 0.051244   | 0.051244   |   0.0 |  0.09
Modify  | 0.58403    | 0.58403    | 0.58403    |   0.0 |  1.01
Other   |            | 0.1545     |            |       |  0.27

Nlocal:    19652 ave 19652 max 19652 min
Histogram: 1 0 0 0 0 0 0 0 0 0
Nghost:    16669 ave 16669 max 16669 min
Histogram: 1 0 0 0 0 0 0 0 0 0
Neighs:    1.1841e+06 ave 1.1841e+06 max 1.1841e+06 min
Histogram: 1 0 0 0 0 0 0 0 0 0

Total # of neighbors = 1184098
Ave neighs/atom = 60.2533
Neighbor list builds = 495
Dangerous builds not checked
Setting up Verlet run ...
  Unit style    : metal
  Current step  : 133833
  Time step     : 0.001
Per MPI rank memory allocation (min/avg/max) = 18.21 | 18.21 | 18.21 Mbytes
Step Temp Press TotEng PotEng Enthalpy 
  133833    1727.8871     -119.267   -55707.156   -60096.146   -55738.236 
  140005     1703.859   -220.35541   -55787.756   -60115.713   -55845.127 
Loop time of 779.845 on 1 procs for 6172 steps with 19652 atoms

Performance: 0.684 ns/day, 35.098 hours/ns, 7.914 timesteps/s
100.0% CPU use with 1 MPI tasks x no OpenMP threads

MPI task timing breakdown:
Section |  min time  |  avg time  |  max time  |%varavg| %total
---------------------------------------------------------------
Pair    | 405.86     | 405.86     | 405.86     |   0.0 | 52.04
Neigh   | 358.23     | 358.23     | 358.23     |   0.0 | 45.94
Comm    | 5.8333     | 5.8333     | 5.8333     |   0.0 |  0.75
Output  | 0.00022697 | 0.00022697 | 0.00022697 |   0.0 |  0.00
Modify  | 7.8501     | 7.8501     | 7.8501     |   0.0 |  1.01
Other   |            | 2.068      |            |       |  0.27

Nlocal:    19652 ave 19652 max 19652 min
Histogram: 1 0 0 0 0 0 0 0 0 0
Nghost:    16686 ave 16686 max 16686 min
Histogram: 1 0 0 0 0 0 0 0 0 0
Neighs:    1.18513e+06 ave 1.18513e+06 max 1.18513e+06 min
Histogram: 1 0 0 0 0 0 0 0 0 0

Total # of neighbors = 1185132
Ave neighs/atom = 60.3059
Neighbor list builds = 6172
Dangerous builds not checked
Setting up Verlet run ...
  Unit style    : metal
  Current step  : 140005
  Time step     : 0.001
Per MPI rank memory allocation (min/avg/max) = 18.21 | 18.21 | 18.21 Mbytes
Step Temp Press TotEng PotEng Enthalpy 
  140005     1703.859   -220.35541   -55787.756   -60115.713   -55845.127 
  140007     1704.396    -250.7608   -55787.754   -60117.075   -55853.041 
  140500    1662.9322     198.4235   -56003.292   -60227.292   -55951.882 
Loop time of 65.9506 on 1 procs for 495 steps with 19652 atoms

Performance: 0.648 ns/day, 37.009 hours/ns, 7.506 timesteps/s
99.9% CPU use with 1 MPI tasks x no OpenMP threads

MPI task timing breakdown:
Section |  min time  |  avg time  |  max time  |%varavg| %total
---------------------------------------------------------------
Pair    | 34.462     | 34.462     | 34.462     |   0.0 | 52.25
Neigh   | 30.093     | 30.093     | 30.093     |   0.0 | 45.63
Comm    | 0.49246    | 0.49246    | 0.49246    |   0.0 |  0.75
Output  | 0.054243   | 0.054243   | 0.054243   |   0.0 |  0.08
Modify  | 0.67201    | 0.67201    | 0.67201    |   0.0 |  1.02
Other   |            | 0.1769     |            |       |  0.27

Nlocal:    19652 ave 19652 max 19652 min
Histogram: 1 0 0 0 0 0 0 0 0 0
Nghost:    16686 ave 16686 max 16686 min
Histogram: 1 0 0 0 0 0 0 0 0 0
Neighs:    1.19068e+06 ave 1.19068e+06 max 1.19068e+06 min
Histogram: 1 0 0 0 0 0 0 0 0 0

Total # of neighbors = 1190684
Ave neighs/atom = 60.5884
Neighbor list builds = 495
Dangerous builds not checked
Setting up Verlet run ...
  Unit style    : metal
  Current step  : 140500
  Time step     : 0.001
Per MPI rank memory allocation (min/avg/max) = 18.21 | 18.21 | 18.21 Mbytes
Step Temp Press TotEng PotEng Enthalpy 
  140500    1662.9322     198.4235   -56003.292   -60227.292   -55951.882 
  146672    1636.6029    492.89402    -56122.99    -60280.11   -55995.691 
Loop time of 786.34 on 1 procs for 6172 steps with 19652 atoms

Performance: 0.678 ns/day, 35.390 hours/ns, 7.849 timesteps/s
100.0% CPU use with 1 MPI tasks x no OpenMP threads

MPI task timing breakdown:
Section |  min time  |  avg time  |  max time  |%varavg| %total
---------------------------------------------------------------
Pair    | 409.12     | 409.12     | 409.12     |   0.0 | 52.03
Neigh   | 361.32     | 361.32     | 361.32     |   0.0 | 45.95
Comm    | 5.8752     | 5.8752     | 5.8752     |   0.0 |  0.75
Output  | 0.00028706 | 0.00028706 | 0.00028706 |   0.0 |  0.00
Modify  | 7.9376     | 7.9376     | 7.9376     |   0.0 |  1.01
Other   |            | 2.092      |            |       |  0.27

Nlocal:    19652 ave 19652 max 19652 min
Histogram: 1 0 0 0 0 0 0 0 0 0
Nghost:    16796 ave 16796 max 16796 min
Histogram: 1 0 0 0 0 0 0 0 0 0
Neighs:    1.19538e+06 ave 1.19538e+06 max 1.19538e+06 min
Histogram: 1 0 0 0 0 0 0 0 0 0

Total # of neighbors = 1195375
Ave neighs/atom = 60.8271
Neighbor list builds = 6172
Dangerous builds not checked
Setting up Verlet run ...
  Unit style    : metal
  Current step  : 146672
  Time step     : 0.001
Per MPI rank memory allocation (min/avg/max) = 18.21 | 18.21 | 18.21 Mbytes
Step Temp Press TotEng PotEng Enthalpy 
  146672    1636.6029    492.89402    -56122.99    -60280.11   -55995.691 
  146674    1635.6751    524.43244   -56122.973   -60277.737   -55987.529 
  147167    1614.1273    425.43806   -56290.673   -60390.704   -56181.252 
Loop time of 69.842 on 1 procs for 495 steps with 19652 atoms

Performance: 0.612 ns/day, 39.193 hours/ns, 7.087 timesteps/s
99.9% CPU use with 1 MPI tasks x no OpenMP threads

MPI task timing breakdown:
Section |  min time  |  avg time  |  max time  |%varavg| %total
---------------------------------------------------------------
Pair    | 36.614     | 36.614     | 36.614     |   0.0 | 52.42
Neigh   | 31.692     | 31.692     | 31.692     |   0.0 | 45.38
Comm    | 0.5283     | 0.5283     | 0.5283     |   0.0 |  0.76
Output  | 0.065369   | 0.065369   | 0.065369   |   0.0 |  0.09
Modify  | 0.74662    | 0.74662    | 0.74662    |   0.0 |  1.07
Other   |            | 0.196      |            |       |  0.28

Nlocal:    19652 ave 19652 max 19652 min
Histogram: 1 0 0 0 0 0 0 0 0 0
Nghost:    16769 ave 16769 max 16769 min
Histogram: 1 0 0 0 0 0 0 0 0 0
Neighs:    1.20048e+06 ave 1.20048e+06 max 1.20048e+06 min
Histogram: 1 0 0 0 0 0 0 0 0 0

Total # of neighbors = 1200478
Ave neighs/atom = 61.0868
Neighbor list builds = 495
Dangerous builds not checked
Setting up Verlet run ...
  Unit style    : metal
  Current step  : 147167
  Time step     : 0.001
Per MPI rank memory allocation (min/avg/max) = 18.21 | 18.21 | 18.21 Mbytes
Step Temp Press TotEng PotEng Enthalpy 
  147167    1614.1273    425.43806   -56290.673   -60390.704   -56181.252 
  153339    1597.5005   -1466.9499   -56392.703     -60450.5   -56770.705 
Loop time of 784.778 on 1 procs for 6172 steps with 19652 atoms

Performance: 0.680 ns/day, 35.320 hours/ns, 7.865 timesteps/s
100.0% CPU use with 1 MPI tasks x no OpenMP threads

MPI task timing breakdown:
Section |  min time  |  avg time  |  max time  |%varavg| %total
---------------------------------------------------------------
Pair    | 408.39     | 408.39     | 408.39     |   0.0 | 52.04
Neigh   | 360.48     | 360.48     | 360.48     |   0.0 | 45.93
Comm    | 5.8681     | 5.8681     | 5.8681     |   0.0 |  0.75
Output  | 0.0001781  | 0.0001781  | 0.0001781  |   0.0 |  0.00
Modify  | 7.9466     | 7.9466     | 7.9466     |   0.0 |  1.01
Other   |            | 2.09       |            |       |  0.27

Nlocal:    19652 ave 19652 max 19652 min
Histogram: 1 0 0 0 0 0 0 0 0 0
Nghost:    16787 ave 16787 max 16787 min
Histogram: 1 0 0 0 0 0 0 0 0 0
Neighs:    1.1981e+06 ave 1.1981e+06 max 1.1981e+06 min
Histogram: 1 0 0 0 0 0 0 0 0 0

Total # of neighbors = 1198095
Ave neighs/atom = 60.9656
Neighbor list builds = 6172
Dangerous builds not checked
Setting up Verlet run ...
  Unit style    : metal
  Current step  : 153339
  Time step     : 0.001
Per MPI rank memory allocation (min/avg/max) = 18.21 | 18.21 | 18.21 Mbytes
Step Temp Press TotEng PotEng Enthalpy 
  153339    1597.5005   -1466.9499   -56392.703     -60450.5   -56770.705 
  153341    1596.3824   -1447.8917   -56392.695   -60447.652   -56765.786 
  153834    1559.3502   -792.71375    -56621.29   -60582.181   -56824.165 
Loop time of 67.6273 on 1 procs for 495 steps with 19652 atoms

Performance: 0.632 ns/day, 37.950 hours/ns, 7.320 timesteps/s
99.9% CPU use with 1 MPI tasks x no OpenMP threads

MPI task timing breakdown:
Section |  min time  |  avg time  |  max time  |%varavg| %total
---------------------------------------------------------------
Pair    | 35.347     | 35.347     | 35.347     |   0.0 | 52.27
Neigh   | 30.85      | 30.85      | 30.85      |   0.0 | 45.62
Comm    | 0.50096    | 0.50096    | 0.50096    |   0.0 |  0.74
Output  | 0.050012   | 0.050012   | 0.050012   |   0.0 |  0.07
Modify  | 0.69571    | 0.69571    | 0.69571    |   0.0 |  1.03
Other   |            | 0.1835     |            |       |  0.27

Nlocal:    19652 ave 19652 max 19652 min
Histogram: 1 0 0 0 0 0 0 0 0 0
Nghost:    16807 ave 16807 max 16807 min
Histogram: 1 0 0 0 0 0 0 0 0 0
Neighs:    1.20665e+06 ave 1.20665e+06 max 1.20665e+06 min
Histogram: 1 0 0 0 0 0 0 0 0 0

Total # of neighbors = 1206651
Ave neighs/atom = 61.4009
Neighbor list builds = 495
Dangerous builds not checked
Setting up Verlet run ...
  Unit style    : metal
  Current step  : 153834
  Time step     : 0.001
Per MPI rank memory allocation (min/avg/max) = 18.21 | 18.21 | 18.21 Mbytes
Step Temp Press TotEng PotEng Enthalpy 
  153834    1559.3502   -792.71375    -56621.29   -60582.181   -56824.165 
  160006    1562.7265     -436.447   -56680.532       -60650   -56791.935 
Loop time of 778.425 on 1 procs for 6172 steps with 19652 atoms

Performance: 0.685 ns/day, 35.034 hours/ns, 7.929 timesteps/s
100.0% CPU use with 1 MPI tasks x no OpenMP threads

MPI task timing breakdown:
Section |  min time  |  avg time  |  max time  |%varavg| %total
---------------------------------------------------------------
Pair    | 405.9      | 405.9      | 405.9      |   0.0 | 52.14
Neigh   | 356.84     | 356.84     | 356.84     |   0.0 | 45.84
Comm    | 5.8133     | 5.8133     | 5.8133     |   0.0 |  0.75
Output  | 0.0002749  | 0.0002749  | 0.0002749  |   0.0 |  0.00
Modify  | 7.8098     | 7.8098     | 7.8098     |   0.0 |  1.00
Other   |            | 2.058      |            |       |  0.26

Nlocal:    19652 ave 19652 max 19652 min
Histogram: 1 0 0 0 0 0 0 0 0 0
Nghost:    16861 ave 16861 max 16861 min
Histogram: 1 0 0 0 0 0 0 0 0 0
Neighs:    1.20947e+06 ave 1.20947e+06 max 1.20947e+06 min
Histogram: 1 0 0 0 0 0 0 0 0 0

Total # of neighbors = 1209474
Ave neighs/atom = 61.5446
Neighbor list builds = 6172
Dangerous builds not checked
Setting up Verlet run ...
  Unit style    : metal
  Current step  : 160006
  Time step     : 0.001
Per MPI rank memory allocation (min/avg/max) = 18.21 | 18.21 | 18.21 Mbytes
Step Temp Press TotEng PotEng Enthalpy 
  160006    1562.7265     -436.447   -56680.532       -60650   -56791.935 
  160008     1561.559   -396.67104   -56680.547   -60647.049   -56781.797 
  160501    1510.6235    304.84367   -56892.123   -60729.245   -56814.738 
Loop time of 57.9549 on 1 procs for 495 steps with 19652 atoms

Performance: 0.738 ns/day, 32.522 hours/ns, 8.541 timesteps/s
100.0% CPU use with 1 MPI tasks x no OpenMP threads

MPI task timing breakdown:
Section |  min time  |  avg time  |  max time  |%varavg| %total
---------------------------------------------------------------
Pair    | 29.963     | 29.963     | 29.963     |   0.0 | 51.70
Neigh   | 26.767     | 26.767     | 26.767     |   0.0 | 46.19
Comm    | 0.42917    | 0.42917    | 0.42917    |   0.0 |  0.74
Output  | 0.051877   | 0.051877   | 0.051877   |   0.0 |  0.09
Modify  | 0.58771    | 0.58771    | 0.58771    |   0.0 |  1.01
Other   |            | 0.1558     |            |       |  0.27

Nlocal:    19652 ave 19652 max 19652 min
Histogram: 1 0 0 0 0 0 0 0 0 0
Nghost:    16807 ave 16807 max 16807 min
Histogram: 1 0 0 0 0 0 0 0 0 0
Neighs:    1.21682e+06 ave 1.21682e+06 max 1.21682e+06 min
Histogram: 1 0 0 0 0 0 0 0 0 0

Total # of neighbors = 1216822
Ave neighs/atom = 61.9185
Neighbor list builds = 495
Dangerous builds not checked
Setting up Verlet run ...
  Unit style    : metal
  Current step  : 160501
  Time step     : 0.001
Per MPI rank memory allocation (min/avg/max) = 18.21 | 18.21 | 18.21 Mbytes
Step Temp Press TotEng PotEng Enthalpy 
  160501    1510.6235    304.84367   -56892.123   -60729.245   -56814.738 
  166673      1511.22    293.69285   -56981.284   -60819.921   -56906.944 
Loop time of 768.857 on 1 procs for 6172 steps with 19652 atoms

Performance: 0.694 ns/day, 34.603 hours/ns, 8.028 timesteps/s
100.0% CPU use with 1 MPI tasks x no OpenMP threads

MPI task timing breakdown:
Section |  min time  |  avg time  |  max time  |%varavg| %total
---------------------------------------------------------------
Pair    | 400.8      | 400.8      | 400.8      |   0.0 | 52.13
Neigh   | 352.52     | 352.52     | 352.52     |   0.0 | 45.85
Comm    | 5.7473     | 5.7473     | 5.7473     |   0.0 |  0.75
Output  | 0.00026107 | 0.00026107 | 0.00026107 |   0.0 |  0.00
Modify  | 7.7515     | 7.7515     | 7.7515     |   0.0 |  1.01
Other   |            | 2.041      |            |       |  0.27

Nlocal:    19652 ave 19652 max 19652 min
Histogram: 1 0 0 0 0 0 0 0 0 0
Nghost:    16879 ave 16879 max 16879 min
Histogram: 1 0 0 0 0 0 0 0 0 0
Neighs:    1.21991e+06 ave 1.21991e+06 max 1.21991e+06 min
Histogram: 1 0 0 0 0 0 0 0 0 0

Total # of neighbors = 1219909
Ave neighs/atom = 62.0756
Neighbor list builds = 6172
Dangerous builds not checked
Setting up Verlet run ...
  Unit style    : metal
  Current step  : 166673
  Time step     : 0.001
Per MPI rank memory allocation (min/avg/max) = 18.21 | 18.21 | 18.21 Mbytes
Step Temp Press TotEng PotEng Enthalpy 
  166673      1511.22    293.69285   -56981.284   -60819.921   -56906.944 
  166675     1511.187    315.69417   -56981.298   -60819.851   -56901.389 
  167168    1468.1474     442.4789   -57167.369   -60896.597   -57055.757 
Loop time of 64.3439 on 1 procs for 495 steps with 19652 atoms

Performance: 0.665 ns/day, 36.108 hours/ns, 7.693 timesteps/s
99.8% CPU use with 1 MPI tasks x no OpenMP threads

MPI task timing breakdown:
Section |  min time  |  avg time  |  max time  |%varavg| %total
---------------------------------------------------------------
Pair    | 34.116     | 34.116     | 34.116     |   0.0 | 53.02
Neigh   | 28.816     | 28.816     | 28.816     |   0.0 | 44.78
Comm    | 0.49339    | 0.49339    | 0.49339    |   0.0 |  0.77
Output  | 0.071624   | 0.071624   | 0.071624   |   0.0 |  0.11
Modify  | 0.67176    | 0.67176    | 0.67176    |   0.0 |  1.04
Other   |            | 0.1754     |            |       |  0.27

Nlocal:    19652 ave 19652 max 19652 min
Histogram: 1 0 0 0 0 0 0 0 0 0
Nghost:    16969 ave 16969 max 16969 min
Histogram: 1 0 0 0 0 0 0 0 0 0
Neighs:    1.22422e+06 ave 1.22422e+06 max 1.22422e+06 min
Histogram: 1 0 0 0 0 0 0 0 0 0

Total # of neighbors = 1224224
Ave neighs/atom = 62.2951
Neighbor list builds = 495
Dangerous builds not checked
Setting up Verlet run ...
  Unit style    : metal
  Current step  : 167168
  Time step     : 0.001
Per MPI rank memory allocation (min/avg/max) = 18.21 | 18.21 | 18.21 Mbytes
Step Temp Press TotEng PotEng Enthalpy 
  167168    1468.1474     442.4789   -57167.369   -60896.597   -57055.757 
  173340    1459.4059   -405.65339   -57260.944   -60967.968   -57363.242 
Loop time of 762.078 on 1 procs for 6172 steps with 19652 atoms

Performance: 0.700 ns/day, 34.298 hours/ns, 8.099 timesteps/s
99.9% CPU use with 1 MPI tasks x no OpenMP threads

MPI task timing breakdown:
Section |  min time  |  avg time  |  max time  |%varavg| %total
---------------------------------------------------------------
Pair    | 399.22     | 399.22     | 399.22     |   0.0 | 52.39
Neigh   | 347.62     | 347.62     | 347.62     |   0.0 | 45.62
Comm    | 5.6566     | 5.6566     | 5.6566     |   0.0 |  0.74
Output  | 0.00021815 | 0.00021815 | 0.00021815 |   0.0 |  0.00
Modify  | 7.5774     | 7.5774     | 7.5774     |   0.0 |  0.99
Other   |            | 2.002      |            |       |  0.26

Nlocal:    19652 ave 19652 max 19652 min
Histogram: 1 0 0 0 0 0 0 0 0 0
Nghost:    16829 ave 16829 max 16829 min
Histogram: 1 0 0 0 0 0 0 0 0 0
Neighs:    1.2248e+06 ave 1.2248e+06 max 1.2248e+06 min
Histogram: 1 0 0 0 0 0 0 0 0 0

Total # of neighbors = 1224800
Ave neighs/atom = 62.3244
Neighbor list builds = 6172
Dangerous builds not checked
Setting up Verlet run ...
  Unit style    : metal
  Current step  : 173340
  Time step     : 0.001
Per MPI rank memory allocation (min/avg/max) = 18.21 | 18.21 | 18.21 Mbytes
Step Temp Press TotEng PotEng Enthalpy 
  173340    1459.4059   -405.65339   -57260.944   -60967.968   -57363.242 
  173342    1460.0644   -428.70953   -57260.956   -60969.652   -57369.067 
  173835    1411.1936   -600.78453   -57481.269    -61065.83   -57632.154 
Loop time of 63.3773 on 1 procs for 495 steps with 19652 atoms

Performance: 0.675 ns/day, 35.565 hours/ns, 7.810 timesteps/s
99.9% CPU use with 1 MPI tasks x no OpenMP threads

MPI task timing breakdown:
Section |  min time  |  avg time  |  max time  |%varavg| %total
---------------------------------------------------------------
Pair    | 33.35      | 33.35      | 33.35      |   0.0 | 52.62
Neigh   | 28.68      | 28.68      | 28.68      |   0.0 | 45.25
Comm    | 0.4738     | 0.4738     | 0.4738     |   0.0 |  0.75
Output  | 0.057251   | 0.057251   | 0.057251   |   0.0 |  0.09
Modify  | 0.64687    | 0.64687    | 0.64687    |   0.0 |  1.02
Other   |            | 0.1697     |            |       |  0.27

Nlocal:    19652 ave 19652 max 19652 min
Histogram: 1 0 0 0 0 0 0 0 0 0
Nghost:    16849 ave 16849 max 16849 min
Histogram: 1 0 0 0 0 0 0 0 0 0
Neighs:    1.22992e+06 ave 1.22992e+06 max 1.22992e+06 min
Histogram: 1 0 0 0 0 0 0 0 0 0

Total # of neighbors = 1229918
Ave neighs/atom = 62.5849
Neighbor list builds = 495
Dangerous builds not checked
Setting up Verlet run ...
  Unit style    : metal
  Current step  : 173835
  Time step     : 0.001
Per MPI rank memory allocation (min/avg/max) = 18.21 | 18.21 | 18.21 Mbytes
Step Temp Press TotEng PotEng Enthalpy 
  173835    1411.1936   -600.78453   -57481.269    -61065.83   -57632.154 
  180007    1399.4434    342.04777   -57603.275   -61157.989   -57517.829 
Loop time of 761.985 on 1 procs for 6172 steps with 19652 atoms

Performance: 0.700 ns/day, 34.294 hours/ns, 8.100 timesteps/s
99.9% CPU use with 1 MPI tasks x no OpenMP threads

MPI task timing breakdown:
Section |  min time  |  avg time  |  max time  |%varavg| %total
---------------------------------------------------------------
Pair    | 399.21     | 399.21     | 399.21     |   0.0 | 52.39
Neigh   | 347.57     | 347.57     | 347.57     |   0.0 | 45.61
Comm    | 5.6419     | 5.6419     | 5.6419     |   0.0 |  0.74
Output  | 0.00016999 | 0.00016999 | 0.00016999 |   0.0 |  0.00
Modify  | 7.5622     | 7.5622     | 7.5622     |   0.0 |  0.99
Other   |            | 1.995      |            |       |  0.26

Nlocal:    19652 ave 19652 max 19652 min
Histogram: 1 0 0 0 0 0 0 0 0 0
Nghost:    16983 ave 16983 max 16983 min
Histogram: 1 0 0 0 0 0 0 0 0 0
Neighs:    1.23705e+06 ave 1.23705e+06 max 1.23705e+06 min
Histogram: 1 0 0 0 0 0 0 0 0 0

Total # of neighbors = 1237054
Ave neighs/atom = 62.948
Neighbor list builds = 6172
Dangerous builds not checked
Setting up Verlet run ...
  Unit style    : metal
  Current step  : 180007
  Time step     : 0.001
Per MPI rank memory allocation (min/avg/max) = 18.21 | 18.21 | 18.21 Mbytes
Step Temp Press TotEng PotEng Enthalpy 
  180007    1399.4434    342.04777   -57603.275   -61157.989   -57517.829 
  180009    1399.1184    368.21898   -57603.275   -61157.164   -57511.292 
  180502    1374.5171    736.25343   -57786.524   -61277.923    -57603.57 
Loop time of 63.7771 on 1 procs for 495 steps with 19652 atoms

Performance: 0.671 ns/day, 35.790 hours/ns, 7.761 timesteps/s
99.9% CPU use with 1 MPI tasks x no OpenMP threads

MPI task timing breakdown:
Section |  min time  |  avg time  |  max time  |%varavg| %total
---------------------------------------------------------------
Pair    | 33.433     | 33.433     | 33.433     |   0.0 | 52.42
Neigh   | 29.014     | 29.014     | 29.014     |   0.0 | 45.49
Comm    | 0.46509    | 0.46509    | 0.46509    |   0.0 |  0.73
Output  | 0.048218   | 0.048218   | 0.048218   |   0.0 |  0.08
Modify  | 0.64671    | 0.64671    | 0.64671    |   0.0 |  1.01
Other   |            | 0.1702     |            |       |  0.27

Nlocal:    19652 ave 19652 max 19652 min
Histogram: 1 0 0 0 0 0 0 0 0 0
Nghost:    17029 ave 17029 max 17029 min
Histogram: 1 0 0 0 0 0 0 0 0 0
Neighs:    1.24367e+06 ave 1.24367e+06 max 1.24367e+06 min
Histogram: 1 0 0 0 0 0 0 0 0 0

Total # of neighbors = 1243666
Ave neighs/atom = 63.2844
Neighbor list builds = 495
Dangerous builds not checked
Setting up Verlet run ...
  Unit style    : metal
  Current step  : 180502
  Time step     : 0.001
Per MPI rank memory allocation (min/avg/max) = 18.21 | 18.21 | 18.21 Mbytes
Step Temp Press TotEng PotEng Enthalpy 
  180502    1374.5171    736.25343   -57786.524   -61277.923    -57603.57 
  186674    1339.7771    143.67516   -57902.773   -61305.929   -57867.093 
Loop time of 792.96 on 1 procs for 6172 steps with 19652 atoms

Performance: 0.672 ns/day, 35.688 hours/ns, 7.783 timesteps/s
99.9% CPU use with 1 MPI tasks x no OpenMP threads

MPI task timing breakdown:
Section |  min time  |  avg time  |  max time  |%varavg| %total
---------------------------------------------------------------
Pair    | 421.34     | 421.34     | 421.34     |   0.0 | 53.13
Neigh   | 355.94     | 355.94     | 355.94     |   0.0 | 44.89
Comm    | 5.8303     | 5.8303     | 5.8303     |   0.0 |  0.74
Output  | 0.00019312 | 0.00019312 | 0.00019312 |   0.0 |  0.00
Modify  | 7.7868     | 7.7868     | 7.7868     |   0.0 |  0.98
Other   |            | 2.064      |            |       |  0.26

Nlocal:    19652 ave 19652 max 19652 min
Histogram: 1 0 0 0 0 0 0 0 0 0
Nghost:    16934 ave 16934 max 16934 min
Histogram: 1 0 0 0 0 0 0 0 0 0
Neighs:    1.24396e+06 ave 1.24396e+06 max 1.24396e+06 min
Histogram: 1 0 0 0 0 0 0 0 0 0

Total # of neighbors = 1243964
Ave neighs/atom = 63.2996
Neighbor list builds = 6172
Dangerous builds not checked
Setting up Verlet run ...
  Unit style    : metal
  Current step  : 186674
  Time step     : 0.001
Per MPI rank memory allocation (min/avg/max) = 18.21 | 18.21 | 18.21 Mbytes
Step Temp Press TotEng PotEng Enthalpy 
  186674    1339.7771    143.67516   -57902.773   -61305.929   -57867.093 
  186676    1339.6372     140.6313   -57902.762   -61305.563   -57867.838 
  187169    1328.3886    612.64918   -58058.023   -61432.252   -57906.711 
Loop time of 63.5368 on 1 procs for 495 steps with 19652 atoms

Performance: 0.673 ns/day, 35.655 hours/ns, 7.791 timesteps/s
100.0% CPU use with 1 MPI tasks x no OpenMP threads

MPI task timing breakdown:
Section |  min time  |  avg time  |  max time  |%varavg| %total
---------------------------------------------------------------
Pair    | 33.914     | 33.914     | 33.914     |   0.0 | 53.38
Neigh   | 28.263     | 28.263     | 28.263     |   0.0 | 44.48
Comm    | 0.48495    | 0.48495    | 0.48495    |   0.0 |  0.76
Output  | 0.055568   | 0.055568   | 0.055568   |   0.0 |  0.09
Modify  | 0.64788    | 0.64788    | 0.64788    |   0.0 |  1.02
Other   |            | 0.1716     |            |       |  0.27

Nlocal:    19652 ave 19652 max 19652 min
Histogram: 1 0 0 0 0 0 0 0 0 0
Nghost:    17047 ave 17047 max 17047 min
Histogram: 1 0 0 0 0 0 0 0 0 0
Neighs:    1.25097e+06 ave 1.25097e+06 max 1.25097e+06 min
Histogram: 1 0 0 0 0 0 0 0 0 0

Total # of neighbors = 1250969
Ave neighs/atom = 63.6561
Neighbor list builds = 495
Dangerous builds not checked
Setting up Verlet run ...
  Unit style    : metal
  Current step  : 187169
  Time step     : 0.001
Per MPI rank memory allocation (min/avg/max) = 18.21 | 18.21 | 18.21 Mbytes
Step Temp Press TotEng PotEng Enthalpy 
  187169    1328.3886    612.64918   -58058.023   -61432.252   -57906.711 
  193341    1296.2249   -304.48985   -58187.187   -61479.716   -58262.386 
Loop time of 832.061 on 1 procs for 6172 steps with 19652 atoms

Performance: 0.641 ns/day, 37.448 hours/ns, 7.418 timesteps/s
99.9% CPU use with 1 MPI tasks x no OpenMP threads

MPI task timing breakdown:
Section |  min time  |  avg time  |  max time  |%varavg| %total
---------------------------------------------------------------
Pair    | 448.18     | 448.18     | 448.18     |   0.0 | 53.86
Neigh   | 367.45     | 367.45     | 367.45     |   0.0 | 44.16
Comm    | 6.2166     | 6.2166     | 6.2166     |   0.0 |  0.75
Output  | 0.00021315 | 0.00021315 | 0.00021315 |   0.0 |  0.00
Modify  | 8.0559     | 8.0559     | 8.0559     |   0.0 |  0.97
Other   |            | 2.16       |            |       |  0.26

Nlocal:    19652 ave 19652 max 19652 min
Histogram: 1 0 0 0 0 0 0 0 0 0
Nghost:    17000 ave 17000 max 17000 min
Histogram: 1 0 0 0 0 0 0 0 0 0
Neighs:    1.25212e+06 ave 1.25212e+06 max 1.25212e+06 min
Histogram: 1 0 0 0 0 0 0 0 0 0

Total # of neighbors = 1252124
Ave neighs/atom = 63.7148
Neighbor list builds = 6172
Dangerous builds not checked
Setting up Verlet run ...
  Unit style    : metal
  Current step  : 193341
  Time step     : 0.001
Per MPI rank memory allocation (min/avg/max) = 18.21 | 18.21 | 18.21 Mbytes
Step Temp Press TotEng PotEng Enthalpy 
  193341    1296.2249   -304.48985   -58187.187   -61479.716   -58262.386 
  193343    1296.5615   -294.42445   -58187.184   -61480.568   -58259.897 
  193836    1271.0244   -117.60675   -58388.787   -61617.305   -58417.691 
Loop time of 66.4163 on 1 procs for 495 steps with 19652 atoms

Performance: 0.644 ns/day, 37.271 hours/ns, 7.453 timesteps/s
100.0% CPU use with 1 MPI tasks x no OpenMP threads

MPI task timing breakdown:
Section |  min time  |  avg time  |  max time  |%varavg| %total
---------------------------------------------------------------
Pair    | 35.841     | 35.841     | 35.841     |   0.0 | 53.96
Neigh   | 29.18      | 29.18      | 29.18      |   0.0 | 43.94
Comm    | 0.49984    | 0.49984    | 0.49984    |   0.0 |  0.75
Output  | 0.056671   | 0.056671   | 0.056671   |   0.0 |  0.09
Modify  | 0.66162    | 0.66162    | 0.66162    |   0.0 |  1.00
Other   |            | 0.1772     |            |       |  0.27

Nlocal:    19652 ave 19652 max 19652 min
Histogram: 1 0 0 0 0 0 0 0 0 0
Nghost:    17047 ave 17047 max 17047 min
Histogram: 1 0 0 0 0 0 0 0 0 0
Neighs:    1.25748e+06 ave 1.25748e+06 max 1.25748e+06 min
Histogram: 1 0 0 0 0 0 0 0 0 0

Total # of neighbors = 1257477
Ave neighs/atom = 63.9872
Neighbor list builds = 495
Dangerous builds not checked
Setting up Verlet run ...
  Unit style    : metal
  Current step  : 193836
  Time step     : 0.001
Per MPI rank memory allocation (min/avg/max) = 18.21 | 18.21 | 18.21 Mbytes
Step Temp Press TotEng PotEng Enthalpy 
  193836    1271.0244   -117.60675   -58388.787   -61617.305   -58417.691 
  200008    1259.2828    627.82234   -58472.471   -61671.164    -58318.79 
Loop time of 906.744 on 1 procs for 6172 steps with 19652 atoms

Performance: 0.588 ns/day, 40.809 hours/ns, 6.807 timesteps/s
99.9% CPU use with 1 MPI tasks x no OpenMP threads

MPI task timing breakdown:
Section |  min time  |  avg time  |  max time  |%varavg| %total
---------------------------------------------------------------
Pair    | 495.14     | 495.14     | 495.14     |   0.0 | 54.61
Neigh   | 393.59     | 393.59     | 393.59     |   0.0 | 43.41
Comm    | 6.8147     | 6.8147     | 6.8147     |   0.0 |  0.75
Output  | 0.00025797 | 0.00025797 | 0.00025797 |   0.0 |  0.00
Modify  | 8.8291     | 8.8291     | 8.8291     |   0.0 |  0.97
Other   |            | 2.374      |            |       |  0.26

Nlocal:    19652 ave 19652 max 19652 min
Histogram: 1 0 0 0 0 0 0 0 0 0
Nghost:    17144 ave 17144 max 17144 min
Histogram: 1 0 0 0 0 0 0 0 0 0
Neighs:    1.26282e+06 ave 1.26282e+06 max 1.26282e+06 min
Histogram: 1 0 0 0 0 0 0 0 0 0

Total # of neighbors = 1262816
Ave neighs/atom = 64.2589
Neighbor list builds = 6172
Dangerous builds not checked
Setting up Verlet run ...
  Unit style    : metal
  Current step  : 200008
  Time step     : 0.001
Per MPI rank memory allocation (min/avg/max) = 18.21 | 18.21 | 18.21 Mbytes
Step Temp Press TotEng PotEng Enthalpy 
  200008    1259.2828    627.82234   -58472.471   -61671.164    -58318.79 
  200010    1258.5124    653.83112   -58472.478   -61669.214   -58312.432 
  200503    1224.6948    613.15116   -58684.768   -61795.604   -58535.302 
Loop time of 74.7967 on 1 procs for 495 steps with 19652 atoms

Performance: 0.572 ns/day, 41.973 hours/ns, 6.618 timesteps/s
99.9% CPU use with 1 MPI tasks x no OpenMP threads

MPI task timing breakdown:
Section |  min time  |  avg time  |  max time  |%varavg| %total
---------------------------------------------------------------
Pair    | 40.903     | 40.903     | 40.903     |   0.0 | 54.69
Neigh   | 32.295     | 32.295     | 32.295     |   0.0 | 43.18
Comm    | 0.57422    | 0.57422    | 0.57422    |   0.0 |  0.77
Output  | 0.067326   | 0.067326   | 0.067326   |   0.0 |  0.09
Modify  | 0.75459    | 0.75459    | 0.75459    |   0.0 |  1.01
Other   |            | 0.2034     |            |       |  0.27

Nlocal:    19652 ave 19652 max 19652 min
Histogram: 1 0 0 0 0 0 0 0 0 0
Nghost:    17184 ave 17184 max 17184 min
Histogram: 1 0 0 0 0 0 0 0 0 0
Neighs:    1.26864e+06 ave 1.26864e+06 max 1.26864e+06 min
Histogram: 1 0 0 0 0 0 0 0 0 0

Total # of neighbors = 1268645
Ave neighs/atom = 64.5555
Neighbor list builds = 495
Dangerous builds not checked
Setting up Verlet run ...
  Unit style    : metal
  Current step  : 200503
  Time step     : 0.001
Per MPI rank memory allocation (min/avg/max) = 18.21 | 18.21 | 18.21 Mbytes
Step Temp Press TotEng PotEng Enthalpy 
  200503    1224.6948    613.15116   -58684.768   -61795.604   -58535.302 
  206675    1213.7013    802.57381   -58749.269   -61832.181   -58554.013 
Loop time of 909.095 on 1 procs for 6172 steps with 19652 atoms

Performance: 0.587 ns/day, 40.915 hours/ns, 6.789 timesteps/s
99.9% CPU use with 1 MPI tasks x no OpenMP threads

MPI task timing breakdown:
Section |  min time  |  avg time  |  max time  |%varavg| %total
---------------------------------------------------------------
Pair    | 498.74     | 498.74     | 498.74     |   0.0 | 54.86
Neigh   | 392.23     | 392.23     | 392.23     |   0.0 | 43.15
Comm    | 6.8606     | 6.8606     | 6.8606     |   0.0 |  0.75
Output  | 0.00021696 | 0.00021696 | 0.00021696 |   0.0 |  0.00
Modify  | 8.8732     | 8.8732     | 8.8732     |   0.0 |  0.98
Other   |            | 2.388      |            |       |  0.26

Nlocal:    19652 ave 19652 max 19652 min
Histogram: 1 0 0 0 0 0 0 0 0 0
Nghost:    17196 ave 17196 max 17196 min
Histogram: 1 0 0 0 0 0 0 0 0 0
Neighs:    1.27124e+06 ave 1.27124e+06 max 1.27124e+06 min
Histogram: 1 0 0 0 0 0 0 0 0 0

Total # of neighbors = 1271239
Ave neighs/atom = 64.6875
Neighbor list builds = 6172
Dangerous builds not checked
Setting up Verlet run ...
  Unit style    : metal
  Current step  : 206675
  Time step     : 0.001
[...]

Performance: 0.637 ns/day, 37.688 hours/ns, 7.371 timesteps/s
100.0% CPU use with 1 MPI tasks x no OpenMP threads

MPI task timing breakdown:
Section |  min time  |  avg time  |  max time  |%varavg| %total
---------------------------------------------------------------
Pair    | 36.026     | 36.026     | 36.026     |   0.0 | 53.64
Neigh   | 29.729     | 29.729     | 29.729     |   0.0 | 44.27
Comm    | 0.50132    | 0.50132    | 0.50132    |   0.0 |  0.75
Output  | 0.057691   | 0.057691   | 0.057691   |   0.0 |  0.09
Modify  | 0.65811    | 0.65811    | 0.65811    |   0.0 |  0.98
Other   |            | 0.1872     |            |       |  0.28

Nlocal:    19652 ave 19652 max 19652 min
Histogram: 1 0 0 0 0 0 0 0 0 0
Nghost:    17990 ave 17990 max 17990 min
Histogram: 1 0 0 0 0 0 0 0 0 0
Neighs:    1.42128e+06 ave 1.42128e+06 max 1.42128e+06 min
Histogram: 1 0 0 0 0 0 0 0 0 0

Total # of neighbors = 1421276
Ave neighs/atom = 72.3222
Neighbor list builds = 495
Dangerous builds not checked
Setting up Verlet run ...
  Unit style    : metal
  Current step  : 307175
  Time step     : 0.001
Per MPI rank memory allocation (min/avg/max) = 18.21 | 18.21 | 18.21 Mbytes
Step Temp Press TotEng PotEng Enthalpy 
  307175    422.56161    111.65138   -63956.333   -65029.678   -63932.015 
  313347    401.64692    277.15375   -64112.658   -65132.878   -64052.498 
Loop time of 898.756 on 1 procs for 6172 steps with 19652 atoms

Performance: 0.593 ns/day, 40.450 hours/ns, 6.867 timesteps/s
99.8% CPU use with 1 MPI tasks x no OpenMP threads

MPI task timing breakdown:
Section |  min time  |  avg time  |  max time  |%varavg| %total
---------------------------------------------------------------
Pair    | 484.66     | 484.66     | 484.66     |   0.0 | 53.93
Neigh   | 396.01     | 396.01     | 396.01     |   0.0 | 44.06
Comm    | 6.7402     | 6.7402     | 6.7402     |   0.0 |  0.75
Output  | 0.00016284 | 0.00016284 | 0.00016284 |   0.0 |  0.00
Modify  | 8.8863     | 8.8863     | 8.8863     |   0.0 |  0.99
Other   |            | 2.458      |            |       |  0.27

Nlocal:    19652 ave 19652 max 19652 min
Histogram: 1 0 0 0 0 0 0 0 0 0
Nghost:    17944 ave 17944 max 17944 min
Histogram: 1 0 0 0 0 0 0 0 0 0
Neighs:    1.42612e+06 ave 1.42612e+06 max 1.42612e+06 min
Histogram: 1 0 0 0 0 0 0 0 0 0

Total # of neighbors = 1426122
Ave neighs/atom = 72.5688
Neighbor list builds = 6172
Dangerous builds not checked
Setting up Verlet run ...
  Unit style    : metal
  Current step  : 313347
  Time step     : 0.001
Per MPI rank memory allocation (min/avg/max) = 18.21 | 18.21 | 18.21 Mbytes
Step Temp Press TotEng PotEng Enthalpy 
  313347    401.64692    277.15375   -64112.658   -65132.878   -64052.498 
  313349    401.56014     280.0421   -64112.659   -65132.658   -64051.873 
  313842    375.57221    216.57773   -64276.273   -65230.261    -64229.41 
Loop time of 72.9373 on 1 procs for 495 steps with 19652 atoms

Performance: 0.586 ns/day, 40.930 hours/ns, 6.787 timesteps/s
99.4% CPU use with 1 MPI tasks x no OpenMP threads

MPI task timing breakdown:
Section |  min time  |  avg time  |  max time  |%varavg| %total
---------------------------------------------------------------
Pair    | 39.436     | 39.436     | 39.436     |   0.0 | 54.07
Neigh   | 31.978     | 31.978     | 31.978     |   0.0 | 43.84
Comm    | 0.54343    | 0.54343    | 0.54343    |   0.0 |  0.75
Output  | 0.053028   | 0.053028   | 0.053028   |   0.0 |  0.07
Modify  | 0.72584    | 0.72584    | 0.72584    |   0.0 |  1.00
Other   |            | 0.2007     |            |       |  0.28

Nlocal:    19652 ave 19652 max 19652 min
Histogram: 1 0 0 0 0 0 0 0 0 0
Nghost:    18007 ave 18007 max 18007 min
Histogram: 1 0 0 0 0 0 0 0 0 0
Neighs:    1.43011e+06 ave 1.43011e+06 max 1.43011e+06 min
Histogram: 1 0 0 0 0 0 0 0 0 0

Total # of neighbors = 1430106
Ave neighs/atom = 72.7715
Neighbor list builds = 495
Dangerous builds not checked
Setting up Verlet run ...
  Unit style    : metal
  Current step  : 313842
  Time step     : 0.001
Per MPI rank memory allocation (min/avg/max) = 18.21 | 18.21 | 18.21 Mbytes
Step Temp Press TotEng PotEng Enthalpy 
  313842    375.57221    216.57773   -64276.273   -65230.261    -64229.41 
  320014    349.21089    355.90108   -64449.405   -65336.432   -64372.663 
Loop time of 944.18 on 1 procs for 6172 steps with 19652 atoms

Performance: 0.565 ns/day, 42.494 hours/ns, 6.537 timesteps/s
99.5% CPU use with 1 MPI tasks x no OpenMP threads

MPI task timing breakdown:
Section |  min time  |  avg time  |  max time  |%varavg| %total
---------------------------------------------------------------
Pair    | 512.63     | 512.63     | 512.63     |   0.0 | 54.29
Neigh   | 412.34     | 412.34     | 412.34     |   0.0 | 43.67
Comm    | 7.1156     | 7.1156     | 7.1156     |   0.0 |  0.75
Output  | 0.00022197 | 0.00022197 | 0.00022197 |   0.0 |  0.00
Modify  | 9.4794     | 9.4794     | 9.4794     |   0.0 |  1.00
Other   |            | 2.607      |            |       |  0.28

Nlocal:    19652 ave 19652 max 19652 min
Histogram: 1 0 0 0 0 0 0 0 0 0
Nghost:    18067 ave 18067 max 18067 min
Histogram: 1 0 0 0 0 0 0 0 0 0
Neighs:    1.43524e+06 ave 1.43524e+06 max 1.43524e+06 min
Histogram: 1 0 0 0 0 0 0 0 0 0

Total # of neighbors = 1435239
Ave neighs/atom = 73.0327
Neighbor list builds = 6172
Dangerous builds not checked
Setting up Verlet run ...
  Unit style    : metal
  Current step  : 320014
  Time step     : 0.001
Per MPI rank memory allocation (min/avg/max) = 18.21 | 18.21 | 18.21 Mbytes
Step Temp Press TotEng PotEng Enthalpy 
  320014    349.21089    355.90108   -64449.405   -65336.432   -64372.663 
  320016    349.37101     347.8234   -64449.405   -65336.839   -64374.405 
  320509       324.73    256.89168   -64587.675   -65412.519   -64532.404 
Loop time of 79.5251 on 1 procs for 495 steps with 19652 atoms

Performance: 0.538 ns/day, 44.627 hours/ns, 6.224 timesteps/s
99.3% CPU use with 1 MPI tasks x no OpenMP threads

MPI task timing breakdown:
Section |  min time  |  avg time  |  max time  |%varavg| %total
---------------------------------------------------------------
Pair    | 43.56      | 43.56      | 43.56      |   0.0 | 54.78
Neigh   | 34.234     | 34.234     | 34.234     |   0.0 | 43.05
Comm    | 0.61941    | 0.61941    | 0.61941    |   0.0 |  0.78
Output  | 0.073013   | 0.073013   | 0.073013   |   0.0 |  0.09
Modify  | 0.8119     | 0.8119     | 0.8119     |   0.0 |  1.02
Other   |            | 0.2265     |            |       |  0.28

Nlocal:    19652 ave 19652 max 19652 min
Histogram: 1 0 0 0 0 0 0 0 0 0
Nghost:    18079 ave 18079 max 18079 min
Histogram: 1 0 0 0 0 0 0 0 0 0
Neighs:    1.43791e+06 ave 1.43791e+06 max 1.43791e+06 min
Histogram: 1 0 0 0 0 0 0 0 0 0

Total # of neighbors = 1437913
Ave neighs/atom = 73.1688
Neighbor list builds = 495
Dangerous builds not checked
Setting up Verlet run ...
  Unit style    : metal
  Current step  : 320509
  Time step     : 0.001
Per MPI rank memory allocation (min/avg/max) = 18.21 | 18.21 | 18.21 Mbytes
Step Temp Press TotEng PotEng Enthalpy 
  320509       324.73    256.89168   -64587.675   -65412.519   -64532.404 
  326681    299.36578   -156.24049    -64733.19   -65493.606   -64766.738 
Loop time of 960.776 on 1 procs for 6172 steps with 19652 atoms

Performance: 0.555 ns/day, 43.241 hours/ns, 6.424 timesteps/s
99.4% CPU use with 1 MPI tasks x no OpenMP threads

MPI task timing breakdown:
Section |  min time  |  avg time  |  max time  |%varavg| %total
---------------------------------------------------------------
Pair    | 522.28     | 522.28     | 522.28     |   0.0 | 54.36
Neigh   | 419.07     | 419.07     | 419.07     |   0.0 | 43.62
Comm    | 7.2003     | 7.2003     | 7.2003     |   0.0 |  0.75
Output  | 0.00036097 | 0.00036097 | 0.00036097 |   0.0 |  0.00
Modify  | 9.6057     | 9.6057     | 9.6057     |   0.0 |  1.00
Other   |            | 2.615      |            |       |  0.27

Nlocal:    19652 ave 19652 max 19652 min
Histogram: 1 0 0 0 0 0 0 0 0 0
Nghost:    18104 ave 18104 max 18104 min
Histogram: 1 0 0 0 0 0 0 0 0 0
Neighs:    1.4402e+06 ave 1.4402e+06 max 1.4402e+06 min
Histogram: 1 0 0 0 0 0 0 0 0 0

Total # of neighbors = 1440201
Ave neighs/atom = 73.2852
Neighbor list builds = 6172
Dangerous builds not checked
Setting up Verlet run ...
  Unit style    : metal
  Current step  : 326681
  Time step     : 0.001
Per MPI rank memory allocation (min/avg/max) = 18.21 | 18.21 | 18.21 Mbytes
Step Temp Press TotEng PotEng Enthalpy 
  326681    299.36578   -156.24049    -64733.19   -65493.606   -64766.738 
  326683    299.17193   -149.05968   -64733.189   -65493.113   -64765.195 
  327176    272.98902   -426.88496   -64879.336   -65572.753   -64970.805 
Loop time of 78.103 on 1 procs for 495 steps with 19652 atoms

Performance: 0.548 ns/day, 43.829 hours/ns, 6.338 timesteps/s
99.5% CPU use with 1 MPI tasks x no OpenMP threads

MPI task timing breakdown:
Section |  min time  |  avg time  |  max time  |%varavg| %total
---------------------------------------------------------------
Pair    | 42.547     | 42.547     | 42.547     |   0.0 | 54.47
Neigh   | 33.841     | 33.841     | 33.841     |   0.0 | 43.33
Comm    | 0.59271    | 0.59271    | 0.59271    |   0.0 |  0.76
Output  | 0.11514    | 0.11514    | 0.11514    |   0.0 |  0.15
Modify  | 0.79421    | 0.79421    | 0.79421    |   0.0 |  1.02
Other   |            | 0.2137     |            |       |  0.27

Nlocal:    19652 ave 19652 max 19652 min
Histogram: 1 0 0 0 0 0 0 0 0 0
Nghost:    18120 ave 18120 max 18120 min
Histogram: 1 0 0 0 0 0 0 0 0 0
Neighs:    1.4432e+06 ave 1.4432e+06 max 1.4432e+06 min
Histogram: 1 0 0 0 0 0 0 0 0 0

Total # of neighbors = 1443201
Ave neighs/atom = 73.4379
Neighbor list builds = 495
Dangerous builds not checked
Setting up Verlet run ...
  Unit style    : metal
  Current step  : 327176
  Time step     : 0.001
Per MPI rank memory allocation (min/avg/max) = 18.21 | 18.21 | 18.21 Mbytes
Step Temp Press TotEng PotEng Enthalpy 
  327176    272.98902   -426.88496   -64879.336   -65572.753   -64970.805 
  333348    251.09893    -430.4485   -65025.631   -65663.445   -65117.619 
Loop time of 963.618 on 1 procs for 6172 steps with 19652 atoms

Performance: 0.553 ns/day, 43.369 hours/ns, 6.405 timesteps/s
99.8% CPU use with 1 MPI tasks x no OpenMP threads

MPI task timing breakdown:
Section |  min time  |  avg time  |  max time  |%varavg| %total
---------------------------------------------------------------
Pair    | 525.13     | 525.13     | 525.13     |   0.0 | 54.50
Neigh   | 418.84     | 418.84     | 418.84     |   0.0 | 43.47
Comm    | 7.2409     | 7.2409     | 7.2409     |   0.0 |  0.75
Output  | 0.00017881 | 0.00017881 | 0.00017881 |   0.0 |  0.00
Modify  | 9.7549     | 9.7549     | 9.7549     |   0.0 |  1.01
Other   |            | 2.653      |            |       |  0.28

Nlocal:    19652 ave 19652 max 19652 min
Histogram: 1 0 0 0 0 0 0 0 0 0
Nghost:    18138 ave 18138 max 18138 min
Histogram: 1 0 0 0 0 0 0 0 0 0
Neighs:    1.447e+06 ave 1.447e+06 max 1.447e+06 min
Histogram: 1 0 0 0 0 0 0 0 0 0

Total # of neighbors = 1446996
Ave neighs/atom = 73.631
Neighbor list builds = 6172
Dangerous builds not checked
Setting up Verlet run ...
  Unit style    : metal
  Current step  : 333348
  Time step     : 0.001
Per MPI rank memory allocation (min/avg/max) = 18.21 | 18.21 | 18.21 Mbytes
Step Temp Press TotEng PotEng Enthalpy 
  333348    251.09893    -430.4485   -65025.631   -65663.445   -65117.619 
  333350    250.96597   -427.05789   -65025.632   -65663.108   -65116.895 
  333843    223.44197    451.57229   -65161.939   -65729.502   -65065.764 
Loop time of 74.3609 on 1 procs for 495 steps with 19652 atoms

Performance: 0.575 ns/day, 41.729 hours/ns, 6.657 timesteps/s
99.5% CPU use with 1 MPI tasks x no OpenMP threads

MPI task timing breakdown:
Section |  min time  |  avg time  |  max time  |%varavg| %total
---------------------------------------------------------------
Pair    | 40.63      | 40.63      | 40.63      |   0.0 | 54.64
Neigh   | 32.174     | 32.174     | 32.174     |   0.0 | 43.27
Comm    | 0.5551     | 0.5551     | 0.5551     |   0.0 |  0.75
Output  | 0.054099   | 0.054099   | 0.054099   |   0.0 |  0.07
Modify  | 0.74388    | 0.74388    | 0.74388    |   0.0 |  1.00
Other   |            | 0.2039     |            |       |  0.27

Nlocal:    19652 ave 19652 max 19652 min
Histogram: 1 0 0 0 0 0 0 0 0 0
Nghost:    18128 ave 18128 max 18128 min
Histogram: 1 0 0 0 0 0 0 0 0 0
Neighs:    1.45177e+06 ave 1.45177e+06 max 1.45177e+06 min
Histogram: 1 0 0 0 0 0 0 0 0 0

Total # of neighbors = 1451770
Ave neighs/atom = 73.8739
Neighbor list builds = 495
Dangerous builds not checked
Setting up Verlet run ...
  Unit style    : metal
  Current step  : 333843
  Time step     : 0.001
Per MPI rank memory allocation (min/avg/max) = 18.21 | 18.21 | 18.21 Mbytes
Step Temp Press TotEng PotEng Enthalpy 
  333843    223.44197    451.57229   -65161.939   -65729.502   -65065.764 
  340015    200.30185   -223.53546   -65305.549   -65814.334   -65353.096 
Loop time of 905.804 on 1 procs for 6172 steps with 19652 atoms

Performance: 0.589 ns/day, 40.767 hours/ns, 6.814 timesteps/s
99.7% CPU use with 1 MPI tasks x no OpenMP threads

MPI task timing breakdown:
Section |  min time  |  avg time  |  max time  |%varavg| %total
---------------------------------------------------------------
Pair    | 492.97     | 492.97     | 492.97     |   0.0 | 54.42
Neigh   | 394.08     | 394.08     | 394.08     |   0.0 | 43.51
Comm    | 6.9995     | 6.9995     | 6.9995     |   0.0 |  0.77
Output  | 0.00025296 | 0.00025296 | 0.00025296 |   0.0 |  0.00
Modify  | 9.1682     | 9.1682     | 9.1682     |   0.0 |  1.01
Other   |            | 2.583      |            |       |  0.29

Nlocal:    19652 ave 19652 max 19652 min
Histogram: 1 0 0 0 0 0 0 0 0 0
Nghost:    18137 ave 18137 max 18137 min
Histogram: 1 0 0 0 0 0 0 0 0 0
Neighs:    1.45287e+06 ave 1.45287e+06 max 1.45287e+06 min
Histogram: 1 0 0 0 0 0 0 0 0 0

Total # of neighbors = 1452870
Ave neighs/atom = 73.9299
Neighbor list builds = 6172
Dangerous builds not checked
Setting up Verlet run ...
  Unit style    : metal
  Current step  : 340015
  Time step     : 0.001
Per MPI rank memory allocation (min/avg/max) = 18.21 | 18.21 | 18.21 Mbytes
Step Temp Press TotEng PotEng Enthalpy 
  340015    200.30185   -223.53546   -65305.549   -65814.334   -65353.096 
  340017    200.18135   -221.75025   -65305.549   -65814.028   -65352.717 
  340510     174.3026   -216.50878   -65432.322   -65875.067   -65478.287 
Loop time of 72.4125 on 1 procs for 495 steps with 19652 atoms

Performance: 0.591 ns/day, 40.636 hours/ns, 6.836 timesteps/s
99.8% CPU use with 1 MPI tasks x no OpenMP threads

MPI task timing breakdown:
Section |  min time  |  avg time  |  max time  |%varavg| %total
---------------------------------------------------------------
Pair    | 39.463     | 39.463     | 39.463     |   0.0 | 54.50
Neigh   | 31.389     | 31.389     | 31.389     |   0.0 | 43.35
Comm    | 0.57149    | 0.57149    | 0.57149    |   0.0 |  0.79
Output  | 0.045673   | 0.045673   | 0.045673   |   0.0 |  0.06
Modify  | 0.7388     | 0.7388     | 0.7388     |   0.0 |  1.02
Other   |            | 0.2053     |            |       |  0.28

Nlocal:    19652 ave 19652 max 19652 min
Histogram: 1 0 0 0 0 0 0 0 0 0
Nghost:    18125 ave 18125 max 18125 min
Histogram: 1 0 0 0 0 0 0 0 0 0
Neighs:    1.4563e+06 ave 1.4563e+06 max 1.4563e+06 min
Histogram: 1 0 0 0 0 0 0 0 0 0

Total # of neighbors = 1456303
Ave neighs/atom = 74.1046
Neighbor list builds = 495
Dangerous builds not checked
Setting up Verlet run ...
  Unit style    : metal
  Current step  : 340510
  Time step     : 0.001
Per MPI rank memory allocation (min/avg/max) = 18.21 | 18.21 | 18.21 Mbytes
Step Temp Press TotEng PotEng Enthalpy 
  340510     174.3026   -216.50878   -65432.322   -65875.067   -65478.287 
  346682    150.04303    76.774145   -65571.903   -65953.026   -65555.647 
Loop time of 871.572 on 1 procs for 6172 steps with 19652 atoms

Performance: 0.612 ns/day, 39.226 hours/ns, 7.081 timesteps/s
99.8% CPU use with 1 MPI tasks x no OpenMP threads

MPI task timing breakdown:
Section |  min time  |  avg time  |  max time  |%varavg| %total
---------------------------------------------------------------
Pair    | 473.92     | 473.92     | 473.92     |   0.0 | 54.37
Neigh   | 379.33     | 379.33     | 379.33     |   0.0 | 43.52
Comm    | 6.894      | 6.894      | 6.894      |   0.0 |  0.79
Output  | 0.00054288 | 0.00054288 | 0.00054288 |   0.0 |  0.00
Modify  | 8.8946     | 8.8946     | 8.8946     |   0.0 |  1.02
Other   |            | 2.532      |            |       |  0.29

Nlocal:    19652 ave 19652 max 19652 min
Histogram: 1 0 0 0 0 0 0 0 0 0
Nghost:    18145 ave 18145 max 18145 min
Histogram: 1 0 0 0 0 0 0 0 0 0
Neighs:    1.45895e+06 ave 1.45895e+06 max 1.45895e+06 min
Histogram: 1 0 0 0 0 0 0 0 0 0

Total # of neighbors = 1458947
Ave neighs/atom = 74.2391
Neighbor list builds = 6172
Dangerous builds not checked
Setting up Verlet run ...
  Unit style    : metal
  Current step  : 346682
  Time step     : 0.001
Per MPI rank memory allocation (min/avg/max) = 18.21 | 18.21 | 18.21 Mbytes
Step Temp Press TotEng PotEng Enthalpy 
  346682    150.04303    76.774145   -65571.903   -65953.026   -65555.647 
  346684    150.09208    76.619802   -65571.904   -65953.151    -65555.68 
  347177    127.77481   -145.60608   -65692.848   -66017.407   -65723.632 
Loop time of 76.2764 on 1 procs for 495 steps with 19652 atoms

Performance: 0.561 ns/day, 42.804 hours/ns, 6.490 timesteps/s
99.8% CPU use with 1 MPI tasks x no OpenMP threads

MPI task timing breakdown:
Section |  min time  |  avg time  |  max time  |%varavg| %total
---------------------------------------------------------------
Pair    | 42.178     | 42.178     | 42.178     |   0.0 | 55.30
Neigh   | 32.407     | 32.407     | 32.407     |   0.0 | 42.49
Comm    | 0.61175    | 0.61175    | 0.61175    |   0.0 |  0.80
Output  | 0.058796   | 0.058796   | 0.058796   |   0.0 |  0.08
Modify  | 0.79588    | 0.79588    | 0.79588    |   0.0 |  1.04
Other   |            | 0.2247     |            |       |  0.29

Nlocal:    19652 ave 19652 max 19652 min
Histogram: 1 0 0 0 0 0 0 0 0 0
Nghost:    18163 ave 18163 max 18163 min
Histogram: 1 0 0 0 0 0 0 0 0 0
Neighs:    1.46131e+06 ave 1.46131e+06 max 1.46131e+06 min
Histogram: 1 0 0 0 0 0 0 0 0 0

Total # of neighbors = 1461306
Ave neighs/atom = 74.3591
Neighbor list builds = 495
Dangerous builds not checked
Setting up Verlet run ...
  Unit style    : metal
  Current step  : 347177
  Time step     : 0.001
Per MPI rank memory allocation (min/avg/max) = 18.21 | 18.21 | 18.21 Mbytes
Step Temp Press TotEng PotEng Enthalpy 
  347177    127.77481   -145.60608   -65692.848   -66017.407   -65723.632 
  353349    100.01808   -176.33793   -65838.703   -66092.758   -65875.903 
Loop time of 860.72 on 1 procs for 6172 steps with 19652 atoms

Performance: 0.620 ns/day, 38.738 hours/ns, 7.171 timesteps/s
99.8% CPU use with 1 MPI tasks x no OpenMP threads

MPI task timing breakdown:
Section |  min time  |  avg time  |  max time  |%varavg| %total
---------------------------------------------------------------
Pair    | 466.19     | 466.19     | 466.19     |   0.0 | 54.16
Neigh   | 376.15     | 376.15     | 376.15     |   0.0 | 43.70
Comm    | 6.9529     | 6.9529     | 6.9529     |   0.0 |  0.81
Output  | 0.00019217 | 0.00019217 | 0.00019217 |   0.0 |  0.00
Modify  | 8.8728     | 8.8728     | 8.8728     |   0.0 |  1.03
Other   |            | 2.549      |            |       |  0.30

Nlocal:    19652 ave 19652 max 19652 min
Histogram: 1 0 0 0 0 0 0 0 0 0
Nghost:    18174 ave 18174 max 18174 min
Histogram: 1 0 0 0 0 0 0 0 0 0
Neighs:    1.46389e+06 ave 1.46389e+06 max 1.46389e+06 min
Histogram: 1 0 0 0 0 0 0 0 0 0

Total # of neighbors = 1463886
Ave neighs/atom = 74.4904
Neighbor list builds = 6172
Dangerous builds not checked
Total wall time: 13:54:14
