LAMMPS (12 Dec 2018)
Lattice spacing in x,y,z = 4 4 4
Created orthogonal box = (0 0 0) to (68 68 68)
  1 by 1 by 1 MPI processor grid
Created 19652 atoms
  Time spent = 0.0031848 secs
Setting atom values ...
  206 settings made for type/fraction
Neighbor list info ...
  update every 1 steps, delay 0 steps, check no
  max neighbors/atom: 2000, page size: 100000
  master list distance cutoff = 8.5
  ghost atom cutoff = 8.5
  binsize = 4.25, bins = 16 16 16
  1 neighbor lists, perpetual/occasional/extra = 1 0 0
  (1) pair eam/alloy, perpetual
      attributes: half, newton on
      pair build: half/bin/atomonly/newton
      stencil: half/bin/3d/newton
      bin: standard
Setting up Verlet run ...
  Unit style    : metal
  Current step  : 0
  Time step     : 0.001
Per MPI rank memory allocation (min/avg/max) = 18.19 | 18.19 | 18.19 Mbytes
Step Temp Press TotEng PotEng Enthalpy 
       0          300    275404.51    -21190.05   -21952.077    32858.922 
    1000    158.31442    273514.38   -21189.823   -21591.956    32488.203 
Loop time of 165.594 on 1 procs for 1000 steps with 19652 atoms

Performance: 0.522 ns/day, 45.998 hours/ns, 6.039 timesteps/s
99.4% CPU use with 1 MPI tasks x no OpenMP threads

MPI task timing breakdown:
Section |  min time  |  avg time  |  max time  |%varavg| %total
---------------------------------------------------------------
Pair    | 94.772     | 94.772     | 94.772     |   0.0 | 57.23
Neigh   | 68.615     | 68.615     | 68.615     |   0.0 | 41.44
Comm    | 1.3131     | 1.3131     | 1.3131     |   0.0 |  0.79
Output  | 0.00020194 | 0.00020194 | 0.00020194 |   0.0 |  0.00
Modify  | 0.46532    | 0.46532    | 0.46532    |   0.0 |  0.28
Other   |            | 0.4287     |            |       |  0.26

Nlocal:    19652 ave 19652 max 19652 min
Histogram: 1 0 0 0 0 0 0 0 0 0
Nghost:    20102 ave 20102 max 20102 min
Histogram: 1 0 0 0 0 0 0 0 0 0
Neighs:    1.57356e+06 ave 1.57356e+06 max 1.57356e+06 min
Histogram: 1 0 0 0 0 0 0 0 0 0

Total # of neighbors = 1573555
Ave neighs/atom = 80.071
Neighbor list builds = 1000
Dangerous builds not checked
Setting up Verlet run ...
  Unit style    : metal
  Current step  : 1000
  Time step     : 0.001
Per MPI rank memory allocation (min/avg/max) = 18.2 | 18.2 | 18.2 Mbytes
Step Temp Press TotEng PotEng Enthalpy 
    1000    158.31442    273514.38   -21189.823   -21591.956    32488.203 
    2000    260.74289    295.40941   -28932.126   -29594.436   -28847.678 
Loop time of 108.353 on 1 procs for 1000 steps with 19652 atoms

Performance: 0.797 ns/day, 30.098 hours/ns, 9.229 timesteps/s
99.9% CPU use with 1 MPI tasks x no OpenMP threads

MPI task timing breakdown:
Section |  min time  |  avg time  |  max time  |%varavg| %total
---------------------------------------------------------------
Pair    | 56.273     | 56.273     | 56.273     |   0.0 | 51.94
Neigh   | 49.733     | 49.733     | 49.733     |   0.0 | 45.90
Comm    | 0.86455    | 0.86455    | 0.86455    |   0.0 |  0.80
Output  | 0.0001719  | 0.0001719  | 0.0001719  |   0.0 |  0.00
Modify  | 1.1664     | 1.1664     | 1.1664     |   0.0 |  1.08
Other   |            | 0.3156     |            |       |  0.29

Nlocal:    19652 ave 19652 max 19652 min
Histogram: 1 0 0 0 0 0 0 0 0 0
Nghost:    14808 ave 14808 max 14808 min
Histogram: 1 0 0 0 0 0 0 0 0 0
Neighs:    1.09718e+06 ave 1.09718e+06 max 1.09718e+06 min
Histogram: 1 0 0 0 0 0 0 0 0 0

Total # of neighbors = 1097175
Ave neighs/atom = 55.8302
Neighbor list builds = 1000
Dangerous builds not checked
Setting up Verlet run ...
  Unit style    : metal
  Current step  : 2000
  Time step     : 0.001
Per MPI rank memory allocation (min/avg/max) = 18.2 | 18.2 | 18.2 Mbytes
Step Temp Press TotEng PotEng Enthalpy 
    2000    260.74289    295.40941   -28932.126   -29594.436   -28847.678 
    6667    1555.4609   -12.778973    -20036.05   -23987.063   -20040.532 
   10000    2458.0535   -19.317538   -14798.608   -21042.287   -14806.462 
Loop time of 780.056 on 1 procs for 8000 steps with 19652 atoms

Performance: 0.886 ns/day, 27.085 hours/ns, 10.256 timesteps/s
99.9% CPU use with 1 MPI tasks x no OpenMP threads

MPI task timing breakdown:
Section |  min time  |  avg time  |  max time  |%varavg| %total
---------------------------------------------------------------
Pair    | 394.89     | 394.89     | 394.89     |   0.0 | 50.62
Neigh   | 365.35     | 365.35     | 365.35     |   0.0 | 46.84
Comm    | 7.0827     | 7.0827     | 7.0827     |   0.0 |  0.91
Output  | 0.044953   | 0.044953   | 0.044953   |   0.0 |  0.01
Modify  | 10.068     | 10.068     | 10.068     |   0.0 |  1.29
Other   |            | 2.614      |            |       |  0.34

Nlocal:    19652 ave 19652 max 19652 min
Histogram: 1 0 0 0 0 0 0 0 0 0
Nghost:    13980 ave 13980 max 13980 min
Histogram: 1 0 0 0 0 0 0 0 0 0
Neighs:    753359 ave 753359 max 753359 min
Histogram: 1 0 0 0 0 0 0 0 0 0

Total # of neighbors = 753359
Ave neighs/atom = 38.335
Neighbor list builds = 8000
Dangerous builds not checked
Setting up Verlet run ...
  Unit style    : metal
  Current step  : 10000
  Time step     : 0.001
Per MPI rank memory allocation (min/avg/max) = 18.21 | 18.21 | 18.21 Mbytes
Step Temp Press TotEng PotEng Enthalpy 
   10000    2458.0535   -19.317538   -14798.608   -21042.287   -14806.462 
   13334    2448.7417    580.59429    -14557.76   -20777.786   -14318.866 
   20001    2460.4458    169.62835   -14667.263   -20917.019   -14597.931 
   26668    2464.7156    115.34941   -14611.742   -20872.344   -14564.392 
   33335     2465.272   -204.95387   -14516.979   -20778.995   -14601.648 
   40000    2454.2432   -234.28418   -14556.137   -20790.138   -14652.842 
Loop time of 2848.73 on 1 procs for 30000 steps with 19652 atoms

Performance: 0.910 ns/day, 26.377 hours/ns, 10.531 timesteps/s
99.8% CPU use with 1 MPI tasks x no OpenMP threads

MPI task timing breakdown:
Section |  min time  |  avg time  |  max time  |%varavg| %total
---------------------------------------------------------------
Pair    | 1410.3     | 1410.3     | 1410.3     |   0.0 | 49.51
Neigh   | 1358       | 1358       | 1358       |   0.0 | 47.67
Comm    | 28.77      | 28.77      | 28.77      |   0.0 |  1.01
Output  | 0.32385    | 0.32385    | 0.32385    |   0.0 |  0.01
Modify  | 40.955     | 40.955     | 40.955     |   0.0 |  1.44
Other   |            | 10.34      |            |       |  0.36

Nlocal:    19652 ave 19652 max 19652 min
Histogram: 1 0 0 0 0 0 0 0 0 0
Nghost:    14007 ave 14007 max 14007 min
Histogram: 1 0 0 0 0 0 0 0 0 0
Neighs:    742158 ave 742158 max 742158 min
Histogram: 1 0 0 0 0 0 0 0 0 0

Total # of neighbors = 742158
Ave neighs/atom = 37.765
Neighbor list builds = 30000
Dangerous builds not checked
Setting up Verlet run ...
  Unit style    : metal
  Current step  : 40000
  Time step     : 0.001
Per MPI rank memory allocation (min/avg/max) = 18.21 | 18.21 | 18.21 Mbytes
Step Temp Press TotEng PotEng Enthalpy 
   40000    2454.2432   -234.28418   -14556.137   -20790.138   -14652.842 
   40002    2454.2317   -242.66529    -14556.14   -20790.112   -14656.304 
   40495    2414.1402   -47.842798   -14793.101   -20925.237    -14812.71 
Loop time of 42.9082 on 1 procs for 495 steps with 19652 atoms

Performance: 0.997 ns/day, 24.079 hours/ns, 11.536 timesteps/s
100.0% CPU use with 1 MPI tasks x no OpenMP threads

MPI task timing breakdown:
Section |  min time  |  avg time  |  max time  |%varavg| %total
---------------------------------------------------------------
Pair    | 20.88      | 20.88      | 20.88      |   0.0 | 48.66
Neigh   | 20.772     | 20.772     | 20.772     |   0.0 | 48.41
Comm    | 0.42998    | 0.42998    | 0.42998    |   0.0 |  1.00
Output  | 0.044733   | 0.044733   | 0.044733   |   0.0 |  0.10
Modify  | 0.62184    | 0.62184    | 0.62184    |   0.0 |  1.45
Other   |            | 0.1591     |            |       |  0.37

Nlocal:    19652 ave 19652 max 19652 min
Histogram: 1 0 0 0 0 0 0 0 0 0
Nghost:    13953 ave 13953 max 13953 min
Histogram: 1 0 0 0 0 0 0 0 0 0
Neighs:    747557 ave 747557 max 747557 min
Histogram: 1 0 0 0 0 0 0 0 0 0

Total # of neighbors = 747557
Ave neighs/atom = 38.0397
Neighbor list builds = 495
Dangerous builds not checked
Setting up Verlet run ...
  Unit style    : metal
  Current step  : 40495
  Time step     : 0.001
Per MPI rank memory allocation (min/avg/max) = 18.21 | 18.21 | 18.21 Mbytes
Step Temp Press TotEng PotEng Enthalpy 
   40495    2414.1402   -47.842798   -14793.101   -20925.237    -14812.71 
   46667    2393.9021    24.497871    -14839.63    -20920.36   -14829.629 
Loop time of 634.247 on 1 procs for 6172 steps with 19652 atoms

Performance: 0.841 ns/day, 28.545 hours/ns, 9.731 timesteps/s
99.5% CPU use with 1 MPI tasks x no OpenMP threads

MPI task timing breakdown:
Section |  min time  |  avg time  |  max time  |%varavg| %total
---------------------------------------------------------------
Pair    | 322.94     | 322.94     | 322.94     |   0.0 | 50.92
Neigh   | 293.75     | 293.75     | 293.75     |   0.0 | 46.32
Comm    | 6.321      | 6.321      | 6.321      |   0.0 |  1.00
Output  | 0.00021791 | 0.00021791 | 0.00021791 |   0.0 |  0.00
Modify  | 8.9439     | 8.9439     | 8.9439     |   0.0 |  1.41
Other   |            | 2.287      |            |       |  0.36

Nlocal:    19652 ave 19652 max 19652 min
Histogram: 1 0 0 0 0 0 0 0 0 0
Nghost:    13970 ave 13970 max 13970 min
Histogram: 1 0 0 0 0 0 0 0 0 0
Neighs:    750295 ave 750295 max 750295 min
Histogram: 1 0 0 0 0 0 0 0 0 0

Total # of neighbors = 750295
Ave neighs/atom = 38.1791
Neighbor list builds = 6172
Dangerous builds not checked
Setting up Verlet run ...
  Unit style    : metal
  Current step  : 46667
  Time step     : 0.001
Per MPI rank memory allocation (min/avg/max) = 18.21 | 18.21 | 18.21 Mbytes
Step Temp Press TotEng PotEng Enthalpy 
   46667    2393.9021    24.497871    -14839.63    -20920.36   -14829.629 
   46669    2395.2457    23.706671   -14839.628    -20923.77   -14829.949 
   47162    2360.4634   -132.76451   -15116.439   -21112.231   -15170.235 
Loop time of 52.0666 on 1 procs for 495 steps with 19652 atoms

Performance: 0.821 ns/day, 29.218 hours/ns, 9.507 timesteps/s
99.7% CPU use with 1 MPI tasks x no OpenMP threads

MPI task timing breakdown:
Section |  min time  |  avg time  |  max time  |%varavg| %total
---------------------------------------------------------------
Pair    | 26.386     | 26.386     | 26.386     |   0.0 | 50.68
Neigh   | 24.082     | 24.082     | 24.082     |   0.0 | 46.25
Comm    | 0.53507    | 0.53507    | 0.53507    |   0.0 |  1.03
Output  | 0.06505    | 0.06505    | 0.06505    |   0.0 |  0.12
Modify  | 0.80099    | 0.80099    | 0.80099    |   0.0 |  1.54
Other   |            | 0.1976     |            |       |  0.38

Nlocal:    19652 ave 19652 max 19652 min
Histogram: 1 0 0 0 0 0 0 0 0 0
Nghost:    13980 ave 13980 max 13980 min
Histogram: 1 0 0 0 0 0 0 0 0 0
Neighs:    756026 ave 756026 max 756026 min
Histogram: 1 0 0 0 0 0 0 0 0 0

Total # of neighbors = 756026
Ave neighs/atom = 38.4707
Neighbor list builds = 495
Dangerous builds not checked
Setting up Verlet run ...
  Unit style    : metal
  Current step  : 47162
  Time step     : 0.001
Per MPI rank memory allocation (min/avg/max) = 18.21 | 18.21 | 18.21 Mbytes
Step Temp Press TotEng PotEng Enthalpy 
   47162    2360.4634   -132.76451   -15116.439   -21112.231   -15170.235 
   53334    2354.3029    57.466636   -15296.923   -21277.066   -15273.893 
Loop time of 595.151 on 1 procs for 6172 steps with 19652 atoms

Performance: 0.896 ns/day, 26.785 hours/ns, 10.370 timesteps/s
99.4% CPU use with 1 MPI tasks x no OpenMP threads

MPI task timing breakdown:
Section |  min time  |  avg time  |  max time  |%varavg| %total
---------------------------------------------------------------
Pair    | 301.19     | 301.19     | 301.19     |   0.0 | 50.61
Neigh   | 277.61     | 277.61     | 277.61     |   0.0 | 46.64
Comm    | 5.9205     | 5.9205     | 5.9205     |   0.0 |  0.99
Output  | 0.00017715 | 0.00017715 | 0.00017715 |   0.0 |  0.00
Modify  | 8.2917     | 8.2917     | 8.2917     |   0.0 |  1.39
Other   |            | 2.142      |            |       |  0.36

Nlocal:    19652 ave 19652 max 19652 min
Histogram: 1 0 0 0 0 0 0 0 0 0
Nghost:    14023 ave 14023 max 14023 min
Histogram: 1 0 0 0 0 0 0 0 0 0
Neighs:    764270 ave 764270 max 764270 min
Histogram: 1 0 0 0 0 0 0 0 0 0

Total # of neighbors = 764270
Ave neighs/atom = 38.8902
Neighbor list builds = 6172
Dangerous builds not checked
Setting up Verlet run ...
  Unit style    : metal
  Current step  : 53334
  Time step     : 0.001
Per MPI rank memory allocation (min/avg/max) = 18.21 | 18.21 | 18.21 Mbytes
Step Temp Press TotEng PotEng Enthalpy 
   53334    2354.3029    57.466636   -15296.923   -21277.066   -15273.893 
   53336    2354.5261    55.503809   -15296.926   -21277.637   -15274.684 
   53829    2321.5966   -30.126902   -15499.901   -21396.968    -15511.91 
Loop time of 40.4608 on 1 procs for 495 steps with 19652 atoms

Performance: 1.057 ns/day, 22.705 hours/ns, 12.234 timesteps/s
100.0% CPU use with 1 MPI tasks x no OpenMP threads

MPI task timing breakdown:
Section |  min time  |  avg time  |  max time  |%varavg| %total
---------------------------------------------------------------
Pair    | 19.651     | 19.651     | 19.651     |   0.0 | 48.57
Neigh   | 19.623     | 19.623     | 19.623     |   0.0 | 48.50
Comm    | 0.40245    | 0.40245    | 0.40245    |   0.0 |  0.99
Output  | 0.062951   | 0.062951   | 0.062951   |   0.0 |  0.16
Modify  | 0.5722     | 0.5722     | 0.5722     |   0.0 |  1.41
Other   |            | 0.1485     |            |       |  0.37

Nlocal:    19652 ave 19652 max 19652 min
Histogram: 1 0 0 0 0 0 0 0 0 0
Nghost:    14133 ave 14133 max 14133 min
Histogram: 1 0 0 0 0 0 0 0 0 0
Neighs:    768123 ave 768123 max 768123 min
Histogram: 1 0 0 0 0 0 0 0 0 0

Total # of neighbors = 768123
Ave neighs/atom = 39.0863
Neighbor list builds = 495
Dangerous builds not checked
Setting up Verlet run ...
  Unit style    : metal
  Current step  : 53829
  Time step     : 0.001
Per MPI rank memory allocation (min/avg/max) = 18.21 | 18.21 | 18.21 Mbytes
Step Temp Press TotEng PotEng Enthalpy 
   53829    2321.5966   -30.126902   -15499.901   -21396.968    -15511.91 
   60001    2300.4389    648.26118   -15695.318   -21538.643   -15439.909 
Loop time of 542.545 on 1 procs for 6172 steps with 19652 atoms

Performance: 0.983 ns/day, 24.418 hours/ns, 11.376 timesteps/s
99.9% CPU use with 1 MPI tasks x no OpenMP threads

MPI task timing breakdown:
Section |  min time  |  avg time  |  max time  |%varavg| %total
---------------------------------------------------------------
Pair    | 268.99     | 268.99     | 268.99     |   0.0 | 49.58
Neigh   | 258.72     | 258.72     | 258.72     |   0.0 | 47.69
Comm    | 5.4014     | 5.4014     | 5.4014     |   0.0 |  1.00
Output  | 0.00012612 | 0.00012612 | 0.00012612 |   0.0 |  0.00
Modify  | 7.4962     | 7.4962     | 7.4962     |   0.0 |  1.38
Other   |            | 1.94       |            |       |  0.36

Nlocal:    19652 ave 19652 max 19652 min
Histogram: 1 0 0 0 0 0 0 0 0 0
Nghost:    14137 ave 14137 max 14137 min
Histogram: 1 0 0 0 0 0 0 0 0 0
Neighs:    777503 ave 777503 max 777503 min
Histogram: 1 0 0 0 0 0 0 0 0 0

Total # of neighbors = 777503
Ave neighs/atom = 39.5636
Neighbor list builds = 6172
Dangerous builds not checked
Setting up Verlet run ...
  Unit style    : metal
  Current step  : 60001
  Time step     : 0.001
Per MPI rank memory allocation (min/avg/max) = 18.21 | 18.21 | 18.21 Mbytes
Step Temp Press TotEng PotEng Enthalpy 
   60001    2300.4389    648.26118   -15695.318   -21538.643   -15439.909 
   60003    2301.1409    638.79104   -15695.318   -21540.426    -15443.64 
   60496    2271.3994   -458.32619   -15773.544   -21543.105   -15955.014 
Loop time of 44.2752 on 1 procs for 495 steps with 19652 atoms

Performance: 0.966 ns/day, 24.846 hours/ns, 11.180 timesteps/s
99.6% CPU use with 1 MPI tasks x no OpenMP threads

MPI task timing breakdown:
Section |  min time  |  avg time  |  max time  |%varavg| %total
---------------------------------------------------------------
Pair    | 21.865     | 21.865     | 21.865     |   0.0 | 49.38
Neigh   | 21.05      | 21.05      | 21.05      |   0.0 | 47.54
Comm    | 0.44052    | 0.44052    | 0.44052    |   0.0 |  0.99
Output  | 0.12383    | 0.12383    | 0.12383    |   0.0 |  0.28
Modify  | 0.63464    | 0.63464    | 0.63464    |   0.0 |  1.43
Other   |            | 0.1609     |            |       |  0.36

Nlocal:    19652 ave 19652 max 19652 min
Histogram: 1 0 0 0 0 0 0 0 0 0
Nghost:    14063 ave 14063 max 14063 min
Histogram: 1 0 0 0 0 0 0 0 0 0
Neighs:    773749 ave 773749 max 773749 min
Histogram: 1 0 0 0 0 0 0 0 0 0

Total # of neighbors = 773749
Ave neighs/atom = 39.3725
Neighbor list builds = 495
Dangerous builds not checked
Setting up Verlet run ...
  Unit style    : metal
  Current step  : 60496
  Time step     : 0.001
Per MPI rank memory allocation (min/avg/max) = 18.21 | 18.21 | 18.21 Mbytes
Step Temp Press TotEng PotEng Enthalpy 
   60496    2271.3994   -458.32619   -15773.544   -21543.105   -15955.014 
   66668    2263.3621    238.16838   -15835.686   -21584.832   -15741.995 
Loop time of 580.541 on 1 procs for 6172 steps with 19652 atoms

Performance: 0.919 ns/day, 26.128 hours/ns, 10.631 timesteps/s
99.8% CPU use with 1 MPI tasks x no OpenMP threads

MPI task timing breakdown:
Section |  min time  |  avg time  |  max time  |%varavg| %total
---------------------------------------------------------------
Pair    | 293.39     | 293.39     | 293.39     |   0.0 | 50.54
Neigh   | 271.22     | 271.22     | 271.22     |   0.0 | 46.72
Comm    | 5.7565     | 5.7565     | 5.7565     |   0.0 |  0.99
Output  | 0.00018692 | 0.00018692 | 0.00018692 |   0.0 |  0.00
Modify  | 8.0702     | 8.0702     | 8.0702     |   0.0 |  1.39
Other   |            | 2.101      |            |       |  0.36

Nlocal:    19652 ave 19652 max 19652 min
Histogram: 1 0 0 0 0 0 0 0 0 0
Nghost:    14184 ave 14184 max 14184 min
Histogram: 1 0 0 0 0 0 0 0 0 0
Neighs:    778479 ave 778479 max 778479 min
Histogram: 1 0 0 0 0 0 0 0 0 0

Total # of neighbors = 778479
Ave neighs/atom = 39.6132
Neighbor list builds = 6172
Dangerous builds not checked
Setting up Verlet run ...
  Unit style    : metal
  Current step  : 66668
  Time step     : 0.001
Per MPI rank memory allocation (min/avg/max) = 18.21 | 18.21 | 18.21 Mbytes
Step Temp Press TotEng PotEng Enthalpy 
   66668    2263.3621    238.16838   -15835.686   -21584.832   -15741.995 
   66670    2263.6636    230.57119     -15835.7   -21585.612   -15744.997 
   67163    2214.3482   -382.80303   -16094.101   -21718.747   -16244.256 
Loop time of 38.1048 on 1 procs for 495 steps with 19652 atoms

Performance: 1.122 ns/day, 21.383 hours/ns, 12.990 timesteps/s
99.8% CPU use with 1 MPI tasks x no OpenMP threads

MPI task timing breakdown:
Section |  min time  |  avg time  |  max time  |%varavg| %total
---------------------------------------------------------------
Pair    | 18.57      | 18.57      | 18.57      |   0.0 | 48.74
Neigh   | 18.444     | 18.444     | 18.444     |   0.0 | 48.40
Comm    | 0.37363    | 0.37363    | 0.37363    |   0.0 |  0.98
Output  | 0.041818   | 0.041818   | 0.041818   |   0.0 |  0.11
Modify  | 0.5335     | 0.5335     | 0.5335     |   0.0 |  1.40
Other   |            | 0.141      |            |       |  0.37

Nlocal:    19652 ave 19652 max 19652 min
Histogram: 1 0 0 0 0 0 0 0 0 0
Nghost:    14118 ave 14118 max 14118 min
Histogram: 1 0 0 0 0 0 0 0 0 0
Neighs:    780475 ave 780475 max 780475 min
Histogram: 1 0 0 0 0 0 0 0 0 0

Total # of neighbors = 780475
Ave neighs/atom = 39.7148
Neighbor list builds = 495
Dangerous builds not checked
Setting up Verlet run ...
  Unit style    : metal
  Current step  : 67163
  Time step     : 0.001
Per MPI rank memory allocation (min/avg/max) = 18.21 | 18.21 | 18.21 Mbytes
Step Temp Press TotEng PotEng Enthalpy 
   67163    2214.3482   -382.80303   -16094.101   -21718.747   -16244.256 
   73335    2196.9008    94.185495   -16247.523   -21827.851   -16210.869 
Loop time of 527.925 on 1 procs for 6172 steps with 19652 atoms

Performance: 1.010 ns/day, 23.760 hours/ns, 11.691 timesteps/s
99.8% CPU use with 1 MPI tasks x no OpenMP threads

MPI task timing breakdown:
Section |  min time  |  avg time  |  max time  |%varavg| %total
---------------------------------------------------------------
Pair    | 263.28     | 263.28     | 263.28     |   0.0 | 49.87
Neigh   | 250.4      | 250.4      | 250.4      |   0.0 | 47.43
Comm    | 5.2356     | 5.2356     | 5.2356     |   0.0 |  0.99
Output  | 0.00022411 | 0.00022411 | 0.00022411 |   0.0 |  0.00
Modify  | 7.1456     | 7.1456     | 7.1456     |   0.0 |  1.35
Other   |            | 1.869      |            |       |  0.35

Nlocal:    19652 ave 19652 max 19652 min
Histogram: 1 0 0 0 0 0 0 0 0 0
Nghost:    14202 ave 14202 max 14202 min
Histogram: 1 0 0 0 0 0 0 0 0 0
Neighs:    786408 ave 786408 max 786408 min
Histogram: 1 0 0 0 0 0 0 0 0 0

Total # of neighbors = 786408
Ave neighs/atom = 40.0167
Neighbor list builds = 6172
Dangerous builds not checked
Setting up Verlet run ...
  Unit style    : metal
  Current step  : 73335
  Time step     : 0.001
Per MPI rank memory allocation (min/avg/max) = 18.21 | 18.21 | 18.21 Mbytes
Step Temp Press TotEng PotEng Enthalpy 
   73335    2196.9008    94.185495   -16247.523   -21827.851   -16210.869 
   73337    2197.1607    95.620869   -16247.522    -21828.51   -16210.309 
   73830     2156.303    95.778104   -16440.417   -21917.623   -16403.318 
Loop time of 41.6905 on 1 procs for 495 steps with 19652 atoms

Performance: 1.026 ns/day, 23.395 hours/ns, 11.873 timesteps/s
100.0% CPU use with 1 MPI tasks x no OpenMP threads

MPI task timing breakdown:
Section |  min time  |  avg time  |  max time  |%varavg| %total
---------------------------------------------------------------
Pair    | 20.601     | 20.601     | 20.601     |   0.0 | 49.41
Neigh   | 19.874     | 19.874     | 19.874     |   0.0 | 47.67
Comm    | 0.41413    | 0.41413    | 0.41413    |   0.0 |  0.99
Output  | 0.051384   | 0.051384   | 0.051384   |   0.0 |  0.12
Modify  | 0.59534    | 0.59534    | 0.59534    |   0.0 |  1.43
Other   |            | 0.1546     |            |       |  0.37

Nlocal:    19652 ave 19652 max 19652 min
Histogram: 1 0 0 0 0 0 0 0 0 0
Nghost:    14184 ave 14184 max 14184 min
Histogram: 1 0 0 0 0 0 0 0 0 0
Neighs:    790719 ave 790719 max 790719 min
Histogram: 1 0 0 0 0 0 0 0 0 0

Total # of neighbors = 790719
Ave neighs/atom = 40.2361
Neighbor list builds = 495
Dangerous builds not checked
Setting up Verlet run ...
  Unit style    : metal
  Current step  : 73830
  Time step     : 0.001
Per MPI rank memory allocation (min/avg/max) = 18.21 | 18.21 | 18.21 Mbytes
Step Temp Press TotEng PotEng Enthalpy 
   73830     2156.303    95.778104   -16440.417   -21917.623   -16403.318 
   80002    2139.8901    315.41837   -16586.528   -22022.044   -16465.453 
Loop time of 556.994 on 1 procs for 6172 steps with 19652 atoms

Performance: 0.957 ns/day, 25.068 hours/ns, 11.081 timesteps/s
99.7% CPU use with 1 MPI tasks x no OpenMP threads

MPI task timing breakdown:
Section |  min time  |  avg time  |  max time  |%varavg| %total
---------------------------------------------------------------
Pair    | 280.19     | 280.19     | 280.19     |   0.0 | 50.30
Neigh   | 261.79     | 261.79     | 261.79     |   0.0 | 47.00
Comm    | 5.4921     | 5.4921     | 5.4921     |   0.0 |  0.99
Output  | 0.00016809 | 0.00016809 | 0.00016809 |   0.0 |  0.00
Modify  | 7.5547     | 7.5547     | 7.5547     |   0.0 |  1.36
Other   |            | 1.969      |            |       |  0.35

Nlocal:    19652 ave 19652 max 19652 min
Histogram: 1 0 0 0 0 0 0 0 0 0
Nghost:    14411 ave 14411 max 14411 min
Histogram: 1 0 0 0 0 0 0 0 0 0
Neighs:    797759 ave 797759 max 797759 min
Histogram: 1 0 0 0 0 0 0 0 0 0

Total # of neighbors = 797759
Ave neighs/atom = 40.5943
Neighbor list builds = 6172
Dangerous builds not checked
Setting up Verlet run ...
  Unit style    : metal
  Current step  : 80002
  Time step     : 0.001
Per MPI rank memory allocation (min/avg/max) = 18.23 | 18.23 | 18.23 Mbytes
Step Temp Press TotEng PotEng Enthalpy 
   80002    2139.8901    315.41837   -16586.528   -22022.044   -16465.453 
   80004    2139.9031    325.32036   -16586.517   -22022.066   -16461.641 
   80497    2096.8201    119.87154   -16738.876    -22064.99    -16692.84 
Loop time of 44.5062 on 1 procs for 495 steps with 19652 atoms

Performance: 0.961 ns/day, 24.975 hours/ns, 11.122 timesteps/s
100.0% CPU use with 1 MPI tasks x no OpenMP threads

MPI task timing breakdown:
Section |  min time  |  avg time  |  max time  |%varavg| %total
---------------------------------------------------------------
Pair    | 22.397     | 22.397     | 22.397     |   0.0 | 50.32
Neigh   | 20.812     | 20.812     | 20.812     |   0.0 | 46.76
Comm    | 0.44718    | 0.44718    | 0.44718    |   0.0 |  1.00
Output  | 0.051163   | 0.051163   | 0.051163   |   0.0 |  0.11
Modify  | 0.63302    | 0.63302    | 0.63302    |   0.0 |  1.42
Other   |            | 0.1655     |            |       |  0.37

Nlocal:    19652 ave 19652 max 19652 min
Histogram: 1 0 0 0 0 0 0 0 0 0
Nghost:    14246 ave 14246 max 14246 min
Histogram: 1 0 0 0 0 0 0 0 0 0
Neighs:    797287 ave 797287 max 797287 min
Histogram: 1 0 0 0 0 0 0 0 0 0

Total # of neighbors = 797287
Ave neighs/atom = 40.5703
Neighbor list builds = 495
Dangerous builds not checked
Setting up Verlet run ...
  Unit style    : metal
  Current step  : 80497
  Time step     : 0.001
Per MPI rank memory allocation (min/avg/max) = 18.23 | 18.23 | 18.23 Mbytes
Step Temp Press TotEng PotEng Enthalpy 
   80497    2096.8201    119.87154   -16738.876    -22064.99    -16692.84 
   86669    2106.4548   -73.122665   -16742.485   -22093.073   -16770.528 
Loop time of 581.266 on 1 procs for 6172 steps with 19652 atoms

Performance: 0.917 ns/day, 26.161 hours/ns, 10.618 timesteps/s
99.9% CPU use with 1 MPI tasks x no OpenMP threads

MPI task timing breakdown:
Section |  min time  |  avg time  |  max time  |%varavg| %total
---------------------------------------------------------------
Pair    | 290.2      | 290.2      | 290.2      |   0.0 | 49.93
Neigh   | 275.81     | 275.81     | 275.81     |   0.0 | 47.45
Comm    | 5.5853     | 5.5853     | 5.5853     |   0.0 |  0.96
Output  | 0.00016618 | 0.00016618 | 0.00016618 |   0.0 |  0.00
Modify  | 7.649      | 7.649      | 7.649      |   0.0 |  1.32
Other   |            | 2.024      |            |       |  0.35

Nlocal:    19652 ave 19652 max 19652 min
Histogram: 1 0 0 0 0 0 0 0 0 0
Nghost:    14326 ave 14326 max 14326 min
Histogram: 1 0 0 0 0 0 0 0 0 0
Neighs:    798332 ave 798332 max 798332 min
Histogram: 1 0 0 0 0 0 0 0 0 0

Total # of neighbors = 798332
Ave neighs/atom = 40.6234
Neighbor list builds = 6172
Dangerous builds not checked
Setting up Verlet run ...
  Unit style    : metal
  Current step  : 86669
  Time step     : 0.001
Per MPI rank memory allocation (min/avg/max) = 18.23 | 18.23 | 18.23 Mbytes
Step Temp Press TotEng PotEng Enthalpy 
   86669    2106.4548   -73.122665   -16742.485   -22093.073   -16770.528 
   86671    2106.8903   -70.742082   -16742.493   -22094.187   -16769.624 
   87164    2069.7026    310.35011   -17023.424   -22280.657   -16905.672 
Loop time of 42.9688 on 1 procs for 495 steps with 19652 atoms

Performance: 0.995 ns/day, 24.113 hours/ns, 11.520 timesteps/s
100.0% CPU use with 1 MPI tasks x no OpenMP threads

MPI task timing breakdown:
Section |  min time  |  avg time  |  max time  |%varavg| %total
---------------------------------------------------------------
Pair    | 20.904     | 20.904     | 20.904     |   0.0 | 48.65
Neigh   | 20.839     | 20.839     | 20.839     |   0.0 | 48.50
Comm    | 0.42117    | 0.42117    | 0.42117    |   0.0 |  0.98
Output  | 0.050746   | 0.050746   | 0.050746   |   0.0 |  0.12
Modify  | 0.59612    | 0.59612    | 0.59612    |   0.0 |  1.39
Other   |            | 0.1574     |            |       |  0.37

Nlocal:    19652 ave 19652 max 19652 min
Histogram: 1 0 0 0 0 0 0 0 0 0
Nghost:    14401 ave 14401 max 14401 min
Histogram: 1 0 0 0 0 0 0 0 0 0
Neighs:    807264 ave 807264 max 807264 min
Histogram: 1 0 0 0 0 0 0 0 0 0

Total # of neighbors = 807264
Ave neighs/atom = 41.078
Neighbor list builds = 495
Dangerous builds not checked
Setting up Verlet run ...
  Unit style    : metal
  Current step  : 87164
  Time step     : 0.001
Per MPI rank memory allocation (min/avg/max) = 18.23 | 18.23 | 18.23 Mbytes
Step Temp Press TotEng PotEng Enthalpy 
   87164    2069.7026    310.35011   -17023.424   -22280.657   -16905.672 
   93336     2046.561    50.229427   -17129.236   -22327.687   -17110.198 
Loop time of 598.918 on 1 procs for 6172 steps with 19652 atoms

Performance: 0.890 ns/day, 26.955 hours/ns, 10.305 timesteps/s
99.7% CPU use with 1 MPI tasks x no OpenMP threads

MPI task timing breakdown:
Section |  min time  |  avg time  |  max time  |%varavg| %total
---------------------------------------------------------------
Pair    | 299.06     | 299.06     | 299.06     |   0.0 | 49.93
Neigh   | 284.23     | 284.23     | 284.23     |   0.0 | 47.46
Comm    | 5.7051     | 5.7051     | 5.7051     |   0.0 |  0.95
Output  | 0.00015688 | 0.00015688 | 0.00015688 |   0.0 |  0.00
Modify  | 7.8511     | 7.8511     | 7.8511     |   0.0 |  1.31
Other   |            | 2.069      |            |       |  0.35

Nlocal:    19652 ave 19652 max 19652 min
Histogram: 1 0 0 0 0 0 0 0 0 0
Nghost:    14378 ave 14378 max 14378 min
Histogram: 1 0 0 0 0 0 0 0 0 0
Neighs:    807515 ave 807515 max 807515 min
Histogram: 1 0 0 0 0 0 0 0 0 0

Total # of neighbors = 807515
Ave neighs/atom = 41.0907
Neighbor list builds = 6172
Dangerous builds not checked
Setting up Verlet run ...
  Unit style    : metal
  Current step  : 93336
  Time step     : 0.001
Per MPI rank memory allocation (min/avg/max) = 18.23 | 18.23 | 18.23 Mbytes
Step Temp Press TotEng PotEng Enthalpy 
   93336     2046.561    50.229427   -17129.236   -22327.687   -17110.198 
   93338    2047.0384    39.555123   -17129.234   -22328.898   -17114.242 
   93831    2041.9536    -114.9919   -17356.383   -22543.131   -17399.586 
Loop time of 47.0825 on 1 procs for 495 steps with 19652 atoms

Performance: 0.908 ns/day, 26.421 hours/ns, 10.513 timesteps/s
99.9% CPU use with 1 MPI tasks x no OpenMP threads

MPI task timing breakdown:
Section |  min time  |  avg time  |  max time  |%varavg| %total
---------------------------------------------------------------
Pair    | 23.305     | 23.305     | 23.305     |   0.0 | 49.50
Neigh   | 22.465     | 22.465     | 22.465     |   0.0 | 47.71
Comm    | 0.45329    | 0.45329    | 0.45329    |   0.0 |  0.96
Output  | 0.053343   | 0.053343   | 0.053343   |   0.0 |  0.11
Modify  | 0.64069    | 0.64069    | 0.64069    |   0.0 |  1.36
Other   |            | 0.165      |            |       |  0.35

Nlocal:    19652 ave 19652 max 19652 min
Histogram: 1 0 0 0 0 0 0 0 0 0
Nghost:    14316 ave 14316 max 14316 min
Histogram: 1 0 0 0 0 0 0 0 0 0
Neighs:    814519 ave 814519 max 814519 min
Histogram: 1 0 0 0 0 0 0 0 0 0

Total # of neighbors = 814519
Ave neighs/atom = 41.4471
Neighbor list builds = 495
Dangerous builds not checked
Setting up Verlet run ...
  Unit style    : metal
  Current step  : 93831
  Time step     : 0.001
Per MPI rank memory allocation (min/avg/max) = 18.23 | 18.23 | 18.23 Mbytes
Step Temp Press TotEng PotEng Enthalpy 
   93831    2041.9536    -114.9919   -17356.383   -22543.131   -17399.586 
  100003    2004.0808   -248.69382   -17409.089   -22499.637   -17502.675 
Loop time of 596.472 on 1 procs for 6172 steps with 19652 atoms

Performance: 0.894 ns/day, 26.845 hours/ns, 10.348 timesteps/s
99.8% CPU use with 1 MPI tasks x no OpenMP threads

MPI task timing breakdown:
Section |  min time  |  avg time  |  max time  |%varavg| %total
---------------------------------------------------------------
Pair    | 297.49     | 297.49     | 297.49     |   0.0 | 49.87
Neigh   | 283.54     | 283.54     | 283.54     |   0.0 | 47.54
Comm    | 5.6404     | 5.6404     | 5.6404     |   0.0 |  0.95
Output  | 0.0001781  | 0.0001781  | 0.0001781  |   0.0 |  0.00
Modify  | 7.7771     | 7.7771     | 7.7771     |   0.0 |  1.30
Other   |            | 2.029      |            |       |  0.34

Nlocal:    19652 ave 19652 max 19652 min
Histogram: 1 0 0 0 0 0 0 0 0 0
Nghost:    14447 ave 14447 max 14447 min
Histogram: 1 0 0 0 0 0 0 0 0 0
Neighs:    813603 ave 813603 max 813603 min
Histogram: 1 0 0 0 0 0 0 0 0 0

Total # of neighbors = 813603
Ave neighs/atom = 41.4005
Neighbor list builds = 6172
Dangerous builds not checked
Setting up Verlet run ...
  Unit style    : metal
  Current step  : 100003
  Time step     : 0.001
Per MPI rank memory allocation (min/avg/max) = 18.23 | 18.23 | 18.23 Mbytes
Step Temp Press TotEng PotEng Enthalpy 
  100003    2004.0808   -248.69382   -17409.089   -22499.637   -17502.675 
  100005    2005.9211   -262.97269     -17409.1   -22504.323    -17508.06 
  100498    1963.9632    152.76663   -17639.217   -22627.862   -17582.189 
Loop time of 45.625 on 1 procs for 495 steps with 19652 atoms

Performance: 0.937 ns/day, 25.603 hours/ns, 10.849 timesteps/s
100.0% CPU use with 1 MPI tasks x no OpenMP threads

MPI task timing breakdown:
Section |  min time  |  avg time  |  max time  |%varavg| %total
---------------------------------------------------------------
Pair    | 22.416     | 22.416     | 22.416     |   0.0 | 49.13
Neigh   | 21.944     | 21.944     | 21.944     |   0.0 | 48.10
Comm    | 0.43456    | 0.43456    | 0.43456    |   0.0 |  0.95
Output  | 0.05829    | 0.05829    | 0.05829    |   0.0 |  0.13
Modify  | 0.61145    | 0.61145    | 0.61145    |   0.0 |  1.34
Other   |            | 0.1608     |            |       |  0.35

Nlocal:    19652 ave 19652 max 19652 min
Histogram: 1 0 0 0 0 0 0 0 0 0
Nghost:    14474 ave 14474 max 14474 min
Histogram: 1 0 0 0 0 0 0 0 0 0
Neighs:    820595 ave 820595 max 820595 min
Histogram: 1 0 0 0 0 0 0 0 0 0

Total # of neighbors = 820595
Ave neighs/atom = 41.7563
Neighbor list builds = 495
Dangerous builds not checked
Setting up Verlet run ...
  Unit style    : metal
  Current step  : 100498
  Time step     : 0.001
Per MPI rank memory allocation (min/avg/max) = 18.23 | 18.23 | 18.23 Mbytes
Step Temp Press TotEng PotEng Enthalpy 
  100498    1963.9632    152.76663   -17639.217   -22627.862   -17582.189 
  106670    1946.6166    322.40253    -17799.66   -22744.244   -17680.059 
Loop time of 580.806 on 1 procs for 6172 steps with 19652 atoms

Performance: 0.918 ns/day, 26.140 hours/ns, 10.627 timesteps/s
100.0% CPU use with 1 MPI tasks x no OpenMP threads

MPI task timing breakdown:
Section |  min time  |  avg time  |  max time  |%varavg| %total
---------------------------------------------------------------
Pair    | 289.41     | 289.41     | 289.41     |   0.0 | 49.83
Neigh   | 276.45     | 276.45     | 276.45     |   0.0 | 47.60
Comm    | 5.4543     | 5.4543     | 5.4543     |   0.0 |  0.94
Output  | 0.000175   | 0.000175   | 0.000175   |   0.0 |  0.00
Modify  | 7.5206     | 7.5206     | 7.5206     |   0.0 |  1.29
Other   |            | 1.97       |            |       |  0.34

Nlocal:    19652 ave 19652 max 19652 min
Histogram: 1 0 0 0 0 0 0 0 0 0
Nghost:    14464 ave 14464 max 14464 min
Histogram: 1 0 0 0 0 0 0 0 0 0
Neighs:    825498 ave 825498 max 825498 min
Histogram: 1 0 0 0 0 0 0 0 0 0

Total # of neighbors = 825498
Ave neighs/atom = 42.0058
Neighbor list builds = 6172
Dangerous builds not checked
Setting up Verlet run ...
  Unit style    : metal
  Current step  : 106670
  Time step     : 0.001
Per MPI rank memory allocation (min/avg/max) = 18.23 | 18.23 | 18.23 Mbytes
Step Temp Press TotEng PotEng Enthalpy 
  106670    1946.6166    322.40253    -17799.66   -22744.244   -17680.059 
  106672    1948.4457    286.11131   -17799.659   -22748.889   -17693.521 
  107165    1904.9276   -148.48177   -17955.145   -22793.835   -18010.125 
Loop time of 43.7756 on 1 procs for 495 steps with 19652 atoms

Performance: 0.977 ns/day, 24.565 hours/ns, 11.308 timesteps/s
100.0% CPU use with 1 MPI tasks x no OpenMP threads

MPI task timing breakdown:
Section |  min time  |  avg time  |  max time  |%varavg| %total
---------------------------------------------------------------
Pair    | 21.424     | 21.424     | 21.424     |   0.0 | 48.94
Neigh   | 21.138     | 21.138     | 21.138     |   0.0 | 48.29
Comm    | 0.4186     | 0.4186     | 0.4186     |   0.0 |  0.96
Output  | 0.043969   | 0.043969   | 0.043969   |   0.0 |  0.10
Modify  | 0.59568    | 0.59568    | 0.59568    |   0.0 |  1.36
Other   |            | 0.1556     |            |       |  0.36

Nlocal:    19652 ave 19652 max 19652 min
Histogram: 1 0 0 0 0 0 0 0 0 0
Nghost:    14513 ave 14513 max 14513 min
Histogram: 1 0 0 0 0 0 0 0 0 0
Neighs:    826447 ave 826447 max 826447 min
Histogram: 1 0 0 0 0 0 0 0 0 0

Total # of neighbors = 826447
Ave neighs/atom = 42.0541
Neighbor list builds = 495
Dangerous builds not checked
Setting up Verlet run ...
  Unit style    : metal
  Current step  : 107165
  Time step     : 0.001
Per MPI rank memory allocation (min/avg/max) = 18.23 | 18.23 | 18.23 Mbytes
Step Temp Press TotEng PotEng Enthalpy 
  107165    1904.9276   -148.48177   -17955.145   -22793.835   -18010.125 
  113337    1899.0873   -367.38402   -18025.375    -22849.23    -18161.38 
Loop time of 580.204 on 1 procs for 6172 steps with 19652 atoms

Performance: 0.919 ns/day, 26.113 hours/ns, 10.638 timesteps/s
100.0% CPU use with 1 MPI tasks x no OpenMP threads

MPI task timing breakdown:
Section |  min time  |  avg time  |  max time  |%varavg| %total
---------------------------------------------------------------
Pair    | 288.93     | 288.93     | 288.93     |   0.0 | 49.80
Neigh   | 276.47     | 276.47     | 276.47     |   0.0 | 47.65
Comm    | 5.4086     | 5.4086     | 5.4086     |   0.0 |  0.93
Output  | 0.00016809 | 0.00016809 | 0.00016809 |   0.0 |  0.00
Modify  | 7.4472     | 7.4472     | 7.4472     |   0.0 |  1.28
Other   |            | 1.947      |            |       |  0.34

Nlocal:    19652 ave 19652 max 19652 min
Histogram: 1 0 0 0 0 0 0 0 0 0
Nghost:    14558 ave 14558 max 14558 min
Histogram: 1 0 0 0 0 0 0 0 0 0
Neighs:    826731 ave 826731 max 826731 min
Histogram: 1 0 0 0 0 0 0 0 0 0

Total # of neighbors = 826731
Ave neighs/atom = 42.0685
Neighbor list builds = 6172
Dangerous builds not checked
Setting up Verlet run ...
  Unit style    : metal
  Current step  : 113337
  Time step     : 0.001
Per MPI rank memory allocation (min/avg/max) = 18.23 | 18.23 | 18.23 Mbytes
Step Temp Press TotEng PotEng Enthalpy 
  113337    1899.0873   -367.38402   -18025.375    -22849.23    -18161.38 
  113339    1898.5787    -362.8487   -18025.373   -22847.936   -18159.698 
  113832    1858.6574    5.6966273   -18228.928   -22950.087   -18226.835 
Loop time of 46.7593 on 1 procs for 495 steps with 19652 atoms

Performance: 0.915 ns/day, 26.240 hours/ns, 10.586 timesteps/s
100.0% CPU use with 1 MPI tasks x no OpenMP threads

MPI task timing breakdown:
Section |  min time  |  avg time  |  max time  |%varavg| %total
---------------------------------------------------------------
Pair    | 23.195     | 23.195     | 23.195     |   0.0 | 49.60
Neigh   | 22.272     | 22.272     | 22.272     |   0.0 | 47.63
Comm    | 0.44406    | 0.44406    | 0.44406    |   0.0 |  0.95
Output  | 0.051558   | 0.051558   | 0.051558   |   0.0 |  0.11
Modify  | 0.63224    | 0.63224    | 0.63224    |   0.0 |  1.35
Other   |            | 0.1649     |            |       |  0.35

Nlocal:    19652 ave 19652 max 19652 min
Histogram: 1 0 0 0 0 0 0 0 0 0
Nghost:    14548 ave 14548 max 14548 min
Histogram: 1 0 0 0 0 0 0 0 0 0
Neighs:    833708 ave 833708 max 833708 min
Histogram: 1 0 0 0 0 0 0 0 0 0

Total # of neighbors = 833708
Ave neighs/atom = 42.4236
Neighbor list builds = 495
Dangerous builds not checked
Setting up Verlet run ...
  Unit style    : metal
  Current step  : 113832
  Time step     : 0.001
Per MPI rank memory allocation (min/avg/max) = 18.23 | 18.23 | 18.23 Mbytes
Step Temp Press TotEng PotEng Enthalpy 
  113832    1858.6574    5.6966273   -18228.928   -22950.087   -18226.835 
  120004     1861.451   -340.35597   -18283.926   -23012.181   -18408.981 
Loop time of 579.656 on 1 procs for 6172 steps with 19652 atoms

Performance: 0.920 ns/day, 26.088 hours/ns, 10.648 timesteps/s
100.0% CPU use with 1 MPI tasks x no OpenMP threads

MPI task timing breakdown:
Section |  min time  |  avg time  |  max time  |%varavg| %total
---------------------------------------------------------------
Pair    | 289.77     | 289.77     | 289.77     |   0.0 | 49.99
Neigh   | 275.07     | 275.07     | 275.07     |   0.0 | 47.45
Comm    | 5.4276     | 5.4276     | 5.4276     |   0.0 |  0.94
Output  | 0.00017095 | 0.00017095 | 0.00017095 |   0.0 |  0.00
Modify  | 7.4415     | 7.4415     | 7.4415     |   0.0 |  1.28
Other   |            | 1.949      |            |       |  0.34

Nlocal:    19652 ave 19652 max 19652 min
Histogram: 1 0 0 0 0 0 0 0 0 0
Nghost:    14610 ave 14610 max 14610 min
Histogram: 1 0 0 0 0 0 0 0 0 0
Neighs:    833123 ave 833123 max 833123 min
Histogram: 1 0 0 0 0 0 0 0 0 0

Total # of neighbors = 833123
Ave neighs/atom = 42.3938
Neighbor list builds = 6172
Dangerous builds not checked
Setting up Verlet run ...
  Unit style    : metal
  Current step  : 120004
  Time step     : 0.001
Per MPI rank memory allocation (min/avg/max) = 18.23 | 18.23 | 18.23 Mbytes
Step Temp Press TotEng PotEng Enthalpy 
  120004     1861.451   -340.35597   -18283.926   -23012.181   -18408.981 
  120006    1861.8222   -341.88368   -18283.937   -23013.135   -18409.553 
  120499     1813.946    203.59209   -18503.728   -23111.316    -18429.49 
Loop time of 45.902 on 1 procs for 495 steps with 19652 atoms

Performance: 0.932 ns/day, 25.759 hours/ns, 10.784 timesteps/s
100.0% CPU use with 1 MPI tasks x no OpenMP threads

MPI task timing breakdown:
Section |  min time  |  avg time  |  max time  |%varavg| %total
---------------------------------------------------------------
Pair    | 22.788     | 22.788     | 22.788     |   0.0 | 49.65
Neigh   | 21.911     | 21.911     | 21.911     |   0.0 | 47.73
Comm    | 0.41965    | 0.41965    | 0.41965    |   0.0 |  0.91
Output  | 0.045397   | 0.045397   | 0.045397   |   0.0 |  0.10
Modify  | 0.58332    | 0.58332    | 0.58332    |   0.0 |  1.27
Other   |            | 0.1545     |            |       |  0.34

Nlocal:    19652 ave 19652 max 19652 min
Histogram: 1 0 0 0 0 0 0 0 0 0
Nghost:    14666 ave 14666 max 14666 min
Histogram: 1 0 0 0 0 0 0 0 0 0
Neighs:    839896 ave 839896 max 839896 min
Histogram: 1 0 0 0 0 0 0 0 0 0

Total # of neighbors = 839896
Ave neighs/atom = 42.7384
Neighbor list builds = 495
Dangerous builds not checked
Setting up Verlet run ...
  Unit style    : metal
  Current step  : 120499
  Time step     : 0.001
Per MPI rank memory allocation (min/avg/max) = 18.23 | 18.23 | 18.23 Mbytes
Step Temp Press TotEng PotEng Enthalpy 
  120499     1813.946    203.59209   -18503.728   -23111.316    -18429.49 
  126671    1817.2707   -392.58504   -18536.772   -23152.805    -18680.07 
Loop time of 570.319 on 1 procs for 6172 steps with 19652 atoms

Performance: 0.935 ns/day, 25.668 hours/ns, 10.822 timesteps/s
100.0% CPU use with 1 MPI tasks x no OpenMP threads

MPI task timing breakdown:
Section |  min time  |  avg time  |  max time  |%varavg| %total
---------------------------------------------------------------
Pair    | 283.85     | 283.85     | 283.85     |   0.0 | 49.77
Neigh   | 272.02     | 272.02     | 272.02     |   0.0 | 47.70
Comm    | 5.2894     | 5.2894     | 5.2894     |   0.0 |  0.93
Output  | 0.00019503 | 0.00019503 | 0.00019503 |   0.0 |  0.00
Modify  | 7.2682     | 7.2682     | 7.2682     |   0.0 |  1.27
Other   |            | 1.888      |            |       |  0.33

Nlocal:    19652 ave 19652 max 19652 min
Histogram: 1 0 0 0 0 0 0 0 0 0
Nghost:    14605 ave 14605 max 14605 min
Histogram: 1 0 0 0 0 0 0 0 0 0
Neighs:    838709 ave 838709 max 838709 min
Histogram: 1 0 0 0 0 0 0 0 0 0

Total # of neighbors = 838709
Ave neighs/atom = 42.678
Neighbor list builds = 6172
Dangerous builds not checked
Setting up Verlet run ...
  Unit style    : metal
  Current step  : 126671
  Time step     : 0.001
Per MPI rank memory allocation (min/avg/max) = 18.23 | 18.23 | 18.23 Mbytes
Step Temp Press TotEng PotEng Enthalpy 
  126671    1817.2707   -392.58504   -18536.772   -23152.805    -18680.07 
  126673    1817.2733   -383.81225   -18536.791   -23152.831   -18676.888 
  127166    1771.1855    410.81278   -18800.154   -23299.126   -18651.651 
Loop time of 42.6587 on 1 procs for 495 steps with 19652 atoms

Performance: 1.003 ns/day, 23.939 hours/ns, 11.604 timesteps/s
99.9% CPU use with 1 MPI tasks x no OpenMP threads

MPI task timing breakdown:
Section |  min time  |  avg time  |  max time  |%varavg| %total
---------------------------------------------------------------
Pair    | 20.764     | 20.764     | 20.764     |   0.0 | 48.67
Neigh   | 20.739     | 20.739     | 20.739     |   0.0 | 48.62
Comm    | 0.39939    | 0.39939    | 0.39939    |   0.0 |  0.94
Output  | 0.042431   | 0.042431   | 0.042431   |   0.0 |  0.10
Modify  | 0.56671    | 0.56671    | 0.56671    |   0.0 |  1.33
Other   |            | 0.1473     |            |       |  0.35

Nlocal:    19652 ave 19652 max 19652 min
Histogram: 1 0 0 0 0 0 0 0 0 0
Nghost:    14622 ave 14622 max 14622 min
Histogram: 1 0 0 0 0 0 0 0 0 0
Neighs:    847223 ave 847223 max 847223 min
Histogram: 1 0 0 0 0 0 0 0 0 0

Total # of neighbors = 847223
Ave neighs/atom = 43.1113
Neighbor list builds = 495
Dangerous builds not checked
Setting up Verlet run ...
  Unit style    : metal
  Current step  : 127166
  Time step     : 0.001
Per MPI rank memory allocation (min/avg/max) = 18.23 | 18.23 | 18.23 Mbytes
Step Temp Press TotEng PotEng Enthalpy 
  127166    1771.1855    410.81278   -18800.154   -23299.126   -18651.651 
  133338    1750.6701    369.01064   -18865.678   -23312.539   -18732.555 
Loop time of 564.082 on 1 procs for 6172 steps with 19652 atoms

Performance: 0.945 ns/day, 25.387 hours/ns, 10.942 timesteps/s
100.0% CPU use with 1 MPI tasks x no OpenMP threads

MPI task timing breakdown:
Section |  min time  |  avg time  |  max time  |%varavg| %total
---------------------------------------------------------------
Pair    | 280.69     | 280.69     | 280.69     |   0.0 | 49.76
Neigh   | 269.08     | 269.08     | 269.08     |   0.0 | 47.70
Comm    | 5.2448     | 5.2448     | 5.2448     |   0.0 |  0.93
Output  | 0.00017405 | 0.00017405 | 0.00017405 |   0.0 |  0.00
Modify  | 7.2002     | 7.2002     | 7.2002     |   0.0 |  1.28
Other   |            | 1.867      |            |       |  0.33

Nlocal:    19652 ave 19652 max 19652 min
Histogram: 1 0 0 0 0 0 0 0 0 0
Nghost:    14608 ave 14608 max 14608 min
Histogram: 1 0 0 0 0 0 0 0 0 0
Neighs:    848821 ave 848821 max 848821 min
Histogram: 1 0 0 0 0 0 0 0 0 0

Total # of neighbors = 848821
Ave neighs/atom = 43.1926
Neighbor list builds = 6172
Dangerous builds not checked
Setting up Verlet run ...
  Unit style    : metal
  Current step  : 133338
  Time step     : 0.001
Per MPI rank memory allocation (min/avg/max) = 18.23 | 18.23 | 18.23 Mbytes
Step Temp Press TotEng PotEng Enthalpy 
  133338    1750.6701    369.01064   -18865.678   -23312.539   -18732.555 
  133340    1751.3438    357.45605   -18865.682   -23314.255   -18736.728 
  133833    1703.3535   -55.537467   -19089.695   -23416.368   -19109.679 
Loop time of 44.605 on 1 procs for 495 steps with 19652 atoms

Performance: 0.959 ns/day, 25.031 hours/ns, 11.097 timesteps/s
100.0% CPU use with 1 MPI tasks x no OpenMP threads

MPI task timing breakdown:
Section |  min time  |  avg time  |  max time  |%varavg| %total
---------------------------------------------------------------
Pair    | 22.031     | 22.031     | 22.031     |   0.0 | 49.39
Neigh   | 21.382     | 21.382     | 21.382     |   0.0 | 47.94
Comm    | 0.41005    | 0.41005    | 0.41005    |   0.0 |  0.92
Output  | 0.053167   | 0.053167   | 0.053167   |   0.0 |  0.12
Modify  | 0.57825    | 0.57825    | 0.57825    |   0.0 |  1.30
Other   |            | 0.1505     |            |       |  0.34

Nlocal:    19652 ave 19652 max 19652 min
Histogram: 1 0 0 0 0 0 0 0 0 0
Nghost:    14719 ave 14719 max 14719 min
Histogram: 1 0 0 0 0 0 0 0 0 0
Neighs:    851083 ave 851083 max 851083 min
Histogram: 1 0 0 0 0 0 0 0 0 0

Total # of neighbors = 851083
Ave neighs/atom = 43.3077
Neighbor list builds = 495
Dangerous builds not checked
Setting up Verlet run ...
  Unit style    : metal
  Current step  : 133833
  Time step     : 0.001
Per MPI rank memory allocation (min/avg/max) = 18.23 | 18.23 | 18.23 Mbytes
Step Temp Press TotEng PotEng Enthalpy 
  133833    1703.3535   -55.537467   -19089.695   -23416.368   -19109.679 
  140005     1693.093   -819.58714    -19193.74   -23494.351   -19488.858 
Loop time of 554.222 on 1 procs for 6172 steps with 19652 atoms

Performance: 0.962 ns/day, 24.943 hours/ns, 11.136 timesteps/s
100.0% CPU use with 1 MPI tasks x no OpenMP threads

MPI task timing breakdown:
Section |  min time  |  avg time  |  max time  |%varavg| %total
---------------------------------------------------------------
Pair    | 275.86     | 275.86     | 275.86     |   0.0 | 49.77
Neigh   | 264.4      | 264.4      | 264.4      |   0.0 | 47.71
Comm    | 5.1268     | 5.1268     | 5.1268     |   0.0 |  0.93
Output  | 0.00024295 | 0.00024295 | 0.00024295 |   0.0 |  0.00
Modify  | 7.0025     | 7.0025     | 7.0025     |   0.0 |  1.26
Other   |            | 1.828      |            |       |  0.33

Nlocal:    19652 ave 19652 max 19652 min
Histogram: 1 0 0 0 0 0 0 0 0 0
Nghost:    14652 ave 14652 max 14652 min
Histogram: 1 0 0 0 0 0 0 0 0 0
Neighs:    850539 ave 850539 max 850539 min
Histogram: 1 0 0 0 0 0 0 0 0 0

Total # of neighbors = 850539
Ave neighs/atom = 43.28
Neighbor list builds = 6172
Dangerous builds not checked
Setting up Verlet run ...
  Unit style    : metal
  Current step  : 140005
  Time step     : 0.001
Per MPI rank memory allocation (min/avg/max) = 18.23 | 18.23 | 18.23 Mbytes
Step Temp Press TotEng PotEng Enthalpy 
  140005     1693.093   -819.58714    -19193.74   -23494.351   -19488.858 
  140007     1693.348   -824.43959   -19193.733   -23494.992   -19490.598 
  140500    1661.2857    103.76975   -19390.484   -23610.302   -19353.495 
Loop time of 42.6253 on 1 procs for 495 steps with 19652 atoms

Performance: 1.003 ns/day, 23.920 hours/ns, 11.613 timesteps/s
100.0% CPU use with 1 MPI tasks x no OpenMP threads

MPI task timing breakdown:
Section |  min time  |  avg time  |  max time  |%varavg| %total
---------------------------------------------------------------
Pair    | 21.029     | 21.029     | 21.029     |   0.0 | 49.34
Neigh   | 20.455     | 20.455     | 20.455     |   0.0 | 47.99
Comm    | 0.39565    | 0.39565    | 0.39565    |   0.0 |  0.93
Output  | 0.048375   | 0.048375   | 0.048375   |   0.0 |  0.11
Modify  | 0.55228    | 0.55228    | 0.55228    |   0.0 |  1.30
Other   |            | 0.1453     |            |       |  0.34

Nlocal:    19652 ave 19652 max 19652 min
Histogram: 1 0 0 0 0 0 0 0 0 0
Nghost:    14723 ave 14723 max 14723 min
Histogram: 1 0 0 0 0 0 0 0 0 0
Neighs:    859514 ave 859514 max 859514 min
Histogram: 1 0 0 0 0 0 0 0 0 0

Total # of neighbors = 859514
Ave neighs/atom = 43.7367
Neighbor list builds = 495
Dangerous builds not checked
Setting up Verlet run ...
  Unit style    : metal
  Current step  : 140500
  Time step     : 0.001
Per MPI rank memory allocation (min/avg/max) = 18.23 | 18.23 | 18.23 Mbytes
Step Temp Press TotEng PotEng Enthalpy 
  140500    1661.2857    103.76975   -19390.484   -23610.302   -19353.495 
  146672    1659.7336   -105.47225   -19404.917   -23620.792   -19442.559 
Loop time of 549.761 on 1 procs for 6172 steps with 19652 atoms

Performance: 0.970 ns/day, 24.743 hours/ns, 11.227 timesteps/s
99.9% CPU use with 1 MPI tasks x no OpenMP threads

MPI task timing breakdown:
Section |  min time  |  avg time  |  max time  |%varavg| %total
---------------------------------------------------------------
Pair    | 273.82     | 273.82     | 273.82     |   0.0 | 49.81
Neigh   | 262.16     | 262.16     | 262.16     |   0.0 | 47.69
Comm    | 5.0699     | 5.0699     | 5.0699     |   0.0 |  0.92
Output  | 0.00020909 | 0.00020909 | 0.00020909 |   0.0 |  0.00
Modify  | 6.908      | 6.908      | 6.908      |   0.0 |  1.26
Other   |            | 1.806      |            |       |  0.33

Nlocal:    19652 ave 19652 max 19652 min
Histogram: 1 0 0 0 0 0 0 0 0 0
Nghost:    14767 ave 14767 max 14767 min
Histogram: 1 0 0 0 0 0 0 0 0 0
Neighs:    858694 ave 858694 max 858694 min
Histogram: 1 0 0 0 0 0 0 0 0 0

Total # of neighbors = 858694
Ave neighs/atom = 43.695
Neighbor list builds = 6172
Dangerous builds not checked
Setting up Verlet run ...
  Unit style    : metal
  Current step  : 146672
  Time step     : 0.001
Per MPI rank memory allocation (min/avg/max) = 18.23 | 18.23 | 18.23 Mbytes
Step Temp Press TotEng PotEng Enthalpy 
  146672    1659.7336   -105.47225   -19404.917   -23620.792   -19442.559 
  146674     1660.613   -110.72439   -19404.928   -23623.036   -19444.444 
  147167    1625.9425   -158.97688   -19633.328    -23763.37    -19689.73 
Loop time of 43.8175 on 1 procs for 495 steps with 19652 atoms

Performance: 0.976 ns/day, 24.589 hours/ns, 11.297 timesteps/s
99.3% CPU use with 1 MPI tasks x no OpenMP threads

MPI task timing breakdown:
Section |  min time  |  avg time  |  max time  |%varavg| %total
---------------------------------------------------------------
Pair    | 21.77      | 21.77      | 21.77      |   0.0 | 49.68
Neigh   | 20.861     | 20.861     | 20.861     |   0.0 | 47.61
Comm    | 0.4108     | 0.4108     | 0.4108     |   0.0 |  0.94
Output  | 0.052318   | 0.052318   | 0.052318   |   0.0 |  0.12
Modify  | 0.57213    | 0.57213    | 0.57213    |   0.0 |  1.31
Other   |            | 0.151      |            |       |  0.34

Nlocal:    19652 ave 19652 max 19652 min
Histogram: 1 0 0 0 0 0 0 0 0 0
Nghost:    14728 ave 14728 max 14728 min
Histogram: 1 0 0 0 0 0 0 0 0 0
Neighs:    863805 ave 863805 max 863805 min
Histogram: 1 0 0 0 0 0 0 0 0 0

Total # of neighbors = 863805
Ave neighs/atom = 43.9551
Neighbor list builds = 495
Dangerous builds not checked
Setting up Verlet run ...
  Unit style    : metal
  Current step  : 147167
  Time step     : 0.001
Per MPI rank memory allocation (min/avg/max) = 18.23 | 18.23 | 18.23 Mbytes
Step Temp Press TotEng PotEng Enthalpy 
  147167    1625.9425   -158.97688   -19633.328    -23763.37    -19689.73 
  153339    1605.4647   -62.857484   -19744.962   -23822.989   -19767.183 
Loop time of 550.452 on 1 procs for 6172 steps with 19652 atoms

Performance: 0.969 ns/day, 24.774 hours/ns, 11.213 timesteps/s
99.9% CPU use with 1 MPI tasks x no OpenMP threads

MPI task timing breakdown:
Section |  min time  |  avg time  |  max time  |%varavg| %total
---------------------------------------------------------------
Pair    | 275.46     | 275.46     | 275.46     |   0.0 | 50.04
Neigh   | 261.29     | 261.29     | 261.29     |   0.0 | 47.47
Comm    | 5.0402     | 5.0402     | 5.0402     |   0.0 |  0.92
Output  | 0.00015688 | 0.00015688 | 0.00015688 |   0.0 |  0.00
Modify  | 6.8545     | 6.8545     | 6.8545     |   0.0 |  1.25
Other   |            | 1.806      |            |       |  0.33

Nlocal:    19652 ave 19652 max 19652 min
Histogram: 1 0 0 0 0 0 0 0 0 0
Nghost:    14768 ave 14768 max 14768 min
Histogram: 1 0 0 0 0 0 0 0 0 0
Neighs:    867042 ave 867042 max 867042 min
Histogram: 1 0 0 0 0 0 0 0 0 0

Total # of neighbors = 867042
Ave neighs/atom = 44.1198
Neighbor list builds = 6172
Dangerous builds not checked
Setting up Verlet run ...
  Unit style    : metal
  Current step  : 153339
  Time step     : 0.001
Per MPI rank memory allocation (min/avg/max) = 18.23 | 18.23 | 18.23 Mbytes
Step Temp Press TotEng PotEng Enthalpy 
  153339    1605.4647   -62.857484   -19744.962   -23822.989   -19767.183 
  153341     1605.156   -53.492736   -19744.968    -23822.21   -19763.877 
  153834    1557.8193     407.3666   -19944.529   -23901.532    -19801.31 
Loop time of 39.0255 on 1 procs for 495 steps with 19652 atoms

Performance: 1.096 ns/day, 21.900 hours/ns, 12.684 timesteps/s
100.0% CPU use with 1 MPI tasks x no OpenMP threads

MPI task timing breakdown:
Section |  min time  |  avg time  |  max time  |%varavg| %total
---------------------------------------------------------------
Pair    | 19.009     | 19.009     | 19.009     |   0.0 | 48.71
Neigh   | 19.007     | 19.007     | 19.007     |   0.0 | 48.70
Comm    | 0.35349    | 0.35349    | 0.35349    |   0.0 |  0.91
Output  | 0.042588   | 0.042588   | 0.042588   |   0.0 |  0.11
Modify  | 0.48556    | 0.48556    | 0.48556    |   0.0 |  1.24
Other   |            | 0.1279     |            |       |  0.33

Nlocal:    19652 ave 19652 max 19652 min
Histogram: 1 0 0 0 0 0 0 0 0 0
Nghost:    14837 ave 14837 max 14837 min
Histogram: 1 0 0 0 0 0 0 0 0 0
Neighs:    871846 ave 871846 max 871846 min
Histogram: 1 0 0 0 0 0 0 0 0 0

Total # of neighbors = 871846
Ave neighs/atom = 44.3642
Neighbor list builds = 495
Dangerous builds not checked
Setting up Verlet run ...
  Unit style    : metal
  Current step  : 153834
  Time step     : 0.001
Per MPI rank memory allocation (min/avg/max) = 18.23 | 18.23 | 18.23 Mbytes
Step Temp Press TotEng PotEng Enthalpy 
  153834    1557.8193     407.3666   -19944.529   -23901.532    -19801.31 
  160006     1523.494   -249.39521   -20138.357   -24008.171   -20225.826 
Loop time of 504.15 on 1 procs for 6172 steps with 19652 atoms

Performance: 1.058 ns/day, 22.690 hours/ns, 12.242 timesteps/s
100.0% CPU use with 1 MPI tasks x no OpenMP threads

MPI task timing breakdown:
Section |  min time  |  avg time  |  max time  |%varavg| %total
---------------------------------------------------------------
Pair    | 248.93     | 248.93     | 248.93     |   0.0 | 49.38
Neigh   | 242.83     | 242.83     | 242.83     |   0.0 | 48.17
Comm    | 4.6038     | 4.6038     | 4.6038     |   0.0 |  0.91
Output  | 0.00020909 | 0.00020909 | 0.00020909 |   0.0 |  0.00
Modify  | 6.1582     | 6.1582     | 6.1582     |   0.0 |  1.22
Other   |            | 1.63       |            |       |  0.32

Nlocal:    19652 ave 19652 max 19652 min
Histogram: 1 0 0 0 0 0 0 0 0 0
Nghost:    14809 ave 14809 max 14809 min
Histogram: 1 0 0 0 0 0 0 0 0 0
Neighs:    873609 ave 873609 max 873609 min
Histogram: 1 0 0 0 0 0 0 0 0 0

Total # of neighbors = 873609
Ave neighs/atom = 44.4539
Neighbor list builds = 6172
Dangerous builds not checked
Setting up Verlet run ...
  Unit style    : metal
  Current step  : 160006
  Time step     : 0.001
Per MPI rank memory allocation (min/avg/max) = 18.23 | 18.23 | 18.23 Mbytes
Step Temp Press TotEng PotEng Enthalpy 
  160006     1523.494   -249.39521   -20138.357   -24008.171   -20225.826 
  160008    1524.2734    -249.7821   -20138.334   -24010.127   -20225.938 
  160501    1506.5477   -338.09207   -20237.648   -24064.417   -20356.016 
Loop time of 46.6944 on 1 procs for 495 steps with 19652 atoms

Performance: 0.916 ns/day, 26.203 hours/ns, 10.601 timesteps/s
100.0% CPU use with 1 MPI tasks x no OpenMP threads

MPI task timing breakdown:
Section |  min time  |  avg time  |  max time  |%varavg| %total
---------------------------------------------------------------
Pair    | 23.649     | 23.649     | 23.649     |   0.0 | 50.65
Neigh   | 21.842     | 21.842     | 21.842     |   0.0 | 46.78
Comm    | 0.42502    | 0.42502    | 0.42502    |   0.0 |  0.91
Output  | 0.044255   | 0.044255   | 0.044255   |   0.0 |  0.09
Modify  | 0.57719    | 0.57719    | 0.57719    |   0.0 |  1.24
Other   |            | 0.1579     |            |       |  0.34

Nlocal:    19652 ave 19652 max 19652 min
Histogram: 1 0 0 0 0 0 0 0 0 0
Nghost:    14784 ave 14784 max 14784 min
Histogram: 1 0 0 0 0 0 0 0 0 0
Neighs:    875714 ave 875714 max 875714 min
Histogram: 1 0 0 0 0 0 0 0 0 0

Total # of neighbors = 875714
Ave neighs/atom = 44.5611
Neighbor list builds = 495
Dangerous builds not checked
Setting up Verlet run ...
  Unit style    : metal
  Current step  : 160501
  Time step     : 0.001
Per MPI rank memory allocation (min/avg/max) = 18.23 | 18.23 | 18.23 Mbytes
Step Temp Press TotEng PotEng Enthalpy 
  160501    1506.5477   -338.09207   -20237.648   -24064.417   -20356.016 
  166673     1511.149   -186.59492   -20350.458   -24188.914   -20415.474 
Loop time of 568.897 on 1 procs for 6172 steps with 19652 atoms

Performance: 0.937 ns/day, 25.604 hours/ns, 10.849 timesteps/s
99.9% CPU use with 1 MPI tasks x no OpenMP threads

MPI task timing breakdown:
Section |  min time  |  avg time  |  max time  |%varavg| %total
---------------------------------------------------------------
Pair    | 287.25     | 287.25     | 287.25     |   0.0 | 50.49
Neigh   | 267.54     | 267.54     | 267.54     |   0.0 | 47.03
Comm    | 5.1691     | 5.1691     | 5.1691     |   0.0 |  0.91
Output  | 0.00016403 | 0.00016403 | 0.00016403 |   0.0 |  0.00
Modify  | 7.0944     | 7.0944     | 7.0944     |   0.0 |  1.25
Other   |            | 1.847      |            |       |  0.32

Nlocal:    19652 ave 19652 max 19652 min
Histogram: 1 0 0 0 0 0 0 0 0 0
Nghost:    14854 ave 14854 max 14854 min
Histogram: 1 0 0 0 0 0 0 0 0 0
Neighs:    879451 ave 879451 max 879451 min
Histogram: 1 0 0 0 0 0 0 0 0 0

Total # of neighbors = 879451
Ave neighs/atom = 44.7512
Neighbor list builds = 6172
Dangerous builds not checked
Setting up Verlet run ...
  Unit style    : metal
  Current step  : 166673
  Time step     : 0.001
Per MPI rank memory allocation (min/avg/max) = 18.23 | 18.23 | 18.23 Mbytes
Step Temp Press TotEng PotEng Enthalpy 
  166673     1511.149   -186.59492   -20350.458   -24188.914   -20415.474 
  166675    1510.6595   -166.46317   -20350.469   -24187.681    -20408.47 
  167168    1460.5601    333.31236   -20544.627   -24254.582   -20429.201 
Loop time of 44.6003 on 1 procs for 495 steps with 19652 atoms

Performance: 0.959 ns/day, 25.028 hours/ns, 11.099 timesteps/s
100.0% CPU use with 1 MPI tasks x no OpenMP threads

MPI task timing breakdown:
Section |  min time  |  avg time  |  max time  |%varavg| %total
---------------------------------------------------------------
Pair    | 22.178     | 22.178     | 22.178     |   0.0 | 49.73
Neigh   | 21.22      | 21.22      | 21.22      |   0.0 | 47.58
Comm    | 0.41732    | 0.41732    | 0.41732    |   0.0 |  0.94
Output  | 0.046206   | 0.046206   | 0.046206   |   0.0 |  0.10
Modify  | 0.58571    | 0.58571    | 0.58571    |   0.0 |  1.31
Other   |            | 0.1525     |            |       |  0.34

Nlocal:    19652 ave 19652 max 19652 min
Histogram: 1 0 0 0 0 0 0 0 0 0
Nghost:    14846 ave 14846 max 14846 min
Histogram: 1 0 0 0 0 0 0 0 0 0
Neighs:    885272 ave 885272 max 885272 min
Histogram: 1 0 0 0 0 0 0 0 0 0

Total # of neighbors = 885272
Ave neighs/atom = 45.0474
Neighbor list builds = 495
Dangerous builds not checked
Setting up Verlet run ...
  Unit style    : metal
  Current step  : 167168
  Time step     : 0.001
Per MPI rank memory allocation (min/avg/max) = 18.23 | 18.23 | 18.23 Mbytes
Step Temp Press TotEng PotEng Enthalpy 
  167168    1460.5601    333.31236   -20544.627   -24254.582   -20429.201 
  173340    1435.2494   -355.93773    -20637.91   -24283.574   -20761.355 
Loop time of 611.987 on 1 procs for 6172 steps with 19652 atoms

Performance: 0.871 ns/day, 27.543 hours/ns, 10.085 timesteps/s
99.9% CPU use with 1 MPI tasks x no OpenMP threads

MPI task timing breakdown:
Section |  min time  |  avg time  |  max time  |%varavg| %total
---------------------------------------------------------------
Pair    | 313.37     | 313.37     | 313.37     |   0.0 | 51.21
Neigh   | 283.3      | 283.3      | 283.3      |   0.0 | 46.29
Comm    | 5.5839     | 5.5839     | 5.5839     |   0.0 |  0.91
Output  | 0.00016093 | 0.00016093 | 0.00016093 |   0.0 |  0.00
Modify  | 7.7033     | 7.7033     | 7.7033     |   0.0 |  1.26
Other   |            | 2.029      |            |       |  0.33

Nlocal:    19652 ave 19652 max 19652 min
Histogram: 1 0 0 0 0 0 0 0 0 0
Nghost:    14887 ave 14887 max 14887 min
Histogram: 1 0 0 0 0 0 0 0 0 0
Neighs:    883694 ave 883694 max 883694 min
Histogram: 1 0 0 0 0 0 0 0 0 0

Total # of neighbors = 883694
Ave neighs/atom = 44.9671
Neighbor list builds = 6172
Dangerous builds not checked
Setting up Verlet run ...
  Unit style    : metal
  Current step  : 173340
  Time step     : 0.001
Per MPI rank memory allocation (min/avg/max) = 18.23 | 18.23 | 18.23 Mbytes
Step Temp Press TotEng PotEng Enthalpy 
  173340    1435.2494   -355.93773    -20637.91   -24283.574   -20761.355 
  173342    1435.2038   -355.93113   -20637.896   -24283.444   -20761.338 
  173835     1412.284   -321.84953    -20772.49   -24359.821   -20883.753 
Loop time of 53.288 on 1 procs for 495 steps with 19652 atoms

Performance: 0.803 ns/day, 29.904 hours/ns, 9.289 timesteps/s
99.7% CPU use with 1 MPI tasks x no OpenMP threads

MPI task timing breakdown:
Section |  min time  |  avg time  |  max time  |%varavg| %total
---------------------------------------------------------------
Pair    | 27.692     | 27.692     | 27.692     |   0.0 | 51.97
Neigh   | 24.151     | 24.151     | 24.151     |   0.0 | 45.32
Comm    | 0.49979    | 0.49979    | 0.49979    |   0.0 |  0.94
Output  | 0.053851   | 0.053851   | 0.053851   |   0.0 |  0.10
Modify  | 0.7036     | 0.7036     | 0.7036     |   0.0 |  1.32
Other   |            | 0.1877     |            |       |  0.35

Nlocal:    19652 ave 19652 max 19652 min
Histogram: 1 0 0 0 0 0 0 0 0 0
Nghost:    14860 ave 14860 max 14860 min
Histogram: 1 0 0 0 0 0 0 0 0 0
Neighs:    887069 ave 887069 max 887069 min
Histogram: 1 0 0 0 0 0 0 0 0 0

Total # of neighbors = 887069
Ave neighs/atom = 45.1389
Neighbor list builds = 495
Dangerous builds not checked
Setting up Verlet run ...
  Unit style    : metal
  Current step  : 173835
  Time step     : 0.001
Per MPI rank memory allocation (min/avg/max) = 18.23 | 18.23 | 18.23 Mbytes
Step Temp Press TotEng PotEng Enthalpy 
  173835     1412.284   -321.84953    -20772.49   -24359.821   -20883.753 
  180007    1395.2494   -358.92194   -20912.496   -24456.556   -21036.106 
Loop time of 637.935 on 1 procs for 6172 steps with 19652 atoms

Performance: 0.836 ns/day, 28.711 hours/ns, 9.675 timesteps/s
99.9% CPU use with 1 MPI tasks x no OpenMP threads

MPI task timing breakdown:
Section |  min time  |  avg time  |  max time  |%varavg| %total
---------------------------------------------------------------
Pair    | 330.47     | 330.47     | 330.47     |   0.0 | 51.80
Neigh   | 291.43     | 291.43     | 291.43     |   0.0 | 45.68
Comm    | 5.8435     | 5.8435     | 5.8435     |   0.0 |  0.92
Output  | 0.00020814 | 0.00020814 | 0.00020814 |   0.0 |  0.00
Modify  | 8.0477     | 8.0477     | 8.0477     |   0.0 |  1.26
Other   |            | 2.147      |            |       |  0.34

Nlocal:    19652 ave 19652 max 19652 min
Histogram: 1 0 0 0 0 0 0 0 0 0
Nghost:    14807 ave 14807 max 14807 min
Histogram: 1 0 0 0 0 0 0 0 0 0
Neighs:    890452 ave 890452 max 890452 min
Histogram: 1 0 0 0 0 0 0 0 0 0

Total # of neighbors = 890452
Ave neighs/atom = 45.311
Neighbor list builds = 6172
Dangerous builds not checked
Setting up Verlet run ...
  Unit style    : metal
  Current step  : 180007
  Time step     : 0.001
Per MPI rank memory allocation (min/avg/max) = 18.23 | 18.23 | 18.23 Mbytes
Step Temp Press TotEng PotEng Enthalpy 
  180007    1395.2494   -358.92194   -20912.496   -24456.556   -21036.106 
  180009    1394.8264   -352.87175   -20912.491   -24455.477   -21034.017 
  180502    1363.9402    167.54416   -21098.498    -24563.03   -21041.141 
Loop time of 46.671 on 1 procs for 495 steps with 19652 atoms

Performance: 0.916 ns/day, 26.190 hours/ns, 10.606 timesteps/s
100.0% CPU use with 1 MPI tasks x no OpenMP threads

MPI task timing breakdown:
Section |  min time  |  avg time  |  max time  |%varavg| %total
---------------------------------------------------------------
Pair    | 23.77      | 23.77      | 23.77      |   0.0 | 50.93
Neigh   | 21.65      | 21.65      | 21.65      |   0.0 | 46.39
Comm    | 0.42855    | 0.42855    | 0.42855    |   0.0 |  0.92
Output  | 0.059318   | 0.059318   | 0.059318   |   0.0 |  0.13
Modify  | 0.6014     | 0.6014     | 0.6014     |   0.0 |  1.29
Other   |            | 0.1615     |            |       |  0.35

Nlocal:    19652 ave 19652 max 19652 min
Histogram: 1 0 0 0 0 0 0 0 0 0
Nghost:    14987 ave 14987 max 14987 min
Histogram: 1 0 0 0 0 0 0 0 0 0
Neighs:    896040 ave 896040 max 896040 min
Histogram: 1 0 0 0 0 0 0 0 0 0

Total # of neighbors = 896040
Ave neighs/atom = 45.5954
Neighbor list builds = 495
Dangerous builds not checked
Setting up Verlet run ...
  Unit style    : metal
  Current step  : 180502
  Time step     : 0.001
Per MPI rank memory allocation (min/avg/max) = 18.23 | 18.23 | 18.23 Mbytes
Step Temp Press TotEng PotEng Enthalpy 
  180502    1363.9402    167.54416   -21098.498    -24563.03   -21041.141 
  186674    1343.6915    475.64894   -21247.123   -24660.222   -21085.075 
Loop time of 663.848 on 1 procs for 6172 steps with 19652 atoms

Performance: 0.803 ns/day, 29.877 hours/ns, 9.297 timesteps/s
99.7% CPU use with 1 MPI tasks x no OpenMP threads

MPI task timing breakdown:
Section |  min time  |  avg time  |  max time  |%varavg| %total
---------------------------------------------------------------
Pair    | 344.09     | 344.09     | 344.09     |   0.0 | 51.83
Neigh   | 302.8      | 302.8      | 302.8      |   0.0 | 45.61
Comm    | 6.1161     | 6.1161     | 6.1161     |   0.0 |  0.92
Output  | 0.00033689 | 0.00033689 | 0.00033689 |   0.0 |  0.00
Modify  | 8.5789     | 8.5789     | 8.5789     |   0.0 |  1.29
Other   |            | 2.262      |            |       |  0.34

Nlocal:    19652 ave 19652 max 19652 min
Histogram: 1 0 0 0 0 0 0 0 0 0
Nghost:    14982 ave 14982 max 14982 min
Histogram: 1 0 0 0 0 0 0 0 0 0
Neighs:    900569 ave 900569 max 900569 min
Histogram: 1 0 0 0 0 0 0 0 0 0

Total # of neighbors = 900569
Ave neighs/atom = 45.8258
Neighbor list builds = 6172
Dangerous builds not checked
Setting up Verlet run ...
  Unit style    : metal
  Current step  : 186674
  Time step     : 0.001
Per MPI rank memory allocation (min/avg/max) = 18.23 | 18.23 | 18.23 Mbytes
Step Temp Press TotEng PotEng Enthalpy 
  186674    1343.6915    475.64894   -21247.123   -24660.222   -21085.075 
  186676    1343.6868    481.04939   -21247.118   -24660.205    -21083.23 
  187169    1313.8169   -412.40322   -21349.356   -24686.571   -21490.059 
Loop time of 58.9367 on 1 procs for 495 steps with 19652 atoms

Performance: 0.726 ns/day, 33.073 hours/ns, 8.399 timesteps/s
99.9% CPU use with 1 MPI tasks x no OpenMP threads

MPI task timing breakdown:
Section |  min time  |  avg time  |  max time  |%varavg| %total
---------------------------------------------------------------
Pair    | 31.121     | 31.121     | 31.121     |   0.0 | 52.80
Neigh   | 26.131     | 26.131     | 26.131     |   0.0 | 44.34
Comm    | 0.57631    | 0.57631    | 0.57631    |   0.0 |  0.98
Output  | 0.067801   | 0.067801   | 0.067801   |   0.0 |  0.12
Modify  | 0.82182    | 0.82182    | 0.82182    |   0.0 |  1.39
Other   |            | 0.2187     |            |       |  0.37

Nlocal:    19652 ave 19652 max 19652 min
Histogram: 1 0 0 0 0 0 0 0 0 0
Nghost:    14960 ave 14960 max 14960 min
Histogram: 1 0 0 0 0 0 0 0 0 0
Neighs:    899359 ave 899359 max 899359 min
Histogram: 1 0 0 0 0 0 0 0 0 0

Total # of neighbors = 899359
Ave neighs/atom = 45.7642
Neighbor list builds = 495
Dangerous builds not checked
Setting up Verlet run ...
  Unit style    : metal
  Current step  : 187169
  Time step     : 0.001
Per MPI rank memory allocation (min/avg/max) = 18.23 | 18.23 | 18.23 Mbytes
Step Temp Press TotEng PotEng Enthalpy 
  187169    1313.8169   -412.40322   -21349.356   -24686.571   -21490.059 
  193341    1295.8922   -110.68284   -21470.856   -24762.541   -21508.489 
Loop time of 736.068 on 1 procs for 6172 steps with 19652 atoms

Performance: 0.724 ns/day, 33.128 hours/ns, 8.385 timesteps/s
99.9% CPU use with 1 MPI tasks x no OpenMP threads

MPI task timing breakdown:
Section |  min time  |  avg time  |  max time  |%varavg| %total
---------------------------------------------------------------
Pair    | 389.93     | 389.93     | 389.93     |   0.0 | 52.97
Neigh   | 327.1      | 327.1      | 327.1      |   0.0 | 44.44
Comm    | 6.8678     | 6.8678     | 6.8678     |   0.0 |  0.93
Output  | 0.00015998 | 0.00015998 | 0.00015998 |   0.0 |  0.00
Modify  | 9.6064     | 9.6064     | 9.6064     |   0.0 |  1.31
Other   |            | 2.56       |            |       |  0.35

Nlocal:    19652 ave 19652 max 19652 min
Histogram: 1 0 0 0 0 0 0 0 0 0
Nghost:    15049 ave 15049 max 15049 min
Histogram: 1 0 0 0 0 0 0 0 0 0
Neighs:    902367 ave 902367 max 902367 min
Histogram: 1 0 0 0 0 0 0 0 0 0

Total # of neighbors = 902367
Ave neighs/atom = 45.9173
Neighbor list builds = 6172
Dangerous builds not checked
Setting up Verlet run ...
  Unit style    : metal
  Current step  : 193341
  Time step     : 0.001
Per MPI rank memory allocation (min/avg/max) = 18.23 | 18.23 | 18.23 Mbytes
Step Temp Press TotEng PotEng Enthalpy 
  193341    1295.8922   -110.68284   -21470.856   -24762.541   -21508.489 
  193343    1295.5524    -104.7803   -21470.853   -24761.674   -21506.479 
  193836    1269.4944    96.908622   -21660.493   -24885.125   -21627.707 
Loop time of 54.4147 on 1 procs for 495 steps with 19652 atoms

Performance: 0.786 ns/day, 30.536 hours/ns, 9.097 timesteps/s
99.9% CPU use with 1 MPI tasks x no OpenMP threads

MPI task timing breakdown:
Section |  min time  |  avg time  |  max time  |%varavg| %total
---------------------------------------------------------------
Pair    | 28.28      | 28.28      | 28.28      |   0.0 | 51.97
Neigh   | 24.641     | 24.641     | 24.641     |   0.0 | 45.28
Comm    | 0.49989    | 0.49989    | 0.49989    |   0.0 |  0.92
Output  | 0.084532   | 0.084532   | 0.084532   |   0.0 |  0.16
Modify  | 0.71812    | 0.71812    | 0.71812    |   0.0 |  1.32
Other   |            | 0.1911     |            |       |  0.35

Nlocal:    19652 ave 19652 max 19652 min
Histogram: 1 0 0 0 0 0 0 0 0 0
Nghost:    14978 ave 14978 max 14978 min
Histogram: 1 0 0 0 0 0 0 0 0 0
Neighs:    907895 ave 907895 max 907895 min
Histogram: 1 0 0 0 0 0 0 0 0 0

Total # of neighbors = 907895
Ave neighs/atom = 46.1986
Neighbor list builds = 495
Dangerous builds not checked
Setting up Verlet run ...
  Unit style    : metal
  Current step  : 193836
  Time step     : 0.001
Per MPI rank memory allocation (min/avg/max) = 18.23 | 18.23 | 18.23 Mbytes
Step Temp Press TotEng PotEng Enthalpy 
  193836    1269.4944    96.908622   -21660.493   -24885.125   -21627.707 
  200008    1245.6483   -406.62618   -21740.235   -24904.295    -21877.82 
Loop time of 724.246 on 1 procs for 6172 steps with 19652 atoms

Performance: 0.736 ns/day, 32.596 hours/ns, 8.522 timesteps/s
99.9% CPU use with 1 MPI tasks x no OpenMP threads

MPI task timing breakdown:
Section |  min time  |  avg time  |  max time  |%varavg| %total
---------------------------------------------------------------
Pair    | 382.89     | 382.89     | 382.89     |   0.0 | 52.87
Neigh   | 322.71     | 322.71     | 322.71     |   0.0 | 44.56
Comm    | 6.7362     | 6.7362     | 6.7362     |   0.0 |  0.93
Output  | 0.00025392 | 0.00025392 | 0.00025392 |   0.0 |  0.00
Modify  | 9.4189     | 9.4189     | 9.4189     |   0.0 |  1.30
Other   |            | 2.491      |            |       |  0.34

Nlocal:    19652 ave 19652 max 19652 min
Histogram: 1 0 0 0 0 0 0 0 0 0
Nghost:    15004 ave 15004 max 15004 min
Histogram: 1 0 0 0 0 0 0 0 0 0
Neighs:    907826 ave 907826 max 907826 min
Histogram: 1 0 0 0 0 0 0 0 0 0

Total # of neighbors = 907826
Ave neighs/atom = 46.1951
Neighbor list builds = 6172
Dangerous builds not checked
Setting up Verlet run ...
  Unit style    : metal
  Current step  : 200008
  Time step     : 0.001
Per MPI rank memory allocation (min/avg/max) = 18.23 | 18.23 | 18.23 Mbytes
Step Temp Press TotEng PotEng Enthalpy 
  200008    1245.6483   -406.62618   -21740.235   -24904.295    -21877.82 
  200010    1246.1078   -415.80505   -21740.231   -24905.459   -21880.922 
  200503     1212.964   -22.986805   -21945.246   -25026.285   -21952.974 
Loop time of 57.3244 on 1 procs for 495 steps with 19652 atoms

Performance: 0.746 ns/day, 32.169 hours/ns, 8.635 timesteps/s
99.9% CPU use with 1 MPI tasks x no OpenMP threads

MPI task timing breakdown:
Section |  min time  |  avg time  |  max time  |%varavg| %total
---------------------------------------------------------------
Pair    | 30.097     | 30.097     | 30.097     |   0.0 | 52.50
Neigh   | 25.657     | 25.657     | 25.657     |   0.0 | 44.76
Comm    | 0.53373    | 0.53373    | 0.53373    |   0.0 |  0.93
Output  | 0.066227   | 0.066227   | 0.066227   |   0.0 |  0.12
Modify  | 0.76873    | 0.76873    | 0.76873    |   0.0 |  1.34
Other   |            | 0.2017     |            |       |  0.35

Nlocal:    19652 ave 19652 max 19652 min
Histogram: 1 0 0 0 0 0 0 0 0 0
Nghost:    15115 ave 15115 max 15115 min
Histogram: 1 0 0 0 0 0 0 0 0 0
Neighs:    912890 ave 912890 max 912890 min
Histogram: 1 0 0 0 0 0 0 0 0 0

Total # of neighbors = 912890
Ave neighs/atom = 46.4528
Neighbor list builds = 495
Dangerous builds not checked
Setting up Verlet run ...
  Unit style    : metal
  Current step  : 200503
  Time step     : 0.001
Per MPI rank memory allocation (min/avg/max) = 18.23 | 18.23 | 18.23 Mbytes
Step Temp Press TotEng PotEng Enthalpy 
  200503     1212.964   -22.986805   -21945.246   -25026.285   -21952.974 
  206675    1204.4297    -124.1691   -22002.247   -25061.608   -22043.941 
Loop time of 683.272 on 1 procs for 6172 steps with 19652 atoms

Performance: 0.780 ns/day, 30.751 hours/ns, 9.033 timesteps/s
99.9% CPU use with 1 MPI tasks x no OpenMP threads

MPI task timing breakdown:
Section |  min time  |  avg time  |  max time  |%varavg| %total
---------------------------------------------------------------
Pair    | 356.12     | 356.12     | 356.12     |   0.0 | 52.12
Neigh   | 309.81     | 309.81     | 309.81     |   0.0 | 45.34
Comm    | 6.234      | 6.234      | 6.234      |   0.0 |  0.91
Output  | 0.00017095 | 0.00017095 | 0.00017095 |   0.0 |  0.00
Modify  | 8.8068     | 8.8068     | 8.8068     |   0.0 |  1.29
Other   |            | 2.303      |            |       |  0.34

Nlocal:    19652 ave 19652 max 19652 min
Histogram: 1 0 0 0 0 0 0 0 0 0
Nghost:    15063 ave 15063 max 15063 min
Histogram: 1 0 0 0 0 0 0 0 0 0
Neighs:    914636 ave 914636 max 914636 min
Histogram: 1 0 0 0 0 0 0 0 0 0

Total # of neighbors = 914636
Ave neighs/atom = 46.5416
Neighbor list builds = 6172
Dangerous builds not checked
Setting up Verlet run ...
  Unit style    : metal
  Current step  : 206675
  Time step     : 0.001
Per MPI rank memory allocation (min/avg/max) = 18.23 | 18.23 | 18.23 Mbytes
Step Temp Press TotEng PotEng Enthalpy 
  206675    1204.4297    -124.1691   -22002.247   -25061.608   -22043.941 
  206677    1203.8405   -120.58116    -22002.25   -25060.114   -22042.739 
  207170    1164.7482    31.485922   -22226.032   -25184.598   -22215.512 
Loop time of 53.2977 on 1 procs for 495 steps with 19652 atoms

Performance: 0.802 ns/day, 29.909 hours/ns, 9.287 timesteps/s
99.9% CPU use with 1 MPI tasks x no OpenMP threads

MPI task timing breakdown:
Section |  min time  |  avg time  |  max time  |%varavg| %total
---------------------------------------------------------------
Pair    | 27.55      | 27.55      | 27.55      |   0.0 | 51.69
[...]
92.7% CPU use with 1 MPI tasks x no OpenMP threads

MPI task timing breakdown:
Section |  min time  |  avg time  |  max time  |%varavg| %total
---------------------------------------------------------------
Pair    | 38.614     | 38.614     | 38.614     |   0.0 | 53.06
Neigh   | 32.316     | 32.316     | 32.316     |   0.0 | 44.41
Comm    | 0.62602    | 0.62602    | 0.62602    |   0.0 |  0.86
Output  | 0.068468   | 0.068468   | 0.068468   |   0.0 |  0.09
Modify  | 0.89928    | 0.89928    | 0.89928    |   0.0 |  1.24
Other   |            | 0.2472     |            |       |  0.34

Nlocal:    19652 ave 19652 max 19652 min
Histogram: 1 0 0 0 0 0 0 0 0 0
Nghost:    15712 ave 15712 max 15712 min
Histogram: 1 0 0 0 0 0 0 0 0 0
Neighs:    1.03621e+06 ave 1.03621e+06 max 1.03621e+06 min
Histogram: 1 0 0 0 0 0 0 0 0 0

Total # of neighbors = 1036209
Ave neighs/atom = 52.7279
Neighbor list builds = 495
Dangerous builds not checked
Setting up Verlet run ...
  Unit style    : metal
  Current step  : 307175
  Time step     : 0.001
Per MPI rank memory allocation (min/avg/max) = 18.23 | 18.23 | 18.23 Mbytes
Step Temp Press TotEng PotEng Enthalpy 
  307175    421.03686   -163.80091   -26921.528       -27991   -26971.004 
  313347    399.94203   -168.19801   -27086.493   -28102.383   -27137.062 
Loop time of 943.461 on 1 procs for 6172 steps with 19652 atoms

Performance: 0.565 ns/day, 42.462 hours/ns, 6.542 timesteps/s
90.5% CPU use with 1 MPI tasks x no OpenMP threads

MPI task timing breakdown:
Section |  min time  |  avg time  |  max time  |%varavg| %total
---------------------------------------------------------------
Pair    | 507.5      | 507.5      | 507.5      |   0.0 | 53.79
Neigh   | 412.49     | 412.49     | 412.49     |   0.0 | 43.72
Comm    | 8.4417     | 8.4417     | 8.4417     |   0.0 |  0.89
Output  | 0.00029898 | 0.00029898 | 0.00029898 |   0.0 |  0.00
Modify  | 11.915     | 11.915     | 11.915     |   0.0 |  1.26
Other   |            | 3.107      |            |       |  0.33

Nlocal:    19652 ave 19652 max 19652 min
Histogram: 1 0 0 0 0 0 0 0 0 0
Nghost:    15746 ave 15746 max 15746 min
Histogram: 1 0 0 0 0 0 0 0 0 0
Neighs:    1.04231e+06 ave 1.04231e+06 max 1.04231e+06 min
Histogram: 1 0 0 0 0 0 0 0 0 0

Total # of neighbors = 1042310
Ave neighs/atom = 53.0384
Neighbor list builds = 6172
Dangerous builds not checked
Setting up Verlet run ...
  Unit style    : metal
  Current step  : 313347
  Time step     : 0.001
Per MPI rank memory allocation (min/avg/max) = 18.23 | 18.23 | 18.23 Mbytes
Step Temp Press TotEng PotEng Enthalpy 
  313347    399.94203   -168.19801   -27086.493   -28102.383   -27137.062 
  313349    399.95054    -167.8925   -27086.494   -28102.404   -27136.971 
  313842    372.65728    268.64258   -27242.526   -28189.109   -27162.114 
Loop time of 78.1922 on 1 procs for 495 steps with 19652 atoms

Performance: 0.547 ns/day, 43.879 hours/ns, 6.331 timesteps/s
89.4% CPU use with 1 MPI tasks x no OpenMP threads

MPI task timing breakdown:
Section |  min time  |  avg time  |  max time  |%varavg| %total
---------------------------------------------------------------
Pair    | 42.464     | 42.464     | 42.464     |   0.0 | 54.31
Neigh   | 33.676     | 33.676     | 33.676     |   0.0 | 43.07
Comm    | 0.72534    | 0.72534    | 0.72534    |   0.0 |  0.93
Output  | 0.070722   | 0.070722   | 0.070722   |   0.0 |  0.09
Modify  | 0.99354    | 0.99354    | 0.99354    |   0.0 |  1.27
Other   |            | 0.2623     |            |       |  0.34

Nlocal:    19652 ave 19652 max 19652 min
Histogram: 1 0 0 0 0 0 0 0 0 0
Nghost:    15792 ave 15792 max 15792 min
Histogram: 1 0 0 0 0 0 0 0 0 0
Neighs:    1.04776e+06 ave 1.04776e+06 max 1.04776e+06 min
Histogram: 1 0 0 0 0 0 0 0 0 0

Total # of neighbors = 1047761
Ave neighs/atom = 53.3157
Neighbor list builds = 495
Dangerous builds not checked
Setting up Verlet run ...
  Unit style    : metal
  Current step  : 313842
  Time step     : 0.001
Per MPI rank memory allocation (min/avg/max) = 18.23 | 18.23 | 18.23 Mbytes
Step Temp Press TotEng PotEng Enthalpy 
  313842    372.65728    268.64258   -27242.526   -28189.109   -27162.114 
  320014    351.17156    -102.2064   -27385.809   -28277.817    -27416.34 
Loop time of 945.072 on 1 procs for 6172 steps with 19652 atoms

Performance: 0.564 ns/day, 42.534 hours/ns, 6.531 timesteps/s
91.5% CPU use with 1 MPI tasks x no OpenMP threads

MPI task timing breakdown:
Section |  min time  |  avg time  |  max time  |%varavg| %total
---------------------------------------------------------------
Pair    | 512.85     | 512.85     | 512.85     |   0.0 | 54.27
Neigh   | 408.54     | 408.54     | 408.54     |   0.0 | 43.23
Comm    | 8.5909     | 8.5909     | 8.5909     |   0.0 |  0.91
Output  | 0.000525   | 0.000525   | 0.000525   |   0.0 |  0.00
Modify  | 11.939     | 11.939     | 11.939     |   0.0 |  1.26
Other   |            | 3.149      |            |       |  0.33

Nlocal:    19652 ave 19652 max 19652 min
Histogram: 1 0 0 0 0 0 0 0 0 0
Nghost:    15794 ave 15794 max 15794 min
Histogram: 1 0 0 0 0 0 0 0 0 0
Neighs:    1.05108e+06 ave 1.05108e+06 max 1.05108e+06 min
Histogram: 1 0 0 0 0 0 0 0 0 0

Total # of neighbors = 1051085
Ave neighs/atom = 53.4849
Neighbor list builds = 6172
Dangerous builds not checked
Setting up Verlet run ...
  Unit style    : metal
  Current step  : 320014
  Time step     : 0.001
Per MPI rank memory allocation (min/avg/max) = 18.23 | 18.23 | 18.23 Mbytes
Step Temp Press TotEng PotEng Enthalpy 
  320014    351.17156    -102.2064   -27385.809   -28277.817    -27416.34 
  320016      351.188   -102.22754    -27385.81    -28277.86   -27416.347 
  320509    324.18613    50.032371   -27549.412   -28372.874   -27534.519 
Loop time of 73.6989 on 1 procs for 495 steps with 19652 atoms

Performance: 0.580 ns/day, 41.357 hours/ns, 6.717 timesteps/s
95.2% CPU use with 1 MPI tasks x no OpenMP threads

MPI task timing breakdown:
Section |  min time  |  avg time  |  max time  |%varavg| %total
---------------------------------------------------------------
Pair    | 39.589     | 39.589     | 39.589     |   0.0 | 53.72
Neigh   | 32.119     | 32.119     | 32.119     |   0.0 | 43.58
Comm    | 0.68528    | 0.68528    | 0.68528    |   0.0 |  0.93
Output  | 0.085205   | 0.085205   | 0.085205   |   0.0 |  0.12
Modify  | 0.97636    | 0.97636    | 0.97636    |   0.0 |  1.32
Other   |            | 0.2439     |            |       |  0.33

Nlocal:    19652 ave 19652 max 19652 min
Histogram: 1 0 0 0 0 0 0 0 0 0
Nghost:    15832 ave 15832 max 15832 min
Histogram: 1 0 0 0 0 0 0 0 0 0
Neighs:    1.05589e+06 ave 1.05589e+06 max 1.05589e+06 min
Histogram: 1 0 0 0 0 0 0 0 0 0

Total # of neighbors = 1055891
Ave neighs/atom = 53.7294
Neighbor list builds = 495
Dangerous builds not checked
Setting up Verlet run ...
  Unit style    : metal
  Current step  : 320509
  Time step     : 0.001
Per MPI rank memory allocation (min/avg/max) = 18.23 | 18.23 | 18.23 Mbytes
Step Temp Press TotEng PotEng Enthalpy 
  320509    324.18613    50.032371   -27549.412   -28372.874   -27534.519 
  326681    297.90553   -494.13349   -27707.654   -28464.362    -27854.51 
Loop time of 941.582 on 1 procs for 6172 steps with 19652 atoms

Performance: 0.566 ns/day, 42.377 hours/ns, 6.555 timesteps/s
91.2% CPU use with 1 MPI tasks x no OpenMP threads

MPI task timing breakdown:
Section |  min time  |  avg time  |  max time  |%varavg| %total
---------------------------------------------------------------
Pair    | 510.13     | 510.13     | 510.13     |   0.0 | 54.18
Neigh   | 407.82     | 407.82     | 407.82     |   0.0 | 43.31
Comm    | 8.6119     | 8.6119     | 8.6119     |   0.0 |  0.91
Output  | 0.00022984 | 0.00022984 | 0.00022984 |   0.0 |  0.00
Modify  | 11.842     | 11.842     | 11.842     |   0.0 |  1.26
Other   |            | 3.175      |            |       |  0.34

Nlocal:    19652 ave 19652 max 19652 min
Histogram: 1 0 0 0 0 0 0 0 0 0
Nghost:    15831 ave 15831 max 15831 min
Histogram: 1 0 0 0 0 0 0 0 0 0
Neighs:    1.05798e+06 ave 1.05798e+06 max 1.05798e+06 min
Histogram: 1 0 0 0 0 0 0 0 0 0

Total # of neighbors = 1057984
Ave neighs/atom = 53.8359
Neighbor list builds = 6172
Dangerous builds not checked
Setting up Verlet run ...
  Unit style    : metal
  Current step  : 326681
  Time step     : 0.001
Per MPI rank memory allocation (min/avg/max) = 18.23 | 18.23 | 18.23 Mbytes
Step Temp Press TotEng PotEng Enthalpy 
  326681    297.90553   -494.13349   -27707.654   -28464.362    -27854.51 
  326683    298.13873    -495.8986   -27707.653   -28464.952   -27855.033 
  327176    272.48006   -168.14153   -27843.792   -28535.916   -27893.573 
Loop time of 77.7618 on 1 procs for 495 steps with 19652 atoms

Performance: 0.550 ns/day, 43.637 hours/ns, 6.366 timesteps/s
89.1% CPU use with 1 MPI tasks x no OpenMP threads

MPI task timing breakdown:
Section |  min time  |  avg time  |  max time  |%varavg| %total
---------------------------------------------------------------
Pair    | 42.179     | 42.179     | 42.179     |   0.0 | 54.24
Neigh   | 33.549     | 33.549     | 33.549     |   0.0 | 43.14
Comm    | 0.73959    | 0.73959    | 0.73959    |   0.0 |  0.95
Output  | 0.071602   | 0.071602   | 0.071602   |   0.0 |  0.09
Modify  | 0.97921    | 0.97921    | 0.97921    |   0.0 |  1.26
Other   |            | 0.2435     |            |       |  0.31

Nlocal:    19652 ave 19652 max 19652 min
Histogram: 1 0 0 0 0 0 0 0 0 0
Nghost:    15835 ave 15835 max 15835 min
Histogram: 1 0 0 0 0 0 0 0 0 0
Neighs:    1.06258e+06 ave 1.06258e+06 max 1.06258e+06 min
Histogram: 1 0 0 0 0 0 0 0 0 0

Total # of neighbors = 1062575
Ave neighs/atom = 54.0696
Neighbor list builds = 495
Dangerous builds not checked
Setting up Verlet run ...
  Unit style    : metal
  Current step  : 327176
  Time step     : 0.001
Per MPI rank memory allocation (min/avg/max) = 18.23 | 18.23 | 18.23 Mbytes
Step Temp Press TotEng PotEng Enthalpy 
  327176    272.48006   -168.14153   -27843.792   -28535.916   -27893.573 
  333348    247.67153   -356.92588   -28002.248   -28631.356   -28107.641 
Loop time of 938.383 on 1 procs for 6172 steps with 19652 atoms

Performance: 0.568 ns/day, 42.233 hours/ns, 6.577 timesteps/s
92.8% CPU use with 1 MPI tasks x no OpenMP threads

MPI task timing breakdown:
Section |  min time  |  avg time  |  max time  |%varavg| %total
---------------------------------------------------------------
Pair    | 513.42     | 513.42     | 513.42     |   0.0 | 54.71
Neigh   | 401.07     | 401.07     | 401.07     |   0.0 | 42.74
Comm    | 8.7749     | 8.7749     | 8.7749     |   0.0 |  0.94
Output  | 0.00030208 | 0.00030208 | 0.00030208 |   0.0 |  0.00
Modify  | 11.909     | 11.909     | 11.909     |   0.0 |  1.27
Other   |            | 3.206      |            |       |  0.34

Nlocal:    19652 ave 19652 max 19652 min
Histogram: 1 0 0 0 0 0 0 0 0 0
Nghost:    15887 ave 15887 max 15887 min
Histogram: 1 0 0 0 0 0 0 0 0 0
Neighs:    1.06642e+06 ave 1.06642e+06 max 1.06642e+06 min
Histogram: 1 0 0 0 0 0 0 0 0 0

Total # of neighbors = 1066420
Ave neighs/atom = 54.2652
Neighbor list builds = 6172
Dangerous builds not checked
Setting up Verlet run ...
  Unit style    : metal
  Current step  : 333348
  Time step     : 0.001
Per MPI rank memory allocation (min/avg/max) = 18.23 | 18.23 | 18.23 Mbytes
Step Temp Press TotEng PotEng Enthalpy 
  333348    247.67153   -356.92588   -28002.248   -28631.356   -28107.641 
  333350    247.94103   -359.15442   -28002.246   -28632.039   -28108.298 
  333843    224.11887   -187.75954   -28128.778    -28698.06   -28184.045 
Loop time of 72.6084 on 1 procs for 495 steps with 19652 atoms

Performance: 0.589 ns/day, 40.745 hours/ns, 6.817 timesteps/s
95.1% CPU use with 1 MPI tasks x no OpenMP threads

MPI task timing breakdown:
Section |  min time  |  avg time  |  max time  |%varavg| %total
---------------------------------------------------------------
Pair    | 39.739     | 39.739     | 39.739     |   0.0 | 54.73
Neigh   | 30.902     | 30.902     | 30.902     |   0.0 | 42.56
Comm    | 0.69875    | 0.69875    | 0.69875    |   0.0 |  0.96
Output  | 0.068223   | 0.068223   | 0.068223   |   0.0 |  0.09
Modify  | 0.94761    | 0.94761    | 0.94761    |   0.0 |  1.31
Other   |            | 0.2536     |            |       |  0.35

Nlocal:    19652 ave 19652 max 19652 min
Histogram: 1 0 0 0 0 0 0 0 0 0
Nghost:    15899 ave 15899 max 15899 min
Histogram: 1 0 0 0 0 0 0 0 0 0
Neighs:    1.07069e+06 ave 1.07069e+06 max 1.07069e+06 min
Histogram: 1 0 0 0 0 0 0 0 0 0

Total # of neighbors = 1070688
Ave neighs/atom = 54.4824
Neighbor list builds = 495
Dangerous builds not checked
Setting up Verlet run ...
  Unit style    : metal
  Current step  : 333843
  Time step     : 0.001
Per MPI rank memory allocation (min/avg/max) = 18.23 | 18.23 | 18.23 Mbytes
Step Temp Press TotEng PotEng Enthalpy 
  333843    224.11887   -187.75954   -28128.778    -28698.06   -28184.045 
  340015    201.89555    423.34365   -28263.937    -28776.77   -28139.859 
Loop time of 918.088 on 1 procs for 6172 steps with 19652 atoms

Performance: 0.581 ns/day, 41.320 hours/ns, 6.723 timesteps/s
94.0% CPU use with 1 MPI tasks x no OpenMP threads

MPI task timing breakdown:
Section |  min time  |  avg time  |  max time  |%varavg| %total
---------------------------------------------------------------
Pair    | 503.12     | 503.12     | 503.12     |   0.0 | 54.80
Neigh   | 391.3      | 391.3      | 391.3      |   0.0 | 42.62
Comm    | 8.6946     | 8.6946     | 8.6946     |   0.0 |  0.95
Output  | 0.00025201 | 0.00025201 | 0.00025201 |   0.0 |  0.00
Modify  | 11.821     | 11.821     | 11.821     |   0.0 |  1.29
Other   |            | 3.154      |            |       |  0.34

Nlocal:    19652 ave 19652 max 19652 min
Histogram: 1 0 0 0 0 0 0 0 0 0
Nghost:    15933 ave 15933 max 15933 min
Histogram: 1 0 0 0 0 0 0 0 0 0
Neighs:    1.07644e+06 ave 1.07644e+06 max 1.07644e+06 min
Histogram: 1 0 0 0 0 0 0 0 0 0

Total # of neighbors = 1076438
Ave neighs/atom = 54.775
Neighbor list builds = 6172
Dangerous builds not checked
Setting up Verlet run ...
  Unit style    : metal
  Current step  : 340015
  Time step     : 0.001
Per MPI rank memory allocation (min/avg/max) = 18.23 | 18.23 | 18.23 Mbytes
Step Temp Press TotEng PotEng Enthalpy 
  340015    201.89555    423.34365   -28263.937    -28776.77   -28139.859 
  340017    201.81107    422.12401   -28263.939   -28776.558   -28140.218 
  340510    175.98019    -33.72986   -28398.436   -28845.442   -28408.311 
Loop time of 75.4288 on 1 procs for 495 steps with 19652 atoms

Performance: 0.567 ns/day, 42.328 hours/ns, 6.562 timesteps/s
95.8% CPU use with 1 MPI tasks x no OpenMP threads

MPI task timing breakdown:
Section |  min time  |  avg time  |  max time  |%varavg| %total
---------------------------------------------------------------
Pair    | 42.105     | 42.105     | 42.105     |   0.0 | 55.82
Neigh   | 31.154     | 31.154     | 31.154     |   0.0 | 41.30
Comm    | 0.76184    | 0.76184    | 0.76184    |   0.0 |  1.01
Output  | 0.067272   | 0.067272   | 0.067272   |   0.0 |  0.09
Modify  | 1.0901     | 1.0901     | 1.0901     |   0.0 |  1.45
Other   |            | 0.251      |            |       |  0.33

Nlocal:    19652 ave 19652 max 19652 min
Histogram: 1 0 0 0 0 0 0 0 0 0
Nghost:    15973 ave 15973 max 15973 min
Histogram: 1 0 0 0 0 0 0 0 0 0
Neighs:    1.07802e+06 ave 1.07802e+06 max 1.07802e+06 min
Histogram: 1 0 0 0 0 0 0 0 0 0

Total # of neighbors = 1078024
Ave neighs/atom = 54.8557
Neighbor list builds = 495
Dangerous builds not checked
Setting up Verlet run ...
  Unit style    : metal
  Current step  : 340510
  Time step     : 0.001
Per MPI rank memory allocation (min/avg/max) = 18.23 | 18.23 | 18.23 Mbytes
Step Temp Press TotEng PotEng Enthalpy 
  340510    175.98019    -33.72986   -28398.436   -28845.442   -28408.311 
  346682    150.27513   -212.55236    -28542.68   -28924.393   -28604.786 
Loop time of 856.679 on 1 procs for 6172 steps with 19652 atoms

Performance: 0.622 ns/day, 38.556 hours/ns, 7.205 timesteps/s
97.0% CPU use with 1 MPI tasks x no OpenMP threads

MPI task timing breakdown:
Section |  min time  |  avg time  |  max time  |%varavg| %total
---------------------------------------------------------------
Pair    | 463.44     | 463.44     | 463.44     |   0.0 | 54.10
Neigh   | 371.41     | 371.41     | 371.41     |   0.0 | 43.35
Comm    | 7.9893     | 7.9893     | 7.9893     |   0.0 |  0.93
Output  | 0.00029206 | 0.00029206 | 0.00029206 |   0.0 |  0.00
Modify  | 10.87      | 10.87      | 10.87      |   0.0 |  1.27
Other   |            | 2.965      |            |       |  0.35

Nlocal:    19652 ave 19652 max 19652 min
Histogram: 1 0 0 0 0 0 0 0 0 0
Nghost:    15979 ave 15979 max 15979 min
Histogram: 1 0 0 0 0 0 0 0 0 0
Neighs:    1.08061e+06 ave 1.08061e+06 max 1.08061e+06 min
Histogram: 1 0 0 0 0 0 0 0 0 0

Total # of neighbors = 1080610
Ave neighs/atom = 54.9873
Neighbor list builds = 6172
Dangerous builds not checked
Setting up Verlet run ...
  Unit style    : metal
  Current step  : 346682
  Time step     : 0.001
Per MPI rank memory allocation (min/avg/max) = 18.23 | 18.23 | 18.23 Mbytes
Step Temp Press TotEng PotEng Enthalpy 
  346682    150.27513   -212.55236    -28542.68   -28924.393   -28604.786 
  346684    150.24415   -211.08151   -28542.681   -28924.315   -28604.357 
  347177    126.49545    78.929806   -28661.845   -28983.155   -28638.858 
Loop time of 65.8514 on 1 procs for 495 steps with 19652 atoms

Performance: 0.649 ns/day, 36.954 hours/ns, 7.517 timesteps/s
99.9% CPU use with 1 MPI tasks x no OpenMP threads

MPI task timing breakdown:
Section |  min time  |  avg time  |  max time  |%varavg| %total
---------------------------------------------------------------
Pair    | 35.581     | 35.581     | 35.581     |   0.0 | 54.03
Neigh   | 28.564     | 28.564     | 28.564     |   0.0 | 43.38
Comm    | 0.59255    | 0.59255    | 0.59255    |   0.0 |  0.90
Output  | 0.062365   | 0.062365   | 0.062365   |   0.0 |  0.09
Modify  | 0.82781    | 0.82781    | 0.82781    |   0.0 |  1.26
Other   |            | 0.2232     |            |       |  0.34

Nlocal:    19652 ave 19652 max 19652 min
Histogram: 1 0 0 0 0 0 0 0 0 0
Nghost:    15975 ave 15975 max 15975 min
Histogram: 1 0 0 0 0 0 0 0 0 0
Neighs:    1.08457e+06 ave 1.08457e+06 max 1.08457e+06 min
Histogram: 1 0 0 0 0 0 0 0 0 0

Total # of neighbors = 1084569
Ave neighs/atom = 55.1887
Neighbor list builds = 495
Dangerous builds not checked
Setting up Verlet run ...
  Unit style    : metal
  Current step  : 347177
  Time step     : 0.001
Per MPI rank memory allocation (min/avg/max) = 18.23 | 18.23 | 18.23 Mbytes
Step Temp Press TotEng PotEng Enthalpy 
  347177    126.49545    78.929806   -28661.845   -28983.155   -28638.858 
  353349    100.48357    47.093134   -28806.918   -29062.156   -28793.233 
Loop time of 809.891 on 1 procs for 6172 steps with 19652 atoms

Performance: 0.658 ns/day, 36.450 hours/ns, 7.621 timesteps/s
99.9% CPU use with 1 MPI tasks x no OpenMP threads

MPI task timing breakdown:
Section |  min time  |  avg time  |  max time  |%varavg| %total
---------------------------------------------------------------
Pair    | 437.24     | 437.24     | 437.24     |   0.0 | 53.99
Neigh   | 352.58     | 352.58     | 352.58     |   0.0 | 43.53
Comm    | 7.298      | 7.298      | 7.298      |   0.0 |  0.90
Output  | 0.00031209 | 0.00031209 | 0.00031209 |   0.0 |  0.00
Modify  | 10.105     | 10.105     | 10.105     |   0.0 |  1.25
Other   |            | 2.667      |            |       |  0.33

Nlocal:    19652 ave 19652 max 19652 min
Histogram: 1 0 0 0 0 0 0 0 0 0
Nghost:    16013 ave 16013 max 16013 min
Histogram: 1 0 0 0 0 0 0 0 0 0
Neighs:    1.08809e+06 ave 1.08809e+06 max 1.08809e+06 min
Histogram: 1 0 0 0 0 0 0 0 0 0

Total # of neighbors = 1088088
Ave neighs/atom = 55.3678
Neighbor list builds = 6172
Dangerous builds not checked
Total wall time: 10:59:13
