LAMMPS (12 Dec 2018)
Lattice spacing in x,y,z = 4 4 4
Created orthogonal box = (0 0 0) to (68 68 68)
  1 by 1 by 1 MPI processor grid
Created 19652 atoms
  Time spent = 0.00506496 secs
Setting atom values ...
  19281 settings made for type/fraction
Neighbor list info ...
  update every 1 steps, delay 0 steps, check no
  max neighbors/atom: 2000, page size: 100000
  master list distance cutoff = 8.5
  ghost atom cutoff = 8.5
  binsize = 4.25, bins = 16 16 16
  1 neighbor lists, perpetual/occasional/extra = 1 0 0
  (1) pair eam/alloy, perpetual
      attributes: half, newton on
      pair build: half/bin/atomonly/newton
      stencil: half/bin/3d/newton
      bin: standard
Setting up Verlet run ...
  Unit style    : metal
  Current step  : 0
  Time step     : 0.001
Per MPI rank memory allocation (min/avg/max) = 18.19 | 18.19 | 18.19 Mbytes
Step Temp Press TotEng PotEng Enthalpy Volume 
       0          300    641874.75   -38489.165   -39251.192    87480.703       314432 
    1000    857.67536     630240.4   -38489.356    -40667.93    85197.234       314432 
Loop time of 211.474 on 1 procs for 1000 steps with 19652 atoms

Performance: 0.409 ns/day, 58.743 hours/ns, 4.729 timesteps/s
98.6% CPU use with 1 MPI tasks x no OpenMP threads

MPI task timing breakdown:
Section |  min time  |  avg time  |  max time  |%varavg| %total
---------------------------------------------------------------
Pair    | 128.62     | 128.62     | 128.62     |   0.0 | 60.82
Neigh   | 76.215     | 76.215     | 76.215     |   0.0 | 36.04
Comm    | 3.3974     | 3.3974     | 3.3974     |   0.0 |  1.61
Output  | 0.055243   | 0.055243   | 0.055243   |   0.0 |  0.03
Modify  | 1.7739     | 1.7739     | 1.7739     |   0.0 |  0.84
Other   |            | 1.41       |            |       |  0.67

Nlocal:    19652 ave 19652 max 19652 min
Histogram: 1 0 0 0 0 0 0 0 0 0
Nghost:    18828 ave 18828 max 18828 min
Histogram: 1 0 0 0 0 0 0 0 0 0
Neighs:    1.58341e+06 ave 1.58341e+06 max 1.58341e+06 min
Histogram: 1 0 0 0 0 0 0 0 0 0

Total # of neighbors = 1583408
Ave neighs/atom = 80.5724
Neighbor list builds = 1000
Dangerous builds not checked
Setting up Verlet run ...
  Unit style    : metal
  Current step  : 1000
  Time step     : 0.001
Per MPI rank memory allocation (min/avg/max) = 18.19 | 18.19 | 18.19 Mbytes
Step Temp Press TotEng PotEng Enthalpy Volume 
    1000    857.67536     630240.4   -38489.356    -40667.93    85197.234       314432 
    2000     348.4304   -105.88771   -80729.039   -81614.084   -80771.829    647459.96 
Loop time of 142.503 on 1 procs for 1000 steps with 19652 atoms

Performance: 0.606 ns/day, 39.584 hours/ns, 7.017 timesteps/s
98.7% CPU use with 1 MPI tasks x no OpenMP threads

MPI task timing breakdown:
Section |  min time  |  avg time  |  max time  |%varavg| %total
---------------------------------------------------------------
Pair    | 82.035     | 82.035     | 82.035     |   0.0 | 57.57
Neigh   | 54.213     | 54.213     | 54.213     |   0.0 | 38.04
Comm    | 2.1426     | 2.1426     | 2.1426     |   0.0 |  1.50
Output  | 0.059493   | 0.059493   | 0.059493   |   0.0 |  0.04
Modify  | 2.9822     | 2.9822     | 2.9822     |   0.0 |  2.09
Other   |            | 1.071      |            |       |  0.75

Nlocal:    19652 ave 19652 max 19652 min
Histogram: 1 0 0 0 0 0 0 0 0 0
Nghost:    14085 ave 14085 max 14085 min
Histogram: 1 0 0 0 0 0 0 0 0 0
Neighs:    723916 ave 723916 max 723916 min
Histogram: 1 0 0 0 0 0 0 0 0 0

Total # of neighbors = 723916
Ave neighs/atom = 36.8368
Neighbor list builds = 1000
Dangerous builds not checked
Setting up Verlet run ...
  Unit style    : metal
  Current step  : 2000
  Time step     : 0.001
Per MPI rank memory allocation (min/avg/max) = 18.2 | 18.2 | 18.2 Mbytes
Step Temp Press TotEng PotEng Enthalpy Volume 
    2000     348.4304   -105.88771   -80729.039   -81614.084   -80771.829    647459.96 
    3000    511.53959   -65.633654    -80296.98   -81596.338   -80323.594    649667.63 
    4000     800.3221   -24.162941   -78850.105   -80882.996   -78859.992    655580.05 
    5000    1091.9978    537.60827   -77273.675   -80047.449   -77051.873     661013.4 
    6000    1358.1429   -49.423911   -75623.516   -79073.323   -75644.164    669337.27 
    7000    1616.6389   -1124.0268   -73824.927   -77931.337   -74301.577    679412.08 
    8000    1910.9641   -106.24603   -71917.576   -76771.599   -71963.142    687129.38 
    9000    2163.4571    598.66822   -70155.943   -75651.321   -69896.467    694419.38 
   10000    2427.5385   -921.54844   -68624.999   -74791.168   -69030.645     705243.8 
Loop time of 906.696 on 1 procs for 8000 steps with 19652 atoms

Performance: 0.762 ns/day, 31.483 hours/ns, 8.823 timesteps/s
99.5% CPU use with 1 MPI tasks x no OpenMP threads

MPI task timing breakdown:
Section |  min time  |  avg time  |  max time  |%varavg| %total
---------------------------------------------------------------
Pair    | 497.29     | 497.29     | 497.29     |   0.0 | 54.85
Neigh   | 364.17     | 364.17     | 364.17     |   0.0 | 40.16
Comm    | 14.953     | 14.953     | 14.953     |   0.0 |  1.65
Output  | 0.45856    | 0.45856    | 0.45856    |   0.0 |  0.05
Modify  | 21.932     | 21.932     | 21.932     |   0.0 |  2.42
Other   |            | 7.894      |            |       |  0.87

Nlocal:    19652 ave 19652 max 19652 min
Histogram: 1 0 0 0 0 0 0 0 0 0
Nghost:    13483 ave 13483 max 13483 min
Histogram: 1 0 0 0 0 0 0 0 0 0
Neighs:    684697 ave 684697 max 684697 min
Histogram: 1 0 0 0 0 0 0 0 0 0

Total # of neighbors = 684697
Ave neighs/atom = 34.8411
Neighbor list builds = 8000
Dangerous builds not checked
Setting up Verlet run ...
  Unit style    : metal
  Current step  : 10000
  Time step     : 0.001
Per MPI rank memory allocation (min/avg/max) = 18.2 | 18.2 | 18.2 Mbytes
Step Temp Press TotEng PotEng Enthalpy Volume 
   10000    2427.5385   -921.54844   -68624.999   -74791.168   -69030.645     705243.8 
   11000    2462.0915    336.62211   -68465.332   -74719.268   -68317.609    703096.41 
   12000    2457.1719   -242.24009   -68395.419   -74636.859   -68501.988    704847.72 
   13000     2436.355    -281.3533   -68487.695   -74676.258   -68611.467    704826.39 
   14000     2462.367   -230.62054   -68362.219   -74616.856    -68463.71    705083.25 
   15000    2453.5285    303.42102   -68401.429   -74633.615   -68268.063    704227.15 
   16000    2428.6014   -249.43084   -68463.673   -74632.542   -68573.472    705275.27 
   17000    2441.4931    842.93482   -68440.619   -74642.233   -68071.135     702281.7 
   18000    2438.2703   -393.44219   -68445.622   -74639.051   -68618.929    705738.28 
   19000    2466.9539   -219.19137   -68454.009   -74720.296   -68550.423    704735.38 
   20000    2452.7848   -239.05711   -68383.617   -74613.914   -68488.863    705367.41 
   21000    2453.6035    34.331163   -68375.843    -74608.22   -68360.744    704687.32 
   22000    2433.7182    771.01433   -68479.637   -74661.503   -68141.448     702760.3 
   23000    2467.2549   -326.11311   -68352.603   -74619.655    -68496.36    706272.26 
   24000     2424.238    476.40163   -68487.814     -74645.6   -68278.526     703852.3 
   25000    2454.0005   -703.07209   -68420.278   -74653.663   -68730.303    706492.27 
   26000    2449.2896    777.43893   -68387.106   -74608.525   -68046.006    702952.83 
   27000    2452.0655   -494.71673   -68412.602   -74641.072   -68630.598    705997.14 
   28000    2451.4685   -83.311884   -68402.193   -74629.147   -68438.844    704834.05 
   29000     2471.781   -218.12238   -68391.501    -74670.05    -68487.52    705288.15 
   30000    2455.5964    438.76132   -68402.003   -74639.441   -68209.164    704167.79 
   31000    2440.9421   -436.17641   -68483.528   -74683.743   -68675.613    705571.85 
   32000    2426.5723   -290.02376   -68427.036   -74590.751    -68554.78    705696.61 
   33000    2456.7564   -125.74607   -68437.035    -74677.42   -68492.382    705196.12 
   34000    2447.0044    132.63999   -68451.577   -74667.191   -68393.306    703865.11 
   35000    2453.0754   -242.40297   -68355.375    -74586.41   -68462.251    706400.65 
   36000    2455.0042    451.78596   -68373.571   -74609.505   -68175.123    703758.31 
   37000    2431.0243   -675.22671   -68463.476   -74638.499   -68761.001    705965.84 
   38000     2474.479   -18.583496   -68295.046   -74580.448   -68303.225    705147.58 
   39000     2463.899   -445.81774    -68387.54   -74646.068   -68584.049    706214.53 
   40000    2481.7295    751.03237    -68372.32   -74676.139   -68043.024    702486.74 
Loop time of 3411.81 on 1 procs for 30000 steps with 19652 atoms

Performance: 0.760 ns/day, 31.591 hours/ns, 8.793 timesteps/s
99.5% CPU use with 1 MPI tasks x no OpenMP threads

MPI task timing breakdown:
Section |  min time  |  avg time  |  max time  |%varavg| %total
---------------------------------------------------------------
Pair    | 1829.7     | 1829.7     | 1829.7     |   0.0 | 53.63
Neigh   | 1409.1     | 1409.1     | 1409.1     |   0.0 | 41.30
Comm    | 57.082     | 57.082     | 57.082     |   0.0 |  1.67
Output  | 1.8243     | 1.8243     | 1.8243     |   0.0 |  0.05
Modify  | 84.861     | 84.861     | 84.861     |   0.0 |  2.49
Other   |            | 29.28      |            |       |  0.86

Nlocal:    19652 ave 19652 max 19652 min
Histogram: 1 0 0 0 0 0 0 0 0 0
Nghost:    13542 ave 13542 max 13542 min
Histogram: 1 0 0 0 0 0 0 0 0 0
Neighs:    687752 ave 687752 max 687752 min
Histogram: 1 0 0 0 0 0 0 0 0 0

Total # of neighbors = 687752
Ave neighs/atom = 34.9965
Neighbor list builds = 30000
Dangerous builds not checked
Setting up Verlet run ...
  Unit style    : metal
  Current step  : 40000
  Time step     : 0.001
Per MPI rank memory allocation (min/avg/max) = 18.2 | 18.2 | 18.2 Mbytes
Step Temp Press TotEng PotEng Enthalpy Volume 
   40000    2481.7295    751.03237    -68372.32   -74676.139   -68043.024    702486.74 
   40495    2399.9353   -86.415514   -68627.452   -74723.506   -68665.406    703688.04 
Loop time of 52.0279 on 1 procs for 495 steps with 19652 atoms

Performance: 0.822 ns/day, 29.196 hours/ns, 9.514 timesteps/s
99.9% CPU use with 1 MPI tasks x no OpenMP threads

MPI task timing breakdown:
Section |  min time  |  avg time  |  max time  |%varavg| %total
---------------------------------------------------------------
Pair    | 27.677     | 27.677     | 27.677     |   0.0 | 53.20
Neigh   | 21.953     | 21.953     | 21.953     |   0.0 | 42.20
Comm    | 0.80161    | 0.80161    | 0.80161    |   0.0 |  1.54
Output  | 0.00021005 | 0.00021005 | 0.00021005 |   0.0 |  0.00
Modify  | 1.1711     | 1.1711     | 1.1711     |   0.0 |  2.25
Other   |            | 0.4251     |            |       |  0.82

Nlocal:    19652 ave 19652 max 19652 min
Histogram: 1 0 0 0 0 0 0 0 0 0
Nghost:    13551 ave 13551 max 13551 min
Histogram: 1 0 0 0 0 0 0 0 0 0
Neighs:    686466 ave 686466 max 686466 min
Histogram: 1 0 0 0 0 0 0 0 0 0

Total # of neighbors = 686466
Ave neighs/atom = 34.9311
Neighbor list builds = 495
Dangerous builds not checked
Setting up Verlet run ...
  Unit style    : metal
  Current step  : 40495
  Time step     : 0.001
Per MPI rank memory allocation (min/avg/max) = 18.2 | 18.2 | 18.2 Mbytes
Step Temp Press TotEng PotEng Enthalpy Volume 
   40495    2399.9353   -86.415514   -68627.452   -74723.506   -68665.406    703688.04 
   41000    2380.8934    263.57952   -68759.029   -74806.715   -68643.481     702359.9 
Loop time of 53.8333 on 1 procs for 505 steps with 19652 atoms

Performance: 0.811 ns/day, 29.611 hours/ns, 9.381 timesteps/s
99.9% CPU use with 1 MPI tasks x no OpenMP threads

MPI task timing breakdown:
Section |  min time  |  avg time  |  max time  |%varavg| %total
---------------------------------------------------------------
Pair    | 28.607     | 28.607     | 28.607     |   0.0 | 53.14
Neigh   | 22.561     | 22.561     | 22.561     |   0.0 | 41.91
Comm    | 0.89059    | 0.89059    | 0.89059    |   0.0 |  1.65
Output  | 0.059822   | 0.059822   | 0.059822   |   0.0 |  0.11
Modify  | 1.2624     | 1.2624     | 1.2624     |   0.0 |  2.35
Other   |            | 0.4521     |            |       |  0.84

Nlocal:    19652 ave 19652 max 19652 min
Histogram: 1 0 0 0 0 0 0 0 0 0
Nghost:    13572 ave 13572 max 13572 min
Histogram: 1 0 0 0 0 0 0 0 0 0
Neighs:    687373 ave 687373 max 687373 min
Histogram: 1 0 0 0 0 0 0 0 0 0

Total # of neighbors = 687373
Ave neighs/atom = 34.9773
Neighbor list builds = 505
Dangerous builds not checked
Setting up Verlet run ...
  Unit style    : metal
  Current step  : 41000
  Time step     : 0.001
Per MPI rank memory allocation (min/avg/max) = 18.2 | 18.2 | 18.2 Mbytes
Step Temp Press TotEng PotEng Enthalpy Volume 
   41000    2380.8934    263.57952   -68759.029   -74806.715   -68643.481     702359.9 
   41495    2371.9018   -66.325183   -68889.754   -74914.601    -68918.86    703091.68 
Loop time of 54.0843 on 1 procs for 495 steps with 19652 atoms

Performance: 0.791 ns/day, 30.350 hours/ns, 9.152 timesteps/s
99.9% CPU use with 1 MPI tasks x no OpenMP threads

MPI task timing breakdown:
Section |  min time  |  avg time  |  max time  |%varavg| %total
---------------------------------------------------------------
Pair    | 29.046     | 29.046     | 29.046     |   0.0 | 53.70
Neigh   | 22.375     | 22.375     | 22.375     |   0.0 | 41.37
Comm    | 0.87797    | 0.87797    | 0.87797    |   0.0 |  1.62
Output  | 0.00022101 | 0.00022101 | 0.00022101 |   0.0 |  0.00
Modify  | 1.3221     | 1.3221     | 1.3221     |   0.0 |  2.44
Other   |            | 0.4633     |            |       |  0.86

Nlocal:    19652 ave 19652 max 19652 min
Histogram: 1 0 0 0 0 0 0 0 0 0
Nghost:    13578 ave 13578 max 13578 min
Histogram: 1 0 0 0 0 0 0 0 0 0
Neighs:    686095 ave 686095 max 686095 min
Histogram: 1 0 0 0 0 0 0 0 0 0

Total # of neighbors = 686095
Ave neighs/atom = 34.9122
Neighbor list builds = 495
Dangerous builds not checked
Setting up Verlet run ...
  Unit style    : metal
  Current step  : 41495
  Time step     : 0.001
Per MPI rank memory allocation (min/avg/max) = 18.2 | 18.2 | 18.2 Mbytes
Step Temp Press TotEng PotEng Enthalpy Volume 
   41495    2371.9018   -66.325183   -68889.754   -74914.601    -68918.86    703091.68 
   42000    2354.0166    508.07043   -68968.331   -74947.747   -68746.071    700885.61 
Loop time of 53.2035 on 1 procs for 505 steps with 19652 atoms

Performance: 0.820 ns/day, 29.265 hours/ns, 9.492 timesteps/s
99.9% CPU use with 1 MPI tasks x no OpenMP threads

MPI task timing breakdown:
Section |  min time  |  avg time  |  max time  |%varavg| %total
---------------------------------------------------------------
Pair    | 28.413     | 28.413     | 28.413     |   0.0 | 53.40
Neigh   | 22.203     | 22.203     | 22.203     |   0.0 | 41.73
Comm    | 0.82484    | 0.82484    | 0.82484    |   0.0 |  1.55
Output  | 0.056243   | 0.056243   | 0.056243   |   0.0 |  0.11
Modify  | 1.2575     | 1.2575     | 1.2575     |   0.0 |  2.36
Other   |            | 0.4492     |            |       |  0.84

Nlocal:    19652 ave 19652 max 19652 min
Histogram: 1 0 0 0 0 0 0 0 0 0
Nghost:    13556 ave 13556 max 13556 min
Histogram: 1 0 0 0 0 0 0 0 0 0
Neighs:    688328 ave 688328 max 688328 min
Histogram: 1 0 0 0 0 0 0 0 0 0

Total # of neighbors = 688328
Ave neighs/atom = 35.0258
Neighbor list builds = 505
Dangerous builds not checked
Setting up Verlet run ...
  Unit style    : metal
  Current step  : 42000
  Time step     : 0.001
Per MPI rank memory allocation (min/avg/max) = 18.2 | 18.2 | 18.2 Mbytes
Step Temp Press TotEng PotEng Enthalpy Volume 
   42000    2354.0166    508.07043   -68968.331   -74947.747   -68746.071    700885.61 
   42495    2321.8423    464.30354   -69220.532   -75118.223   -69017.747    699751.85 
Loop time of 52.5355 on 1 procs for 495 steps with 19652 atoms

Performance: 0.814 ns/day, 29.481 hours/ns, 9.422 timesteps/s
99.9% CPU use with 1 MPI tasks x no OpenMP threads

MPI task timing breakdown:
Section |  min time  |  avg time  |  max time  |%varavg| %total
---------------------------------------------------------------
Pair    | 28.019     | 28.019     | 28.019     |   0.0 | 53.33
Neigh   | 22.068     | 22.068     | 22.068     |   0.0 | 42.01
Comm    | 0.80457    | 0.80457    | 0.80457    |   0.0 |  1.53
Output  | 0.00021791 | 0.00021791 | 0.00021791 |   0.0 |  0.00
Modify  | 1.2034     | 1.2034     | 1.2034     |   0.0 |  2.29
Other   |            | 0.4403     |            |       |  0.84

Nlocal:    19652 ave 19652 max 19652 min
Histogram: 1 0 0 0 0 0 0 0 0 0
Nghost:    13631 ave 13631 max 13631 min
Histogram: 1 0 0 0 0 0 0 0 0 0
Neighs:    689367 ave 689367 max 689367 min
Histogram: 1 0 0 0 0 0 0 0 0 0

Total # of neighbors = 689367
Ave neighs/atom = 35.0787
Neighbor list builds = 495
Dangerous builds not checked
Setting up Verlet run ...
  Unit style    : metal
  Current step  : 42495
  Time step     : 0.001
Per MPI rank memory allocation (min/avg/max) = 18.2 | 18.2 | 18.2 Mbytes
Step Temp Press TotEng PotEng Enthalpy Volume 
   42495    2321.8423    464.30354   -69220.532   -75118.223   -69017.747    699751.85 
   43000    2293.6737    251.55665   -69310.808   -75136.948   -69200.969    699569.92 
Loop time of 50.4035 on 1 procs for 505 steps with 19652 atoms

Performance: 0.866 ns/day, 27.725 hours/ns, 10.019 timesteps/s
99.9% CPU use with 1 MPI tasks x no OpenMP threads

MPI task timing breakdown:
Section |  min time  |  avg time  |  max time  |%varavg| %total
---------------------------------------------------------------
Pair    | 26.719     | 26.719     | 26.719     |   0.0 | 53.01
Neigh   | 21.567     | 21.567     | 21.567     |   0.0 | 42.79
Comm    | 0.67942    | 0.67942    | 0.67942    |   0.0 |  1.35
Output  | 0.056063   | 0.056063   | 0.056063   |   0.0 |  0.11
Modify  | 1.0297     | 1.0297     | 1.0297     |   0.0 |  2.04
Other   |            | 0.3518     |            |       |  0.70

Nlocal:    19652 ave 19652 max 19652 min
Histogram: 1 0 0 0 0 0 0 0 0 0
Nghost:    13627 ave 13627 max 13627 min
Histogram: 1 0 0 0 0 0 0 0 0 0
Neighs:    689346 ave 689346 max 689346 min
Histogram: 1 0 0 0 0 0 0 0 0 0

Total # of neighbors = 689346
Ave neighs/atom = 35.0777
Neighbor list builds = 505
Dangerous builds not checked
Setting up Verlet run ...
  Unit style    : metal
  Current step  : 43000
  Time step     : 0.001
Per MPI rank memory allocation (min/avg/max) = 18.2 | 18.2 | 18.2 Mbytes
Step Temp Press TotEng PotEng Enthalpy Volume 
   43000    2293.6737    251.55665   -69310.808   -75136.948   -69200.969    699569.92 
   43495    2257.6323    172.22019   -69531.718   -75266.309   -69456.642    698434.87 
Loop time of 54.7914 on 1 procs for 495 steps with 19652 atoms

Performance: 0.781 ns/day, 30.747 hours/ns, 9.034 timesteps/s
99.9% CPU use with 1 MPI tasks x no OpenMP threads

MPI task timing breakdown:
Section |  min time  |  avg time  |  max time  |%varavg| %total
---------------------------------------------------------------
Pair    | 29.73      | 29.73      | 29.73      |   0.0 | 54.26
Neigh   | 22.354     | 22.354     | 22.354     |   0.0 | 40.80
Comm    | 0.89172    | 0.89172    | 0.89172    |   0.0 |  1.63
Output  | 0.00025606 | 0.00025606 | 0.00025606 |   0.0 |  0.00
Modify  | 1.3469     | 1.3469     | 1.3469     |   0.0 |  2.46
Other   |            | 0.4685     |            |       |  0.86

Nlocal:    19652 ave 19652 max 19652 min
Histogram: 1 0 0 0 0 0 0 0 0 0
Nghost:    13578 ave 13578 max 13578 min
Histogram: 1 0 0 0 0 0 0 0 0 0
Neighs:    690250 ave 690250 max 690250 min
Histogram: 1 0 0 0 0 0 0 0 0 0

Total # of neighbors = 690250
Ave neighs/atom = 35.1237
Neighbor list builds = 495
Dangerous builds not checked
Setting up Verlet run ...
  Unit style    : metal
  Current step  : 43495
  Time step     : 0.001
Per MPI rank memory allocation (min/avg/max) = 18.2 | 18.2 | 18.2 Mbytes
Step Temp Press TotEng PotEng Enthalpy Volume 
   43495    2257.6323    172.22019   -69531.718   -75266.309   -69456.642    698434.87 
   44000    2236.6613     536.3563   -69700.318   -75381.641   -69467.016    696906.94 
Loop time of 56.499 on 1 procs for 505 steps with 19652 atoms

Performance: 0.772 ns/day, 31.078 hours/ns, 8.938 timesteps/s
99.8% CPU use with 1 MPI tasks x no OpenMP threads

MPI task timing breakdown:
Section |  min time  |  avg time  |  max time  |%varavg| %total
---------------------------------------------------------------
Pair    | 30.644     | 30.644     | 30.644     |   0.0 | 54.24
Neigh   | 22.96      | 22.96      | 22.96      |   0.0 | 40.64
Comm    | 0.94003    | 0.94003    | 0.94003    |   0.0 |  1.66
Output  | 0.057577   | 0.057577   | 0.057577   |   0.0 |  0.10
Modify  | 1.4077     | 1.4077     | 1.4077     |   0.0 |  2.49
Other   |            | 0.4894     |            |       |  0.87

Nlocal:    19652 ave 19652 max 19652 min
Histogram: 1 0 0 0 0 0 0 0 0 0
Nghost:    13609 ave 13609 max 13609 min
Histogram: 1 0 0 0 0 0 0 0 0 0
Neighs:    691264 ave 691264 max 691264 min
Histogram: 1 0 0 0 0 0 0 0 0 0

Total # of neighbors = 691264
Ave neighs/atom = 35.1752
Neighbor list builds = 505
Dangerous builds not checked
Setting up Verlet run ...
  Unit style    : metal
  Current step  : 44000
  Time step     : 0.001
Per MPI rank memory allocation (min/avg/max) = 18.2 | 18.2 | 18.2 Mbytes
Step Temp Press TotEng PotEng Enthalpy Volume 
   44000    2236.6613     536.3563   -69700.318   -75381.641   -69467.016    696906.94 
   44495    2197.1098    66.684667    -69853.14       -75434   -69824.106    697587.83 
Loop time of 55.1815 on 1 procs for 495 steps with 19652 atoms

Performance: 0.775 ns/day, 30.966 hours/ns, 8.970 timesteps/s
99.9% CPU use with 1 MPI tasks x no OpenMP threads

MPI task timing breakdown:
Section |  min time  |  avg time  |  max time  |%varavg| %total
---------------------------------------------------------------
Pair    | 29.97      | 29.97      | 29.97      |   0.0 | 54.31
Neigh   | 22.445     | 22.445     | 22.445     |   0.0 | 40.67
Comm    | 0.91544    | 0.91544    | 0.91544    |   0.0 |  1.66
Output  | 0.00018311 | 0.00018311 | 0.00018311 |   0.0 |  0.00
Modify  | 1.3723     | 1.3723     | 1.3723     |   0.0 |  2.49
Other   |            | 0.4793     |            |       |  0.87

Nlocal:    19652 ave 19652 max 19652 min
Histogram: 1 0 0 0 0 0 0 0 0 0
Nghost:    13732 ave 13732 max 13732 min
Histogram: 1 0 0 0 0 0 0 0 0 0
Neighs:    690531 ave 690531 max 690531 min
Histogram: 1 0 0 0 0 0 0 0 0 0

Total # of neighbors = 690531
Ave neighs/atom = 35.138
Neighbor list builds = 495
Dangerous builds not checked
Setting up Verlet run ...
  Unit style    : metal
  Current step  : 44495
  Time step     : 0.001
Per MPI rank memory allocation (min/avg/max) = 18.2 | 18.2 | 18.2 Mbytes
Step Temp Press TotEng PotEng Enthalpy Volume 
   44495    2197.1098    66.684667    -69853.14       -75434   -69824.106    697587.83 
   45000    2219.0669    476.52021    -69913.53   -75550.162    -69706.62    695681.48 
Loop time of 56.2711 on 1 procs for 505 steps with 19652 atoms

Performance: 0.775 ns/day, 30.952 hours/ns, 8.974 timesteps/s
99.9% CPU use with 1 MPI tasks x no OpenMP threads

MPI task timing breakdown:
Section |  min time  |  avg time  |  max time  |%varavg| %total
---------------------------------------------------------------
Pair    | 30.628     | 30.628     | 30.628     |   0.0 | 54.43
Neigh   | 22.799     | 22.799     | 22.799     |   0.0 | 40.52
Comm    | 0.92409    | 0.92409    | 0.92409    |   0.0 |  1.64
Output  | 0.057474   | 0.057474   | 0.057474   |   0.0 |  0.10
Modify  | 1.3747     | 1.3747     | 1.3747     |   0.0 |  2.44
Other   |            | 0.4881     |            |       |  0.87

Nlocal:    19652 ave 19652 max 19652 min
Histogram: 1 0 0 0 0 0 0 0 0 0
Nghost:    13637 ave 13637 max 13637 min
Histogram: 1 0 0 0 0 0 0 0 0 0
Neighs:    692125 ave 692125 max 692125 min
Histogram: 1 0 0 0 0 0 0 0 0 0

Total # of neighbors = 692125
Ave neighs/atom = 35.2191
Neighbor list builds = 505
Dangerous builds not checked
Setting up Verlet run ...
  Unit style    : metal
  Current step  : 45000
  Time step     : 0.001
Per MPI rank memory allocation (min/avg/max) = 18.2 | 18.2 | 18.2 Mbytes
Step Temp Press TotEng PotEng Enthalpy Volume 
   45000    2219.0669    476.52021    -69913.53   -75550.162    -69706.62    695681.48 
   45495    2164.3565    319.90008   -70105.017    -75602.68   -69966.139    695554.76 
Loop time of 55.3704 on 1 procs for 495 steps with 19652 atoms

Performance: 0.772 ns/day, 31.072 hours/ns, 8.940 timesteps/s
99.5% CPU use with 1 MPI tasks x no OpenMP threads

MPI task timing breakdown:
Section |  min time  |  avg time  |  max time  |%varavg| %total
---------------------------------------------------------------
Pair    | 30.077     | 30.077     | 30.077     |   0.0 | 54.32
Neigh   | 22.545     | 22.545     | 22.545     |   0.0 | 40.72
Comm    | 0.90062    | 0.90062    | 0.90062    |   0.0 |  1.63
Output  | 0.00021195 | 0.00021195 | 0.00021195 |   0.0 |  0.00
Modify  | 1.3639     | 1.3639     | 1.3639     |   0.0 |  2.46
Other   |            | 0.4834     |            |       |  0.87

Nlocal:    19652 ave 19652 max 19652 min
Histogram: 1 0 0 0 0 0 0 0 0 0
Nghost:    13609 ave 13609 max 13609 min
Histogram: 1 0 0 0 0 0 0 0 0 0
Neighs:    692307 ave 692307 max 692307 min
Histogram: 1 0 0 0 0 0 0 0 0 0

Total # of neighbors = 692307
Ave neighs/atom = 35.2283
Neighbor list builds = 495
Dangerous builds not checked
Setting up Verlet run ...
  Unit style    : metal
  Current step  : 45495
  Time step     : 0.001
Per MPI rank memory allocation (min/avg/max) = 18.2 | 18.2 | 18.2 Mbytes
Step Temp Press TotEng PotEng Enthalpy Volume 
   45495    2164.3565    319.90008   -70105.017    -75602.68   -69966.139    695554.76 
   46000    2137.0883    389.22231   -70214.667   -75643.066   -70045.828    694999.25 
Loop time of 55.594 on 1 procs for 505 steps with 19652 atoms

Performance: 0.785 ns/day, 30.580 hours/ns, 9.084 timesteps/s
98.5% CPU use with 1 MPI tasks x no OpenMP threads

MPI task timing breakdown:
Section |  min time  |  avg time  |  max time  |%varavg| %total
---------------------------------------------------------------
Pair    | 29.823     | 29.823     | 29.823     |   0.0 | 53.64
Neigh   | 22.973     | 22.973     | 22.973     |   0.0 | 41.32
Comm    | 0.90833    | 0.90833    | 0.90833    |   0.0 |  1.63
Output  | 0.060386   | 0.060386   | 0.060386   |   0.0 |  0.11
Modify  | 1.3056     | 1.3056     | 1.3056     |   0.0 |  2.35
Other   |            | 0.5232     |            |       |  0.94

Nlocal:    19652 ave 19652 max 19652 min
Histogram: 1 0 0 0 0 0 0 0 0 0
Nghost:    13619 ave 13619 max 13619 min
Histogram: 1 0 0 0 0 0 0 0 0 0
Neighs:    692618 ave 692618 max 692618 min
Histogram: 1 0 0 0 0 0 0 0 0 0

Total # of neighbors = 692618
Ave neighs/atom = 35.2441
Neighbor list builds = 505
Dangerous builds not checked
Setting up Verlet run ...
  Unit style    : metal
  Current step  : 46000
  Time step     : 0.001
Per MPI rank memory allocation (min/avg/max) = 18.2 | 18.2 | 18.2 Mbytes
Step Temp Press TotEng PotEng Enthalpy Volume 
   46000    2137.0883    389.22231   -70214.667   -75643.066   -70045.828    694999.25 
   46495    2107.4696      519.169   -70470.769   -75823.934   -70246.087    693379.93 
Loop time of 56.3577 on 1 procs for 495 steps with 19652 atoms

Performance: 0.759 ns/day, 31.626 hours/ns, 8.783 timesteps/s
99.9% CPU use with 1 MPI tasks x no OpenMP threads

MPI task timing breakdown:
Section |  min time  |  avg time  |  max time  |%varavg| %total
---------------------------------------------------------------
Pair    | 30.554     | 30.554     | 30.554     |   0.0 | 54.21
Neigh   | 22.772     | 22.772     | 22.772     |   0.0 | 40.41
Comm    | 0.99659    | 0.99659    | 0.99659    |   0.0 |  1.77
Output  | 0.00039411 | 0.00039411 | 0.00039411 |   0.0 |  0.00
Modify  | 1.4761     | 1.4761     | 1.4761     |   0.0 |  2.62
Other   |            | 0.5593     |            |       |  0.99

Nlocal:    19652 ave 19652 max 19652 min
Histogram: 1 0 0 0 0 0 0 0 0 0
Nghost:    13656 ave 13656 max 13656 min
Histogram: 1 0 0 0 0 0 0 0 0 0
Neighs:    693877 ave 693877 max 693877 min
Histogram: 1 0 0 0 0 0 0 0 0 0

Total # of neighbors = 693877
Ave neighs/atom = 35.3082
Neighbor list builds = 495
Dangerous builds not checked
Setting up Verlet run ...
  Unit style    : metal
  Current step  : 46495
  Time step     : 0.001
Per MPI rank memory allocation (min/avg/max) = 18.2 | 18.2 | 18.2 Mbytes
Step Temp Press TotEng PotEng Enthalpy Volume 
   46495    2107.4696      519.169   -70470.769   -75823.934   -70246.087    693379.93 
   47000    2102.0802    449.47982   -70443.829   -75783.304   -70249.271    693502.34 
Loop time of 52.9056 on 1 procs for 505 steps with 19652 atoms

Performance: 0.825 ns/day, 29.101 hours/ns, 9.545 timesteps/s
99.9% CPU use with 1 MPI tasks x no OpenMP threads

MPI task timing breakdown:
Section |  min time  |  avg time  |  max time  |%varavg| %total
---------------------------------------------------------------
Pair    | 28.305     | 28.305     | 28.305     |   0.0 | 53.50
Neigh   | 22.041     | 22.041     | 22.041     |   0.0 | 41.66
Comm    | 0.80874    | 0.80874    | 0.80874    |   0.0 |  1.53
Output  | 0.059557   | 0.059557   | 0.059557   |   0.0 |  0.11
Modify  | 1.2199     | 1.2199     | 1.2199     |   0.0 |  2.31
Other   |            | 0.4709     |            |       |  0.89

Nlocal:    19652 ave 19652 max 19652 min
Histogram: 1 0 0 0 0 0 0 0 0 0
Nghost:    13627 ave 13627 max 13627 min
Histogram: 1 0 0 0 0 0 0 0 0 0
Neighs:    694045 ave 694045 max 694045 min
Histogram: 1 0 0 0 0 0 0 0 0 0

Total # of neighbors = 694045
Ave neighs/atom = 35.3168
Neighbor list builds = 505
Dangerous builds not checked
Setting up Verlet run ...
  Unit style    : metal
  Current step  : 47000
  Time step     : 0.001
Per MPI rank memory allocation (min/avg/max) = 18.2 | 18.2 | 18.2 Mbytes
Step Temp Press TotEng PotEng Enthalpy Volume 
   47000    2102.0802    449.47982   -70443.829   -75783.304   -70249.271    693502.34 
   47495    2055.4262    434.00781   -70788.822   -76009.792   -70601.504    691502.34 
Loop time of 51.6037 on 1 procs for 495 steps with 19652 atoms

Performance: 0.829 ns/day, 28.958 hours/ns, 9.592 timesteps/s
99.9% CPU use with 1 MPI tasks x no OpenMP threads

MPI task timing breakdown:
Section |  min time  |  avg time  |  max time  |%varavg| %total
---------------------------------------------------------------
Pair    | 27.564     | 27.564     | 27.564     |   0.0 | 53.41
Neigh   | 21.642     | 21.642     | 21.642     |   0.0 | 41.94
Comm    | 0.77879    | 0.77879    | 0.77879    |   0.0 |  1.51
Output  | 0.00029397 | 0.00029397 | 0.00029397 |   0.0 |  0.00
Modify  | 1.1679     | 1.1679     | 1.1679     |   0.0 |  2.26
Other   |            | 0.4508     |            |       |  0.87

Nlocal:    19652 ave 19652 max 19652 min
Histogram: 1 0 0 0 0 0 0 0 0 0
Nghost:    13717 ave 13717 max 13717 min
Histogram: 1 0 0 0 0 0 0 0 0 0
Neighs:    695524 ave 695524 max 695524 min
Histogram: 1 0 0 0 0 0 0 0 0 0

Total # of neighbors = 695524
Ave neighs/atom = 35.392
Neighbor list builds = 495
Dangerous builds not checked
Setting up Verlet run ...
  Unit style    : metal
  Current step  : 47495
  Time step     : 0.001
Per MPI rank memory allocation (min/avg/max) = 18.2 | 18.2 | 18.2 Mbytes
Step Temp Press TotEng PotEng Enthalpy Volume 
   47495    2055.4262    434.00781   -70788.822   -76009.792   -70601.504    691502.34 
   48000    2050.4093    397.69397   -70832.941   -76041.167   -70661.356     691259.7 
Loop time of 54.1468 on 1 procs for 505 steps with 19652 atoms

Performance: 0.806 ns/day, 29.784 hours/ns, 9.326 timesteps/s
99.8% CPU use with 1 MPI tasks x no OpenMP threads

MPI task timing breakdown:
Section |  min time  |  avg time  |  max time  |%varavg| %total
---------------------------------------------------------------
Pair    | 29.055     | 29.055     | 29.055     |   0.0 | 53.66
Neigh   | 22.379     | 22.379     | 22.379     |   0.0 | 41.33
Comm    | 0.878      | 0.878      | 0.878      |   0.0 |  1.62
Output  | 0.059115   | 0.059115   | 0.059115   |   0.0 |  0.11
Modify  | 1.2809     | 1.2809     | 1.2809     |   0.0 |  2.37
Other   |            | 0.4946     |            |       |  0.91

Nlocal:    19652 ave 19652 max 19652 min
Histogram: 1 0 0 0 0 0 0 0 0 0
Nghost:    13685 ave 13685 max 13685 min
Histogram: 1 0 0 0 0 0 0 0 0 0
Neighs:    695490 ave 695490 max 695490 min
Histogram: 1 0 0 0 0 0 0 0 0 0

Total # of neighbors = 695490
Ave neighs/atom = 35.3903
Neighbor list builds = 505
Dangerous builds not checked
Setting up Verlet run ...
  Unit style    : metal
  Current step  : 48000
  Time step     : 0.001
Per MPI rank memory allocation (min/avg/max) = 18.2 | 18.2 | 18.2 Mbytes
Step Temp Press TotEng PotEng Enthalpy Volume 
   48000    2050.4093    397.69397   -70832.941   -76041.167   -70661.356     691259.7 
   48495    2015.1307    330.42718   -71054.169   -76172.785   -70911.713    690744.15 
Loop time of 53.7812 on 1 procs for 495 steps with 19652 atoms

Performance: 0.795 ns/day, 30.180 hours/ns, 9.204 timesteps/s
100.0% CPU use with 1 MPI tasks x no OpenMP threads

MPI task timing breakdown:
Section |  min time  |  avg time  |  max time  |%varavg| %total
---------------------------------------------------------------
Pair    | 29.087     | 29.087     | 29.087     |   0.0 | 54.08
Neigh   | 22.056     | 22.056     | 22.056     |   0.0 | 41.01
Comm    | 0.86466    | 0.86466    | 0.86466    |   0.0 |  1.61
Output  | 0.00021815 | 0.00021815 | 0.00021815 |   0.0 |  0.00
Modify  | 1.3247     | 1.3247     | 1.3247     |   0.0 |  2.46
Other   |            | 0.4487     |            |       |  0.83

Nlocal:    19652 ave 19652 max 19652 min
Histogram: 1 0 0 0 0 0 0 0 0 0
Nghost:    13666 ave 13666 max 13666 min
Histogram: 1 0 0 0 0 0 0 0 0 0
Neighs:    695713 ave 695713 max 695713 min
Histogram: 1 0 0 0 0 0 0 0 0 0

Total # of neighbors = 695713
Ave neighs/atom = 35.4016
Neighbor list builds = 495
Dangerous builds not checked
Setting up Verlet run ...
  Unit style    : metal
  Current step  : 48495
  Time step     : 0.001
Per MPI rank memory allocation (min/avg/max) = 18.2 | 18.2 | 18.2 Mbytes
Step Temp Press TotEng PotEng Enthalpy Volume 
   48495    2015.1307    330.42718   -71054.169   -76172.785   -70911.713    690744.15 
   49000    2005.9459    738.82719   -71132.341   -76227.626   -70814.393       689482 
Loop time of 56.8161 on 1 procs for 505 steps with 19652 atoms

Performance: 0.768 ns/day, 31.252 hours/ns, 8.888 timesteps/s
100.0% CPU use with 1 MPI tasks x no OpenMP threads

MPI task timing breakdown:
Section |  min time  |  avg time  |  max time  |%varavg| %total
---------------------------------------------------------------
Pair    | 30.854     | 30.854     | 30.854     |   0.0 | 54.31
Neigh   | 22.973     | 22.973     | 22.973     |   0.0 | 40.43
Comm    | 0.96713    | 0.96713    | 0.96713    |   0.0 |  1.70
Output  | 0.055728   | 0.055728   | 0.055728   |   0.0 |  0.10
Modify  | 1.4563     | 1.4563     | 1.4563     |   0.0 |  2.56
Other   |            | 0.51       |            |       |  0.90

Nlocal:    19652 ave 19652 max 19652 min
Histogram: 1 0 0 0 0 0 0 0 0 0
Nghost:    13613 ave 13613 max 13613 min
Histogram: 1 0 0 0 0 0 0 0 0 0
Neighs:    696600 ave 696600 max 696600 min
Histogram: 1 0 0 0 0 0 0 0 0 0

Total # of neighbors = 696600
Ave neighs/atom = 35.4468
Neighbor list builds = 505
Dangerous builds not checked
Setting up Verlet run ...
  Unit style    : metal
  Current step  : 49000
  Time step     : 0.001
Per MPI rank memory allocation (min/avg/max) = 18.2 | 18.2 | 18.2 Mbytes
Step Temp Press TotEng PotEng Enthalpy Volume 
   49000    2005.9459    738.82719   -71132.341   -76227.626   -70814.393       689482 
   49495    1967.3796     436.8894   -71327.171   -76324.494   -71139.204    689318.88 
Loop time of 53.2566 on 1 procs for 495 steps with 19652 atoms

Performance: 0.803 ns/day, 29.886 hours/ns, 9.295 timesteps/s
98.9% CPU use with 1 MPI tasks x no OpenMP threads

MPI task timing breakdown:
Section |  min time  |  avg time  |  max time  |%varavg| %total
---------------------------------------------------------------
Pair    | 28.715     | 28.715     | 28.715     |   0.0 | 53.92
Neigh   | 22.034     | 22.034     | 22.034     |   0.0 | 41.37
Comm    | 0.82999    | 0.82999    | 0.82999    |   0.0 |  1.56
Output  | 0.00026393 | 0.00026393 | 0.00026393 |   0.0 |  0.00
Modify  | 1.245      | 1.245      | 1.245      |   0.0 |  2.34
Other   |            | 0.4321     |            |       |  0.81

Nlocal:    19652 ave 19652 max 19652 min
Histogram: 1 0 0 0 0 0 0 0 0 0
Nghost:    13633 ave 13633 max 13633 min
Histogram: 1 0 0 0 0 0 0 0 0 0
Neighs:    696617 ave 696617 max 696617 min
Histogram: 1 0 0 0 0 0 0 0 0 0

Total # of neighbors = 696617
Ave neighs/atom = 35.4476
Neighbor list builds = 495
Dangerous builds not checked
Setting up Verlet run ...
  Unit style    : metal
  Current step  : 49495
  Time step     : 0.001
Per MPI rank memory allocation (min/avg/max) = 18.2 | 18.2 | 18.2 Mbytes
Step Temp Press TotEng PotEng Enthalpy Volume 
   49495    1967.3796     436.8894   -71327.171   -76324.494   -71139.204    689318.88 
   50000    1951.9239    211.12369   -71513.539   -76471.604   -71422.779    688762.68 
Loop time of 52.4744 on 1 procs for 505 steps with 19652 atoms

Performance: 0.831 ns/day, 28.864 hours/ns, 9.624 timesteps/s
99.6% CPU use with 1 MPI tasks x no OpenMP threads

MPI task timing breakdown:
Section |  min time  |  avg time  |  max time  |%varavg| %total
---------------------------------------------------------------
Pair    | 28.249     | 28.249     | 28.249     |   0.0 | 53.83
Neigh   | 21.865     | 21.865     | 21.865     |   0.0 | 41.67
Comm    | 0.74401    | 0.74401    | 0.74401    |   0.0 |  1.42
Output  | 0.056784   | 0.056784   | 0.056784   |   0.0 |  0.11
Modify  | 1.1527     | 1.1527     | 1.1527     |   0.0 |  2.20
Other   |            | 0.4067     |            |       |  0.78

Nlocal:    19652 ave 19652 max 19652 min
Histogram: 1 0 0 0 0 0 0 0 0 0
Nghost:    13622 ave 13622 max 13622 min
Histogram: 1 0 0 0 0 0 0 0 0 0
Neighs:    696571 ave 696571 max 696571 min
Histogram: 1 0 0 0 0 0 0 0 0 0

Total # of neighbors = 696571
Ave neighs/atom = 35.4453
Neighbor list builds = 505
Dangerous builds not checked
Setting up Verlet run ...
  Unit style    : metal
  Current step  : 50000
  Time step     : 0.001
Per MPI rank memory allocation (min/avg/max) = 18.2 | 18.2 | 18.2 Mbytes
Step Temp Press TotEng PotEng Enthalpy Volume 
   50000    1951.9239    211.12369   -71513.539   -76471.604   -71422.779    688762.68 
   50495    1895.8154    458.62253   -71697.988   -76513.532   -71501.294    687142.55 
Loop time of 51.0539 on 1 procs for 495 steps with 19652 atoms

Performance: 0.838 ns/day, 28.650 hours/ns, 9.696 timesteps/s
99.3% CPU use with 1 MPI tasks x no OpenMP threads

MPI task timing breakdown:
Section |  min time  |  avg time  |  max time  |%varavg| %total
---------------------------------------------------------------
Pair    | 27.397     | 27.397     | 27.397     |   0.0 | 53.66
Neigh   | 21.435     | 21.435     | 21.435     |   0.0 | 41.98
Comm    | 0.73659    | 0.73659    | 0.73659    |   0.0 |  1.44
Output  | 0.000211   | 0.000211   | 0.000211   |   0.0 |  0.00
Modify  | 1.1085     | 1.1085     | 1.1085     |   0.0 |  2.17
Other   |            | 0.3771     |            |       |  0.74

Nlocal:    19652 ave 19652 max 19652 min
Histogram: 1 0 0 0 0 0 0 0 0 0
Nghost:    13675 ave 13675 max 13675 min
Histogram: 1 0 0 0 0 0 0 0 0 0
Neighs:    697908 ave 697908 max 697908 min
Histogram: 1 0 0 0 0 0 0 0 0 0

Total # of neighbors = 697908
Ave neighs/atom = 35.5133
Neighbor list builds = 495
Dangerous builds not checked
Setting up Verlet run ...
  Unit style    : metal
  Current step  : 50495
  Time step     : 0.001
Per MPI rank memory allocation (min/avg/max) = 18.2 | 18.2 | 18.2 Mbytes
Step Temp Press TotEng PotEng Enthalpy Volume 
   50495    1895.8154    458.62253   -71697.988   -76513.532   -71501.294    687142.55 
   51000    1889.2792    370.35018   -71794.985   -76593.926   -71636.313    686430.37 
Loop time of 50.5531 on 1 procs for 505 steps with 19652 atoms

Performance: 0.863 ns/day, 27.807 hours/ns, 9.989 timesteps/s
99.9% CPU use with 1 MPI tasks x no OpenMP threads

MPI task timing breakdown:
Section |  min time  |  avg time  |  max time  |%varavg| %total
---------------------------------------------------------------
Pair    | 27.045     | 27.045     | 27.045     |   0.0 | 53.50
Neigh   | 21.391     | 21.391     | 21.391     |   0.0 | 42.31
Comm    | 0.65964    | 0.65964    | 0.65964    |   0.0 |  1.30
Output  | 0.05497    | 0.05497    | 0.05497    |   0.0 |  0.11
Modify  | 1.0358     | 1.0358     | 1.0358     |   0.0 |  2.05
Other   |            | 0.3664     |            |       |  0.72

Nlocal:    19652 ave 19652 max 19652 min
Histogram: 1 0 0 0 0 0 0 0 0 0
Nghost:    13640 ave 13640 max 13640 min
Histogram: 1 0 0 0 0 0 0 0 0 0
Neighs:    698959 ave 698959 max 698959 min
Histogram: 1 0 0 0 0 0 0 0 0 0

Total # of neighbors = 698959
Ave neighs/atom = 35.5668
Neighbor list builds = 505
Dangerous builds not checked
Setting up Verlet run ...
  Unit style    : metal
  Current step  : 51000
  Time step     : 0.001
Per MPI rank memory allocation (min/avg/max) = 18.2 | 18.2 | 18.2 Mbytes
Step Temp Press TotEng PotEng Enthalpy Volume 
   51000    1889.2792    370.35018   -71794.985   -76593.926   -71636.313    686430.37 
   51495    1857.2739    678.03203     -71965.7   -76683.345   -71675.438    685882.94 
Loop time of 53.5038 on 1 procs for 495 steps with 19652 atoms

Performance: 0.799 ns/day, 30.025 hours/ns, 9.252 timesteps/s
98.9% CPU use with 1 MPI tasks x no OpenMP threads

MPI task timing breakdown:
Section |  min time  |  avg time  |  max time  |%varavg| %total
---------------------------------------------------------------
Pair    | 28.862     | 28.862     | 28.862     |   0.0 | 53.94
Neigh   | 22.112     | 22.112     | 22.112     |   0.0 | 41.33
Comm    | 0.83012    | 0.83012    | 0.83012    |   0.0 |  1.55
Output  | 0.0002079  | 0.0002079  | 0.0002079  |   0.0 |  0.00
Modify  | 1.2377     | 1.2377     | 1.2377     |   0.0 |  2.31
Other   |            | 0.4613     |            |       |  0.86

Nlocal:    19652 ave 19652 max 19652 min
Histogram: 1 0 0 0 0 0 0 0 0 0
Nghost:    13750 ave 13750 max 13750 min
Histogram: 1 0 0 0 0 0 0 0 0 0
Neighs:    698817 ave 698817 max 698817 min
Histogram: 1 0 0 0 0 0 0 0 0 0

Total # of neighbors = 698817
Ave neighs/atom = 35.5596
Neighbor list builds = 495
Dangerous builds not checked
Setting up Verlet run ...
  Unit style    : metal
  Current step  : 51495
  Time step     : 0.001
Per MPI rank memory allocation (min/avg/max) = 18.2 | 18.2 | 18.2 Mbytes
Step Temp Press TotEng PotEng Enthalpy Volume 
   51495    1857.2739    678.03203     -71965.7   -76683.345   -71675.438    685882.94 
   52000    1842.6877    541.14954   -72126.031   -76806.625   -71894.611    685160.96 
Loop time of 52.7472 on 1 procs for 505 steps with 19652 atoms

Performance: 0.827 ns/day, 29.014 hours/ns, 9.574 timesteps/s
99.5% CPU use with 1 MPI tasks x no OpenMP threads

MPI task timing breakdown:
Section |  min time  |  avg time  |  max time  |%varavg| %total
---------------------------------------------------------------
Pair    | 28.344     | 28.344     | 28.344     |   0.0 | 53.74
Neigh   | 21.94      | 21.94      | 21.94      |   0.0 | 41.59
Comm    | 0.78139    | 0.78139    | 0.78139    |   0.0 |  1.48
Output  | 0.058981   | 0.058981   | 0.058981   |   0.0 |  0.11
Modify  | 1.1798     | 1.1798     | 1.1798     |   0.0 |  2.24
Other   |            | 0.4428     |            |       |  0.84

Nlocal:    19652 ave 19652 max 19652 min
Histogram: 1 0 0 0 0 0 0 0 0 0
Nghost:    13679 ave 13679 max 13679 min
Histogram: 1 0 0 0 0 0 0 0 0 0
Neighs:    699429 ave 699429 max 699429 min
Histogram: 1 0 0 0 0 0 0 0 0 0

Total # of neighbors = 699429
Ave neighs/atom = 35.5907
Neighbor list builds = 505
Dangerous builds not checked
Setting up Verlet run ...
  Unit style    : metal
  Current step  : 52000
  Time step     : 0.001
Per MPI rank memory allocation (min/avg/max) = 18.2 | 18.2 | 18.2 Mbytes
Step Temp Press TotEng PotEng Enthalpy Volume 
   52000    1842.6877    541.14954   -72126.031   -76806.625   -71894.611    685160.96 
   52495    1804.6406    557.18013   -72304.108    -76888.06   -72066.223     684042.1 
Loop time of 53.4639 on 1 procs for 495 steps with 19652 atoms

Performance: 0.800 ns/day, 30.002 hours/ns, 9.259 timesteps/s
99.4% CPU use with 1 MPI tasks x no OpenMP threads

MPI task timing breakdown:
Section |  min time  |  avg time  |  max time  |%varavg| %total
---------------------------------------------------------------
Pair    | 28.868     | 28.868     | 28.868     |   0.0 | 54.00
Neigh   | 22.052     | 22.052     | 22.052     |   0.0 | 41.25
Comm    | 0.83189    | 0.83189    | 0.83189    |   0.0 |  1.56
Output  | 0.00024986 | 0.00024986 | 0.00024986 |   0.0 |  0.00
Modify  | 1.2561     | 1.2561     | 1.2561     |   0.0 |  2.35
Other   |            | 0.4553     |            |       |  0.85

Nlocal:    19652 ave 19652 max 19652 min
Histogram: 1 0 0 0 0 0 0 0 0 0
Nghost:    13717 ave 13717 max 13717 min
Histogram: 1 0 0 0 0 0 0 0 0 0
Neighs:    700125 ave 700125 max 700125 min
Histogram: 1 0 0 0 0 0 0 0 0 0

Total # of neighbors = 700125
Ave neighs/atom = 35.6261
Neighbor list builds = 495
Dangerous builds not checked
Setting up Verlet run ...
  Unit style    : metal
  Current step  : 52495
  Time step     : 0.001
Per MPI rank memory allocation (min/avg/max) = 18.2 | 18.2 | 18.2 Mbytes
Step Temp Press TotEng PotEng Enthalpy Volume 
   52495    1804.6406    557.18013   -72304.108    -76888.06   -72066.223     684042.1 
   53000    1806.5949    631.16247   -72403.459   -76992.375   -72134.211    683475.11 
Loop time of 58.6181 on 1 procs for 505 steps with 19652 atoms

Performance: 0.744 ns/day, 32.243 hours/ns, 8.615 timesteps/s
98.9% CPU use with 1 MPI tasks x no OpenMP threads

MPI task timing breakdown:
Section |  min time  |  avg time  |  max time  |%varavg| %total
---------------------------------------------------------------
Pair    | 31.934     | 31.934     | 31.934     |   0.0 | 54.48
Neigh   | 23.535     | 23.535     | 23.535     |   0.0 | 40.15
Comm    | 1.0318     | 1.0318     | 1.0318     |   0.0 |  1.76
Output  | 0.057912   | 0.057912   | 0.057912   |   0.0 |  0.10
Modify  | 1.528      | 1.528      | 1.528      |   0.0 |  2.61
Other   |            | 0.5311     |            |       |  0.91

Nlocal:    19652 ave 19652 max 19652 min
Histogram: 1 0 0 0 0 0 0 0 0 0
Nghost:    13783 ave 13783 max 13783 min
Histogram: 1 0 0 0 0 0 0 0 0 0
Neighs:    700655 ave 700655 max 700655 min
Histogram: 1 0 0 0 0 0 0 0 0 0

Total # of neighbors = 700655
Ave neighs/atom = 35.6531
Neighbor list builds = 505
Dangerous builds not checked
Setting up Verlet run ...
  Unit style    : metal
  Current step  : 53000
  Time step     : 0.001
Per MPI rank memory allocation (min/avg/max) = 18.2 | 18.2 | 18.2 Mbytes
Step Temp Press TotEng PotEng Enthalpy Volume 
   53000    1806.5949    631.16247   -72403.459   -76992.375   -72134.211    683475.11 
   53495    1765.1177    726.53828   -72614.341   -77097.901    -72304.82       682563 
Loop time of 57.5339 on 1 procs for 495 steps with 19652 atoms

Performance: 0.743 ns/day, 32.286 hours/ns, 8.604 timesteps/s
98.3% CPU use with 1 MPI tasks x no OpenMP threads

MPI task timing breakdown:
Section |  min time  |  avg time  |  max time  |%varavg| %total
---------------------------------------------------------------
Pair    | 31.431     | 31.431     | 31.431     |   0.0 | 54.63
Neigh   | 22.996     | 22.996     | 22.996     |   0.0 | 39.97
Comm    | 1.0373     | 1.0373     | 1.0373     |   0.0 |  1.80
Output  | 0.00043011 | 0.00043011 | 0.00043011 |   0.0 |  0.00
Modify  | 1.5344     | 1.5344     | 1.5344     |   0.0 |  2.67
Other   |            | 0.5343     |            |       |  0.93

Nlocal:    19652 ave 19652 max 19652 min
Histogram: 1 0 0 0 0 0 0 0 0 0
Nghost:    13710 ave 13710 max 13710 min
Histogram: 1 0 0 0 0 0 0 0 0 0
Neighs:    701116 ave 701116 max 701116 min
Histogram: 1 0 0 0 0 0 0 0 0 0

Total # of neighbors = 701116
Ave neighs/atom = 35.6766
Neighbor list builds = 495
Dangerous builds not checked
Setting up Verlet run ...
  Unit style    : metal
  Current step  : 53495
  Time step     : 0.001
Per MPI rank memory allocation (min/avg/max) = 18.2 | 18.2 | 18.2 Mbytes
Step Temp Press TotEng PotEng Enthalpy Volume 
   53495    1765.1177    726.53828   -72614.341   -77097.901    -72304.82       682563 
   54000    1728.7059    727.53373     -72760.7    -77151.77   -72451.309    681340.62 
Loop time of 60.6187 on 1 procs for 505 steps with 19652 atoms

Performance: 0.720 ns/day, 33.344 hours/ns, 8.331 timesteps/s
99.3% CPU use with 1 MPI tasks x no OpenMP threads

MPI task timing breakdown:
Section |  min time  |  avg time  |  max time  |%varavg| %total
---------------------------------------------------------------
Pair    | 33.357     | 33.357     | 33.357     |   0.0 | 55.03
Neigh   | 23.756     | 23.756     | 23.756     |   0.0 | 39.19
Comm    | 1.1393     | 1.1393     | 1.1393     |   0.0 |  1.88
Output  | 0.063646   | 0.063646   | 0.063646   |   0.0 |  0.10
Modify  | 1.6856     | 1.6856     | 1.6856     |   0.0 |  2.78
Other   |            | 0.6171     |            |       |  1.02

Nlocal:    19652 ave 19652 max 19652 min
Histogram: 1 0 0 0 0 0 0 0 0 0
Nghost:    13783 ave 13783 max 13783 min
Histogram: 1 0 0 0 0 0 0 0 0 0
Neighs:    702068 ave 702068 max 702068 min
Histogram: 1 0 0 0 0 0 0 0 0 0

Total # of neighbors = 702068
Ave neighs/atom = 35.725
Neighbor list builds = 505
Dangerous builds not checked
Setting up Verlet run ...
  Unit style    : metal
  Current step  : 54000
  Time step     : 0.001
Per MPI rank memory allocation (min/avg/max) = 18.2 | 18.2 | 18.2 Mbytes
Step Temp Press TotEng PotEng Enthalpy Volume 
   54000    1728.7059    727.53373     -72760.7    -77151.77   -72451.309    681340.62 
   54495    1709.2127    667.02689   -72950.291   -77291.847    -72666.87    680768.39 
Loop time of 63.0775 on 1 procs for 495 steps with 19652 atoms

Performance: 0.678 ns/day, 35.397 hours/ns, 7.847 timesteps/s
99.7% CPU use with 1 MPI tasks x no OpenMP threads

MPI task timing breakdown:
Section |  min time  |  avg time  |  max time  |%varavg| %total
---------------------------------------------------------------
Pair    | 35.01      | 35.01      | 35.01      |   0.0 | 55.50
Neigh   | 24.042     | 24.042     | 24.042     |   0.0 | 38.12
Comm    | 1.3241     | 1.3241     | 1.3241     |   0.0 |  2.10
Output  | 0.00040102 | 0.00040102 | 0.00040102 |   0.0 |  0.00
Modify  | 1.9659     | 1.9659     | 1.9659     |   0.0 |  3.12
Other   |            | 0.7344     |            |       |  1.16

Nlocal:    19652 ave 19652 max 19652 min
Histogram: 1 0 0 0 0 0 0 0 0 0
Nghost:    13717 ave 13717 max 13717 min
Histogram: 1 0 0 0 0 0 0 0 0 0
Neighs:    701926 ave 701926 max 701926 min
Histogram: 1 0 0 0 0 0 0 0 0 0

Total # of neighbors = 701926
Ave neighs/atom = 35.7178
Neighbor list builds = 495
Dangerous builds not checked
Setting up Verlet run ...
  Unit style    : metal
  Current step  : 54495
  Time step     : 0.001
Per MPI rank memory allocation (min/avg/max) = 18.2 | 18.2 | 18.2 Mbytes
Step Temp Press TotEng PotEng Enthalpy Volume 
   54495    1709.2127    667.02689   -72950.291   -77291.847    -72666.87    680768.39 
   55000    1699.3733    665.30804   -73047.688   -77364.251   -72765.263    680127.91 
Loop time of 56.7849 on 1 procs for 505 steps with 19652 atoms

Performance: 0.768 ns/day, 31.235 hours/ns, 8.893 timesteps/s
99.9% CPU use with 1 MPI tasks x no OpenMP threads

MPI task timing breakdown:
Section |  min time  |  avg time  |  max time  |%varavg| %total
---------------------------------------------------------------
Pair    | 31.05      | 31.05      | 31.05      |   0.0 | 54.68
Neigh   | 22.631     | 22.631     | 22.631     |   0.0 | 39.85
Comm    | 0.98844    | 0.98844    | 0.98844    |   0.0 |  1.74
Output  | 0.06017    | 0.06017    | 0.06017    |   0.0 |  0.11
Modify  | 1.4992     | 1.4992     | 1.4992     |   0.0 |  2.64
Other   |            | 0.5561     |            |       |  0.98

Nlocal:    19652 ave 19652 max 19652 min
Histogram: 1 0 0 0 0 0 0 0 0 0
Nghost:    13759 ave 13759 max 13759 min
Histogram: 1 0 0 0 0 0 0 0 0 0
Neighs:    702300 ave 702300 max 702300 min
Histogram: 1 0 0 0 0 0 0 0 0 0

Total # of neighbors = 702300
Ave neighs/atom = 35.7368
Neighbor list builds = 505
Dangerous builds not checked
Setting up Verlet run ...
  Unit style    : metal
  Current step  : 55000
  Time step     : 0.001
Per MPI rank memory allocation (min/avg/max) = 18.2 | 18.2 | 18.2 Mbytes
Step Temp Press TotEng PotEng Enthalpy Volume 
   55000    1699.3733    665.30804   -73047.688   -77364.251   -72765.263    680127.91 
   55495    1663.4536    644.76464    -73253.14   -77478.464   -72979.697    679479.52 
Loop time of 53.1703 on 1 procs for 495 steps with 19652 atoms

Performance: 0.804 ns/day, 29.837 hours/ns, 9.310 timesteps/s
99.6% CPU use with 1 MPI tasks x no OpenMP threads

MPI task timing breakdown:
Section |  min time  |  avg time  |  max time  |%varavg| %total
---------------------------------------------------------------
Pair    | 28.972     | 28.972     | 28.972     |   0.0 | 54.49
Neigh   | 21.78      | 21.78      | 21.78      |   0.0 | 40.96
Comm    | 0.78995    | 0.78995    | 0.78995    |   0.0 |  1.49
Output  | 0.00022888 | 0.00022888 | 0.00022888 |   0.0 |  0.00
Modify  | 1.2016     | 1.2016     | 1.2016     |   0.0 |  2.26
Other   |            | 0.4264     |            |       |  0.80

Nlocal:    19652 ave 19652 max 19652 min
Histogram: 1 0 0 0 0 0 0 0 0 0
Nghost:    13776 ave 13776 max 13776 min
Histogram: 1 0 0 0 0 0 0 0 0 0
Neighs:    703021 ave 703021 max 703021 min
Histogram: 1 0 0 0 0 0 0 0 0 0

Total # of neighbors = 703021
Ave neighs/atom = 35.7735
Neighbor list builds = 495
Dangerous builds not checked
Setting up Verlet run ...
  Unit style    : metal
  Current step  : 55495
  Time step     : 0.001
Per MPI rank memory allocation (min/avg/max) = 18.2 | 18.2 | 18.2 Mbytes
Step Temp Press TotEng PotEng Enthalpy Volume 
   55495    1663.4536    644.76464    -73253.14   -77478.464   -72979.697    679479.52 
   56000    1647.9985    593.83959   -73332.082   -77518.149   -73080.346    679184.24 
Loop time of 54.5991 on 1 procs for 505 steps with 19652 atoms

Performance: 0.799 ns/day, 30.032 hours/ns, 9.249 timesteps/s
99.6% CPU use with 1 MPI tasks x no OpenMP threads

MPI task timing breakdown:
Section |  min time  |  avg time  |  max time  |%varavg| %total
---------------------------------------------------------------
Pair    | 29.662     | 29.662     | 29.662     |   0.0 | 54.33
Neigh   | 22.35      | 22.35      | 22.35      |   0.0 | 40.93
Comm    | 0.83083    | 0.83083    | 0.83083    |   0.0 |  1.52
Output  | 0.079881   | 0.079881   | 0.079881   |   0.0 |  0.15
Modify  | 1.2443     | 1.2443     | 1.2443     |   0.0 |  2.28
Other   |            | 0.4329     |            |       |  0.79

Nlocal:    19652 ave 19652 max 19652 min
Histogram: 1 0 0 0 0 0 0 0 0 0
Nghost:    13746 ave 13746 max 13746 min
Histogram: 1 0 0 0 0 0 0 0 0 0
Neighs:    703279 ave 703279 max 703279 min
Histogram: 1 0 0 0 0 0 0 0 0 0

Total # of neighbors = 703279
Ave neighs/atom = 35.7866
Neighbor list builds = 505
Dangerous builds not checked
Setting up Verlet run ...
  Unit style    : metal
  Current step  : 56000
  Time step     : 0.001
Per MPI rank memory allocation (min/avg/max) = 18.2 | 18.2 | 18.2 Mbytes
Step Temp Press TotEng PotEng Enthalpy Volume 
   56000    1647.9985    593.83959   -73332.082   -77518.149   -73080.346    679184.24 
   56495     1605.161     529.9223   -73614.809   -77692.065   -73390.629     677791.9 
Loop time of 54.6251 on 1 procs for 495 steps with 19652 atoms

Performance: 0.783 ns/day, 30.654 hours/ns, 9.062 timesteps/s
95.2% CPU use with 1 MPI tasks x no OpenMP threads

MPI task timing breakdown:
Section |  min time  |  avg time  |  max time  |%varavg| %total
---------------------------------------------------------------
Pair    | 29.689     | 29.689     | 29.689     |   0.0 | 54.35
Neigh   | 22.355     | 22.355     | 22.355     |   0.0 | 40.92
Comm    | 0.83016    | 0.83016    | 0.83016    |   0.0 |  1.52
Output  | 0.00026488 | 0.00026488 | 0.00026488 |   0.0 |  0.00
Modify  | 1.3111     | 1.3111     | 1.3111     |   0.0 |  2.40
Other   |            | 0.4399     |            |       |  0.81

Nlocal:    19652 ave 19652 max 19652 min
Histogram: 1 0 0 0 0 0 0 0 0 0
Nghost:    13692 ave 13692 max 13692 min
Histogram: 1 0 0 0 0 0 0 0 0 0
Neighs:    704085 ave 704085 max 704085 min
Histogram: 1 0 0 0 0 0 0 0 0 0

Total # of neighbors = 704085
Ave neighs/atom = 35.8277
Neighbor list builds = 495
Dangerous builds not checked
Setting up Verlet run ...
  Unit style    : metal
  Current step  : 56495
  Time step     : 0.001
Per MPI rank memory allocation (min/avg/max) = 18.2 | 18.2 | 18.2 Mbytes
Step Temp Press TotEng PotEng Enthalpy Volume 
   56495     1605.161     529.9223   -73614.809   -77692.065   -73390.629     677791.9 
   57000    1589.7079     518.4397   -73732.694   -77770.697   -73513.537    677276.07 
Loop time of 51.0104 on 1 procs for 505 steps with 19652 atoms

Performance: 0.855 ns/day, 28.059 hours/ns, 9.900 timesteps/s
99.8% CPU use with 1 MPI tasks x no OpenMP threads

MPI task timing breakdown:
Section |  min time  |  avg time  |  max time  |%varavg| %total
---------------------------------------------------------------
Pair    | 27.47      | 27.47      | 27.47      |   0.0 | 53.85
Neigh   | 21.358     | 21.358     | 21.358     |   0.0 | 41.87
Comm    | 0.67892    | 0.67892    | 0.67892    |   0.0 |  1.33
Output  | 0.054644   | 0.054644   | 0.054644   |   0.0 |  0.11
Modify  | 1.054      | 1.054      | 1.054      |   0.0 |  2.07
Other   |            | 0.3945     |            |       |  0.77

Nlocal:    19652 ave 19652 max 19652 min
Histogram: 1 0 0 0 0 0 0 0 0 0
Nghost:    13718 ave 13718 max 13718 min
Histogram: 1 0 0 0 0 0 0 0 0 0
Neighs:    704105 ave 704105 max 704105 min
Histogram: 1 0 0 0 0 0 0 0 0 0

Total # of neighbors = 704105
Ave neighs/atom = 35.8287
Neighbor list builds = 505
Dangerous builds not checked
Setting up Verlet run ...
  Unit style    : metal
  Current step  : 57000
  Time step     : 0.001
Per MPI rank memory allocation (min/avg/max) = 18.2 | 18.2 | 18.2 Mbytes
Step Temp Press TotEng PotEng Enthalpy Volume 
   57000    1589.7079     518.4397   -73732.694   -77770.697   -73513.537    677276.07 
   57495    1569.8848     502.3239   -73920.628   -77908.279   -73708.641    676138.66 
Loop time of 49.5618 on 1 procs for 495 steps with 19652 atoms

Performance: 0.863 ns/day, 27.812 hours/ns, 9.988 timesteps/s
100.0% CPU use with 1 MPI tasks x no OpenMP threads

MPI task timing breakdown:
Section |  min time  |  avg time  |  max time  |%varavg| %total
---------------------------------------------------------------
Pair    | 26.695     | 26.695     | 26.695     |   0.0 | 53.86
Neigh   | 20.88      | 20.88      | 20.88      |   0.0 | 42.13
Comm    | 0.63463    | 0.63463    | 0.63463    |   0.0 |  1.28
Output  | 0.00020099 | 0.00020099 | 0.00020099 |   0.0 |  0.00
Modify  | 0.9968     | 0.9968     | 0.9968     |   0.0 |  2.01
Other   |            | 0.3548     |            |       |  0.72

Nlocal:    19652 ave 19652 max 19652 min
Histogram: 1 0 0 0 0 0 0 0 0 0
Nghost:    13771 ave 13771 max 13771 min
Histogram: 1 0 0 0 0 0 0 0 0 0
Neighs:    705031 ave 705031 max 705031 min
Histogram: 1 0 0 0 0 0 0 0 0 0

Total # of neighbors = 705031
Ave neighs/atom = 35.8758
Neighbor list builds = 495
Dangerous builds not checked
Setting up Verlet run ...
  Unit style    : metal
  Current step  : 57495
  Time step     : 0.001
Per MPI rank memory allocation (min/avg/max) = 18.2 | 18.2 | 18.2 Mbytes
Step Temp Press TotEng PotEng Enthalpy Volume 
   57495    1569.8848     502.3239   -73920.628   -77908.279   -73708.641    676138.66 
   58000    1546.4041    488.82109   -74081.214   -78009.221   -73875.146    675414.46 
Loop time of 59.953 on 1 procs for 505 steps with 19652 atoms

Performance: 0.728 ns/day, 32.977 hours/ns, 8.423 timesteps/s
100.0% CPU use with 1 MPI tasks x no OpenMP threads

MPI task timing breakdown:
Section |  min time  |  avg time  |  max time  |%varavg| %total
---------------------------------------------------------------
Pair    | 33.082     | 33.082     | 33.082     |   0.0 | 55.18
Neigh   | 23.524     | 23.524     | 23.524     |   0.0 | 39.24
Comm    | 1.0846     | 1.0846     | 1.0846     |   0.0 |  1.81
Output  | 0.053141   | 0.053141   | 0.053141   |   0.0 |  0.09
Modify  | 1.621      | 1.621      | 1.621      |   0.0 |  2.70
Other   |            | 0.5881     |            |       |  0.98

Nlocal:    19652 ave 19652 max 19652 min
Histogram: 1 0 0 0 0 0 0 0 0 0
Nghost:    13808 ave 13808 max 13808 min
Histogram: 1 0 0 0 0 0 0 0 0 0
Neighs:    705197 ave 705197 max 705197 min
Histogram: 1 0 0 0 0 0 0 0 0 0

Total # of neighbors = 705197
Ave neighs/atom = 35.8842
Neighbor list builds = 505
Dangerous builds not checked
Setting up Verlet run ...
  Unit style    : metal
  Current step  : 58000
  Time step     : 0.001
Per MPI rank memory allocation (min/avg/max) = 18.2 | 18.2 | 18.2 Mbytes
Step Temp Press TotEng PotEng Enthalpy Volume 
   58000    1546.4041    488.82109   -74081.214   -78009.221   -73875.146    675414.46 
   58495     1527.541    490.72136   -74246.616    -78126.71   -74039.987    674634.47 
Loop time of 55.2836 on 1 procs for 495 steps with 19652 atoms

Performance: 0.774 ns/day, 31.023 hours/ns, 8.954 timesteps/s
100.0% CPU use with 1 MPI tasks x no OpenMP threads

MPI task timing breakdown:
Section |  min time  |  avg time  |  max time  |%varavg| %total
---------------------------------------------------------------
Pair    | 30.452     | 30.452     | 30.452     |   0.0 | 55.08
Neigh   | 22.046     | 22.046     | 22.046     |   0.0 | 39.88
Comm    | 0.91675    | 0.91675    | 0.91675    |   0.0 |  1.66
Output  | 0.000319   | 0.000319   | 0.000319   |   0.0 |  0.00
Modify  | 1.3874     | 1.3874     | 1.3874     |   0.0 |  2.51
Other   |            | 0.4813     |            |       |  0.87

Nlocal:    19652 ave 19652 max 19652 min
Histogram: 1 0 0 0 0 0 0 0 0 0
Nghost:    13791 ave 13791 max 13791 min
Histogram: 1 0 0 0 0 0 0 0 0 0
Neighs:    705699 ave 705699 max 705699 min
Histogram: 1 0 0 0 0 0 0 0 0 0

Total # of neighbors = 705699
Ave neighs/atom = 35.9098
Neighbor list builds = 495
Dangerous builds not checked
Setting up Verlet run ...
  Unit style    : metal
  Current step  : 58495
  Time step     : 0.001
Per MPI rank memory allocation (min/avg/max) = 18.2 | 18.2 | 18.2 Mbytes
Step Temp Press TotEng PotEng Enthalpy Volume 
   58495     1527.541    490.72136   -74246.616    -78126.71   -74039.987    674634.47 
   59000    1496.5232    298.80689   -74391.638   -78192.944   -74265.818    674637.36 
Loop time of 54.5767 on 1 procs for 505 steps with 19652 atoms

Performance: 0.799 ns/day, 30.020 hours/ns, 9.253 timesteps/s
99.9% CPU use with 1 MPI tasks x no OpenMP threads

MPI task timing breakdown:
Section |  min time  |  avg time  |  max time  |%varavg| %total
---------------------------------------------------------------
Pair    | 29.798     | 29.798     | 29.798     |   0.0 | 54.60
Neigh   | 22.058     | 22.058     | 22.058     |   0.0 | 40.42
Comm    | 0.8821     | 0.8821     | 0.8821     |   0.0 |  1.62
Output  | 0.056435   | 0.056435   | 0.056435   |   0.0 |  0.10
Modify  | 1.3087     | 1.3087     | 1.3087     |   0.0 |  2.40
Other   |            | 0.4741     |            |       |  0.87

Nlocal:    19652 ave 19652 max 19652 min
Histogram: 1 0 0 0 0 0 0 0 0 0
Nghost:    13794 ave 13794 max 13794 min
Histogram: 1 0 0 0 0 0 0 0 0 0
Neighs:    705224 ave 705224 max 705224 min
Histogram: 1 0 0 0 0 0 0 0 0 0

Total # of neighbors = 705224
Ave neighs/atom = 35.8856
Neighbor list builds = 505
Dangerous builds not checked
Setting up Verlet run ...
  Unit style    : metal
  Current step  : 59000
  Time step     : 0.001
Per MPI rank memory allocation (min/avg/max) = 18.2 | 18.2 | 18.2 Mbytes
Step Temp Press TotEng PotEng Enthalpy Volume 
   59000    1496.5232    298.80689   -74391.638   -78192.944   -74265.818    674637.36 
   59495    1463.3833    283.64093   -74592.138   -78309.265   -74472.937    673319.89 
Loop time of 51.4641 on 1 procs for 495 steps with 19652 atoms

Performance: 0.831 ns/day, 28.880 hours/ns, 9.618 timesteps/s
100.0% CPU use with 1 MPI tasks x no OpenMP threads

MPI task timing breakdown:
Section |  min time  |  avg time  |  max time  |%varavg| %total
---------------------------------------------------------------
Pair    | 27.965     | 27.965     | 27.965     |   0.0 | 54.34
Neigh   | 21.292     | 21.292     | 21.292     |   0.0 | 41.37
Comm    | 0.72371    | 0.72371    | 0.72371    |   0.0 |  1.41
Output  | 0.00025296 | 0.00025296 | 0.00025296 |   0.0 |  0.00
Modify  | 1.1024     | 1.1024     | 1.1024     |   0.0 |  2.14
Other   |            | 0.3805     |            |       |  0.74

Nlocal:    19652 ave 19652 max 19652 min
Histogram: 1 0 0 0 0 0 0 0 0 0
Nghost:    13850 ave 13850 max 13850 min
Histogram: 1 0 0 0 0 0 0 0 0 0
Neighs:    706252 ave 706252 max 706252 min
Histogram: 1 0 0 0 0 0 0 0 0 0

Total # of neighbors = 706252
Ave neighs/atom = 35.9379
Neighbor list builds = 495
Dangerous builds not checked
Setting up Verlet run ...
  Unit style    : metal
  Current step  : 59495
  Time step     : 0.001
Per MPI rank memory allocation (min/avg/max) = 18.2 | 18.2 | 18.2 Mbytes
Step Temp Press TotEng PotEng Enthalpy Volume 
   59495    1463.3833    283.64093   -74592.138   -78309.265   -74472.937    673319.89 
   60000    1453.9212    496.98434    -74693.82   -78386.912   -74485.124    672791.68 
Loop time of 51.9477 on 1 procs for 505 steps with 19652 atoms

Performance: 0.840 ns/day, 28.574 hours/ns, 9.721 timesteps/s
100.0% CPU use with 1 MPI tasks x no OpenMP threads

MPI task timing breakdown:
Section |  min time  |  avg time  |  max time  |%varavg| %total
---------------------------------------------------------------
Pair    | 28.114     | 28.114     | 28.114     |   0.0 | 54.12
Neigh   | 21.534     | 21.534     | 21.534     |   0.0 | 41.45
Comm    | 0.72087    | 0.72087    | 0.72087    |   0.0 |  1.39
Output  | 0.055761   | 0.055761   | 0.055761   |   0.0 |  0.11
Modify  | 1.1067     | 1.1067     | 1.1067     |   0.0 |  2.13
Other   |            | 0.4155     |            |       |  0.80

Nlocal:    19652 ave 19652 max 19652 min
Histogram: 1 0 0 0 0 0 0 0 0 0
Nghost:    13785 ave 13785 max 13785 min
Histogram: 1 0 0 0 0 0 0 0 0 0
Neighs:    706384 ave 706384 max 706384 min
Histogram: 1 0 0 0 0 0 0 0 0 0

Total # of neighbors = 706384
Ave neighs/atom = 35.9446
Neighbor list builds = 505
Dangerous builds not checked
Setting up Verlet run ...
  Unit style    : metal
  Current step  : 60000
  Time step     : 0.001
Per MPI rank memory allocation (min/avg/max) = 18.2 | 18.2 | 18.2 Mbytes
Step Temp Press TotEng PotEng Enthalpy Volume 
   60000    1453.9212    496.98434    -74693.82   -78386.912   -74485.124    672791.68 
   60495    1417.8517    383.64361   -74887.643   -78489.116   -74726.794    671738.53 
Loop time of 51.9968 on 1 procs for 495 steps with 19652 atoms

Performance: 0.823 ns/day, 29.179 hours/ns, 9.520 timesteps/s
100.0% CPU use with 1 MPI tasks x no OpenMP threads

MPI task timing breakdown:
Section |  min time  |  avg time  |  max time  |%varavg| %total
---------------------------------------------------------------
Pair    | 28.252     | 28.252     | 28.252     |   0.0 | 54.33
Neigh   | 21.341     | 21.341     | 21.341     |   0.0 | 41.04
Comm    | 0.77639    | 0.77639    | 0.77639    |   0.0 |  1.49
Output  | 0.00030208 | 0.00030208 | 0.00030208 |   0.0 |  0.00
Modify  | 1.1704     | 1.1704     | 1.1704     |   0.0 |  2.25
Other   |            | 0.4562     |            |       |  0.88

Nlocal:    19652 ave 19652 max 19652 min
Histogram: 1 0 0 0 0 0 0 0 0 0
Nghost:    13825 ave 13825 max 13825 min
Histogram: 1 0 0 0 0 0 0 0 0 0
Neighs:    707122 ave 707122 max 707122 min
Histogram: 1 0 0 0 0 0 0 0 0 0

Total # of neighbors = 707122
Ave neighs/atom = 35.9822
Neighbor list builds = 495
Dangerous builds not checked
Setting up Verlet run ...
  Unit style    : metal
  Current step  : 60495
  Time step     : 0.001
Per MPI rank memory allocation (min/avg/max) = 18.2 | 18.2 | 18.2 Mbytes
Step Temp Press TotEng PotEng Enthalpy Volume 
   60495    1417.8517    383.64361   -74887.643   -78489.116   -74726.794    671738.53 
   61000    1397.3814    463.17708   -75065.261   -78614.737   -74871.266    671049.17 
Loop time of 53.2168 on 1 procs for 505 steps with 19652 atoms

Performance: 0.820 ns/day, 29.272 hours/ns, 9.489 timesteps/s
100.0% CPU use with 1 MPI tasks x no OpenMP threads

MPI task timing breakdown:
Section |  min time  |  avg time  |  max time  |%varavg| %total
---------------------------------------------------------------
Pair    | 28.892     | 28.892     | 28.892     |   0.0 | 54.29
Neigh   | 21.801     | 21.801     | 21.801     |   0.0 | 40.97
Comm    | 0.79277    | 0.79277    | 0.79277    |   0.0 |  1.49
Output  | 0.059601   | 0.059601   | 0.059601   |   0.0 |  0.11
Modify  | 1.2009     | 1.2009     | 1.2009     |   0.0 |  2.26
Other   |            | 0.4705     |            |       |  0.88

Nlocal:    19652 ave 19652 max 19652 min
Histogram: 1 0 0 0 0 0 0 0 0 0
Nghost:    13781 ave 13781 max 13781 min
Histogram: 1 0 0 0 0 0 0 0 0 0
Neighs:    707570 ave 707570 max 707570 min
Histogram: 1 0 0 0 0 0 0 0 0 0

Total # of neighbors = 707570
Ave neighs/atom = 36.005
Neighbor list builds = 505
Dangerous builds not checked
Setting up Verlet run ...
  Unit style    : metal
  Current step  : 61000
  Time step     : 0.001
Per MPI rank memory allocation (min/avg/max) = 18.2 | 18.2 | 18.2 Mbytes
Step Temp Press TotEng PotEng Enthalpy Volume 
   61000    1397.3814    463.17708   -75065.261   -78614.737   -74871.266    671049.17 
   61495    1364.8009    490.44541    -75212.46   -78679.178   -75007.205    670521.84 
Loop time of 51.7714 on 1 procs for 495 steps with 19652 atoms

Performance: 0.826 ns/day, 29.052 hours/ns, 9.561 timesteps/s
100.0% CPU use with 1 MPI tasks x no OpenMP threads

MPI task timing breakdown:
Section |  min time  |  avg time  |  max time  |%varavg| %total
---------------------------------------------------------------
Pair    | 28.146     | 28.146     | 28.146     |   0.0 | 54.37
Neigh   | 21.251     | 21.251     | 21.251     |   0.0 | 41.05
Comm    | 0.7652     | 0.7652     | 0.7652     |   0.0 |  1.48
Output  | 0.00023198 | 0.00023198 | 0.00023198 |   0.0 |  0.00
Modify  | 1.1578     | 1.1578     | 1.1578     |   0.0 |  2.24
Other   |            | 0.4516     |            |       |  0.87

Nlocal:    19652 ave 19652 max 19652 min
Histogram: 1 0 0 0 0 0 0 0 0 0
Nghost:    13836 ave 13836 max 13836 min
Histogram: 1 0 0 0 0 0 0 0 0 0
Neighs:    707635 ave 707635 max 707635 min
Histogram: 1 0 0 0 0 0 0 0 0 0

Total # of neighbors = 707635
Ave neighs/atom = 36.0083
Neighbor list builds = 495
Dangerous builds not checked
Setting up Verlet run ...
  Unit style    : metal
  Current step  : 61495
  Time step     : 0.001
Per MPI rank memory allocation (min/avg/max) = 18.2 | 18.2 | 18.2 Mbytes
Step Temp Press TotEng PotEng Enthalpy Volume 
   61495    1364.8009    490.44541    -75212.46   -78679.178   -75007.205    670521.84 
   62000    1357.0785    237.27854   -75359.423   -78806.526   -75260.222    669835.24 
Loop time of 52.4572 on 1 procs for 505 steps with 19652 atoms

Performance: 0.832 ns/day, 28.854 hours/ns, 9.627 timesteps/s
99.8% CPU use with 1 MPI tasks x no OpenMP threads

MPI task timing breakdown:
Section |  min time  |  avg time  |  max time  |%varavg| %total
---------------------------------------------------------------
Pair    | 28.463     | 28.463     | 28.463     |   0.0 | 54.26
Neigh   | 21.596     | 21.596     | 21.596     |   0.0 | 41.17
Comm    | 0.74783    | 0.74783    | 0.74783    |   0.0 |  1.43
Output  | 0.059144   | 0.059144   | 0.059144   |   0.0 |  0.11
Modify  | 1.1584     | 1.1584     | 1.1584     |   0.0 |  2.21
Other   |            | 0.4327     |            |       |  0.82

Nlocal:    19652 ave 19652 max 19652 min
Histogram: 1 0 0 0 0 0 0 0 0 0
Nghost:    13756 ave 13756 max 13756 min
Histogram: 1 0 0 0 0 0 0 0 0 0
Neighs:    707616 ave 707616 max 707616 min
Histogram: 1 0 0 0 0 0 0 0 0 0

Total # of neighbors = 707616
Ave neighs/atom = 36.0073
Neighbor list builds = 505
Dangerous builds not checked
Setting up Verlet run ...
  Unit style    : metal
  Current step  : 62000
  Time step     : 0.001
Per MPI rank memory allocation (min/avg/max) = 18.2 | 18.2 | 18.2 Mbytes
Step Temp Press TotEng PotEng Enthalpy Volume 
   62000    1357.0785    237.27854   -75359.423   -78806.526   -75260.222    669835.24 
   62495    1322.0648    292.03673   -75559.278   -78917.443   -75437.336    669000.34 
Loop time of 52.0865 on 1 procs for 495 steps with 19652 atoms

Performance: 0.821 ns/day, 29.229 hours/ns, 9.503 timesteps/s
99.4% CPU use with 1 MPI tasks x no OpenMP threads

MPI task timing breakdown:
Section |  min time  |  avg time  |  max time  |%varavg| %total
---------------------------------------------------------------
Pair    | 28.362     | 28.362     | 28.362     |   0.0 | 54.45
Neigh   | 21.341     | 21.341     | 21.341     |   0.0 | 40.97
Comm    | 0.77144    | 0.77144    | 0.77144    |   0.0 |  1.48
Output  | 0.00024295 | 0.00024295 | 0.00024295 |   0.0 |  0.00
Modify  | 1.1622     | 1.1622     | 1.1622     |   0.0 |  2.23
Other   |            | 0.4496     |            |       |  0.86

Nlocal:    19652 ave 19652 max 19652 min
Histogram: 1 0 0 0 0 0 0 0 0 0
Nghost:    13801 ave 13801 max 13801 min
Histogram: 1 0 0 0 0 0 0 0 0 0
Neighs:    707820 ave 707820 max 707820 min
Histogram: 1 0 0 0 0 0 0 0 0 0

Total # of neighbors = 707820
Ave neighs/atom = 36.0177
Neighbor list builds = 495
Dangerous builds not checked
Setting up Verlet run ...
  Unit style    : metal
  Current step  : 62495
  Time step     : 0.001
Per MPI rank memory allocation (min/avg/max) = 18.2 | 18.2 | 18.2 Mbytes
Step Temp Press TotEng PotEng Enthalpy Volume 
   62495    1322.0648    292.03673   -75559.278   -78917.443   -75437.336    669000.34 
   63000    1309.1056    229.44098   -75721.196   -79046.443   -75625.455    668557.15 
Loop time of 57.3483 on 1 procs for 505 steps with 19652 atoms

Performance: 0.761 ns/day, 31.545 hours/ns, 8.806 timesteps/s
99.6% CPU use with 1 MPI tasks x no OpenMP threads

MPI task timing breakdown:
Section |  min time  |  avg time  |  max time  |%varavg| %total
---------------------------------------------------------------
Pair    | 31.475     | 31.475     | 31.475     |   0.0 | 54.88
Neigh   | 22.788     | 22.788     | 22.788     |   0.0 | 39.74
Comm    | 1.0014     | 1.0014     | 1.0014     |   0.0 |  1.75
Output  | 0.056903   | 0.056903   | 0.056903   |   0.0 |  0.10
Modify  | 1.4874     | 1.4874     | 1.4874     |   0.0 |  2.59
Other   |            | 0.539      |            |       |  0.94

Nlocal:    19652 ave 19652 max 19652 min
Histogram: 1 0 0 0 0 0 0 0 0 0
Nghost:    13857 ave 13857 max 13857 min
Histogram: 1 0 0 0 0 0 0 0 0 0
Neighs:    707992 ave 707992 max 707992 min
Histogram: 1 0 0 0 0 0 0 0 0 0

Total # of neighbors = 707992
Ave neighs/atom = 36.0265
Neighbor list builds = 505
Dangerous builds not checked
Setting up Verlet run ...
  Unit style    : metal
  Current step  : 63000
  Time step     : 0.001
Per MPI rank memory allocation (min/avg/max) = 18.2 | 18.2 | 18.2 Mbytes
Step Temp Press TotEng PotEng Enthalpy Volume 
   63000    1309.1056    229.44098   -75721.196   -79046.443   -75625.455    668557.15 
   63495    1266.2644    344.39429   -75910.335   -79126.762   -75766.848    667525.87 
Loop time of 55.2485 on 1 procs for 495 steps with 19652 atoms

Performance: 0.774 ns/day, 31.004 hours/ns, 8.960 timesteps/s
99.6% CPU use with 1 MPI tasks x no OpenMP threads

MPI task timing breakdown:
Section |  min time  |  avg time  |  max time  |%varavg| %total
---------------------------------------------------------------
Pair    | 30.321     | 30.321     | 30.321     |   0.0 | 54.88
Neigh   | 22.162     | 22.162     | 22.162     |   0.0 | 40.11
Comm    | 0.9298     | 0.9298     | 0.9298     |   0.0 |  1.68
Output  | 0.00023484 | 0.00023484 | 0.00023484 |   0.0 |  0.00
Modify  | 1.3722     | 1.3722     | 1.3722     |   0.0 |  2.48
Other   |            | 0.4625     |            |       |  0.84

Nlocal:    19652 ave 19652 max 19652 min
Histogram: 1 0 0 0 0 0 0 0 0 0
Nghost:    13813 ave 13813 max 13813 min
Histogram: 1 0 0 0 0 0 0 0 0 0
Neighs:    708750 ave 708750 max 708750 min
Histogram: 1 0 0 0 0 0 0 0 0 0

Total # of neighbors = 708750
Ave neighs/atom = 36.065
Neighbor list builds = 495
Dangerous builds not checked
Setting up Verlet run ...
  Unit style    : metal
  Current step  : 63495
  Time step     : 0.001
Per MPI rank memory allocation (min/avg/max) = 18.2 | 18.2 | 18.2 Mbytes
Step Temp Press TotEng PotEng Enthalpy Volume 
   63495    1266.2644    344.39429   -75910.335   -79126.762   -75766.848    667525.87 
   64000    1235.2956    184.40294    -76052.24   -79190.003   -75975.479    666934.41 
Loop time of 59.5253 on 1 procs for 505 steps with 19652 atoms

Performance: 0.733 ns/day, 32.742 hours/ns, 8.484 timesteps/s
99.6% CPU use with 1 MPI tasks x no OpenMP threads

MPI task timing breakdown:
Section |  min time  |  avg time  |  max time  |%varavg| %total
---------------------------------------------------------------
Pair    | 32.82      | 32.82      | 32.82      |   0.0 | 55.14
Neigh   | 23.31      | 23.31      | 23.31      |   0.0 | 39.16
Comm    | 1.1192     | 1.1192     | 1.1192     |   0.0 |  1.88
Output  | 0.060708   | 0.060708   | 0.060708   |   0.0 |  0.10
Modify  | 1.645      | 1.645      | 1.645      |   0.0 |  2.76
Other   |            | 0.5705     |            |       |  0.96

Nlocal:    19652 ave 19652 max 19652 min
Histogram: 1 0 0 0 0 0 0 0 0 0
Nghost:    13853 ave 13853 max 13853 min
Histogram: 1 0 0 0 0 0 0 0 0 0
Neighs:    708751 ave 708751 max 708751 min
Histogram: 1 0 0 0 0 0 0 0 0 0

Total # of neighbors = 708751
Ave neighs/atom = 36.0651
Neighbor list builds = 505
Dangerous builds not checked
Setting up Verlet run ...
  Unit style    : metal
  Current step  : 64000
  Time step     : 0.001
Per MPI rank memory allocation (min/avg/max) = 18.2 | 18.2 | 18.2 Mbytes
Step Temp Press TotEng PotEng Enthalpy Volume 
   64000    1235.2956    184.40294    -76052.24   -79190.003   -75975.479    666934.41 
   64495    1222.7126    414.85444   -76245.496   -79351.298   -76073.056    665967.31 
Loop time of 54.2465 on 1 procs for 495 steps with 19652 atoms

Performance: 0.788 ns/day, 30.441 hours/ns, 9.125 timesteps/s
99.3% CPU use with 1 MPI tasks x no OpenMP threads

MPI task timing breakdown:
Section |  min time  |  avg time  |  max time  |%varavg| %total
---------------------------------------------------------------
Pair    | 29.677     | 29.677     | 29.677     |   0.0 | 54.71
Neigh   | 21.8       | 21.8       | 21.8       |   0.0 | 40.19
Comm    | 0.90261    | 0.90261    | 0.90261    |   0.0 |  1.66
Output  | 0.00025582 | 0.00025582 | 0.00025582 |   0.0 |  0.00
Modify  | 1.3807     | 1.3807     | 1.3807     |   0.0 |  2.55
Other   |            | 0.486      |            |       |  0.90

Nlocal:    19652 ave 19652 max 19652 min
Histogram: 1 0 0 0 0 0 0 0 0 0
Nghost:    13898 ave 13898 max 13898 min
Histogram: 1 0 0 0 0 0 0 0 0 0
Neighs:    709152 ave 709152 max 709152 min
Histogram: 1 0 0 0 0 0 0 0 0 0

[...]
Step Temp Press TotEng PotEng Enthalpy Volume 
   80000    448.23006   -12.237747   -81022.021   -82160.566   -81026.963    647040.03 
   80495    417.88232    58.875284   -81166.817   -82228.276   -81143.064    646394.66 
Loop time of 49.5704 on 1 procs for 495 steps with 19652 atoms

Performance: 0.863 ns/day, 27.817 hours/ns, 9.986 timesteps/s
99.9% CPU use with 1 MPI tasks x no OpenMP threads

MPI task timing breakdown:
Section |  min time  |  avg time  |  max time  |%varavg| %total
---------------------------------------------------------------
Pair    | 27.207     | 27.207     | 27.207     |   0.0 | 54.89
Neigh   | 20.411     | 20.411     | 20.411     |   0.0 | 41.18
Comm    | 0.64244    | 0.64244    | 0.64244    |   0.0 |  1.30
Output  | 0.00024605 | 0.00024605 | 0.00024605 |   0.0 |  0.00
Modify  | 0.98823    | 0.98823    | 0.98823    |   0.0 |  1.99
Other   |            | 0.3213     |            |       |  0.65

Nlocal:    19652 ave 19652 max 19652 min
Histogram: 1 0 0 0 0 0 0 0 0 0
Nghost:    14005 ave 14005 max 14005 min
Histogram: 1 0 0 0 0 0 0 0 0 0
Neighs:    713903 ave 713903 max 713903 min
Histogram: 1 0 0 0 0 0 0 0 0 0

Total # of neighbors = 713903
Ave neighs/atom = 36.3272
Neighbor list builds = 495
Dangerous builds not checked
Setting up Verlet run ...
  Unit style    : metal
  Current step  : 80495
  Time step     : 0.001
Per MPI rank memory allocation (min/avg/max) = 18.2 | 18.2 | 18.2 Mbytes
Step Temp Press TotEng PotEng Enthalpy Volume 
   80495    417.88232    58.875284   -81166.817   -82228.276   -81143.064    646394.66 
   81000    396.09667   -92.635028   -81294.377   -82300.499   -81331.739    646192.92 
Loop time of 50.9227 on 1 procs for 505 steps with 19652 atoms

Performance: 0.857 ns/day, 28.010 hours/ns, 9.917 timesteps/s
99.8% CPU use with 1 MPI tasks x no OpenMP threads

MPI task timing breakdown:
Section |  min time  |  avg time  |  max time  |%varavg| %total
---------------------------------------------------------------
Pair    | 28.021     | 28.021     | 28.021     |   0.0 | 55.03
Neigh   | 20.812     | 20.812     | 20.812     |   0.0 | 40.87
Comm    | 0.67527    | 0.67527    | 0.67527    |   0.0 |  1.33
Output  | 0.051316   | 0.051316   | 0.051316   |   0.0 |  0.10
Modify  | 1.0256     | 1.0256     | 1.0256     |   0.0 |  2.01
Other   |            | 0.3377     |            |       |  0.66

Nlocal:    19652 ave 19652 max 19652 min
Histogram: 1 0 0 0 0 0 0 0 0 0
Nghost:    14043 ave 14043 max 14043 min
Histogram: 1 0 0 0 0 0 0 0 0 0
Neighs:    713827 ave 713827 max 713827 min
Histogram: 1 0 0 0 0 0 0 0 0 0

Total # of neighbors = 713827
Ave neighs/atom = 36.3234
Neighbor list builds = 505
Dangerous builds not checked
Setting up Verlet run ...
  Unit style    : metal
  Current step  : 81000
  Time step     : 0.001
Per MPI rank memory allocation (min/avg/max) = 18.2 | 18.2 | 18.2 Mbytes
Step Temp Press TotEng PotEng Enthalpy Volume 
   81000    396.09667   -92.635028   -81294.377   -82300.499   -81331.739    646192.92 
   81495    371.60761    -34.02074   -81434.476   -82378.393   -81448.181    645443.24 
Loop time of 49.1781 on 1 procs for 495 steps with 19652 atoms

Performance: 0.870 ns/day, 27.597 hours/ns, 10.065 timesteps/s
99.9% CPU use with 1 MPI tasks x no OpenMP threads

MPI task timing breakdown:
Section |  min time  |  avg time  |  max time  |%varavg| %total
---------------------------------------------------------------
Pair    | 27.194     | 27.194     | 27.194     |   0.0 | 55.30
Neigh   | 20.122     | 20.122     | 20.122     |   0.0 | 40.92
Comm    | 0.58518    | 0.58518    | 0.58518    |   0.0 |  1.19
Output  | 0.00022507 | 0.00022507 | 0.00022507 |   0.0 |  0.00
Modify  | 0.94808    | 0.94808    | 0.94808    |   0.0 |  1.93
Other   |            | 0.3287     |            |       |  0.67

Nlocal:    19652 ave 19652 max 19652 min
Histogram: 1 0 0 0 0 0 0 0 0 0
Nghost:    14047 ave 14047 max 14047 min
Histogram: 1 0 0 0 0 0 0 0 0 0
Neighs:    714004 ave 714004 max 714004 min
Histogram: 1 0 0 0 0 0 0 0 0 0

Total # of neighbors = 714004
Ave neighs/atom = 36.3324
Neighbor list builds = 495
Dangerous builds not checked
Setting up Verlet run ...
  Unit style    : metal
  Current step  : 81495
  Time step     : 0.001
Per MPI rank memory allocation (min/avg/max) = 18.2 | 18.2 | 18.2 Mbytes
Step Temp Press TotEng PotEng Enthalpy Volume 
   81495    371.60761    -34.02074   -81434.476   -82378.393   -81448.181    645443.24 
   82000    347.82177   -37.626555   -81565.685   -82449.184   -81580.837    645167.16 
Loop time of 51.0546 on 1 procs for 505 steps with 19652 atoms

Performance: 0.855 ns/day, 28.083 hours/ns, 9.891 timesteps/s
99.7% CPU use with 1 MPI tasks x no OpenMP threads

MPI task timing breakdown:
Section |  min time  |  avg time  |  max time  |%varavg| %total
---------------------------------------------------------------
Pair    | 28.168     | 28.168     | 28.168     |   0.0 | 55.17
Neigh   | 20.806     | 20.806     | 20.806     |   0.0 | 40.75
Comm    | 0.64226    | 0.64226    | 0.64226    |   0.0 |  1.26
Output  | 0.055474   | 0.055474   | 0.055474   |   0.0 |  0.11
Modify  | 1.0245     | 1.0245     | 1.0245     |   0.0 |  2.01
Other   |            | 0.3583     |            |       |  0.70

Nlocal:    19652 ave 19652 max 19652 min
Histogram: 1 0 0 0 0 0 0 0 0 0
Nghost:    14055 ave 14055 max 14055 min
Histogram: 1 0 0 0 0 0 0 0 0 0
Neighs:    714093 ave 714093 max 714093 min
Histogram: 1 0 0 0 0 0 0 0 0 0

Total # of neighbors = 714093
Ave neighs/atom = 36.3369
Neighbor list builds = 505
Dangerous builds not checked
Setting up Verlet run ...
  Unit style    : metal
  Current step  : 82000
  Time step     : 0.001
Per MPI rank memory allocation (min/avg/max) = 18.2 | 18.2 | 18.2 Mbytes
Step Temp Press TotEng PotEng Enthalpy Volume 
   82000    347.82177   -37.626555   -81565.685   -82449.184   -81580.837    645167.16 
   82495    324.45182     10.08157   -81704.883    -82529.02   -81700.827    644511.84 
Loop time of 50.0919 on 1 procs for 495 steps with 19652 atoms

Performance: 0.854 ns/day, 28.110 hours/ns, 9.882 timesteps/s
99.9% CPU use with 1 MPI tasks x no OpenMP threads

MPI task timing breakdown:
Section |  min time  |  avg time  |  max time  |%varavg| %total
---------------------------------------------------------------
Pair    | 27.656     | 27.656     | 27.656     |   0.0 | 55.21
Neigh   | 20.411     | 20.411     | 20.411     |   0.0 | 40.75
Comm    | 0.65904    | 0.65904    | 0.65904    |   0.0 |  1.32
Output  | 0.00020218 | 0.00020218 | 0.00020218 |   0.0 |  0.00
Modify  | 1.0195     | 1.0195     | 1.0195     |   0.0 |  2.04
Other   |            | 0.3469     |            |       |  0.69

Nlocal:    19652 ave 19652 max 19652 min
Histogram: 1 0 0 0 0 0 0 0 0 0
Nghost:    14027 ave 14027 max 14027 min
Histogram: 1 0 0 0 0 0 0 0 0 0
Neighs:    714402 ave 714402 max 714402 min
Histogram: 1 0 0 0 0 0 0 0 0 0

Total # of neighbors = 714402
Ave neighs/atom = 36.3526
Neighbor list builds = 495
Dangerous builds not checked
Setting up Verlet run ...
  Unit style    : metal
  Current step  : 82495
  Time step     : 0.001
Per MPI rank memory allocation (min/avg/max) = 18.2 | 18.2 | 18.2 Mbytes
Step Temp Press TotEng PotEng Enthalpy Volume 
   82495    324.45182     10.08157   -81704.883    -82529.02   -81700.827    644511.84 
   83000    298.59734   -40.405264   -81835.337   -82593.802   -81851.579    644041.62 
Loop time of 50.8718 on 1 procs for 505 steps with 19652 atoms

Performance: 0.858 ns/day, 27.982 hours/ns, 9.927 timesteps/s
99.2% CPU use with 1 MPI tasks x no OpenMP threads

MPI task timing breakdown:
Section |  min time  |  avg time  |  max time  |%varavg| %total
---------------------------------------------------------------
Pair    | 28.13      | 28.13      | 28.13      |   0.0 | 55.30
Neigh   | 20.708     | 20.708     | 20.708     |   0.0 | 40.71
Comm    | 0.64187    | 0.64187    | 0.64187    |   0.0 |  1.26
Output  | 0.05092    | 0.05092    | 0.05092    |   0.0 |  0.10
Modify  | 1.0081     | 1.0081     | 1.0081     |   0.0 |  1.98
Other   |            | 0.3329     |            |       |  0.65

Nlocal:    19652 ave 19652 max 19652 min
Histogram: 1 0 0 0 0 0 0 0 0 0
Nghost:    14022 ave 14022 max 14022 min
Histogram: 1 0 0 0 0 0 0 0 0 0
Neighs:    714393 ave 714393 max 714393 min
Histogram: 1 0 0 0 0 0 0 0 0 0

Total # of neighbors = 714393
Ave neighs/atom = 36.3522
Neighbor list builds = 505
Dangerous builds not checked
Setting up Verlet run ...
  Unit style    : metal
  Current step  : 83000
  Time step     : 0.001
Per MPI rank memory allocation (min/avg/max) = 18.2 | 18.2 | 18.2 Mbytes
Step Temp Press TotEng PotEng Enthalpy Volume 
   83000    298.59734   -40.405264   -81835.337   -82593.802   -81851.579    644041.62 
   83495    274.13548    34.961344   -81967.128   -82663.457   -81953.087    643445.65 
Loop time of 49.2435 on 1 procs for 495 steps with 19652 atoms

Performance: 0.869 ns/day, 27.634 hours/ns, 10.052 timesteps/s
99.9% CPU use with 1 MPI tasks x no OpenMP threads

MPI task timing breakdown:
Section |  min time  |  avg time  |  max time  |%varavg| %total
---------------------------------------------------------------
Pair    | 27.224     | 27.224     | 27.224     |   0.0 | 55.28
Neigh   | 20.152     | 20.152     | 20.152     |   0.0 | 40.92
Comm    | 0.58938    | 0.58938    | 0.58938    |   0.0 |  1.20
Output  | 0.00019407 | 0.00019407 | 0.00019407 |   0.0 |  0.00
Modify  | 0.95679    | 0.95679    | 0.95679    |   0.0 |  1.94
Other   |            | 0.3212     |            |       |  0.65

Nlocal:    19652 ave 19652 max 19652 min
Histogram: 1 0 0 0 0 0 0 0 0 0
Nghost:    14043 ave 14043 max 14043 min
Histogram: 1 0 0 0 0 0 0 0 0 0
Neighs:    714841 ave 714841 max 714841 min
Histogram: 1 0 0 0 0 0 0 0 0 0

Total # of neighbors = 714841
Ave neighs/atom = 36.375
Neighbor list builds = 495
Dangerous builds not checked
Setting up Verlet run ...
  Unit style    : metal
  Current step  : 83495
  Time step     : 0.001
Per MPI rank memory allocation (min/avg/max) = 18.2 | 18.2 | 18.2 Mbytes
Step Temp Press TotEng PotEng Enthalpy Volume 
   83495    274.13548    34.961344   -81967.128   -82663.457   -81953.087    643445.65 
   84000    249.43542    28.483173   -82100.825   -82734.414   -82089.395    642955.37 
Loop time of 52.1923 on 1 procs for 505 steps with 19652 atoms

Performance: 0.836 ns/day, 28.709 hours/ns, 9.676 timesteps/s
99.7% CPU use with 1 MPI tasks x no OpenMP threads

MPI task timing breakdown:
Section |  min time  |  avg time  |  max time  |%varavg| %total
---------------------------------------------------------------
Pair    | 28.884     | 28.884     | 28.884     |   0.0 | 55.34
Neigh   | 21.078     | 21.078     | 21.078     |   0.0 | 40.39
Comm    | 0.73087    | 0.73087    | 0.73087    |   0.0 |  1.40
Output  | 0.057529   | 0.057529   | 0.057529   |   0.0 |  0.11
Modify  | 1.0796     | 1.0796     | 1.0796     |   0.0 |  2.07
Other   |            | 0.3626     |            |       |  0.69

Nlocal:    19652 ave 19652 max 19652 min
Histogram: 1 0 0 0 0 0 0 0 0 0
Nghost:    14077 ave 14077 max 14077 min
Histogram: 1 0 0 0 0 0 0 0 0 0
Neighs:    714826 ave 714826 max 714826 min
Histogram: 1 0 0 0 0 0 0 0 0 0

Total # of neighbors = 714826
Ave neighs/atom = 36.3742
Neighbor list builds = 505
Dangerous builds not checked
Setting up Verlet run ...
  Unit style    : metal
  Current step  : 84000
  Time step     : 0.001
Per MPI rank memory allocation (min/avg/max) = 18.2 | 18.2 | 18.2 Mbytes
Step Temp Press TotEng PotEng Enthalpy Volume 
   84000    249.43542    28.483173   -82100.825   -82734.414   -82089.395    642955.37 
   84495    222.63267    12.252692   -82227.693     -82793.2   -82222.779    642547.57 
Loop time of 51.7199 on 1 procs for 495 steps with 19652 atoms

Performance: 0.827 ns/day, 29.024 hours/ns, 9.571 timesteps/s
99.8% CPU use with 1 MPI tasks x no OpenMP threads

MPI task timing breakdown:
Section |  min time  |  avg time  |  max time  |%varavg| %total
---------------------------------------------------------------
Pair    | 28.727     | 28.727     | 28.727     |   0.0 | 55.54
Neigh   | 20.742     | 20.742     | 20.742     |   0.0 | 40.10
Comm    | 0.77972    | 0.77972    | 0.77972    |   0.0 |  1.51
Output  | 0.00018692 | 0.00018692 | 0.00018692 |   0.0 |  0.00
Modify  | 1.1052     | 1.1052     | 1.1052     |   0.0 |  2.14
Other   |            | 0.3656     |            |       |  0.71

Nlocal:    19652 ave 19652 max 19652 min
Histogram: 1 0 0 0 0 0 0 0 0 0
Nghost:    14037 ave 14037 max 14037 min
Histogram: 1 0 0 0 0 0 0 0 0 0
Neighs:    715407 ave 715407 max 715407 min
Histogram: 1 0 0 0 0 0 0 0 0 0

Total # of neighbors = 715407
Ave neighs/atom = 36.4038
Neighbor list builds = 495
Dangerous builds not checked
Setting up Verlet run ...
  Unit style    : metal
  Current step  : 84495
  Time step     : 0.001
Per MPI rank memory allocation (min/avg/max) = 18.2 | 18.2 | 18.2 Mbytes
Step Temp Press TotEng PotEng Enthalpy Volume 
   84495    222.63267    12.252692   -82227.693     -82793.2   -82222.779    642547.57 
   85000    201.06689    10.364119   -82359.163   -82869.892    -82355.01    642053.82 
Loop time of 53.5788 on 1 procs for 505 steps with 19652 atoms

Performance: 0.814 ns/day, 29.471 hours/ns, 9.425 timesteps/s
99.8% CPU use with 1 MPI tasks x no OpenMP threads

MPI task timing breakdown:
Section |  min time  |  avg time  |  max time  |%varavg| %total
---------------------------------------------------------------
Pair    | 29.795     | 29.795     | 29.795     |   0.0 | 55.61
Neigh   | 21.283     | 21.283     | 21.283     |   0.0 | 39.72
Comm    | 0.81287    | 0.81287    | 0.81287    |   0.0 |  1.52
Output  | 0.054346   | 0.054346   | 0.054346   |   0.0 |  0.10
Modify  | 1.2133     | 1.2133     | 1.2133     |   0.0 |  2.26
Other   |            | 0.4202     |            |       |  0.78

Nlocal:    19652 ave 19652 max 19652 min
Histogram: 1 0 0 0 0 0 0 0 0 0
Nghost:    14100 ave 14100 max 14100 min
Histogram: 1 0 0 0 0 0 0 0 0 0
Neighs:    715324 ave 715324 max 715324 min
Histogram: 1 0 0 0 0 0 0 0 0 0

Total # of neighbors = 715324
Ave neighs/atom = 36.3996
Neighbor list builds = 505
Dangerous builds not checked
Setting up Verlet run ...
  Unit style    : metal
  Current step  : 85000
  Time step     : 0.001
Per MPI rank memory allocation (min/avg/max) = 18.2 | 18.2 | 18.2 Mbytes
Step Temp Press TotEng PotEng Enthalpy Volume 
   85000    201.06689    10.364119   -82359.163   -82869.892    -82355.01    642053.82 
   85495    175.03329    17.358656   -82484.327   -82928.927   -82477.376    641515.85 
Loop time of 52.1021 on 1 procs for 495 steps with 19652 atoms

Performance: 0.821 ns/day, 29.238 hours/ns, 9.501 timesteps/s
99.7% CPU use with 1 MPI tasks x no OpenMP threads

MPI task timing breakdown:
Section |  min time  |  avg time  |  max time  |%varavg| %total
---------------------------------------------------------------
Pair    | 29.067     | 29.067     | 29.067     |   0.0 | 55.79
Neigh   | 20.736     | 20.736     | 20.736     |   0.0 | 39.80
Comm    | 0.76349    | 0.76349    | 0.76349    |   0.0 |  1.47
Output  | 0.00028992 | 0.00028992 | 0.00028992 |   0.0 |  0.00
Modify  | 1.1572     | 1.1572     | 1.1572     |   0.0 |  2.22
Other   |            | 0.3778     |            |       |  0.73

Nlocal:    19652 ave 19652 max 19652 min
Histogram: 1 0 0 0 0 0 0 0 0 0
Nghost:    14070 ave 14070 max 14070 min
Histogram: 1 0 0 0 0 0 0 0 0 0
Neighs:    715454 ave 715454 max 715454 min
Histogram: 1 0 0 0 0 0 0 0 0 0

Total # of neighbors = 715454
Ave neighs/atom = 36.4062
Neighbor list builds = 495
Dangerous builds not checked
Setting up Verlet run ...
  Unit style    : metal
  Current step  : 85495
  Time step     : 0.001
Per MPI rank memory allocation (min/avg/max) = 18.2 | 18.2 | 18.2 Mbytes
Step Temp Press TotEng PotEng Enthalpy Volume 
   85495    175.03329    17.358656   -82484.327   -82928.927   -82477.376    641515.85 
   86000    149.43146    77.285528   -82613.881   -82993.451   -82582.959    641034.16 
Loop time of 53.8999 on 1 procs for 505 steps with 19652 atoms

Performance: 0.810 ns/day, 29.648 hours/ns, 9.369 timesteps/s
99.5% CPU use with 1 MPI tasks x no OpenMP threads

MPI task timing breakdown:
Section |  min time  |  avg time  |  max time  |%varavg| %total
---------------------------------------------------------------
Pair    | 30.122     | 30.122     | 30.122     |   0.0 | 55.88
Neigh   | 21.29      | 21.29      | 21.29      |   0.0 | 39.50
Comm    | 0.8023     | 0.8023     | 0.8023     |   0.0 |  1.49
Output  | 0.054956   | 0.054956   | 0.054956   |   0.0 |  0.10
Modify  | 1.2294     | 1.2294     | 1.2294     |   0.0 |  2.28
Other   |            | 0.401      |            |       |  0.74

Nlocal:    19652 ave 19652 max 19652 min
Histogram: 1 0 0 0 0 0 0 0 0 0
Nghost:    14077 ave 14077 max 14077 min
Histogram: 1 0 0 0 0 0 0 0 0 0
Neighs:    715725 ave 715725 max 715725 min
Histogram: 1 0 0 0 0 0 0 0 0 0

Total # of neighbors = 715725
Ave neighs/atom = 36.42
Neighbor list builds = 505
Dangerous builds not checked
Setting up Verlet run ...
  Unit style    : metal
  Current step  : 86000
  Time step     : 0.001
Per MPI rank memory allocation (min/avg/max) = 18.2 | 18.2 | 18.2 Mbytes
Step Temp Press TotEng PotEng Enthalpy Volume 
   86000    149.43146    77.285528   -82613.881   -82993.451   -82582.959    641034.16 
   86495    127.45707   -104.21052   -82735.498   -83059.251   -82777.176    640774.92 
Loop time of 51.6843 on 1 procs for 495 steps with 19652 atoms

Performance: 0.827 ns/day, 29.004 hours/ns, 9.577 timesteps/s
99.4% CPU use with 1 MPI tasks x no OpenMP threads

MPI task timing breakdown:
Section |  min time  |  avg time  |  max time  |%varavg| %total
---------------------------------------------------------------
Pair    | 28.767     | 28.767     | 28.767     |   0.0 | 55.66
Neigh   | 20.75      | 20.75      | 20.75      |   0.0 | 40.15
Comm    | 0.70832    | 0.70832    | 0.70832    |   0.0 |  1.37
Output  | 0.00026798 | 0.00026798 | 0.00026798 |   0.0 |  0.00
Modify  | 1.0943     | 1.0943     | 1.0943     |   0.0 |  2.12
Other   |            | 0.3644     |            |       |  0.71

Nlocal:    19652 ave 19652 max 19652 min
Histogram: 1 0 0 0 0 0 0 0 0 0
Nghost:    14100 ave 14100 max 14100 min
Histogram: 1 0 0 0 0 0 0 0 0 0
Neighs:    715705 ave 715705 max 715705 min
Histogram: 1 0 0 0 0 0 0 0 0 0

Total # of neighbors = 715705
Ave neighs/atom = 36.4189
Neighbor list builds = 495
Dangerous builds not checked
Setting up Verlet run ...
  Unit style    : metal
  Current step  : 86495
  Time step     : 0.001
Per MPI rank memory allocation (min/avg/max) = 18.2 | 18.2 | 18.2 Mbytes
Step Temp Press TotEng PotEng Enthalpy Volume 
   86495    127.45707   -104.21052   -82735.498   -83059.251   -82777.176    640774.92 
   87000    102.80302    45.153162   -82864.663   -83125.792   -82846.624    640089.46 
Loop time of 51.7105 on 1 procs for 505 steps with 19652 atoms

Performance: 0.844 ns/day, 28.444 hours/ns, 9.766 timesteps/s
99.5% CPU use with 1 MPI tasks x no OpenMP threads

MPI task timing breakdown:
Section |  min time  |  avg time  |  max time  |%varavg| %total
---------------------------------------------------------------
Pair    | 28.647     | 28.647     | 28.647     |   0.0 | 55.40
Neigh   | 20.961     | 20.961     | 20.961     |   0.0 | 40.54
Comm    | 0.66591    | 0.66591    | 0.66591    |   0.0 |  1.29
Output  | 0.053712   | 0.053712   | 0.053712   |   0.0 |  0.10
Modify  | 1.0453     | 1.0453     | 1.0453     |   0.0 |  2.02
Other   |            | 0.3378     |            |       |  0.65

Nlocal:    19652 ave 19652 max 19652 min
Histogram: 1 0 0 0 0 0 0 0 0 0
Nghost:    14087 ave 14087 max 14087 min
Histogram: 1 0 0 0 0 0 0 0 0 0
Neighs:    716150 ave 716150 max 716150 min
Histogram: 1 0 0 0 0 0 0 0 0 0

Total # of neighbors = 716150
Ave neighs/atom = 36.4416
Neighbor list builds = 505
Dangerous builds not checked
Total wall time: 2:41:04
