LAMMPS (12 Dec 2018)
Lattice spacing in x,y,z = 4 4 4
Created orthogonal box = (0 0 0) to (68 68 68)
  1 by 1 by 1 MPI processor grid
Created 19652 atoms
  Time spent = 0.0043149 secs
Setting atom values ...
  19281 settings made for type/fraction
Neighbor list info ...
  update every 1 steps, delay 0 steps, check no
  max neighbors/atom: 2000, page size: 100000
  master list distance cutoff = 8.5
  ghost atom cutoff = 8.5
  binsize = 4.25, bins = 16 16 16
  1 neighbor lists, perpetual/occasional/extra = 1 0 0
  (1) pair eam/alloy, perpetual
      attributes: half, newton on
      pair build: half/bin/atomonly/newton
      stencil: half/bin/3d/newton
      bin: standard
Setting up Verlet run ...
  Unit style    : metal
  Current step  : 0
  Time step     : 0.001
Per MPI rank memory allocation (min/avg/max) = 18.19 | 18.19 | 18.19 Mbytes
Step Temp Press TotEng PotEng Enthalpy 
       0          300    56881.345   -55279.362   -56041.389   -44116.225 
    1000    157.01402    63494.444   -55279.314   -55678.144   -42818.337 
Loop time of 143.395 on 1 procs for 1000 steps with 19652 atoms

Performance: 0.603 ns/day, 39.832 hours/ns, 6.974 timesteps/s
99.6% CPU use with 1 MPI tasks x no OpenMP threads

MPI task timing breakdown:
Section |  min time  |  avg time  |  max time  |%varavg| %total
---------------------------------------------------------------
Pair    | 81.89      | 81.89      | 81.89      |   0.0 | 57.11
Neigh   | 59.608     | 59.608     | 59.608     |   0.0 | 41.57
Comm    | 1.1418     | 1.1418     | 1.1418     |   0.0 |  0.80
Output  | 0.00020695 | 0.00020695 | 0.00020695 |   0.0 |  0.00
Modify  | 0.38367    | 0.38367    | 0.38367    |   0.0 |  0.27
Other   |            | 0.3719     |            |       |  0.26

Nlocal:    19652 ave 19652 max 19652 min
Histogram: 1 0 0 0 0 0 0 0 0 0
Nghost:    20102 ave 20102 max 20102 min
Histogram: 1 0 0 0 0 0 0 0 0 0
Neighs:    1.57332e+06 ave 1.57332e+06 max 1.57332e+06 min
Histogram: 1 0 0 0 0 0 0 0 0 0

Total # of neighbors = 1573322
Ave neighs/atom = 80.0591
Neighbor list builds = 1000
Dangerous builds not checked
Setting up Verlet run ...
  Unit style    : metal
  Current step  : 1000
  Time step     : 0.001
Per MPI rank memory allocation (min/avg/max) = 18.19 | 18.19 | 18.19 Mbytes
Step Temp Press TotEng PotEng Enthalpy 
    1000    157.01402    63494.444   -55279.314   -55678.144   -42818.337 
    2000    292.04349    43.266102   -54795.659   -55537.476   -54786.578 
Loop time of 143.102 on 1 procs for 1000 steps with 19652 atoms

Performance: 0.604 ns/day, 39.751 hours/ns, 6.988 timesteps/s
99.9% CPU use with 1 MPI tasks x no OpenMP threads

MPI task timing breakdown:
Section |  min time  |  avg time  |  max time  |%varavg| %total
---------------------------------------------------------------
Pair    | 79.593     | 79.593     | 79.593     |   0.0 | 55.62
Neigh   | 60.618     | 60.618     | 60.618     |   0.0 | 42.36
Comm    | 1.1055     | 1.1055     | 1.1055     |   0.0 |  0.77
Output  | 0.00013304 | 0.00013304 | 0.00013304 |   0.0 |  0.00
Modify  | 1.3678     | 1.3678     | 1.3678     |   0.0 |  0.96
Other   |            | 0.4176     |            |       |  0.29

Nlocal:    19652 ave 19652 max 19652 min
Histogram: 1 0 0 0 0 0 0 0 0 0
Nghost:    20094 ave 20094 max 20094 min
Histogram: 1 0 0 0 0 0 0 0 0 0
Neighs:    1.4132e+06 ave 1.4132e+06 max 1.4132e+06 min
Histogram: 1 0 0 0 0 0 0 0 0 0

Total # of neighbors = 1413195
Ave neighs/atom = 71.911
Neighbor list builds = 1000
Dangerous builds not checked
Setting up Verlet run ...
  Unit style    : metal
  Current step  : 2000
  Time step     : 0.001
Per MPI rank memory allocation (min/avg/max) = 18.19 | 18.19 | 18.19 Mbytes
Step Temp Press TotEng PotEng Enthalpy 
    2000    292.04349    43.266102   -54795.659   -55537.476   -54786.578 
    5000    1085.6043   -605.33418   -50142.717   -52900.251   -50279.453 
   10000    2441.5439    26.234489   -40040.835   -46242.579   -40033.382 
Loop time of 1144.24 on 1 procs for 8000 steps with 19652 atoms

Performance: 0.604 ns/day, 39.730 hours/ns, 6.992 timesteps/s
99.2% CPU use with 1 MPI tasks x no OpenMP threads

MPI task timing breakdown:
Section |  min time  |  avg time  |  max time  |%varavg| %total
---------------------------------------------------------------
Pair    | 616.7      | 616.7      | 616.7      |   0.0 | 53.90
Neigh   | 503.9      | 503.9      | 503.9      |   0.0 | 44.04
Comm    | 8.7676     | 8.7676     | 8.7676     |   0.0 |  0.77
Output  | 0.16868    | 0.16868    | 0.16868    |   0.0 |  0.01
Modify  | 11.464     | 11.464     | 11.464     |   0.0 |  1.00
Other   |            | 3.241      |            |       |  0.28

Nlocal:    19652 ave 19652 max 19652 min
Histogram: 1 0 0 0 0 0 0 0 0 0
Nghost:    16092 ave 16092 max 16092 min
Histogram: 1 0 0 0 0 0 0 0 0 0
Neighs:    1.08519e+06 ave 1.08519e+06 max 1.08519e+06 min
Histogram: 1 0 0 0 0 0 0 0 0 0

Total # of neighbors = 1085191
Ave neighs/atom = 55.2204
Neighbor list builds = 8000
Dangerous builds not checked
Setting up Verlet run ...
  Unit style    : metal
  Current step  : 10000
  Time step     : 0.001
Per MPI rank memory allocation (min/avg/max) = 18.19 | 18.19 | 18.19 Mbytes
Step Temp Press TotEng PotEng Enthalpy 
   10000    2441.5439    26.234489   -40040.835   -46242.579   -40033.382 
   15000    2470.3107   -133.15147   -39860.951   -46135.765   -39899.017 
   20000    2431.3061    65.212942   -39884.504   -46060.243   -39865.809 
   25000    2452.1174   -852.46016   -39899.152   -46127.754   -40143.035 
   30000    2438.3741    1287.3386   -39924.219   -46117.911   -39556.925 
   35000    2438.8123   -658.05666   -39945.953   -46140.759    -40134.17 
   40000    2451.1103    992.63683   -39854.647    -46080.69    -39571.06 
Loop time of 4117.06 on 1 procs for 30000 steps with 19652 atoms

Performance: 0.630 ns/day, 38.121 hours/ns, 7.287 timesteps/s
99.0% CPU use with 1 MPI tasks x no OpenMP threads

MPI task timing breakdown:
Section |  min time  |  avg time  |  max time  |%varavg| %total
---------------------------------------------------------------
Pair    | 2220       | 2220       | 2220       |   0.0 | 53.92
Neigh   | 1804       | 1804       | 1804       |   0.0 | 43.82
Comm    | 33.576     | 33.576     | 33.576     |   0.0 |  0.82
Output  | 1.3273     | 1.3273     | 1.3273     |   0.0 |  0.03
Modify  | 45.904     | 45.904     | 45.904     |   0.0 |  1.11
Other   |            | 12.31      |            |       |  0.30

Nlocal:    19652 ave 19652 max 19652 min
Histogram: 1 0 0 0 0 0 0 0 0 0
Nghost:    16109 ave 16109 max 16109 min
Histogram: 1 0 0 0 0 0 0 0 0 0
Neighs:    1.07882e+06 ave 1.07882e+06 max 1.07882e+06 min
Histogram: 1 0 0 0 0 0 0 0 0 0

Total # of neighbors = 1078815
Ave neighs/atom = 54.8959
Neighbor list builds = 30000
Dangerous builds not checked
Setting up Verlet run ...
  Unit style    : metal
  Current step  : 40000
  Time step     : 0.001
Per MPI rank memory allocation (min/avg/max) = 18.19 | 18.19 | 18.19 Mbytes
Step Temp Press TotEng PotEng Enthalpy 
   40000    2451.1103    992.63683   -39854.647    -46080.69    -39571.06 
   40495    2412.0076    703.84487   -40121.917   -46248.635   -39921.736 
Loop time of 61.3948 on 1 procs for 495 steps with 19652 atoms

Performance: 0.697 ns/day, 34.453 hours/ns, 8.063 timesteps/s
99.2% CPU use with 1 MPI tasks x no OpenMP threads

MPI task timing breakdown:
Section |  min time  |  avg time  |  max time  |%varavg| %total
---------------------------------------------------------------
Pair    | 32.769     | 32.769     | 32.769     |   0.0 | 53.37
Neigh   | 27.231     | 27.231     | 27.231     |   0.0 | 44.35
Comm    | 0.51006    | 0.51006    | 0.51006    |   0.0 |  0.83
Output  | 0.00013804 | 0.00013804 | 0.00013804 |   0.0 |  0.00
Modify  | 0.69269    | 0.69269    | 0.69269    |   0.0 |  1.13
Other   |            | 0.1925     |            |       |  0.31

Nlocal:    19652 ave 19652 max 19652 min
Histogram: 1 0 0 0 0 0 0 0 0 0
Nghost:    16056 ave 16056 max 16056 min
Histogram: 1 0 0 0 0 0 0 0 0 0
Neighs:    1.08417e+06 ave 1.08417e+06 max 1.08417e+06 min
Histogram: 1 0 0 0 0 0 0 0 0 0

Total # of neighbors = 1084168
Ave neighs/atom = 55.1683
Neighbor list builds = 495
Dangerous builds not checked
Setting up Verlet run ...
  Unit style    : metal
  Current step  : 40495
  Time step     : 0.001
Per MPI rank memory allocation (min/avg/max) = 18.19 | 18.19 | 18.19 Mbytes
Step Temp Press TotEng PotEng Enthalpy 
   40495    2412.0076    703.84487   -40121.917   -46248.635   -39921.736 
   45000    2397.2734    573.23628   -40228.004   -46317.297   -40065.703 
Loop time of 587.665 on 1 procs for 4505 steps with 19652 atoms

Performance: 0.662 ns/day, 36.235 hours/ns, 7.666 timesteps/s
98.4% CPU use with 1 MPI tasks x no OpenMP threads

MPI task timing breakdown:
Section |  min time  |  avg time  |  max time  |%varavg| %total
---------------------------------------------------------------
Pair    | 312.42     | 312.42     | 312.42     |   0.0 | 53.16
Neigh   | 261.86     | 261.86     | 261.86     |   0.0 | 44.56
Comm    | 4.8242     | 4.8242     | 4.8242     |   0.0 |  0.82
Output  | 0.083172   | 0.083172   | 0.083172   |   0.0 |  0.01
Modify  | 6.7217     | 6.7217     | 6.7217     |   0.0 |  1.14
Other   |            | 1.756      |            |       |  0.30

Nlocal:    19652 ave 19652 max 19652 min
Histogram: 1 0 0 0 0 0 0 0 0 0
Nghost:    16148 ave 16148 max 16148 min
Histogram: 1 0 0 0 0 0 0 0 0 0
Neighs:    1.08892e+06 ave 1.08892e+06 max 1.08892e+06 min
Histogram: 1 0 0 0 0 0 0 0 0 0

Total # of neighbors = 1088923
Ave neighs/atom = 55.4103
Neighbor list builds = 4505
Dangerous builds not checked
Setting up Verlet run ...
  Unit style    : metal
  Current step  : 45000
  Time step     : 0.001
Per MPI rank memory allocation (min/avg/max) = 18.19 | 18.19 | 18.19 Mbytes
Step Temp Press TotEng PotEng Enthalpy 
   45000    2397.2734    573.23628   -40228.004   -46317.297   -40065.703 
   45495    2359.7234    162.08224   -40415.615   -46409.528   -40369.831 
Loop time of 66.1146 on 1 procs for 495 steps with 19652 atoms

Performance: 0.647 ns/day, 37.101 hours/ns, 7.487 timesteps/s
99.0% CPU use with 1 MPI tasks x no OpenMP threads

MPI task timing breakdown:
Section |  min time  |  avg time  |  max time  |%varavg| %total
---------------------------------------------------------------
Pair    | 35.235     | 35.235     | 35.235     |   0.0 | 53.29
Neigh   | 29.401     | 29.401     | 29.401     |   0.0 | 44.47
Comm    | 0.53536    | 0.53536    | 0.53536    |   0.0 |  0.81
Output  | 0.00018001 | 0.00018001 | 0.00018001 |   0.0 |  0.00
Modify  | 0.73398    | 0.73398    | 0.73398    |   0.0 |  1.11
Other   |            | 0.2087     |            |       |  0.32

Nlocal:    19652 ave 19652 max 19652 min
Histogram: 1 0 0 0 0 0 0 0 0 0
Nghost:    16100 ave 16100 max 16100 min
Histogram: 1 0 0 0 0 0 0 0 0 0
Neighs:    1.09171e+06 ave 1.09171e+06 max 1.09171e+06 min
Histogram: 1 0 0 0 0 0 0 0 0 0

Total # of neighbors = 1091712
Ave neighs/atom = 55.5522
Neighbor list builds = 495
Dangerous builds not checked
Setting up Verlet run ...
  Unit style    : metal
  Current step  : 45495
  Time step     : 0.001
Per MPI rank memory allocation (min/avg/max) = 18.19 | 18.19 | 18.19 Mbytes
Step Temp Press TotEng PotEng Enthalpy 
   45495    2359.7234    162.08224   -40415.615   -46409.528   -40369.831 
   50000    2353.0711   -262.83545   -40576.245    -46553.26   -40650.133 
Loop time of 591.431 on 1 procs for 4505 steps with 19652 atoms

Performance: 0.658 ns/day, 36.468 hours/ns, 7.617 timesteps/s
98.9% CPU use with 1 MPI tasks x no OpenMP threads

MPI task timing breakdown:
Section |  min time  |  avg time  |  max time  |%varavg| %total
---------------------------------------------------------------
Pair    | 314.73     | 314.73     | 314.73     |   0.0 | 53.21
Neigh   | 263.19     | 263.19     | 263.19     |   0.0 | 44.50
Comm    | 4.8234     | 4.8234     | 4.8234     |   0.0 |  0.82
Output  | 0.084022   | 0.084022   | 0.084022   |   0.0 |  0.01
Modify  | 6.7648     | 6.7648     | 6.7648     |   0.0 |  1.14
Other   |            | 1.84       |            |       |  0.31

Nlocal:    19652 ave 19652 max 19652 min
Histogram: 1 0 0 0 0 0 0 0 0 0
Nghost:    16133 ave 16133 max 16133 min
Histogram: 1 0 0 0 0 0 0 0 0 0
Neighs:    1.09739e+06 ave 1.09739e+06 max 1.09739e+06 min
Histogram: 1 0 0 0 0 0 0 0 0 0

Total # of neighbors = 1097389
Ave neighs/atom = 55.8411
Neighbor list builds = 4505
Dangerous builds not checked
Setting up Verlet run ...
  Unit style    : metal
  Current step  : 50000
  Time step     : 0.001
Per MPI rank memory allocation (min/avg/max) = 18.19 | 18.19 | 18.19 Mbytes
Step Temp Press TotEng PotEng Enthalpy 
   50000    2353.0711   -262.83545   -40576.245    -46553.26   -40650.133 
   50495     2302.037    316.88094     -40737.2   -46584.583   -40648.367 
Loop time of 66.8937 on 1 procs for 495 steps with 19652 atoms

Performance: 0.639 ns/day, 37.539 hours/ns, 7.400 timesteps/s
96.9% CPU use with 1 MPI tasks x no OpenMP threads

MPI task timing breakdown:
Section |  min time  |  avg time  |  max time  |%varavg| %total
---------------------------------------------------------------
Pair    | 35.538     | 35.538     | 35.538     |   0.0 | 53.13
Neigh   | 29.82      | 29.82      | 29.82      |   0.0 | 44.58
Comm    | 0.54008    | 0.54008    | 0.54008    |   0.0 |  0.81
Output  | 0.00013494 | 0.00013494 | 0.00013494 |   0.0 |  0.00
Modify  | 0.77034    | 0.77034    | 0.77034    |   0.0 |  1.15
Other   |            | 0.2254     |            |       |  0.34

Nlocal:    19652 ave 19652 max 19652 min
Histogram: 1 0 0 0 0 0 0 0 0 0
Nghost:    16204 ave 16204 max 16204 min
Histogram: 1 0 0 0 0 0 0 0 0 0
Neighs:    1.10072e+06 ave 1.10072e+06 max 1.10072e+06 min
Histogram: 1 0 0 0 0 0 0 0 0 0

Total # of neighbors = 1100722
Ave neighs/atom = 56.0107
Neighbor list builds = 495
Dangerous builds not checked
Setting up Verlet run ...
  Unit style    : metal
  Current step  : 50495
  Time step     : 0.001
Per MPI rank memory allocation (min/avg/max) = 18.19 | 18.19 | 18.19 Mbytes
Step Temp Press TotEng PotEng Enthalpy 
   50495     2302.037    316.88094     -40737.2   -46584.583   -40648.367 
   55000    2330.0838    1084.1763   -40806.529   -46725.154   -40504.432 
Loop time of 630.824 on 1 procs for 4505 steps with 19652 atoms

Performance: 0.617 ns/day, 38.897 hours/ns, 7.141 timesteps/s
98.1% CPU use with 1 MPI tasks x no OpenMP threads

MPI task timing breakdown:
Section |  min time  |  avg time  |  max time  |%varavg| %total
---------------------------------------------------------------
Pair    | 331.95     | 331.95     | 331.95     |   0.0 | 52.62
Neigh   | 284.77     | 284.77     | 284.77     |   0.0 | 45.14
Comm    | 5.0569     | 5.0569     | 5.0569     |   0.0 |  0.80
Output  | 0.12758    | 0.12758    | 0.12758    |   0.0 |  0.02
Modify  | 6.9835     | 6.9835     | 6.9835     |   0.0 |  1.11
Other   |            | 1.93       |            |       |  0.31

Nlocal:    19652 ave 19652 max 19652 min
Histogram: 1 0 0 0 0 0 0 0 0 0
Nghost:    16258 ave 16258 max 16258 min
Histogram: 1 0 0 0 0 0 0 0 0 0
Neighs:    1.10718e+06 ave 1.10718e+06 max 1.10718e+06 min
Histogram: 1 0 0 0 0 0 0 0 0 0

Total # of neighbors = 1107185
Ave neighs/atom = 56.3396
Neighbor list builds = 4505
Dangerous builds not checked
Setting up Verlet run ...
  Unit style    : metal
  Current step  : 55000
  Time step     : 0.001
Per MPI rank memory allocation (min/avg/max) = 18.2 | 18.2 | 18.2 Mbytes
Step Temp Press TotEng PotEng Enthalpy 
   55000    2330.0838    1084.1763   -40806.529   -46725.154   -40504.432 
   55495    2264.6544   -412.16399     -41042.5   -46794.929   -41157.353 
Loop time of 69.5892 on 1 procs for 495 steps with 19652 atoms

Performance: 0.615 ns/day, 39.051 hours/ns, 7.113 timesteps/s
97.7% CPU use with 1 MPI tasks x no OpenMP threads

MPI task timing breakdown:
Section |  min time  |  avg time  |  max time  |%varavg| %total
---------------------------------------------------------------
Pair    | 35.833     | 35.833     | 35.833     |   0.0 | 51.49
Neigh   | 32.166     | 32.166     | 32.166     |   0.0 | 46.22
Comm    | 0.5581     | 0.5581     | 0.5581     |   0.0 |  0.80
Output  | 0.00015593 | 0.00015593 | 0.00015593 |   0.0 |  0.00
Modify  | 0.82245    | 0.82245    | 0.82245    |   0.0 |  1.18
Other   |            | 0.2097     |            |       |  0.30

Nlocal:    19652 ave 19652 max 19652 min
Histogram: 1 0 0 0 0 0 0 0 0 0
Nghost:    16224 ave 16224 max 16224 min
Histogram: 1 0 0 0 0 0 0 0 0 0
Neighs:    1.10713e+06 ave 1.10713e+06 max 1.10713e+06 min
Histogram: 1 0 0 0 0 0 0 0 0 0

Total # of neighbors = 1107133
Ave neighs/atom = 56.3369
Neighbor list builds = 495
Dangerous builds not checked
Setting up Verlet run ...
  Unit style    : metal
  Current step  : 55495
  Time step     : 0.001
Per MPI rank memory allocation (min/avg/max) = 18.2 | 18.2 | 18.2 Mbytes
Step Temp Press TotEng PotEng Enthalpy 
   55495    2264.6544   -412.16399     -41042.5   -46794.929   -41157.353 
   60000    2246.3877   -517.40977   -41179.636   -46885.665   -41323.169 
Loop time of 619.306 on 1 procs for 4505 steps with 19652 atoms

Performance: 0.628 ns/day, 38.186 hours/ns, 7.274 timesteps/s
98.7% CPU use with 1 MPI tasks x no OpenMP threads

MPI task timing breakdown:
Section |  min time  |  avg time  |  max time  |%varavg| %total
---------------------------------------------------------------
Pair    | 318.18     | 318.18     | 318.18     |   0.0 | 51.38
Neigh   | 287.57     | 287.57     | 287.57     |   0.0 | 46.43
Comm    | 4.8472     | 4.8472     | 4.8472     |   0.0 |  0.78
Output  | 0.094946   | 0.094946   | 0.094946   |   0.0 |  0.02
Modify  | 6.8083     | 6.8083     | 6.8083     |   0.0 |  1.10
Other   |            | 1.81       |            |       |  0.29

Nlocal:    19652 ave 19652 max 19652 min
Histogram: 1 0 0 0 0 0 0 0 0 0
Nghost:    16404 ave 16404 max 16404 min
Histogram: 1 0 0 0 0 0 0 0 0 0
Neighs:    1.11236e+06 ave 1.11236e+06 max 1.11236e+06 min
Histogram: 1 0 0 0 0 0 0 0 0 0

Total # of neighbors = 1112362
Ave neighs/atom = 56.603
Neighbor list builds = 4505
Dangerous builds not checked
Setting up Verlet run ...
  Unit style    : metal
  Current step  : 60000
  Time step     : 0.001
Per MPI rank memory allocation (min/avg/max) = 18.2 | 18.2 | 18.2 Mbytes
Step Temp Press TotEng PotEng Enthalpy 
   60000    2246.3877   -517.40977   -41179.636   -46885.665   -41323.169 
   60495    2182.0048    422.37044   -41437.702   -46980.193   -41321.319 
Loop time of 65.3772 on 1 procs for 495 steps with 19652 atoms

Performance: 0.654 ns/day, 36.688 hours/ns, 7.571 timesteps/s
99.3% CPU use with 1 MPI tasks x no OpenMP threads

MPI task timing breakdown:
Section |  min time  |  avg time  |  max time  |%varavg| %total
---------------------------------------------------------------
Pair    | 33.714     | 33.714     | 33.714     |   0.0 | 51.57
Neigh   | 30.217     | 30.217     | 30.217     |   0.0 | 46.22
Comm    | 0.53035    | 0.53035    | 0.53035    |   0.0 |  0.81
Output  | 0.00016284 | 0.00016284 | 0.00016284 |   0.0 |  0.00
Modify  | 0.72396    | 0.72396    | 0.72396    |   0.0 |  1.11
Other   |            | 0.192      |            |       |  0.29

Nlocal:    19652 ave 19652 max 19652 min
Histogram: 1 0 0 0 0 0 0 0 0 0
Nghost:    16334 ave 16334 max 16334 min
Histogram: 1 0 0 0 0 0 0 0 0 0
Neighs:    1.1198e+06 ave 1.1198e+06 max 1.1198e+06 min
Histogram: 1 0 0 0 0 0 0 0 0 0

Total # of neighbors = 1119805
Ave neighs/atom = 56.9817
Neighbor list builds = 495
Dangerous builds not checked
Setting up Verlet run ...
  Unit style    : metal
  Current step  : 60495
  Time step     : 0.001
Per MPI rank memory allocation (min/avg/max) = 18.2 | 18.2 | 18.2 Mbytes
Step Temp Press TotEng PotEng Enthalpy 
   60495    2182.0048    422.37044   -41437.702   -46980.193   -41321.319 
   65000    2201.2787    243.93233   -41500.245   -47091.694    -41433.21 
Loop time of 629.664 on 1 procs for 4505 steps with 19652 atoms

Performance: 0.618 ns/day, 38.825 hours/ns, 7.155 timesteps/s
98.5% CPU use with 1 MPI tasks x no OpenMP threads

MPI task timing breakdown:
Section |  min time  |  avg time  |  max time  |%varavg| %total
---------------------------------------------------------------
Pair    | 327.67     | 327.67     | 327.67     |   0.0 | 52.04
Neigh   | 288.25     | 288.25     | 288.25     |   0.0 | 45.78
Comm    | 4.9474     | 4.9474     | 4.9474     |   0.0 |  0.79
Output  | 0.12826    | 0.12826    | 0.12826    |   0.0 |  0.02
Modify  | 6.8161     | 6.8161     | 6.8161     |   0.0 |  1.08
Other   |            | 1.855      |            |       |  0.29

Nlocal:    19652 ave 19652 max 19652 min
Histogram: 1 0 0 0 0 0 0 0 0 0
Nghost:    16327 ave 16327 max 16327 min
Histogram: 1 0 0 0 0 0 0 0 0 0
Neighs:    1.12301e+06 ave 1.12301e+06 max 1.12301e+06 min
Histogram: 1 0 0 0 0 0 0 0 0 0

Total # of neighbors = 1123006
Ave neighs/atom = 57.1446
Neighbor list builds = 4505
Dangerous builds not checked
Setting up Verlet run ...
  Unit style    : metal
  Current step  : 65000
  Time step     : 0.001
Per MPI rank memory allocation (min/avg/max) = 18.2 | 18.2 | 18.2 Mbytes
Step Temp Press TotEng PotEng Enthalpy 
   65000    2201.2787    243.93233   -41500.245   -47091.694    -41433.21 
   65495    2151.2919    482.35051   -41601.566   -47066.044   -41469.029 
Loop time of 70.5792 on 1 procs for 495 steps with 19652 atoms

Performance: 0.606 ns/day, 39.607 hours/ns, 7.013 timesteps/s
99.6% CPU use with 1 MPI tasks x no OpenMP threads

MPI task timing breakdown:
Section |  min time  |  avg time  |  max time  |%varavg| %total
---------------------------------------------------------------
Pair    | 36.666     | 36.666     | 36.666     |   0.0 | 51.95
Neigh   | 32.374     | 32.374     | 32.374     |   0.0 | 45.87
Comm    | 0.54704    | 0.54704    | 0.54704    |   0.0 |  0.78
Output  | 0.00019002 | 0.00019002 | 0.00019002 |   0.0 |  0.00
Modify  | 0.78136    | 0.78136    | 0.78136    |   0.0 |  1.11
Other   |            | 0.2104     |            |       |  0.30

Nlocal:    19652 ave 19652 max 19652 min
Histogram: 1 0 0 0 0 0 0 0 0 0
Nghost:    16343 ave 16343 max 16343 min
Histogram: 1 0 0 0 0 0 0 0 0 0
Neighs:    1.12318e+06 ave 1.12318e+06 max 1.12318e+06 min
Histogram: 1 0 0 0 0 0 0 0 0 0

Total # of neighbors = 1123183
Ave neighs/atom = 57.1536
Neighbor list builds = 495
Dangerous builds not checked
Setting up Verlet run ...
  Unit style    : metal
  Current step  : 65495
  Time step     : 0.001
Per MPI rank memory allocation (min/avg/max) = 18.2 | 18.2 | 18.2 Mbytes
Step Temp Press TotEng PotEng Enthalpy 
   65495    2151.2919    482.35051   -41601.566   -47066.044   -41469.029 
   70000    2129.9624    -1999.224   -41874.724   -47285.023   -42421.782 
Loop time of 645.98 on 1 procs for 4505 steps with 19652 atoms

Performance: 0.603 ns/day, 39.831 hours/ns, 6.974 timesteps/s
98.7% CPU use with 1 MPI tasks x no OpenMP threads

MPI task timing breakdown:
Section |  min time  |  avg time  |  max time  |%varavg| %total
---------------------------------------------------------------
Pair    | 339.15     | 339.15     | 339.15     |   0.0 | 52.50
Neigh   | 292.85     | 292.85     | 292.85     |   0.0 | 45.33
Comm    | 5.0712     | 5.0712     | 5.0712     |   0.0 |  0.79
Output  | 0.086527   | 0.086527   | 0.086527   |   0.0 |  0.01
Modify  | 6.9616     | 6.9616     | 6.9616     |   0.0 |  1.08
Other   |            | 1.861      |            |       |  0.29

Nlocal:    19652 ave 19652 max 19652 min
Histogram: 1 0 0 0 0 0 0 0 0 0
Nghost:    16348 ave 16348 max 16348 min
Histogram: 1 0 0 0 0 0 0 0 0 0
Neighs:    1.12808e+06 ave 1.12808e+06 max 1.12808e+06 min
Histogram: 1 0 0 0 0 0 0 0 0 0

Total # of neighbors = 1128076
Ave neighs/atom = 57.4026
Neighbor list builds = 4505
Dangerous builds not checked
Setting up Verlet run ...
  Unit style    : metal
  Current step  : 70000
  Time step     : 0.001
Per MPI rank memory allocation (min/avg/max) = 18.2 | 18.2 | 18.2 Mbytes
Step Temp Press TotEng PotEng Enthalpy 
   70000    2129.9624    -1999.224   -41874.724   -47285.023   -42421.782 
   70495    2109.3471   -1114.1711   -41968.567   -47326.501   -42272.567 
Loop time of 68.688 on 1 procs for 495 steps with 19652 atoms

Performance: 0.623 ns/day, 38.545 hours/ns, 7.207 timesteps/s
99.7% CPU use with 1 MPI tasks x no OpenMP threads

MPI task timing breakdown:
Section |  min time  |  avg time  |  max time  |%varavg| %total
---------------------------------------------------------------
Pair    | 35.121     | 35.121     | 35.121     |   0.0 | 51.13
Neigh   | 32.042     | 32.042     | 32.042     |   0.0 | 46.65
Comm    | 0.53509    | 0.53509    | 0.53509    |   0.0 |  0.78
Output  | 0.00015211 | 0.00015211 | 0.00015211 |   0.0 |  0.00
Modify  | 0.79141    | 0.79141    | 0.79141    |   0.0 |  1.15
Other   |            | 0.1983     |            |       |  0.29

Nlocal:    19652 ave 19652 max 19652 min
Histogram: 1 0 0 0 0 0 0 0 0 0
Nghost:    16355 ave 16355 max 16355 min
Histogram: 1 0 0 0 0 0 0 0 0 0
Neighs:    1.1315e+06 ave 1.1315e+06 max 1.1315e+06 min
Histogram: 1 0 0 0 0 0 0 0 0 0

Total # of neighbors = 1131496
Ave neighs/atom = 57.5766
Neighbor list builds = 495
Dangerous builds not checked
Setting up Verlet run ...
  Unit style    : metal
  Current step  : 70495
  Time step     : 0.001
Per MPI rank memory allocation (min/avg/max) = 18.2 | 18.2 | 18.2 Mbytes
Step Temp Press TotEng PotEng Enthalpy 
   70495    2109.3471   -1114.1711   -41968.567   -47326.501   -42272.567 
   75000     2087.748    554.75094   -42065.696   -47368.766   -41915.029 
Loop time of 633.657 on 1 procs for 4505 steps with 19652 atoms

Performance: 0.614 ns/day, 39.071 hours/ns, 7.110 timesteps/s
98.8% CPU use with 1 MPI tasks x no OpenMP threads

MPI task timing breakdown:
Section |  min time  |  avg time  |  max time  |%varavg| %total
---------------------------------------------------------------
Pair    | 330.23     | 330.23     | 330.23     |   0.0 | 52.11
Neigh   | 289.77     | 289.77     | 289.77     |   0.0 | 45.73
Comm    | 4.9597     | 4.9597     | 4.9597     |   0.0 |  0.78
Output  | 0.07926    | 0.07926    | 0.07926    |   0.0 |  0.01
Modify  | 6.8413     | 6.8413     | 6.8413     |   0.0 |  1.08
Other   |            | 1.784      |            |       |  0.28

Nlocal:    19652 ave 19652 max 19652 min
Histogram: 1 0 0 0 0 0 0 0 0 0
Nghost:    16391 ave 16391 max 16391 min
Histogram: 1 0 0 0 0 0 0 0 0 0
Neighs:    1.13663e+06 ave 1.13663e+06 max 1.13663e+06 min
Histogram: 1 0 0 0 0 0 0 0 0 0

Total # of neighbors = 1136632
Ave neighs/atom = 57.838
Neighbor list builds = 4505
Dangerous builds not checked
Setting up Verlet run ...
  Unit style    : metal
  Current step  : 75000
  Time step     : 0.001
Per MPI rank memory allocation (min/avg/max) = 18.2 | 18.2 | 18.2 Mbytes
Step Temp Press TotEng PotEng Enthalpy 
   75000     2087.748    554.75094   -42065.696   -47368.766   -41915.029 
   75495     2067.897   -160.30173   -42293.454     -47546.1   -42336.793 
Loop time of 68.9619 on 1 procs for 495 steps with 19652 atoms

Performance: 0.620 ns/day, 38.699 hours/ns, 7.178 timesteps/s
99.2% CPU use with 1 MPI tasks x no OpenMP threads

MPI task timing breakdown:
Section |  min time  |  avg time  |  max time  |%varavg| %total
---------------------------------------------------------------
Pair    | 36.257     | 36.257     | 36.257     |   0.0 | 52.58
Neigh   | 31.174     | 31.174     | 31.174     |   0.0 | 45.20
Comm    | 0.55952    | 0.55952    | 0.55952    |   0.0 |  0.81
Output  | 0.00017595 | 0.00017595 | 0.00017595 |   0.0 |  0.00
Modify  | 0.76639    | 0.76639    | 0.76639    |   0.0 |  1.11
Other   |            | 0.2045     |            |       |  0.30

Nlocal:    19652 ave 19652 max 19652 min
Histogram: 1 0 0 0 0 0 0 0 0 0
Nghost:    16441 ave 16441 max 16441 min
Histogram: 1 0 0 0 0 0 0 0 0 0
Neighs:    1.14236e+06 ave 1.14236e+06 max 1.14236e+06 min
Histogram: 1 0 0 0 0 0 0 0 0 0

Total # of neighbors = 1142355
Ave neighs/atom = 58.1292
Neighbor list builds = 495
Dangerous builds not checked
Setting up Verlet run ...
  Unit style    : metal
  Current step  : 75495
  Time step     : 0.001
Per MPI rank memory allocation (min/avg/max) = 18.2 | 18.2 | 18.2 Mbytes
Step Temp Press TotEng PotEng Enthalpy 
   75495     2067.897   -160.30173   -42293.454     -47546.1   -42336.793 
   80000    2048.4962   -281.52789   -42354.929   -47558.296    -42430.91 
Loop time of 624.213 on 1 procs for 4505 steps with 19652 atoms

Performance: 0.624 ns/day, 38.489 hours/ns, 7.217 timesteps/s
99.1% CPU use with 1 MPI tasks x no OpenMP threads

MPI task timing breakdown:
Section |  min time  |  avg time  |  max time  |%varavg| %total
---------------------------------------------------------------
Pair    | 327.06     | 327.06     | 327.06     |   0.0 | 52.40
Neigh   | 283.7      | 283.7      | 283.7      |   0.0 | 45.45
Comm    | 4.926      | 4.926      | 4.926      |   0.0 |  0.79
Output  | 0.085053   | 0.085053   | 0.085053   |   0.0 |  0.01
Modify  | 6.5972     | 6.5972     | 6.5972     |   0.0 |  1.06
Other   |            | 1.85       |            |       |  0.30

Nlocal:    19652 ave 19652 max 19652 min
Histogram: 1 0 0 0 0 0 0 0 0 0
Nghost:    16322 ave 16322 max 16322 min
Histogram: 1 0 0 0 0 0 0 0 0 0
Neighs:    1.14382e+06 ave 1.14382e+06 max 1.14382e+06 min
Histogram: 1 0 0 0 0 0 0 0 0 0

Total # of neighbors = 1143816
Ave neighs/atom = 58.2035
Neighbor list builds = 4505
Dangerous builds not checked
Setting up Verlet run ...
  Unit style    : metal
  Current step  : 80000
  Time step     : 0.001
Per MPI rank memory allocation (min/avg/max) = 18.2 | 18.2 | 18.2 Mbytes
Step Temp Press TotEng PotEng Enthalpy 
   80000    2048.4962   -281.52789   -42354.929   -47558.296    -42430.91 
   80495    2003.9782    58.500128   -42586.428   -47676.715   -42570.719 
Loop time of 70.7335 on 1 procs for 495 steps with 19652 atoms

Performance: 0.605 ns/day, 39.693 hours/ns, 6.998 timesteps/s
97.5% CPU use with 1 MPI tasks x no OpenMP threads

MPI task timing breakdown:
Section |  min time  |  avg time  |  max time  |%varavg| %total
---------------------------------------------------------------
Pair    | 37.108     | 37.108     | 37.108     |   0.0 | 52.46
Neigh   | 32.084     | 32.084     | 32.084     |   0.0 | 45.36
Comm    | 0.55878    | 0.55878    | 0.55878    |   0.0 |  0.79
Output  | 0.00017405 | 0.00017405 | 0.00017405 |   0.0 |  0.00
Modify  | 0.77833    | 0.77833    | 0.77833    |   0.0 |  1.10
Other   |            | 0.2042     |            |       |  0.29

Nlocal:    19652 ave 19652 max 19652 min
Histogram: 1 0 0 0 0 0 0 0 0 0
Nghost:    16403 ave 16403 max 16403 min
Histogram: 1 0 0 0 0 0 0 0 0 0
Neighs:    1.14987e+06 ave 1.14987e+06 max 1.14987e+06 min
Histogram: 1 0 0 0 0 0 0 0 0 0

Total # of neighbors = 1149871
Ave neighs/atom = 58.5117
Neighbor list builds = 495
Dangerous builds not checked
Setting up Verlet run ...
  Unit style    : metal
  Current step  : 80495
  Time step     : 0.001
Per MPI rank memory allocation (min/avg/max) = 18.2 | 18.2 | 18.2 Mbytes
Step Temp Press TotEng PotEng Enthalpy 
   80495    2003.9782    58.500128   -42586.428   -47676.715   -42570.719 
   85000     1985.341   -289.70252    -42684.41   -47727.357   -42762.179 
Loop time of 636.437 on 1 procs for 4505 steps with 19652 atoms

Performance: 0.612 ns/day, 39.243 hours/ns, 7.078 timesteps/s
98.1% CPU use with 1 MPI tasks x no OpenMP threads

MPI task timing breakdown:
Section |  min time  |  avg time  |  max time  |%varavg| %total
---------------------------------------------------------------
Pair    | 330.71     | 330.71     | 330.71     |   0.0 | 51.96
Neigh   | 291.97     | 291.97     | 291.97     |   0.0 | 45.88
Comm    | 4.9586     | 4.9586     | 4.9586     |   0.0 |  0.78
Output  | 0.097299   | 0.097299   | 0.097299   |   0.0 |  0.02
Modify  | 6.896      | 6.896      | 6.896      |   0.0 |  1.08
Other   |            | 1.814      |            |       |  0.28

Nlocal:    19652 ave 19652 max 19652 min
Histogram: 1 0 0 0 0 0 0 0 0 0
Nghost:    16440 ave 16440 max 16440 min
Histogram: 1 0 0 0 0 0 0 0 0 0
Neighs:    1.15029e+06 ave 1.15029e+06 max 1.15029e+06 min
Histogram: 1 0 0 0 0 0 0 0 0 0

Total # of neighbors = 1150291
Ave neighs/atom = 58.533
Neighbor list builds = 4505
Dangerous builds not checked
Setting up Verlet run ...
  Unit style    : metal
  Current step  : 85000
  Time step     : 0.001
Per MPI rank memory allocation (min/avg/max) = 18.2 | 18.2 | 18.2 Mbytes
Step Temp Press TotEng PotEng Enthalpy 
   85000     1985.341   -289.70252    -42684.41   -47727.357   -42762.179 
   85495    1951.9799   -335.40603   -42914.135   -47872.342   -43003.602 
Loop time of 65.9231 on 1 procs for 495 steps with 19652 atoms

Performance: 0.649 ns/day, 36.994 hours/ns, 7.509 timesteps/s
98.6% CPU use with 1 MPI tasks x no OpenMP threads

MPI task timing breakdown:
Section |  min time  |  avg time  |  max time  |%varavg| %total
---------------------------------------------------------------
Pair    | 34.321     | 34.321     | 34.321     |   0.0 | 52.06
Neigh   | 30.161     | 30.161     | 30.161     |   0.0 | 45.75
Comm    | 0.52569    | 0.52569    | 0.52569    |   0.0 |  0.80
Output  | 0.00013614 | 0.00013614 | 0.00013614 |   0.0 |  0.00
Modify  | 0.71786    | 0.71786    | 0.71786    |   0.0 |  1.09
Other   |            | 0.1975     |            |       |  0.30

Nlocal:    19652 ave 19652 max 19652 min
Histogram: 1 0 0 0 0 0 0 0 0 0
Nghost:    16567 ave 16567 max 16567 min
Histogram: 1 0 0 0 0 0 0 0 0 0
Neighs:    1.15776e+06 ave 1.15776e+06 max 1.15776e+06 min
Histogram: 1 0 0 0 0 0 0 0 0 0

Total # of neighbors = 1157761
Ave neighs/atom = 58.9131
Neighbor list builds = 495
Dangerous builds not checked
Setting up Verlet run ...
  Unit style    : metal
  Current step  : 85495
  Time step     : 0.001
Per MPI rank memory allocation (min/avg/max) = 18.2 | 18.2 | 18.2 Mbytes
Step Temp Press TotEng PotEng Enthalpy 
   85495    1951.9799   -335.40603   -42914.135   -47872.342   -43003.602 
   90000    1948.8421   -709.16401   -42996.221   -47946.458   -43185.089 
Loop time of 628.204 on 1 procs for 4505 steps with 19652 atoms

Performance: 0.620 ns/day, 38.735 hours/ns, 7.171 timesteps/s
98.8% CPU use with 1 MPI tasks x no OpenMP threads

MPI task timing breakdown:
Section |  min time  |  avg time  |  max time  |%varavg| %total
---------------------------------------------------------------
Pair    | 328.91     | 328.91     | 328.91     |   0.0 | 52.36
Neigh   | 285.81     | 285.81     | 285.81     |   0.0 | 45.50
Comm    | 4.8748     | 4.8748     | 4.8748     |   0.0 |  0.78
Output  | 0.075923   | 0.075923   | 0.075923   |   0.0 |  0.01
Modify  | 6.7819     | 6.7819     | 6.7819     |   0.0 |  1.08
Other   |            | 1.757      |            |       |  0.28

Nlocal:    19652 ave 19652 max 19652 min
Histogram: 1 0 0 0 0 0 0 0 0 0
Nghost:    16505 ave 16505 max 16505 min
Histogram: 1 0 0 0 0 0 0 0 0 0
Neighs:    1.15991e+06 ave 1.15991e+06 max 1.15991e+06 min
Histogram: 1 0 0 0 0 0 0 0 0 0

Total # of neighbors = 1159907
Ave neighs/atom = 59.0223
Neighbor list builds = 4505
Dangerous builds not checked
Setting up Verlet run ...
  Unit style    : metal
  Current step  : 90000
  Time step     : 0.001
Per MPI rank memory allocation (min/avg/max) = 18.2 | 18.2 | 18.2 Mbytes
Step Temp Press TotEng PotEng Enthalpy 
   90000    1948.8421   -709.16401   -42996.221   -47946.458   -43185.089 
   90495    1920.4396    292.06036   -43216.929    -48095.02   -43139.656 
Loop time of 69.7069 on 1 procs for 495 steps with 19652 atoms

Performance: 0.614 ns/day, 39.117 hours/ns, 7.101 timesteps/s
99.2% CPU use with 1 MPI tasks x no OpenMP threads

MPI task timing breakdown:
Section |  min time  |  avg time  |  max time  |%varavg| %total
---------------------------------------------------------------
Pair    | 36.743     | 36.743     | 36.743     |   0.0 | 52.71
Neigh   | 31.468     | 31.468     | 31.468     |   0.0 | 45.14
Comm    | 0.53535    | 0.53535    | 0.53535    |   0.0 |  0.77
Output  | 0.00017595 | 0.00017595 | 0.00017595 |   0.0 |  0.00
Modify  | 0.75811    | 0.75811    | 0.75811    |   0.0 |  1.09
Other   |            | 0.2023     |            |       |  0.29

Nlocal:    19652 ave 19652 max 19652 min
Histogram: 1 0 0 0 0 0 0 0 0 0
Nghost:    16491 ave 16491 max 16491 min
Histogram: 1 0 0 0 0 0 0 0 0 0
Neighs:    1.16735e+06 ave 1.16735e+06 max 1.16735e+06 min
Histogram: 1 0 0 0 0 0 0 0 0 0

Total # of neighbors = 1167354
Ave neighs/atom = 59.4013
Neighbor list builds = 495
Dangerous builds not checked
Setting up Verlet run ...
  Unit style    : metal
  Current step  : 90495
  Time step     : 0.001
Per MPI rank memory allocation (min/avg/max) = 18.2 | 18.2 | 18.2 Mbytes
Step Temp Press TotEng PotEng Enthalpy 
   90495    1920.4396    292.06036   -43216.929    -48095.02   -43139.656 
   95000    1893.8735    633.02792   -43401.675   -48212.286   -43235.168 
Loop time of 647.774 on 1 procs for 4505 steps with 19652 atoms

Performance: 0.601 ns/day, 39.942 hours/ns, 6.955 timesteps/s
97.8% CPU use with 1 MPI tasks x no OpenMP threads

MPI task timing breakdown:
Section |  min time  |  avg time  |  max time  |%varavg| %total
---------------------------------------------------------------
Pair    | 340.54     | 340.54     | 340.54     |   0.0 | 52.57
Neigh   | 293.42     | 293.42     | 293.42     |   0.0 | 45.30
Comm    | 4.9777     | 4.9777     | 4.9777     |   0.0 |  0.77
Output  | 0.089198   | 0.089198   | 0.089198   |   0.0 |  0.01
Modify  | 6.9094     | 6.9094     | 6.9094     |   0.0 |  1.07
Other   |            | 1.828      |            |       |  0.28

Nlocal:    19652 ave 19652 max 19652 min
Histogram: 1 0 0 0 0 0 0 0 0 0
Nghost:    16627 ave 16627 max 16627 min
Histogram: 1 0 0 0 0 0 0 0 0 0
Neighs:    1.17423e+06 ave 1.17423e+06 max 1.17423e+06 min
Histogram: 1 0 0 0 0 0 0 0 0 0

Total # of neighbors = 1174231
Ave neighs/atom = 59.7512
Neighbor list builds = 4505
Dangerous builds not checked
Setting up Verlet run ...
  Unit style    : metal
  Current step  : 95000
  Time step     : 0.001
Per MPI rank memory allocation (min/avg/max) = 18.2 | 18.2 | 18.2 Mbytes
Step Temp Press TotEng PotEng Enthalpy 
   95000    1893.8735    633.02792   -43401.675   -48212.286   -43235.168 
   95495    1858.9372    689.88304   -43505.659   -48227.528    -43324.14 
Loop time of 66.8037 on 1 procs for 495 steps with 19652 atoms

Performance: 0.640 ns/day, 37.488 hours/ns, 7.410 timesteps/s
98.3% CPU use with 1 MPI tasks x no OpenMP threads

MPI task timing breakdown:
Section |  min time  |  avg time  |  max time  |%varavg| %total
---------------------------------------------------------------
Pair    | 34.833     | 34.833     | 34.833     |   0.0 | 52.14
Neigh   | 30.529     | 30.529     | 30.529     |   0.0 | 45.70
Comm    | 0.51842    | 0.51842    | 0.51842    |   0.0 |  0.78
Output  | 0.00019622 | 0.00019622 | 0.00019622 |   0.0 |  0.00
Modify  | 0.72222    | 0.72222    | 0.72222    |   0.0 |  1.08
Other   |            | 0.2003     |            |       |  0.30

Nlocal:    19652 ave 19652 max 19652 min
Histogram: 1 0 0 0 0 0 0 0 0 0
Nghost:    16652 ave 16652 max 16652 min
Histogram: 1 0 0 0 0 0 0 0 0 0
Neighs:    1.17416e+06 ave 1.17416e+06 max 1.17416e+06 min
Histogram: 1 0 0 0 0 0 0 0 0 0

Total # of neighbors = 1174155
Ave neighs/atom = 59.7474
Neighbor list builds = 495
Dangerous builds not checked
Setting up Verlet run ...
  Unit style    : metal
  Current step  : 95495
  Time step     : 0.001
Per MPI rank memory allocation (min/avg/max) = 18.2 | 18.2 | 18.2 Mbytes
Step Temp Press TotEng PotEng Enthalpy 
   95495    1858.9372    689.88304   -43505.659   -48227.528    -43324.14 
  100000    1856.8096    499.40872   -43640.958   -48357.424   -43510.239 
Loop time of 630.749 on 1 procs for 4505 steps with 19652 atoms

Performance: 0.617 ns/day, 38.892 hours/ns, 7.142 timesteps/s
98.8% CPU use with 1 MPI tasks x no OpenMP threads

MPI task timing breakdown:
Section |  min time  |  avg time  |  max time  |%varavg| %total
---------------------------------------------------------------
Pair    | 328.64     | 328.64     | 328.64     |   0.0 | 52.10
Neigh   | 288.19     | 288.19     | 288.19     |   0.0 | 45.69
Comm    | 4.839      | 4.839      | 4.839      |   0.0 |  0.77
Output  | 0.48813    | 0.48813    | 0.48813    |   0.0 |  0.08
Modify  | 6.8049     | 6.8049     | 6.8049     |   0.0 |  1.08
Other   |            | 1.785      |            |       |  0.28

Nlocal:    19652 ave 19652 max 19652 min
Histogram: 1 0 0 0 0 0 0 0 0 0
Nghost:    16623 ave 16623 max 16623 min
Histogram: 1 0 0 0 0 0 0 0 0 0
Neighs:    1.18031e+06 ave 1.18031e+06 max 1.18031e+06 min
Histogram: 1 0 0 0 0 0 0 0 0 0

Total # of neighbors = 1180314
Ave neighs/atom = 60.0608
Neighbor list builds = 4505
Dangerous builds not checked
Setting up Verlet run ...
  Unit style    : metal
  Current step  : 100000
  Time step     : 0.001
Per MPI rank memory allocation (min/avg/max) = 18.2 | 18.2 | 18.2 Mbytes
Step Temp Press TotEng PotEng Enthalpy 
  100000    1856.8096    499.40872   -43640.958   -48357.424   -43510.239 
  100495    1821.4507    471.14411   -43828.272   -48454.922   -43705.345 
Loop time of 65.2122 on 1 procs for 495 steps with 19652 atoms

Performance: 0.656 ns/day, 36.595 hours/ns, 7.591 timesteps/s
99.7% CPU use with 1 MPI tasks x no OpenMP threads

MPI task timing breakdown:
Section |  min time  |  avg time  |  max time  |%varavg| %total
---------------------------------------------------------------
Pair    | 34.049     | 34.049     | 34.049     |   0.0 | 52.21
Neigh   | 29.757     | 29.757     | 29.757     |   0.0 | 45.63
Comm    | 0.50915    | 0.50915    | 0.50915    |   0.0 |  0.78
Output  | 0.00013995 | 0.00013995 | 0.00013995 |   0.0 |  0.00
Modify  | 0.70467    | 0.70467    | 0.70467    |   0.0 |  1.08
Other   |            | 0.1921     |            |       |  0.29

Nlocal:    19652 ave 19652 max 19652 min
Histogram: 1 0 0 0 0 0 0 0 0 0
Nghost:    16665 ave 16665 max 16665 min
Histogram: 1 0 0 0 0 0 0 0 0 0
Neighs:    1.18464e+06 ave 1.18464e+06 max 1.18464e+06 min
Histogram: 1 0 0 0 0 0 0 0 0 0

Total # of neighbors = 1184637
Ave neighs/atom = 60.2807
Neighbor list builds = 495
Dangerous builds not checked
Setting up Verlet run ...
  Unit style    : metal
  Current step  : 100495
  Time step     : 0.001
Per MPI rank memory allocation (min/avg/max) = 18.2 | 18.2 | 18.2 Mbytes
Step Temp Press TotEng PotEng Enthalpy 
  100495    1821.4507    471.14411   -43828.272   -48454.922   -43705.345 
  105000    1814.8576   -566.76547   -43922.246   -48532.149   -44069.965 
Loop time of 632.864 on 1 procs for 4505 steps with 19652 atoms

Performance: 0.615 ns/day, 39.022 hours/ns, 7.118 timesteps/s
98.5% CPU use with 1 MPI tasks x no OpenMP threads

MPI task timing breakdown:
Section |  min time  |  avg time  |  max time  |%varavg| %total
---------------------------------------------------------------
Pair    | 329.53     | 329.53     | 329.53     |   0.0 | 52.07
Neigh   | 287.99     | 287.99     | 287.99     |   0.0 | 45.51
Comm    | 4.8919     | 4.8919     | 4.8919     |   0.0 |  0.77
Output  | 1.8165     | 1.8165     | 1.8165     |   0.0 |  0.29
Modify  | 6.815      | 6.815      | 6.815      |   0.0 |  1.08
Other   |            | 1.82       |            |       |  0.29

Nlocal:    19652 ave 19652 max 19652 min
Histogram: 1 0 0 0 0 0 0 0 0 0
Nghost:    16732 ave 16732 max 16732 min
Histogram: 1 0 0 0 0 0 0 0 0 0
Neighs:    1.18587e+06 ave 1.18587e+06 max 1.18587e+06 min
Histogram: 1 0 0 0 0 0 0 0 0 0

Total # of neighbors = 1185874
Ave neighs/atom = 60.3437
Neighbor list builds = 4505
Dangerous builds not checked
Setting up Verlet run ...
  Unit style    : metal
  Current step  : 105000
  Time step     : 0.001
Per MPI rank memory allocation (min/avg/max) = 18.2 | 18.2 | 18.2 Mbytes
Step Temp Press TotEng PotEng Enthalpy 
  105000    1814.8576   -566.76547   -43922.246   -48532.149   -44069.965 
  105495    1761.9927    429.14546   -44153.043   -48628.665   -44041.749 
Loop time of 68.3396 on 1 procs for 495 steps with 19652 atoms

Performance: 0.626 ns/day, 38.350 hours/ns, 7.243 timesteps/s
98.8% CPU use with 1 MPI tasks x no OpenMP threads

MPI task timing breakdown:
Section |  min time  |  avg time  |  max time  |%varavg| %total
---------------------------------------------------------------
Pair    | 35.728     | 35.728     | 35.728     |   0.0 | 52.28
Neigh   | 31.157     | 31.157     | 31.157     |   0.0 | 45.59
Comm    | 0.51618    | 0.51618    | 0.51618    |   0.0 |  0.76
Output  | 0.00017095 | 0.00017095 | 0.00017095 |   0.0 |  0.00
Modify  | 0.74452    | 0.74452    | 0.74452    |   0.0 |  1.09
Other   |            | 0.1939     |            |       |  0.28

Nlocal:    19652 ave 19652 max 19652 min
Histogram: 1 0 0 0 0 0 0 0 0 0
Nghost:    16730 ave 16730 max 16730 min
Histogram: 1 0 0 0 0 0 0 0 0 0
Neighs:    1.19168e+06 ave 1.19168e+06 max 1.19168e+06 min
Histogram: 1 0 0 0 0 0 0 0 0 0

Total # of neighbors = 1191675
Ave neighs/atom = 60.6389
Neighbor list builds = 495
Dangerous builds not checked
Setting up Verlet run ...
  Unit style    : metal
  Current step  : 105495
  Time step     : 0.001
Per MPI rank memory allocation (min/avg/max) = 18.2 | 18.2 | 18.2 Mbytes
Step Temp Press TotEng PotEng Enthalpy 
  105495    1761.9927    429.14546   -44153.043   -48628.665   -44041.749 
  110000     1747.449    25.655243   -44280.599   -48719.278   -44273.969 
Loop time of 627.837 on 1 procs for 4505 steps with 19652 atoms

Performance: 0.620 ns/day, 38.712 hours/ns, 7.175 timesteps/s
98.9% CPU use with 1 MPI tasks x no OpenMP threads

MPI task timing breakdown:
Section |  min time  |  avg time  |  max time  |%varavg| %total
---------------------------------------------------------------
Pair    | 330.29     | 330.29     | 330.29     |   0.0 | 52.61
Neigh   | 284.09     | 284.09     | 284.09     |   0.0 | 45.25
Comm    | 4.8637     | 4.8637     | 4.8637     |   0.0 |  0.77
Output  | 0.088731   | 0.088731   | 0.088731   |   0.0 |  0.01
Modify  | 6.7247     | 6.7247     | 6.7247     |   0.0 |  1.07
Other   |            | 1.778      |            |       |  0.28

Nlocal:    19652 ave 19652 max 19652 min
Histogram: 1 0 0 0 0 0 0 0 0 0
Nghost:    16711 ave 16711 max 16711 min
Histogram: 1 0 0 0 0 0 0 0 0 0
Neighs:    1.19613e+06 ave 1.19613e+06 max 1.19613e+06 min
Histogram: 1 0 0 0 0 0 0 0 0 0

Total # of neighbors = 1196128
Ave neighs/atom = 60.8655
Neighbor list builds = 4505
Dangerous builds not checked
Setting up Verlet run ...
  Unit style    : metal
  Current step  : 110000
  Time step     : 0.001
Per MPI rank memory allocation (min/avg/max) = 18.2 | 18.2 | 18.2 Mbytes
Step Temp Press TotEng PotEng Enthalpy 
  110000     1747.449    25.655243   -44280.599   -48719.278   -44273.969 
  110495    1712.6216    419.29158   -44451.106   -48801.321   -44343.072 
Loop time of 71.8739 on 1 procs for 495 steps with 19652 atoms

Performance: 0.595 ns/day, 40.333 hours/ns, 6.887 timesteps/s
96.5% CPU use with 1 MPI tasks x no OpenMP threads

MPI task timing breakdown:
Section |  min time  |  avg time  |  max time  |%varavg| %total
---------------------------------------------------------------
Pair    | 37.702     | 37.702     | 37.702     |   0.0 | 52.46
Neigh   | 32.671     | 32.671     | 32.671     |   0.0 | 45.46
Comm    | 0.5256     | 0.5256     | 0.5256     |   0.0 |  0.73
Output  | 0.00015497 | 0.00015497 | 0.00015497 |   0.0 |  0.00
Modify  | 0.77377    | 0.77377    | 0.77377    |   0.0 |  1.08
Other   |            | 0.2012     |            |       |  0.28

Nlocal:    19652 ave 19652 max 19652 min
Histogram: 1 0 0 0 0 0 0 0 0 0
Nghost:    16752 ave 16752 max 16752 min
Histogram: 1 0 0 0 0 0 0 0 0 0
Neighs:    1.20016e+06 ave 1.20016e+06 max 1.20016e+06 min
Histogram: 1 0 0 0 0 0 0 0 0 0

Total # of neighbors = 1200159
Ave neighs/atom = 61.0706
Neighbor list builds = 495
Dangerous builds not checked
Setting up Verlet run ...
  Unit style    : metal
  Current step  : 110495
  Time step     : 0.001
Per MPI rank memory allocation (min/avg/max) = 18.2 | 18.2 | 18.2 Mbytes
Step Temp Press TotEng PotEng Enthalpy 
  110495    1712.6216    419.29158   -44451.106   -48801.321   -44343.072 
  115000    1696.1245    623.67219   -44582.963   -48891.274   -44422.742 
Loop time of 652.434 on 1 procs for 4505 steps with 19652 atoms

Performance: 0.597 ns/day, 40.229 hours/ns, 6.905 timesteps/s
98.0% CPU use with 1 MPI tasks x no OpenMP threads

MPI task timing breakdown:
Section |  min time  |  avg time  |  max time  |%varavg| %total
---------------------------------------------------------------
Pair    | 344.84     | 344.84     | 344.84     |   0.0 | 52.85
Neigh   | 293.7      | 293.7      | 293.7      |   0.0 | 45.02
Comm    | 5.0204     | 5.0204     | 5.0204     |   0.0 |  0.77
Output  | 0.079069   | 0.079069   | 0.079069   |   0.0 |  0.01
Modify  | 6.9705     | 6.9705     | 6.9705     |   0.0 |  1.07
Other   |            | 1.826      |            |       |  0.28

Nlocal:    19652 ave 19652 max 19652 min
Histogram: 1 0 0 0 0 0 0 0 0 0
Nghost:    16797 ave 16797 max 16797 min
Histogram: 1 0 0 0 0 0 0 0 0 0
Neighs:    1.20386e+06 ave 1.20386e+06 max 1.20386e+06 min
Histogram: 1 0 0 0 0 0 0 0 0 0

Total # of neighbors = 1203856
Ave neighs/atom = 61.2587
Neighbor list builds = 4505
Dangerous builds not checked
Setting up Verlet run ...
  Unit style    : metal
  Current step  : 115000
  Time step     : 0.001
Per MPI rank memory allocation (min/avg/max) = 18.2 | 18.2 | 18.2 Mbytes
Step Temp Press TotEng PotEng Enthalpy 
  115000    1696.1245    623.67219   -44582.963   -48891.274   -44422.742 
  115495    1671.0827    103.21846   -44715.747   -48960.449   -44689.283 
Loop time of 73.1476 on 1 procs for 495 steps with 19652 atoms

Performance: 0.585 ns/day, 41.048 hours/ns, 6.767 timesteps/s
97.0% CPU use with 1 MPI tasks x no OpenMP threads

MPI task timing breakdown:
Section |  min time  |  avg time  |  max time  |%varavg| %total
---------------------------------------------------------------
Pair    | 39.304     | 39.304     | 39.304     |   0.0 | 53.73
Neigh   | 32.281     | 32.281     | 32.281     |   0.0 | 44.13
Comm    | 0.56748    | 0.56748    | 0.56748    |   0.0 |  0.78
Output  | 0.00013995 | 0.00013995 | 0.00013995 |   0.0 |  0.00
Modify  | 0.7924     | 0.7924     | 0.7924     |   0.0 |  1.08
Other   |            | 0.2023     |            |       |  0.28

Nlocal:    19652 ave 19652 max 19652 min
Histogram: 1 0 0 0 0 0 0 0 0 0
Nghost:    16840 ave 16840 max 16840 min
Histogram: 1 0 0 0 0 0 0 0 0 0
Neighs:    1.20602e+06 ave 1.20602e+06 max 1.20602e+06 min
Histogram: 1 0 0 0 0 0 0 0 0 0

Total # of neighbors = 1206021
Ave neighs/atom = 61.3689
Neighbor list builds = 495
Dangerous builds not checked
Setting up Verlet run ...
  Unit style    : metal
  Current step  : 115495
  Time step     : 0.001
Per MPI rank memory allocation (min/avg/max) = 18.2 | 18.2 | 18.2 Mbytes
Step Temp Press TotEng PotEng Enthalpy 
  115495    1671.0827    103.21846   -44715.747   -48960.449   -44689.283 
  120000    1661.5059   -204.07992   -44844.785   -49065.162   -44896.943 
Loop time of 636.431 on 1 procs for 4505 steps with 19652 atoms

Performance: 0.612 ns/day, 39.242 hours/ns, 7.079 timesteps/s
98.9% CPU use with 1 MPI tasks x no OpenMP threads

MPI task timing breakdown:
Section |  min time  |  avg time  |  max time  |%varavg| %total
---------------------------------------------------------------
Pair    | 336.29     | 336.29     | 336.29     |   0.0 | 52.84
Neigh   | 286.59     | 286.59     | 286.59     |   0.0 | 45.03
Comm    | 4.9165     | 4.9165     | 4.9165     |   0.0 |  0.77
Output  | 0.083739   | 0.083739   | 0.083739   |   0.0 |  0.01
Modify  | 6.7314     | 6.7314     | 6.7314     |   0.0 |  1.06
Other   |            | 1.817      |            |       |  0.29

Nlocal:    19652 ave 19652 max 19652 min
Histogram: 1 0 0 0 0 0 0 0 0 0
Nghost:    16809 ave 16809 max 16809 min
Histogram: 1 0 0 0 0 0 0 0 0 0
Neighs:    1.21076e+06 ave 1.21076e+06 max 1.21076e+06 min
Histogram: 1 0 0 0 0 0 0 0 0 0

Total # of neighbors = 1210761
Ave neighs/atom = 61.6101
Neighbor list builds = 4505
Dangerous builds not checked
Setting up Verlet run ...
  Unit style    : metal
  Current step  : 120000
  Time step     : 0.001
Per MPI rank memory allocation (min/avg/max) = 18.2 | 18.2 | 18.2 Mbytes
Step Temp Press TotEng PotEng Enthalpy 
  120000    1661.5059   -204.07992   -44844.785   -49065.162   -44896.943 
  120495    1623.9448   -733.33612   -45035.206   -49160.173   -45222.162 
Loop time of 71.7431 on 1 procs for 495 steps with 19652 atoms

Performance: 0.596 ns/day, 40.260 hours/ns, 6.900 timesteps/s
99.4% CPU use with 1 MPI tasks x no OpenMP threads

MPI task timing breakdown:
Section |  min time  |  avg time  |  max time  |%varavg| %total
---------------------------------------------------------------
Pair    | 38.066     | 38.066     | 38.066     |   0.0 | 53.06
Neigh   | 32.126     | 32.126     | 32.126     |   0.0 | 44.78
Comm    | 0.56994    | 0.56994    | 0.56994    |   0.0 |  0.79
Output  | 0.00018597 | 0.00018597 | 0.00018597 |   0.0 |  0.00
Modify  | 0.77158    | 0.77158    | 0.77158    |   0.0 |  1.08
Other   |            | 0.2088     |            |       |  0.29

Nlocal:    19652 ave 19652 max 19652 min
Histogram: 1 0 0 0 0 0 0 0 0 0
Nghost:    16825 ave 16825 max 16825 min
Histogram: 1 0 0 0 0 0 0 0 0 0
Neighs:    1.21301e+06 ave 1.21301e+06 max 1.21301e+06 min
Histogram: 1 0 0 0 0 0 0 0 0 0

Total # of neighbors = 1213014
Ave neighs/atom = 61.7247
Neighbor list builds = 495
Dangerous builds not checked
Setting up Verlet run ...
  Unit style    : metal
  Current step  : 120495
  Time step     : 0.001
Per MPI rank memory allocation (min/avg/max) = 18.2 | 18.2 | 18.2 Mbytes
Step Temp Press TotEng PotEng Enthalpy 
  120495    1623.9448   -733.33612   -45035.206   -49160.173   -45222.162 
  125000    1599.7458   -531.39873   -45180.156   -49243.657   -45315.251 
Loop time of 655.077 on 1 procs for 4505 steps with 19652 atoms

Performance: 0.594 ns/day, 40.392 hours/ns, 6.877 timesteps/s
97.9% CPU use with 1 MPI tasks x no OpenMP threads

MPI task timing breakdown:
Section |  min time  |  avg time  |  max time  |%varavg| %total
---------------------------------------------------------------
Pair    | 346.99     | 346.99     | 346.99     |   0.0 | 52.97
Neigh   | 294.18     | 294.18     | 294.18     |   0.0 | 44.91
Comm    | 5.0296     | 5.0296     | 5.0296     |   0.0 |  0.77
Output  | 0.084008   | 0.084008   | 0.084008   |   0.0 |  0.01
Modify  | 6.9376     | 6.9376     | 6.9376     |   0.0 |  1.06
Other   |            | 1.857      |            |       |  0.28

Nlocal:    19652 ave 19652 max 19652 min
Histogram: 1 0 0 0 0 0 0 0 0 0
Nghost:    16786 ave 16786 max 16786 min
Histogram: 1 0 0 0 0 0 0 0 0 0
Neighs:    1.2171e+06 ave 1.2171e+06 max 1.2171e+06 min
Histogram: 1 0 0 0 0 0 0 0 0 0

Total # of neighbors = 1217102
Ave neighs/atom = 61.9327
Neighbor list builds = 4505
Dangerous builds not checked
Setting up Verlet run ...
  Unit style    : metal
  Current step  : 125000
  Time step     : 0.001
Per MPI rank memory allocation (min/avg/max) = 18.2 | 18.2 | 18.2 Mbytes
Step Temp Press TotEng PotEng Enthalpy 
  125000    1599.7458   -531.39873   -45180.156   -49243.657   -45315.251 
  125495    1570.4552   -59.299335   -45375.265   -49364.364   -45390.263 
Loop time of 67.9057 on 1 procs for 495 steps with 19652 atoms

Performance: 0.630 ns/day, 38.106 hours/ns, 7.290 timesteps/s
99.5% CPU use with 1 MPI tasks x no OpenMP threads

MPI task timing breakdown:
Section |  min time  |  avg time  |  max time  |%varavg| %total
---------------------------------------------------------------
Pair    | 35.394     | 35.394     | 35.394     |   0.0 | 52.12
Neigh   | 31.087     | 31.087     | 31.087     |   0.0 | 45.78
Comm    | 0.50338    | 0.50338    | 0.50338    |   0.0 |  0.74
Output  | 0.00015402 | 0.00015402 | 0.00015402 |   0.0 |  0.00
Modify  | 0.73511    | 0.73511    | 0.73511    |   0.0 |  1.08
Other   |            | 0.1853     |            |       |  0.27

Nlocal:    19652 ave 19652 max 19652 min
Histogram: 1 0 0 0 0 0 0 0 0 0
Nghost:    16896 ave 16896 max 16896 min
Histogram: 1 0 0 0 0 0 0 0 0 0
Neighs:    1.22341e+06 ave 1.22341e+06 max 1.22341e+06 min
Histogram: 1 0 0 0 0 0 0 0 0 0

Total # of neighbors = 1223414
Ave neighs/atom = 62.2539
Neighbor list builds = 495
Dangerous builds not checked
Setting up Verlet run ...
  Unit style    : metal
  Current step  : 125495
  Time step     : 0.001
Per MPI rank memory allocation (min/avg/max) = 18.2 | 18.2 | 18.2 Mbytes
Step Temp Press TotEng PotEng Enthalpy 
  125495    1570.4552   -59.299335   -45375.265   -49364.364   -45390.263 
  130000    1543.8158    358.68031   -45553.035   -49474.468    -45462.72 
Loop time of 658.359 on 1 procs for 4505 steps with 19652 atoms

Performance: 0.591 ns/day, 40.594 hours/ns, 6.843 timesteps/s
98.3% CPU use with 1 MPI tasks x no OpenMP threads

MPI task timing breakdown:
Section |  min time  |  avg time  |  max time  |%varavg| %total
---------------------------------------------------------------
Pair    | 351.09     | 351.09     | 351.09     |   0.0 | 53.33
Neigh   | 293.32     | 293.32     | 293.32     |   0.0 | 44.55
Comm    | 5.0221     | 5.0221     | 5.0221     |   0.0 |  0.76
Output  | 0.082892   | 0.082892   | 0.082892   |   0.0 |  0.01
Modify  | 6.9791     | 6.9791     | 6.9791     |   0.0 |  1.06
Other   |            | 1.861      |            |       |  0.28

Nlocal:    19652 ave 19652 max 19652 min
Histogram: 1 0 0 0 0 0 0 0 0 0
Nghost:    16918 ave 16918 max 16918 min
Histogram: 1 0 0 0 0 0 0 0 0 0
Neighs:    1.22894e+06 ave 1.22894e+06 max 1.22894e+06 min
Histogram: 1 0 0 0 0 0 0 0 0 0

Total # of neighbors = 1228936
Ave neighs/atom = 62.5349
Neighbor list builds = 4505
Dangerous builds not checked
Setting up Verlet run ...
  Unit style    : metal
  Current step  : 130000
  Time step     : 0.001
Per MPI rank memory allocation (min/avg/max) = 18.2 | 18.2 | 18.2 Mbytes
Step Temp Press TotEng PotEng Enthalpy 
  130000    1543.8158    358.68031   -45553.035   -49474.468    -45462.72 
  130495    1515.3627    223.65535   -45674.201   -49523.361   -45617.975 
Loop time of 67.8329 on 1 procs for 495 steps with 19652 atoms

Performance: 0.630 ns/day, 38.066 hours/ns, 7.297 timesteps/s
99.1% CPU use with 1 MPI tasks x no OpenMP threads

MPI task timing breakdown:
Section |  min time  |  avg time  |  max time  |%varavg| %total
---------------------------------------------------------------
Pair    | 35.8       | 35.8       | 35.8       |   0.0 | 52.78
Neigh   | 30.633     | 30.633     | 30.633     |   0.0 | 45.16
Comm    | 0.50765    | 0.50765    | 0.50765    |   0.0 |  0.75
Output  | 0.00013709 | 0.00013709 | 0.00013709 |   0.0 |  0.00
Modify  | 0.70648    | 0.70648    | 0.70648    |   0.0 |  1.04
Other   |            | 0.1863     |            |       |  0.27

Nlocal:    19652 ave 19652 max 19652 min
Histogram: 1 0 0 0 0 0 0 0 0 0
Nghost:    16981 ave 16981 max 16981 min
Histogram: 1 0 0 0 0 0 0 0 0 0
Neighs:    1.23143e+06 ave 1.23143e+06 max 1.23143e+06 min
Histogram: 1 0 0 0 0 0 0 0 0 0

Total # of neighbors = 1231430
Ave neighs/atom = 62.6618
Neighbor list builds = 495
Dangerous builds not checked
Setting up Verlet run ...
  Unit style    : metal
  Current step  : 130495
  Time step     : 0.001
Per MPI rank memory allocation (min/avg/max) = 18.2 | 18.2 | 18.2 Mbytes
Step Temp Press TotEng PotEng Enthalpy 
  130495    1515.3627    223.65535   -45674.201   -49523.361   -45617.975 
  135000    1505.2936   -22.529428   -45783.196   -49606.779   -45788.849 
Loop time of 637.726 on 1 procs for 4505 steps with 19652 atoms

Performance: 0.610 ns/day, 39.322 hours/ns, 7.064 timesteps/s
98.9% CPU use with 1 MPI tasks x no OpenMP threads

MPI task timing breakdown:
Section |  min time  |  avg time  |  max time  |%varavg| %total
---------------------------------------------------------------
Pair    | 342.26     | 342.26     | 342.26     |   0.0 | 53.67
Neigh   | 282.02     | 282.02     | 282.02     |   0.0 | 44.22
Comm    | 4.9023     | 4.9023     | 4.9023     |   0.0 |  0.77
Output  | 0.068118   | 0.068118   | 0.068118   |   0.0 |  0.01
Modify  | 6.6794     | 6.6794     | 6.6794     |   0.0 |  1.05
Other   |            | 1.799      |            |       |  0.28

Nlocal:    19652 ave 19652 max 19652 min
Histogram: 1 0 0 0 0 0 0 0 0 0
Nghost:    16917 ave 16917 max 16917 min
Histogram: 1 0 0 0 0 0 0 0 0 0
Neighs:    1.23334e+06 ave 1.23334e+06 max 1.23334e+06 min
Histogram: 1 0 0 0 0 0 0 0 0 0

Total # of neighbors = 1233337
Ave neighs/atom = 62.7589
Neighbor list builds = 4505
Dangerous builds not checked
Setting up Verlet run ...
  Unit style    : metal
  Current step  : 135000
  Time step     : 0.001
Per MPI rank memory allocation (min/avg/max) = 18.2 | 18.2 | 18.2 Mbytes
Step Temp Press TotEng PotEng Enthalpy 
  135000    1505.2936   -22.529428   -45783.196   -49606.779   -45788.849 
  135495    1462.2106    406.33529   -46019.147   -49733.295   -45917.715 
Loop time of 65.8784 on 1 procs for 495 steps with 19652 atoms

Performance: 0.649 ns/day, 36.969 hours/ns, 7.514 timesteps/s
99.0% CPU use with 1 MPI tasks x no OpenMP threads

MPI task timing breakdown:
Section |  min time  |  avg time  |  max time  |%varavg| %total
---------------------------------------------------------------
Pair    | 34.746     | 34.746     | 34.746     |   0.0 | 52.74
Neigh   | 29.755     | 29.755     | 29.755     |   0.0 | 45.17
Comm    | 0.49941    | 0.49941    | 0.49941    |   0.0 |  0.76
Output  | 0.00016999 | 0.00016999 | 0.00016999 |   0.0 |  0.00
Modify  | 0.68759    | 0.68759    | 0.68759    |   0.0 |  1.04
Other   |            | 0.1898     |            |       |  0.29

Nlocal:    19652 ave 19652 max 19652 min
Histogram: 1 0 0 0 0 0 0 0 0 0
Nghost:    16948 ave 16948 max 16948 min
Histogram: 1 0 0 0 0 0 0 0 0 0
Neighs:    1.24043e+06 ave 1.24043e+06 max 1.24043e+06 min
Histogram: 1 0 0 0 0 0 0 0 0 0

Total # of neighbors = 1240427
Ave neighs/atom = 63.1196
Neighbor list builds = 495
Dangerous builds not checked
Setting up Verlet run ...
  Unit style    : metal
  Current step  : 135495
  Time step     : 0.001
Per MPI rank memory allocation (min/avg/max) = 18.2 | 18.2 | 18.2 Mbytes
Step Temp Press TotEng PotEng Enthalpy 
  135495    1462.2106    406.33529   -46019.147   -49733.295   -45917.715 
  140000    1461.8737   -899.32744   -46111.228   -49824.521   -46335.465 
Loop time of 639.918 on 1 procs for 4505 steps with 19652 atoms

Performance: 0.608 ns/day, 39.457 hours/ns, 7.040 timesteps/s
98.5% CPU use with 1 MPI tasks x no OpenMP threads

MPI task timing breakdown:
Section |  min time  |  avg time  |  max time  |%varavg| %total
---------------------------------------------------------------
Pair    | 341.08     | 341.08     | 341.08     |   0.0 | 53.30
Neigh   | 285.4      | 285.4      | 285.4      |   0.0 | 44.60
Comm    | 4.8405     | 4.8405     | 4.8405     |   0.0 |  0.76
Output  | 0.10445    | 0.10445    | 0.10445    |   0.0 |  0.02
Modify  | 6.7055     | 6.7055     | 6.7055     |   0.0 |  1.05
Other   |            | 1.789      |            |       |  0.28

Nlocal:    19652 ave 19652 max 19652 min
Histogram: 1 0 0 0 0 0 0 0 0 0
Nghost:    16918 ave 16918 max 16918 min
Histogram: 1 0 0 0 0 0 0 0 0 0
Neighs:    1.24189e+06 ave 1.24189e+06 max 1.24189e+06 min
Histogram: 1 0 0 0 0 0 0 0 0 0

Total # of neighbors = 1241886
Ave neighs/atom = 63.1939
Neighbor list builds = 4505
Dangerous builds not checked
Setting up Verlet run ...
  Unit style    : metal
  Current step  : 140000
  Time step     : 0.001
Per MPI rank memory allocation (min/avg/max) = 18.2 | 18.2 | 18.2 Mbytes
Step Temp Press TotEng PotEng Enthalpy 
  140000    1461.8737   -899.32744   -46111.228   -49824.521   -46335.465 
  140495    1428.8187   -775.38024   -46335.656   -49964.986   -46527.998 
Loop time of 69.934 on 1 procs for 495 steps with 19652 atoms

Performance: 0.612 ns/day, 39.245 hours/ns, 7.078 timesteps/s
98.9% CPU use with 1 MPI tasks x no OpenMP threads

MPI task timing breakdown:
Section |  min time  |  avg time  |  max time  |%varavg| %total
---------------------------------------------------------------
Pair    | 37.163     | 37.163     | 37.163     |   0.0 | 53.14
Neigh   | 31.274     | 31.274     | 31.274     |   0.0 | 44.72
Comm    | 0.52916    | 0.52916    | 0.52916    |   0.0 |  0.76
Output  | 0.00019598 | 0.00019598 | 0.00019598 |   0.0 |  0.00
Modify  | 0.7577     | 0.7577     | 0.7577     |   0.0 |  1.08
Other   |            | 0.2093     |            |       |  0.30

Nlocal:    19652 ave 19652 max 19652 min
Histogram: 1 0 0 0 0 0 0 0 0 0
Nghost:    17017 ave 17017 max 17017 min
Histogram: 1 0 0 0 0 0 0 0 0 0
Neighs:    1.24869e+06 ave 1.24869e+06 max 1.24869e+06 min
Histogram: 1 0 0 0 0 0 0 0 0 0

Total # of neighbors = 1248693
Ave neighs/atom = 63.5403
Neighbor list builds = 495
Dangerous builds not checked
Setting up Verlet run ...
  Unit style    : metal
  Current step  : 140495
  Time step     : 0.001
Per MPI rank memory allocation (min/avg/max) = 18.2 | 18.2 | 18.2 Mbytes
Step Temp Press TotEng PotEng Enthalpy 
  140495    1428.8187   -775.38024   -46335.656   -49964.986   -46527.998 
  145000    1396.4118   -332.37962   -46405.227    -49952.24   -46487.668 
Loop time of 634.808 on 1 procs for 4505 steps with 19652 atoms

Performance: 0.613 ns/day, 39.142 hours/ns, 7.097 timesteps/s
98.2% CPU use with 1 MPI tasks x no OpenMP threads

MPI task timing breakdown:
Section |  min time  |  avg time  |  max time  |%varavg| %total
---------------------------------------------------------------
Pair    | 337.12     | 337.12     | 337.12     |   0.0 | 53.11
Neigh   | 284.37     | 284.37     | 284.37     |   0.0 | 44.80
Comm    | 4.815      | 4.815      | 4.815      |   0.0 |  0.76
Output  | 0.080425   | 0.080425   | 0.080425   |   0.0 |  0.01
Modify  | 6.6523     | 6.6523     | 6.6523     |   0.0 |  1.05
Other   |            | 1.767      |            |       |  0.28

Nlocal:    19652 ave 19652 max 19652 min
Histogram: 1 0 0 0 0 0 0 0 0 0
Nghost:    17051 ave 17051 max 17051 min
Histogram: 1 0 0 0 0 0 0 0 0 0
Neighs:    1.24922e+06 ave 1.24922e+06 max 1.24922e+06 min
Histogram: 1 0 0 0 0 0 0 0 0 0

Total # of neighbors = 1249223
Ave neighs/atom = 63.5672
Neighbor list builds = 4505
Dangerous builds not checked
Setting up Verlet run ...
  Unit style    : metal
  Current step  : 145000
  Time step     : 0.001
Per MPI rank memory allocation (min/avg/max) = 18.2 | 18.2 | 18.2 Mbytes
Step Temp Press TotEng PotEng Enthalpy 
  145000    1396.4118   -332.37962   -46405.227    -49952.24   -46487.668 
  145495    1365.7044    2.2455937   -46651.451   -50120.465   -46650.898 
Loop time of 69.8228 on 1 procs for 495 steps with 19652 atoms

Performance: 0.613 ns/day, 39.182 hours/ns, 7.089 timesteps/s
96.9% CPU use with 1 MPI tasks x no OpenMP threads

MPI task timing breakdown:
Section |  min time  |  avg time  |  max time  |%varavg| %total
---------------------------------------------------------------
Pair    | 37.09      | 37.09      | 37.09      |   0.0 | 53.12
Neigh   | 31.263     | 31.263     | 31.263     |   0.0 | 44.77
Comm    | 0.52665    | 0.52665    | 0.52665    |   0.0 |  0.75
Output  | 0.00011921 | 0.00011921 | 0.00011921 |   0.0 |  0.00
Modify  | 0.74342    | 0.74342    | 0.74342    |   0.0 |  1.06
Other   |            | 0.1997     |            |       |  0.29

Nlocal:    19652 ave 19652 max 19652 min
Histogram: 1 0 0 0 0 0 0 0 0 0
Nghost:    17072 ave 17072 max 17072 min
Histogram: 1 0 0 0 0 0 0 0 0 0
Neighs:    1.2569e+06 ave 1.2569e+06 max 1.2569e+06 min
Histogram: 1 0 0 0 0 0 0 0 0 0

Total # of neighbors = 1256895
Ave neighs/atom = 63.9576
Neighbor list builds = 495
Dangerous builds not checked
Setting up Verlet run ...
  Unit style    : metal
  Current step  : 145495
  Time step     : 0.001
Per MPI rank memory allocation (min/avg/max) = 18.2 | 18.2 | 18.2 Mbytes
Step Temp Press TotEng PotEng Enthalpy 
  145495    1365.7044    2.2455937   -46651.451   -50120.465   -46650.898 
  150000    1349.5552   -627.38733   -46774.828   -50202.821    -46929.18 
Loop time of 649.888 on 1 procs for 4505 steps with 19652 atoms

Performance: 0.599 ns/day, 40.072 hours/ns, 6.932 timesteps/s
98.3% CPU use with 1 MPI tasks x no OpenMP threads

MPI task timing breakdown:
Section |  min time  |  avg time  |  max time  |%varavg| %total
---------------------------------------------------------------
Pair    | 345.02     | 345.02     | 345.02     |   0.0 | 53.09
Neigh   | 290.06     | 290.06     | 290.06     |   0.0 | 44.63
Comm    | 4.8535     | 4.8535     | 4.8535     |   0.0 |  0.75
Output  | 1.2663     | 1.2663     | 1.2663     |   0.0 |  0.19
Modify  | 6.9008     | 6.9008     | 6.9008     |   0.0 |  1.06
Other   |            | 1.786      |            |       |  0.27

Nlocal:    19652 ave 19652 max 19652 min
Histogram: 1 0 0 0 0 0 0 0 0 0
Nghost:    17071 ave 17071 max 17071 min
Histogram: 1 0 0 0 0 0 0 0 0 0
Neighs:    1.25977e+06 ave 1.25977e+06 max 1.25977e+06 min
Histogram: 1 0 0 0 0 0 0 0 0 0

Total # of neighbors = 1259774
Ave neighs/atom = 64.1041
Neighbor list builds = 4505
Dangerous builds not checked
Setting up Verlet run ...
  Unit style    : metal
  Current step  : 150000
  Time step     : 0.001
Per MPI rank memory allocation (min/avg/max) = 18.2 | 18.2 | 18.2 Mbytes
Step Temp Press TotEng PotEng Enthalpy 
  150000    1349.5552   -627.38733   -46774.828   -50202.821    -46929.18 
  150495    1314.9595   -106.12156   -46974.632   -50314.748    -47000.62 
Loop time of 69.2317 on 1 procs for 495 steps with 19652 atoms

Performance: 0.618 ns/day, 38.851 hours/ns, 7.150 timesteps/s
99.2% CPU use with 1 MPI tasks x no OpenMP threads

MPI task timing breakdown:
Section |  min time  |  avg time  |  max time  |%varavg| %total
---------------------------------------------------------------
Pair    | 37.164     | 37.164     | 37.164     |   0.0 | 53.68
Neigh   | 30.587     | 30.587     | 30.587     |   0.0 | 44.18
Comm    | 0.53659    | 0.53659    | 0.53659    |   0.0 |  0.78
Output  | 0.0001359  | 0.0001359  | 0.0001359  |   0.0 |  0.00
Modify  | 0.7416     | 0.7416     | 0.7416     |   0.0 |  1.07
Other   |            | 0.2029     |            |       |  0.29

Nlocal:    19652 ave 19652 max 19652 min
Histogram: 1 0 0 0 0 0 0 0 0 0
Nghost:    17113 ave 17113 max 17113 min
Histogram: 1 0 0 0 0 0 0 0 0 0
Neighs:    1.26551e+06 ave 1.26551e+06 max 1.26551e+06 min
Histogram: 1 0 0 0 0 0 0 0 0 0

Total # of neighbors = 1265508
Ave neighs/atom = 64.3959
Neighbor list builds = 495
Dangerous builds not checked
Setting up Verlet run ...
  Unit style    : metal
  Current step  : 150495
  Time step     : 0.001
Per MPI rank memory allocation (min/avg/max) = 18.2 | 18.2 | 18.2 Mbytes
Step Temp Press TotEng PotEng Enthalpy 
  150495    1314.9595   -106.12156   -46974.632   -50314.748    -47000.62 
  155000    1304.7583    489.52661    -47074.81   -50389.014   -46955.289 
Loop time of 657.799 on 1 procs for 4505 steps with 19652 atoms

Performance: 0.592 ns/day, 40.560 hours/ns, 6.849 timesteps/s
97.9% CPU use with 1 MPI tasks x no OpenMP threads

MPI task timing breakdown:
Section |  min time  |  avg time  |  max time  |%varavg| %total
---------------------------------------------------------------
Pair    | 351.57     | 351.57     | 351.57     |   0.0 | 53.45
Neigh   | 292.43     | 292.43     | 292.43     |   0.0 | 44.46
Comm    | 4.9613     | 4.9613     | 4.9613     |   0.0 |  0.75
Output  | 0.083825   | 0.083825   | 0.083825   |   0.0 |  0.01
Modify  | 6.9256     | 6.9256     | 6.9256     |   0.0 |  1.05
Other   |            | 1.829      |            |       |  0.28

Nlocal:    19652 ave 19652 max 19652 min
Histogram: 1 0 0 0 0 0 0 0 0 0
Nghost:    17169 ave 17169 max 17169 min
Histogram: 1 0 0 0 0 0 0 0 0 0
Neighs:    1.26994e+06 ave 1.26994e+06 max 1.26994e+06 min
Histogram: 1 0 0 0 0 0 0 0 0 0

Total # of neighbors = 1269943
Ave neighs/atom = 64.6216
Neighbor list builds = 4505
Dangerous builds not checked
Setting up Verlet run ...
  Unit style    : metal
  Current step  : 155000
  Time step     : 0.001
Per MPI rank memory allocation (min/avg/max) = 18.2 | 18.2 | 18.2 Mbytes
Step Temp Press TotEng PotEng Enthalpy 
  155000    1304.7583    489.52661    -47074.81   -50389.014   -46955.289 
  155495    1260.8099    175.41248   -47280.218    -50482.79   -47237.508 
Loop time of 71.743 on 1 procs for 495 steps with 19652 atoms

Performance: 0.596 ns/day, 40.260 hours/ns, 6.900 timesteps/s
97.8% CPU use with 1 MPI tasks x no OpenMP threads

MPI task timing breakdown:
Section |  min time  |  avg time  |  max time  |%varavg| %total
---------------------------------------------------------------
Pair    | 38.547     | 38.547     | 38.547     |   0.0 | 53.73
Neigh   | 31.702     | 31.702     | 31.702     |   0.0 | 44.19
Comm    | 0.54558    | 0.54558    | 0.54558    |   0.0 |  0.76
Output  | 0.00012088 | 0.00012088 | 0.00012088 |   0.0 |  0.00
Modify  | 0.75716    | 0.75716    | 0.75716    |   0.0 |  1.06
Other   |            | 0.1916     |            |       |  0.27

Nlocal:    19652 ave 19652 max 19652 min
Histogram: 1 0 0 0 0 0 0 0 0 0
Nghost:    17119 ave 17119 max 17119 min
Histogram: 1 0 0 0 0 0 0 0 0 0
Neighs:    1.27277e+06 ave 1.27277e+06 max 1.27277e+06 min
Histogram: 1 0 0 0 0 0 0 0 0 0

Total # of neighbors = 1272766
Ave neighs/atom = 64.7652
Neighbor list builds = 495
Dangerous builds not checked
Setting up Verlet run ...
  Unit style    : metal
  Current step  : 155495
  Time step     : 0.001
Per MPI rank memory allocation (min/avg/max) = 18.2 | 18.2 | 18.2 Mbytes
Step Temp Press TotEng PotEng Enthalpy 
  155495    1260.8099    175.41248   -47280.218    -50482.79   -47237.508 
  160000    1261.8201    383.34731   -47398.235   -50603.373   -47305.273 
Loop time of 641.123 on 1 procs for 4505 steps with 19652 atoms

Performance: 0.607 ns/day, 39.532 hours/ns, 7.027 timesteps/s
98.4% CPU use with 1 MPI tasks x no OpenMP threads

MPI task timing breakdown:
Section |  min time  |  avg time  |  max time  |%varavg| %total
---------------------------------------------------------------
Pair    | 342.59     | 342.59     | 342.59     |   0.0 | 53.44
Neigh   | 285.24     | 285.24     | 285.24     |   0.0 | 44.49
Comm    | 4.7987     | 4.7987     | 4.7987     |   0.0 |  0.75
Output  | 0.082812   | 0.082812   | 0.082812   |   0.0 |  0.01
Modify  | 6.656      | 6.656      | 6.656      |   0.0 |  1.04
Other   |            | 1.757      |            |       |  0.27

Nlocal:    19652 ave 19652 max 19652 min
Histogram: 1 0 0 0 0 0 0 0 0 0
Nghost:    17195 ave 17195 max 17195 min
Histogram: 1 0 0 0 0 0 0 0 0 0
Neighs:    1.27871e+06 ave 1.27871e+06 max 1.27871e+06 min
Histogram: 1 0 0 0 0 0 0 0 0 0

Total # of neighbors = 1278706
Ave neighs/atom = 65.0675
Neighbor list builds = 4505
Dangerous builds not checked
Setting up Verlet run ...
  Unit style    : metal
  Current step  : 160000
  Time step     : 0.001
Per MPI rank memory allocation (min/avg/max) = 18.2 | 18.2 | 18.2 Mbytes
Step Temp Press TotEng PotEng Enthalpy 
  160000    1261.8201    383.34731   -47398.235   -50603.373   -47305.273 
  160495    1211.3171   -467.49365   -47574.621   -50651.477   -47687.913 
Loop time of 70.0108 on 1 procs for 495 steps with 19652 atoms

Performance: 0.611 ns/day, 39.288 hours/ns, 7.070 timesteps/s
97.9% CPU use with 1 MPI tasks x no OpenMP threads

MPI task timing breakdown:
Section |  min time  |  avg time  |  max time  |%varavg| %total
---------------------------------------------------------------
Pair    | 37.458     | 37.458     | 37.458     |   0.0 | 53.50
Neigh   | 31.103     | 31.103     | 31.103     |   0.0 | 44.43
Comm    | 0.52698    | 0.52698    | 0.52698    |   0.0 |  0.75
Output  | 0.00016189 | 0.00016189 | 0.00016189 |   0.0 |  0.00
Modify  | 0.72915    | 0.72915    | 0.72915    |   0.0 |  1.04
Other   |            | 0.1931     |            |       |  0.28

Nlocal:    19652 ave 19652 max 19652 min
Histogram: 1 0 0 0 0 0 0 0 0 0
Nghost:    17193 ave 17193 max 17193 min
Histogram: 1 0 0 0 0 0 0 0 0 0
Neighs:    1.2795e+06 ave 1.2795e+06 max 1.2795e+06 min
Histogram: 1 0 0 0 0 0 0 0 0 0

Total # of neighbors = 1279496
Ave neighs/atom = 65.1077
Neighbor list builds = 495
Dangerous builds not checked
Setting up Verlet run ...
  Unit style    : metal
  Current step  : 160495
  Time step     : 0.001
Per MPI rank memory allocation (min/avg/max) = 18.2 | 18.2 | 18.2 Mbytes
Step Temp Press TotEng PotEng Enthalpy 
  160495    1211.3171   -467.49365   -47574.621   -50651.477   -47687.913 
  165000     1194.849   -1672.8985   -47765.698   -50800.723   -48169.977 
Loop time of 634.587 on 1 procs for 4505 steps with 19652 atoms

Performance: 0.613 ns/day, 39.129 hours/ns, 7.099 timesteps/s
98.3% CPU use with 1 MPI tasks x no OpenMP threads

MPI task timing breakdown:
Section |  min time  |  avg time  |  max time  |%varavg| %total
---------------------------------------------------------------
Pair    | 338.85     | 338.85     | 338.85     |   0.0 | 53.40
Neigh   | 282.52     | 282.52     | 282.52     |   0.0 | 44.52
Comm    | 4.737      | 4.737      | 4.737      |   0.0 |  0.75
Output  | 0.084958   | 0.084958   | 0.084958   |   0.0 |  0.01
Modify  | 6.63       | 6.63       | 6.63       |   0.0 |  1.04
Other   |            | 1.766      |            |       |  0.28

Nlocal:    19652 ave 19652 max 19652 min
Histogram: 1 0 0 0 0 0 0 0 0 0
Nghost:    17205 ave 17205 max 17205 min
Histogram: 1 0 0 0 0 0 0 0 0 0
Neighs:    1.28396e+06 ave 1.28396e+06 max 1.28396e+06 min
Histogram: 1 0 0 0 0 0 0 0 0 0

Total # of neighbors = 1283957
Ave neighs/atom = 65.3347
Neighbor list builds = 4505
Dangerous builds not checked
Setting up Verlet run ...
  Unit style    : metal
  Current step  : 165000
  Time step     : 0.001
Per MPI rank memory allocation (min/avg/max) = 18.2 | 18.2 | 18.2 Mbytes
Step Temp Press TotEng PotEng Enthalpy 
  165000     1194.849   -1672.8985   -47765.698   -50800.723   -48169.977 
  165495     1163.751    248.38514   -47937.479   -50893.513   -47877.802 
Loop time of 71.9298 on 1 procs for 495 steps with 19652 atoms

Performance: 0.595 ns/day, 40.365 hours/ns, 6.882 timesteps/s
98.4% CPU use with 1 MPI tasks x no OpenMP threads

MPI task timing breakdown:
Section |  min time  |  avg time  |  max time  |%varavg| %total
---------------------------------------------------------------
Pair    | 38.821     | 38.821     | 38.821     |   0.0 | 53.97
Neigh   | 31.597     | 31.597     | 31.597     |   0.0 | 43.93
Comm    | 0.55024    | 0.55024    | 0.55024    |   0.0 |  0.76
Output  | 0.00015688 | 0.00015688 | 0.00015688 |   0.0 |  0.00
Modify  | 0.76816    | 0.76816    | 0.76816    |   0.0 |  1.07
Other   |            | 0.1938     |            |       |  0.27

Nlocal:    19652 ave 19652 max 19652 min
Histogram: 1 0 0 0 0 0 0 0 0 0
Nghost:    17242 ave 17242 max 17242 min
Histogram: 1 0 0 0 0 0 0 0 0 0
Neighs:    1.29107e+06 ave 1.29107e+06 max 1.29107e+06 min
Histogram: 1 0 0 0 0 0 0 0 0 0

Total # of neighbors = 1291067
Ave neighs/atom = 65.6965
Neighbor list builds = 495
Dangerous builds not checked
Setting up Verlet run ...
  Unit style    : metal
  Current step  : 165495
  Time step     : 0.001
Per MPI rank memory allocation (min/avg/max) = 18.2 | 18.2 | 18.2 Mbytes
Step Temp Press TotEng PotEng Enthalpy 
  165495     1163.751    248.38514   -47937.479   -50893.513   -47877.802 
  170000    1148.0401   -802.61433   -48050.187   -50966.314   -48242.935 
Loop time of 646.083 on 1 procs for 4505 steps with 19652 atoms

Performance: 0.602 ns/day, 39.837 hours/ns, 6.973 timesteps/s
98.2% CPU use with 1 MPI tasks x no OpenMP threads

MPI task timing breakdown:
[...]
Neighbor list builds = 4505
Dangerous builds not checked
Setting up Verlet run ...
  Unit style    : metal
  Current step  : 240000
  Time step     : 0.001
Per MPI rank memory allocation (min/avg/max) = 18.2 | 18.2 | 18.2 Mbytes
Step Temp Press TotEng PotEng Enthalpy 
  240000     452.8237    3.7776739   -52810.949   -53961.163    -52810.12 
  240495    422.05889    28.791818   -52967.633   -54039.701   -52961.328 
Loop time of 72.98 on 1 procs for 495 steps with 19652 atoms

Performance: 0.586 ns/day, 40.954 hours/ns, 6.783 timesteps/s
97.9% CPU use with 1 MPI tasks x no OpenMP threads

MPI task timing breakdown:
Section |  min time  |  avg time  |  max time  |%varavg| %total
---------------------------------------------------------------
Pair    | 38.871     | 38.871     | 38.871     |   0.0 | 53.26
Neigh   | 32.645     | 32.645     | 32.645     |   0.0 | 44.73
Comm    | 0.53385    | 0.53385    | 0.53385    |   0.0 |  0.73
Output  | 0.00018215 | 0.00018215 | 0.00018215 |   0.0 |  0.00
Modify  | 0.731      | 0.731      | 0.731      |   0.0 |  1.00
Other   |            | 0.1991     |            |       |  0.27

Nlocal:    19652 ave 19652 max 19652 min
Histogram: 1 0 0 0 0 0 0 0 0 0
Nghost:    17904 ave 17904 max 17904 min
Histogram: 1 0 0 0 0 0 0 0 0 0
Neighs:    1.42033e+06 ave 1.42033e+06 max 1.42033e+06 min
Histogram: 1 0 0 0 0 0 0 0 0 0

Total # of neighbors = 1420326
Ave neighs/atom = 72.2739
Neighbor list builds = 495
Dangerous builds not checked
Setting up Verlet run ...
  Unit style    : metal
  Current step  : 240495
  Time step     : 0.001
Per MPI rank memory allocation (min/avg/max) = 18.2 | 18.2 | 18.2 Mbytes
Step Temp Press TotEng PotEng Enthalpy 
  240495    422.05889    28.791818   -52967.633   -54039.701   -52961.328 
  245000    403.69605   -294.02609   -53105.728   -54131.153   -53169.967 
Loop time of 673.437 on 1 procs for 4505 steps with 19652 atoms

Performance: 0.578 ns/day, 41.524 hours/ns, 6.690 timesteps/s
98.7% CPU use with 1 MPI tasks x no OpenMP threads

MPI task timing breakdown:
Section |  min time  |  avg time  |  max time  |%varavg| %total
---------------------------------------------------------------
Pair    | 357.85     | 357.85     | 357.85     |   0.0 | 53.14
Neigh   | 301.18     | 301.18     | 301.18     |   0.0 | 44.72
Comm    | 4.832      | 4.832      | 4.832      |   0.0 |  0.72
Output  | 1.0827     | 1.0827     | 1.0827     |   0.0 |  0.16
Modify  | 6.7128     | 6.7128     | 6.7128     |   0.0 |  1.00
Other   |            | 1.776      |            |       |  0.26

Nlocal:    19652 ave 19652 max 19652 min
Histogram: 1 0 0 0 0 0 0 0 0 0
Nghost:    17941 ave 17941 max 17941 min
Histogram: 1 0 0 0 0 0 0 0 0 0
Neighs:    1.4239e+06 ave 1.4239e+06 max 1.4239e+06 min
Histogram: 1 0 0 0 0 0 0 0 0 0

Total # of neighbors = 1423901
Ave neighs/atom = 72.4558
Neighbor list builds = 4505
Dangerous builds not checked
Setting up Verlet run ...
  Unit style    : metal
  Current step  : 245000
  Time step     : 0.001
Per MPI rank memory allocation (min/avg/max) = 18.2 | 18.2 | 18.2 Mbytes
Step Temp Press TotEng PotEng Enthalpy 
  245000    403.69605   -294.02609   -53105.728   -54131.153   -53169.967 
  245495    372.70893    58.836338   -53265.407   -54212.122   -53252.587 
Loop time of 72.541 on 1 procs for 495 steps with 19652 atoms

Performance: 0.590 ns/day, 40.708 hours/ns, 6.824 timesteps/s
98.6% CPU use with 1 MPI tasks x no OpenMP threads

MPI task timing breakdown:
Section |  min time  |  avg time  |  max time  |%varavg| %total
---------------------------------------------------------------
Pair    | 38.462     | 38.462     | 38.462     |   0.0 | 53.02
Neigh   | 32.638     | 32.638     | 32.638     |   0.0 | 44.99
Comm    | 0.52646    | 0.52646    | 0.52646    |   0.0 |  0.73
Output  | 0.00017905 | 0.00017905 | 0.00017905 |   0.0 |  0.00
Modify  | 0.71479    | 0.71479    | 0.71479    |   0.0 |  0.99
Other   |            | 0.1992     |            |       |  0.27

Nlocal:    19652 ave 19652 max 19652 min
Histogram: 1 0 0 0 0 0 0 0 0 0
Nghost:    17943 ave 17943 max 17943 min
Histogram: 1 0 0 0 0 0 0 0 0 0
Neighs:    1.42766e+06 ave 1.42766e+06 max 1.42766e+06 min
Histogram: 1 0 0 0 0 0 0 0 0 0

Total # of neighbors = 1427664
Ave neighs/atom = 72.6473
Neighbor list builds = 495
Dangerous builds not checked
Setting up Verlet run ...
  Unit style    : metal
  Current step  : 245495
  Time step     : 0.001
Per MPI rank memory allocation (min/avg/max) = 18.2 | 18.2 | 18.2 Mbytes
Step Temp Press TotEng PotEng Enthalpy 
  245495    372.70893    58.836338   -53265.407   -54212.122   -53252.587 
  250000    355.38083   -896.99102   -53391.597   -54294.297   -53586.814 
Loop time of 629.169 on 1 procs for 4505 steps with 19652 atoms

Performance: 0.619 ns/day, 38.794 hours/ns, 7.160 timesteps/s
99.2% CPU use with 1 MPI tasks x no OpenMP threads

MPI task timing breakdown:
Section |  min time  |  avg time  |  max time  |%varavg| %total
---------------------------------------------------------------
Pair    | 333.14     | 333.14     | 333.14     |   0.0 | 52.95
Neigh   | 283        | 283        | 283        |   0.0 | 44.98
Comm    | 4.5521     | 4.5521     | 4.5521     |   0.0 |  0.72
Output  | 0.50957    | 0.50957    | 0.50957    |   0.0 |  0.08
Modify  | 6.2571     | 6.2571     | 6.2571     |   0.0 |  0.99
Other   |            | 1.705      |            |       |  0.27

Nlocal:    19652 ave 19652 max 19652 min
Histogram: 1 0 0 0 0 0 0 0 0 0
Nghost:    18008 ave 18008 max 18008 min
Histogram: 1 0 0 0 0 0 0 0 0 0
Neighs:    1.42928e+06 ave 1.42928e+06 max 1.42928e+06 min
Histogram: 1 0 0 0 0 0 0 0 0 0

Total # of neighbors = 1429281
Ave neighs/atom = 72.7295
Neighbor list builds = 4505
Dangerous builds not checked
Setting up Verlet run ...
  Unit style    : metal
  Current step  : 250000
  Time step     : 0.001
Per MPI rank memory allocation (min/avg/max) = 18.2 | 18.2 | 18.2 Mbytes
Step Temp Press TotEng PotEng Enthalpy 
  250000    355.38083   -896.99102   -53391.597   -54294.297   -53586.814 
  250495    319.90939    725.02754   -53546.625   -54359.224    -53389.39 
Loop time of 66.6048 on 1 procs for 495 steps with 19652 atoms

Performance: 0.642 ns/day, 37.376 hours/ns, 7.432 timesteps/s
99.9% CPU use with 1 MPI tasks x no OpenMP threads

MPI task timing breakdown:
Section |  min time  |  avg time  |  max time  |%varavg| %total
---------------------------------------------------------------
Pair    | 35.41      | 35.41      | 35.41      |   0.0 | 53.16
Neigh   | 29.87      | 29.87      | 29.87      |   0.0 | 44.85
Comm    | 0.48731    | 0.48731    | 0.48731    |   0.0 |  0.73
Output  | 0.00014997 | 0.00014997 | 0.00014997 |   0.0 |  0.00
Modify  | 0.6535     | 0.6535     | 0.6535     |   0.0 |  0.98
Other   |            | 0.1835     |            |       |  0.28

Nlocal:    19652 ave 19652 max 19652 min
Histogram: 1 0 0 0 0 0 0 0 0 0
Nghost:    18010 ave 18010 max 18010 min
Histogram: 1 0 0 0 0 0 0 0 0 0
Neighs:    1.43388e+06 ave 1.43388e+06 max 1.43388e+06 min
Histogram: 1 0 0 0 0 0 0 0 0 0

Total # of neighbors = 1433876
Ave neighs/atom = 72.9634
Neighbor list builds = 495
Dangerous builds not checked
Setting up Verlet run ...
  Unit style    : metal
  Current step  : 250495
  Time step     : 0.001
Per MPI rank memory allocation (min/avg/max) = 18.2 | 18.2 | 18.2 Mbytes
Step Temp Press TotEng PotEng Enthalpy 
  250495    319.90939    725.02754   -53546.625   -54359.224    -53389.39 
  255000    301.89985   -486.80466   -53685.777    -54452.63   -53791.229 
Loop time of 624.515 on 1 procs for 4505 steps with 19652 atoms

Performance: 0.623 ns/day, 38.508 hours/ns, 7.214 timesteps/s
99.5% CPU use with 1 MPI tasks x no OpenMP threads

MPI task timing breakdown:
Section |  min time  |  avg time  |  max time  |%varavg| %total
---------------------------------------------------------------
Pair    | 331.89     | 331.89     | 331.89     |   0.0 | 53.14
Neigh   | 280.02     | 280.02     | 280.02     |   0.0 | 44.84
Comm    | 4.5415     | 4.5415     | 4.5415     |   0.0 |  0.73
Output  | 0.19399    | 0.19399    | 0.19399    |   0.0 |  0.03
Modify  | 6.1459     | 6.1459     | 6.1459     |   0.0 |  0.98
Other   |            | 1.728      |            |       |  0.28

Nlocal:    19652 ave 19652 max 19652 min
Histogram: 1 0 0 0 0 0 0 0 0 0
Nghost:    17970 ave 17970 max 17970 min
Histogram: 1 0 0 0 0 0 0 0 0 0
Neighs:    1.43491e+06 ave 1.43491e+06 max 1.43491e+06 min
Histogram: 1 0 0 0 0 0 0 0 0 0

Total # of neighbors = 1434906
Ave neighs/atom = 73.0158
Neighbor list builds = 4505
Dangerous builds not checked
Setting up Verlet run ...
  Unit style    : metal
  Current step  : 255000
  Time step     : 0.001
Per MPI rank memory allocation (min/avg/max) = 18.2 | 18.2 | 18.2 Mbytes
Step Temp Press TotEng PotEng Enthalpy 
  255000    301.89985   -486.80466   -53685.777    -54452.63   -53791.229 
  255495    274.13272   -90.347041   -53827.255   -54523.577   -53846.778 
Loop time of 65.0206 on 1 procs for 495 steps with 19652 atoms

Performance: 0.658 ns/day, 36.487 hours/ns, 7.613 timesteps/s
99.7% CPU use with 1 MPI tasks x no OpenMP threads

MPI task timing breakdown:
Section |  min time  |  avg time  |  max time  |%varavg| %total
---------------------------------------------------------------
Pair    | 34.795     | 34.795     | 34.795     |   0.0 | 53.51
Neigh   | 28.949     | 28.949     | 28.949     |   0.0 | 44.52
Comm    | 0.47625    | 0.47625    | 0.47625    |   0.0 |  0.73
Output  | 0.00013518 | 0.00013518 | 0.00013518 |   0.0 |  0.00
Modify  | 0.62957    | 0.62957    | 0.62957    |   0.0 |  0.97
Other   |            | 0.1706     |            |       |  0.26

Nlocal:    19652 ave 19652 max 19652 min
Histogram: 1 0 0 0 0 0 0 0 0 0
Nghost:    18023 ave 18023 max 18023 min
Histogram: 1 0 0 0 0 0 0 0 0 0
Neighs:    1.43874e+06 ave 1.43874e+06 max 1.43874e+06 min
Histogram: 1 0 0 0 0 0 0 0 0 0

Total # of neighbors = 1438745
Ave neighs/atom = 73.2111
Neighbor list builds = 495
Dangerous builds not checked
Setting up Verlet run ...
  Unit style    : metal
  Current step  : 255495
  Time step     : 0.001
Per MPI rank memory allocation (min/avg/max) = 18.2 | 18.2 | 18.2 Mbytes
Step Temp Press TotEng PotEng Enthalpy 
  255495    274.13272   -90.347041   -53827.255   -54523.577   -53846.778 
  260000    249.04837    319.22542   -53969.036   -54601.642   -53900.231 
Loop time of 622.499 on 1 procs for 4505 steps with 19652 atoms

Performance: 0.625 ns/day, 38.383 hours/ns, 7.237 timesteps/s
98.8% CPU use with 1 MPI tasks x no OpenMP threads

MPI task timing breakdown:
Section |  min time  |  avg time  |  max time  |%varavg| %total
---------------------------------------------------------------
Pair    | 330.55     | 330.55     | 330.55     |   0.0 | 53.10
Neigh   | 278.57     | 278.57     | 278.57     |   0.0 | 44.75
Comm    | 4.5563     | 4.5563     | 4.5563     |   0.0 |  0.73
Output  | 0.95519    | 0.95519    | 0.95519    |   0.0 |  0.15
Modify  | 6.1979     | 6.1979     | 6.1979     |   0.0 |  1.00
Other   |            | 1.674      |            |       |  0.27

Nlocal:    19652 ave 19652 max 19652 min
Histogram: 1 0 0 0 0 0 0 0 0 0
Nghost:    18025 ave 18025 max 18025 min
Histogram: 1 0 0 0 0 0 0 0 0 0
Neighs:    1.4426e+06 ave 1.4426e+06 max 1.4426e+06 min
Histogram: 1 0 0 0 0 0 0 0 0 0

Total # of neighbors = 1442604
Ave neighs/atom = 73.4075
Neighbor list builds = 4505
Dangerous builds not checked
Setting up Verlet run ...
  Unit style    : metal
  Current step  : 260000
  Time step     : 0.001
Per MPI rank memory allocation (min/avg/max) = 18.2 | 18.2 | 18.2 Mbytes
Step Temp Press TotEng PotEng Enthalpy 
  260000    249.04837    319.22542   -53969.036   -54601.642   -53900.231 
  260495    222.90576    103.58065   -54099.102   -54665.303   -54076.809 
Loop time of 61.2635 on 1 procs for 495 steps with 19652 atoms

Performance: 0.698 ns/day, 34.379 hours/ns, 8.080 timesteps/s
99.5% CPU use with 1 MPI tasks x no OpenMP threads

MPI task timing breakdown:
Section |  min time  |  avg time  |  max time  |%varavg| %total
---------------------------------------------------------------
Pair    | 32.367     | 32.367     | 32.367     |   0.0 | 52.83
Neigh   | 27.693     | 27.693     | 27.693     |   0.0 | 45.20
Comm    | 0.44679    | 0.44679    | 0.44679    |   0.0 |  0.73
Output  | 0.00016499 | 0.00016499 | 0.00016499 |   0.0 |  0.00
Modify  | 0.58594    | 0.58594    | 0.58594    |   0.0 |  0.96
Other   |            | 0.1702     |            |       |  0.28

Nlocal:    19652 ave 19652 max 19652 min
Histogram: 1 0 0 0 0 0 0 0 0 0
Nghost:    18058 ave 18058 max 18058 min
Histogram: 1 0 0 0 0 0 0 0 0 0
Neighs:    1.44388e+06 ave 1.44388e+06 max 1.44388e+06 min
Histogram: 1 0 0 0 0 0 0 0 0 0

Total # of neighbors = 1443882
Ave neighs/atom = 73.4725
Neighbor list builds = 495
Dangerous builds not checked
Setting up Verlet run ...
  Unit style    : metal
  Current step  : 260495
  Time step     : 0.001
Per MPI rank memory allocation (min/avg/max) = 18.2 | 18.2 | 18.2 Mbytes
Step Temp Press TotEng PotEng Enthalpy 
  260495    222.90576    103.58065   -54099.102   -54665.303   -54076.809 
  265000     199.8525    551.11901   -54238.929   -54746.573   -54120.624 
Loop time of 611.807 on 1 procs for 4505 steps with 19652 atoms

Performance: 0.636 ns/day, 37.724 hours/ns, 7.363 timesteps/s
99.2% CPU use with 1 MPI tasks x no OpenMP threads

MPI task timing breakdown:
Section |  min time  |  avg time  |  max time  |%varavg| %total
---------------------------------------------------------------
Pair    | 324.57     | 324.57     | 324.57     |   0.0 | 53.05
Neigh   | 275.18     | 275.18     | 275.18     |   0.0 | 44.98
Comm    | 4.3872     | 4.3872     | 4.3872     |   0.0 |  0.72
Output  | 0.071299   | 0.071299   | 0.071299   |   0.0 |  0.01
Modify  | 6.0188     | 6.0188     | 6.0188     |   0.0 |  0.98
Other   |            | 1.585      |            |       |  0.26

Nlocal:    19652 ave 19652 max 19652 min
Histogram: 1 0 0 0 0 0 0 0 0 0
Nghost:    18098 ave 18098 max 18098 min
Histogram: 1 0 0 0 0 0 0 0 0 0
Neighs:    1.44758e+06 ave 1.44758e+06 max 1.44758e+06 min
Histogram: 1 0 0 0 0 0 0 0 0 0

Total # of neighbors = 1447580
Ave neighs/atom = 73.6607
Neighbor list builds = 4505
Dangerous builds not checked
Setting up Verlet run ...
  Unit style    : metal
  Current step  : 265000
  Time step     : 0.001
Per MPI rank memory allocation (min/avg/max) = 18.2 | 18.2 | 18.2 Mbytes
Step Temp Press TotEng PotEng Enthalpy 
  265000     199.8525    551.11901   -54238.929   -54746.573   -54120.624 
  265495    175.51339   -96.321598   -54363.347   -54809.167   -54384.004 
Loop time of 61.3716 on 1 procs for 495 steps with 19652 atoms

Performance: 0.697 ns/day, 34.440 hours/ns, 8.066 timesteps/s
99.7% CPU use with 1 MPI tasks x no OpenMP threads

MPI task timing breakdown:
Section |  min time  |  avg time  |  max time  |%varavg| %total
---------------------------------------------------------------
Pair    | 32.239     | 32.239     | 32.239     |   0.0 | 52.53
Neigh   | 27.976     | 27.976     | 27.976     |   0.0 | 45.58
Comm    | 0.41819    | 0.41819    | 0.41819    |   0.0 |  0.68
Output  | 0.00015306 | 0.00015306 | 0.00015306 |   0.0 |  0.00
Modify  | 0.58381    | 0.58381    | 0.58381    |   0.0 |  0.95
Other   |            | 0.1551     |            |       |  0.25

Nlocal:    19652 ave 19652 max 19652 min
Histogram: 1 0 0 0 0 0 0 0 0 0
Nghost:    18065 ave 18065 max 18065 min
Histogram: 1 0 0 0 0 0 0 0 0 0
Neighs:    1.44898e+06 ave 1.44898e+06 max 1.44898e+06 min
Histogram: 1 0 0 0 0 0 0 0 0 0

Total # of neighbors = 1448979
Ave neighs/atom = 73.7319
Neighbor list builds = 495
Dangerous builds not checked
Setting up Verlet run ...
  Unit style    : metal
  Current step  : 265495
  Time step     : 0.001
Per MPI rank memory allocation (min/avg/max) = 18.2 | 18.2 | 18.2 Mbytes
Step Temp Press TotEng PotEng Enthalpy 
  265495    175.51339   -96.321598   -54363.347   -54809.167   -54384.004 
  270000    149.73363   -51.579145   -54504.222   -54884.559   -54515.262 
Loop time of 545.762 on 1 procs for 4505 steps with 19652 atoms

Performance: 0.713 ns/day, 33.652 hours/ns, 8.255 timesteps/s
99.3% CPU use with 1 MPI tasks x no OpenMP threads

MPI task timing breakdown:
Section |  min time  |  avg time  |  max time  |%varavg| %total
---------------------------------------------------------------
Pair    | 286.21     | 286.21     | 286.21     |   0.0 | 52.44
Neigh   | 248.58     | 248.58     | 248.58     |   0.0 | 45.55
Comm    | 3.8607     | 3.8607     | 3.8607     |   0.0 |  0.71
Output  | 0.4291     | 0.4291     | 0.4291     |   0.0 |  0.08
Modify  | 5.2386     | 5.2386     | 5.2386     |   0.0 |  0.96
Other   |            | 1.448      |            |       |  0.27

Nlocal:    19652 ave 19652 max 19652 min
Histogram: 1 0 0 0 0 0 0 0 0 0
Nghost:    18082 ave 18082 max 18082 min
Histogram: 1 0 0 0 0 0 0 0 0 0
Neighs:    1.45178e+06 ave 1.45178e+06 max 1.45178e+06 min
Histogram: 1 0 0 0 0 0 0 0 0 0

Total # of neighbors = 1451782
Ave neighs/atom = 73.8745
Neighbor list builds = 4505
Dangerous builds not checked
Setting up Verlet run ...
  Unit style    : metal
  Current step  : 270000
  Time step     : 0.001
Per MPI rank memory allocation (min/avg/max) = 18.2 | 18.2 | 18.2 Mbytes
Step Temp Press TotEng PotEng Enthalpy 
  270000    149.73363   -51.579145   -54504.222   -54884.559   -54515.262 
  270495    127.35316   -14.347765   -54620.485   -54943.974   -54623.551 
Loop time of 59.6878 on 1 procs for 495 steps with 19652 atoms

Performance: 0.717 ns/day, 33.495 hours/ns, 8.293 timesteps/s
99.4% CPU use with 1 MPI tasks x no OpenMP threads

MPI task timing breakdown:
Section |  min time  |  avg time  |  max time  |%varavg| %total
---------------------------------------------------------------
Pair    | 31.304     | 31.304     | 31.304     |   0.0 | 52.45
Neigh   | 27.218     | 27.218     | 27.218     |   0.0 | 45.60
Comm    | 0.42058    | 0.42058    | 0.42058    |   0.0 |  0.70
Output  | 0.00015688 | 0.00015688 | 0.00015688 |   0.0 |  0.00
Modify  | 0.57891    | 0.57891    | 0.57891    |   0.0 |  0.97
Other   |            | 0.1654     |            |       |  0.28

Nlocal:    19652 ave 19652 max 19652 min
Histogram: 1 0 0 0 0 0 0 0 0 0
Nghost:    18081 ave 18081 max 18081 min
Histogram: 1 0 0 0 0 0 0 0 0 0
Neighs:    1.45427e+06 ave 1.45427e+06 max 1.45427e+06 min
Histogram: 1 0 0 0 0 0 0 0 0 0

Total # of neighbors = 1454274
Ave neighs/atom = 74.0013
Neighbor list builds = 495
Dangerous builds not checked
Setting up Verlet run ...
  Unit style    : metal
  Current step  : 270495
  Time step     : 0.001
Per MPI rank memory allocation (min/avg/max) = 18.2 | 18.2 | 18.2 Mbytes
Step Temp Press TotEng PotEng Enthalpy 
  270495    127.35316   -14.347765   -54620.485   -54943.974   -54623.551 
  275000    99.481193    199.70298   -54765.366   -55018.057   -54722.789 
Loop time of 539.52 on 1 procs for 4505 steps with 19652 atoms

Performance: 0.721 ns/day, 33.267 hours/ns, 8.350 timesteps/s
99.6% CPU use with 1 MPI tasks x no OpenMP threads

MPI task timing breakdown:
Section |  min time  |  avg time  |  max time  |%varavg| %total
---------------------------------------------------------------
Pair    | 283.96     | 283.96     | 283.96     |   0.0 | 52.63
Neigh   | 244.64     | 244.64     | 244.64     |   0.0 | 45.34
Comm    | 3.8904     | 3.8904     | 3.8904     |   0.0 |  0.72
Output  | 0.44578    | 0.44578    | 0.44578    |   0.0 |  0.08
Modify  | 5.1621     | 5.1621     | 5.1621     |   0.0 |  0.96
Other   |            | 1.429      |            |       |  0.26

Nlocal:    19652 ave 19652 max 19652 min
Histogram: 1 0 0 0 0 0 0 0 0 0
Nghost:    18119 ave 18119 max 18119 min
Histogram: 1 0 0 0 0 0 0 0 0 0
Neighs:    1.45682e+06 ave 1.45682e+06 max 1.45682e+06 min
Histogram: 1 0 0 0 0 0 0 0 0 0

Total # of neighbors = 1456816
Ave neighs/atom = 74.1307
Neighbor list builds = 4505
Dangerous builds not checked
Total wall time: 10:51:38
