LAMMPS (12 Dec 2018)
Lattice spacing in x,y,z = 4 4 4
Created orthogonal box = (0 0 0) to (68 68 68)
  1 by 1 by 1 MPI processor grid
Created 19652 atoms
  Time spent = 0.00520802 secs
Setting atom values ...
  19480 settings made for type/fraction
Neighbor list info ...
  update every 1 steps, delay 0 steps, check no
  max neighbors/atom: 2000, page size: 100000
  master list distance cutoff = 8.5
  ghost atom cutoff = 8.5
  binsize = 4.25, bins = 16 16 16
  1 neighbor lists, perpetual/occasional/extra = 1 0 0
  (1) pair eam/alloy, perpetual
      attributes: half, newton on
      pair build: half/bin/atomonly/newton
      stencil: half/bin/3d/newton
      bin: standard
Setting up Verlet run ...
  Unit style    : metal
  Current step  : 0
  Time step     : 0.001
Per MPI rank memory allocation (min/avg/max) = 18.19 | 18.19 | 18.19 Mbytes
Step Temp Press TotEng PotEng Enthalpy 
       0          300    -170687.3   -61451.857   -62213.884   -94949.757 
    1000     410.5963    -82339.47   -61451.859   -62494.811   -77611.229 
Loop time of 169.437 on 1 procs for 1000 steps with 19652 atoms

Performance: 0.510 ns/day, 47.066 hours/ns, 5.902 timesteps/s
97.6% CPU use with 1 MPI tasks x no OpenMP threads

MPI task timing breakdown:
Section |  min time  |  avg time  |  max time  |%varavg| %total
---------------------------------------------------------------
Pair    | 95.7       | 95.7       | 95.7       |   0.0 | 56.48
Neigh   | 71.59      | 71.59      | 71.59      |   0.0 | 42.25
Comm    | 1.2828     | 1.2828     | 1.2828     |   0.0 |  0.76
Output  | 0.00016713 | 0.00016713 | 0.00016713 |   0.0 |  0.00
Modify  | 0.45146    | 0.45146    | 0.45146    |   0.0 |  0.27
Other   |            | 0.4123     |            |       |  0.24

Nlocal:    19652 ave 19652 max 19652 min
Histogram: 1 0 0 0 0 0 0 0 0 0
Nghost:    18899 ave 18899 max 18899 min
Histogram: 1 0 0 0 0 0 0 0 0 0
Neighs:    1.57546e+06 ave 1.57546e+06 max 1.57546e+06 min
Histogram: 1 0 0 0 0 0 0 0 0 0

Total # of neighbors = 1575461
Ave neighs/atom = 80.168
Neighbor list builds = 1000
Dangerous builds not checked
Setting up Verlet run ...
  Unit style    : metal
  Current step  : 1000
  Time step     : 0.001
Per MPI rank memory allocation (min/avg/max) = 18.19 | 18.19 | 18.19 Mbytes
Step Temp Press TotEng PotEng Enthalpy 
    1000     410.5963    -82339.47   -61451.859   -62494.811   -77611.229 
    2000    404.71278   -1520.9348   -65652.288   -66680.295   -65883.352 
Loop time of 233.785 on 1 procs for 1000 steps with 19652 atoms

Performance: 0.370 ns/day, 64.940 hours/ns, 4.277 timesteps/s
93.3% CPU use with 1 MPI tasks x no OpenMP threads

MPI task timing breakdown:
Section |  min time  |  avg time  |  max time  |%varavg| %total
---------------------------------------------------------------
Pair    | 130.44     | 130.44     | 130.44     |   0.0 | 55.79
Neigh   | 99.733     | 99.733     | 99.733     |   0.0 | 42.66
Comm    | 1.379      | 1.379      | 1.379      |   0.0 |  0.59
Output  | 0.080844   | 0.080844   | 0.080844   |   0.0 |  0.03
Modify  | 1.7056     | 1.7056     | 1.7056     |   0.0 |  0.73
Other   |            | 0.4476     |            |       |  0.19

Nlocal:    19652 ave 19652 max 19652 min
Histogram: 1 0 0 0 0 0 0 0 0 0
Nghost:    20373 ave 20373 max 20373 min
Histogram: 1 0 0 0 0 0 0 0 0 0
Neighs:    2.0148e+06 ave 2.0148e+06 max 2.0148e+06 min
Histogram: 1 0 0 0 0 0 0 0 0 0

Total # of neighbors = 2014797
Ave neighs/atom = 102.524
Neighbor list builds = 1000
Dangerous builds not checked
Setting up Verlet run ...
  Unit style    : metal
  Current step  : 2000
  Time step     : 0.001
Per MPI rank memory allocation (min/avg/max) = 19.34 | 19.34 | 19.34 Mbytes
Step Temp Press TotEng PotEng Enthalpy 
    2000    404.71278   -1520.9348   -65652.288   -66680.295   -65883.352 
    4000    806.51069    255.69851   -64548.472   -66597.082   -64509.924 
    6000    1333.7582    835.44081   -61054.618   -64442.485   -60922.472 
    8000    1918.0931    751.53801   -55965.093   -60837.224   -55833.976 
   10000     2414.595   -731.67765   -52918.171   -59051.462    -53053.03 
Loop time of 1519.16 on 1 procs for 8000 steps with 19652 atoms

Performance: 0.455 ns/day, 52.749 hours/ns, 5.266 timesteps/s
96.3% CPU use with 1 MPI tasks x no OpenMP threads

MPI task timing breakdown:
Section |  min time  |  avg time  |  max time  |%varavg| %total
---------------------------------------------------------------
Pair    | 835.64     | 835.64     | 835.64     |   0.0 | 55.01
Neigh   | 659.72     | 659.72     | 659.72     |   0.0 | 43.43
Comm    | 9.0382     | 9.0382     | 9.0382     |   0.0 |  0.59
Output  | 0.67025    | 0.67025    | 0.67025    |   0.0 |  0.04
Modify  | 11.045     | 11.045     | 11.045     |   0.0 |  0.73
Other   |            | 3.047      |            |       |  0.20

Nlocal:    19652 ave 19652 max 19652 min
Histogram: 1 0 0 0 0 0 0 0 0 0
Nghost:    19272 ave 19272 max 19272 min
Histogram: 1 0 0 0 0 0 0 0 0 0
Neighs:    1.66856e+06 ave 1.66856e+06 max 1.66856e+06 min
Histogram: 1 0 0 0 0 0 0 0 0 0

Total # of neighbors = 1668559
Ave neighs/atom = 84.9053
Neighbor list builds = 8000
Dangerous builds not checked
Setting up Verlet run ...
  Unit style    : metal
  Current step  : 10000
  Time step     : 0.001
Per MPI rank memory allocation (min/avg/max) = 19.34 | 19.34 | 19.34 Mbytes
Step Temp Press TotEng PotEng Enthalpy 
   10000     2414.595   -731.67765   -52918.171   -59051.462    -53053.03 
   12000    2451.7316   -1348.3262   -52761.386   -58989.007   -53010.468 
   14000    2459.2193   -680.16745   -52737.116   -58983.758   -52862.658 
   16000    2455.6624    535.20378   -52758.682   -58996.288   -52660.064 
   18000    2468.0663   -72.576805   -52754.562   -59023.675   -52767.941 
   20000    2479.4147    482.97002   -52727.861     -59025.8   -52638.847 
   22000    2434.3305   -1592.5878   -52821.516   -59004.937   -53115.693 
   24000    2432.4957    -442.0709   -52866.298   -59045.059   -52947.733 
   26000    2437.6305   -127.40835   -52839.119   -59030.923   -52862.615 
   28000    2439.1657   -111.49612   -52793.277    -58988.98   -52813.839 
   30000    2434.4105    889.11886   -52882.267   -59065.892   -52718.713 
   32000    2433.3404   -678.94214   -52846.377   -59027.283   -52971.639 
   34000    2443.8195    142.50823   -52773.854   -58981.379   -52747.547 
   36000    2453.1727    347.03621   -52736.073   -58967.355   -52672.049 
   38000    2445.7001    1693.9277   -52807.939    -59020.24   -52496.276 
   40000    2451.5558   -289.00139   -52797.501   -59024.676   -52850.779 
Loop time of 5673.28 on 1 procs for 30000 steps with 19652 atoms

Performance: 0.457 ns/day, 52.530 hours/ns, 5.288 timesteps/s
98.3% CPU use with 1 MPI tasks x no OpenMP threads

MPI task timing breakdown:
Section |  min time  |  avg time  |  max time  |%varavg| %total
---------------------------------------------------------------
Pair    | 3144.6     | 3144.6     | 3144.6     |   0.0 | 55.43
Neigh   | 2436.9     | 2436.9     | 2436.9     |   0.0 | 42.95
Comm    | 35.435     | 35.435     | 35.435     |   0.0 |  0.62
Output  | 1.5153     | 1.5153     | 1.5153     |   0.0 |  0.03
Modify  | 42.94      | 42.94      | 42.94      |   0.0 |  0.76
Other   |            | 11.91      |            |       |  0.21

Nlocal:    19652 ave 19652 max 19652 min
Histogram: 1 0 0 0 0 0 0 0 0 0
Nghost:    19211 ave 19211 max 19211 min
Histogram: 1 0 0 0 0 0 0 0 0 0
Neighs:    1.66857e+06 ave 1.66857e+06 max 1.66857e+06 min
Histogram: 1 0 0 0 0 0 0 0 0 0

Total # of neighbors = 1668571
Ave neighs/atom = 84.9059
Neighbor list builds = 30000
Dangerous builds not checked
Setting up Verlet run ...
  Unit style    : metal
  Current step  : 40000
  Time step     : 0.001
Per MPI rank memory allocation (min/avg/max) = 19.34 | 19.34 | 19.34 Mbytes
Step Temp Press TotEng PotEng Enthalpy 
   40000    2451.5558   -289.00139   -52797.501   -59024.676   -52850.779 
   40495    2409.5091     903.6447   -53003.365   -59123.738    -52837.42 
Loop time of 97.2876 on 1 procs for 495 steps with 19652 atoms

Performance: 0.440 ns/day, 54.595 hours/ns, 5.088 timesteps/s
96.4% CPU use with 1 MPI tasks x no OpenMP threads

MPI task timing breakdown:
Section |  min time  |  avg time  |  max time  |%varavg| %total
---------------------------------------------------------------
Pair    | 54.088     | 54.088     | 54.088     |   0.0 | 55.60
Neigh   | 41.599     | 41.599     | 41.599     |   0.0 | 42.76
Comm    | 0.60792    | 0.60792    | 0.60792    |   0.0 |  0.62
Output  | 0.00012898 | 0.00012898 | 0.00012898 |   0.0 |  0.00
Modify  | 0.76814    | 0.76814    | 0.76814    |   0.0 |  0.79
Other   |            | 0.2244     |            |       |  0.23

Nlocal:    19652 ave 19652 max 19652 min
Histogram: 1 0 0 0 0 0 0 0 0 0
Nghost:    19284 ave 19284 max 19284 min
Histogram: 1 0 0 0 0 0 0 0 0 0
Neighs:    1.67439e+06 ave 1.67439e+06 max 1.67439e+06 min
Histogram: 1 0 0 0 0 0 0 0 0 0

Total # of neighbors = 1674392
Ave neighs/atom = 85.2021
Neighbor list builds = 495
Dangerous builds not checked
Setting up Verlet run ...
  Unit style    : metal
  Current step  : 40495
  Time step     : 0.001
Per MPI rank memory allocation (min/avg/max) = 19.34 | 19.34 | 19.34 Mbytes
Step Temp Press TotEng PotEng Enthalpy 
   40495    2409.5091     903.6447   -53003.365   -59123.738    -52837.42 
   42000    2407.4568    457.25908   -53067.735   -59182.894   -52983.855 
Loop time of 282.875 on 1 procs for 1505 steps with 19652 atoms

Performance: 0.460 ns/day, 52.210 hours/ns, 5.320 timesteps/s
98.3% CPU use with 1 MPI tasks x no OpenMP threads

MPI task timing breakdown:
Section |  min time  |  avg time  |  max time  |%varavg| %total
---------------------------------------------------------------
Pair    | 154.89     | 154.89     | 154.89     |   0.0 | 54.76
Neigh   | 122.91     | 122.91     | 122.91     |   0.0 | 43.45
Comm    | 1.7562     | 1.7562     | 1.7562     |   0.0 |  0.62
Output  | 0.50403    | 0.50403    | 0.50403    |   0.0 |  0.18
Modify  | 2.2018     | 2.2018     | 2.2018     |   0.0 |  0.78
Other   |            | 0.615      |            |       |  0.22

Nlocal:    19652 ave 19652 max 19652 min
Histogram: 1 0 0 0 0 0 0 0 0 0
Nghost:    19153 ave 19153 max 19153 min
Histogram: 1 0 0 0 0 0 0 0 0 0
Neighs:    1.67593e+06 ave 1.67593e+06 max 1.67593e+06 min
Histogram: 1 0 0 0 0 0 0 0 0 0

Total # of neighbors = 1675932
Ave neighs/atom = 85.2805
Neighbor list builds = 1505
Dangerous builds not checked
Setting up Verlet run ...
  Unit style    : metal
  Current step  : 42000
  Time step     : 0.001
Per MPI rank memory allocation (min/avg/max) = 19.34 | 19.34 | 19.34 Mbytes
Step Temp Press TotEng PotEng Enthalpy 
   42000    2407.4568    457.25908   -53067.735   -59182.894   -52983.855 
   42495    2379.1824   -637.29834   -53291.006   -59334.346   -53407.461 
Loop time of 96.1549 on 1 procs for 495 steps with 19652 atoms

Performance: 0.445 ns/day, 53.959 hours/ns, 5.148 timesteps/s
98.9% CPU use with 1 MPI tasks x no OpenMP threads

MPI task timing breakdown:
Section |  min time  |  avg time  |  max time  |%varavg| %total
---------------------------------------------------------------
Pair    | 53.078     | 53.078     | 53.078     |   0.0 | 55.20
Neigh   | 41.492     | 41.492     | 41.492     |   0.0 | 43.15
Comm    | 0.6026     | 0.6026     | 0.6026     |   0.0 |  0.63
Output  | 0.00012684 | 0.00012684 | 0.00012684 |   0.0 |  0.00
Modify  | 0.76633    | 0.76633    | 0.76633    |   0.0 |  0.80
Other   |            | 0.2161     |            |       |  0.22

Nlocal:    19652 ave 19652 max 19652 min
Histogram: 1 0 0 0 0 0 0 0 0 0
Nghost:    19240 ave 19240 max 19240 min
Histogram: 1 0 0 0 0 0 0 0 0 0
Neighs:    1.68241e+06 ave 1.68241e+06 max 1.68241e+06 min
Histogram: 1 0 0 0 0 0 0 0 0 0

Total # of neighbors = 1682414
Ave neighs/atom = 85.6103
Neighbor list builds = 495
Dangerous builds not checked
Setting up Verlet run ...
  Unit style    : metal
  Current step  : 42495
  Time step     : 0.001
Per MPI rank memory allocation (min/avg/max) = 19.34 | 19.34 | 19.34 Mbytes
Step Temp Press TotEng PotEng Enthalpy 
   42495    2379.1824   -637.29834   -53291.006   -59334.346   -53407.461 
   44000    2353.1239   -1534.4642   -53298.143   -59275.292   -53579.412 
Loop time of 249.554 on 1 procs for 1505 steps with 19652 atoms

Performance: 0.521 ns/day, 46.060 hours/ns, 6.031 timesteps/s
97.2% CPU use with 1 MPI tasks x no OpenMP threads

MPI task timing breakdown:
Section |  min time  |  avg time  |  max time  |%varavg| %total
---------------------------------------------------------------
Pair    | 135.12     | 135.12     | 135.12     |   0.0 | 54.14
Neigh   | 110.29     | 110.29     | 110.29     |   0.0 | 44.20
Comm    | 1.5793     | 1.5793     | 1.5793     |   0.0 |  0.63
Output  | 0.052423   | 0.052423   | 0.052423   |   0.0 |  0.02
Modify  | 1.9789     | 1.9789     | 1.9789     |   0.0 |  0.79
Other   |            | 0.5321     |            |       |  0.21

Nlocal:    19652 ave 19652 max 19652 min
Histogram: 1 0 0 0 0 0 0 0 0 0
Nghost:    19310 ave 19310 max 19310 min
Histogram: 1 0 0 0 0 0 0 0 0 0
Neighs:    1.67796e+06 ave 1.67796e+06 max 1.67796e+06 min
Histogram: 1 0 0 0 0 0 0 0 0 0

Total # of neighbors = 1677965
Ave neighs/atom = 85.3839
Neighbor list builds = 1505
Dangerous builds not checked
Setting up Verlet run ...
  Unit style    : metal
  Current step  : 44000
  Time step     : 0.001
Per MPI rank memory allocation (min/avg/max) = 19.34 | 19.34 | 19.34 Mbytes
Step Temp Press TotEng PotEng Enthalpy 
   44000    2353.1239   -1534.4642   -53298.143   -59275.292   -53579.412 
   44495    2312.8306    351.08054     -53578.3   -59453.101   -53514.445 
Loop time of 87.4553 on 1 procs for 495 steps with 19652 atoms

Performance: 0.489 ns/day, 49.077 hours/ns, 5.660 timesteps/s
96.4% CPU use with 1 MPI tasks x no OpenMP threads

MPI task timing breakdown:
Section |  min time  |  avg time  |  max time  |%varavg| %total
---------------------------------------------------------------
Pair    | 47.604     | 47.604     | 47.604     |   0.0 | 54.43
Neigh   | 38.403     | 38.403     | 38.403     |   0.0 | 43.91
Comm    | 0.56311    | 0.56311    | 0.56311    |   0.0 |  0.64
Output  | 0.0001688  | 0.0001688  | 0.0001688  |   0.0 |  0.00
Modify  | 0.69552    | 0.69552    | 0.69552    |   0.0 |  0.80
Other   |            | 0.189      |            |       |  0.22

Nlocal:    19652 ave 19652 max 19652 min
Histogram: 1 0 0 0 0 0 0 0 0 0
Nghost:    19284 ave 19284 max 19284 min
Histogram: 1 0 0 0 0 0 0 0 0 0
Neighs:    1.69003e+06 ave 1.69003e+06 max 1.69003e+06 min
Histogram: 1 0 0 0 0 0 0 0 0 0

Total # of neighbors = 1690033
Ave neighs/atom = 85.998
Neighbor list builds = 495
Dangerous builds not checked
Setting up Verlet run ...
  Unit style    : metal
  Current step  : 44495
  Time step     : 0.001
Per MPI rank memory allocation (min/avg/max) = 19.34 | 19.34 | 19.34 Mbytes
Step Temp Press TotEng PotEng Enthalpy 
   44495    2312.8306    351.08054     -53578.3   -59453.101   -53514.445 
   46000    2310.1104    1933.6553   -53591.121   -59459.012   -53240.452 
Loop time of 275.305 on 1 procs for 1505 steps with 19652 atoms

Performance: 0.472 ns/day, 50.813 hours/ns, 5.467 timesteps/s
98.5% CPU use with 1 MPI tasks x no OpenMP threads

MPI task timing breakdown:
Section |  min time  |  avg time  |  max time  |%varavg| %total
---------------------------------------------------------------
Pair    | 151.88     | 151.88     | 151.88     |   0.0 | 55.17
Neigh   | 118.79     | 118.79     | 118.79     |   0.0 | 43.15
Comm    | 1.777      | 1.777      | 1.777      |   0.0 |  0.65
Output  | 0.082241   | 0.082241   | 0.082241   |   0.0 |  0.03
Modify  | 2.1713     | 2.1713     | 2.1713     |   0.0 |  0.79
Other   |            | 0.6022     |            |       |  0.22

Nlocal:    19652 ave 19652 max 19652 min
Histogram: 1 0 0 0 0 0 0 0 0 0
Nghost:    19354 ave 19354 max 19354 min
Histogram: 1 0 0 0 0 0 0 0 0 0
Neighs:    1.69544e+06 ave 1.69544e+06 max 1.69544e+06 min
Histogram: 1 0 0 0 0 0 0 0 0 0

Total # of neighbors = 1695444
Ave neighs/atom = 86.2734
Neighbor list builds = 1505
Dangerous builds not checked
Setting up Verlet run ...
  Unit style    : metal
  Current step  : 46000
  Time step     : 0.001
Per MPI rank memory allocation (min/avg/max) = 19.34 | 19.34 | 19.34 Mbytes
Step Temp Press TotEng PotEng Enthalpy 
   46000    2310.1104    1933.6553   -53591.121   -59459.012   -53240.452 
   46495    2268.8964    602.73777   -53841.246    -59604.45   -53732.104 
Loop time of 79.37 on 1 procs for 495 steps with 19652 atoms

Performance: 0.539 ns/day, 44.540 hours/ns, 6.237 timesteps/s
99.4% CPU use with 1 MPI tasks x no OpenMP threads

MPI task timing breakdown:
Section |  min time  |  avg time  |  max time  |%varavg| %total
---------------------------------------------------------------
Pair    | 43.079     | 43.079     | 43.079     |   0.0 | 54.28
Neigh   | 34.967     | 34.967     | 34.967     |   0.0 | 44.06
Comm    | 0.51235    | 0.51235    | 0.51235    |   0.0 |  0.65
Output  | 0.00016904 | 0.00016904 | 0.00016904 |   0.0 |  0.00
Modify  | 0.6403     | 0.6403     | 0.6403     |   0.0 |  0.81
Other   |            | 0.172      |            |       |  0.22

Nlocal:    19652 ave 19652 max 19652 min
Histogram: 1 0 0 0 0 0 0 0 0 0
Nghost:    19304 ave 19304 max 19304 min
Histogram: 1 0 0 0 0 0 0 0 0 0
Neighs:    1.69779e+06 ave 1.69779e+06 max 1.69779e+06 min
Histogram: 1 0 0 0 0 0 0 0 0 0

Total # of neighbors = 1697793
Ave neighs/atom = 86.3929
Neighbor list builds = 495
Dangerous builds not checked
Setting up Verlet run ...
  Unit style    : metal
  Current step  : 46495
  Time step     : 0.001
Per MPI rank memory allocation (min/avg/max) = 19.34 | 19.34 | 19.34 Mbytes
Step Temp Press TotEng PotEng Enthalpy 
   46495    2268.8964    602.73777   -53841.246    -59604.45   -53732.104 
   48000    2252.4312   -325.15139   -53976.192   -59697.573   -54034.944 
Loop time of 225.82 on 1 procs for 1505 steps with 19652 atoms

Performance: 0.576 ns/day, 41.680 hours/ns, 6.665 timesteps/s
98.8% CPU use with 1 MPI tasks x no OpenMP threads

MPI task timing breakdown:
Section |  min time  |  avg time  |  max time  |%varavg| %total
---------------------------------------------------------------
Pair    | 122.21     | 122.21     | 122.21     |   0.0 | 54.12
Neigh   | 99.897     | 99.897     | 99.897     |   0.0 | 44.24
Comm    | 1.3989     | 1.3989     | 1.3989     |   0.0 |  0.62
Output  | 0.083094   | 0.083094   | 0.083094   |   0.0 |  0.04
Modify  | 1.7136     | 1.7136     | 1.7136     |   0.0 |  0.76
Other   |            | 0.5182     |            |       |  0.23

Nlocal:    19652 ave 19652 max 19652 min
Histogram: 1 0 0 0 0 0 0 0 0 0
Nghost:    19411 ave 19411 max 19411 min
Histogram: 1 0 0 0 0 0 0 0 0 0
Neighs:    1.70141e+06 ave 1.70141e+06 max 1.70141e+06 min
Histogram: 1 0 0 0 0 0 0 0 0 0

Total # of neighbors = 1701411
Ave neighs/atom = 86.577
Neighbor list builds = 1505
Dangerous builds not checked
Setting up Verlet run ...
  Unit style    : metal
  Current step  : 48000
  Time step     : 0.001
Per MPI rank memory allocation (min/avg/max) = 19.34 | 19.34 | 19.34 Mbytes
Step Temp Press TotEng PotEng Enthalpy 
   48000    2252.4312   -325.15139   -53976.192   -59697.573   -54034.944 
   48495    2216.8127    464.30437   -54170.298   -59801.204    -54086.75 
Loop time of 80.6928 on 1 procs for 495 steps with 19652 atoms

Performance: 0.530 ns/day, 45.282 hours/ns, 6.134 timesteps/s
99.0% CPU use with 1 MPI tasks x no OpenMP threads

MPI task timing breakdown:
Section |  min time  |  avg time  |  max time  |%varavg| %total
---------------------------------------------------------------
Pair    | 44.158     | 44.158     | 44.158     |   0.0 | 54.72
Neigh   | 35.219     | 35.219     | 35.219     |   0.0 | 43.65
Comm    | 0.50008    | 0.50008    | 0.50008    |   0.0 |  0.62
Output  | 0.00021911 | 0.00021911 | 0.00021911 |   0.0 |  0.00
Modify  | 0.62656    | 0.62656    | 0.62656    |   0.0 |  0.78
Other   |            | 0.1887     |            |       |  0.23

Nlocal:    19652 ave 19652 max 19652 min
Histogram: 1 0 0 0 0 0 0 0 0 0
Nghost:    19481 ave 19481 max 19481 min
Histogram: 1 0 0 0 0 0 0 0 0 0
Neighs:    1.70832e+06 ave 1.70832e+06 max 1.70832e+06 min
Histogram: 1 0 0 0 0 0 0 0 0 0

Total # of neighbors = 1708320
Ave neighs/atom = 86.9286
Neighbor list builds = 495
Dangerous builds not checked
Setting up Verlet run ...
  Unit style    : metal
  Current step  : 48495
  Time step     : 0.001
Per MPI rank memory allocation (min/avg/max) = 19.34 | 19.34 | 19.34 Mbytes
Step Temp Press TotEng PotEng Enthalpy 
   48495    2216.8127    464.30437   -54170.298   -59801.204    -54086.75 
   50000    2189.5699   -2178.8895   -54217.948   -59779.655   -54611.488 
Loop time of 215.489 on 1 procs for 1505 steps with 19652 atoms

Performance: 0.603 ns/day, 39.773 hours/ns, 6.984 timesteps/s
99.3% CPU use with 1 MPI tasks x no OpenMP threads

MPI task timing breakdown:
Section |  min time  |  avg time  |  max time  |%varavg| %total
---------------------------------------------------------------
Pair    | 115.59     | 115.59     | 115.59     |   0.0 | 53.64
Neigh   | 96.365     | 96.365     | 96.365     |   0.0 | 44.72
Comm    | 1.3691     | 1.3691     | 1.3691     |   0.0 |  0.64
Output  | 0.052912   | 0.052912   | 0.052912   |   0.0 |  0.02
Modify  | 1.6634     | 1.6634     | 1.6634     |   0.0 |  0.77
Other   |            | 0.4448     |            |       |  0.21

Nlocal:    19652 ave 19652 max 19652 min
Histogram: 1 0 0 0 0 0 0 0 0 0
Nghost:    19445 ave 19445 max 19445 min
Histogram: 1 0 0 0 0 0 0 0 0 0
Neighs:    1.70182e+06 ave 1.70182e+06 max 1.70182e+06 min
Histogram: 1 0 0 0 0 0 0 0 0 0

Total # of neighbors = 1701817
Ave neighs/atom = 86.5976
Neighbor list builds = 1505
Dangerous builds not checked
Setting up Verlet run ...
  Unit style    : metal
  Current step  : 50000
  Time step     : 0.001
Per MPI rank memory allocation (min/avg/max) = 19.34 | 19.34 | 19.34 Mbytes
Step Temp Press TotEng PotEng Enthalpy 
   50000    2189.5699   -2178.8895   -54217.948   -59779.655   -54611.488 
   50495    2143.1182    74.856325   -54455.364   -59899.079   -54441.932 
Loop time of 70.0042 on 1 procs for 495 steps with 19652 atoms

Performance: 0.611 ns/day, 39.284 hours/ns, 7.071 timesteps/s
100.0% CPU use with 1 MPI tasks x no OpenMP threads

MPI task timing breakdown:
Section |  min time  |  avg time  |  max time  |%varavg| %total
---------------------------------------------------------------
Pair    | 37.384     | 37.384     | 37.384     |   0.0 | 53.40
Neigh   | 31.475     | 31.475     | 31.475     |   0.0 | 44.96
Comm    | 0.45014    | 0.45014    | 0.45014    |   0.0 |  0.64
Output  | 0.00014186 | 0.00014186 | 0.00014186 |   0.0 |  0.00
Modify  | 0.55039    | 0.55039    | 0.55039    |   0.0 |  0.79
Other   |            | 0.1449     |            |       |  0.21

Nlocal:    19652 ave 19652 max 19652 min
Histogram: 1 0 0 0 0 0 0 0 0 0
Nghost:    19491 ave 19491 max 19491 min
Histogram: 1 0 0 0 0 0 0 0 0 0
Neighs:    1.71298e+06 ave 1.71298e+06 max 1.71298e+06 min
Histogram: 1 0 0 0 0 0 0 0 0 0

Total # of neighbors = 1712977
Ave neighs/atom = 87.1655
Neighbor list builds = 495
Dangerous builds not checked
Setting up Verlet run ...
  Unit style    : metal
  Current step  : 50495
  Time step     : 0.001
Per MPI rank memory allocation (min/avg/max) = 19.34 | 19.34 | 19.34 Mbytes
Step Temp Press TotEng PotEng Enthalpy 
   50495    2143.1182    74.856325   -54455.364   -59899.079   -54441.932 
   52000    2170.4167    1654.4264   -54446.411   -59959.467   -54150.448 
Loop time of 257.558 on 1 procs for 1505 steps with 19652 atoms

Performance: 0.505 ns/day, 47.537 hours/ns, 5.843 timesteps/s
98.1% CPU use with 1 MPI tasks x no OpenMP threads

MPI task timing breakdown:
Section |  min time  |  avg time  |  max time  |%varavg| %total
---------------------------------------------------------------
Pair    | 141.43     | 141.43     | 141.43     |   0.0 | 54.91
Neigh   | 111.96     | 111.96     | 111.96     |   0.0 | 43.47
Comm    | 1.5878     | 1.5878     | 1.5878     |   0.0 |  0.62
Output  | 0.08324    | 0.08324    | 0.08324    |   0.0 |  0.03
Modify  | 1.9516     | 1.9516     | 1.9516     |   0.0 |  0.76
Other   |            | 0.5443     |            |       |  0.21

Nlocal:    19652 ave 19652 max 19652 min
Histogram: 1 0 0 0 0 0 0 0 0 0
Nghost:    19512 ave 19512 max 19512 min
Histogram: 1 0 0 0 0 0 0 0 0 0
Neighs:    1.71849e+06 ave 1.71849e+06 max 1.71849e+06 min
Histogram: 1 0 0 0 0 0 0 0 0 0

Total # of neighbors = 1718493
Ave neighs/atom = 87.4462
Neighbor list builds = 1505
Dangerous builds not checked
Setting up Verlet run ...
  Unit style    : metal
  Current step  : 52000
  Time step     : 0.001
Per MPI rank memory allocation (min/avg/max) = 19.34 | 19.34 | 19.34 Mbytes
Step Temp Press TotEng PotEng Enthalpy 
   52000    2170.4167    1654.4264   -54446.411   -59959.467   -54150.448 
   52495    2119.6915   -591.63758   -54719.574   -60103.784   -54825.179 
Loop time of 91.3133 on 1 procs for 495 steps with 19652 atoms

Performance: 0.468 ns/day, 51.242 hours/ns, 5.421 timesteps/s
97.0% CPU use with 1 MPI tasks x no OpenMP threads

MPI task timing breakdown:
Section |  min time  |  avg time  |  max time  |%varavg| %total
---------------------------------------------------------------
Pair    | 50.545     | 50.545     | 50.545     |   0.0 | 55.35
Neigh   | 39.312     | 39.312     | 39.312     |   0.0 | 43.05
Comm    | 0.56849    | 0.56849    | 0.56849    |   0.0 |  0.62
Output  | 0.00017309 | 0.00017309 | 0.00017309 |   0.0 |  0.00
Modify  | 0.69295    | 0.69295    | 0.69295    |   0.0 |  0.76
Other   |            | 0.195      |            |       |  0.21

Nlocal:    19652 ave 19652 max 19652 min
Histogram: 1 0 0 0 0 0 0 0 0 0
Nghost:    19465 ave 19465 max 19465 min
Histogram: 1 0 0 0 0 0 0 0 0 0
Neighs:    1.72173e+06 ave 1.72173e+06 max 1.72173e+06 min
Histogram: 1 0 0 0 0 0 0 0 0 0

Total # of neighbors = 1721731
Ave neighs/atom = 87.611
Neighbor list builds = 495
Dangerous builds not checked
Setting up Verlet run ...
  Unit style    : metal
  Current step  : 52495
  Time step     : 0.001
Per MPI rank memory allocation (min/avg/max) = 19.34 | 19.34 | 19.34 Mbytes
Step Temp Press TotEng PotEng Enthalpy 
   52495    2119.6915   -591.63758   -54719.574   -60103.784   -54825.179 
   54000    2119.3861    115.84938   -54733.607    -60117.04   -54712.961 
Loop time of 258.359 on 1 procs for 1505 steps with 19652 atoms

Performance: 0.503 ns/day, 47.685 hours/ns, 5.825 timesteps/s
98.5% CPU use with 1 MPI tasks x no OpenMP threads

MPI task timing breakdown:
Section |  min time  |  avg time  |  max time  |%varavg| %total
---------------------------------------------------------------
Pair    | 142.35     | 142.35     | 142.35     |   0.0 | 55.10
Neigh   | 111.53     | 111.53     | 111.53     |   0.0 | 43.17
Comm    | 1.6323     | 1.6323     | 1.6323     |   0.0 |  0.63
Output  | 0.32497    | 0.32497    | 0.32497    |   0.0 |  0.13
Modify  | 1.957      | 1.957      | 1.957      |   0.0 |  0.76
Other   |            | 0.5678     |            |       |  0.22

Nlocal:    19652 ave 19652 max 19652 min
Histogram: 1 0 0 0 0 0 0 0 0 0
Nghost:    19499 ave 19499 max 19499 min
Histogram: 1 0 0 0 0 0 0 0 0 0
Neighs:    1.72423e+06 ave 1.72423e+06 max 1.72423e+06 min
Histogram: 1 0 0 0 0 0 0 0 0 0

Total # of neighbors = 1724227
Ave neighs/atom = 87.738
Neighbor list builds = 1505
Dangerous builds not checked
Setting up Verlet run ...
  Unit style    : metal
  Current step  : 54000
  Time step     : 0.001
Per MPI rank memory allocation (min/avg/max) = 19.34 | 19.34 | 19.34 Mbytes
Step Temp Press TotEng PotEng Enthalpy 
   54000    2119.3861    115.84938   -54733.607    -60117.04   -54712.961 
   54495    2070.9091   -214.29194   -54992.722   -60253.019    -55030.79 
Loop time of 66.9044 on 1 procs for 495 steps with 19652 atoms

Performance: 0.639 ns/day, 37.545 hours/ns, 7.399 timesteps/s
99.8% CPU use with 1 MPI tasks x no OpenMP threads

MPI task timing breakdown:
Section |  min time  |  avg time  |  max time  |%varavg| %total
---------------------------------------------------------------
Pair    | 35.968     | 35.968     | 35.968     |   0.0 | 53.76
Neigh   | 29.843     | 29.843     | 29.843     |   0.0 | 44.61
Comm    | 0.43545    | 0.43545    | 0.43545    |   0.0 |  0.65
Output  | 0.00012898 | 0.00012898 | 0.00012898 |   0.0 |  0.00
Modify  | 0.52141    | 0.52141    | 0.52141    |   0.0 |  0.78
Other   |            | 0.1362     |            |       |  0.20

Nlocal:    19652 ave 19652 max 19652 min
Histogram: 1 0 0 0 0 0 0 0 0 0
Nghost:    19466 ave 19466 max 19466 min
Histogram: 1 0 0 0 0 0 0 0 0 0
Neighs:    1.72988e+06 ave 1.72988e+06 max 1.72988e+06 min
Histogram: 1 0 0 0 0 0 0 0 0 0

Total # of neighbors = 1729882
Ave neighs/atom = 88.0257
Neighbor list builds = 495
Dangerous builds not checked
Setting up Verlet run ...
  Unit style    : metal
  Current step  : 54495
  Time step     : 0.001
Per MPI rank memory allocation (min/avg/max) = 19.34 | 19.34 | 19.34 Mbytes
Step Temp Press TotEng PotEng Enthalpy 
   54495    2070.9091   -214.29194   -54992.722   -60253.019    -55030.79 
   56000    2048.3328    715.60784   -55123.355   -60326.307   -54996.521 
Loop time of 209.678 on 1 procs for 1505 steps with 19652 atoms

Performance: 0.620 ns/day, 38.700 hours/ns, 7.178 timesteps/s
99.7% CPU use with 1 MPI tasks x no OpenMP threads

MPI task timing breakdown:
Section |  min time  |  avg time  |  max time  |%varavg| %total
---------------------------------------------------------------
Pair    | 112.8      | 112.8      | 112.8      |   0.0 | 53.80
Neigh   | 93.449     | 93.449     | 93.449     |   0.0 | 44.57
Comm    | 1.3496     | 1.3496     | 1.3496     |   0.0 |  0.64
Output  | 0.060664   | 0.060664   | 0.060664   |   0.0 |  0.03
Modify  | 1.6007     | 1.6007     | 1.6007     |   0.0 |  0.76
Other   |            | 0.4178     |            |       |  0.20

Nlocal:    19652 ave 19652 max 19652 min
Histogram: 1 0 0 0 0 0 0 0 0 0
Nghost:    19582 ave 19582 max 19582 min
Histogram: 1 0 0 0 0 0 0 0 0 0
Neighs:    1.7337e+06 ave 1.7337e+06 max 1.7337e+06 min
Histogram: 1 0 0 0 0 0 0 0 0 0

Total # of neighbors = 1733699
Ave neighs/atom = 88.22
Neighbor list builds = 1505
Dangerous builds not checked
Setting up Verlet run ...
  Unit style    : metal
  Current step  : 56000
  Time step     : 0.001
Per MPI rank memory allocation (min/avg/max) = 19.34 | 19.34 | 19.34 Mbytes
Step Temp Press TotEng PotEng Enthalpy 
   56000    2048.3328    715.60784   -55123.355   -60326.307   -54996.521 
   56495    2008.9694    713.38659   -55315.016   -60417.981   -55189.049 
Loop time of 67.3529 on 1 procs for 495 steps with 19652 atoms

Performance: 0.635 ns/day, 37.796 hours/ns, 7.349 timesteps/s
99.6% CPU use with 1 MPI tasks x no OpenMP threads

MPI task timing breakdown:
Section |  min time  |  avg time  |  max time  |%varavg| %total
---------------------------------------------------------------
Pair    | 36.221     | 36.221     | 36.221     |   0.0 | 53.78
Neigh   | 30.038     | 30.038     | 30.038     |   0.0 | 44.60
Comm    | 0.43689    | 0.43689    | 0.43689    |   0.0 |  0.65
Output  | 0.00013208 | 0.00013208 | 0.00013208 |   0.0 |  0.00
Modify  | 0.52039    | 0.52039    | 0.52039    |   0.0 |  0.77
Other   |            | 0.136      |            |       |  0.20

Nlocal:    19652 ave 19652 max 19652 min
Histogram: 1 0 0 0 0 0 0 0 0 0
Nghost:    19529 ave 19529 max 19529 min
Histogram: 1 0 0 0 0 0 0 0 0 0
Neighs:    1.73968e+06 ave 1.73968e+06 max 1.73968e+06 min
Histogram: 1 0 0 0 0 0 0 0 0 0

Total # of neighbors = 1739682
Ave neighs/atom = 88.5244
Neighbor list builds = 495
Dangerous builds not checked
Setting up Verlet run ...
  Unit style    : metal
  Current step  : 56495
  Time step     : 0.001
Per MPI rank memory allocation (min/avg/max) = 19.34 | 19.34 | 19.34 Mbytes
Step Temp Press TotEng PotEng Enthalpy 
   56495    2008.9694    713.38659   -55315.016   -60417.981   -55189.049 
   58000    2008.4232   -350.08622   -55366.072    -60467.65   -55427.877 
Loop time of 206.456 on 1 procs for 1505 steps with 19652 atoms

Performance: 0.630 ns/day, 38.106 hours/ns, 7.290 timesteps/s
99.8% CPU use with 1 MPI tasks x no OpenMP threads

MPI task timing breakdown:
Section |  min time  |  avg time  |  max time  |%varavg| %total
---------------------------------------------------------------
Pair    | 111.45     | 111.45     | 111.45     |   0.0 | 53.98
Neigh   | 91.316     | 91.316     | 91.316     |   0.0 | 44.23
Comm    | 1.3354     | 1.3354     | 1.3354     |   0.0 |  0.65
Output  | 0.38058    | 0.38058    | 0.38058    |   0.0 |  0.18
Modify  | 1.5655     | 1.5655     | 1.5655     |   0.0 |  0.76
Other   |            | 0.4113     |            |       |  0.20

Nlocal:    19652 ave 19652 max 19652 min
Histogram: 1 0 0 0 0 0 0 0 0 0
Nghost:    19607 ave 19607 max 19607 min
Histogram: 1 0 0 0 0 0 0 0 0 0
Neighs:    1.74009e+06 ave 1.74009e+06 max 1.74009e+06 min
Histogram: 1 0 0 0 0 0 0 0 0 0

Total # of neighbors = 1740087
Ave neighs/atom = 88.545
Neighbor list builds = 1505
Dangerous builds not checked
Setting up Verlet run ...
  Unit style    : metal
  Current step  : 58000
  Time step     : 0.001
Per MPI rank memory allocation (min/avg/max) = 19.34 | 19.34 | 19.34 Mbytes
Step Temp Press TotEng PotEng Enthalpy 
   58000    2008.4232   -350.08622   -55366.072    -60467.65   -55427.877 
   58495    1948.9206     1119.539   -55603.485   -60553.921   -55406.554 
Loop time of 80.2692 on 1 procs for 495 steps with 19652 atoms

Performance: 0.533 ns/day, 45.044 hours/ns, 6.167 timesteps/s
99.3% CPU use with 1 MPI tasks x no OpenMP threads

MPI task timing breakdown:
Section |  min time  |  avg time  |  max time  |%varavg| %total
---------------------------------------------------------------
Pair    | 44.04      | 44.04      | 44.04      |   0.0 | 54.87
Neigh   | 34.922     | 34.922     | 34.922     |   0.0 | 43.51
Comm    | 0.51386    | 0.51386    | 0.51386    |   0.0 |  0.64
Output  | 0.00011015 | 0.00011015 | 0.00011015 |   0.0 |  0.00
Modify  | 0.63061    | 0.63061    | 0.63061    |   0.0 |  0.79
Other   |            | 0.1626     |            |       |  0.20

Nlocal:    19652 ave 19652 max 19652 min
Histogram: 1 0 0 0 0 0 0 0 0 0
Nghost:    19588 ave 19588 max 19588 min
Histogram: 1 0 0 0 0 0 0 0 0 0
Neighs:    1.74578e+06 ave 1.74578e+06 max 1.74578e+06 min
Histogram: 1 0 0 0 0 0 0 0 0 0

Total # of neighbors = 1745784
Ave neighs/atom = 88.8349
Neighbor list builds = 495
Dangerous builds not checked
Setting up Verlet run ...
  Unit style    : metal
  Current step  : 58495
  Time step     : 0.001
Per MPI rank memory allocation (min/avg/max) = 19.34 | 19.34 | 19.34 Mbytes
Step Temp Press TotEng PotEng Enthalpy 
   58495    1948.9206     1119.539   -55603.485   -60553.921   -55406.554 
   60000    1955.6432    193.09544   -55648.937   -60616.449   -55615.021 
Loop time of 225.464 on 1 procs for 1505 steps with 19652 atoms

Performance: 0.577 ns/day, 41.614 hours/ns, 6.675 timesteps/s
99.6% CPU use with 1 MPI tasks x no OpenMP threads

MPI task timing breakdown:
Section |  min time  |  avg time  |  max time  |%varavg| %total
---------------------------------------------------------------
Pair    | 122.47     | 122.47     | 122.47     |   0.0 | 54.32
Neigh   | 99.255     | 99.255     | 99.255     |   0.0 | 44.02
Comm    | 1.4339     | 1.4339     | 1.4339     |   0.0 |  0.64
Output  | 0.14114    | 0.14114    | 0.14114    |   0.0 |  0.06
Modify  | 1.7129     | 1.7129     | 1.7129     |   0.0 |  0.76
Other   |            | 0.451      |            |       |  0.20

Nlocal:    19652 ave 19652 max 19652 min
Histogram: 1 0 0 0 0 0 0 0 0 0
Nghost:    19604 ave 19604 max 19604 min
Histogram: 1 0 0 0 0 0 0 0 0 0
Neighs:    1.74898e+06 ave 1.74898e+06 max 1.74898e+06 min
Histogram: 1 0 0 0 0 0 0 0 0 0

Total # of neighbors = 1748976
Ave neighs/atom = 88.9974
Neighbor list builds = 1505
Dangerous builds not checked
Setting up Verlet run ...
  Unit style    : metal
  Current step  : 60000
  Time step     : 0.001
Per MPI rank memory allocation (min/avg/max) = 19.34 | 19.34 | 19.34 Mbytes
Step Temp Press TotEng PotEng Enthalpy 
   60000    1955.6432    193.09544   -55648.937   -60616.449   -55615.021 
   60495    1925.3321     468.1734   -55846.634   -60737.153   -55764.692 
Loop time of 76.0188 on 1 procs for 495 steps with 19652 atoms

Performance: 0.563 ns/day, 42.659 hours/ns, 6.512 timesteps/s
98.5% CPU use with 1 MPI tasks x no OpenMP threads

MPI task timing breakdown:
Section |  min time  |  avg time  |  max time  |%varavg| %total
---------------------------------------------------------------
Pair    | 41.621     | 41.621     | 41.621     |   0.0 | 54.75
Neigh   | 33.176     | 33.176     | 33.176     |   0.0 | 43.64
Comm    | 0.47552    | 0.47552    | 0.47552    |   0.0 |  0.63
Output  | 0.00013685 | 0.00013685 | 0.00013685 |   0.0 |  0.00
Modify  | 0.59062    | 0.59062    | 0.59062    |   0.0 |  0.78
Other   |            | 0.1555     |            |       |  0.20

Nlocal:    19652 ave 19652 max 19652 min
Histogram: 1 0 0 0 0 0 0 0 0 0
Nghost:    19733 ave 19733 max 19733 min
Histogram: 1 0 0 0 0 0 0 0 0 0
Neighs:    1.75468e+06 ave 1.75468e+06 max 1.75468e+06 min
Histogram: 1 0 0 0 0 0 0 0 0 0

Total # of neighbors = 1754684
Ave neighs/atom = 89.2878
Neighbor list builds = 495
Dangerous builds not checked
Setting up Verlet run ...
  Unit style    : metal
  Current step  : 60495
  Time step     : 0.001
Per MPI rank memory allocation (min/avg/max) = 19.34 | 19.34 | 19.34 Mbytes
Step Temp Press TotEng PotEng Enthalpy 
   60495    1925.3321     468.1734   -55846.634   -60737.153   -55764.692 
   62000    1897.5397   -1758.1798   -55906.765   -60726.689   -56215.161 
Loop time of 233.421 on 1 procs for 1505 steps with 19652 atoms

Performance: 0.557 ns/day, 43.082 hours/ns, 6.448 timesteps/s
99.1% CPU use with 1 MPI tasks x no OpenMP threads

MPI task timing breakdown:
Section |  min time  |  avg time  |  max time  |%varavg| %total
---------------------------------------------------------------
Pair    | 126.74     | 126.74     | 126.74     |   0.0 | 54.30
Neigh   | 102.85     | 102.85     | 102.85     |   0.0 | 44.06
Comm    | 1.4805     | 1.4805     | 1.4805     |   0.0 |  0.63
Output  | 0.090367   | 0.090367   | 0.090367   |   0.0 |  0.04
Modify  | 1.7943     | 1.7943     | 1.7943     |   0.0 |  0.77
Other   |            | 0.4642     |            |       |  0.20

Nlocal:    19652 ave 19652 max 19652 min
Histogram: 1 0 0 0 0 0 0 0 0 0
Nghost:    19658 ave 19658 max 19658 min
Histogram: 1 0 0 0 0 0 0 0 0 0
Neighs:    1.7505e+06 ave 1.7505e+06 max 1.7505e+06 min
Histogram: 1 0 0 0 0 0 0 0 0 0

Total # of neighbors = 1750498
Ave neighs/atom = 89.0748
Neighbor list builds = 1505
Dangerous builds not checked
Setting up Verlet run ...
  Unit style    : metal
  Current step  : 62000
  Time step     : 0.001
Per MPI rank memory allocation (min/avg/max) = 19.34 | 19.34 | 19.34 Mbytes
Step Temp Press TotEng PotEng Enthalpy 
   62000    1897.5397   -1758.1798   -55906.765   -60726.689   -56215.161 
   62495    1851.2718     330.3798   -56154.701     -60857.1   -56097.072 
Loop time of 84.5022 on 1 procs for 495 steps with 19652 atoms

Performance: 0.506 ns/day, 47.420 hours/ns, 5.858 timesteps/s
99.2% CPU use with 1 MPI tasks x no OpenMP threads

MPI task timing breakdown:
Section |  min time  |  avg time  |  max time  |%varavg| %total
---------------------------------------------------------------
Pair    | 46.345     | 46.345     | 46.345     |   0.0 | 54.84
Neigh   | 36.781     | 36.781     | 36.781     |   0.0 | 43.53
Comm    | 0.53728    | 0.53728    | 0.53728    |   0.0 |  0.64
Output  | 0.00011802 | 0.00011802 | 0.00011802 |   0.0 |  0.00
Modify  | 0.66881    | 0.66881    | 0.66881    |   0.0 |  0.79
Other   |            | 0.1706     |            |       |  0.20

Nlocal:    19652 ave 19652 max 19652 min
Histogram: 1 0 0 0 0 0 0 0 0 0
Nghost:    19675 ave 19675 max 19675 min
Histogram: 1 0 0 0 0 0 0 0 0 0
Neighs:    1.76068e+06 ave 1.76068e+06 max 1.76068e+06 min
Histogram: 1 0 0 0 0 0 0 0 0 0

Total # of neighbors = 1760676
Ave neighs/atom = 89.5927
Neighbor list builds = 495
Dangerous builds not checked
Setting up Verlet run ...
  Unit style    : metal
  Current step  : 62495
  Time step     : 0.001
Per MPI rank memory allocation (min/avg/max) = 19.34 | 19.34 | 19.34 Mbytes
Step Temp Press TotEng PotEng Enthalpy 
   62495    1851.2718     330.3798   -56154.701     -60857.1   -56097.072 
   64000    1856.5853    213.03281   -56251.998   -60967.894   -56214.963 
Loop time of 233.42 on 1 procs for 1505 steps with 19652 atoms

Performance: 0.557 ns/day, 43.082 hours/ns, 6.448 timesteps/s
99.0% CPU use with 1 MPI tasks x no OpenMP threads

MPI task timing breakdown:
Section |  min time  |  avg time  |  max time  |%varavg| %total
---------------------------------------------------------------
Pair    | 127.09     | 127.09     | 127.09     |   0.0 | 54.45
Neigh   | 102.53     | 102.53     | 102.53     |   0.0 | 43.93
Comm    | 1.4452     | 1.4452     | 1.4452     |   0.0 |  0.62
Output  | 0.079685   | 0.079685   | 0.079685   |   0.0 |  0.03
Modify  | 1.8011     | 1.8011     | 1.8011     |   0.0 |  0.77
Other   |            | 0.4689     |            |       |  0.20

Nlocal:    19652 ave 19652 max 19652 min
Histogram: 1 0 0 0 0 0 0 0 0 0
Nghost:    19721 ave 19721 max 19721 min
Histogram: 1 0 0 0 0 0 0 0 0 0
Neighs:    1.7662e+06 ave 1.7662e+06 max 1.7662e+06 min
Histogram: 1 0 0 0 0 0 0 0 0 0

Total # of neighbors = 1766197
Ave neighs/atom = 89.8737
Neighbor list builds = 1505
Dangerous builds not checked
Setting up Verlet run ...
  Unit style    : metal
  Current step  : 64000
  Time step     : 0.001
Per MPI rank memory allocation (min/avg/max) = 19.34 | 19.34 | 19.34 Mbytes
Step Temp Press TotEng PotEng Enthalpy 
   64000    1856.5853    213.03281   -56251.998   -60967.894   -56214.963 
   64495    1815.7851   -461.36278   -56448.941     -61061.2    -56529.03 
Loop time of 88.1358 on 1 procs for 495 steps with 19652 atoms

Performance: 0.485 ns/day, 49.459 hours/ns, 5.616 timesteps/s
98.3% CPU use with 1 MPI tasks x no OpenMP threads

MPI task timing breakdown:
Section |  min time  |  avg time  |  max time  |%varavg| %total
---------------------------------------------------------------
Pair    | 49.094     | 49.094     | 49.094     |   0.0 | 55.70
Neigh   | 37.608     | 37.608     | 37.608     |   0.0 | 42.67
Comm    | 0.54546    | 0.54546    | 0.54546    |   0.0 |  0.62
Output  | 0.00016809 | 0.00016809 | 0.00016809 |   0.0 |  0.00
Modify  | 0.68599    | 0.68599    | 0.68599    |   0.0 |  0.78
Other   |            | 0.2022     |            |       |  0.23

Nlocal:    19652 ave 19652 max 19652 min
Histogram: 1 0 0 0 0 0 0 0 0 0
Nghost:    19735 ave 19735 max 19735 min
Histogram: 1 0 0 0 0 0 0 0 0 0
Neighs:    1.76841e+06 ave 1.76841e+06 max 1.76841e+06 min
Histogram: 1 0 0 0 0 0 0 0 0 0

Total # of neighbors = 1768412
Ave neighs/atom = 89.9864
Neighbor list builds = 495
Dangerous builds not checked
Setting up Verlet run ...
  Unit style    : metal
  Current step  : 64495
  Time step     : 0.001
Per MPI rank memory allocation (min/avg/max) = 19.34 | 19.34 | 19.34 Mbytes
Step Temp Press TotEng PotEng Enthalpy 
   64495    1815.7851   -461.36278   -56448.941     -61061.2    -56529.03 
   66000     1806.392    1285.0897   -56528.381   -61116.782   -56306.022 
Loop time of 214.077 on 1 procs for 1505 steps with 19652 atoms

Performance: 0.607 ns/day, 39.512 hours/ns, 7.030 timesteps/s
99.0% CPU use with 1 MPI tasks x no OpenMP threads

MPI task timing breakdown:
Section |  min time  |  avg time  |  max time  |%varavg| %total
---------------------------------------------------------------
Pair    | 116.59     | 116.59     | 116.59     |   0.0 | 54.46
Neigh   | 93.788     | 93.788     | 93.788     |   0.0 | 43.81
Comm    | 1.3603     | 1.3603     | 1.3603     |   0.0 |  0.64
Output  | 0.27567    | 0.27567    | 0.27567    |   0.0 |  0.13
Modify  | 1.6307     | 1.6307     | 1.6307     |   0.0 |  0.76
Other   |            | 0.4377     |            |       |  0.20

Nlocal:    19652 ave 19652 max 19652 min
Histogram: 1 0 0 0 0 0 0 0 0 0
Nghost:    19743 ave 19743 max 19743 min
Histogram: 1 0 0 0 0 0 0 0 0 0
Neighs:    1.77401e+06 ave 1.77401e+06 max 1.77401e+06 min
Histogram: 1 0 0 0 0 0 0 0 0 0

Total # of neighbors = 1774008
Ave neighs/atom = 90.2711
Neighbor list builds = 1505
Dangerous builds not checked
Setting up Verlet run ...
  Unit style    : metal
  Current step  : 66000
  Time step     : 0.001
Per MPI rank memory allocation (min/avg/max) = 19.34 | 19.34 | 19.34 Mbytes
Step Temp Press TotEng PotEng Enthalpy 
   66000     1806.392    1285.0897   -56528.381   -61116.782   -56306.022 
   66495    1778.0083    2085.7392   -56739.307    -61255.61   -56380.032 
Loop time of 76.1258 on 1 procs for 495 steps with 19652 atoms

Performance: 0.562 ns/day, 42.719 hours/ns, 6.502 timesteps/s
98.2% CPU use with 1 MPI tasks x no OpenMP threads

MPI task timing breakdown:
Section |  min time  |  avg time  |  max time  |%varavg| %total
---------------------------------------------------------------
Pair    | 41.621     | 41.621     | 41.621     |   0.0 | 54.67
Neigh   | 33.244     | 33.244     | 33.244     |   0.0 | 43.67
Comm    | 0.48085    | 0.48085    | 0.48085    |   0.0 |  0.63
Output  | 0.031024   | 0.031024   | 0.031024   |   0.0 |  0.04
Modify  | 0.59745    | 0.59745    | 0.59745    |   0.0 |  0.78
Other   |            | 0.152      |            |       |  0.20

Nlocal:    19652 ave 19652 max 19652 min
Histogram: 1 0 0 0 0 0 0 0 0 0
Nghost:    19793 ave 19793 max 19793 min
Histogram: 1 0 0 0 0 0 0 0 0 0
Neighs:    1.78216e+06 ave 1.78216e+06 max 1.78216e+06 min
Histogram: 1 0 0 0 0 0 0 0 0 0

Total # of neighbors = 1782160
Ave neighs/atom = 90.6859
Neighbor list builds = 495
Dangerous builds not checked
Setting up Verlet run ...
  Unit style    : metal
  Current step  : 66495
  Time step     : 0.001
Per MPI rank memory allocation (min/avg/max) = 19.34 | 19.34 | 19.34 Mbytes
Step Temp Press TotEng PotEng Enthalpy 
   66495    1778.0083    2085.7392   -56739.307    -61255.61   -56380.032 
   68000     1741.429   -112.73139   -56897.471   -61320.859   -56916.891 
Loop time of 223.635 on 1 procs for 1505 steps with 19652 atoms

Performance: 0.581 ns/day, 41.276 hours/ns, 6.730 timesteps/s
99.2% CPU use with 1 MPI tasks x no OpenMP threads

MPI task timing breakdown:
Section |  min time  |  avg time  |  max time  |%varavg| %total
---------------------------------------------------------------
Pair    | 120.84     | 120.84     | 120.84     |   0.0 | 54.03
Neigh   | 99.126     | 99.126     | 99.126     |   0.0 | 44.33
Comm    | 1.3796     | 1.3796     | 1.3796     |   0.0 |  0.62
Output  | 0.12667    | 0.12667    | 0.12667    |   0.0 |  0.06
Modify  | 1.7116     | 1.7116     | 1.7116     |   0.0 |  0.77
Other   |            | 0.4503     |            |       |  0.20

Nlocal:    19652 ave 19652 max 19652 min
Histogram: 1 0 0 0 0 0 0 0 0 0
Nghost:    19731 ave 19731 max 19731 min
Histogram: 1 0 0 0 0 0 0 0 0 0
Neighs:    1.78188e+06 ave 1.78188e+06 max 1.78188e+06 min
Histogram: 1 0 0 0 0 0 0 0 0 0

Total # of neighbors = 1781883
Ave neighs/atom = 90.6718
Neighbor list builds = 1505
Dangerous builds not checked
Setting up Verlet run ...
  Unit style    : metal
  Current step  : 68000
  Time step     : 0.001
Per MPI rank memory allocation (min/avg/max) = 19.34 | 19.34 | 19.34 Mbytes
Step Temp Press TotEng PotEng Enthalpy 
   68000     1741.429   -112.73139   -56897.471   -61320.859   -56916.891 
   68495    1714.3579    119.12083   -57026.205    -61380.83   -57005.726 
Loop time of 72.1874 on 1 procs for 495 steps with 19652 atoms

Performance: 0.592 ns/day, 40.509 hours/ns, 6.857 timesteps/s
99.6% CPU use with 1 MPI tasks x no OpenMP threads

MPI task timing breakdown:
Section |  min time  |  avg time  |  max time  |%varavg| %total
---------------------------------------------------------------
Pair    | 39.156     | 39.156     | 39.156     |   0.0 | 54.24
Neigh   | 31.879     | 31.879     | 31.879     |   0.0 | 44.16
Comm    | 0.44085    | 0.44085    | 0.44085    |   0.0 |  0.61
Output  | 0.00012302 | 0.00012302 | 0.00012302 |   0.0 |  0.00
Modify  | 0.56314    | 0.56314    | 0.56314    |   0.0 |  0.78
Other   |            | 0.1481     |            |       |  0.21

Nlocal:    19652 ave 19652 max 19652 min
Histogram: 1 0 0 0 0 0 0 0 0 0
Nghost:    19871 ave 19871 max 19871 min
Histogram: 1 0 0 0 0 0 0 0 0 0
Neighs:    1.78551e+06 ave 1.78551e+06 max 1.78551e+06 min
Histogram: 1 0 0 0 0 0 0 0 0 0

Total # of neighbors = 1785506
Ave neighs/atom = 90.8562
Neighbor list builds = 495
Dangerous builds not checked
Setting up Verlet run ...
  Unit style    : metal
  Current step  : 68495
  Time step     : 0.001
Per MPI rank memory allocation (min/avg/max) = 19.34 | 19.34 | 19.34 Mbytes
Step Temp Press TotEng PotEng Enthalpy 
   68495    1714.3579    119.12083   -57026.205    -61380.83   -57005.726 
   70000    1698.4972   -378.72581   -57105.633   -61419.971   -57170.685 
Loop time of 221.824 on 1 procs for 1505 steps with 19652 atoms

Performance: 0.586 ns/day, 40.942 hours/ns, 6.785 timesteps/s
99.0% CPU use with 1 MPI tasks x no OpenMP threads

MPI task timing breakdown:
Section |  min time  |  avg time  |  max time  |%varavg| %total
---------------------------------------------------------------
Pair    | 120.18     | 120.18     | 120.18     |   0.0 | 54.18
Neigh   | 97.927     | 97.927     | 97.927     |   0.0 | 44.15
Comm    | 1.3601     | 1.3601     | 1.3601     |   0.0 |  0.61
Output  | 0.21645    | 0.21645    | 0.21645    |   0.0 |  0.10
Modify  | 1.6945     | 1.6945     | 1.6945     |   0.0 |  0.76
Other   |            | 0.4451     |            |       |  0.20

Nlocal:    19652 ave 19652 max 19652 min
Histogram: 1 0 0 0 0 0 0 0 0 0
Nghost:    19795 ave 19795 max 19795 min
Histogram: 1 0 0 0 0 0 0 0 0 0
Neighs:    1.78684e+06 ave 1.78684e+06 max 1.78684e+06 min
Histogram: 1 0 0 0 0 0 0 0 0 0

Total # of neighbors = 1786835
Ave neighs/atom = 90.9238
Neighbor list builds = 1505
Dangerous builds not checked
Setting up Verlet run ...
  Unit style    : metal
  Current step  : 70000
  Time step     : 0.001
Per MPI rank memory allocation (min/avg/max) = 19.34 | 19.34 | 19.34 Mbytes
Step Temp Press TotEng PotEng Enthalpy 
   70000    1698.4972   -378.72581   -57105.633   -61419.971   -57170.685 
   70495     1659.104    -1190.907   -57362.166   -61576.441   -57565.983 
Loop time of 73.2277 on 1 procs for 495 steps with 19652 atoms

Performance: 0.584 ns/day, 41.093 hours/ns, 6.760 timesteps/s
99.9% CPU use with 1 MPI tasks x no OpenMP threads

MPI task timing breakdown:
Section |  min time  |  avg time  |  max time  |%varavg| %total
---------------------------------------------------------------
Pair    | 40.265     | 40.265     | 40.265     |   0.0 | 54.99
Neigh   | 31.796     | 31.796     | 31.796     |   0.0 | 43.42
Comm    | 0.45162    | 0.45162    | 0.45162    |   0.0 |  0.62
Output  | 0.00013804 | 0.00013804 | 0.00013804 |   0.0 |  0.00
Modify  | 0.55664    | 0.55664    | 0.55664    |   0.0 |  0.76
Other   |            | 0.1588     |            |       |  0.22

Nlocal:    19652 ave 19652 max 19652 min
Histogram: 1 0 0 0 0 0 0 0 0 0
Nghost:    19840 ave 19840 max 19840 min
Histogram: 1 0 0 0 0 0 0 0 0 0
Neighs:    1.79375e+06 ave 1.79375e+06 max 1.79375e+06 min
Histogram: 1 0 0 0 0 0 0 0 0 0

Total # of neighbors = 1793750
Ave neighs/atom = 91.2757
Neighbor list builds = 495
Dangerous builds not checked
Setting up Verlet run ...
  Unit style    : metal
  Current step  : 70495
  Time step     : 0.001
Per MPI rank memory allocation (min/avg/max) = 19.34 | 19.34 | 19.34 Mbytes
Step Temp Press TotEng PotEng Enthalpy 
   70495     1659.104    -1190.907   -57362.166   -61576.441   -57565.983 
   72000    1658.9412   -591.84475   -57385.565   -61599.426   -57486.712 
Loop time of 217.897 on 1 procs for 1505 steps with 19652 atoms

Performance: 0.597 ns/day, 40.217 hours/ns, 6.907 timesteps/s
99.7% CPU use with 1 MPI tasks x no OpenMP threads

MPI task timing breakdown:
Section |  min time  |  avg time  |  max time  |%varavg| %total
---------------------------------------------------------------
Pair    | 119.17     | 119.17     | 119.17     |   0.0 | 54.69
Neigh   | 95.123     | 95.123     | 95.123     |   0.0 | 43.65
Comm    | 1.3594     | 1.3594     | 1.3594     |   0.0 |  0.62
Output  | 0.14964    | 0.14964    | 0.14964    |   0.0 |  0.07
Modify  | 1.6445     | 1.6445     | 1.6445     |   0.0 |  0.75
Other   |            | 0.4475     |            |       |  0.21

Nlocal:    19652 ave 19652 max 19652 min
Histogram: 1 0 0 0 0 0 0 0 0 0
Nghost:    19793 ave 19793 max 19793 min
Histogram: 1 0 0 0 0 0 0 0 0 0
Neighs:    1.79505e+06 ave 1.79505e+06 max 1.79505e+06 min
Histogram: 1 0 0 0 0 0 0 0 0 0

Total # of neighbors = 1795049
Ave neighs/atom = 91.3418
Neighbor list builds = 1505
Dangerous builds not checked
Setting up Verlet run ...
  Unit style    : metal
  Current step  : 72000
  Time step     : 0.001
Per MPI rank memory allocation (min/avg/max) = 19.34 | 19.34 | 19.34 Mbytes
Step Temp Press TotEng PotEng Enthalpy 
   72000    1658.9412   -591.84475   -57385.565   -61599.426   -57486.712 
   72495    1617.3536    392.79451   -57640.819   -61749.044   -57574.001 
Loop time of 64.928 on 1 procs for 495 steps with 19652 atoms

Performance: 0.659 ns/day, 36.435 hours/ns, 7.624 timesteps/s
100.0% CPU use with 1 MPI tasks x no OpenMP threads

MPI task timing breakdown:
Section |  min time  |  avg time  |  max time  |%varavg| %total
---------------------------------------------------------------
Pair    | 35.125     | 35.125     | 35.125     |   0.0 | 54.10
Neigh   | 28.792     | 28.792     | 28.792     |   0.0 | 44.34
Comm    | 0.39363    | 0.39363    | 0.39363    |   0.0 |  0.61
Output  | 0.00012803 | 0.00012803 | 0.00012803 |   0.0 |  0.00
Modify  | 0.48668    | 0.48668    | 0.48668    |   0.0 |  0.75
Other   |            | 0.1307     |            |       |  0.20

Nlocal:    19652 ave 19652 max 19652 min
Histogram: 1 0 0 0 0 0 0 0 0 0
Nghost:    19813 ave 19813 max 19813 min
Histogram: 1 0 0 0 0 0 0 0 0 0
Neighs:    1.80381e+06 ave 1.80381e+06 max 1.80381e+06 min
Histogram: 1 0 0 0 0 0 0 0 0 0

Total # of neighbors = 1803807
Ave neighs/atom = 91.7875
Neighbor list builds = 495
Dangerous builds not checked
Setting up Verlet run ...
  Unit style    : metal
  Current step  : 72495
  Time step     : 0.001
Per MPI rank memory allocation (min/avg/max) = 19.34 | 19.34 | 19.34 Mbytes
Step Temp Press TotEng PotEng Enthalpy 
   72495    1617.3536    392.79451   -57640.819   -61749.044   -57574.001 
   74000    1603.2417   -789.48473   -57716.465   -61788.845   -57850.797 
Loop time of 211.211 on 1 procs for 1505 steps with 19652 atoms

Performance: 0.616 ns/day, 38.983 hours/ns, 7.126 timesteps/s
99.7% CPU use with 1 MPI tasks x no OpenMP threads

MPI task timing breakdown:
Section |  min time  |  avg time  |  max time  |%varavg| %total
---------------------------------------------------------------
Pair    | 114.79     | 114.79     | 114.79     |   0.0 | 54.35
Neigh   | 93.056     | 93.056     | 93.056     |   0.0 | 44.06
Comm    | 1.28       | 1.28       | 1.28       |   0.0 |  0.61
Output  | 0.072405   | 0.072405   | 0.072405   |   0.0 |  0.03
Modify  | 1.5841     | 1.5841     | 1.5841     |   0.0 |  0.75
Other   |            | 0.4301     |            |       |  0.20

Nlocal:    19652 ave 19652 max 19652 min
Histogram: 1 0 0 0 0 0 0 0 0 0
Nghost:    19896 ave 19896 max 19896 min
Histogram: 1 0 0 0 0 0 0 0 0 0
Neighs:    1.80324e+06 ave 1.80324e+06 max 1.80324e+06 min
Histogram: 1 0 0 0 0 0 0 0 0 0

Total # of neighbors = 1803235
Ave neighs/atom = 91.7583
Neighbor list builds = 1505
Dangerous builds not checked
Setting up Verlet run ...
  Unit style    : metal
  Current step  : 74000
  Time step     : 0.001
Per MPI rank memory allocation (min/avg/max) = 19.34 | 19.34 | 19.34 Mbytes
Step Temp Press TotEng PotEng Enthalpy 
   74000    1603.2417   -789.48473   -57716.465   -61788.845   -57850.797 
   74495    1561.6389   -669.01875    -57951.57   -61918.275   -58064.895 
Loop time of 73.5684 on 1 procs for 495 steps with 19652 atoms

Performance: 0.581 ns/day, 41.284 hours/ns, 6.728 timesteps/s
99.7% CPU use with 1 MPI tasks x no OpenMP threads

MPI task timing breakdown:
Section |  min time  |  avg time  |  max time  |%varavg| %total
---------------------------------------------------------------
Pair    | 40.578     | 40.578     | 40.578     |   0.0 | 55.16
Neigh   | 31.825     | 31.825     | 31.825     |   0.0 | 43.26
Comm    | 0.44358    | 0.44358    | 0.44358    |   0.0 |  0.60
Output  | 0.00014591 | 0.00014591 | 0.00014591 |   0.0 |  0.00
Modify  | 0.55186    | 0.55186    | 0.55186    |   0.0 |  0.75
Other   |            | 0.1698     |            |       |  0.23

Nlocal:    19652 ave 19652 max 19652 min
Histogram: 1 0 0 0 0 0 0 0 0 0
Nghost:    19978 ave 19978 max 19978 min
Histogram: 1 0 0 0 0 0 0 0 0 0
Neighs:    1.8107e+06 ave 1.8107e+06 max 1.8107e+06 min
Histogram: 1 0 0 0 0 0 0 0 0 0

Total # of neighbors = 1810700
Ave neighs/atom = 92.1382
Neighbor list builds = 495
Dangerous builds not checked
Setting up Verlet run ...
  Unit style    : metal
  Current step  : 74495
  Time step     : 0.001
Per MPI rank memory allocation (min/avg/max) = 19.34 | 19.34 | 19.34 Mbytes
Step Temp Press TotEng PotEng Enthalpy 
   74495    1561.6389   -669.01875    -57951.57   -61918.275   -58064.895 
   76000    1548.7631   -2148.3366   -58022.368   -61956.367   -58386.551 
Loop time of 215.977 on 1 procs for 1505 steps with 19652 atoms

Performance: 0.602 ns/day, 39.863 hours/ns, 6.968 timesteps/s
99.9% CPU use with 1 MPI tasks x no OpenMP threads

MPI task timing breakdown:
Section |  min time  |  avg time  |  max time  |%varavg| %total
---------------------------------------------------------------
Pair    | 118.49     | 118.49     | 118.49     |   0.0 | 54.86
Neigh   | 94.013     | 94.013     | 94.013     |   0.0 | 43.53
Comm    | 1.2976     | 1.2976     | 1.2976     |   0.0 |  0.60
Output  | 0.09795    | 0.09795    | 0.09795    |   0.0 |  0.05
Modify  | 1.5896     | 1.5896     | 1.5896     |   0.0 |  0.74
Other   |            | 0.4857     |            |       |  0.22

Nlocal:    19652 ave 19652 max 19652 min
Histogram: 1 0 0 0 0 0 0 0 0 0
Nghost:    19856 ave 19856 max 19856 min
Histogram: 1 0 0 0 0 0 0 0 0 0
Neighs:    1.80889e+06 ave 1.80889e+06 max 1.80889e+06 min
Histogram: 1 0 0 0 0 0 0 0 0 0

Total # of neighbors = 1808886
Ave neighs/atom = 92.0459
Neighbor list builds = 1505
Dangerous builds not checked
Setting up Verlet run ...
  Unit style    : metal
  Current step  : 76000
  Time step     : 0.001
Per MPI rank memory allocation (min/avg/max) = 19.34 | 19.34 | 19.34 Mbytes
Step Temp Press TotEng PotEng Enthalpy 
   76000    1548.7631   -2148.3366   -58022.368   -61956.367   -58386.551 
   76495    1508.6454   -466.78978   -58250.512   -62082.608   -58329.231 
Loop time of 74.2822 on 1 procs for 495 steps with 19652 atoms

Performance: 0.576 ns/day, 41.685 hours/ns, 6.664 timesteps/s
99.9% CPU use with 1 MPI tasks x no OpenMP threads

MPI task timing breakdown:
Section |  min time  |  avg time  |  max time  |%varavg| %total
---------------------------------------------------------------
Pair    | 41.06      | 41.06      | 41.06      |   0.0 | 55.28
Neigh   | 32.04      | 32.04      | 32.04      |   0.0 | 43.13
Comm    | 0.4476     | 0.4476     | 0.4476     |   0.0 |  0.60
Output  | 0.000144   | 0.000144   | 0.000144   |   0.0 |  0.00
Modify  | 0.56536    | 0.56536    | 0.56536    |   0.0 |  0.76
Other   |            | 0.1693     |            |       |  0.23

Nlocal:    19652 ave 19652 max 19652 min
Histogram: 1 0 0 0 0 0 0 0 0 0
Nghost:    19991 ave 19991 max 19991 min
Histogram: 1 0 0 0 0 0 0 0 0 0
Neighs:    1.81868e+06 ave 1.81868e+06 max 1.81868e+06 min
Histogram: 1 0 0 0 0 0 0 0 0 0

Total # of neighbors = 1818675
Ave neighs/atom = 92.544
Neighbor list builds = 495
Dangerous builds not checked
Setting up Verlet run ...
  Unit style    : metal
  Current step  : 76495
  Time step     : 0.001
Per MPI rank memory allocation (min/avg/max) = 19.34 | 19.34 | 19.34 Mbytes
Step Temp Press TotEng PotEng Enthalpy 
   76495    1508.6454   -466.78978   -58250.512   -62082.608   -58329.231 
   78000    1512.0049     184.6274   -58354.979    -62195.61   -58323.957 
Loop time of 232.332 on 1 procs for 1505 steps with 19652 atoms

Performance: 0.560 ns/day, 42.881 hours/ns, 6.478 timesteps/s
99.5% CPU use with 1 MPI tasks x no OpenMP threads

MPI task timing breakdown:
Section |  min time  |  avg time  |  max time  |%varavg| %total
---------------------------------------------------------------
Pair    | 128.54     | 128.54     | 128.54     |   0.0 | 55.33
Neigh   | 99.997     | 99.997     | 99.997     |   0.0 | 43.04
Comm    | 1.3928     | 1.3928     | 1.3928     |   0.0 |  0.60
Output  | 0.159      | 0.159      | 0.159      |   0.0 |  0.07
Modify  | 1.7209     | 1.7209     | 1.7209     |   0.0 |  0.74
Other   |            | 0.5193     |            |       |  0.22

Nlocal:    19652 ave 19652 max 19652 min
Histogram: 1 0 0 0 0 0 0 0 0 0
Nghost:    19920 ave 19920 max 19920 min
Histogram: 1 0 0 0 0 0 0 0 0 0
Neighs:    1.82489e+06 ave 1.82489e+06 max 1.82489e+06 min
Histogram: 1 0 0 0 0 0 0 0 0 0

Total # of neighbors = 1824891
Ave neighs/atom = 92.8603
Neighbor list builds = 1505
Dangerous builds not checked
Setting up Verlet run ...
  Unit style    : metal
  Current step  : 78000
  Time step     : 0.001
Per MPI rank memory allocation (min/avg/max) = 19.34 | 19.34 | 19.34 Mbytes
Step Temp Press TotEng PotEng Enthalpy 
   78000    1512.0049     184.6274   -58354.979    -62195.61   -58323.957 
   78495    1461.7685   -331.59794   -58583.379   -62296.404   -58638.964 
Loop time of 87.8975 on 1 procs for 495 steps with 19652 atoms

Performance: 0.487 ns/day, 49.325 hours/ns, 5.632 timesteps/s
99.6% CPU use with 1 MPI tasks x no OpenMP threads

MPI task timing breakdown:
Section |  min time  |  avg time  |  max time  |%varavg| %total
---------------------------------------------------------------
Pair    | 49.117     | 49.117     | 49.117     |   0.0 | 55.88
Neigh   | 37.376     | 37.376     | 37.376     |   0.0 | 42.52
Comm    | 0.529      | 0.529      | 0.529      |   0.0 |  0.60
Output  | 0.00014281 | 0.00014281 | 0.00014281 |   0.0 |  0.00
Modify  | 0.68136    | 0.68136    | 0.68136    |   0.0 |  0.78
Other   |            | 0.194      |            |       |  0.22

Nlocal:    19652 ave 19652 max 19652 min
Histogram: 1 0 0 0 0 0 0 0 0 0
Nghost:    20097 ave 20097 max 20097 min
Histogram: 1 0 0 0 0 0 0 0 0 0
Neighs:    1.82891e+06 ave 1.82891e+06 max 1.82891e+06 min
Histogram: 1 0 0 0 0 0 0 0 0 0

Total # of neighbors = 1828908
Ave neighs/atom = 93.0647
Neighbor list builds = 495
Dangerous builds not checked
Setting up Verlet run ...
  Unit style    : metal
  Current step  : 78495
  Time step     : 0.001
Per MPI rank memory allocation (min/avg/max) = 19.34 | 19.34 | 19.34 Mbytes
Step Temp Press TotEng PotEng Enthalpy 
   78495    1461.7685   -331.59794   -58583.379   -62296.404   -58638.964 
   80000    1471.5654    499.44657   -58608.982   -62346.892   -58525.418 
Loop time of 287.949 on 1 procs for 1505 steps with 19652 atoms

Performance: 0.452 ns/day, 53.147 hours/ns, 5.227 timesteps/s
99.0% CPU use with 1 MPI tasks x no OpenMP threads

MPI task timing breakdown:
Section |  min time  |  avg time  |  max time  |%varavg| %total
---------------------------------------------------------------
Pair    | 161.9      | 161.9      | 161.9      |   0.0 | 56.23
Neigh   | 120.97     | 120.97     | 120.97     |   0.0 | 42.01
Comm    | 1.7605     | 1.7605     | 1.7605     |   0.0 |  0.61
Output  | 0.5132     | 0.5132     | 0.5132     |   0.0 |  0.18
Modify  | 2.1941     | 2.1941     | 2.1941     |   0.0 |  0.76
Other   |            | 0.6109     |            |       |  0.21

Nlocal:    19652 ave 19652 max 19652 min
Histogram: 1 0 0 0 0 0 0 0 0 0
Nghost:    19976 ave 19976 max 19976 min
Histogram: 1 0 0 0 0 0 0 0 0 0
Neighs:    1.83263e+06 ave 1.83263e+06 max 1.83263e+06 min
Histogram: 1 0 0 0 0 0 0 0 0 0

Total # of neighbors = 1832628
Ave neighs/atom = 93.254
Neighbor list builds = 1505
Dangerous builds not checked
Setting up Verlet run ...
  Unit style    : metal
  Current step  : 80000
  Time step     : 0.001
Per MPI rank memory allocation (min/avg/max) = 19.34 | 19.34 | 19.34 Mbytes
Step Temp Press TotEng PotEng Enthalpy 
   80000    1471.5654    499.44657   -58608.982   -62346.892   -58525.418 
   80495     1421.416     399.7756   -58853.425   -62463.951   -58786.748 
Loop time of 78.6685 on 1 procs for 495 steps with 19652 atoms

Performance: 0.544 ns/day, 44.146 hours/ns, 6.292 timesteps/s
99.7% CPU use with 1 MPI tasks x no OpenMP threads

MPI task timing breakdown:
Section |  min time  |  avg time  |  max time  |%varavg| %total
---------------------------------------------------------------
Pair    | 43.557     | 43.557     | 43.557     |   0.0 | 55.37
Neigh   | 33.893     | 33.893     | 33.893     |   0.0 | 43.08
Comm    | 0.46246    | 0.46246    | 0.46246    |   0.0 |  0.59
Output  | 0.00015593 | 0.00015593 | 0.00015593 |   0.0 |  0.00
Modify  | 0.58683    | 0.58683    | 0.58683    |   0.0 |  0.75
Other   |            | 0.169      |            |       |  0.21

Nlocal:    19652 ave 19652 max 19652 min
Histogram: 1 0 0 0 0 0 0 0 0 0
Nghost:    19997 ave 19997 max 19997 min
Histogram: 1 0 0 0 0 0 0 0 0 0
Neighs:    1.83795e+06 ave 1.83795e+06 max 1.83795e+06 min
Histogram: 1 0 0 0 0 0 0 0 0 0

Total # of neighbors = 1837949
Ave neighs/atom = 93.5248
Neighbor list builds = 495
Dangerous builds not checked
Setting up Verlet run ...
  Unit style    : metal
  Current step  : 80495
  Time step     : 0.001
Per MPI rank memory allocation (min/avg/max) = 19.34 | 19.34 | 19.34 Mbytes
Step Temp Press TotEng PotEng Enthalpy 
   80495     1421.416     399.7756   -58853.425   -62463.951   -58786.748 
   82000    1392.9683   -1392.1723   -58959.449   -62497.715   -59191.785 
Loop time of 279.97 on 1 procs for 1505 steps with 19652 atoms

Performance: 0.464 ns/day, 51.674 hours/ns, 5.376 timesteps/s
99.8% CPU use with 1 MPI tasks x no OpenMP threads

MPI task timing breakdown:
Section |  min time  |  avg time  |  max time  |%varavg| %total
---------------------------------------------------------------
Pair    | 156.96     | 156.96     | 156.96     |   0.0 | 56.06
Neigh   | 118.47     | 118.47     | 118.47     |   0.0 | 42.31
Comm    | 1.7299     | 1.7299     | 1.7299     |   0.0 |  0.62
Output  | 0.080738   | 0.080738   | 0.080738   |   0.0 |  0.03
Modify  | 2.1557     | 2.1557     | 2.1557     |   0.0 |  0.77
Other   |            | 0.5736     |            |       |  0.20

Nlocal:    19652 ave 19652 max 19652 min
Histogram: 1 0 0 0 0 0 0 0 0 0
Nghost:    19999 ave 19999 max 19999 min
Histogram: 1 0 0 0 0 0 0 0 0 0
Neighs:    1.83726e+06 ave 1.83726e+06 max 1.83726e+06 min
Histogram: 1 0 0 0 0 0 0 0 0 0

Total # of neighbors = 1837256
Ave neighs/atom = 93.4895
Neighbor list builds = 1505
Dangerous builds not checked
Setting up Verlet run ...
  Unit style    : metal
  Current step  : 82000
  Time step     : 0.001
Per MPI rank memory allocation (min/avg/max) = 19.34 | 19.34 | 19.34 Mbytes
Step Temp Press TotEng PotEng Enthalpy 
   82000    1392.9683   -1392.1723   -58959.449   -62497.715   -59191.785 
   82495    1361.9854   -538.79819    -59177.53   -62637.097   -59267.077 
Loop time of 84.8136 on 1 procs for 495 steps with 19652 atoms

Performance: 0.504 ns/day, 47.595 hours/ns, 5.836 timesteps/s
99.2% CPU use with 1 MPI tasks x no OpenMP threads

MPI task timing breakdown:
Section |  min time  |  avg time  |  max time  |%varavg| %total
---------------------------------------------------------------
Pair    | 47.151     | 47.151     | 47.151     |   0.0 | 55.59
Neigh   | 36.323     | 36.323     | 36.323     |   0.0 | 42.83
Comm    | 0.51372    | 0.51372    | 0.51372    |   0.0 |  0.61
Output  | 0.00013399 | 0.00013399 | 0.00013399 |   0.0 |  0.00
Modify  | 0.6445     | 0.6445     | 0.6445     |   0.0 |  0.76
Other   |            | 0.1812     |            |       |  0.21

Nlocal:    19652 ave 19652 max 19652 min
Histogram: 1 0 0 0 0 0 0 0 0 0
Nghost:    20150 ave 20150 max 20150 min
Histogram: 1 0 0 0 0 0 0 0 0 0
Neighs:    1.84364e+06 ave 1.84364e+06 max 1.84364e+06 min
Histogram: 1 0 0 0 0 0 0 0 0 0

Total # of neighbors = 1843635
Ave neighs/atom = 93.8141
Neighbor list builds = 495
Dangerous builds not checked
Setting up Verlet run ...
  Unit style    : metal
  Current step  : 82495
  Time step     : 0.001
Per MPI rank memory allocation (min/avg/max) = 19.34 | 19.34 | 19.34 Mbytes
Step Temp Press TotEng PotEng Enthalpy 
   82495    1361.9854   -538.79819    -59177.53   -62637.097   -59267.077 
   84000    1357.6682    881.15712   -59309.195   -62757.796   -59163.359 
Loop time of 269.673 on 1 procs for 1505 steps with 19652 atoms

Performance: 0.482 ns/day, 49.774 hours/ns, 5.581 timesteps/s
98.3% CPU use with 1 MPI tasks x no OpenMP threads

MPI task timing breakdown:
Section |  min time  |  avg time  |  max time  |%varavg| %total
---------------------------------------------------------------
Pair    | 151.24     | 151.24     | 151.24     |   0.0 | 56.08
Neigh   | 114.03     | 114.03     | 114.03     |   0.0 | 42.28
Comm    | 1.6652     | 1.6652     | 1.6652     |   0.0 |  0.62
Output  | 0.055928   | 0.055928   | 0.055928   |   0.0 |  0.02
Modify  | 2.1135     | 2.1135     | 2.1135     |   0.0 |  0.78
Other   |            | 0.5712     |            |       |  0.21

Nlocal:    19652 ave 19652 max 19652 min
Histogram: 1 0 0 0 0 0 0 0 0 0
Nghost:    20147 ave 20147 max 20147 min
Histogram: 1 0 0 0 0 0 0 0 0 0
Neighs:    1.85197e+06 ave 1.85197e+06 max 1.85197e+06 min
Histogram: 1 0 0 0 0 0 0 0 0 0

Total # of neighbors = 1851970
Ave neighs/atom = 94.2382
Neighbor list builds = 1505
Dangerous builds not checked
Setting up Verlet run ...
  Unit style    : metal
  Current step  : 84000
  Time step     : 0.001
Per MPI rank memory allocation (min/avg/max) = 19.34 | 19.34 | 19.34 Mbytes
Step Temp Press TotEng PotEng Enthalpy 
   84000    1357.6682    881.15712   -59309.195   -62757.796   -59163.359 
   84495    1320.9119   -16.765149   -59516.372   -62871.608   -59519.138 
Loop time of 94.434 on 1 procs for 495 steps with 19652 atoms

Performance: 0.453 ns/day, 52.993 hours/ns, 5.242 timesteps/s
98.2% CPU use with 1 MPI tasks x no OpenMP threads

MPI task timing breakdown:
Section |  min time  |  avg time  |  max time  |%varavg| %total
---------------------------------------------------------------
Pair    | 53.065     | 53.065     | 53.065     |   0.0 | 56.19
Neigh   | 39.844     | 39.844     | 39.844     |   0.0 | 42.19
Comm    | 0.59285    | 0.59285    | 0.59285    |   0.0 |  0.63
Output  | 0.0001502  | 0.0001502  | 0.0001502  |   0.0 |  0.00
Modify  | 0.7412     | 0.7412     | 0.7412     |   0.0 |  0.78
Other   |            | 0.1908     |            |       |  0.20

Nlocal:    19652 ave 19652 max 19652 min
Histogram: 1 0 0 0 0 0 0 0 0 0
Nghost:    20115 ave 20115 max 20115 min
Histogram: 1 0 0 0 0 0 0 0 0 0
Neighs:    1.85662e+06 ave 1.85662e+06 max 1.85662e+06 min
Histogram: 1 0 0 0 0 0 0 0 0 0

Total # of neighbors = 1856624
Ave neighs/atom = 94.4751
Neighbor list builds = 495
Dangerous builds not checked
Setting up Verlet run ...
  Unit style    : metal
  Current step  : 84495
  Time step     : 0.001
Per MPI rank memory allocation (min/avg/max) = 19.34 | 19.34 | 19.34 Mbytes
Step Temp Press TotEng PotEng Enthalpy 
   84495    1320.9119   -16.765149   -59516.372   -62871.608   -59519.138 
   86000    1289.3462    647.74768   -59714.304   -62989.361   -59607.802 
Loop time of 240.451 on 1 procs for 1505 steps with 19652 atoms

Performance: 0.541 ns/day, 44.380 hours/ns, 6.259 timesteps/s
99.7% CPU use with 1 MPI tasks x no OpenMP threads

MPI task timing breakdown:
Section |  min time  |  avg time  |  max time  |%varavg| %total
---------------------------------------------------------------
Pair    | 133.55     | 133.55     | 133.55     |   0.0 | 55.54
Neigh   | 102.94     | 102.94     | 102.94     |   0.0 | 42.81
Comm    | 1.4622     | 1.4622     | 1.4622     |   0.0 |  0.61
Output  | 0.17253    | 0.17253    | 0.17253    |   0.0 |  0.07
Modify  | 1.8032     | 1.8032     | 1.8032     |   0.0 |  0.75
Other   |            | 0.5227     |            |       |  0.22

Nlocal:    19652 ave 19652 max 19652 min
Histogram: 1 0 0 0 0 0 0 0 0 0
Nghost:    20209 ave 20209 max 20209 min
Histogram: 1 0 0 0 0 0 0 0 0 0
Neighs:    1.86317e+06 ave 1.86317e+06 max 1.86317e+06 min
Histogram: 1 0 0 0 0 0 0 0 0 0

Total # of neighbors = 1863172
Ave neighs/atom = 94.8083
Neighbor list builds = 1505
Dangerous builds not checked
Setting up Verlet run ...
  Unit style    : metal
  Current step  : 86000
  Time step     : 0.001
Per MPI rank memory allocation (min/avg/max) = 19.34 | 19.34 | 19.34 Mbytes
Step Temp Press TotEng PotEng Enthalpy 
   86000    1289.3462    647.74768   -59714.304   -62989.361   -59607.802 
   86495    1263.8266    1244.8372   -59848.018   -63058.253    -59643.82 
Loop time of 68.2454 on 1 procs for 495 steps with 19652 atoms

Performance: 0.627 ns/day, 38.297 hours/ns, 7.253 timesteps/s
100.0% CPU use with 1 MPI tasks x no OpenMP threads

MPI task timing breakdown:
Section |  min time  |  avg time  |  max time  |%varavg| %total
---------------------------------------------------------------
Pair    | 37.785     | 37.785     | 37.785     |   0.0 | 55.37
Neigh   | 29.384     | 29.384     | 29.384     |   0.0 | 43.06
Comm    | 0.41373    | 0.41373    | 0.41373    |   0.0 |  0.61
Output  | 0.00016785 | 0.00016785 | 0.00016785 |   0.0 |  0.00
Modify  | 0.50483    | 0.50483    | 0.50483    |   0.0 |  0.74
Other   |            | 0.1572     |            |       |  0.23

Nlocal:    19652 ave 19652 max 19652 min
Histogram: 1 0 0 0 0 0 0 0 0 0
Nghost:    20169 ave 20169 max 20169 min
Histogram: 1 0 0 0 0 0 0 0 0 0
Neighs:    1.8673e+06 ave 1.8673e+06 max 1.8673e+06 min
Histogram: 1 0 0 0 0 0 0 0 0 0

Total # of neighbors = 1867299
Ave neighs/atom = 95.0183
Neighbor list builds = 495
Dangerous builds not checked
Setting up Verlet run ...
  Unit style    : metal
  Current step  : 86495
  Time step     : 0.001
Per MPI rank memory allocation (min/avg/max) = 19.34 | 19.34 | 19.34 Mbytes
Step Temp Press TotEng PotEng Enthalpy 
   86495    1263.8266    1244.8372   -59848.018   -63058.253    -59643.82 
   88000    1258.9801   -145.52993   -59916.195   -63114.119   -59940.072 
Loop time of 213.509 on 1 procs for 1505 steps with 19652 atoms

Performance: 0.609 ns/day, 39.407 hours/ns, 7.049 timesteps/s
99.2% CPU use with 1 MPI tasks x no OpenMP threads

MPI task timing breakdown:
Section |  min time  |  avg time  |  max time  |%varavg| %total
---------------------------------------------------------------
Pair    | 117.48     | 117.48     | 117.48     |   0.0 | 55.02
Neigh   | 91.689     | 91.689     | 91.689     |   0.0 | 42.94
Comm    | 1.2987     | 1.2987     | 1.2987     |   0.0 |  0.61
Output  | 1.0257     | 1.0257     | 1.0257     |   0.0 |  0.48
Modify  | 1.5619     | 1.5619     | 1.5619     |   0.0 |  0.73
Other   |            | 0.4519     |            |       |  0.21

Nlocal:    19652 ave 19652 max 19652 min
Histogram: 1 0 0 0 0 0 0 0 0 0
Nghost:    20219 ave 20219 max 20219 min
Histogram: 1 0 0 0 0 0 0 0 0 0
Neighs:    1.86625e+06 ave 1.86625e+06 max 1.86625e+06 min
Histogram: 1 0 0 0 0 0 0 0 0 0

Total # of neighbors = 1866249
Ave neighs/atom = 94.9648
Neighbor list builds = 1505
Dangerous builds not checked
Setting up Verlet run ...
  Unit style    : metal
  Current step  : 88000
  Time step     : 0.001
Per MPI rank memory allocation (min/avg/max) = 19.34 | 19.34 | 19.34 Mbytes
Step Temp Press TotEng PotEng Enthalpy 
   88000    1258.9801   -145.52993   -59916.195   -63114.119   -59940.072 
   88495    1210.9778    141.88607   -60165.915   -63241.908   -60142.723 
Loop time of 68.3915 on 1 procs for 495 steps with 19652 atoms

Performance: 0.625 ns/day, 38.379 hours/ns, 7.238 timesteps/s
99.9% CPU use with 1 MPI tasks x no OpenMP threads

MPI task timing breakdown:
Section |  min time  |  avg time  |  max time  |%varavg| %total
---------------------------------------------------------------
Pair    | 37.684     | 37.684     | 37.684     |   0.0 | 55.10
Neigh   | 29.631     | 29.631     | 29.631     |   0.0 | 43.32
Comm    | 0.427      | 0.427      | 0.427      |   0.0 |  0.62
Output  | 0.00010991 | 0.00010991 | 0.00010991 |   0.0 |  0.00
Modify  | 0.51251    | 0.51251    | 0.51251    |   0.0 |  0.75
Other   |            | 0.1376     |            |       |  0.20

Nlocal:    19652 ave 19652 max 19652 min
Histogram: 1 0 0 0 0 0 0 0 0 0
Nghost:    20222 ave 20222 max 20222 min
Histogram: 1 0 0 0 0 0 0 0 0 0
Neighs:    1.87262e+06 ave 1.87262e+06 max 1.87262e+06 min
Histogram: 1 0 0 0 0 0 0 0 0 0

Total # of neighbors = 1872615
Ave neighs/atom = 95.2888
Neighbor list builds = 495
Dangerous builds not checked
Setting up Verlet run ...
  Unit style    : metal
  Current step  : 88495
  Time step     : 0.001
Per MPI rank memory allocation (min/avg/max) = 19.34 | 19.34 | 19.34 Mbytes
Step Temp Press TotEng PotEng Enthalpy 
   88495    1210.9778    141.88607   -60165.915   -63241.908   -60142.723 
   90000    1203.6631    1800.1335   -60300.293   -63357.707   -60007.417 
Loop time of 262.628 on 1 procs for 1505 steps with 19652 atoms

Performance: 0.495 ns/day, 48.473 hours/ns, 5.731 timesteps/s
98.9% CPU use with 1 MPI tasks x no OpenMP threads

MPI task timing breakdown:
Section |  min time  |  avg time  |  max time  |%varavg| %total
---------------------------------------------------------------
Pair    | 147.43     | 147.43     | 147.43     |   0.0 | 56.14
Neigh   | 109.74     | 109.74     | 109.74     |   0.0 | 41.79
Comm    | 1.6062     | 1.6062     | 1.6062     |   0.0 |  0.61
Output  | 1.3004     | 1.3004     | 1.3004     |   0.0 |  0.50
Modify  | 1.981      | 1.981      | 1.981      |   0.0 |  0.75
Other   |            | 0.5685     |            |       |  0.22

Nlocal:    19652 ave 19652 max 19652 min
Histogram: 1 0 0 0 0 0 0 0 0 0
Nghost:    20222 ave 20222 max 20222 min
Histogram: 1 0 0 0 0 0 0 0 0 0
Neighs:    1.88152e+06 ave 1.88152e+06 max 1.88152e+06 min
Histogram: 1 0 0 0 0 0 0 0 0 0

Total # of neighbors = 1881517
Ave neighs/atom = 95.7418
Neighbor list builds = 1505
Dangerous builds not checked
Setting up Verlet run ...
  Unit style    : metal
  Current step  : 90000
  Time step     : 0.001
Per MPI rank memory allocation (min/avg/max) = 19.34 | 19.34 | 19.34 Mbytes
Step Temp Press TotEng PotEng Enthalpy 
   90000    1203.6631    1800.1335   -60300.293   -63357.707   -60007.417 
   90495    1170.2976    350.52542   -60494.989   -63467.651   -60438.033 
Loop time of 94.6952 on 1 procs for 495 steps with 19652 atoms

Performance: 0.452 ns/day, 53.140 hours/ns, 5.227 timesteps/s
99.0% CPU use with 1 MPI tasks x no OpenMP threads

MPI task timing breakdown:
Section |  min time  |  avg time  |  max time  |%varavg| %total
---------------------------------------------------------------
Pair    | 54.067     | 54.067     | 54.067     |   0.0 | 57.10
Neigh   | 39.086     | 39.086     | 39.086     |   0.0 | 41.28
Comm    | 0.60234    | 0.60234    | 0.60234    |   0.0 |  0.64
Output  | 0.00018096 | 0.00018096 | 0.00018096 |   0.0 |  0.00
Modify  | 0.73662    | 0.73662    | 0.73662    |   0.0 |  0.78
Other   |            | 0.2029     |            |       |  0.21

Nlocal:    19652 ave 19652 max 19652 min
[...]
Setting up Verlet run ...
  Unit style    : metal
  Current step  : 120000
  Time step     : 0.001
Per MPI rank memory allocation (min/avg/max) = 19.35 | 19.35 | 19.35 Mbytes
Step Temp Press TotEng PotEng Enthalpy 
  120000     452.3505   -316.16217   -65304.295   -66453.307   -65352.173 
  120495    419.79023   -588.54051   -65461.291   -66527.597   -65550.278 
Loop time of 101.303 on 1 procs for 495 steps with 19652 atoms

Performance: 0.422 ns/day, 56.848 hours/ns, 4.886 timesteps/s
98.4% CPU use with 1 MPI tasks x no OpenMP threads

MPI task timing breakdown:
Section |  min time  |  avg time  |  max time  |%varavg| %total
---------------------------------------------------------------
Pair    | 55.96      | 55.96      | 55.96      |   0.0 | 55.24
Neigh   | 43.788     | 43.788     | 43.788     |   0.0 | 43.22
Comm    | 0.60863    | 0.60863    | 0.60863    |   0.0 |  0.60
Output  | 0.00013518 | 0.00013518 | 0.00013518 |   0.0 |  0.00
Modify  | 0.75482    | 0.75482    | 0.75482    |   0.0 |  0.75
Other   |            | 0.1921     |            |       |  0.19

Nlocal:    19652 ave 19652 max 19652 min
Histogram: 1 0 0 0 0 0 0 0 0 0
Nghost:    20906 ave 20906 max 20906 min
Histogram: 1 0 0 0 0 0 0 0 0 0
Neighs:    2.01859e+06 ave 2.01859e+06 max 2.01859e+06 min
Histogram: 1 0 0 0 0 0 0 0 0 0

Total # of neighbors = 2018590
Ave neighs/atom = 102.717
Neighbor list builds = 495
Dangerous builds not checked
Setting up Verlet run ...
  Unit style    : metal
  Current step  : 120495
  Time step     : 0.001
Per MPI rank memory allocation (min/avg/max) = 19.35 | 19.35 | 19.35 Mbytes
Step Temp Press TotEng PotEng Enthalpy 
  120495    419.79023   -588.54051   -65461.291   -66527.597   -65550.278 
  122000    401.75187    1651.5674   -65592.311   -66612.797   -65343.533 
Loop time of 299.01 on 1 procs for 1505 steps with 19652 atoms

Performance: 0.435 ns/day, 55.188 hours/ns, 5.033 timesteps/s
97.7% CPU use with 1 MPI tasks x no OpenMP threads

MPI task timing breakdown:
Section |  min time  |  avg time  |  max time  |%varavg| %total
---------------------------------------------------------------
Pair    | 164.06     | 164.06     | 164.06     |   0.0 | 54.87
Neigh   | 128        | 128        | 128        |   0.0 | 42.81
Comm    | 1.7603     | 1.7603     | 1.7603     |   0.0 |  0.59
Output  | 2.4569     | 2.4569     | 2.4569     |   0.0 |  0.82
Modify  | 2.1467     | 2.1467     | 2.1467     |   0.0 |  0.72
Other   |            | 0.591      |            |       |  0.20

Nlocal:    19652 ave 19652 max 19652 min
Histogram: 1 0 0 0 0 0 0 0 0 0
Nghost:    20975 ave 20975 max 20975 min
Histogram: 1 0 0 0 0 0 0 0 0 0
Neighs:    2.0267e+06 ave 2.0267e+06 max 2.0267e+06 min
Histogram: 1 0 0 0 0 0 0 0 0 0

Total # of neighbors = 2026697
Ave neighs/atom = 103.129
Neighbor list builds = 1505
Dangerous builds not checked
Setting up Verlet run ...
  Unit style    : metal
  Current step  : 122000
  Time step     : 0.001
Per MPI rank memory allocation (min/avg/max) = 19.35 | 19.35 | 19.35 Mbytes
Step Temp Press TotEng PotEng Enthalpy 
  122000    401.75187    1651.5674   -65592.311   -66612.797   -65343.533 
  122495    370.91055      168.824   -65748.554     -66690.7   -65723.134 
Loop time of 81.8619 on 1 procs for 495 steps with 19652 atoms

Performance: 0.522 ns/day, 45.938 hours/ns, 6.047 timesteps/s
99.8% CPU use with 1 MPI tasks x no OpenMP threads

MPI task timing breakdown:
Section |  min time  |  avg time  |  max time  |%varavg| %total
---------------------------------------------------------------
Pair    | 45.018     | 45.018     | 45.018     |   0.0 | 54.99
Neigh   | 35.631     | 35.631     | 35.631     |   0.0 | 43.53
Comm    | 0.47041    | 0.47041    | 0.47041    |   0.0 |  0.57
Output  | 0.00015903 | 0.00015903 | 0.00015903 |   0.0 |  0.00
Modify  | 0.57066    | 0.57066    | 0.57066    |   0.0 |  0.70
Other   |            | 0.1712     |            |       |  0.21

Nlocal:    19652 ave 19652 max 19652 min
Histogram: 1 0 0 0 0 0 0 0 0 0
Nghost:    20981 ave 20981 max 20981 min
Histogram: 1 0 0 0 0 0 0 0 0 0
Neighs:    2.02893e+06 ave 2.02893e+06 max 2.02893e+06 min
Histogram: 1 0 0 0 0 0 0 0 0 0

Total # of neighbors = 2028928
Ave neighs/atom = 103.243
Neighbor list builds = 495
Dangerous builds not checked
Setting up Verlet run ...
  Unit style    : metal
  Current step  : 122495
  Time step     : 0.001
Per MPI rank memory allocation (min/avg/max) = 19.35 | 19.35 | 19.35 Mbytes
Step Temp Press TotEng PotEng Enthalpy 
  122495    370.91055      168.824   -65748.554     -66690.7   -65723.134 
  124000     350.1821    1352.6401   -65880.607   -66770.101   -65677.468 
Loop time of 288.58 on 1 procs for 1505 steps with 19652 atoms

Performance: 0.451 ns/day, 53.263 hours/ns, 5.215 timesteps/s
98.8% CPU use with 1 MPI tasks x no OpenMP threads

MPI task timing breakdown:
Section |  min time  |  avg time  |  max time  |%varavg| %total
---------------------------------------------------------------
Pair    | 160.01     | 160.01     | 160.01     |   0.0 | 55.45
Neigh   | 124.01     | 124.01     | 124.01     |   0.0 | 42.97
Comm    | 1.7195     | 1.7195     | 1.7195     |   0.0 |  0.60
Output  | 0.19369    | 0.19369    | 0.19369    |   0.0 |  0.07
Modify  | 2.0761     | 2.0761     | 2.0761     |   0.0 |  0.72
Other   |            | 0.564      |            |       |  0.20

Nlocal:    19652 ave 19652 max 19652 min
Histogram: 1 0 0 0 0 0 0 0 0 0
Nghost:    20991 ave 20991 max 20991 min
Histogram: 1 0 0 0 0 0 0 0 0 0
Neighs:    2.03389e+06 ave 2.03389e+06 max 2.03389e+06 min
Histogram: 1 0 0 0 0 0 0 0 0 0

Total # of neighbors = 2033887
Ave neighs/atom = 103.495
Neighbor list builds = 1505
Dangerous builds not checked
Setting up Verlet run ...
  Unit style    : metal
  Current step  : 124000
  Time step     : 0.001
Per MPI rank memory allocation (min/avg/max) = 19.35 | 19.35 | 19.35 Mbytes
Step Temp Press TotEng PotEng Enthalpy 
  124000     350.1821    1352.6401   -65880.607   -66770.101   -65677.468 
  124495    324.28992   -1342.8701   -66028.824    -66852.55   -66230.572 
Loop time of 100.961 on 1 procs for 495 steps with 19652 atoms

Performance: 0.424 ns/day, 56.656 hours/ns, 4.903 timesteps/s
94.8% CPU use with 1 MPI tasks x no OpenMP threads

MPI task timing breakdown:
Section |  min time  |  avg time  |  max time  |%varavg| %total
---------------------------------------------------------------
Pair    | 55.862     | 55.862     | 55.862     |   0.0 | 55.33
Neigh   | 43.562     | 43.562     | 43.562     |   0.0 | 43.15
Comm    | 0.61473    | 0.61473    | 0.61473    |   0.0 |  0.61
Output  | 0.000139   | 0.000139   | 0.000139   |   0.0 |  0.00
Modify  | 0.72486    | 0.72486    | 0.72486    |   0.0 |  0.72
Other   |            | 0.1966     |            |       |  0.19

Nlocal:    19652 ave 19652 max 19652 min
Histogram: 1 0 0 0 0 0 0 0 0 0
Nghost:    20961 ave 20961 max 20961 min
Histogram: 1 0 0 0 0 0 0 0 0 0
Neighs:    2.03315e+06 ave 2.03315e+06 max 2.03315e+06 min
Histogram: 1 0 0 0 0 0 0 0 0 0

Total # of neighbors = 2033148
Ave neighs/atom = 103.458
Neighbor list builds = 495
Dangerous builds not checked
Setting up Verlet run ...
  Unit style    : metal
  Current step  : 124495
  Time step     : 0.001
Per MPI rank memory allocation (min/avg/max) = 19.35 | 19.35 | 19.35 Mbytes
Step Temp Press TotEng PotEng Enthalpy 
  124495    324.28992   -1342.8701   -66028.824    -66852.55   -66230.572 
  126000    300.60705    199.47346   -66159.967   -66923.536   -66130.081 
Loop time of 331.906 on 1 procs for 1505 steps with 19652 atoms

Performance: 0.392 ns/day, 61.260 hours/ns, 4.534 timesteps/s
90.8% CPU use with 1 MPI tasks x no OpenMP threads

MPI task timing breakdown:
Section |  min time  |  avg time  |  max time  |%varavg| %total
---------------------------------------------------------------
Pair    | 185.56     | 185.56     | 185.56     |   0.0 | 55.91
Neigh   | 141.09     | 141.09     | 141.09     |   0.0 | 42.51
Comm    | 1.9767     | 1.9767     | 1.9767     |   0.0 |  0.60
Output  | 0.217      | 0.217      | 0.217      |   0.0 |  0.07
Modify  | 2.3852     | 2.3852     | 2.3852     |   0.0 |  0.72
Other   |            | 0.6704     |            |       |  0.20

Nlocal:    19652 ave 19652 max 19652 min
Histogram: 1 0 0 0 0 0 0 0 0 0
Nghost:    21013 ave 21013 max 21013 min
Histogram: 1 0 0 0 0 0 0 0 0 0
Neighs:    2.03906e+06 ave 2.03906e+06 max 2.03906e+06 min
Histogram: 1 0 0 0 0 0 0 0 0 0

Total # of neighbors = 2039058
Ave neighs/atom = 103.758
Neighbor list builds = 1505
Dangerous builds not checked
Setting up Verlet run ...
  Unit style    : metal
  Current step  : 126000
  Time step     : 0.001
Per MPI rank memory allocation (min/avg/max) = 19.35 | 19.35 | 19.35 Mbytes
Step Temp Press TotEng PotEng Enthalpy 
  126000    300.60705    199.47346   -66159.967   -66923.536   -66130.081 
  126495    275.59249   -449.50985   -66305.567   -67005.597   -66372.837 
Loop time of 112.755 on 1 procs for 495 steps with 19652 atoms

Performance: 0.379 ns/day, 63.274 hours/ns, 4.390 timesteps/s
89.6% CPU use with 1 MPI tasks x no OpenMP threads

MPI task timing breakdown:
Section |  min time  |  avg time  |  max time  |%varavg| %total
---------------------------------------------------------------
Pair    | 62.745     | 62.745     | 62.745     |   0.0 | 55.65
Neigh   | 48.353     | 48.353     | 48.353     |   0.0 | 42.88
Comm    | 0.64842    | 0.64842    | 0.64842    |   0.0 |  0.58
Output  | 0.00014782 | 0.00014782 | 0.00014782 |   0.0 |  0.00
Modify  | 0.78678    | 0.78678    | 0.78678    |   0.0 |  0.70
Other   |            | 0.2215     |            |       |  0.20

Nlocal:    19652 ave 19652 max 19652 min
Histogram: 1 0 0 0 0 0 0 0 0 0
Nghost:    21004 ave 21004 max 21004 min
Histogram: 1 0 0 0 0 0 0 0 0 0
Neighs:    2.0415e+06 ave 2.0415e+06 max 2.0415e+06 min
Histogram: 1 0 0 0 0 0 0 0 0 0

Total # of neighbors = 2041500
Ave neighs/atom = 103.883
Neighbor list builds = 495
Dangerous builds not checked
Setting up Verlet run ...
  Unit style    : metal
  Current step  : 126495
  Time step     : 0.001
Per MPI rank memory allocation (min/avg/max) = 19.35 | 19.35 | 19.35 Mbytes
Step Temp Press TotEng PotEng Enthalpy 
  126495    275.59249   -449.50985   -66305.567   -67005.597   -66372.837 
  128000    250.89947    846.58813   -66443.216   -67080.523   -66316.847 
Loop time of 266.859 on 1 procs for 1505 steps with 19652 atoms

Performance: 0.487 ns/day, 49.254 hours/ns, 5.640 timesteps/s
95.9% CPU use with 1 MPI tasks x no OpenMP threads

MPI task timing breakdown:
Section |  min time  |  avg time  |  max time  |%varavg| %total
---------------------------------------------------------------
Pair    | 147.29     | 147.29     | 147.29     |   0.0 | 55.19
Neigh   | 115.11     | 115.11     | 115.11     |   0.0 | 43.13
Comm    | 1.5381     | 1.5381     | 1.5381     |   0.0 |  0.58
Output  | 0.49245    | 0.49245    | 0.49245    |   0.0 |  0.18
Modify  | 1.855      | 1.855      | 1.855      |   0.0 |  0.70
Other   |            | 0.5751     |            |       |  0.22

Nlocal:    19652 ave 19652 max 19652 min
Histogram: 1 0 0 0 0 0 0 0 0 0
Nghost:    20987 ave 20987 max 20987 min
Histogram: 1 0 0 0 0 0 0 0 0 0
Neighs:    2.04722e+06 ave 2.04722e+06 max 2.04722e+06 min
Histogram: 1 0 0 0 0 0 0 0 0 0

Total # of neighbors = 2047222
Ave neighs/atom = 104.174
Neighbor list builds = 1505
Dangerous builds not checked
Setting up Verlet run ...
  Unit style    : metal
  Current step  : 128000
  Time step     : 0.001
Per MPI rank memory allocation (min/avg/max) = 19.35 | 19.35 | 19.35 Mbytes
Step Temp Press TotEng PotEng Enthalpy 
  128000    250.89947    846.58813   -66443.216   -67080.523   -66316.847 
  128495    223.56779    116.00483   -66579.969   -67147.852   -66562.669 
Loop time of 98.1858 on 1 procs for 495 steps with 19652 atoms

Performance: 0.436 ns/day, 55.099 hours/ns, 5.041 timesteps/s
88.6% CPU use with 1 MPI tasks x no OpenMP threads

MPI task timing breakdown:
Section |  min time  |  avg time  |  max time  |%varavg| %total
---------------------------------------------------------------
Pair    | 54.369     | 54.369     | 54.369     |   0.0 | 55.37
Neigh   | 42.336     | 42.336     | 42.336     |   0.0 | 43.12
Comm    | 0.58765    | 0.58765    | 0.58765    |   0.0 |  0.60
Output  | 0.00012803 | 0.00012803 | 0.00012803 |   0.0 |  0.00
Modify  | 0.70314    | 0.70314    | 0.70314    |   0.0 |  0.72
Other   |            | 0.19       |            |       |  0.19

Nlocal:    19652 ave 19652 max 19652 min
Histogram: 1 0 0 0 0 0 0 0 0 0
Nghost:    20983 ave 20983 max 20983 min
Histogram: 1 0 0 0 0 0 0 0 0 0
Neighs:    2.04939e+06 ave 2.04939e+06 max 2.04939e+06 min
Histogram: 1 0 0 0 0 0 0 0 0 0

Total # of neighbors = 2049387
Ave neighs/atom = 104.284
Neighbor list builds = 495
Dangerous builds not checked
Setting up Verlet run ...
  Unit style    : metal
  Current step  : 128495
  Time step     : 0.001
Per MPI rank memory allocation (min/avg/max) = 19.35 | 19.35 | 19.35 Mbytes
Step Temp Press TotEng PotEng Enthalpy 
  128495    223.56779    116.00483   -66579.969   -67147.852   -66562.669 
  130000    199.31423    162.68314   -66721.313   -67227.589   -66697.093 
Loop time of 360.933 on 1 procs for 1505 steps with 19652 atoms

Performance: 0.360 ns/day, 66.617 hours/ns, 4.170 timesteps/s
88.1% CPU use with 1 MPI tasks x no OpenMP threads

MPI task timing breakdown:
Section |  min time  |  avg time  |  max time  |%varavg| %total
---------------------------------------------------------------
Pair    | 201.47     | 201.47     | 201.47     |   0.0 | 55.82
Neigh   | 153.28     | 153.28     | 153.28     |   0.0 | 42.47
Comm    | 2.1678     | 2.1678     | 2.1678     |   0.0 |  0.60
Output  | 0.64247    | 0.64247    | 0.64247    |   0.0 |  0.18
Modify  | 2.6331     | 2.6331     | 2.6331     |   0.0 |  0.73
Other   |            | 0.7296     |            |       |  0.20

Nlocal:    19652 ave 19652 max 19652 min
Histogram: 1 0 0 0 0 0 0 0 0 0
Nghost:    21044 ave 21044 max 21044 min
Histogram: 1 0 0 0 0 0 0 0 0 0
Neighs:    2.05355e+06 ave 2.05355e+06 max 2.05355e+06 min
Histogram: 1 0 0 0 0 0 0 0 0 0

Total # of neighbors = 2053553
Ave neighs/atom = 104.496
Neighbor list builds = 1505
Dangerous builds not checked
Setting up Verlet run ...
  Unit style    : metal
  Current step  : 130000
  Time step     : 0.001
Per MPI rank memory allocation (min/avg/max) = 19.35 | 19.35 | 19.35 Mbytes
Step Temp Press TotEng PotEng Enthalpy 
  130000    199.31423    162.68314   -66721.313   -67227.589   -66697.093 
  130495    175.25644    22.878712   -66847.647   -67292.814   -66844.245 
Loop time of 109.326 on 1 procs for 495 steps with 19652 atoms

Performance: 0.391 ns/day, 61.350 hours/ns, 4.528 timesteps/s
98.6% CPU use with 1 MPI tasks x no OpenMP threads

MPI task timing breakdown:
Section |  min time  |  avg time  |  max time  |%varavg| %total
---------------------------------------------------------------
Pair    | 61.582     | 61.582     | 61.582     |   0.0 | 56.33
Neigh   | 46.072     | 46.072     | 46.072     |   0.0 | 42.14
Comm    | 0.65546    | 0.65546    | 0.65546    |   0.0 |  0.60
Output  | 0.00016904 | 0.00016904 | 0.00016904 |   0.0 |  0.00
Modify  | 0.80526    | 0.80526    | 0.80526    |   0.0 |  0.74
Other   |            | 0.2107     |            |       |  0.19

Nlocal:    19652 ave 19652 max 19652 min
Histogram: 1 0 0 0 0 0 0 0 0 0
Nghost:    21057 ave 21057 max 21057 min
Histogram: 1 0 0 0 0 0 0 0 0 0
Neighs:    2.05674e+06 ave 2.05674e+06 max 2.05674e+06 min
Histogram: 1 0 0 0 0 0 0 0 0 0

Total # of neighbors = 2056739
Ave neighs/atom = 104.658
Neighbor list builds = 495
Dangerous builds not checked
Setting up Verlet run ...
  Unit style    : metal
  Current step  : 130495
  Time step     : 0.001
Per MPI rank memory allocation (min/avg/max) = 19.35 | 19.35 | 19.35 Mbytes
Step Temp Press TotEng PotEng Enthalpy 
  130495    175.25644    22.878712   -66847.647   -67292.814   -66844.245 
  132000    150.10954   -35.203958   -66983.538   -67364.829   -66988.765 
Loop time of 281.941 on 1 procs for 1505 steps with 19652 atoms

Performance: 0.461 ns/day, 52.038 hours/ns, 5.338 timesteps/s
98.9% CPU use with 1 MPI tasks x no OpenMP threads

MPI task timing breakdown:
Section |  min time  |  avg time  |  max time  |%varavg| %total
---------------------------------------------------------------
Pair    | 156.71     | 156.71     | 156.71     |   0.0 | 55.58
Neigh   | 120.61     | 120.61     | 120.61     |   0.0 | 42.78
Comm    | 1.7063     | 1.7063     | 1.7063     |   0.0 |  0.61
Output  | 0.34064    | 0.34064    | 0.34064    |   0.0 |  0.12
Modify  | 2.0471     | 2.0471     | 2.0471     |   0.0 |  0.73
Other   |            | 0.5285     |            |       |  0.19

Nlocal:    19652 ave 19652 max 19652 min
Histogram: 1 0 0 0 0 0 0 0 0 0
Nghost:    21077 ave 21077 max 21077 min
Histogram: 1 0 0 0 0 0 0 0 0 0
Neighs:    2.0601e+06 ave 2.0601e+06 max 2.0601e+06 min
Histogram: 1 0 0 0 0 0 0 0 0 0

Total # of neighbors = 2060099
Ave neighs/atom = 104.829
Neighbor list builds = 1505
Dangerous builds not checked
Setting up Verlet run ...
  Unit style    : metal
  Current step  : 132000
  Time step     : 0.001
Per MPI rank memory allocation (min/avg/max) = 19.73 | 19.73 | 19.73 Mbytes
Step Temp Press TotEng PotEng Enthalpy 
  132000    150.10954   -35.203958   -66983.538   -67364.829   -66988.765 
  132495    128.18137    98.056615   -67103.447    -67429.04   -67088.908 
Loop time of 92.3298 on 1 procs for 495 steps with 19652 atoms

Performance: 0.463 ns/day, 51.812 hours/ns, 5.361 timesteps/s
97.5% CPU use with 1 MPI tasks x no OpenMP threads

MPI task timing breakdown:
Section |  min time  |  avg time  |  max time  |%varavg| %total
---------------------------------------------------------------
Pair    | 51.134     | 51.134     | 51.134     |   0.0 | 55.38
Neigh   | 39.805     | 39.805     | 39.805     |   0.0 | 43.11
Comm    | 0.54941    | 0.54941    | 0.54941    |   0.0 |  0.60
Output  | 0.00014806 | 0.00014806 | 0.00014806 |   0.0 |  0.00
Modify  | 0.65333    | 0.65333    | 0.65333    |   0.0 |  0.71
Other   |            | 0.1878     |            |       |  0.20

Nlocal:    19652 ave 19652 max 19652 min
Histogram: 1 0 0 0 0 0 0 0 0 0
Nghost:    21093 ave 21093 max 21093 min
Histogram: 1 0 0 0 0 0 0 0 0 0
Neighs:    2.06312e+06 ave 2.06312e+06 max 2.06312e+06 min
Histogram: 1 0 0 0 0 0 0 0 0 0

Total # of neighbors = 2063121
Ave neighs/atom = 104.983
Neighbor list builds = 495
Dangerous builds not checked
Setting up Verlet run ...
  Unit style    : metal
  Current step  : 132495
  Time step     : 0.001
Per MPI rank memory allocation (min/avg/max) = 19.73 | 19.73 | 19.73 Mbytes
Step Temp Press TotEng PotEng Enthalpy 
  132495    128.18137    98.056615   -67103.447    -67429.04   -67088.908 
  134000    98.727532   -412.44059    -67251.76   -67502.537    -67312.85 
Loop time of 319.828 on 1 procs for 1505 steps with 19652 atoms

Performance: 0.407 ns/day, 59.031 hours/ns, 4.706 timesteps/s
98.5% CPU use with 1 MPI tasks x no OpenMP threads

MPI task timing breakdown:
Section |  min time  |  avg time  |  max time  |%varavg| %total
---------------------------------------------------------------
Pair    | 179.38     | 179.38     | 179.38     |   0.0 | 56.09
Neigh   | 135.25     | 135.25     | 135.25     |   0.0 | 42.29
Comm    | 1.9295     | 1.9295     | 1.9295     |   0.0 |  0.60
Output  | 0.28328    | 0.28328    | 0.28328    |   0.0 |  0.09
Modify  | 2.3172     | 2.3172     | 2.3172     |   0.0 |  0.72
Other   |            | 0.6667     |            |       |  0.21

Nlocal:    19652 ave 19652 max 19652 min
Histogram: 1 0 0 0 0 0 0 0 0 0
Nghost:    21101 ave 21101 max 21101 min
Histogram: 1 0 0 0 0 0 0 0 0 0
Neighs:    2.06631e+06 ave 2.06631e+06 max 2.06631e+06 min
Histogram: 1 0 0 0 0 0 0 0 0 0

Total # of neighbors = 2066306
Ave neighs/atom = 105.145
Neighbor list builds = 1505
Dangerous builds not checked
Total wall time: 6:38:29
