LAMMPS (12 Dec 2018)
Lattice spacing in x,y,z = 4 4 4
Created orthogonal box = (0 0 0) to (68 68 68)
  1 by 1 by 1 MPI processor grid
Created 19652 atoms
  Time spent = 0.00250697 secs
Setting atom values ...
  19480 settings made for type/fraction
Neighbor list info ...
  update every 1 steps, delay 0 steps, check no
  max neighbors/atom: 2000, page size: 100000
  master list distance cutoff = 8.2
  ghost atom cutoff = 8.2
  binsize = 4.1, bins = 17 17 17
  1 neighbor lists, perpetual/occasional/extra = 1 0 0
  (1) pair eam/alloy, perpetual
      attributes: half, newton on
      pair build: half/bin/atomonly/newton
      stencil: half/bin/3d/newton
      bin: standard
Setting up Verlet run ...
  Unit style    : metal
  Current step  : 0
  Time step     : 0.001
Per MPI rank memory allocation (min/avg/max) = 17.03 | 17.03 | 17.03 Mbytes
Step Temp Press TotEng PotEng Enthalpy 
       0          300   -362526.57   -69435.747   -70197.774   -140582.69 
    1000    1414.0292   -79894.501   -69436.086   -73027.849   -85115.625 
Loop time of 119.7 on 1 procs for 1000 steps with 19652 atoms

Performance: 0.722 ns/day, 33.250 hours/ns, 8.354 timesteps/s
100.0% CPU use with 1 MPI tasks x no OpenMP threads

MPI task timing breakdown:
Section |  min time  |  avg time  |  max time  |%varavg| %total
---------------------------------------------------------------
Pair    | 65.163     | 65.163     | 65.163     |   0.0 | 54.44
Neigh   | 52.851     | 52.851     | 52.851     |   0.0 | 44.15
Comm    | 0.97757    | 0.97757    | 0.97757    |   0.0 |  0.82
Output  | 0.00012398 | 0.00012398 | 0.00012398 |   0.0 |  0.00
Modify  | 0.4042     | 0.4042     | 0.4042     |   0.0 |  0.34
Other   |            | 0.3046     |            |       |  0.25

Nlocal:    19652 ave 19652 max 19652 min
Histogram: 1 0 0 0 0 0 0 0 0 0
Nghost:    17930 ave 17930 max 17930 min
Histogram: 1 0 0 0 0 0 0 0 0 0
Neighs:    1.44637e+06 ave 1.44637e+06 max 1.44637e+06 min
Histogram: 1 0 0 0 0 0 0 0 0 0

Total # of neighbors = 1446374
Ave neighs/atom = 73.5993
Neighbor list builds = 1000
Dangerous builds not checked
Setting up Verlet run ...
  Unit style    : metal
  Current step  : 1000
  Time step     : 0.001
Per MPI rank memory allocation (min/avg/max) = 17.03 | 17.03 | 17.03 Mbytes
Step Temp Press TotEng PotEng Enthalpy 
    1000    1414.0292   -79894.501   -69436.086   -73027.849   -85115.625 
    2000    425.67131    -3052.688   -80618.362   -81699.606   -81068.242 
Loop time of 141.703 on 1 procs for 1000 steps with 19652 atoms

Performance: 0.610 ns/day, 39.362 hours/ns, 7.057 timesteps/s
100.0% CPU use with 1 MPI tasks x no OpenMP threads

MPI task timing breakdown:
Section |  min time  |  avg time  |  max time  |%varavg| %total
---------------------------------------------------------------
Pair    | 78.941     | 78.941     | 78.941     |   0.0 | 55.71
Neigh   | 60.231     | 60.231     | 60.231     |   0.0 | 42.50
Comm    | 0.90672    | 0.90672    | 0.90672    |   0.0 |  0.64
Output  | 0.00012016 | 0.00012016 | 0.00012016 |   0.0 |  0.00
Modify  | 1.3169     | 1.3169     | 1.3169     |   0.0 |  0.93
Other   |            | 0.3082     |            |       |  0.22

Nlocal:    19652 ave 19652 max 19652 min
Histogram: 1 0 0 0 0 0 0 0 0 0
Nghost:    20338 ave 20338 max 20338 min
Histogram: 1 0 0 0 0 0 0 0 0 0
Neighs:    1.87949e+06 ave 1.87949e+06 max 1.87949e+06 min
Histogram: 1 0 0 0 0 0 0 0 0 0

Total # of neighbors = 1879488
Ave neighs/atom = 95.6385
Neighbor list builds = 1000
Dangerous builds not checked
Setting up Verlet run ...
  Unit style    : metal
  Current step  : 2000
  Time step     : 0.001
Per MPI rank memory allocation (min/avg/max) = 18.94 | 18.94 | 18.94 Mbytes
Step Temp Press TotEng PotEng Enthalpy 
    2000    425.67131    -3052.688   -80618.362   -81699.606   -81068.242 
    6667    1535.4784   -2203.3682   -75726.747   -79627.002     -76051.2 
   10000    2450.4627    393.12607   -69440.732    -75665.13   -69379.318 
Loop time of 1211.1 on 1 procs for 8000 steps with 19652 atoms

Performance: 0.571 ns/day, 42.052 hours/ns, 6.606 timesteps/s
99.9% CPU use with 1 MPI tasks x no OpenMP threads

MPI task timing breakdown:
Section |  min time  |  avg time  |  max time  |%varavg| %total
---------------------------------------------------------------
Pair    | 671.55     | 671.55     | 671.55     |   0.0 | 55.45
Neigh   | 518.98     | 518.98     | 518.98     |   0.0 | 42.85
Comm    | 7.3763     | 7.3763     | 7.3763     |   0.0 |  0.61
Output  | 0.044942   | 0.044942   | 0.044942   |   0.0 |  0.00
Modify  | 10.633     | 10.633     | 10.633     |   0.0 |  0.88
Other   |            | 2.512      |            |       |  0.21

Nlocal:    19652 ave 19652 max 19652 min
Histogram: 1 0 0 0 0 0 0 0 0 0
Nghost:    19676 ave 19676 max 19676 min
Histogram: 1 0 0 0 0 0 0 0 0 0
Neighs:    1.76282e+06 ave 1.76282e+06 max 1.76282e+06 min
Histogram: 1 0 0 0 0 0 0 0 0 0

Total # of neighbors = 1762815
Ave neighs/atom = 89.7016
Neighbor list builds = 8000
Dangerous builds not checked
Setting up Verlet run ...
  Unit style    : metal
  Current step  : 10000
  Time step     : 0.001
Per MPI rank memory allocation (min/avg/max) = 18.96 | 18.96 | 18.96 Mbytes
Step Temp Press TotEng PotEng Enthalpy 
   10000    2450.4627    393.12607   -69440.732    -75665.13   -69379.318 
   13334    2463.7883   -671.73157   -69189.402   -75447.649   -69294.771 
   20001    2473.3743   -146.12098   -69209.491   -75492.087   -69232.378 
   26668    2447.9585    1139.6152   -69236.616   -75454.654   -69058.132 
   33335    2449.7054   -470.84715   -69255.246   -75477.721   -69329.036 
   40000    2436.3968   -929.69729   -69221.381   -75410.051   -69367.199 
Loop time of 4312.83 on 1 procs for 30000 steps with 19652 atoms

Performance: 0.601 ns/day, 39.934 hours/ns, 6.956 timesteps/s
99.6% CPU use with 1 MPI tasks x no OpenMP threads

MPI task timing breakdown:
Section |  min time  |  avg time  |  max time  |%varavg| %total
---------------------------------------------------------------
Pair    | 2376       | 2376       | 2376       |   0.0 | 55.09
Neigh   | 1861.6     | 1861.6     | 1861.6     |   0.0 | 43.16
Comm    | 26.788     | 26.788     | 26.788     |   0.0 |  0.62
Output  | 0.18037    | 0.18037    | 0.18037    |   0.0 |  0.00
Modify  | 39.144     | 39.144     | 39.144     |   0.0 |  0.91
Other   |            | 9.113      |            |       |  0.21

Nlocal:    19652 ave 19652 max 19652 min
Histogram: 1 0 0 0 0 0 0 0 0 0
Nghost:    19676 ave 19676 max 19676 min
Histogram: 1 0 0 0 0 0 0 0 0 0
Neighs:    1.7562e+06 ave 1.7562e+06 max 1.7562e+06 min
Histogram: 1 0 0 0 0 0 0 0 0 0

Total # of neighbors = 1756197
Ave neighs/atom = 89.3648
Neighbor list builds = 30000
Dangerous builds not checked
Setting up Verlet run ...
  Unit style    : metal
  Current step  : 40000
  Time step     : 0.001
Per MPI rank memory allocation (min/avg/max) = 18.96 | 18.96 | 18.96 Mbytes
Step Temp Press TotEng PotEng Enthalpy 
   40000    2436.3968   -929.69729   -69221.381   -75410.051   -69367.199 
   40002     2433.143   -834.47821   -69221.359   -75401.764   -69352.242 
   40495    2426.1131   -2107.8392   -69515.678   -75678.226   -69845.337 
Loop time of 71.2746 on 1 procs for 495 steps with 19652 atoms

Performance: 0.600 ns/day, 39.997 hours/ns, 6.945 timesteps/s
99.8% CPU use with 1 MPI tasks x no OpenMP threads

MPI task timing breakdown:
Section |  min time  |  avg time  |  max time  |%varavg| %total
---------------------------------------------------------------
Pair    | 39.471     | 39.471     | 39.471     |   0.0 | 55.38
Neigh   | 30.508     | 30.508     | 30.508     |   0.0 | 42.80
Comm    | 0.4475     | 0.4475     | 0.4475     |   0.0 |  0.63
Output  | 0.03997    | 0.03997    | 0.03997    |   0.0 |  0.06
Modify  | 0.6549     | 0.6549     | 0.6549     |   0.0 |  0.92
Other   |            | 0.1532     |            |       |  0.21

Nlocal:    19652 ave 19652 max 19652 min
Histogram: 1 0 0 0 0 0 0 0 0 0
Nghost:    19707 ave 19707 max 19707 min
Histogram: 1 0 0 0 0 0 0 0 0 0
Neighs:    1.76114e+06 ave 1.76114e+06 max 1.76114e+06 min
Histogram: 1 0 0 0 0 0 0 0 0 0

Total # of neighbors = 1761145
Ave neighs/atom = 89.6166
Neighbor list builds = 495
Dangerous builds not checked
Setting up Verlet run ...
  Unit style    : metal
  Current step  : 40495
  Time step     : 0.001
Per MPI rank memory allocation (min/avg/max) = 18.96 | 18.96 | 18.96 Mbytes
Step Temp Press TotEng PotEng Enthalpy 
   40495    2426.1131   -2107.8392   -69515.678   -75678.226   -69845.337 
   46667    2387.2436     -1846.22   -69585.603   -75649.419   -69874.345 
Loop time of 884.254 on 1 procs for 6172 steps with 19652 atoms

Performance: 0.603 ns/day, 39.797 hours/ns, 6.980 timesteps/s
99.3% CPU use with 1 MPI tasks x no OpenMP threads

MPI task timing breakdown:
Section |  min time  |  avg time  |  max time  |%varavg| %total
---------------------------------------------------------------
Pair    | 487.29     | 487.29     | 487.29     |   0.0 | 55.11
Neigh   | 381.63     | 381.63     | 381.63     |   0.0 | 43.16
Comm    | 5.4286     | 5.4286     | 5.4286     |   0.0 |  0.61
Output  | 0.00011921 | 0.00011921 | 0.00011921 |   0.0 |  0.00
Modify  | 8.0309     | 8.0309     | 8.0309     |   0.0 |  0.91
Other   |            | 1.882      |            |       |  0.21

Nlocal:    19652 ave 19652 max 19652 min
Histogram: 1 0 0 0 0 0 0 0 0 0
Nghost:    19637 ave 19637 max 19637 min
Histogram: 1 0 0 0 0 0 0 0 0 0
Neighs:    1.76069e+06 ave 1.76069e+06 max 1.76069e+06 min
Histogram: 1 0 0 0 0 0 0 0 0 0

Total # of neighbors = 1760687
Ave neighs/atom = 89.5933
Neighbor list builds = 6172
Dangerous builds not checked
Setting up Verlet run ...
  Unit style    : metal
  Current step  : 46667
  Time step     : 0.001
Per MPI rank memory allocation (min/avg/max) = 18.96 | 18.96 | 18.96 Mbytes
Step Temp Press TotEng PotEng Enthalpy 
   46667    2387.2436     -1846.22   -69585.603   -75649.419   -69874.345 
   46669    2385.9242   -1821.6832   -69585.586   -75646.051    -69870.49 
   47162    2345.7764   -1262.5208   -69824.371   -75782.856   -70021.266 
Loop time of 70.653 on 1 procs for 495 steps with 19652 atoms

Performance: 0.605 ns/day, 39.648 hours/ns, 7.006 timesteps/s
98.6% CPU use with 1 MPI tasks x no OpenMP threads

MPI task timing breakdown:
Section |  min time  |  avg time  |  max time  |%varavg| %total
---------------------------------------------------------------
Pair    | 39.112     | 39.112     | 39.112     |   0.0 | 55.36
Neigh   | 30.262     | 30.262     | 30.262     |   0.0 | 42.83
Comm    | 0.43145    | 0.43145    | 0.43145    |   0.0 |  0.61
Output  | 0.038129   | 0.038129   | 0.038129   |   0.0 |  0.05
Modify  | 0.65385    | 0.65385    | 0.65385    |   0.0 |  0.93
Other   |            | 0.1555     |            |       |  0.22

Nlocal:    19652 ave 19652 max 19652 min
Histogram: 1 0 0 0 0 0 0 0 0 0
Nghost:    19705 ave 19705 max 19705 min
Histogram: 1 0 0 0 0 0 0 0 0 0
Neighs:    1.76571e+06 ave 1.76571e+06 max 1.76571e+06 min
Histogram: 1 0 0 0 0 0 0 0 0 0

Total # of neighbors = 1765713
Ave neighs/atom = 89.849
Neighbor list builds = 495
Dangerous builds not checked
Setting up Verlet run ...
  Unit style    : metal
  Current step  : 47162
  Time step     : 0.001
Per MPI rank memory allocation (min/avg/max) = 18.96 | 18.96 | 18.96 Mbytes
Step Temp Press TotEng PotEng Enthalpy 
   47162    2345.7764   -1262.5208   -69824.371   -75782.856   -70021.266 
   53334     2347.847   -3281.1579   -69901.334   -75865.079    -70413.29 
Loop time of 883.36 on 1 procs for 6172 steps with 19652 atoms

Performance: 0.604 ns/day, 39.757 hours/ns, 6.987 timesteps/s
99.5% CPU use with 1 MPI tasks x no OpenMP threads

MPI task timing breakdown:
Section |  min time  |  avg time  |  max time  |%varavg| %total
---------------------------------------------------------------
Pair    | 487.41     | 487.41     | 487.41     |   0.0 | 55.18
Neigh   | 380.6      | 380.6      | 380.6      |   0.0 | 43.09
Comm    | 5.4342     | 5.4342     | 5.4342     |   0.0 |  0.62
Output  | 0.00013113 | 0.00013113 | 0.00013113 |   0.0 |  0.00
Modify  | 8.0162     | 8.0162     | 8.0162     |   0.0 |  0.91
Other   |            | 1.9        |            |       |  0.22

Nlocal:    19652 ave 19652 max 19652 min
Histogram: 1 0 0 0 0 0 0 0 0 0
Nghost:    19675 ave 19675 max 19675 min
Histogram: 1 0 0 0 0 0 0 0 0 0
Neighs:    1.76494e+06 ave 1.76494e+06 max 1.76494e+06 min
Histogram: 1 0 0 0 0 0 0 0 0 0

Total # of neighbors = 1764941
Ave neighs/atom = 89.8097
Neighbor list builds = 6172
Dangerous builds not checked
Setting up Verlet run ...
  Unit style    : metal
  Current step  : 53334
  Time step     : 0.001
Per MPI rank memory allocation (min/avg/max) = 18.96 | 18.96 | 18.96 Mbytes
Step Temp Press TotEng PotEng Enthalpy 
   53334     2347.847   -3281.1579   -69901.334   -75865.079    -70413.29 
   53336    2346.9751   -3275.0354   -69901.327   -75862.857   -70412.327 
   53829    2298.4888   -1273.7957   -70151.216   -75989.587   -70349.333 
Loop time of 71.1383 on 1 procs for 495 steps with 19652 atoms

Performance: 0.601 ns/day, 39.920 hours/ns, 6.958 timesteps/s
98.5% CPU use with 1 MPI tasks x no OpenMP threads

MPI task timing breakdown:
Section |  min time  |  avg time  |  max time  |%varavg| %total
---------------------------------------------------------------
Pair    | 39.376     | 39.376     | 39.376     |   0.0 | 55.35
Neigh   | 30.486     | 30.486     | 30.486     |   0.0 | 42.85
Comm    | 0.43428    | 0.43428    | 0.43428    |   0.0 |  0.61
Output  | 0.038159   | 0.038159   | 0.038159   |   0.0 |  0.05
Modify  | 0.65176    | 0.65176    | 0.65176    |   0.0 |  0.92
Other   |            | 0.1531     |            |       |  0.22

Nlocal:    19652 ave 19652 max 19652 min
Histogram: 1 0 0 0 0 0 0 0 0 0
Nghost:    19701 ave 19701 max 19701 min
Histogram: 1 0 0 0 0 0 0 0 0 0
Neighs:    1.76981e+06 ave 1.76981e+06 max 1.76981e+06 min
Histogram: 1 0 0 0 0 0 0 0 0 0

Total # of neighbors = 1769810
Ave neighs/atom = 90.0575
Neighbor list builds = 495
Dangerous builds not checked
Setting up Verlet run ...
  Unit style    : metal
  Current step  : 53829
  Time step     : 0.001
Per MPI rank memory allocation (min/avg/max) = 18.96 | 18.96 | 18.96 Mbytes
Step Temp Press TotEng PotEng Enthalpy 
   53829    2298.4888   -1273.7957   -70151.216   -75989.587   -70349.333 
   60001    2297.6561    1249.4235   -70265.693   -76101.949   -70071.995 
Loop time of 894.959 on 1 procs for 6172 steps with 19652 atoms

Performance: 0.596 ns/day, 40.279 hours/ns, 6.896 timesteps/s
99.6% CPU use with 1 MPI tasks x no OpenMP threads

MPI task timing breakdown:
Section |  min time  |  avg time  |  max time  |%varavg| %total
---------------------------------------------------------------
Pair    | 494.56     | 494.56     | 494.56     |   0.0 | 55.26
Neigh   | 384.8      | 384.8      | 384.8      |   0.0 | 43.00
Comm    | 5.5567     | 5.5567     | 5.5567     |   0.0 |  0.62
Output  | 0.00011992 | 0.00011992 | 0.00011992 |   0.0 |  0.00
Modify  | 8.1235     | 8.1235     | 8.1235     |   0.0 |  0.91
Other   |            | 1.917      |            |       |  0.21

Nlocal:    19652 ave 19652 max 19652 min
Histogram: 1 0 0 0 0 0 0 0 0 0
Nghost:    19765 ave 19765 max 19765 min
Histogram: 1 0 0 0 0 0 0 0 0 0
Neighs:    1.77524e+06 ave 1.77524e+06 max 1.77524e+06 min
Histogram: 1 0 0 0 0 0 0 0 0 0

Total # of neighbors = 1775243
Ave neighs/atom = 90.334
Neighbor list builds = 6172
Dangerous builds not checked
Setting up Verlet run ...
  Unit style    : metal
  Current step  : 60001
  Time step     : 0.001
Per MPI rank memory allocation (min/avg/max) = 18.96 | 18.96 | 18.96 Mbytes
Step Temp Press TotEng PotEng Enthalpy 
   60001    2297.6561    1249.4235   -70265.693   -76101.949   -70071.995 
   60003    2297.8239    1249.3026   -70265.695   -76102.377   -70072.016 
   60496     2270.269    1188.4643   -70472.674   -76239.364   -70288.786 
Loop time of 70.167 on 1 procs for 495 steps with 19652 atoms

Performance: 0.610 ns/day, 39.375 hours/ns, 7.055 timesteps/s
100.0% CPU use with 1 MPI tasks x no OpenMP threads

MPI task timing breakdown:
Section |  min time  |  avg time  |  max time  |%varavg| %total
---------------------------------------------------------------
Pair    | 38.869     | 38.869     | 38.869     |   0.0 | 55.40
Neigh   | 30.038     | 30.038     | 30.038     |   0.0 | 42.81
Comm    | 0.42968    | 0.42968    | 0.42968    |   0.0 |  0.61
Output  | 0.037543   | 0.037543   | 0.037543   |   0.0 |  0.05
Modify  | 0.64039    | 0.64039    | 0.64039    |   0.0 |  0.91
Other   |            | 0.1523     |            |       |  0.22

Nlocal:    19652 ave 19652 max 19652 min
Histogram: 1 0 0 0 0 0 0 0 0 0
Nghost:    19766 ave 19766 max 19766 min
Histogram: 1 0 0 0 0 0 0 0 0 0
Neighs:    1.77887e+06 ave 1.77887e+06 max 1.77887e+06 min
Histogram: 1 0 0 0 0 0 0 0 0 0

Total # of neighbors = 1778872
Ave neighs/atom = 90.5186
Neighbor list builds = 495
Dangerous builds not checked
Setting up Verlet run ...
  Unit style    : metal
  Current step  : 60496
  Time step     : 0.001
Per MPI rank memory allocation (min/avg/max) = 18.96 | 18.96 | 18.96 Mbytes
Step Temp Press TotEng PotEng Enthalpy 
   60496     2270.269    1188.4643   -70472.674   -76239.364   -70288.786 
   66668    2246.5768   -942.57531   -70495.387   -76201.897   -70641.488 
Loop time of 887.599 on 1 procs for 6172 steps with 19652 atoms

Performance: 0.601 ns/day, 39.947 hours/ns, 6.954 timesteps/s
99.7% CPU use with 1 MPI tasks x no OpenMP threads

MPI task timing breakdown:
Section |  min time  |  avg time  |  max time  |%varavg| %total
---------------------------------------------------------------
Pair    | 491.02     | 491.02     | 491.02     |   0.0 | 55.32
Neigh   | 381.23     | 381.23     | 381.23     |   0.0 | 42.95
Comm    | 5.435      | 5.435      | 5.435      |   0.0 |  0.61
Output  | 0.00011802 | 0.00011802 | 0.00011802 |   0.0 |  0.00
Modify  | 8.0368     | 8.0368     | 8.0368     |   0.0 |  0.91
Other   |            | 1.877      |            |       |  0.21

Nlocal:    19652 ave 19652 max 19652 min
Histogram: 1 0 0 0 0 0 0 0 0 0
Nghost:    19709 ave 19709 max 19709 min
Histogram: 1 0 0 0 0 0 0 0 0 0
Neighs:    1.77545e+06 ave 1.77545e+06 max 1.77545e+06 min
Histogram: 1 0 0 0 0 0 0 0 0 0

Total # of neighbors = 1775452
Ave neighs/atom = 90.3446
Neighbor list builds = 6172
Dangerous builds not checked
Setting up Verlet run ...
  Unit style    : metal
  Current step  : 66668
  Time step     : 0.001
Per MPI rank memory allocation (min/avg/max) = 18.96 | 18.96 | 18.96 Mbytes
Step Temp Press TotEng PotEng Enthalpy 
   66668    2246.5768   -942.57531   -70495.387   -76201.897   -70641.488 
   66670    2246.0443   -963.99034   -70495.378   -76200.535   -70644.798 
   67163    2228.0808    671.65624   -70795.286   -76454.814   -70691.666 
Loop time of 69.0246 on 1 procs for 495 steps with 19652 atoms

Performance: 0.620 ns/day, 38.734 hours/ns, 7.171 timesteps/s
100.0% CPU use with 1 MPI tasks x no OpenMP threads

MPI task timing breakdown:
Section |  min time  |  avg time  |  max time  |%varavg| %total
---------------------------------------------------------------
Pair    | 38.273     | 38.273     | 38.273     |   0.0 | 55.45
Neigh   | 29.524     | 29.524     | 29.524     |   0.0 | 42.77
Comm    | 0.41387    | 0.41387    | 0.41387    |   0.0 |  0.60
Output  | 0.037395   | 0.037395   | 0.037395   |   0.0 |  0.05
Modify  | 0.63317    | 0.63317    | 0.63317    |   0.0 |  0.92
Other   |            | 0.1435     |            |       |  0.21

Nlocal:    19652 ave 19652 max 19652 min
Histogram: 1 0 0 0 0 0 0 0 0 0
Nghost:    19814 ave 19814 max 19814 min
Histogram: 1 0 0 0 0 0 0 0 0 0
Neighs:    1.78373e+06 ave 1.78373e+06 max 1.78373e+06 min
Histogram: 1 0 0 0 0 0 0 0 0 0

Total # of neighbors = 1783730
Ave neighs/atom = 90.7658
Neighbor list builds = 495
Dangerous builds not checked
Setting up Verlet run ...
  Unit style    : metal
  Current step  : 67163
  Time step     : 0.001
Per MPI rank memory allocation (min/avg/max) = 18.96 | 18.96 | 18.96 Mbytes
Step Temp Press TotEng PotEng Enthalpy 
   67163    2228.0808    671.65624   -70795.286   -76454.814   -70691.666 
   73335    2198.6155    236.34157    -70910.52   -76495.204   -70874.074 
Loop time of 879.802 on 1 procs for 6172 steps with 19652 atoms

Performance: 0.606 ns/day, 39.596 hours/ns, 7.015 timesteps/s
99.9% CPU use with 1 MPI tasks x no OpenMP threads

MPI task timing breakdown:
Section |  min time  |  avg time  |  max time  |%varavg| %total
---------------------------------------------------------------
Pair    | 486.57     | 486.57     | 486.57     |   0.0 | 55.30
Neigh   | 378.08     | 378.08     | 378.08     |   0.0 | 42.97
Comm    | 5.364      | 5.364      | 5.364      |   0.0 |  0.61
Output  | 0.00011921 | 0.00011921 | 0.00011921 |   0.0 |  0.00
Modify  | 7.9631     | 7.9631     | 7.9631     |   0.0 |  0.91
Other   |            | 1.82       |            |       |  0.21

Nlocal:    19652 ave 19652 max 19652 min
Histogram: 1 0 0 0 0 0 0 0 0 0
Nghost:    19861 ave 19861 max 19861 min
Histogram: 1 0 0 0 0 0 0 0 0 0
Neighs:    1.78425e+06 ave 1.78425e+06 max 1.78425e+06 min
Histogram: 1 0 0 0 0 0 0 0 0 0

Total # of neighbors = 1784252
Ave neighs/atom = 90.7924
Neighbor list builds = 6172
Dangerous builds not checked
Setting up Verlet run ...
  Unit style    : metal
  Current step  : 73335
  Time step     : 0.001
Per MPI rank memory allocation (min/avg/max) = 18.96 | 18.96 | 18.96 Mbytes
Step Temp Press TotEng PotEng Enthalpy 
   73335    2198.6155    236.34157    -70910.52   -76495.204   -70874.074 
   73337    2198.5726    223.50565   -70910.518   -76495.093   -70876.051 
   73830    2161.8487   -758.61473   -71155.825   -76647.118   -71272.576 
Loop time of 69.7827 on 1 procs for 495 steps with 19652 atoms

Performance: 0.613 ns/day, 39.160 hours/ns, 7.093 timesteps/s
99.9% CPU use with 1 MPI tasks x no OpenMP threads

MPI task timing breakdown:
Section |  min time  |  avg time  |  max time  |%varavg| %total
---------------------------------------------------------------
Pair    | 38.671     | 38.671     | 38.671     |   0.0 | 55.42
Neigh   | 29.87      | 29.87      | 29.87      |   0.0 | 42.80
Comm    | 0.42137    | 0.42137    | 0.42137    |   0.0 |  0.60
Output  | 0.037418   | 0.037418   | 0.037418   |   0.0 |  0.05
Modify  | 0.63595    | 0.63595    | 0.63595    |   0.0 |  0.91
Other   |            | 0.1466     |            |       |  0.21

Nlocal:    19652 ave 19652 max 19652 min
Histogram: 1 0 0 0 0 0 0 0 0 0
Nghost:    19795 ave 19795 max 19795 min
Histogram: 1 0 0 0 0 0 0 0 0 0
Neighs:    1.78785e+06 ave 1.78785e+06 max 1.78785e+06 min
Histogram: 1 0 0 0 0 0 0 0 0 0

Total # of neighbors = 1787852
Ave neighs/atom = 90.9756
Neighbor list builds = 495
Dangerous builds not checked
Setting up Verlet run ...
  Unit style    : metal
  Current step  : 73830
  Time step     : 0.001
Per MPI rank memory allocation (min/avg/max) = 18.96 | 18.96 | 18.96 Mbytes
Step Temp Press TotEng PotEng Enthalpy 
   73830    2161.8487   -758.61473   -71155.825   -76647.118   -71272.576 
   80002    2152.3388    1249.7383   -71228.455   -76695.592   -71036.476 
Loop time of 875.627 on 1 procs for 6172 steps with 19652 atoms

Performance: 0.609 ns/day, 39.409 hours/ns, 7.049 timesteps/s
100.0% CPU use with 1 MPI tasks x no OpenMP threads

MPI task timing breakdown:
Section |  min time  |  avg time  |  max time  |%varavg| %total
---------------------------------------------------------------
Pair    | 484.49     | 484.49     | 484.49     |   0.0 | 55.33
Neigh   | 376.15     | 376.15     | 376.15     |   0.0 | 42.96
Comm    | 5.2899     | 5.2899     | 5.2899     |   0.0 |  0.60
Output  | 0.00011802 | 0.00011802 | 0.00011802 |   0.0 |  0.00
Modify  | 7.8983     | 7.8983     | 7.8983     |   0.0 |  0.90
Other   |            | 1.796      |            |       |  0.21

Nlocal:    19652 ave 19652 max 19652 min
Histogram: 1 0 0 0 0 0 0 0 0 0
Nghost:    19816 ave 19816 max 19816 min
Histogram: 1 0 0 0 0 0 0 0 0 0
Neighs:    1.79032e+06 ave 1.79032e+06 max 1.79032e+06 min
Histogram: 1 0 0 0 0 0 0 0 0 0

Total # of neighbors = 1790319
Ave neighs/atom = 91.1011
Neighbor list builds = 6172
Dangerous builds not checked
Setting up Verlet run ...
  Unit style    : metal
  Current step  : 80002
  Time step     : 0.001
Per MPI rank memory allocation (min/avg/max) = 18.96 | 18.96 | 18.96 Mbytes
Step Temp Press TotEng PotEng Enthalpy 
   80002    2152.3388    1249.7383   -71228.455   -76695.592   -71036.476 
   80004    2150.1184    1306.2753   -71228.452   -76689.949   -71027.789 
   80497    2106.4253    174.10215    -71464.86   -76815.372   -71438.154 
Loop time of 69.845 on 1 procs for 495 steps with 19652 atoms

Performance: 0.612 ns/day, 39.195 hours/ns, 7.087 timesteps/s
100.0% CPU use with 1 MPI tasks x no OpenMP threads

MPI task timing breakdown:
Section |  min time  |  avg time  |  max time  |%varavg| %total
---------------------------------------------------------------
Pair    | 38.745     | 38.745     | 38.745     |   0.0 | 55.47
Neigh   | 29.86      | 29.86      | 29.86      |   0.0 | 42.75
Comm    | 0.42179    | 0.42179    | 0.42179    |   0.0 |  0.60
Output  | 0.037341   | 0.037341   | 0.037341   |   0.0 |  0.05
Modify  | 0.63616    | 0.63616    | 0.63616    |   0.0 |  0.91
Other   |            | 0.1449     |            |       |  0.21

Nlocal:    19652 ave 19652 max 19652 min
Histogram: 1 0 0 0 0 0 0 0 0 0
Nghost:    19857 ave 19857 max 19857 min
Histogram: 1 0 0 0 0 0 0 0 0 0
Neighs:    1.79292e+06 ave 1.79292e+06 max 1.79292e+06 min
Histogram: 1 0 0 0 0 0 0 0 0 0

Total # of neighbors = 1792924
Ave neighs/atom = 91.2337
Neighbor list builds = 495
Dangerous builds not checked
Setting up Verlet run ...
  Unit style    : metal
  Current step  : 80497
  Time step     : 0.001
Per MPI rank memory allocation (min/avg/max) = 18.96 | 18.96 | 18.96 Mbytes
Step Temp Press TotEng PotEng Enthalpy 
   80497    2106.4253    174.10215    -71464.86   -76815.372   -71438.154 
   86669    2114.9378    2506.3951   -71478.246   -76850.381   -71094.404 
Loop time of 882.414 on 1 procs for 6172 steps with 19652 atoms

Performance: 0.604 ns/day, 39.714 hours/ns, 6.994 timesteps/s
99.9% CPU use with 1 MPI tasks x no OpenMP threads

MPI task timing breakdown:
Section |  min time  |  avg time  |  max time  |%varavg| %total
---------------------------------------------------------------
Pair    | 489.19     | 489.19     | 489.19     |   0.0 | 55.44
Neigh   | 378.04     | 378.04     | 378.04     |   0.0 | 42.84
Comm    | 5.3743     | 5.3743     | 5.3743     |   0.0 |  0.61
Output  | 0.00012803 | 0.00012803 | 0.00012803 |   0.0 |  0.00
Modify  | 7.9864     | 7.9864     | 7.9864     |   0.0 |  0.91
Other   |            | 1.831      |            |       |  0.21

Nlocal:    19652 ave 19652 max 19652 min
Histogram: 1 0 0 0 0 0 0 0 0 0
Nghost:    19852 ave 19852 max 19852 min
Histogram: 1 0 0 0 0 0 0 0 0 0
Neighs:    1.7959e+06 ave 1.7959e+06 max 1.7959e+06 min
Histogram: 1 0 0 0 0 0 0 0 0 0

Total # of neighbors = 1795904
Ave neighs/atom = 91.3853
Neighbor list builds = 6172
Dangerous builds not checked
Setting up Verlet run ...
  Unit style    : metal
  Current step  : 86669
  Time step     : 0.001
Per MPI rank memory allocation (min/avg/max) = 18.96 | 18.96 | 18.96 Mbytes
Step Temp Press TotEng PotEng Enthalpy 
   86669    2114.9378    2506.3951   -71478.246   -76850.381   -71094.404 
   86671     2115.862    2457.3083    -71478.26   -76852.742   -71101.935 
   87164    2068.4321    1456.3891   -71795.975   -77049.981   -71573.469 
Loop time of 70.0271 on 1 procs for 495 steps with 19652 atoms

Performance: 0.611 ns/day, 39.297 hours/ns, 7.069 timesteps/s
99.7% CPU use with 1 MPI tasks x no OpenMP threads

MPI task timing breakdown:
Section |  min time  |  avg time  |  max time  |%varavg| %total
---------------------------------------------------------------
Pair    | 39.013     | 39.013     | 39.013     |   0.0 | 55.71
Neigh   | 29.747     | 29.747     | 29.747     |   0.0 | 42.48
Comm    | 0.43043    | 0.43043    | 0.43043    |   0.0 |  0.61
Output  | 0.038813   | 0.038813   | 0.038813   |   0.0 |  0.06
Modify  | 0.64835    | 0.64835    | 0.64835    |   0.0 |  0.93
Other   |            | 0.1492     |            |       |  0.21

Nlocal:    19652 ave 19652 max 19652 min
Histogram: 1 0 0 0 0 0 0 0 0 0
Nghost:    19870 ave 19870 max 19870 min
Histogram: 1 0 0 0 0 0 0 0 0 0
Neighs:    1.79978e+06 ave 1.79978e+06 max 1.79978e+06 min
Histogram: 1 0 0 0 0 0 0 0 0 0

Total # of neighbors = 1799780
Ave neighs/atom = 91.5825
Neighbor list builds = 495
Dangerous builds not checked
Setting up Verlet run ...
  Unit style    : metal
  Current step  : 87164
  Time step     : 0.001
Per MPI rank memory allocation (min/avg/max) = 18.96 | 18.96 | 18.96 Mbytes
Step Temp Press TotEng PotEng Enthalpy 
   87164    2068.4321    1456.3891   -71795.975   -77049.981   -71573.469 
   93336     2051.168   -2539.0847    -71929.32   -77139.474   -72317.555 
Loop time of 876.927 on 1 procs for 6172 steps with 19652 atoms

Performance: 0.608 ns/day, 39.467 hours/ns, 7.038 timesteps/s
100.0% CPU use with 1 MPI tasks x no OpenMP threads

MPI task timing breakdown:
Section |  min time  |  avg time  |  max time  |%varavg| %total
---------------------------------------------------------------
Pair    | 486.38     | 486.38     | 486.38     |   0.0 | 55.46
Neigh   | 375.54     | 375.54     | 375.54     |   0.0 | 42.82
Comm    | 5.294      | 5.294      | 5.294      |   0.0 |  0.60
Output  | 0.00011396 | 0.00011396 | 0.00011396 |   0.0 |  0.00
Modify  | 7.9094     | 7.9094     | 7.9094     |   0.0 |  0.90
Other   |            | 1.805      |            |       |  0.21

Nlocal:    19652 ave 19652 max 19652 min
Histogram: 1 0 0 0 0 0 0 0 0 0
Nghost:    19845 ave 19845 max 19845 min
Histogram: 1 0 0 0 0 0 0 0 0 0
Neighs:    1.79804e+06 ave 1.79804e+06 max 1.79804e+06 min
Histogram: 1 0 0 0 0 0 0 0 0 0

Total # of neighbors = 1798043
Ave neighs/atom = 91.4941
Neighbor list builds = 6172
Dangerous builds not checked
Setting up Verlet run ...
  Unit style    : metal
  Current step  : 93336
  Time step     : 0.001
Per MPI rank memory allocation (min/avg/max) = 18.96 | 18.96 | 18.96 Mbytes
Step Temp Press TotEng PotEng Enthalpy 
   93336     2051.168   -2539.0847    -71929.32   -77139.474   -72317.555 
   93338    2051.7457   -2542.9528   -71929.326   -77140.947   -72318.152 
   93831    2001.3677    685.01936   -72160.862   -77244.518   -72056.486 
Loop time of 69.8116 on 1 procs for 495 steps with 19652 atoms

Performance: 0.613 ns/day, 39.176 hours/ns, 7.091 timesteps/s
100.0% CPU use with 1 MPI tasks x no OpenMP threads

MPI task timing breakdown:
Section |  min time  |  avg time  |  max time  |%varavg| %total
---------------------------------------------------------------
Pair    | 38.795     | 38.795     | 38.795     |   0.0 | 55.57
Neigh   | 29.786     | 29.786     | 29.786     |   0.0 | 42.67
Comm    | 0.41626    | 0.41626    | 0.41626    |   0.0 |  0.60
Output  | 0.037551   | 0.037551   | 0.037551   |   0.0 |  0.05
Modify  | 0.63346    | 0.63346    | 0.63346    |   0.0 |  0.91
Other   |            | 0.1437     |            |       |  0.21

Nlocal:    19652 ave 19652 max 19652 min
Histogram: 1 0 0 0 0 0 0 0 0 0
Nghost:    19899 ave 19899 max 19899 min
Histogram: 1 0 0 0 0 0 0 0 0 0
Neighs:    1.80454e+06 ave 1.80454e+06 max 1.80454e+06 min
Histogram: 1 0 0 0 0 0 0 0 0 0

Total # of neighbors = 1804544
Ave neighs/atom = 91.825
Neighbor list builds = 495
Dangerous builds not checked
Setting up Verlet run ...
  Unit style    : metal
  Current step  : 93831
  Time step     : 0.001
Per MPI rank memory allocation (min/avg/max) = 18.96 | 18.96 | 18.96 Mbytes
Step Temp Press TotEng PotEng Enthalpy 
   93831    2001.3677    685.01936   -72160.862   -77244.518   -72056.486 
  100003    1999.5772    2679.0383   -72208.679   -77287.787   -71801.097 
Loop time of 894.621 on 1 procs for 6172 steps with 19652 atoms

Performance: 0.596 ns/day, 40.263 hours/ns, 6.899 timesteps/s
99.8% CPU use with 1 MPI tasks x no OpenMP threads

MPI task timing breakdown:
Section |  min time  |  avg time  |  max time  |%varavg| %total
---------------------------------------------------------------
Pair    | 499.4      | 499.4      | 499.4      |   0.0 | 55.82
Neigh   | 379.66     | 379.66     | 379.66     |   0.0 | 42.44
Comm    | 5.686      | 5.686      | 5.686      |   0.0 |  0.64
Output  | 0.00012612 | 0.00012612 | 0.00012612 |   0.0 |  0.00
Modify  | 8.0672     | 8.0672     | 8.0672     |   0.0 |  0.90
Other   |            | 1.816      |            |       |  0.20

Nlocal:    19652 ave 19652 max 19652 min
Histogram: 1 0 0 0 0 0 0 0 0 0
Nghost:    19894 ave 19894 max 19894 min
Histogram: 1 0 0 0 0 0 0 0 0 0
Neighs:    1.80643e+06 ave 1.80643e+06 max 1.80643e+06 min
Histogram: 1 0 0 0 0 0 0 0 0 0

Total # of neighbors = 1806431
Ave neighs/atom = 91.921
Neighbor list builds = 6172
Dangerous builds not checked
Setting up Verlet run ...
  Unit style    : metal
  Current step  : 100003
  Time step     : 0.001
Per MPI rank memory allocation (min/avg/max) = 18.96 | 18.96 | 18.96 Mbytes
Step Temp Press TotEng PotEng Enthalpy 
  100003    1999.5772    2679.0383   -72208.679   -77287.787   -71801.097 
  100005    2002.5178    2523.9098   -72208.687   -77295.265   -71824.705 
  100498    1970.5748    706.86578   -72459.422   -77464.862   -72352.086 
Loop time of 73.1212 on 1 procs for 495 steps with 19652 atoms

Performance: 0.585 ns/day, 41.033 hours/ns, 6.770 timesteps/s
100.0% CPU use with 1 MPI tasks x no OpenMP threads

MPI task timing breakdown:
Section |  min time  |  avg time  |  max time  |%varavg| %total
---------------------------------------------------------------
Pair    | 41.127     | 41.127     | 41.127     |   0.0 | 56.24
Neigh   | 30.636     | 30.636     | 30.636     |   0.0 | 41.90
Comm    | 0.49854    | 0.49854    | 0.49854    |   0.0 |  0.68
Output  | 0.03917    | 0.03917    | 0.03917    |   0.0 |  0.05
Modify  | 0.66826    | 0.66826    | 0.66826    |   0.0 |  0.91
Other   |            | 0.153      |            |       |  0.21

Nlocal:    19652 ave 19652 max 19652 min
Histogram: 1 0 0 0 0 0 0 0 0 0
Nghost:    19906 ave 19906 max 19906 min
Histogram: 1 0 0 0 0 0 0 0 0 0
Neighs:    1.80984e+06 ave 1.80984e+06 max 1.80984e+06 min
Histogram: 1 0 0 0 0 0 0 0 0 0

Total # of neighbors = 1809837
Ave neighs/atom = 92.0943
Neighbor list builds = 495
Dangerous builds not checked
Setting up Verlet run ...
  Unit style    : metal
  Current step  : 100498
  Time step     : 0.001
Per MPI rank memory allocation (min/avg/max) = 18.96 | 18.96 | 18.96 Mbytes
Step Temp Press TotEng PotEng Enthalpy 
  100498    1970.5748    706.86578   -72459.422   -77464.862   -72352.086 
  106670    1946.9412    -718.9036   -72615.698   -77561.106   -72724.792 
Loop time of 935.491 on 1 procs for 6172 steps with 19652 atoms

Performance: 0.570 ns/day, 42.103 hours/ns, 6.598 timesteps/s
99.8% CPU use with 1 MPI tasks x no OpenMP threads

MPI task timing breakdown:
Section |  min time  |  avg time  |  max time  |%varavg| %total
---------------------------------------------------------------
Pair    | 526.46     | 526.46     | 526.46     |   0.0 | 56.28
Neigh   | 390.78     | 390.78     | 390.78     |   0.0 | 41.77
Comm    | 7.2364     | 7.2364     | 7.2364     |   0.0 |  0.77
Output  | 0.00013685 | 0.00013685 | 0.00013685 |   0.0 |  0.00
Modify  | 8.9225     | 8.9225     | 8.9225     |   0.0 |  0.95
Other   |            | 2.094      |            |       |  0.22

Nlocal:    19652 ave 19652 max 19652 min
Histogram: 1 0 0 0 0 0 0 0 0 0
Nghost:    19903 ave 19903 max 19903 min
Histogram: 1 0 0 0 0 0 0 0 0 0
Neighs:    1.81078e+06 ave 1.81078e+06 max 1.81078e+06 min
Histogram: 1 0 0 0 0 0 0 0 0 0

Total # of neighbors = 1810777
Ave neighs/atom = 92.1421
Neighbor list builds = 6172
Dangerous builds not checked
Setting up Verlet run ...
  Unit style    : metal
  Current step  : 106670
  Time step     : 0.001
Per MPI rank memory allocation (min/avg/max) = 18.96 | 18.96 | 18.96 Mbytes
Step Temp Press TotEng PotEng Enthalpy 
  106670    1946.9412    -718.9036   -72615.698   -77561.106   -72724.792 
  106672    1944.1247    -607.7251   -72615.686    -77553.94   -72707.908 
  107165    1901.1752    2015.9313   -72825.256   -77654.414   -72520.113 
Loop time of 73.3221 on 1 procs for 495 steps with 19652 atoms

Performance: 0.583 ns/day, 41.146 hours/ns, 6.751 timesteps/s
100.0% CPU use with 1 MPI tasks x no OpenMP threads

MPI task timing breakdown:
Section |  min time  |  avg time  |  max time  |%varavg| %total
---------------------------------------------------------------
Pair    | 41.293     | 41.293     | 41.293     |   0.0 | 56.32
Neigh   | 30.511     | 30.511     | 30.511     |   0.0 | 41.61
Comm    | 0.58419    | 0.58419    | 0.58419    |   0.0 |  0.80
Output  | 0.03995    | 0.03995    | 0.03995    |   0.0 |  0.05
Modify  | 0.72348    | 0.72348    | 0.72348    |   0.0 |  0.99
Other   |            | 0.1711     |            |       |  0.23

Nlocal:    19652 ave 19652 max 19652 min
Histogram: 1 0 0 0 0 0 0 0 0 0
Nghost:    19943 ave 19943 max 19943 min
Histogram: 1 0 0 0 0 0 0 0 0 0
Neighs:    1.81525e+06 ave 1.81525e+06 max 1.81525e+06 min
Histogram: 1 0 0 0 0 0 0 0 0 0

Total # of neighbors = 1815249
Ave neighs/atom = 92.3697
Neighbor list builds = 495
Dangerous builds not checked
Setting up Verlet run ...
  Unit style    : metal
  Current step  : 107165
  Time step     : 0.001
Per MPI rank memory allocation (min/avg/max) = 18.96 | 18.96 | 18.96 Mbytes
Step Temp Press TotEng PotEng Enthalpy 
  107165    1901.1752    2015.9313   -72825.256   -77654.414   -72520.113 
  113337     1918.699   -1628.2903   -72847.153   -77720.823   -73093.892 
Loop time of 958.189 on 1 procs for 6172 steps with 19652 atoms

Performance: 0.557 ns/day, 43.124 hours/ns, 6.441 timesteps/s
97.9% CPU use with 1 MPI tasks x no OpenMP threads

MPI task timing breakdown:
Section |  min time  |  avg time  |  max time  |%varavg| %total
---------------------------------------------------------------
Pair    | 539.61     | 539.61     | 539.61     |   0.0 | 56.32
Neigh   | 399.51     | 399.51     | 399.51     |   0.0 | 41.69
Comm    | 7.6223     | 7.6223     | 7.6223     |   0.0 |  0.80
Output  | 0.00017118 | 0.00017118 | 0.00017118 |   0.0 |  0.00
Modify  | 9.2648     | 9.2648     | 9.2648     |   0.0 |  0.97
Other   |            | 2.18       |            |       |  0.23

Nlocal:    19652 ave 19652 max 19652 min
Histogram: 1 0 0 0 0 0 0 0 0 0
Nghost:    19875 ave 19875 max 19875 min
Histogram: 1 0 0 0 0 0 0 0 0 0
Neighs:    1.81244e+06 ave 1.81244e+06 max 1.81244e+06 min
Histogram: 1 0 0 0 0 0 0 0 0 0

Total # of neighbors = 1812443
Ave neighs/atom = 92.2269
Neighbor list builds = 6172
Dangerous builds not checked
Setting up Verlet run ...
  Unit style    : metal
  Current step  : 113337
  Time step     : 0.001
Per MPI rank memory allocation (min/avg/max) = 18.96 | 18.96 | 18.96 Mbytes
Step Temp Press TotEng PotEng Enthalpy 
  113337     1918.699   -1628.2903   -72847.153   -77720.823   -73093.892 
  113339    1920.2231   -1674.5913    -72847.18   -77724.721   -73100.934 
  113832    1864.3359   -155.66374   -73152.867    -77888.45   -73176.371 
Loop time of 76.328 on 1 procs for 495 steps with 19652 atoms

Performance: 0.560 ns/day, 42.833 hours/ns, 6.485 timesteps/s
97.6% CPU use with 1 MPI tasks x no OpenMP threads

MPI task timing breakdown:
Section |  min time  |  avg time  |  max time  |%varavg| %total
---------------------------------------------------------------
Pair    | 43.029     | 43.029     | 43.029     |   0.0 | 56.37
Neigh   | 31.748     | 31.748     | 31.748     |   0.0 | 41.59
Comm    | 0.59625    | 0.59625    | 0.59625    |   0.0 |  0.78
Output  | 0.041169   | 0.041169   | 0.041169   |   0.0 |  0.05
Modify  | 0.73804    | 0.73804    | 0.73804    |   0.0 |  0.97
Other   |            | 0.1758     |            |       |  0.23

Nlocal:    19652 ave 19652 max 19652 min
Histogram: 1 0 0 0 0 0 0 0 0 0
Nghost:    19948 ave 19948 max 19948 min
Histogram: 1 0 0 0 0 0 0 0 0 0
Neighs:    1.81921e+06 ave 1.81921e+06 max 1.81921e+06 min
Histogram: 1 0 0 0 0 0 0 0 0 0

Total # of neighbors = 1819214
Ave neighs/atom = 92.5714
Neighbor list builds = 495
Dangerous builds not checked
Setting up Verlet run ...
  Unit style    : metal
  Current step  : 113832
  Time step     : 0.001
Per MPI rank memory allocation (min/avg/max) = 18.96 | 18.96 | 18.96 Mbytes
Step Temp Press TotEng PotEng Enthalpy 
  113832    1864.3359   -155.66374   -73152.867    -77888.45   -73176.371 
  120004    1854.9506    2673.1355   -73233.848   -77945.591   -72831.226 
Loop time of 941.107 on 1 procs for 6172 steps with 19652 atoms

Performance: 0.567 ns/day, 42.356 hours/ns, 6.558 timesteps/s
99.7% CPU use with 1 MPI tasks x no OpenMP threads

MPI task timing breakdown:
Section |  min time  |  avg time  |  max time  |%varavg| %total
---------------------------------------------------------------
Pair    | 529.95     | 529.95     | 529.95     |   0.0 | 56.31
Neigh   | 392.06     | 392.06     | 392.06     |   0.0 | 41.66
Comm    | 7.7015     | 7.7015     | 7.7015     |   0.0 |  0.82
Output  | 0.00013185 | 0.00013185 | 0.00013185 |   0.0 |  0.00
Modify  | 9.2067     | 9.2067     | 9.2067     |   0.0 |  0.98
Other   |            | 2.185      |            |       |  0.23

Nlocal:    19652 ave 19652 max 19652 min
Histogram: 1 0 0 0 0 0 0 0 0 0
Nghost:    19878 ave 19878 max 19878 min
Histogram: 1 0 0 0 0 0 0 0 0 0
Neighs:    1.82314e+06 ave 1.82314e+06 max 1.82314e+06 min
Histogram: 1 0 0 0 0 0 0 0 0 0

Total # of neighbors = 1823135
Ave neighs/atom = 92.771
Neighbor list builds = 6172
Dangerous builds not checked
Setting up Verlet run ...
  Unit style    : metal
  Current step  : 120004
  Time step     : 0.001
Per MPI rank memory allocation (min/avg/max) = 18.96 | 18.96 | 18.96 Mbytes
Step Temp Press TotEng PotEng Enthalpy 
  120004    1854.9506    2673.1355   -73233.848   -77945.591   -72831.226 
  120006    1854.3582    2665.6295   -73233.853   -77944.092   -72832.361 
  120499     1829.582   -370.05825   -73498.409   -78145.714   -73554.073 
Loop time of 73.8725 on 1 procs for 495 steps with 19652 atoms

Performance: 0.579 ns/day, 41.455 hours/ns, 6.701 timesteps/s
100.0% CPU use with 1 MPI tasks x no OpenMP threads

MPI task timing breakdown:
Section |  min time  |  avg time  |  max time  |%varavg| %total
---------------------------------------------------------------
Pair    | 41.665     | 41.665     | 41.665     |   0.0 | 56.40
Neigh   | 30.694     | 30.694     | 30.694     |   0.0 | 41.55
Comm    | 0.58419    | 0.58419    | 0.58419    |   0.0 |  0.79
Output  | 0.040454   | 0.040454   | 0.040454   |   0.0 |  0.05
Modify  | 0.71908    | 0.71908    | 0.71908    |   0.0 |  0.97
Other   |            | 0.1701     |            |       |  0.23

Nlocal:    19652 ave 19652 max 19652 min
Histogram: 1 0 0 0 0 0 0 0 0 0
Nghost:    19990 ave 19990 max 19990 min
Histogram: 1 0 0 0 0 0 0 0 0 0
Neighs:    1.82504e+06 ave 1.82504e+06 max 1.82504e+06 min
Histogram: 1 0 0 0 0 0 0 0 0 0

Total # of neighbors = 1825044
Ave neighs/atom = 92.8681
Neighbor list builds = 495
Dangerous builds not checked
Setting up Verlet run ...
  Unit style    : metal
  Current step  : 120499
  Time step     : 0.001
Per MPI rank memory allocation (min/avg/max) = 18.96 | 18.96 | 18.96 Mbytes
Step Temp Press TotEng PotEng Enthalpy 
  120499     1829.582   -370.05825   -73498.409   -78145.714   -73554.073 
  126671    1806.8046    2039.3789   -73591.996   -78181.444   -73285.812 
Loop time of 931.985 on 1 procs for 6172 steps with 19652 atoms

Performance: 0.572 ns/day, 41.945 hours/ns, 6.622 timesteps/s
99.9% CPU use with 1 MPI tasks x no OpenMP threads

MPI task timing breakdown:
Section |  min time  |  avg time  |  max time  |%varavg| %total
---------------------------------------------------------------
Pair    | 525.64     | 525.64     | 525.64     |   0.0 | 56.40
Neigh   | 388.03     | 388.03     | 388.03     |   0.0 | 41.63
Comm    | 7.2653     | 7.2653     | 7.2653     |   0.0 |  0.78
Output  | 0.00012994 | 0.00012994 | 0.00012994 |   0.0 |  0.00
Modify  | 8.925      | 8.925      | 8.925      |   0.0 |  0.96
Other   |            | 2.123      |            |       |  0.23

Nlocal:    19652 ave 19652 max 19652 min
Histogram: 1 0 0 0 0 0 0 0 0 0
Nghost:    19962 ave 19962 max 19962 min
Histogram: 1 0 0 0 0 0 0 0 0 0
Neighs:    1.82841e+06 ave 1.82841e+06 max 1.82841e+06 min
Histogram: 1 0 0 0 0 0 0 0 0 0

Total # of neighbors = 1828407
Ave neighs/atom = 93.0392
Neighbor list builds = 6172
Dangerous builds not checked
Setting up Verlet run ...
  Unit style    : metal
  Current step  : 126671
  Time step     : 0.001
Per MPI rank memory allocation (min/avg/max) = 18.96 | 18.96 | 18.96 Mbytes
Step Temp Press TotEng PotEng Enthalpy 
  126671    1806.8046    2039.3789   -73591.996   -78181.444   -73285.812 
  126673    1806.2185    2051.4263       -73592   -78179.959   -73284.006 
  127166    1762.1641   -652.99052   -73816.501   -78292.558   -73914.546 
Loop time of 73.3201 on 1 procs for 495 steps with 19652 atoms

Performance: 0.583 ns/day, 41.145 hours/ns, 6.751 timesteps/s
100.0% CPU use with 1 MPI tasks x no OpenMP threads

MPI task timing breakdown:
Section |  min time  |  avg time  |  max time  |%varavg| %total
---------------------------------------------------------------
Pair    | 41.412     | 41.412     | 41.412     |   0.0 | 56.48
Neigh   | 30.416     | 30.416     | 30.416     |   0.0 | 41.48
Comm    | 0.57076    | 0.57076    | 0.57076    |   0.0 |  0.78
Output  | 0.039373   | 0.039373   | 0.039373   |   0.0 |  0.05
Modify  | 0.71269    | 0.71269    | 0.71269    |   0.0 |  0.97
Other   |            | 0.1696     |            |       |  0.23

Nlocal:    19652 ave 19652 max 19652 min
Histogram: 1 0 0 0 0 0 0 0 0 0
Nghost:    19985 ave 19985 max 19985 min
Histogram: 1 0 0 0 0 0 0 0 0 0
Neighs:    1.82818e+06 ave 1.82818e+06 max 1.82818e+06 min
Histogram: 1 0 0 0 0 0 0 0 0 0

Total # of neighbors = 1828182
Ave neighs/atom = 93.0278
Neighbor list builds = 495
Dangerous builds not checked
Setting up Verlet run ...
  Unit style    : metal
  Current step  : 127166
  Time step     : 0.001
Per MPI rank memory allocation (min/avg/max) = 18.96 | 18.96 | 18.96 Mbytes
Step Temp Press TotEng PotEng Enthalpy 
  127166    1762.1641   -652.99052   -73816.501   -78292.558   -73914.546 
  133338     1752.819    3047.8296   -73902.565   -78354.885   -73446.357 
Loop time of 940.483 on 1 procs for 6172 steps with 19652 atoms

Performance: 0.567 ns/day, 42.327 hours/ns, 6.563 timesteps/s
99.8% CPU use with 1 MPI tasks x no OpenMP threads

MPI task timing breakdown:
Section |  min time  |  avg time  |  max time  |%varavg| %total
---------------------------------------------------------------
Pair    | 530.84     | 530.84     | 530.84     |   0.0 | 56.44
Neigh   | 390.94     | 390.94     | 390.94     |   0.0 | 41.57
Comm    | 7.4647     | 7.4647     | 7.4647     |   0.0 |  0.79
Output  | 0.00013685 | 0.00013685 | 0.00013685 |   0.0 |  0.00
Modify  | 9.0856     | 9.0856     | 9.0856     |   0.0 |  0.97
Other   |            | 2.152      |            |       |  0.23

Nlocal:    19652 ave 19652 max 19652 min
Histogram: 1 0 0 0 0 0 0 0 0 0
Nghost:    20045 ave 20045 max 20045 min
Histogram: 1 0 0 0 0 0 0 0 0 0
Neighs:    1.83375e+06 ave 1.83375e+06 max 1.83375e+06 min
Histogram: 1 0 0 0 0 0 0 0 0 0

Total # of neighbors = 1833747
Ave neighs/atom = 93.311
Neighbor list builds = 6172
Dangerous builds not checked
Setting up Verlet run ...
  Unit style    : metal
  Current step  : 133338
  Time step     : 0.001
Per MPI rank memory allocation (min/avg/max) = 18.96 | 18.96 | 18.96 Mbytes
Step Temp Press TotEng PotEng Enthalpy 
  133338     1752.819    3047.8296   -73902.565   -78354.885   -73446.357 
  133340    1753.4586    3005.3658   -73902.567   -78356.512   -73452.715 
  133833     1713.581   -1275.7118   -74155.606   -78508.258   -74346.534 
Loop time of 74.1624 on 1 procs for 495 steps with 19652 atoms

Performance: 0.577 ns/day, 41.618 hours/ns, 6.675 timesteps/s
99.8% CPU use with 1 MPI tasks x no OpenMP threads

MPI task timing breakdown:
Section |  min time  |  avg time  |  max time  |%varavg| %total
---------------------------------------------------------------
Pair    | 41.924     | 41.924     | 41.924     |   0.0 | 56.53
Neigh   | 30.718     | 30.718     | 30.718     |   0.0 | 41.42
Comm    | 0.58755    | 0.58755    | 0.58755    |   0.0 |  0.79
Output  | 0.03987    | 0.03987    | 0.03987    |   0.0 |  0.05
Modify  | 0.72188    | 0.72188    | 0.72188    |   0.0 |  0.97
Other   |            | 0.1707     |            |       |  0.23

Nlocal:    19652 ave 19652 max 19652 min
Histogram: 1 0 0 0 0 0 0 0 0 0
Nghost:    20083 ave 20083 max 20083 min
Histogram: 1 0 0 0 0 0 0 0 0 0
Neighs:    1.83371e+06 ave 1.83371e+06 max 1.83371e+06 min
Histogram: 1 0 0 0 0 0 0 0 0 0

Total # of neighbors = 1833707
Ave neighs/atom = 93.3089
Neighbor list builds = 495
Dangerous builds not checked
Setting up Verlet run ...
  Unit style    : metal
  Current step  : 133833
  Time step     : 0.001
Per MPI rank memory allocation (min/avg/max) = 18.96 | 18.96 | 18.96 Mbytes
Step Temp Press TotEng PotEng Enthalpy 
  133833     1713.581   -1275.7118   -74155.606   -78508.258   -74346.534 
  140005    1696.2151     1977.539   -74298.727   -78607.268   -74003.657 
Loop time of 944.726 on 1 procs for 6172 steps with 19652 atoms

Performance: 0.564 ns/day, 42.518 hours/ns, 6.533 timesteps/s
99.1% CPU use with 1 MPI tasks x no OpenMP threads

MPI task timing breakdown:
Section |  min time  |  avg time  |  max time  |%varavg| %total
---------------------------------------------------------------
Pair    | 533.94     | 533.94     | 533.94     |   0.0 | 56.52
Neigh   | 392.21     | 392.21     | 392.21     |   0.0 | 41.52
Comm    | 7.3817     | 7.3817     | 7.3817     |   0.0 |  0.78
Output  | 0.00013494 | 0.00013494 | 0.00013494 |   0.0 |  0.00
Modify  | 9.0496     | 9.0496     | 9.0496     |   0.0 |  0.96
Other   |            | 2.148      |            |       |  0.23

Nlocal:    19652 ave 19652 max 19652 min
Histogram: 1 0 0 0 0 0 0 0 0 0
Nghost:    20060 ave 20060 max 20060 min
Histogram: 1 0 0 0 0 0 0 0 0 0
Neighs:    1.8391e+06 ave 1.8391e+06 max 1.8391e+06 min
Histogram: 1 0 0 0 0 0 0 0 0 0

Total # of neighbors = 1839102
Ave neighs/atom = 93.5835
Neighbor list builds = 6172
Dangerous builds not checked
Setting up Verlet run ...
  Unit style    : metal
  Current step  : 140005
  Time step     : 0.001
Per MPI rank memory allocation (min/avg/max) = 18.96 | 18.96 | 18.96 Mbytes
Step Temp Press TotEng PotEng Enthalpy 
  140005    1696.2151     1977.539   -74298.727   -78607.268   -74003.657 
  140007    1694.6133    2047.8104   -74298.719   -78603.191   -73993.163 
  140500    1659.9051   -1474.1315   -74537.725   -78754.036   -74757.504 
Loop time of 76.6225 on 1 procs for 495 steps with 19652 atoms

Performance: 0.558 ns/day, 42.998 hours/ns, 6.460 timesteps/s
97.5% CPU use with 1 MPI tasks x no OpenMP threads

MPI task timing breakdown:
Section |  min time  |  avg time  |  max time  |%varavg| %total
---------------------------------------------------------------
Pair    | 43.378     | 43.378     | 43.378     |   0.0 | 56.61
Neigh   | 31.7       | 31.7       | 31.7       |   0.0 | 41.37
Comm    | 0.58997    | 0.58997    | 0.58997    |   0.0 |  0.77
Output  | 0.041583   | 0.041583   | 0.041583   |   0.0 |  0.05
Modify  | 0.73571    | 0.73571    | 0.73571    |   0.0 |  0.96
Other   |            | 0.1773     |            |       |  0.23

Nlocal:    19652 ave 19652 max 19652 min
Histogram: 1 0 0 0 0 0 0 0 0 0
Nghost:    19998 ave 19998 max 19998 min
Histogram: 1 0 0 0 0 0 0 0 0 0
Neighs:    1.84039e+06 ave 1.84039e+06 max 1.84039e+06 min
Histogram: 1 0 0 0 0 0 0 0 0 0

Total # of neighbors = 1840386
Ave neighs/atom = 93.6488
Neighbor list builds = 495
Dangerous builds not checked
Setting up Verlet run ...
  Unit style    : metal
  Current step  : 140500
  Time step     : 0.001
Per MPI rank memory allocation (min/avg/max) = 18.96 | 18.96 | 18.96 Mbytes
Step Temp Press TotEng PotEng Enthalpy 
  140500    1659.9051   -1474.1315   -74537.725   -78754.036   -74757.504 
  146672    1659.4769    3625.3964   -74623.516   -78838.738   -74085.006 
Loop time of 962.863 on 1 procs for 6172 steps with 19652 atoms

Performance: 0.554 ns/day, 43.335 hours/ns, 6.410 timesteps/s
97.8% CPU use with 1 MPI tasks x no OpenMP threads

MPI task timing breakdown:
Section |  min time  |  avg time  |  max time  |%varavg| %total
---------------------------------------------------------------
Pair    | 544.72     | 544.72     | 544.72     |   0.0 | 56.57
Neigh   | 398.85     | 398.85     | 398.85     |   0.0 | 41.42
Comm    | 7.7297     | 7.7297     | 7.7297     |   0.0 |  0.80
Output  | 0.00012684 | 0.00012684 | 0.00012684 |   0.0 |  0.00
Modify  | 9.3631     | 9.3631     | 9.3631     |   0.0 |  0.97
Other   |            | 2.202      |            |       |  0.23

Nlocal:    19652 ave 19652 max 19652 min
Histogram: 1 0 0 0 0 0 0 0 0 0
Nghost:    20149 ave 20149 max 20149 min
Histogram: 1 0 0 0 0 0 0 0 0 0
Neighs:    1.84692e+06 ave 1.84692e+06 max 1.84692e+06 min
Histogram: 1 0 0 0 0 0 0 0 0 0

Total # of neighbors = 1846918
Ave neighs/atom = 93.9812
Neighbor list builds = 6172
Dangerous builds not checked
Setting up Verlet run ...
  Unit style    : metal
  Current step  : 146672
  Time step     : 0.001
Per MPI rank memory allocation (min/avg/max) = 18.96 | 18.96 | 18.96 Mbytes
Step Temp Press TotEng PotEng Enthalpy 
  146672    1659.4769    3625.3964   -74623.516   -78838.738   -74085.006 
  146674    1657.1797    3725.0109   -74623.523    -78832.91   -74070.216 
  147167    1601.6709   -1050.6684   -74856.073   -78924.463   -75012.315 
Loop time of 75.9086 on 1 procs for 495 steps with 19652 atoms

Performance: 0.563 ns/day, 42.597 hours/ns, 6.521 timesteps/s
97.5% CPU use with 1 MPI tasks x no OpenMP threads

MPI task timing breakdown:
Section |  min time  |  avg time  |  max time  |%varavg| %total
---------------------------------------------------------------
Pair    | 43.039     | 43.039     | 43.039     |   0.0 | 56.70
Neigh   | 31.312     | 31.312     | 31.312     |   0.0 | 41.25
Comm    | 0.59942    | 0.59942    | 0.59942    |   0.0 |  0.79
Output  | 0.041135   | 0.041135   | 0.041135   |   0.0 |  0.05
Modify  | 0.74313    | 0.74313    | 0.74313    |   0.0 |  0.98
Other   |            | 0.1745     |            |       |  0.23

Nlocal:    19652 ave 19652 max 19652 min
Histogram: 1 0 0 0 0 0 0 0 0 0
Nghost:    20104 ave 20104 max 20104 min
Histogram: 1 0 0 0 0 0 0 0 0 0
Neighs:    1.84374e+06 ave 1.84374e+06 max 1.84374e+06 min
Histogram: 1 0 0 0 0 0 0 0 0 0

Total # of neighbors = 1843735
Ave neighs/atom = 93.8192
Neighbor list builds = 495
Dangerous builds not checked
Setting up Verlet run ...
  Unit style    : metal
  Current step  : 147167
  Time step     : 0.001
Per MPI rank memory allocation (min/avg/max) = 18.96 | 18.96 | 18.96 Mbytes
Step Temp Press TotEng PotEng Enthalpy 
  147167    1601.6709   -1050.6684   -74856.073   -78924.463   -75012.315 
  153339    1598.4335   -2715.8056   -75006.228   -79066.395   -75409.753 
Loop time of 947.294 on 1 procs for 6172 steps with 19652 atoms

Performance: 0.563 ns/day, 42.634 hours/ns, 6.515 timesteps/s
98.9% CPU use with 1 MPI tasks x no OpenMP threads

MPI task timing breakdown:
Section |  min time  |  avg time  |  max time  |%varavg| %total
---------------------------------------------------------------
Pair    | 536.53     | 536.53     | 536.53     |   0.0 | 56.64
Neigh   | 391.96     | 391.96     | 391.96     |   0.0 | 41.38
Comm    | 7.5054     | 7.5054     | 7.5054     |   0.0 |  0.79
Output  | 0.00012708 | 0.00012708 | 0.00012708 |   0.0 |  0.00
Modify  | 9.1352     | 9.1352     | 9.1352     |   0.0 |  0.96
Other   |            | 2.165      |            |       |  0.23

Nlocal:    19652 ave 19652 max 19652 min
Histogram: 1 0 0 0 0 0 0 0 0 0
Nghost:    20056 ave 20056 max 20056 min
Histogram: 1 0 0 0 0 0 0 0 0 0
Neighs:    1.84535e+06 ave 1.84535e+06 max 1.84535e+06 min
Histogram: 1 0 0 0 0 0 0 0 0 0

Total # of neighbors = 1845349
Ave neighs/atom = 93.9013
Neighbor list builds = 6172
Dangerous builds not checked
Setting up Verlet run ...
  Unit style    : metal
  Current step  : 153339
  Time step     : 0.001
Per MPI rank memory allocation (min/avg/max) = 18.96 | 18.96 | 18.96 Mbytes
Step Temp Press TotEng PotEng Enthalpy 
  153339    1598.4335   -2715.8056   -75006.228   -79066.395   -75409.753 
  153341    1598.5369    -2708.512   -75006.225   -79066.655   -75408.666 
  153834    1569.5749    109.25826   -75248.032   -79234.896   -75231.868 
Loop time of 75.7072 on 1 procs for 495 steps with 19652 atoms

Performance: 0.565 ns/day, 42.484 hours/ns, 6.538 timesteps/s
98.9% CPU use with 1 MPI tasks x no OpenMP threads

MPI task timing breakdown:
Section |  min time  |  avg time  |  max time  |%varavg| %total
---------------------------------------------------------------
Pair    | 42.904     | 42.904     | 42.904     |   0.0 | 56.67
Neigh   | 31.247     | 31.247     | 31.247     |   0.0 | 41.27
Comm    | 0.60426    | 0.60426    | 0.60426    |   0.0 |  0.80
Output  | 0.040557   | 0.040557   | 0.040557   |   0.0 |  0.05
Modify  | 0.7387     | 0.7387     | 0.7387     |   0.0 |  0.98
Other   |            | 0.1728     |            |       |  0.23

Nlocal:    19652 ave 19652 max 19652 min
Histogram: 1 0 0 0 0 0 0 0 0 0
Nghost:    20158 ave 20158 max 20158 min
Histogram: 1 0 0 0 0 0 0 0 0 0
Neighs:    1.8523e+06 ave 1.8523e+06 max 1.8523e+06 min
Histogram: 1 0 0 0 0 0 0 0 0 0

Total # of neighbors = 1852301
Ave neighs/atom = 94.2551
Neighbor list builds = 495
Dangerous builds not checked
Setting up Verlet run ...
  Unit style    : metal
  Current step  : 153834
  Time step     : 0.001
Per MPI rank memory allocation (min/avg/max) = 18.96 | 18.96 | 18.96 Mbytes
Step Temp Press TotEng PotEng Enthalpy 
  153834    1569.5749    109.25826   -75248.032   -79234.896   -75231.868 
  160006    1543.8616    590.29118   -75341.831    -79263.38   -75254.555 
Loop time of 950.98 on 1 procs for 6172 steps with 19652 atoms

Performance: 0.561 ns/day, 42.800 hours/ns, 6.490 timesteps/s
99.7% CPU use with 1 MPI tasks x no OpenMP threads

MPI task timing breakdown:
Section |  min time  |  avg time  |  max time  |%varavg| %total
---------------------------------------------------------------
Pair    | 537.78     | 537.78     | 537.78     |   0.0 | 56.55
Neigh   | 392.09     | 392.09     | 392.09     |   0.0 | 41.23
Comm    | 8.8089     | 8.8089     | 8.8089     |   0.0 |  0.93
Output  | 0.00015497 | 0.00015497 | 0.00015497 |   0.0 |  0.00
Modify  | 9.9124     | 9.9124     | 9.9124     |   0.0 |  1.04
Other   |            | 2.387      |            |       |  0.25

Nlocal:    19652 ave 19652 max 19652 min
Histogram: 1 0 0 0 0 0 0 0 0 0
Nghost:    20151 ave 20151 max 20151 min
Histogram: 1 0 0 0 0 0 0 0 0 0
Neighs:    1.85358e+06 ave 1.85358e+06 max 1.85358e+06 min
Histogram: 1 0 0 0 0 0 0 0 0 0

Total # of neighbors = 1853577
Ave neighs/atom = 94.32
Neighbor list builds = 6172
Dangerous builds not checked
Setting up Verlet run ...
  Unit style    : metal
  Current step  : 160006
  Time step     : 0.001
Per MPI rank memory allocation (min/avg/max) = 18.96 | 18.96 | 18.96 Mbytes
Step Temp Press TotEng PotEng Enthalpy 
  160006    1543.8616    590.29118   -75341.831    -79263.38   -75254.555 
  160008    1544.2299    587.01903   -75341.826   -79264.311   -75255.033 
  160501    1534.0693   -809.64772   -75578.748   -79475.424   -75698.209 
Loop time of 75.1473 on 1 procs for 495 steps with 19652 atoms

Performance: 0.569 ns/day, 42.170 hours/ns, 6.587 timesteps/s
100.0% CPU use with 1 MPI tasks x no OpenMP threads

MPI task timing breakdown:
Section |  min time  |  avg time  |  max time  |%varavg| %total
---------------------------------------------------------------
Pair    | 42.528     | 42.528     | 42.528     |   0.0 | 56.59
Neigh   | 30.834     | 30.834     | 30.834     |   0.0 | 41.03
Comm    | 0.73459    | 0.73459    | 0.73459    |   0.0 |  0.98
Output  | 0.040022   | 0.040022   | 0.040022   |   0.0 |  0.05
Modify  | 0.81313    | 0.81313    | 0.81313    |   0.0 |  1.08
Other   |            | 0.198      |            |       |  0.26

Nlocal:    19652 ave 19652 max 19652 min
Histogram: 1 0 0 0 0 0 0 0 0 0
Nghost:    20212 ave 20212 max 20212 min
Histogram: 1 0 0 0 0 0 0 0 0 0
Neighs:    1.85733e+06 ave 1.85733e+06 max 1.85733e+06 min
Histogram: 1 0 0 0 0 0 0 0 0 0

Total # of neighbors = 1857329
Ave neighs/atom = 94.5109
Neighbor list builds = 495
Dangerous builds not checked
Setting up Verlet run ...
  Unit style    : metal
  Current step  : 160501
  Time step     : 0.001
Per MPI rank memory allocation (min/avg/max) = 18.96 | 18.96 | 18.96 Mbytes
Step Temp Press TotEng PotEng Enthalpy 
  160501    1534.0693   -809.64772   -75578.748   -79475.424   -75698.209 
  166673    1503.0577    465.35818   -75732.487    -79550.39   -75663.973 
Loop time of 949.966 on 1 procs for 6172 steps with 19652 atoms

Performance: 0.561 ns/day, 42.754 hours/ns, 6.497 timesteps/s
99.8% CPU use with 1 MPI tasks x no OpenMP threads

MPI task timing breakdown:
Section |  min time  |  avg time  |  max time  |%varavg| %total
---------------------------------------------------------------
Pair    | 537.44     | 537.44     | 537.44     |   0.0 | 56.57
Neigh   | 390.43     | 390.43     | 390.43     |   0.0 | 41.10
Comm    | 9.343      | 9.343      | 9.343      |   0.0 |  0.98
Output  | 0.00013089 | 0.00013089 | 0.00013089 |   0.0 |  0.00
Modify  | 10.27      | 10.27      | 10.27      |   0.0 |  1.08
Other   |            | 2.478      |            |       |  0.26

Nlocal:    19652 ave 19652 max 19652 min
Histogram: 1 0 0 0 0 0 0 0 0 0
Nghost:    20208 ave 20208 max 20208 min
Histogram: 1 0 0 0 0 0 0 0 0 0
Neighs:    1.86084e+06 ave 1.86084e+06 max 1.86084e+06 min
Histogram: 1 0 0 0 0 0 0 0 0 0

Total # of neighbors = 1860836
Ave neighs/atom = 94.6894
Neighbor list builds = 6172
Dangerous builds not checked
Setting up Verlet run ...
  Unit style    : metal
  Current step  : 166673
  Time step     : 0.001
Per MPI rank memory allocation (min/avg/max) = 18.96 | 18.96 | 18.96 Mbytes
Step Temp Press TotEng PotEng Enthalpy 
  166673    1503.0577    465.35818   -75732.487    -79550.39   -75663.973 
  166675    1502.9843    463.67781   -75732.489   -79550.206   -75664.222 
  167168    1466.3991   -1585.3089   -75949.001   -79673.788   -76182.217 
Loop time of 75.1335 on 1 procs for 495 steps with 19652 atoms

Performance: 0.569 ns/day, 42.162 hours/ns, 6.588 timesteps/s
100.0% CPU use with 1 MPI tasks x no OpenMP threads

MPI task timing breakdown:
Section |  min time  |  avg time  |  max time  |%varavg| %total
---------------------------------------------------------------
Pair    | 42.519     | 42.519     | 42.519     |   0.0 | 56.59
Neigh   | 30.835     | 30.835     | 30.835     |   0.0 | 41.04
Comm    | 0.7269     | 0.7269     | 0.7269     |   0.0 |  0.97
Output  | 0.043286   | 0.043286   | 0.043286   |   0.0 |  0.06
Modify  | 0.81083    | 0.81083    | 0.81083    |   0.0 |  1.08
Other   |            | 0.1986     |            |       |  0.26

Nlocal:    19652 ave 19652 max 19652 min
Histogram: 1 0 0 0 0 0 0 0 0 0
Nghost:    20187 ave 20187 max 20187 min
Histogram: 1 0 0 0 0 0 0 0 0 0
Neighs:    1.86129e+06 ave 1.86129e+06 max 1.86129e+06 min
Histogram: 1 0 0 0 0 0 0 0 0 0

Total # of neighbors = 1861293
Ave neighs/atom = 94.7127
Neighbor list builds = 495
Dangerous builds not checked
Setting up Verlet run ...
  Unit style    : metal
  Current step  : 167168
  Time step     : 0.001
Per MPI rank memory allocation (min/avg/max) = 18.96 | 18.96 | 18.96 Mbytes
Step Temp Press TotEng PotEng Enthalpy 
  167168    1466.3991   -1585.3089   -75949.001   -79673.788   -76182.217 
  173340    1443.2127    337.66739   -76053.567   -79719.458   -76003.982 
Loop time of 954.643 on 1 procs for 6172 steps with 19652 atoms

Performance: 0.559 ns/day, 42.965 hours/ns, 6.465 timesteps/s
99.2% CPU use with 1 MPI tasks x no OpenMP threads

MPI task timing breakdown:
Section |  min time  |  avg time  |  max time  |%varavg| %total
---------------------------------------------------------------
Pair    | 540.81     | 540.81     | 540.81     |   0.0 | 56.65
Neigh   | 391.63     | 391.63     | 391.63     |   0.0 | 41.02
Comm    | 9.3857     | 9.3857     | 9.3857     |   0.0 |  0.98
Output  | 0.00014591 | 0.00014591 | 0.00014591 |   0.0 |  0.00
Modify  | 10.322     | 10.322     | 10.322     |   0.0 |  1.08
Other   |            | 2.491      |            |       |  0.26

Nlocal:    19652 ave 19652 max 19652 min
Histogram: 1 0 0 0 0 0 0 0 0 0
Nghost:    20208 ave 20208 max 20208 min
Histogram: 1 0 0 0 0 0 0 0 0 0
Neighs:    1.86529e+06 ave 1.86529e+06 max 1.86529e+06 min
Histogram: 1 0 0 0 0 0 0 0 0 0

Total # of neighbors = 1865291
Ave neighs/atom = 94.9161
Neighbor list builds = 6172
Dangerous builds not checked
Setting up Verlet run ...
  Unit style    : metal
  Current step  : 173340
  Time step     : 0.001
Per MPI rank memory allocation (min/avg/max) = 18.96 | 18.96 | 18.96 Mbytes
Step Temp Press TotEng PotEng Enthalpy 
  173340    1443.2127    337.66739   -76053.567   -79719.458   -76003.982 
  173342    1443.8417    298.65547   -76053.563   -79721.052   -76009.707 
  173835    1409.8827   -388.82746   -76275.785   -79857.016   -76332.793 
Loop time of 76.227 on 1 procs for 495 steps with 19652 atoms

Performance: 0.561 ns/day, 42.776 hours/ns, 6.494 timesteps/s
99.4% CPU use with 1 MPI tasks x no OpenMP threads

MPI task timing breakdown:
Section |  min time  |  avg time  |  max time  |%varavg| %total
---------------------------------------------------------------
Pair    | 43.247     | 43.247     | 43.247     |   0.0 | 56.73
Neigh   | 31.162     | 31.162     | 31.162     |   0.0 | 40.88
Comm    | 0.74661    | 0.74661    | 0.74661    |   0.0 |  0.98
Output  | 0.042164   | 0.042164   | 0.042164   |   0.0 |  0.06
Modify  | 0.83069    | 0.83069    | 0.83069    |   0.0 |  1.09
Other   |            | 0.1988     |            |       |  0.26

Nlocal:    19652 ave 19652 max 19652 min
Histogram: 1 0 0 0 0 0 0 0 0 0
Nghost:    20216 ave 20216 max 20216 min
Histogram: 1 0 0 0 0 0 0 0 0 0
Neighs:    1.86833e+06 ave 1.86833e+06 max 1.86833e+06 min
Histogram: 1 0 0 0 0 0 0 0 0 0

Total # of neighbors = 1868332
Ave neighs/atom = 95.0708
Neighbor list builds = 495
Dangerous builds not checked
Setting up Verlet run ...
  Unit style    : metal
  Current step  : 173835
  Time step     : 0.001
Per MPI rank memory allocation (min/avg/max) = 18.96 | 18.96 | 18.96 Mbytes
Step Temp Press TotEng PotEng Enthalpy 
  173835    1409.8827   -388.82746   -76275.785   -79857.016   -76332.793 
  180007    1393.6566   -1554.2134   -76489.272   -80029.287   -76716.708 
Loop time of 956.549 on 1 procs for 6172 steps with 19652 atoms

Performance: 0.557 ns/day, 43.051 hours/ns, 6.452 timesteps/s
99.2% CPU use with 1 MPI tasks x no OpenMP threads

MPI task timing breakdown:
Section |  min time  |  avg time  |  max time  |%varavg| %total
---------------------------------------------------------------
Pair    | 542.67     | 542.67     | 542.67     |   0.0 | 56.73
Neigh   | 391.68     | 391.68     | 391.68     |   0.0 | 40.95
Comm    | 9.404      | 9.404      | 9.404      |   0.0 |  0.98
Output  | 0.00013185 | 0.00013185 | 0.00013185 |   0.0 |  0.00
Modify  | 10.305     | 10.305     | 10.305     |   0.0 |  1.08
Other   |            | 2.498      |            |       |  0.26

Nlocal:    19652 ave 19652 max 19652 min
Histogram: 1 0 0 0 0 0 0 0 0 0
Nghost:    20242 ave 20242 max 20242 min
Histogram: 1 0 0 0 0 0 0 0 0 0
Neighs:    1.87047e+06 ave 1.87047e+06 max 1.87047e+06 min
Histogram: 1 0 0 0 0 0 0 0 0 0

Total # of neighbors = 1870472
Ave neighs/atom = 95.1797
Neighbor list builds = 6172
Dangerous builds not checked
Setting up Verlet run ...
  Unit style    : metal
  Current step  : 180007
  Time step     : 0.001
Per MPI rank memory allocation (min/avg/max) = 18.96 | 18.96 | 18.96 Mbytes
Step Temp Press TotEng PotEng Enthalpy 
  180007    1393.6566   -1554.2134   -76489.272   -80029.287   -76716.708 
  180009    1393.3708   -1542.0605   -76489.265   -80028.554   -76714.922 
  180502      1368.98    289.63015   -76616.101   -80093.435   -76573.793 
Loop time of 75.4791 on 1 procs for 495 steps with 19652 atoms

Performance: 0.567 ns/day, 42.356 hours/ns, 6.558 timesteps/s
100.0% CPU use with 1 MPI tasks x no OpenMP threads

MPI task timing breakdown:
Section |  min time  |  avg time  |  max time  |%varavg| %total
---------------------------------------------------------------
Pair    | 42.83      | 42.83      | 42.83      |   0.0 | 56.74
Neigh   | 30.876     | 30.876     | 30.876     |   0.0 | 40.91
Comm    | 0.72482    | 0.72482    | 0.72482    |   0.0 |  0.96
Output  | 0.040329   | 0.040329   | 0.040329   |   0.0 |  0.05
Modify  | 0.81124    | 0.81124    | 0.81124    |   0.0 |  1.07
Other   |            | 0.1969     |            |       |  0.26

Nlocal:    19652 ave 19652 max 19652 min
Histogram: 1 0 0 0 0 0 0 0 0 0
Nghost:    20264 ave 20264 max 20264 min
Histogram: 1 0 0 0 0 0 0 0 0 0
Neighs:    1.87406e+06 ave 1.87406e+06 max 1.87406e+06 min
Histogram: 1 0 0 0 0 0 0 0 0 0

Total # of neighbors = 1874057
Ave neighs/atom = 95.3622
Neighbor list builds = 495
Dangerous builds not checked
Setting up Verlet run ...
  Unit style    : metal
  Current step  : 180502
  Time step     : 0.001
Per MPI rank memory allocation (min/avg/max) = 18.96 | 18.96 | 18.96 Mbytes
Step Temp Press TotEng PotEng Enthalpy 
  180502      1368.98    289.63015   -76616.101   -80093.435   -76573.793 
  186674    1338.6284    -1717.468   -76790.916   -80191.154   -77041.669 
Loop time of 1062.35 on 1 procs for 6172 steps with 19652 atoms

Performance: 0.502 ns/day, 47.812 hours/ns, 5.810 timesteps/s
91.6% CPU use with 1 MPI tasks x no OpenMP threads

MPI task timing breakdown:
Section |  min time  |  avg time  |  max time  |%varavg| %total
---------------------------------------------------------------
Pair    | 602.31     | 602.31     | 602.31     |   0.0 | 56.70
Neigh   | 436.01     | 436.01     | 436.01     |   0.0 | 41.04
Comm    | 10.012     | 10.012     | 10.012     |   0.0 |  0.94
Output  | 0.00023603 | 0.00023603 | 0.00023603 |   0.0 |  0.00
Modify  | 11.307     | 11.307     | 11.307     |   0.0 |  1.06
Other   |            | 2.713      |            |       |  0.26

Nlocal:    19652 ave 19652 max 19652 min
Histogram: 1 0 0 0 0 0 0 0 0 0
Nghost:    20192 ave 20192 max 20192 min
Histogram: 1 0 0 0 0 0 0 0 0 0
Neighs:    1.87415e+06 ave 1.87415e+06 max 1.87415e+06 min
Histogram: 1 0 0 0 0 0 0 0 0 0

Total # of neighbors = 1874147
Ave neighs/atom = 95.3667
Neighbor list builds = 6172
Dangerous builds not checked
Setting up Verlet run ...
  Unit style    : metal
  Current step  : 186674
  Time step     : 0.001
Per MPI rank memory allocation (min/avg/max) = 18.96 | 18.96 | 18.96 Mbytes
Step Temp Press TotEng PotEng Enthalpy 
  186674    1338.6284    -1717.468   -76790.916   -80191.154   -77041.669 
  186676    1339.5175   -1732.9624   -76790.908   -80193.404   -77043.923 
  187169    1312.3933    1669.2692   -76998.728   -80332.327   -76755.927 
Loop time of 95.7904 on 1 procs for 495 steps with 19652 atoms

Performance: 0.446 ns/day, 53.754 hours/ns, 5.168 timesteps/s
80.7% CPU use with 1 MPI tasks x no OpenMP threads

MPI task timing breakdown:
Section |  min time  |  avg time  |  max time  |%varavg| %total
---------------------------------------------------------------
Pair    | 54.446     | 54.446     | 54.446     |   0.0 | 56.84
Neigh   | 39.107     | 39.107     | 39.107     |   0.0 | 40.83
Comm    | 0.91248    | 0.91248    | 0.91248    |   0.0 |  0.95
Output  | 0.084923   | 0.084923   | 0.084923   |   0.0 |  0.09
Modify  | 0.98333    | 0.98333    | 0.98333    |   0.0 |  1.03
Other   |            | 0.2563     |            |       |  0.27

Nlocal:    19652 ave 19652 max 19652 min
Histogram: 1 0 0 0 0 0 0 0 0 0
Nghost:    20260 ave 20260 max 20260 min
Histogram: 1 0 0 0 0 0 0 0 0 0
Neighs:    1.88179e+06 ave 1.88179e+06 max 1.88179e+06 min
Histogram: 1 0 0 0 0 0 0 0 0 0

Total # of neighbors = 1881788
Ave neighs/atom = 95.7555
Neighbor list builds = 495
Dangerous builds not checked
Setting up Verlet run ...
  Unit style    : metal
  Current step  : 187169
  Time step     : 0.001
Per MPI rank memory allocation (min/avg/max) = 18.96 | 18.96 | 18.96 Mbytes
Step Temp Press TotEng PotEng Enthalpy 
  187169    1312.3933    1669.2692   -76998.728   -80332.327   -76755.927 
  193341    1298.9238    -1476.698   -77222.959   -80522.344   -77437.531 
Loop time of 1141.08 on 1 procs for 6172 steps with 19652 atoms

Performance: 0.467 ns/day, 51.355 hours/ns, 5.409 timesteps/s
86.5% CPU use with 1 MPI tasks x no OpenMP threads

MPI task timing breakdown:
Section |  min time  |  avg time  |  max time  |%varavg| %total
---------------------------------------------------------------
Pair    | 644.06     | 644.06     | 644.06     |   0.0 | 56.44
Neigh   | 471.83     | 471.83     | 471.83     |   0.0 | 41.35
Comm    | 10.469     | 10.469     | 10.469     |   0.0 |  0.92
Output  | 0.00023508 | 0.00023508 | 0.00023508 |   0.0 |  0.00
Modify  | 11.891     | 11.891     | 11.891     |   0.0 |  1.04
Other   |            | 2.824      |            |       |  0.25

Nlocal:    19652 ave 19652 max 19652 min
Histogram: 1 0 0 0 0 0 0 0 0 0
Nghost:    20366 ave 20366 max 20366 min
Histogram: 1 0 0 0 0 0 0 0 0 0
Neighs:    1.88225e+06 ave 1.88225e+06 max 1.88225e+06 min
Histogram: 1 0 0 0 0 0 0 0 0 0

Total # of neighbors = 1882246
Ave neighs/atom = 95.7789
Neighbor list builds = 6172
Dangerous builds not checked
Setting up Verlet run ...
  Unit style    : metal
  Current step  : 193341
  Time step     : 0.001
Per MPI rank memory allocation (min/avg/max) = 18.96 | 18.96 | 18.96 Mbytes
Step Temp Press TotEng PotEng Enthalpy 
  193341    1298.9238    -1476.698   -77222.959   -80522.344   -77437.531 
  193343    1297.8417   -1424.7663   -77222.955   -80519.592   -77429.982 
  193836    1264.2076    1384.6521   -77366.565   -80577.768   -77165.851 
Loop time of 80.5183 on 1 procs for 495 steps with 19652 atoms

Performance: 0.531 ns/day, 45.184 hours/ns, 6.148 timesteps/s
99.7% CPU use with 1 MPI tasks x no OpenMP threads

MPI task timing breakdown:
Section |  min time  |  avg time  |  max time  |%varavg| %total
---------------------------------------------------------------
Pair    | 44.89      | 44.89      | 44.89      |   0.0 | 55.75
Neigh   | 33.79      | 33.79      | 33.79      |   0.0 | 41.97
Comm    | 0.75318    | 0.75318    | 0.75318    |   0.0 |  0.94
Output  | 0.042947   | 0.042947   | 0.042947   |   0.0 |  0.05
Modify  | 0.83899    | 0.83899    | 0.83899    |   0.0 |  1.04
Other   |            | 0.2034     |            |       |  0.25

Nlocal:    19652 ave 19652 max 19652 min
Histogram: 1 0 0 0 0 0 0 0 0 0
Nghost:    20323 ave 20323 max 20323 min
Histogram: 1 0 0 0 0 0 0 0 0 0
Neighs:    1.88619e+06 ave 1.88619e+06 max 1.88619e+06 min
Histogram: 1 0 0 0 0 0 0 0 0 0

Total # of neighbors = 1886186
Ave neighs/atom = 95.9793
Neighbor list builds = 495
Dangerous builds not checked
Setting up Verlet run ...
  Unit style    : metal
  Current step  : 193836
  Time step     : 0.001
Per MPI rank memory allocation (min/avg/max) = 18.96 | 18.96 | 18.96 Mbytes
Step Temp Press TotEng PotEng Enthalpy 
  193836    1264.2076    1384.6521   -77366.565   -80577.768   -77165.851 
  200008    1251.4235   -442.05076   -77513.322   -80692.051   -77577.357 
Loop time of 1177.48 on 1 procs for 6172 steps with 19652 atoms

Performance: 0.453 ns/day, 52.994 hours/ns, 5.242 timesteps/s
86.1% CPU use with 1 MPI tasks x no OpenMP threads

MPI task timing breakdown:
Section |  min time  |  avg time  |  max time  |%varavg| %total
---------------------------------------------------------------
Pair    | 642.54     | 642.54     | 642.54     |   0.0 | 54.57
Neigh   | 510.72     | 510.72     | 510.72     |   0.0 | 43.37
Comm    | 9.851      | 9.851      | 9.851      |   0.0 |  0.84
Output  | 0.00018692 | 0.00018692 | 0.00018692 |   0.0 |  0.00
Modify  | 11.493     | 11.493     | 11.493     |   0.0 |  0.98
Other   |            | 2.877      |            |       |  0.24

Nlocal:    19652 ave 19652 max 19652 min
Histogram: 1 0 0 0 0 0 0 0 0 0
Nghost:    20337 ave 20337 max 20337 min
Histogram: 1 0 0 0 0 0 0 0 0 0
Neighs:    1.88703e+06 ave 1.88703e+06 max 1.88703e+06 min
Histogram: 1 0 0 0 0 0 0 0 0 0

Total # of neighbors = 1887032
Ave neighs/atom = 96.0224
Neighbor list builds = 6172
Dangerous builds not checked
Setting up Verlet run ...
  Unit style    : metal
  Current step  : 200008
  Time step     : 0.001
Per MPI rank memory allocation (min/avg/max) = 18.96 | 18.96 | 18.96 Mbytes
Step Temp Press TotEng PotEng Enthalpy 
  200008    1251.4235   -442.05076   -77513.322   -80692.051   -77577.357 
  200010     1253.079   -552.52957   -77513.326   -80696.261   -77593.364 
  200503    1228.8313    300.95161   -77716.563   -80837.906   -77673.071 
Loop time of 99.1836 on 1 procs for 495 steps with 19652 atoms

Performance: 0.431 ns/day, 55.659 hours/ns, 4.991 timesteps/s
80.8% CPU use with 1 MPI tasks x no OpenMP threads

MPI task timing breakdown:
Section |  min time  |  avg time  |  max time  |%varavg| %total
---------------------------------------------------------------
Pair    | 53.974     | 53.974     | 53.974     |   0.0 | 54.42
Neigh   | 43.174     | 43.174     | 43.174     |   0.0 | 43.53
Comm    | 0.79254    | 0.79254    | 0.79254    |   0.0 |  0.80
Output  | 0.041081   | 0.041081   | 0.041081   |   0.0 |  0.04
Modify  | 0.94618    | 0.94618    | 0.94618    |   0.0 |  0.95
Other   |            | 0.2557     |            |       |  0.26

Nlocal:    19652 ave 19652 max 19652 min
Histogram: 1 0 0 0 0 0 0 0 0 0
Nghost:    20353 ave 20353 max 20353 min
Histogram: 1 0 0 0 0 0 0 0 0 0
Neighs:    1.8915e+06 ave 1.8915e+06 max 1.8915e+06 min
Histogram: 1 0 0 0 0 0 0 0 0 0

Total # of neighbors = 1891502
Ave neighs/atom = 96.2498
Neighbor list builds = 495
Dangerous builds not checked
Setting up Verlet run ...
  Unit style    : metal
  Current step  : 200503
  Time step     : 0.001
Per MPI rank memory allocation (min/avg/max) = 18.96 | 18.96 | 18.96 Mbytes
Step Temp Press TotEng PotEng Enthalpy 
  200503    1228.8313    300.95161   -77716.563   -80837.906   -77673.071 
  206675    1199.0286    3083.2843   -77931.754   -80977.396   -77487.661 
Loop time of 1083.19 on 1 procs for 6172 steps with 19652 atoms

Performance: 0.492 ns/day, 48.750 hours/ns, 5.698 timesteps/s
93.9% CPU use with 1 MPI tasks x no OpenMP threads

MPI task timing breakdown:
Section |  min time  |  avg time  |  max time  |%varavg| %total
---------------------------------------------------------------
Pair    | 590.95     | 590.95     | 590.95     |   0.0 | 54.56
Neigh   | 468.77     | 468.77     | 468.77     |   0.0 | 43.28
Comm    | 9.7454     | 9.7454     | 9.7454     |   0.0 |  0.90
Output  | 0.00014591 | 0.00014591 | 0.00014591 |   0.0 |  0.00
Modify  | 11.099     | 11.099     | 11.099     |   0.0 |  1.02
Other   |            | 2.62       |            |       |  0.24

Nlocal:    19652 ave 19652 max 19652 min
Histogram: 1 0 0 0 0 0 0 0 0 0
Nghost:    20337 ave 20337 max 20337 min
Histogram: 1 0 0 0 0 0 0 0 0 0
Neighs:    1.89732e+06 ave 1.89732e+06 max 1.89732e+06 min
Histogram: 1 0 0 0 0 0 0 0 0 0

Total # of neighbors = 1897324
Ave neighs/atom = 96.5461
Neighbor list builds = 6172
Dangerous builds not checked
Setting up Verlet run ...
  Unit style    : metal
  Current step  : 206675
  Time step     : 0.001
[...]
99.5% CPU use with 1 MPI tasks x no OpenMP threads

MPI task timing breakdown:
Section |  min time  |  avg time  |  max time  |%varavg| %total
---------------------------------------------------------------
Pair    | 45.883     | 45.883     | 45.883     |   0.0 | 55.39
Neigh   | 34.857     | 34.857     | 34.857     |   0.0 | 42.08
Comm    | 0.88421    | 0.88421    | 0.88421    |   0.0 |  1.07
Output  | 0.043221   | 0.043221   | 0.043221   |   0.0 |  0.05
Modify  | 0.94492    | 0.94492    | 0.94492    |   0.0 |  1.14
Other   |            | 0.2249     |            |       |  0.27

Nlocal:    19652 ave 19652 max 19652 min
Histogram: 1 0 0 0 0 0 0 0 0 0
Nghost:    20706 ave 20706 max 20706 min
Histogram: 1 0 0 0 0 0 0 0 0 0
Neighs:    1.98092e+06 ave 1.98092e+06 max 1.98092e+06 min
Histogram: 1 0 0 0 0 0 0 0 0 0

Total # of neighbors = 1980922
Ave neighs/atom = 100.8
Neighbor list builds = 495
Dangerous builds not checked
Setting up Verlet run ...
  Unit style    : metal
  Current step  : 307175
  Time step     : 0.001
Per MPI rank memory allocation (min/avg/max) = 19.34 | 19.34 | 19.34 Mbytes
Step Temp Press TotEng PotEng Enthalpy 
  307175    420.77776   -1154.9771   -83237.665   -84306.479   -83396.895 
  313347    395.06672    449.73919   -83374.015   -84377.521   -83312.115 
Loop time of 1050.16 on 1 procs for 6172 steps with 19652 atoms

Performance: 0.508 ns/day, 47.264 hours/ns, 5.877 timesteps/s
97.6% CPU use with 1 MPI tasks x no OpenMP threads

MPI task timing breakdown:
Section |  min time  |  avg time  |  max time  |%varavg| %total
---------------------------------------------------------------
Pair    | 582.29     | 582.29     | 582.29     |   0.0 | 55.45
Neigh   | 445.35     | 445.35     | 445.35     |   0.0 | 42.41
Comm    | 9.2473     | 9.2473     | 9.2473     |   0.0 |  0.88
Output  | 0.00041294 | 0.00041294 | 0.00041294 |   0.0 |  0.00
Modify  | 10.713     | 10.713     | 10.713     |   0.0 |  1.02
Other   |            | 2.557      |            |       |  0.24

Nlocal:    19652 ave 19652 max 19652 min
Histogram: 1 0 0 0 0 0 0 0 0 0
Nghost:    20712 ave 20712 max 20712 min
Histogram: 1 0 0 0 0 0 0 0 0 0
Neighs:    1.98546e+06 ave 1.98546e+06 max 1.98546e+06 min
Histogram: 1 0 0 0 0 0 0 0 0 0

Total # of neighbors = 1985458
Ave neighs/atom = 101.031
Neighbor list builds = 6172
Dangerous builds not checked
Setting up Verlet run ...
  Unit style    : metal
  Current step  : 313347
  Time step     : 0.001
Per MPI rank memory allocation (min/avg/max) = 19.34 | 19.34 | 19.34 Mbytes
Step Temp Press TotEng PotEng Enthalpy 
  313347    395.06672    449.73919   -83374.015   -84377.521   -83312.115 
  313349    394.64129    474.94571    -83374.01   -84376.435    -83308.64 
  313842    368.83681    209.26976   -83512.353   -84449.232   -83483.573 
Loop time of 84.0986 on 1 procs for 495 steps with 19652 atoms

Performance: 0.509 ns/day, 47.193 hours/ns, 5.886 timesteps/s
97.9% CPU use with 1 MPI tasks x no OpenMP threads

MPI task timing breakdown:
Section |  min time  |  avg time  |  max time  |%varavg| %total
---------------------------------------------------------------
Pair    | 46.576     | 46.576     | 46.576     |   0.0 | 55.38
Neigh   | 35.672     | 35.672     | 35.672     |   0.0 | 42.42
Comm    | 0.73747    | 0.73747    | 0.73747    |   0.0 |  0.88
Output  | 0.043298   | 0.043298   | 0.043298   |   0.0 |  0.05
Modify  | 0.86361    | 0.86361    | 0.86361    |   0.0 |  1.03
Other   |            | 0.2061     |            |       |  0.25

Nlocal:    19652 ave 19652 max 19652 min
Histogram: 1 0 0 0 0 0 0 0 0 0
Nghost:    20700 ave 20700 max 20700 min
Histogram: 1 0 0 0 0 0 0 0 0 0
Neighs:    1.98708e+06 ave 1.98708e+06 max 1.98708e+06 min
Histogram: 1 0 0 0 0 0 0 0 0 0

Total # of neighbors = 1987085
Ave neighs/atom = 101.114
Neighbor list builds = 495
Dangerous builds not checked
Setting up Verlet run ...
  Unit style    : metal
  Current step  : 313842
  Time step     : 0.001
Per MPI rank memory allocation (min/avg/max) = 19.34 | 19.34 | 19.34 Mbytes
Step Temp Press TotEng PotEng Enthalpy 
  313842    368.83681    209.26976   -83512.353   -84449.232   -83483.573 
  320014    350.38978    238.57381   -83629.551   -84519.573   -83596.774 
Loop time of 1049.42 on 1 procs for 6172 steps with 19652 atoms

Performance: 0.508 ns/day, 47.230 hours/ns, 5.881 timesteps/s
97.7% CPU use with 1 MPI tasks x no OpenMP threads

MPI task timing breakdown:
Section |  min time  |  avg time  |  max time  |%varavg| %total
---------------------------------------------------------------
Pair    | 581.81     | 581.81     | 581.81     |   0.0 | 55.44
Neigh   | 444.92     | 444.92     | 444.92     |   0.0 | 42.40
Comm    | 9.4519     | 9.4519     | 9.4519     |   0.0 |  0.90
Output  | 0.00020909 | 0.00020909 | 0.00020909 |   0.0 |  0.00
Modify  | 10.646     | 10.646     | 10.646     |   0.0 |  1.01
Other   |            | 2.594      |            |       |  0.25

Nlocal:    19652 ave 19652 max 19652 min
Histogram: 1 0 0 0 0 0 0 0 0 0
Nghost:    20740 ave 20740 max 20740 min
Histogram: 1 0 0 0 0 0 0 0 0 0
Neighs:    1.98878e+06 ave 1.98878e+06 max 1.98878e+06 min
Histogram: 1 0 0 0 0 0 0 0 0 0

Total # of neighbors = 1988776
Ave neighs/atom = 101.2
Neighbor list builds = 6172
Dangerous builds not checked
Setting up Verlet run ...
  Unit style    : metal
  Current step  : 320014
  Time step     : 0.001
Per MPI rank memory allocation (min/avg/max) = 19.34 | 19.34 | 19.34 Mbytes
Step Temp Press TotEng PotEng Enthalpy 
  320014    350.38978    238.57381   -83629.551   -84519.573   -83596.774 
  320016     350.6535    228.57651   -83629.552   -84520.244   -83598.149 
  320509    321.85895    280.74655   -83776.538   -84594.089    -83738.01 
Loop time of 83.711 on 1 procs for 495 steps with 19652 atoms

Performance: 0.511 ns/day, 46.976 hours/ns, 5.913 timesteps/s
98.3% CPU use with 1 MPI tasks x no OpenMP threads

MPI task timing breakdown:
Section |  min time  |  avg time  |  max time  |%varavg| %total
---------------------------------------------------------------
Pair    | 46.254     | 46.254     | 46.254     |   0.0 | 55.25
Neigh   | 35.63      | 35.63      | 35.63      |   0.0 | 42.56
Comm    | 0.74315    | 0.74315    | 0.74315    |   0.0 |  0.89
Output  | 0.042248   | 0.042248   | 0.042248   |   0.0 |  0.05
Modify  | 0.83589    | 0.83589    | 0.83589    |   0.0 |  1.00
Other   |            | 0.2058     |            |       |  0.25

Nlocal:    19652 ave 19652 max 19652 min
Histogram: 1 0 0 0 0 0 0 0 0 0
Nghost:    20770 ave 20770 max 20770 min
Histogram: 1 0 0 0 0 0 0 0 0 0
Neighs:    1.99164e+06 ave 1.99164e+06 max 1.99164e+06 min
Histogram: 1 0 0 0 0 0 0 0 0 0

Total # of neighbors = 1991635
Ave neighs/atom = 101.345
Neighbor list builds = 495
Dangerous builds not checked
Setting up Verlet run ...
  Unit style    : metal
  Current step  : 320509
  Time step     : 0.001
Per MPI rank memory allocation (min/avg/max) = 19.34 | 19.34 | 19.34 Mbytes
Step Temp Press TotEng PotEng Enthalpy 
  320509    321.85895    280.74655   -83776.538   -84594.089    -83738.01 
  326681    300.45566    111.02798   -83900.049   -84663.234   -83884.825 
Loop time of 1034.86 on 1 procs for 6172 steps with 19652 atoms

Performance: 0.515 ns/day, 46.575 hours/ns, 5.964 timesteps/s
99.1% CPU use with 1 MPI tasks x no OpenMP threads

MPI task timing breakdown:
Section |  min time  |  avg time  |  max time  |%varavg| %total
---------------------------------------------------------------
Pair    | 574.13     | 574.13     | 574.13     |   0.0 | 55.48
Neigh   | 438.3      | 438.3      | 438.3      |   0.0 | 42.35
Comm    | 9.3846     | 9.3846     | 9.3846     |   0.0 |  0.91
Output  | 0.00016403 | 0.00016403 | 0.00016403 |   0.0 |  0.00
Modify  | 10.52      | 10.52      | 10.52      |   0.0 |  1.02
Other   |            | 2.527      |            |       |  0.24

Nlocal:    19652 ave 19652 max 19652 min
Histogram: 1 0 0 0 0 0 0 0 0 0
Nghost:    20788 ave 20788 max 20788 min
Histogram: 1 0 0 0 0 0 0 0 0 0
Neighs:    1.99295e+06 ave 1.99295e+06 max 1.99295e+06 min
Histogram: 1 0 0 0 0 0 0 0 0 0

Total # of neighbors = 1992948
Ave neighs/atom = 101.412
Neighbor list builds = 6172
Dangerous builds not checked
Setting up Verlet run ...
  Unit style    : metal
  Current step  : 326681
  Time step     : 0.001
Per MPI rank memory allocation (min/avg/max) = 19.34 | 19.34 | 19.34 Mbytes
Step Temp Press TotEng PotEng Enthalpy 
  326681    300.45566    111.02798   -83900.049   -84663.234   -83884.825 
  326683    300.12089    131.96203   -83900.049   -84662.384   -83881.954 
  327176    272.62087    604.57979   -84039.143   -84731.625   -83956.342 
Loop time of 89.8904 on 1 procs for 495 steps with 19652 atoms

Performance: 0.476 ns/day, 50.444 hours/ns, 5.507 timesteps/s
90.8% CPU use with 1 MPI tasks x no OpenMP threads

MPI task timing breakdown:
Section |  min time  |  avg time  |  max time  |%varavg| %total
---------------------------------------------------------------
Pair    | 50.245     | 50.245     | 50.245     |   0.0 | 55.90
Neigh   | 37.613     | 37.613     | 37.613     |   0.0 | 41.84
Comm    | 0.84179    | 0.84179    | 0.84179    |   0.0 |  0.94
Output  | 0.04313    | 0.04313    | 0.04313    |   0.0 |  0.05
Modify  | 0.93737    | 0.93737    | 0.93737    |   0.0 |  1.04
Other   |            | 0.21       |            |       |  0.23

Nlocal:    19652 ave 19652 max 19652 min
Histogram: 1 0 0 0 0 0 0 0 0 0
Nghost:    20737 ave 20737 max 20737 min
Histogram: 1 0 0 0 0 0 0 0 0 0
Neighs:    1.99588e+06 ave 1.99588e+06 max 1.99588e+06 min
Histogram: 1 0 0 0 0 0 0 0 0 0

Total # of neighbors = 1995877
Ave neighs/atom = 101.561
Neighbor list builds = 495
Dangerous builds not checked
Setting up Verlet run ...
  Unit style    : metal
  Current step  : 327176
  Time step     : 0.001
Per MPI rank memory allocation (min/avg/max) = 19.34 | 19.34 | 19.34 Mbytes
Step Temp Press TotEng PotEng Enthalpy 
  327176    272.62087    604.57979   -84039.143   -84731.625   -83956.342 
  333348    247.66118    748.12251   -84167.162   -84796.244   -84064.796 
Loop time of 1037.53 on 1 procs for 6172 steps with 19652 atoms

Performance: 0.514 ns/day, 46.695 hours/ns, 5.949 timesteps/s
98.2% CPU use with 1 MPI tasks x no OpenMP threads

MPI task timing breakdown:
Section |  min time  |  avg time  |  max time  |%varavg| %total
---------------------------------------------------------------
Pair    | 575.98     | 575.98     | 575.98     |   0.0 | 55.51
Neigh   | 438.61     | 438.61     | 438.61     |   0.0 | 42.27
Comm    | 9.6458     | 9.6458     | 9.6458     |   0.0 |  0.93
Output  | 0.00023699 | 0.00023699 | 0.00023699 |   0.0 |  0.00
Modify  | 10.716     | 10.716     | 10.716     |   0.0 |  1.03
Other   |            | 2.586      |            |       |  0.25

Nlocal:    19652 ave 19652 max 19652 min
Histogram: 1 0 0 0 0 0 0 0 0 0
Nghost:    20763 ave 20763 max 20763 min
Histogram: 1 0 0 0 0 0 0 0 0 0
Neighs:    1.99804e+06 ave 1.99804e+06 max 1.99804e+06 min
Histogram: 1 0 0 0 0 0 0 0 0 0

Total # of neighbors = 1998041
Ave neighs/atom = 101.671
Neighbor list builds = 6172
Dangerous builds not checked
Setting up Verlet run ...
  Unit style    : metal
  Current step  : 333348
  Time step     : 0.001
Per MPI rank memory allocation (min/avg/max) = 19.34 | 19.34 | 19.34 Mbytes
Step Temp Press TotEng PotEng Enthalpy 
  333348    247.66118    748.12251   -84167.162   -84796.244   -84064.796 
  333350    247.72005    738.70995    -84167.16   -84796.391   -84066.082 
  333843    223.12697   -971.34801   -84296.583   -84863.345   -84429.467 
Loop time of 82.8974 on 1 procs for 495 steps with 19652 atoms

Performance: 0.516 ns/day, 46.519 hours/ns, 5.971 timesteps/s
99.3% CPU use with 1 MPI tasks x no OpenMP threads

MPI task timing breakdown:
Section |  min time  |  avg time  |  max time  |%varavg| %total
---------------------------------------------------------------
Pair    | 46.098     | 46.098     | 46.098     |   0.0 | 55.61
Neigh   | 34.931     | 34.931     | 34.931     |   0.0 | 42.14
Comm    | 0.76521    | 0.76521    | 0.76521    |   0.0 |  0.92
Output  | 0.042416   | 0.042416   | 0.042416   |   0.0 |  0.05
Modify  | 0.85547    | 0.85547    | 0.85547    |   0.0 |  1.03
Other   |            | 0.2056     |            |       |  0.25

Nlocal:    19652 ave 19652 max 19652 min
Histogram: 1 0 0 0 0 0 0 0 0 0
Nghost:    20778 ave 20778 max 20778 min
Histogram: 1 0 0 0 0 0 0 0 0 0
Neighs:    1.99891e+06 ave 1.99891e+06 max 1.99891e+06 min
Histogram: 1 0 0 0 0 0 0 0 0 0

Total # of neighbors = 1998910
Ave neighs/atom = 101.715
Neighbor list builds = 495
Dangerous builds not checked
Setting up Verlet run ...
  Unit style    : metal
  Current step  : 333843
  Time step     : 0.001
Per MPI rank memory allocation (min/avg/max) = 19.34 | 19.34 | 19.34 Mbytes
Step Temp Press TotEng PotEng Enthalpy 
  333843    223.12697   -971.34801   -84296.583   -84863.345   -84429.467 
  340015    199.60178    542.97575   -84424.668   -84931.674   -84350.506 
Loop time of 1005.43 on 1 procs for 6172 steps with 19652 atoms

Performance: 0.530 ns/day, 45.250 hours/ns, 6.139 timesteps/s
99.7% CPU use with 1 MPI tasks x no OpenMP threads

MPI task timing breakdown:
Section |  min time  |  avg time  |  max time  |%varavg| %total
---------------------------------------------------------------
Pair    | 560.27     | 560.27     | 560.27     |   0.0 | 55.72
Neigh   | 423.96     | 423.96     | 423.96     |   0.0 | 42.17
Comm    | 8.7365     | 8.7365     | 8.7365     |   0.0 |  0.87
Output  | 0.00013304 | 0.00013304 | 0.00013304 |   0.0 |  0.00
Modify  | 10.051     | 10.051     | 10.051     |   0.0 |  1.00
Other   |            | 2.418      |            |       |  0.24

Nlocal:    19652 ave 19652 max 19652 min
Histogram: 1 0 0 0 0 0 0 0 0 0
Nghost:    20814 ave 20814 max 20814 min
Histogram: 1 0 0 0 0 0 0 0 0 0
Neighs:    2.00244e+06 ave 2.00244e+06 max 2.00244e+06 min
Histogram: 1 0 0 0 0 0 0 0 0 0

Total # of neighbors = 2002441
Ave neighs/atom = 101.895
Neighbor list builds = 6172
Dangerous builds not checked
Setting up Verlet run ...
  Unit style    : metal
  Current step  : 340015
  Time step     : 0.001
Per MPI rank memory allocation (min/avg/max) = 19.34 | 19.34 | 19.34 Mbytes
Step Temp Press TotEng PotEng Enthalpy 
  340015    199.60178    542.97575   -84424.668   -84931.674   -84350.506 
  340017    199.68808    541.37034   -84424.668   -84931.894   -84350.725 
  340510    173.76237    644.24193   -84549.092   -84990.465   -84461.184 
Loop time of 80.1044 on 1 procs for 495 steps with 19652 atoms

Performance: 0.534 ns/day, 44.952 hours/ns, 6.179 timesteps/s
99.9% CPU use with 1 MPI tasks x no OpenMP threads

MPI task timing breakdown:
Section |  min time  |  avg time  |  max time  |%varavg| %total
---------------------------------------------------------------
Pair    | 44.676     | 44.676     | 44.676     |   0.0 | 55.77
Neigh   | 33.734     | 33.734     | 33.734     |   0.0 | 42.11
Comm    | 0.6753     | 0.6753     | 0.6753     |   0.0 |  0.84
Output  | 0.040517   | 0.040517   | 0.040517   |   0.0 |  0.05
Modify  | 0.78789    | 0.78789    | 0.78789    |   0.0 |  0.98
Other   |            | 0.1899     |            |       |  0.24

Nlocal:    19652 ave 19652 max 19652 min
Histogram: 1 0 0 0 0 0 0 0 0 0
Nghost:    20801 ave 20801 max 20801 min
Histogram: 1 0 0 0 0 0 0 0 0 0
Neighs:    2.00477e+06 ave 2.00477e+06 max 2.00477e+06 min
Histogram: 1 0 0 0 0 0 0 0 0 0

Total # of neighbors = 2004774
Ave neighs/atom = 102.014
Neighbor list builds = 495
Dangerous builds not checked
Setting up Verlet run ...
  Unit style    : metal
  Current step  : 340510
  Time step     : 0.001
Per MPI rank memory allocation (min/avg/max) = 19.34 | 19.34 | 19.34 Mbytes
Step Temp Press TotEng PotEng Enthalpy 
  340510    173.76237    644.24193   -84549.092   -84990.465   -84461.184 
  346682    149.99281   -325.12794   -84677.276   -85058.271   -84721.621 
Loop time of 1003.16 on 1 procs for 6172 steps with 19652 atoms

Performance: 0.532 ns/day, 45.148 hours/ns, 6.153 timesteps/s
99.8% CPU use with 1 MPI tasks x no OpenMP threads

MPI task timing breakdown:
Section |  min time  |  avg time  |  max time  |%varavg| %total
---------------------------------------------------------------
Pair    | 559.35     | 559.35     | 559.35     |   0.0 | 55.76
Neigh   | 422.44     | 422.44     | 422.44     |   0.0 | 42.11
Comm    | 8.8123     | 8.8123     | 8.8123     |   0.0 |  0.88
Output  | 0.00014901 | 0.00014901 | 0.00014901 |   0.0 |  0.00
Modify  | 10.13      | 10.13      | 10.13      |   0.0 |  1.01
Other   |            | 2.425      |            |       |  0.24

Nlocal:    19652 ave 19652 max 19652 min
Histogram: 1 0 0 0 0 0 0 0 0 0
Nghost:    20823 ave 20823 max 20823 min
Histogram: 1 0 0 0 0 0 0 0 0 0
Neighs:    2.00513e+06 ave 2.00513e+06 max 2.00513e+06 min
Histogram: 1 0 0 0 0 0 0 0 0 0

Total # of neighbors = 2005132
Ave neighs/atom = 102.032
Neighbor list builds = 6172
Dangerous builds not checked
Setting up Verlet run ...
  Unit style    : metal
  Current step  : 346682
  Time step     : 0.001
Per MPI rank memory allocation (min/avg/max) = 19.34 | 19.34 | 19.34 Mbytes
Step Temp Press TotEng PotEng Enthalpy 
  346682    149.99281   -325.12794   -84677.276   -85058.271   -84721.621 
  346684    149.94097   -313.76396   -84677.276    -85058.14   -84720.071 
  347177    126.12964   -25.678232    -84798.07   -85118.451   -84801.569 
Loop time of 79.8298 on 1 procs for 495 steps with 19652 atoms

Performance: 0.536 ns/day, 44.798 hours/ns, 6.201 timesteps/s
100.0% CPU use with 1 MPI tasks x no OpenMP threads

MPI task timing breakdown:
Section |  min time  |  avg time  |  max time  |%varavg| %total
---------------------------------------------------------------
Pair    | 44.547     | 44.547     | 44.547     |   0.0 | 55.80
Neigh   | 33.574     | 33.574     | 33.574     |   0.0 | 42.06
Comm    | 0.68636    | 0.68636    | 0.68636    |   0.0 |  0.86
Output  | 0.040684   | 0.040684   | 0.040684   |   0.0 |  0.05
Modify  | 0.79221    | 0.79221    | 0.79221    |   0.0 |  0.99
Other   |            | 0.189      |            |       |  0.24

Nlocal:    19652 ave 19652 max 19652 min
Histogram: 1 0 0 0 0 0 0 0 0 0
Nghost:    20799 ave 20799 max 20799 min
Histogram: 1 0 0 0 0 0 0 0 0 0
Neighs:    2.00741e+06 ave 2.00741e+06 max 2.00741e+06 min
Histogram: 1 0 0 0 0 0 0 0 0 0

Total # of neighbors = 2007407
Ave neighs/atom = 102.148
Neighbor list builds = 495
Dangerous builds not checked
Setting up Verlet run ...
  Unit style    : metal
  Current step  : 347177
  Time step     : 0.001
Per MPI rank memory allocation (min/avg/max) = 19.34 | 19.34 | 19.34 Mbytes
Step Temp Press TotEng PotEng Enthalpy 
  347177    126.12964   -25.678232    -84798.07   -85118.451   -84801.569 
  353349    99.591018   -837.02719   -84935.404   -85188.374   -85049.374 
Loop time of 1004.38 on 1 procs for 6172 steps with 19652 atoms

Performance: 0.531 ns/day, 45.203 hours/ns, 6.145 timesteps/s
99.7% CPU use with 1 MPI tasks x no OpenMP threads

MPI task timing breakdown:
Section |  min time  |  avg time  |  max time  |%varavg| %total
---------------------------------------------------------------
Pair    | 560.62     | 560.62     | 560.62     |   0.0 | 55.82
Neigh   | 422.48     | 422.48     | 422.48     |   0.0 | 42.06
Comm    | 8.769      | 8.769      | 8.769      |   0.0 |  0.87
Output  | 0.00018406 | 0.00018406 | 0.00018406 |   0.0 |  0.00
Modify  | 10.093     | 10.093     | 10.093     |   0.0 |  1.00
Other   |            | 2.416      |            |       |  0.24

Nlocal:    19652 ave 19652 max 19652 min
Histogram: 1 0 0 0 0 0 0 0 0 0
Nghost:    20837 ave 20837 max 20837 min
Histogram: 1 0 0 0 0 0 0 0 0 0
Neighs:    2.00914e+06 ave 2.00914e+06 max 2.00914e+06 min
Histogram: 1 0 0 0 0 0 0 0 0 0

Total # of neighbors = 2009143
Ave neighs/atom = 102.236
Neighbor list builds = 6172
Dangerous builds not checked
Total wall time: 15:26:53
