LAMMPS (12 Dec 2018)
Lattice spacing in x,y,z = 4 4 4
Created orthogonal box = (0 0 0) to (68 68 68)
  1 by 2 by 3 MPI processor grid
Created 19652 atoms
  Time spent = 0.00101185 secs
Setting atom values ...
  19480 settings made for type/fraction
Neighbor list info ...
  update every 1 steps, delay 0 steps, check no
  max neighbors/atom: 2000, page size: 100000
  master list distance cutoff = 8.5
  ghost atom cutoff = 8.5
  binsize = 4.25, bins = 16 16 16
  1 neighbor lists, perpetual/occasional/extra = 1 0 0
  (1) pair eam/alloy, perpetual
      attributes: half, newton on
      pair build: half/bin/atomonly/newton
      stencil: half/bin/3d/newton
      bin: standard
Setting up Verlet run ...
  Unit style    : metal
  Current step  : 0
  Time step     : 0.001
Per MPI rank memory allocation (min/avg/max) = 5.546 | 5.705 | 5.983 Mbytes
Step Temp Press TotEng PotEng Enthalpy 
       0          300    33431.605    -65131.79   -65893.818   -58570.736 
    1000    162.44724    39107.137   -65131.645   -65544.276   -57456.751 
Loop time of 41.2644 on 6 procs for 1000 steps with 19652 atoms

Performance: 2.094 ns/day, 11.462 hours/ns, 24.234 timesteps/s
99.3% CPU use with 6 MPI tasks x no OpenMP threads

MPI task timing breakdown:
Section |  min time  |  avg time  |  max time  |%varavg| %total
---------------------------------------------------------------
Pair    | 23.058     | 23.611     | 24.378     |  10.0 | 57.22
Neigh   | 13.762     | 14.176     | 14.802     |   8.7 | 34.35
Comm    | 2.5691     | 3.2229     | 4.2073     |  33.4 |  7.81
Output  | 0.00026488 | 0.00031519 | 0.00039196 |   0.0 |  0.00
Modify  | 0.1127     | 0.121      | 0.12892    |   1.8 |  0.29
Other   |            | 0.1334     |            |       |  0.32

Nlocal:    3275.33 ave 3333 max 3178 min
Histogram: 2 0 0 0 0 0 0 0 1 3
Nghost:    7729.5 ave 7872 max 7472 min
Histogram: 2 0 0 0 0 0 0 0 0 4
Neighs:    261704 ave 270833 max 253712 min
Histogram: 2 0 0 0 2 0 0 0 1 1

Total # of neighbors = 1570224
Ave neighs/atom = 79.9015
Neighbor list builds = 1000
Dangerous builds not checked
Setting up Verlet run ...
  Unit style    : metal
  Current step  : 1000
  Time step     : 0.001
Per MPI rank memory allocation (min/avg/max) = 5.549 | 5.838 | 5.987 Mbytes
Step Temp Press TotEng PotEng Enthalpy 
    1000    162.44724    39107.137   -65131.645   -65544.276   -57456.751 
    2000    298.20436    46.431464   -64494.724    -65252.19   -64485.088 
Loop time of 42.4638 on 6 procs for 1000 steps with 19652 atoms

Performance: 2.035 ns/day, 11.795 hours/ns, 23.549 timesteps/s
98.0% CPU use with 6 MPI tasks x no OpenMP threads

MPI task timing breakdown:
Section |  min time  |  avg time  |  max time  |%varavg| %total
---------------------------------------------------------------
Pair    | 23.936     | 24.43      | 24.87      |   8.3 | 57.53
Neigh   | 13.414     | 13.888     | 14.898     |  12.7 | 32.70
Comm    | 2.0925     | 3.5206     | 4.4818     |  41.5 |  8.29
Output  | 0.00011897 | 0.00013598 | 0.00019002 |   0.0 |  0.00
Modify  | 0.4585     | 0.48297    | 0.50496    |   2.3 |  1.14
Other   |            | 0.1427     |            |       |  0.34

Nlocal:    3275.33 ave 3349 max 3143 min
Histogram: 1 0 0 1 0 0 0 1 1 2
Nghost:    7715.33 ave 7877 max 7407 min
Histogram: 1 1 0 0 0 0 0 0 1 3
Neighs:    240052 ave 249472 max 230213 min
Histogram: 1 0 1 0 1 1 0 0 1 1

Total # of neighbors = 1440315
Ave neighs/atom = 73.291
Neighbor list builds = 1000
Dangerous builds not checked
Setting up Verlet run ...
  Unit style    : metal
  Current step  : 2000
  Time step     : 0.001
Per MPI rank memory allocation (min/avg/max) = 5.549 | 5.838 | 5.987 Mbytes
Step Temp Press TotEng PotEng Enthalpy 
    2000    298.20436    46.431464   -64494.724    -65252.19   -64485.088 
   10000    2453.6449    906.36905   -50884.656   -57117.137   -50634.193 
Loop time of 318.705 on 6 procs for 8000 steps with 19652 atoms

Performance: 2.169 ns/day, 11.066 hours/ns, 25.102 timesteps/s
98.9% CPU use with 6 MPI tasks x no OpenMP threads

MPI task timing breakdown:
Section |  min time  |  avg time  |  max time  |%varavg| %total
---------------------------------------------------------------
Pair    | 174.53     | 178.29     | 181.98     |  21.0 | 55.94
Neigh   | 108.78     | 111.19     | 115.43     |  23.0 | 34.89
Comm    | 16.476     | 24.496     | 29.667     |  92.6 |  7.69
Output  | 0.00015497 | 0.00019896 | 0.00039196 |   0.0 |  0.00
Modify  | 3.5813     | 3.6417     | 3.6794     |   1.8 |  1.14
Other   |            | 1.082      |            |       |  0.34

Nlocal:    3275.33 ave 3320 max 3251 min
Histogram: 2 1 0 0 1 1 0 0 0 1
Nghost:    6400 ave 6437 max 6355 min
Histogram: 1 0 0 0 2 1 0 1 0 1
Neighs:    185464 ave 191836 max 181896 min
Histogram: 2 0 2 0 0 1 0 0 0 1

Total # of neighbors = 1112782
Ave neighs/atom = 56.6244
Neighbor list builds = 8000
Dangerous builds not checked
Setting up Verlet run ...
  Unit style    : metal
  Current step  : 10000
  Time step     : 0.001
Per MPI rank memory allocation (min/avg/max) = 5.549 | 5.838 | 5.987 Mbytes
Step Temp Press TotEng PotEng Enthalpy 
   10000    2453.6449    906.36905   -50884.656   -57117.137   -50634.193 
   40000    2449.0952    366.45694   -50843.104   -57064.029   -50741.459 
Loop time of 1137.76 on 6 procs for 30000 steps with 19652 atoms

Performance: 2.278 ns/day, 10.535 hours/ns, 26.368 timesteps/s
98.9% CPU use with 6 MPI tasks x no OpenMP threads

MPI task timing breakdown:
Section |  min time  |  avg time  |  max time  |%varavg| %total
---------------------------------------------------------------
Pair    | 613.27     | 625.35     | 638.03     |  35.4 | 54.96
Neigh   | 402.86     | 413.34     | 425.83     |  42.1 | 36.33
Comm    | 55.957     | 81.362     | 103.99     | 173.9 |  7.15
Output  | 0.00024199 | 0.00032135 | 0.00048995 |   0.0 |  0.00
Modify  | 13.61      | 13.768     | 13.922     |   3.5 |  1.21
Other   |            | 3.936      |            |       |  0.35

Nlocal:    3275.33 ave 3297 max 3238 min
Histogram: 1 0 0 1 0 0 1 0 1 2
Nghost:    6383.33 ave 6415 max 6354 min
Histogram: 1 0 1 1 0 1 0 0 1 1
Neighs:    184724 ave 188877 max 180893 min
Histogram: 1 0 1 1 1 0 0 0 0 2

Total # of neighbors = 1108345
Ave neighs/atom = 56.3986
Neighbor list builds = 30000
Dangerous builds not checked
Setting up Verlet run ...
  Unit style    : metal
  Current step  : 40000
  Time step     : 0.001
Per MPI rank memory allocation (min/avg/max) = 5.549 | 5.838 | 5.987 Mbytes
Step Temp Press TotEng PotEng Enthalpy 
   40000    2449.0952    366.45694   -50843.104   -57064.029   -50741.459 
   40495    2402.1789    175.20398   -51051.451   -57153.204    -51003.06 
Loop time of 18.4671 on 6 procs for 495 steps with 19652 atoms

Performance: 2.316 ns/day, 10.363 hours/ns, 26.804 timesteps/s
97.7% CPU use with 6 MPI tasks x no OpenMP threads

MPI task timing breakdown:
Section |  min time  |  avg time  |  max time  |%varavg| %total
---------------------------------------------------------------
Pair    | 9.5935     | 9.8945     | 10.279     |   7.5 | 53.58
Neigh   | 6.2835     | 6.5734     | 6.7547     |   7.1 | 35.60
Comm    | 1.2303     | 1.7072     | 2.2169     |  28.9 |  9.24
Output  | 0.00010085 | 0.00012612 | 0.00023293 |   0.0 |  0.00
Modify  | 0.22429    | 0.22601    | 0.22823    |   0.2 |  1.22
Other   |            | 0.06576    |            |       |  0.36

Nlocal:    3275.33 ave 3301 max 3258 min
Histogram: 1 0 1 2 1 0 0 0 0 1
Nghost:    6368.83 ave 6407 max 6302 min
Histogram: 1 0 1 0 0 0 1 0 1 2
Neighs:    185550 ave 188734 max 182987 min
Histogram: 1 1 1 0 0 1 1 0 0 1

Total # of neighbors = 1113300
Ave neighs/atom = 56.6507
Neighbor list builds = 495
Dangerous builds not checked
Setting up Verlet run ...
  Unit style    : metal
  Current step  : 40495
  Time step     : 0.001
Per MPI rank memory allocation (min/avg/max) = 5.549 | 5.838 | 5.987 Mbytes
Step Temp Press TotEng PotEng Enthalpy 
   40495    2402.1789    175.20398   -51051.451   -57153.204    -51003.06 
   66667    2411.2677     296.3506   -51126.771    -57251.61    -51045.33 
  106667    2400.0559   -428.86713   -51047.911   -57144.272   -51166.557 
Loop time of 2521.1 on 6 procs for 66172 steps with 19652 atoms

Performance: 2.268 ns/day, 10.583 hours/ns, 26.247 timesteps/s
99.0% CPU use with 6 MPI tasks x no OpenMP threads

MPI task timing breakdown:
Section |  min time  |  avg time  |  max time  |%varavg| %total
---------------------------------------------------------------
Pair    | 1357.6     | 1383.1     | 1419.9     |  59.5 | 54.86
Neigh   | 892.54     | 908.91     | 933.5      |  44.9 | 36.05
Comm    | 127.42     | 189.5      | 231.7      | 259.6 |  7.52
Output  | 0.021787   | 0.021827   | 0.022002   |   0.1 |  0.00
Modify  | 30.288     | 30.845     | 31.191     |   6.1 |  1.22
Other   |            | 8.683      |            |       |  0.34

Nlocal:    3275.33 ave 3302 max 3234 min
Histogram: 1 0 0 0 0 1 1 2 0 1
Nghost:    6406.17 ave 6442 max 6380 min
Histogram: 1 2 0 0 1 0 0 1 0 1
Neighs:    185236 ave 189105 max 182434 min
Histogram: 1 1 0 1 1 0 1 0 0 1

Total # of neighbors = 1111413
Ave neighs/atom = 56.5547
Neighbor list builds = 66172
Dangerous builds not checked
Setting up Verlet run ...
  Unit style    : metal
  Current step  : 106667
  Time step     : 0.001
Per MPI rank memory allocation (min/avg/max) = 5.568 | 5.857 | 6.003 Mbytes
Step Temp Press TotEng PotEng Enthalpy 
  106667    2400.0559   -428.86713   -51047.911   -57144.272   -51166.557 
  107162    2372.8093    506.82446   -51330.593   -57357.744   -51191.772 
Loop time of 17.0652 on 6 procs for 495 steps with 19652 atoms

Performance: 2.506 ns/day, 9.576 hours/ns, 29.006 timesteps/s
99.6% CPU use with 6 MPI tasks x no OpenMP threads

MPI task timing breakdown:
Section |  min time  |  avg time  |  max time  |%varavg| %total
---------------------------------------------------------------
Pair    | 9.1389     | 9.3064     | 9.513      |   4.4 | 54.53
Neigh   | 6.175      | 6.3604     | 6.5476     |   5.1 | 37.27
Comm    | 0.90147    | 1.1016     | 1.467      |  22.2 |  6.46
Output  | 0.00014806 | 0.00018903 | 0.00036001 |   0.0 |  0.00
Modify  | 0.22269    | 0.2306     | 0.23394    |   0.8 |  1.35
Other   |            | 0.06598    |            |       |  0.39

Nlocal:    3275.33 ave 3306 max 3245 min
Histogram: 1 0 1 0 1 0 2 0 0 1
Nghost:    6431.33 ave 6467 max 6409 min
Histogram: 2 2 0 0 0 0 0 0 0 2
Neighs:    187148 ave 189205 max 184827 min
Histogram: 2 0 0 0 0 0 1 1 1 1

Total # of neighbors = 1122889
Ave neighs/atom = 57.1387
Neighbor list builds = 495
Dangerous builds not checked
Setting up Verlet run ...
  Unit style    : metal
  Current step  : 107162
  Time step     : 0.001
Per MPI rank memory allocation (min/avg/max) = 5.568 | 5.857 | 6.003 Mbytes
Step Temp Press TotEng PotEng Enthalpy 
  107162    2372.8093    506.82446   -51330.593   -57357.744   -51191.772 
  133334    2333.4204   -486.96457   -51419.695   -57346.795   -51553.285 
  173334    2354.4264   -193.94448   -51422.936   -57403.393   -51476.056 
Loop time of 2532.6 on 6 procs for 66172 steps with 19652 atoms

Performance: 2.257 ns/day, 10.631 hours/ns, 26.128 timesteps/s
98.9% CPU use with 6 MPI tasks x no OpenMP threads

MPI task timing breakdown:
Section |  min time  |  avg time  |  max time  |%varavg| %total
---------------------------------------------------------------
Pair    | 1350.3     | 1384.7     | 1423.9     |  66.9 | 54.67
Neigh   | 891.02     | 909.89     | 932.91     |  58.7 | 35.93
Comm    | 135.54     | 198.36     | 251.44     | 297.9 |  7.83
Output  | 0.020195   | 0.020225   | 0.020365   |   0.0 |  0.00
Modify  | 30.334     | 30.981     | 31.534     |   8.6 |  1.22
Other   |            | 8.659      |            |       |  0.34

Nlocal:    3275.33 ave 3305 max 3260 min
Histogram: 1 1 1 2 0 0 0 0 0 1
Nghost:    6416 ave 6478 max 6364 min
Histogram: 1 0 1 1 1 0 0 1 0 1
Neighs:    187132 ave 190342 max 184168 min
Histogram: 3 0 0 0 0 0 0 1 0 2

Total # of neighbors = 1122794
Ave neighs/atom = 57.1338
Neighbor list builds = 66172
Dangerous builds not checked
Setting up Verlet run ...
  Unit style    : metal
  Current step  : 173334
  Time step     : 0.001
Per MPI rank memory allocation (min/avg/max) = 5.568 | 5.858 | 6.003 Mbytes
Step Temp Press TotEng PotEng Enthalpy 
  173334    2354.4264   -193.94448   -51422.936   -57403.393   -51476.056 
  173829     2313.376    667.34919   -51642.809   -57518.995   -51461.243 
Loop time of 17.6974 on 6 procs for 495 steps with 19652 atoms

Performance: 2.417 ns/day, 9.931 hours/ns, 27.970 timesteps/s
99.9% CPU use with 6 MPI tasks x no OpenMP threads

MPI task timing breakdown:
Section |  min time  |  avg time  |  max time  |%varavg| %total
---------------------------------------------------------------
Pair    | 9.4579     | 9.7541     | 10.043     |   7.6 | 55.12
Neigh   | 6.1214     | 6.4533     | 6.7192     |   8.5 | 36.46
Comm    | 0.7004     | 1.1986     | 1.833      |  38.5 |  6.77
Output  | 7.391e-05  | 9.2228e-05 | 0.000175   |   0.0 |  0.00
Modify  | 0.22243    | 0.22681    | 0.23311    |   0.9 |  1.28
Other   |            | 0.0644     |            |       |  0.36

Nlocal:    3275.33 ave 3305 max 3242 min
Histogram: 1 0 1 0 0 1 2 0 0 1
Nghost:    6466.17 ave 6487 max 6454 min
Histogram: 1 2 0 1 0 0 1 0 0 1
Neighs:    188409 ave 191192 max 185339 min
Histogram: 1 0 0 2 1 0 0 0 0 2

Total # of neighbors = 1130452
Ave neighs/atom = 57.5235
Neighbor list builds = 495
Dangerous builds not checked
Setting up Verlet run ...
  Unit style    : metal
  Current step  : 173829
  Time step     : 0.001
Per MPI rank memory allocation (min/avg/max) = 5.568 | 5.858 | 6.003 Mbytes
Step Temp Press TotEng PotEng Enthalpy 
  173829     2313.376    667.34919   -51642.809   -57518.995   -51461.243 
  200001    2303.2975   -245.82371   -51592.745   -57443.331   -51659.906 
  240001    2320.4496   -724.72407   -51640.368   -57534.522   -51837.951 
Loop time of 2567.94 on 6 procs for 66172 steps with 19652 atoms

Performance: 2.226 ns/day, 10.780 hours/ns, 25.769 timesteps/s
98.4% CPU use with 6 MPI tasks x no OpenMP threads

MPI task timing breakdown:
Section |  min time  |  avg time  |  max time  |%varavg| %total
---------------------------------------------------------------
Pair    | 1385.5     | 1407.3     | 1437.7     |  48.2 | 54.80
Neigh   | 891.56     | 908.77     | 927.16     |  36.7 | 35.39
Comm    | 158.06     | 207.16     | 239.34     | 193.4 |  8.07
Output  | 0.022125   | 0.022152   | 0.022271   |   0.0 |  0.00
Modify  | 35.776     | 36.1       | 36.712     |   5.8 |  1.41
Other   |            | 8.639      |            |       |  0.34

Nlocal:    3275.33 ave 3289 max 3258 min
Histogram: 1 0 0 0 1 1 1 1 0 1
Nghost:    6435.83 ave 6467 max 6394 min
Histogram: 1 0 1 0 1 0 0 1 0 2
Neighs:    187977 ave 191006 max 185523 min
Histogram: 1 1 0 1 1 0 1 0 0 1

Total # of neighbors = 1127861
Ave neighs/atom = 57.3917
Neighbor list builds = 66172
Dangerous builds not checked
Setting up Verlet run ...
  Unit style    : metal
  Current step  : 240001
  Time step     : 0.001
Per MPI rank memory allocation (min/avg/max) = 5.568 | 5.858 | 6.003 Mbytes
Step Temp Press TotEng PotEng Enthalpy 
  240001    2320.4496   -724.72407   -51640.368   -57534.522   -51837.951 
  240496    2260.2212    88.536683   -51880.488   -57621.656   -51856.475 
Loop time of 24.3633 on 6 procs for 495 steps with 19652 atoms

Performance: 1.755 ns/day, 13.672 hours/ns, 20.317 timesteps/s
91.3% CPU use with 6 MPI tasks x no OpenMP threads

MPI task timing breakdown:
Section |  min time  |  avg time  |  max time  |%varavg| %total
---------------------------------------------------------------
Pair    | 12.81      | 12.967     | 13.08      |   2.3 | 53.22
Neigh   | 5.9767     | 6.4448     | 6.6543     |   9.0 | 26.45
Comm    | 3.4174     | 3.6271     | 4.0837     |  11.6 | 14.89
Output  | 7.7009e-05 | 9.3818e-05 | 0.00017095 |   0.0 |  0.00
Modify  | 1.1642     | 1.2682     | 1.3368     |   5.2 |  5.21
Other   |            | 0.05594    |            |       |  0.23

Nlocal:    3275.33 ave 3302 max 3241 min
Histogram: 1 0 0 1 1 0 1 0 1 1
Nghost:    6436.17 ave 6464 max 6389 min
Histogram: 1 0 0 0 1 1 0 0 1 2
Neighs:    189072 ave 194697 max 185201 min
Histogram: 3 0 0 0 0 1 0 0 1 1

Total # of neighbors = 1134433
Ave neighs/atom = 57.7261
Neighbor list builds = 495
Dangerous builds not checked
Setting up Verlet run ...
  Unit style    : metal
  Current step  : 240496
  Time step     : 0.001
Per MPI rank memory allocation (min/avg/max) = 5.568 | 5.858 | 6.003 Mbytes
Step Temp Press TotEng PotEng Enthalpy 
  240496    2260.2212    88.536683   -51880.488   -57621.656   -51856.475 
  266668    2243.3909    100.96376    -52062.03   -57760.447   -52034.765 
  306668    2245.2838   -813.84842   -51899.639   -57602.864   -52120.729 
Loop time of 3521.47 on 6 procs for 66172 steps with 19652 atoms

Performance: 1.624 ns/day, 14.782 hours/ns, 18.791 timesteps/s
88.8% CPU use with 6 MPI tasks x no OpenMP threads

MPI task timing breakdown:
Section |  min time  |  avg time  |  max time  |%varavg| %total
---------------------------------------------------------------
Pair    | 1820.5     | 1832.9     | 1847.6     |  21.8 | 52.05
Neigh   | 898.44     | 905.91     | 910.76     |  13.8 | 25.73
Comm    | 542.24     | 559.37     | 574.28     |  54.6 | 15.88
Output  | 0.032146   | 0.035168   | 0.038142   |   1.6 |  0.00
Modify  | 210.93     | 216.02     | 218.67     |  18.4 |  6.13
Other   |            | 7.265      |            |       |  0.21

Nlocal:    3275.33 ave 3314 max 3237 min
Histogram: 1 1 0 1 1 0 0 0 0 2
Nghost:    6461.83 ave 6506 max 6406 min
Histogram: 1 1 0 0 0 0 2 0 1 1
Neighs:    188665 ave 195153 max 184839 min
Histogram: 1 0 3 0 1 0 0 0 0 1

Total # of neighbors = 1131990
Ave neighs/atom = 57.6018
Neighbor list builds = 66172
Dangerous builds not checked
Setting up Verlet run ...
  Unit style    : metal
  Current step  : 306668
  Time step     : 0.001
Per MPI rank memory allocation (min/avg/max) = 5.568 | 5.858 | 6.003 Mbytes
Step Temp Press TotEng PotEng Enthalpy 
  306668    2245.2838   -813.84842   -51899.639   -57602.864   -52120.729 
  307163    2213.5448   -352.48663   -52160.902   -57783.507   -52255.864 
Loop time of 23.5791 on 6 procs for 495 steps with 19652 atoms

Performance: 1.814 ns/day, 13.232 hours/ns, 20.993 timesteps/s
89.2% CPU use with 6 MPI tasks x no OpenMP threads

MPI task timing breakdown:
Section |  min time  |  avg time  |  max time  |%varavg| %total
---------------------------------------------------------------
Pair    | 11.893     | 11.994     | 12.115     |   2.7 | 50.87
Neigh   | 6.129      | 6.2815     | 6.361      |   3.1 | 26.64
Comm    | 3.4036     | 3.526      | 3.6985     |   5.2 | 14.95
Output  | 4.7922e-05 | 5.7737e-05 | 0.0001049  |   0.0 |  0.00
Modify  | 1.6354     | 1.7198     | 1.7868     |   3.7 |  7.29
Other   |            | 0.05761    |            |       |  0.24

Nlocal:    3275.33 ave 3303 max 3247 min
Histogram: 1 0 0 1 2 0 0 0 1 1
Nghost:    6490 ave 6528 max 6473 min
Histogram: 2 1 1 0 1 0 0 0 0 1
Neighs:    190320 ave 196826 max 185543 min
Histogram: 1 0 1 2 0 1 0 0 0 1

Total # of neighbors = 1141920
Ave neighs/atom = 58.1071
Neighbor list builds = 495
Dangerous builds not checked
Setting up Verlet run ...
  Unit style    : metal
  Current step  : 307163
  Time step     : 0.001
Per MPI rank memory allocation (min/avg/max) = 5.568 | 5.858 | 6.003 Mbytes
Step Temp Press TotEng PotEng Enthalpy 
  307163    2213.5448   -352.48663   -52160.902   -57783.507   -52255.864 
  333335    2220.5017   -12.751088   -52183.623     -57823.9   -52187.056 
  373335    2191.3081   -1368.5037    -52262.07   -57828.192    -52631.58 
Loop time of 3471.5 on 6 procs for 66172 steps with 19652 atoms

Performance: 1.647 ns/day, 14.573 hours/ns, 19.062 timesteps/s
88.9% CPU use with 6 MPI tasks x no OpenMP threads

MPI task timing breakdown:
Section |  min time  |  avg time  |  max time  |%varavg| %total
---------------------------------------------------------------
Pair    | 1796.7     | 1809.8     | 1817.4     |  16.9 | 52.13
Neigh   | 898.17     | 902.61     | 909.33     |  12.8 | 26.00
Comm    | 533.21     | 546.43     | 560.21     |  37.7 | 15.74
Output  | 0.040559   | 0.040607   | 0.040772   |   0.0 |  0.00
Modify  | 202.45     | 205.3      | 209.02     |  16.7 |  5.91
Other   |            | 7.291      |            |       |  0.21

Nlocal:    3275.33 ave 3295 max 3262 min
Histogram: 3 0 0 1 0 0 0 0 1 1
Nghost:    6465.17 ave 6501 max 6411 min
Histogram: 1 0 0 0 1 1 1 0 0 2
Neighs:    189926 ave 193807 max 187297 min
Histogram: 2 0 0 0 2 1 0 0 0 1

Total # of neighbors = 1139558
Ave neighs/atom = 57.9869
Neighbor list builds = 66172
Dangerous builds not checked
Setting up Verlet run ...
  Unit style    : metal
  Current step  : 373335
  Time step     : 0.001
Per MPI rank memory allocation (min/avg/max) = 5.568 | 5.858 | 6.003 Mbytes
Step Temp Press TotEng PotEng Enthalpy 
  373335    2191.3081   -1368.5037    -52262.07   -57828.192    -52631.58 
  373830    2164.9002   -247.15556   -52451.188   -57950.232   -52517.472 
Loop time of 24.0901 on 6 procs for 495 steps with 19652 atoms

Performance: 1.775 ns/day, 13.519 hours/ns, 20.548 timesteps/s
88.8% CPU use with 6 MPI tasks x no OpenMP threads

MPI task timing breakdown:
Section |  min time  |  avg time  |  max time  |%varavg| %total
---------------------------------------------------------------
Pair    | 12.751     | 12.875     | 12.993     |   2.4 | 53.45
Neigh   | 6.2243     | 6.4206     | 6.5767     |   4.4 | 26.65
Comm    | 3.6329     | 3.7837     | 3.9899     |   6.9 | 15.71
Output  | 0.00011301 | 0.00014095 | 0.00027108 |   0.0 |  0.00
Modify  | 0.92375    | 0.95739    | 0.99457    |   2.2 |  3.97
Other   |            | 0.05304    |            |       |  0.22

Nlocal:    3275.33 ave 3289 max 3253 min
Histogram: 1 0 0 0 1 1 0 0 2 1
Nghost:    6490.83 ave 6524 max 6438 min
Histogram: 1 0 0 1 0 1 0 1 0 2
Neighs:    191165 ave 195256 max 187622 min
Histogram: 1 1 0 1 1 0 0 0 1 1

Total # of neighbors = 1146989
Ave neighs/atom = 58.365
Neighbor list builds = 495
Dangerous builds not checked
Setting up Verlet run ...
  Unit style    : metal
  Current step  : 373830
  Time step     : 0.001
Per MPI rank memory allocation (min/avg/max) = 5.568 | 5.858 | 6.003 Mbytes
Step Temp Press TotEng PotEng Enthalpy 
  373830    2164.9002   -247.15556   -52451.188   -57950.232   -52517.472 
  400002    2158.9671    398.74066   -52544.331   -58028.304   -52437.878 
  440002    2144.6173   -244.12158   -52546.669   -57994.192   -52612.011 
Loop time of 3506.63 on 6 procs for 66172 steps with 19652 atoms

Performance: 1.630 ns/day, 14.720 hours/ns, 18.871 timesteps/s
87.7% CPU use with 6 MPI tasks x no OpenMP threads

MPI task timing breakdown:
Section |  min time  |  avg time  |  max time  |%varavg| %total
---------------------------------------------------------------
Pair    | 1814.9     | 1825.8     | 1833.3     |  16.4 | 52.07
Neigh   | 892.48     | 908.77     | 919.43     |  31.9 | 25.92
Comm    | 539.52     | 560.29     | 582.86     |  58.2 | 15.98
Output  | 0.018535   | 0.018628   | 0.019007   |   0.1 |  0.00
Modify  | 200.87     | 204.39     | 209.17     |  20.1 |  5.83
Other   |            | 7.384      |            |       |  0.21

Nlocal:    3275.33 ave 3299 max 3253 min
Histogram: 1 0 0 1 2 0 1 0 0 1
Nghost:    6484.33 ave 6521 max 6454 min
Histogram: 2 0 1 0 0 1 0 0 1 1
Neighs:    191510 ave 195447 max 187314 min
Histogram: 2 0 0 0 0 0 2 1 0 1

Total # of neighbors = 1149060
Ave neighs/atom = 58.4704
Neighbor list builds = 66172
Dangerous builds not checked
Setting up Verlet run ...
  Unit style    : metal
  Current step  : 440002
  Time step     : 0.001
Per MPI rank memory allocation (min/avg/max) = 5.568 | 5.858 | 6.003 Mbytes
Step Temp Press TotEng PotEng Enthalpy 
  440002    2144.6173   -244.12158   -52546.669   -57994.192   -52612.011 
  440497    2108.7673   -486.39755   -52685.142   -58041.603    -52815.16 
Loop time of 17.1996 on 6 procs for 495 steps with 19652 atoms

Performance: 2.487 ns/day, 9.652 hours/ns, 28.780 timesteps/s
99.8% CPU use with 6 MPI tasks x no OpenMP threads

MPI task timing breakdown:
Section |  min time  |  avg time  |  max time  |%varavg| %total
---------------------------------------------------------------
Pair    | 9.0824     | 9.5906     | 9.8366     |   7.8 | 55.76
Neigh   | 6.1274     | 6.4313     | 6.5689     |   5.6 | 37.39
Comm    | 0.60284    | 0.89497    | 1.3475     |  25.6 |  5.20
Output  | 7.7009e-05 | 9.1275e-05 | 0.00015497 |   0.0 |  0.00
Modify  | 0.20986    | 0.21739    | 0.22808    |   1.4 |  1.26
Other   |            | 0.06521    |            |       |  0.38

Nlocal:    3275.33 ave 3290 max 3259 min
Histogram: 2 0 0 0 0 1 0 1 1 1
Nghost:    6491.5 ave 6544 max 6469 min
Histogram: 1 3 0 0 1 0 0 0 0 1
Neighs:    191794 ave 196324 max 189061 min
Histogram: 2 0 0 2 0 1 0 0 0 1

Total # of neighbors = 1150766
Ave neighs/atom = 58.5572
Neighbor list builds = 495
Dangerous builds not checked
Setting up Verlet run ...
  Unit style    : metal
  Current step  : 440497
  Time step     : 0.001
Per MPI rank memory allocation (min/avg/max) = 5.568 | 5.858 | 6.003 Mbytes
Step Temp Press TotEng PotEng Enthalpy 
  440497    2108.7673   -486.39755   -52685.142   -58041.603    -52815.16 
  466669    2107.7928    105.88054   -52833.981   -58187.967    -52805.89 
  506669    2102.4022   -302.11151   -52786.807     -58127.1   -52867.277 
Loop time of 2555.71 on 6 procs for 66172 steps with 19652 atoms

Performance: 2.237 ns/day, 10.728 hours/ns, 25.892 timesteps/s
98.7% CPU use with 6 MPI tasks x no OpenMP threads

MPI task timing breakdown:
Section |  min time  |  avg time  |  max time  |%varavg| %total
---------------------------------------------------------------
Pair    | 1384       | 1416.4     | 1448.1     |  54.0 | 55.42
Neigh   | 880.89     | 911.33     | 950.62     |  71.2 | 35.66
Comm    | 116.3      | 187.59     | 251.03     | 301.1 |  7.34
Output  | 0.031826   | 0.031874   | 0.032036   |   0.0 |  0.00
Modify  | 31.242     | 31.804     | 32.361     |   6.6 |  1.24
Other   |            | 8.563      |            |       |  0.34

Nlocal:    3275.33 ave 3313 max 3245 min
Histogram: 2 0 1 0 0 1 0 0 1 1
Nghost:    6474.5 ave 6499 max 6448 min
Histogram: 1 0 1 0 0 2 0 1 0 1
Neighs:    192458 ave 198790 max 188721 min
Histogram: 2 1 1 0 0 0 0 0 1 1

Total # of neighbors = 1154749
Ave neighs/atom = 58.7599
Neighbor list builds = 66172
Dangerous builds not checked
Setting up Verlet run ...
  Unit style    : metal
  Current step  : 506669
  Time step     : 0.001
Per MPI rank memory allocation (min/avg/max) = 5.568 | 5.858 | 6.003 Mbytes
Step Temp Press TotEng PotEng Enthalpy 
  506669    2102.4022   -302.11151   -52786.807     -58127.1   -52867.277 
  507164    2069.1317    413.08086    -53001.88   -58257.663   -52892.533 
Loop time of 18.2319 on 6 procs for 495 steps with 19652 atoms

Performance: 2.346 ns/day, 10.231 hours/ns, 27.150 timesteps/s
98.4% CPU use with 6 MPI tasks x no OpenMP threads

MPI task timing breakdown:
Section |  min time  |  avg time  |  max time  |%varavg| %total
---------------------------------------------------------------
Pair    | 9.4901     | 9.8995     | 10.266     |   9.7 | 54.30
Neigh   | 5.9752     | 6.5814     | 7.0287     |  13.1 | 36.10
Comm    | 0.54155    | 1.3573     | 2.2064     |  53.0 |  7.44
Output  | 5.6028e-05 | 7.1406e-05 | 0.00013709 |   0.0 |  0.00
Modify  | 0.32114    | 0.32748    | 0.33373    |   0.9 |  1.80
Other   |            | 0.06626    |            |       |  0.36

Nlocal:    3275.33 ave 3303 max 3264 min
Histogram: 3 0 1 1 0 0 0 0 0 1
Nghost:    6517.17 ave 6545 max 6501 min
Histogram: 3 1 0 0 0 0 0 0 0 2
Neighs:    193720 ave 198815 max 191103 min
Histogram: 2 0 2 0 0 1 0 0 0 1

Total # of neighbors = 1162317
Ave neighs/atom = 59.145
Neighbor list builds = 495
Dangerous builds not checked
Setting up Verlet run ...
  Unit style    : metal
  Current step  : 507164
  Time step     : 0.001
Per MPI rank memory allocation (min/avg/max) = 5.568 | 5.858 | 6.003 Mbytes
Step Temp Press TotEng PotEng Enthalpy 
  507164    2069.1317    413.08086    -53001.88   -58257.663   -52892.533 
  533336    2060.7623    992.32248   -53078.986    -58313.51   -52817.413 
  573336    2043.4202    4.2235541   -53029.661   -58220.134   -53028.542 
Loop time of 2575.05 on 6 procs for 66172 steps with 19652 atoms

Performance: 2.220 ns/day, 10.810 hours/ns, 25.697 timesteps/s
98.7% CPU use with 6 MPI tasks x no OpenMP threads

MPI task timing breakdown:
Section |  min time  |  avg time  |  max time  |%varavg| %total
---------------------------------------------------------------
Pair    | 1397.4     | 1417.8     | 1440.2     |  43.2 | 55.06
Neigh   | 894.69     | 911.77     | 935.51     |  55.0 | 35.41
Comm    | 157.58     | 203.74     | 241.05     | 229.5 |  7.91
Output  | 0.021573   | 0.021606   | 0.02176    |   0.0 |  0.00
Modify  | 32.845     | 33.144     | 33.528     |   4.5 |  1.29
Other   |            | 8.551      |            |       |  0.33

Nlocal:    3275.33 ave 3295 max 3255 min
Histogram: 1 0 1 1 0 0 0 1 1 1
Nghost:    6522.67 ave 6548 max 6472 min
Histogram: 1 0 1 0 0 0 0 1 0 3
Neighs:    193690 ave 196310 max 189982 min
Histogram: 1 0 0 2 0 0 0 0 1 2

Total # of neighbors = 1162142
Ave neighs/atom = 59.1361
Neighbor list builds = 66172
Dangerous builds not checked
Setting up Verlet run ...
  Unit style    : metal
  Current step  : 573336
  Time step     : 0.001
Per MPI rank memory allocation (min/avg/max) = 5.568 | 5.858 | 6.003 Mbytes
Step Temp Press TotEng PotEng Enthalpy 
  573336    2043.4202    4.2235541   -53029.661   -58220.134   -53028.542 
  573831    2001.5598   -52.671822   -53282.405   -58366.549    -53296.28 
Loop time of 17.8517 on 6 procs for 495 steps with 19652 atoms

Performance: 2.396 ns/day, 10.018 hours/ns, 27.728 timesteps/s
99.7% CPU use with 6 MPI tasks x no OpenMP threads

MPI task timing breakdown:
Section |  min time  |  avg time  |  max time  |%varavg| %total
---------------------------------------------------------------
Pair    | 9.7169     | 9.8698     | 10.271     |   5.9 | 55.29
Neigh   | 6.2796     | 6.5902     | 6.9292     |   8.7 | 36.92
Comm    | 0.77586    | 1.0989     | 1.4682     |  24.2 |  6.16
Output  | 0.00020599 | 0.00024319 | 0.00037885 |   0.0 |  0.00
Modify  | 0.2214     | 0.22777    | 0.2359     |   1.2 |  1.28
Other   |            | 0.06485    |            |       |  0.36

Nlocal:    3275.33 ave 3297 max 3225 min
Histogram: 1 0 0 0 0 0 0 3 0 2
Nghost:    6566.67 ave 6606 max 6531 min
Histogram: 2 0 0 0 1 1 0 0 1 1
Neighs:    194696 ave 199008 max 190726 min
Histogram: 1 0 0 3 0 0 0 0 1 1

Total # of neighbors = 1168175
Ave neighs/atom = 59.4431
Neighbor list builds = 495
Dangerous builds not checked
Setting up Verlet run ...
  Unit style    : metal
  Current step  : 573831
  Time step     : 0.001
Per MPI rank memory allocation (min/avg/max) = 5.568 | 5.858 | 6.003 Mbytes
Step Temp Press TotEng PotEng Enthalpy 
  573831    2001.5598   -52.671822   -53282.405   -58366.549    -53296.28 
  600003    2017.6662   -135.43947   -53301.918   -58426.974   -53337.539 
  640003    1994.1258   -100.06333   -53360.929    -58426.19    -53387.25 
Loop time of 2581.43 on 6 procs for 66172 steps with 19652 atoms

Performance: 2.215 ns/day, 10.836 hours/ns, 25.634 timesteps/s
98.7% CPU use with 6 MPI tasks x no OpenMP threads

MPI task timing breakdown:
Section |  min time  |  avg time  |  max time  |%varavg| %total
---------------------------------------------------------------
Pair    | 1434.3     | 1445.5     | 1462.5     |  28.4 | 56.00
Neigh   | 907.05     | 924.87     | 940.56     |  47.4 | 35.83
Comm    | 137.43     | 170.01     | 196.94     | 183.9 |  6.59
Output  | 0.0215     | 0.021553   | 0.021719   |   0.1 |  0.00
Modify  | 31.926     | 32.246     | 32.742     |   5.5 |  1.25
Other   |            | 8.802      |            |       |  0.34

Nlocal:    3275.33 ave 3292 max 3260 min
Histogram: 1 0 1 1 0 1 0 1 0 1
Nghost:    6528.5 ave 6566 max 6484 min
Histogram: 1 0 0 0 1 2 0 1 0 1
Neighs:    194924 ave 197193 max 191148 min
Histogram: 1 0 0 0 0 2 0 1 0 2

Total # of neighbors = 1169546
Ave neighs/atom = 59.5128
Neighbor list builds = 66172
Dangerous builds not checked
Setting up Verlet run ...
  Unit style    : metal
  Current step  : 640003
  Time step     : 0.001
Per MPI rank memory allocation (min/avg/max) = 5.568 | 5.858 | 6.003 Mbytes
Step Temp Press TotEng PotEng Enthalpy 
  640003    1994.1258   -100.06333   -53360.929    -58426.19    -53387.25 
  640498    1960.6711   -217.88404   -53536.462   -58516.746   -53593.571 
Loop time of 18.0321 on 6 procs for 495 steps with 19652 atoms

Performance: 2.372 ns/day, 10.119 hours/ns, 27.451 timesteps/s
99.6% CPU use with 6 MPI tasks x no OpenMP threads

MPI task timing breakdown:
Section |  min time  |  avg time  |  max time  |%varavg| %total
---------------------------------------------------------------
Pair    | 9.9069     | 10.05      | 10.195     |   2.9 | 55.74
Neigh   | 6.2585     | 6.6755     | 6.9579     |  10.8 | 37.02
Comm    | 0.69831    | 1.0165     | 1.3828     |  23.4 |  5.64
Output  | 7.8917e-05 | 9.8427e-05 | 0.00014591 |   0.0 |  0.00
Modify  | 0.21025    | 0.2232     | 0.23117    |   1.8 |  1.24
Other   |            | 0.06653    |            |       |  0.37

Nlocal:    3275.33 ave 3291 max 3246 min
Histogram: 1 0 0 0 1 0 1 0 1 2
Nghost:    6531 ave 6570 max 6492 min
Histogram: 2 0 0 0 1 1 0 0 0 2
Neighs:    195673 ave 199711 max 192893 min
Histogram: 2 1 0 1 0 0 0 1 0 1

Total # of neighbors = 1174039
Ave neighs/atom = 59.7415
Neighbor list builds = 495
Dangerous builds not checked
Setting up Verlet run ...
  Unit style    : metal
  Current step  : 640498
  Time step     : 0.001
Per MPI rank memory allocation (min/avg/max) = 5.568 | 5.858 | 6.003 Mbytes
Step Temp Press TotEng PotEng Enthalpy 
  640498    1960.6711   -217.88404   -53536.462   -58516.746   -53593.571 
  666670    1939.2759   -626.70041   -53680.464   -58606.401   -53844.449 
  706670     1951.802   -781.20087   -53565.339   -58523.094   -53770.477 
Loop time of 2581.31 on 6 procs for 66172 steps with 19652 atoms

Performance: 2.215 ns/day, 10.836 hours/ns, 25.635 timesteps/s
98.7% CPU use with 6 MPI tasks x no OpenMP threads

MPI task timing breakdown:
Section |  min time  |  avg time  |  max time  |%varavg| %total
---------------------------------------------------------------
Pair    | 1417.8     | 1442.9     | 1468.6     |  40.8 | 55.90
Neigh   | 906.46     | 925.52     | 941.6      |  45.1 | 35.85
Comm    | 130.8      | 172.67     | 216.7      | 215.6 |  6.69
Output  | 0.02007    | 0.020114   | 0.020318   |   0.1 |  0.00
Modify  | 31.093     | 31.417     | 31.753     |   4.1 |  1.22
Other   |            | 8.816      |            |       |  0.34

Nlocal:    3275.33 ave 3300 max 3247 min
Histogram: 1 1 0 0 0 1 0 2 0 1
Nghost:    6549.83 ave 6600 max 6523 min
Histogram: 1 0 4 0 0 0 0 0 0 1
Neighs:    195222 ave 198936 max 192243 min
Histogram: 1 1 0 2 0 0 0 0 1 1

Total # of neighbors = 1171334
Ave neighs/atom = 59.6038
Neighbor list builds = 66172
Dangerous builds not checked
Setting up Verlet run ...
  Unit style    : metal
  Current step  : 706670
  Time step     : 0.001
Per MPI rank memory allocation (min/avg/max) = 5.568 | 5.858 | 6.003 Mbytes
Step Temp Press TotEng PotEng Enthalpy 
  706670     1951.802   -781.20087   -53565.339   -58523.094   -53770.477 
  707165    1914.8429    123.20769    -53822.01   -58685.886    -53789.93 
Loop time of 17.3497 on 6 procs for 495 steps with 19652 atoms

Performance: 2.465 ns/day, 9.736 hours/ns, 28.531 timesteps/s
99.7% CPU use with 6 MPI tasks x no OpenMP threads

MPI task timing breakdown:
Section |  min time  |  avg time  |  max time  |%varavg| %total
---------------------------------------------------------------
Pair    | 9.3734     | 9.5561     | 9.8763     |   5.5 | 55.08
Neigh   | 6.1198     | 6.4392     | 6.6929     |   7.4 | 37.11
Comm    | 0.60572    | 1.0471     | 1.4118     |  29.6 |  6.04
Output  | 0.00010204 | 0.00013419 | 0.0002811  |   0.0 |  0.00
Modify  | 0.23458    | 0.24065    | 0.24695    |   0.9 |  1.39
Other   |            | 0.06654    |            |       |  0.38

Nlocal:    3275.33 ave 3292 max 3259 min
Histogram: 1 0 0 1 2 0 0 1 0 1
Nghost:    6575.67 ave 6603 max 6552 min
Histogram: 2 0 0 1 0 0 1 1 0 1
Neighs:    197024 ave 201165 max 193809 min
Histogram: 1 0 2 0 0 2 0 0 0 1

Total # of neighbors = 1182142
Ave neighs/atom = 60.1538
Neighbor list builds = 495
Dangerous builds not checked
Setting up Verlet run ...
  Unit style    : metal
  Current step  : 707165
  Time step     : 0.001
Per MPI rank memory allocation (min/avg/max) = 5.568 | 5.858 | 6.003 Mbytes
Step Temp Press TotEng PotEng Enthalpy 
  707165    1914.8429    123.20769    -53822.01   -58685.886    -53789.93 
  733337    1894.6354    1269.5779   -53991.718   -58804.265   -53663.428 
  773337    1883.7254   -301.17655   -53917.492   -58702.326   -53996.006 
Loop time of 3996.6 on 6 procs for 66172 steps with 19652 atoms

Performance: 1.431 ns/day, 16.777 hours/ns, 16.557 timesteps/s
83.4% CPU use with 6 MPI tasks x no OpenMP threads

MPI task timing breakdown:
Section |  min time  |  avg time  |  max time  |%varavg| %total
---------------------------------------------------------------
Pair    | 2031.4     | 2047.1     | 2058.7     |  20.5 | 51.22
Neigh   | 953.56     | 960.62     | 972.08     |  20.9 | 24.04
Comm    | 673.65     | 696.53     | 714.93     |  55.7 | 17.43
Output  | 0.049118   | 0.049896   | 0.053741   |   0.8 |  0.00
Modify  | 280.3      | 284.49     | 290.75     |  22.2 |  7.12
Other   |            | 7.811      |            |       |  0.20

Nlocal:    3275.33 ave 3289 max 3262 min
Histogram: 2 0 0 1 0 0 0 2 0 1
Nghost:    6539.17 ave 6556 max 6522 min
Histogram: 1 1 0 1 0 0 0 2 0 1
Neighs:    196678 ave 199886 max 194495 min
Histogram: 2 0 0 2 0 1 0 0 0 1

Total # of neighbors = 1180071
Ave neighs/atom = 60.0484
Neighbor list builds = 66172
Dangerous builds not checked
Setting up Verlet run ...
  Unit style    : metal
  Current step  : 773337
  Time step     : 0.001
Per MPI rank memory allocation (min/avg/max) = 5.568 | 5.858 | 6.003 Mbytes
Step Temp Press TotEng PotEng Enthalpy 
  773337    1883.7254   -301.17655   -53917.492   -58702.326   -53996.006 
  773832    1873.8479   -125.41429   -54115.144   -58874.888   -54147.626 
Loop time of 36.6961 on 6 procs for 495 steps with 19652 atoms

Performance: 1.165 ns/day, 20.593 hours/ns, 13.489 timesteps/s
76.8% CPU use with 6 MPI tasks x no OpenMP threads

MPI task timing breakdown:
Section |  min time  |  avg time  |  max time  |%varavg| %total
---------------------------------------------------------------
Pair    | 17.786     | 17.865     | 17.964     |   1.6 | 48.68
Neigh   | 6.8878     | 7.3452     | 7.5874     |   8.9 | 20.02
Comm    | 7.4622     | 7.781      | 8.1303     |   9.4 | 21.20
Output  | 7.4148e-05 | 9.1712e-05 | 0.00015712 |   0.0 |  0.00
Modify  | 3.4853     | 3.65       | 3.8647     |   6.4 |  9.95
Other   |            | 0.05521    |            |       |  0.15

Nlocal:    3275.33 ave 3293 max 3259 min
Histogram: 1 0 1 1 0 1 1 0 0 1
Nghost:    6564 ave 6577 max 6546 min
Histogram: 1 0 0 1 1 0 0 1 0 2
Neighs:    197904 ave 200667 max 195234 min
Histogram: 1 1 0 0 1 0 1 1 0 1

Total # of neighbors = 1187424
Ave neighs/atom = 60.4226
Neighbor list builds = 495
Dangerous builds not checked
Setting up Verlet run ...
  Unit style    : metal
  Current step  : 773832
  Time step     : 0.001
Per MPI rank memory allocation (min/avg/max) = 5.568 | 5.858 | 6.003 Mbytes
Step Temp Press TotEng PotEng Enthalpy 
  773832    1873.8479   -125.41429   -54115.144   -58874.888   -54147.626 
  800004    1845.2138   -302.55001   -54195.335   -58882.346   -54273.638 
  840004    1865.1442   -410.52935   -54152.906   -58890.542   -54259.211 
Loop time of 4795.18 on 6 procs for 66172 steps with 19652 atoms

Performance: 1.192 ns/day, 20.129 hours/ns, 13.800 timesteps/s
78.3% CPU use with 6 MPI tasks x no OpenMP threads

MPI task timing breakdown:
Section |  min time  |  avg time  |  max time  |%varavg| %total
---------------------------------------------------------------
Pair    | 2382.6     | 2394.4     | 2404.8     |  16.7 | 49.93
Neigh   | 980.51     | 985.74     | 993.58     |  13.9 | 20.56
Comm    | 965.09     | 976.94     | 989.42     |  25.8 | 20.37
Output  | 0.048468   | 0.04916    | 0.052466   |   0.7 |  0.00
Modify  | 422.28     | 430.84     | 437.75     |  27.4 |  8.98
Other   |            | 7.185      |            |       |  0.15

Nlocal:    3275.33 ave 3300 max 3255 min
Histogram: 1 1 0 1 1 0 0 0 1 1
Nghost:    6574.17 ave 6611 max 6542 min
Histogram: 2 0 0 0 1 1 1 0 0 1
Neighs:    198171 ave 202965 max 195042 min
Histogram: 1 1 0 1 2 0 0 0 0 1

Total # of neighbors = 1189027
Ave neighs/atom = 60.5041
Neighbor list builds = 66172
Dangerous builds not checked
Setting up Verlet run ...
  Unit style    : metal
  Current step  : 840004
  Time step     : 0.001
Per MPI rank memory allocation (min/avg/max) = 5.568 | 5.858 | 6.003 Mbytes
Step Temp Press TotEng PotEng Enthalpy 
  840004    1865.1442   -410.52935   -54152.906   -58890.542   -54259.211 
  840499    1815.2942    188.47219   -54374.329   -58985.342   -54325.795 
Loop time of 29.0669 on 6 procs for 495 steps with 19652 atoms

Performance: 1.471 ns/day, 16.311 hours/ns, 17.030 timesteps/s
81.8% CPU use with 6 MPI tasks x no OpenMP threads

MPI task timing breakdown:
Section |  min time  |  avg time  |  max time  |%varavg| %total
---------------------------------------------------------------
Pair    | 14.398     | 14.685     | 14.875     |   4.4 | 50.52
Neigh   | 6.5402     | 6.907      | 7.445      |  11.5 | 23.76
Comm    | 4.9029     | 5.1948     | 5.6059     |   9.9 | 17.87
Output  | 7.4148e-05 | 8.6546e-05 | 0.00014091 |   0.0 |  0.00
Modify  | 1.9952     | 2.2239     | 2.38       |  10.1 |  7.65
Other   |            | 0.0558     |            |       |  0.19

Nlocal:    3275.33 ave 3300 max 3245 min
Histogram: 1 2 0 0 0 0 0 0 0 3
Nghost:    6598.5 ave 6614 max 6578 min
Histogram: 1 1 0 0 0 1 0 0 2 1
Neighs:    199157 ave 204656 max 193275 min
Histogram: 1 0 0 1 2 0 0 0 0 2

Total # of neighbors = 1194940
Ave neighs/atom = 60.805
Neighbor list builds = 495
Dangerous builds not checked
Setting up Verlet run ...
  Unit style    : metal
  Current step  : 840499
  Time step     : 0.001
Per MPI rank memory allocation (min/avg/max) = 5.568 | 5.858 | 6.003 Mbytes
Step Temp Press TotEng PotEng Enthalpy 
  840499    1815.2942    188.47219   -54374.329   -58985.342   -54325.795 
  866671    1819.4926   -61.476962   -54438.927   -59060.604    -54454.73 
  906671    1796.4266    -484.4482   -54425.608   -58988.695   -54550.568 
Loop time of 3038.47 on 6 procs for 66172 steps with 19652 atoms

Performance: 1.882 ns/day, 12.755 hours/ns, 21.778 timesteps/s
92.7% CPU use with 6 MPI tasks x no OpenMP threads

MPI task timing breakdown:
Section |  min time  |  avg time  |  max time  |%varavg| %total
---------------------------------------------------------------
Pair    | 1633.9     | 1645.1     | 1659.4     |  24.0 | 54.14
Neigh   | 881.64     | 900.35     | 919.13     |  52.0 | 29.63
Comm    | 340.72     | 375.13     | 402.78     | 105.9 | 12.35
Output  | 0.018724   | 0.018753   | 0.018857   |   0.0 |  0.00
Modify  | 105.25     | 109.95     | 115.59     |  32.2 |  3.62
Other   |            | 7.922      |            |       |  0.26

Nlocal:    3275.33 ave 3293 max 3265 min
Histogram: 2 0 0 2 1 0 0 0 0 1
Nghost:    6600.67 ave 6641 max 6566 min
Histogram: 1 1 1 0 0 1 0 0 1 1
Neighs:    198797 ave 204679 max 195076 min
Histogram: 2 0 0 1 1 1 0 0 0 1

Total # of neighbors = 1192780
Ave neighs/atom = 60.6951
Neighbor list builds = 66172
Dangerous builds not checked
Setting up Verlet run ...
  Unit style    : metal
  Current step  : 906671
  Time step     : 0.001
Per MPI rank memory allocation (min/avg/max) = 5.568 | 5.858 | 6.003 Mbytes
Step Temp Press TotEng PotEng Enthalpy 
  906671    1796.4266    -484.4482   -54425.608   -58988.695   -54550.568 
  907166    1756.3152    441.75334   -54670.154   -59131.354   -54557.114 
Loop time of 17.2452 on 6 procs for 495 steps with 19652 atoms

Performance: 2.480 ns/day, 9.677 hours/ns, 28.704 timesteps/s
99.9% CPU use with 6 MPI tasks x no OpenMP threads

MPI task timing breakdown:
Section |  min time  |  avg time  |  max time  |%varavg| %total
---------------------------------------------------------------
Pair    | 9.2125     | 9.5196     | 9.8054     |   5.8 | 55.20
Neigh   | 6.2937     | 6.4737     | 6.6605     |   4.6 | 37.54
Comm    | 0.68665    | 0.96522    | 1.2682     |  19.5 |  5.60
Output  | 7.081e-05  | 8.293e-05  | 0.0001359  |   0.0 |  0.00
Modify  | 0.2146     | 0.21936    | 0.22323    |   0.6 |  1.27
Other   |            | 0.06723    |            |       |  0.39

Nlocal:    3275.33 ave 3306 max 3250 min
Histogram: 1 0 1 1 0 2 0 0 0 1
Nghost:    6587.83 ave 6620 max 6564 min
Histogram: 2 0 0 1 1 0 1 0 0 1
Neighs:    200451 ave 203951 max 197468 min
Histogram: 1 2 0 0 0 1 0 0 0 2

Total # of neighbors = 1202705
Ave neighs/atom = 61.2001
Neighbor list builds = 495
Dangerous builds not checked
Setting up Verlet run ...
  Unit style    : metal
  Current step  : 907166
  Time step     : 0.001
Per MPI rank memory allocation (min/avg/max) = 5.568 | 5.858 | 6.003 Mbytes
Step Temp Press TotEng PotEng Enthalpy 
  907166    1756.3152    441.75334   -54670.154   -59131.354   -54557.114 
  933338    1742.4281    250.04519   -54755.168   -59181.094   -54691.268 
  973338    1761.1113    153.55408   -54644.037    -59117.42   -54604.671 
Loop time of 2607.86 on 6 procs for 66172 steps with 19652 atoms

Performance: 2.192 ns/day, 10.947 hours/ns, 25.374 timesteps/s
98.8% CPU use with 6 MPI tasks x no OpenMP threads

MPI task timing breakdown:
Section |  min time  |  avg time  |  max time  |%varavg| %total
---------------------------------------------------------------
Pair    | 1449.9     | 1466.2     | 1491.5     |  39.3 | 56.22
Neigh   | 897.62     | 917.08     | 946.63     |  62.1 | 35.17
Comm    | 129.16     | 184.81     | 217.34     | 246.2 |  7.09
Output  | 0.022065   | 0.022145   | 0.022405   |   0.1 |  0.00
Modify  | 30.538     | 30.9       | 31.288     |   4.0 |  1.18
Other   |            | 8.813      |            |       |  0.34

Nlocal:    3275.33 ave 3304 max 3238 min
Histogram: 1 0 1 0 0 1 1 0 0 2
Nghost:    6590.17 ave 6631 max 6557 min
Histogram: 1 1 0 0 1 2 0 0 0 1
Neighs:    200070 ave 205729 max 197056 min
Histogram: 2 0 1 1 0 1 0 0 0 1

Total # of neighbors = 1200421
Ave neighs/atom = 61.0839
Neighbor list builds = 66172
Dangerous builds not checked
Setting up Verlet run ...
  Unit style    : metal
  Current step  : 973338
  Time step     : 0.001
Per MPI rank memory allocation (min/avg/max) = 5.568 | 5.858 | 6.003 Mbytes
Step Temp Press TotEng PotEng Enthalpy 
  973338    1761.1113    153.55408   -54644.037    -59117.42   -54604.671 
  973833    1717.1672    332.95146   -54936.151   -59297.912   -54851.402 
Loop time of 18.8635 on 6 procs for 495 steps with 19652 atoms

Performance: 2.267 ns/day, 10.586 hours/ns, 26.241 timesteps/s
99.9% CPU use with 6 MPI tasks x no OpenMP threads

MPI task timing breakdown:
Section |  min time  |  avg time  |  max time  |%varavg| %total
---------------------------------------------------------------
Pair    | 10.039     | 10.424     | 10.727     |   8.5 | 55.26
Neigh   | 6.0753     | 6.7598     | 7.1203     |  12.9 | 35.84
Comm    | 0.69819    | 1.3675     | 2.1008     |  44.5 |  7.25
Output  | 0.00010395 | 0.0001568  | 0.00025082 |   0.0 |  0.00
Modify  | 0.23512    | 0.24491    | 0.25173    |   1.4 |  1.30
Other   |            | 0.06687    |            |       |  0.35

Nlocal:    3275.33 ave 3294 max 3241 min
Histogram: 1 0 0 1 0 0 1 0 1 2
Nghost:    6608 ave 6645 max 6569 min
Histogram: 1 0 1 1 0 0 1 1 0 1
Neighs:    201638 ave 205406 max 198719 min
Histogram: 1 1 0 0 2 1 0 0 0 1

Total # of neighbors = 1209828
Ave neighs/atom = 61.5626
Neighbor list builds = 495
Dangerous builds not checked
Setting up Verlet run ...
  Unit style    : metal
  Current step  : 973833
  Time step     : 0.001
Per MPI rank memory allocation (min/avg/max) = 5.568 | 5.858 | 6.003 Mbytes
Step Temp Press TotEng PotEng Enthalpy 
  973833    1717.1672    332.95146   -54936.151   -59297.912   -54851.402 
 1000005    1706.0839    298.86223   -55062.688   -59396.297   -54986.832 
 1040005    1694.3832    34.019318    -54973.79   -59277.678   -54965.121 
Loop time of 2647.29 on 6 procs for 66172 steps with 19652 atoms

Performance: 2.160 ns/day, 11.113 hours/ns, 24.996 timesteps/s
98.6% CPU use with 6 MPI tasks x no OpenMP threads

MPI task timing breakdown:
Section |  min time  |  avg time  |  max time  |%varavg| %total
---------------------------------------------------------------
Pair    | 1452.1     | 1486.1     | 1525.1     |  66.4 | 56.14
Neigh   | 884.59     | 920.68     | 955.12     |  77.1 | 34.78
Comm    | 125.02     | 199.58     | 270.79     | 348.3 |  7.54
Output  | 0.019469   | 0.01959    | 0.020122   |   0.2 |  0.00
Modify  | 31.368     | 32.017     | 32.74      |   9.7 |  1.21
Other   |            | 8.895      |            |       |  0.34

Nlocal:    3275.33 ave 3286 max 3261 min
Histogram: 1 0 1 0 0 1 0 0 2 1
Nghost:    6635.83 ave 6665 max 6617 min
Histogram: 3 0 0 0 0 1 1 0 0 1
Neighs:    201288 ave 205563 max 197774 min
Histogram: 1 0 2 0 1 0 1 0 0 1

Total # of neighbors = 1207731
Ave neighs/atom = 61.4559
Neighbor list builds = 66172
Dangerous builds not checked
Setting up Verlet run ...
  Unit style    : metal
  Current step  : 1040005
  Time step     : 0.001
Per MPI rank memory allocation (min/avg/max) = 5.568 | 5.858 | 6.003 Mbytes
Step Temp Press TotEng PotEng Enthalpy 
 1040005    1694.3832    34.019318    -54973.79   -59277.678   -54965.121 
 1040500    1668.1056    224.76457   -55197.563   -59434.703   -55140.612 
Loop time of 18.8439 on 6 procs for 495 steps with 19652 atoms

Performance: 2.270 ns/day, 10.575 hours/ns, 26.268 timesteps/s
99.9% CPU use with 6 MPI tasks x no OpenMP threads

MPI task timing breakdown:
Section |  min time  |  avg time  |  max time  |%varavg| %total
---------------------------------------------------------------
Pair    | 10.084     | 10.389     | 10.726     |   8.1 | 55.13
Neigh   | 6.499      | 6.763      | 7.1402     |   8.7 | 35.89
Comm    | 0.70378    | 1.3869     | 1.9572     |  41.3 |  7.36
Output  | 0.00014091 | 0.00019391 | 0.00035691 |   0.0 |  0.00
Modify  | 0.22876    | 0.23745    | 0.24492    |   1.3 |  1.26
Other   |            | 0.06764    |            |       |  0.36

Nlocal:    3275.33 ave 3299 max 3250 min
Histogram: 1 0 0 1 1 1 0 1 0 1
Nghost:    6649.5 ave 6664 max 6640 min
Histogram: 3 0 0 0 0 1 1 0 0 1
Neighs:    202537 ave 207681 max 198991 min
Histogram: 1 1 1 1 0 0 0 1 0 1

Total # of neighbors = 1215223
Ave neighs/atom = 61.8371
Neighbor list builds = 495
Dangerous builds not checked
Setting up Verlet run ...
  Unit style    : metal
  Current step  : 1040500
  Time step     : 0.001
Per MPI rank memory allocation (min/avg/max) = 5.568 | 5.858 | 6.003 Mbytes
Step Temp Press TotEng PotEng Enthalpy 
 1040500    1668.1056    224.76457   -55197.563   -59434.703   -55140.612 
 1066672    1665.6639    143.24737   -55280.454   -59511.392   -55244.227 
 1106672    1641.2435   -11.336626   -55290.158   -59459.066   -55293.028 
Loop time of 2614.63 on 6 procs for 66172 steps with 19652 atoms

Performance: 2.187 ns/day, 10.976 hours/ns, 25.308 timesteps/s
98.8% CPU use with 6 MPI tasks x no OpenMP threads

MPI task timing breakdown:
Section |  min time  |  avg time  |  max time  |%varavg| %total
---------------------------------------------------------------
Pair    | 1436.4     | 1467.2     | 1483.6     |  52.8 | 56.11
Neigh   | 884.45     | 918.06     | 936.66     |  62.3 | 35.11
Comm    | 155.27     | 188        | 248.77     | 281.9 |  7.19
Output  | 0.02015    | 0.020212   | 0.02049    |   0.1 |  0.00
Modify  | 31.888     | 32.48      | 32.724     |   5.0 |  1.24
Other   |            | 8.883      |            |       |  0.34

Nlocal:    3275.33 ave 3306 max 3259 min
Histogram: 2 1 1 0 0 0 1 0 0 1
Nghost:    6646.67 ave 6666 max 6621 min
Histogram: 1 0 0 1 1 0 0 1 0 2
Neighs:    202779 ave 208748 max 199344 min
Histogram: 2 0 0 2 1 0 0 0 0 1

Total # of neighbors = 1216676
Ave neighs/atom = 61.9111
Neighbor list builds = 66172
Dangerous builds not checked
Setting up Verlet run ...
  Unit style    : metal
  Current step  : 1106672
  Time step     : 0.001
Per MPI rank memory allocation (min/avg/max) = 5.568 | 5.858 | 6.003 Mbytes
Step Temp Press TotEng PotEng Enthalpy 
 1106672    1641.2435   -11.336626   -55290.158   -59459.066   -55293.028 
 1107167    1606.1394    777.37846   -55477.158   -59556.899   -55281.218 
Loop time of 18.1715 on 6 procs for 495 steps with 19652 atoms

Performance: 2.354 ns/day, 10.197 hours/ns, 27.240 timesteps/s
99.9% CPU use with 6 MPI tasks x no OpenMP threads

MPI task timing breakdown:
Section |  min time  |  avg time  |  max time  |%varavg| %total
---------------------------------------------------------------
Pair    | 9.8016     | 10.021     | 10.262     |   5.2 | 55.14
Neigh   | 5.9323     | 6.4673     | 6.962      |  16.6 | 35.59
Comm    | 0.63483    | 1.3859     | 2.1431     |  48.6 |  7.63
Output  | 0.000103   | 0.00011996 | 0.00018692 |   0.0 |  0.00
Modify  | 0.21841    | 0.22948    | 0.23715    |   1.3 |  1.26
Other   |            | 0.06799    |            |       |  0.37

Nlocal:    3275.33 ave 3297 max 3259 min
Histogram: 1 0 1 2 0 0 1 0 0 1
Nghost:    6691.5 ave 6721 max 6653 min
Histogram: 1 0 1 1 0 0 0 0 1 2
Neighs:    203533 ave 207733 max 201632 min
Histogram: 3 1 0 0 0 0 1 0 0 1

Total # of neighbors = 1221197
Ave neighs/atom = 62.1411
Neighbor list builds = 495
Dangerous builds not checked
Setting up Verlet run ...
  Unit style    : metal
  Current step  : 1107167
  Time step     : 0.001
Per MPI rank memory allocation (min/avg/max) = 5.568 | 5.858 | 6.003 Mbytes
Step Temp Press TotEng PotEng Enthalpy 
 1107167    1606.1394    777.37846   -55477.158   -59556.899   -55281.218 
 1133339    1579.2803   -178.15365   -55585.764    -59597.28   -55630.673 
 1173339    1610.8805     14.76047   -55544.884   -59636.668   -55541.171 
Loop time of 2624.22 on 6 procs for 66172 steps with 19652 atoms

Performance: 2.179 ns/day, 11.016 hours/ns, 25.216 timesteps/s
98.6% CPU use with 6 MPI tasks x no OpenMP threads

MPI task timing breakdown:
Section |  min time  |  avg time  |  max time  |%varavg| %total
---------------------------------------------------------------
Pair    | 1454.2     | 1476.6     | 1499       |  48.1 | 56.27
Neigh   | 889.06     | 915.05     | 943.28     |  61.5 | 34.87
Comm    | 142.27     | 191.35     | 237.87     | 262.8 |  7.29
Output  | 0.02168    | 0.021729   | 0.021911   |   0.1 |  0.00
Modify  | 31.986     | 32.414     | 32.998     |   7.0 |  1.24
Other   |            | 8.814      |            |       |  0.34

Nlocal:    3275.33 ave 3305 max 3242 min
Histogram: 1 0 0 2 0 0 1 0 1 1
Nghost:    6685.33 ave 6724 max 6646 min
Histogram: 1 0 0 0 1 3 0 0 0 1
Neighs:    203964 ave 209900 max 199570 min
Histogram: 1 1 0 1 1 1 0 0 0 1

Total # of neighbors = 1223787
Ave neighs/atom = 62.2729
Neighbor list builds = 66172
Dangerous builds not checked
Setting up Verlet run ...
  Unit style    : metal
  Current step  : 1173339
  Time step     : 0.001
Per MPI rank memory allocation (min/avg/max) = 5.568 | 5.858 | 6.003 Mbytes
Step Temp Press TotEng PotEng Enthalpy 
 1173339    1610.8805     14.76047   -55544.884   -59636.668   -55541.171 
 1173834    1561.9464    666.35812   -55757.354   -59724.841   -55590.397 
Loop time of 18.34 on 6 procs for 495 steps with 19652 atoms

Performance: 2.332 ns/day, 10.292 hours/ns, 26.990 timesteps/s
99.9% CPU use with 6 MPI tasks x no OpenMP threads

MPI task timing breakdown:
Section |  min time  |  avg time  |  max time  |%varavg| %total
---------------------------------------------------------------
Pair    | 10.093     | 10.282     | 10.466     |   3.6 | 56.06
Neigh   | 6.1284     | 6.4931     | 7.0788     |  14.0 | 35.40
Comm    | 0.66644    | 1.2776     | 1.673      |  31.0 |  6.97
Output  | 8.3923e-05 | 0.00010105 | 0.00016093 |   0.0 |  0.00
Modify  | 0.21188    | 0.22109    | 0.23172    |   1.4 |  1.21
Other   |            | 0.06603    |            |       |  0.36

Nlocal:    3275.33 ave 3292 max 3249 min
Histogram: 1 0 0 0 0 1 1 2 0 1
Nghost:    6705 ave 6741 max 6666 min
Histogram: 1 0 0 1 1 1 0 0 1 1
Neighs:    204827 ave 210388 max 201509 min
Histogram: 2 0 1 1 0 0 1 0 0 1

Total # of neighbors = 1228960
Ave neighs/atom = 62.5361
Neighbor list builds = 495
Dangerous builds not checked
Setting up Verlet run ...
  Unit style    : metal
  Current step  : 1173834
  Time step     : 0.001
Per MPI rank memory allocation (min/avg/max) = 5.568 | 5.858 | 6.003 Mbytes
Step Temp Press TotEng PotEng Enthalpy 
 1173834    1561.9464    666.35812   -55757.354   -59724.841   -55590.397 
 1200006    1555.3899   -998.07614   -55794.925   -59745.757   -56045.594 
 1240006    1560.7921   -655.91979   -55817.049   -59781.603     -55981.5 
Loop time of 4102.74 on 6 procs for 66172 steps with 19652 atoms

Performance: 1.394 ns/day, 17.223 hours/ns, 16.129 timesteps/s
82.9% CPU use with 6 MPI tasks x no OpenMP threads

MPI task timing breakdown:
Section |  min time  |  avg time  |  max time  |%varavg| %total
---------------------------------------------------------------
Pair    | 2099.4     | 2112.6     | 2121.2     |  14.8 | 51.49
Neigh   | 941.39     | 951.6      | 968.26     |  34.9 | 23.19
Comm    | 716.24     | 729.66     | 755.96     |  47.8 | 17.78
Output  | 0.024524   | 0.025176   | 0.028406   |   0.9 |  0.00
Modify  | 294.56     | 300.95     | 308.28     |  26.4 |  7.34
Other   |            | 7.9        |            |       |  0.19

Nlocal:    3275.33 ave 3285 max 3269 min
Histogram: 2 1 0 0 0 1 1 0 0 1
Nghost:    6681.83 ave 6714 max 6662 min
Histogram: 3 0 1 0 0 0 0 0 0 2
Neighs:    204793 ave 208127 max 201429 min
Histogram: 1 0 0 1 1 1 1 0 0 1

Total # of neighbors = 1228758
Ave neighs/atom = 62.5258
Neighbor list builds = 66172
Dangerous builds not checked
Setting up Verlet run ...
  Unit style    : metal
  Current step  : 1240006
  Time step     : 0.001
Per MPI rank memory allocation (min/avg/max) = 5.568 | 5.858 | 6.003 Mbytes
Step Temp Press TotEng PotEng Enthalpy 
 1240006    1560.7921   -655.91979   -55817.049   -59781.603     -55981.5 
 1240501    1523.0323   -940.96148   -56029.178   -59897.819    -56264.33 
Loop time of 31.1397 on 6 procs for 495 steps with 19652 atoms

Performance: 1.373 ns/day, 17.475 hours/ns, 15.896 timesteps/s
82.3% CPU use with 6 MPI tasks x no OpenMP threads

MPI task timing breakdown:
Section |  min time  |  avg time  |  max time  |%varavg| %total
---------------------------------------------------------------
Pair    | 15.785     | 16.093     | 16.263     |   4.0 | 51.68
Neigh   | 6.465      | 6.8833     | 7.5757     |  14.4 | 22.10
Comm    | 5.4219     | 5.882      | 6.3012     |  12.8 | 18.89
Output  | 4.6968e-05 | 6.0479e-05 | 0.00010014 |   0.0 |  0.00
Modify  | 2.0139     | 2.2232     | 2.3409     |   8.5 |  7.14
Other   |            | 0.05774    |            |       |  0.19

Nlocal:    3275.33 ave 3297 max 3247 min
Histogram: 1 0 0 0 1 1 0 2 0 1
Nghost:    6701.83 ave 6727 max 6681 min
Histogram: 1 0 2 1 0 0 0 0 0 2
Neighs:    205525 ave 208816 max 199499 min
Histogram: 1 0 0 1 0 0 1 0 1 2

Total # of neighbors = 1233150
Ave neighs/atom = 62.7493
Neighbor list builds = 495
Dangerous builds not checked
Setting up Verlet run ...
  Unit style    : metal
  Current step  : 1240501
  Time step     : 0.001
Per MPI rank memory allocation (min/avg/max) = 5.568 | 5.858 | 6.003 Mbytes
Step Temp Press TotEng PotEng Enthalpy 
 1240501    1523.0323   -940.96148   -56029.178   -59897.819    -56264.33 
 1266673     1508.707    67.984092   -56108.288   -59940.541   -56091.363 
 1306673    1488.7962    1085.7859   -56192.383    -59974.06   -55922.924 
Loop time of 4561.55 on 6 procs for 66172 steps with 19652 atoms

Performance: 1.253 ns/day, 19.149 hours/ns, 14.506 timesteps/s
80.3% CPU use with 6 MPI tasks x no OpenMP threads

MPI task timing breakdown:
Section |  min time  |  avg time  |  max time  |%varavg| %total
---------------------------------------------------------------
Pair    | 2313.5     | 2324.4     | 2336.4     |  17.6 | 50.96
Neigh   | 960.03     | 965.4      | 970.14     |  11.7 | 21.16
Comm    | 868.34     | 884.99     | 903        |  38.3 | 19.40
Output  | 0.016875   | 0.016901   | 0.016996   |   0.0 |  0.00
Modify  | 370.63     | 379.13     | 390        |  30.6 |  8.31
Other   |            | 7.614      |            |       |  0.17

Nlocal:    3275.33 ave 3309 max 3246 min
Histogram: 1 0 0 1 2 0 1 0 0 1
Nghost:    6718.17 ave 6743 max 6693 min
Histogram: 2 0 0 0 0 0 2 1 0 1
Neighs:    206818 ave 211888 max 202812 min
Histogram: 1 0 0 3 0 1 0 0 0 1

Total # of neighbors = 1240911
Ave neighs/atom = 63.1443
Neighbor list builds = 66172
Dangerous builds not checked
Setting up Verlet run ...
  Unit style    : metal
  Current step  : 1306673
  Time step     : 0.001
Per MPI rank memory allocation (min/avg/max) = 5.568 | 5.858 | 6.003 Mbytes
Step Temp Press TotEng PotEng Enthalpy 
 1306673    1488.7962    1085.7859   -56192.383    -59974.06   -55922.924 
 1307168       1465.4    1101.3644   -56332.191   -60054.441    -56059.59 
Loop time of 28.5523 on 6 procs for 495 steps with 19652 atoms

Performance: 1.498 ns/day, 16.023 hours/ns, 17.337 timesteps/s
86.0% CPU use with 6 MPI tasks x no OpenMP threads

MPI task timing breakdown:
Section |  min time  |  avg time  |  max time  |%varavg| %total
---------------------------------------------------------------
Pair    | 14.451     | 14.755     | 14.933     |   4.0 | 51.68
Neigh   | 5.5727     | 6.6098     | 7.051      |  18.7 | 23.15
Comm    | 4.9565     | 5.4664     | 6.5226     |  22.0 | 19.15
Output  | 0.00012994 | 0.00015517 | 0.00022602 |   0.0 |  0.00
Modify  | 1.5513     | 1.6617     | 1.7025     |   4.4 |  5.82
Other   |            | 0.05898    |            |       |  0.21

Nlocal:    3275.33 ave 3294 max 3255 min
Histogram: 1 0 1 0 0 1 1 1 0 1
Nghost:    6734.83 ave 6764 max 6696 min
Histogram: 1 0 0 0 0 2 1 1 0 1
Neighs:    207352 ave 211654 max 205627 min
Histogram: 2 1 1 1 0 0 0 0 0 1

Total # of neighbors = 1244114
Ave neighs/atom = 63.3072
Neighbor list builds = 495
Dangerous builds not checked
Setting up Verlet run ...
  Unit style    : metal
  Current step  : 1307168
  Time step     : 0.001
Per MPI rank memory allocation (min/avg/max) = 5.568 | 5.858 | 6.003 Mbytes
Step Temp Press TotEng PotEng Enthalpy 
 1307168       1465.4    1101.3644   -56332.191   -60054.441    -56059.59 
 1333340    1457.4995    294.26464    -56392.09   -60094.271   -56319.263 
 1373340    1451.5071    1349.9714    -56424.17    -60111.13   -56091.108 
Loop time of 2921.68 on 6 procs for 66172 steps with 19652 atoms

Performance: 1.957 ns/day, 12.265 hours/ns, 22.649 timesteps/s
94.5% CPU use with 6 MPI tasks x no OpenMP threads

MPI task timing breakdown:
Section |  min time  |  avg time  |  max time  |%varavg| %total
---------------------------------------------------------------
Pair    | 1594.9     | 1607.8     | 1634.9     |  34.4 | 55.03
Neigh   | 875.94     | 897.47     | 927.89     |  59.7 | 30.72
Comm    | 273.2      | 327.38     | 358.06     | 167.7 | 11.21
Output  | 0.019565   | 0.019627   | 0.019874   |   0.1 |  0.00
Modify  | 77.251     | 80.849     | 82.617     |  22.7 |  2.77
Other   |            | 8.177      |            |       |  0.28

Nlocal:    3275.33 ave 3302 max 3252 min
Histogram: 1 0 1 0 1 2 0 0 0 1
Nghost:    6725.17 ave 6757 max 6700 min
Histogram: 1 1 0 0 1 2 0 0 0 1
Neighs:    208048 ave 212535 max 203578 min
Histogram: 1 0 0 1 1 1 1 0 0 1

Total # of neighbors = 1248287
Ave neighs/atom = 63.5196
Neighbor list builds = 66172
Dangerous builds not checked
Setting up Verlet run ...
  Unit style    : metal
  Current step  : 1373340
  Time step     : 0.001
Per MPI rank memory allocation (min/avg/max) = 5.568 | 5.858 | 6.003 Mbytes
Step Temp Press TotEng PotEng Enthalpy 
 1373340    1451.5071    1349.9714    -56424.17    -60111.13   -56091.108 
 1373835    1420.2073    309.62199   -56615.565   -60223.021   -56539.238 
Loop time of 18.8694 on 6 procs for 495 steps with 19652 atoms

Performance: 2.267 ns/day, 10.589 hours/ns, 26.233 timesteps/s
98.5% CPU use with 6 MPI tasks x no OpenMP threads

MPI task timing breakdown:
Section |  min time  |  avg time  |  max time  |%varavg| %total
---------------------------------------------------------------
Pair    | 10.475     | 10.759     | 11.184     |   7.3 | 57.02
Neigh   | 6.5309     | 6.6413     | 6.7729     |   3.6 | 35.20
Comm    | 0.79196    | 1.1729     | 1.5019     |  22.5 |  6.22
Output  | 0.00017309 | 0.00025165 | 0.00040293 |   0.0 |  0.00
Modify  | 0.22296    | 0.22882    | 0.23532    |   0.9 |  1.21
Other   |            | 0.06709    |            |       |  0.36

Nlocal:    3275.33 ave 3287 max 3266 min
Histogram: 1 1 0 1 1 0 1 0 0 1
Nghost:    6740.33 ave 6792 max 6690 min
Histogram: 1 0 0 1 2 0 0 1 0 1
Neighs:    208173 ave 212341 max 204589 min
Histogram: 1 1 0 1 1 0 0 0 1 1

Total # of neighbors = 1249040
Ave neighs/atom = 63.5579
Neighbor list builds = 495
Dangerous builds not checked
Setting up Verlet run ...
  Unit style    : metal
  Current step  : 1373835
  Time step     : 0.001
Per MPI rank memory allocation (min/avg/max) = 5.568 | 5.858 | 6.003 Mbytes
Step Temp Press TotEng PotEng Enthalpy 
 1373835    1420.2073    309.62199   -56615.565   -60223.021   -56539.238 
 1400007    1408.1454    21.085796   -56692.378   -60269.196   -56687.187 
 1440007    1398.2543    838.60932   -56739.994   -60291.687   -56533.987 
Loop time of 2652.24 on 6 procs for 66172 steps with 19652 atoms

Performance: 2.156 ns/day, 11.134 hours/ns, 24.949 timesteps/s
98.5% CPU use with 6 MPI tasks x no OpenMP threads

MPI task timing breakdown:
Section |  min time  |  avg time  |  max time  |%varavg| %total
---------------------------------------------------------------
Pair    | 1475.4     | 1504.5     | 1522.2     |  46.8 | 56.73
Neigh   | 888.66     | 915.02     | 934.25     |  56.2 | 34.50
Comm    | 153.97     | 191.33     | 247.69     | 257.0 |  7.21
Output  | 0.021907   | 0.021954   | 0.022169   |   0.1 |  0.00
Modify  | 31.951     | 32.453     | 32.735     |   4.6 |  1.22
Other   |            | 8.878      |            |       |  0.33

Nlocal:    3275.33 ave 3321 max 3251 min
Histogram: 1 1 2 0 1 0 0 0 0 1
Nghost:    6764.17 ave 6830 max 6724 min
Histogram: 1 1 0 2 1 0 0 0 0 1
Neighs:    209056 ave 216565 max 204240 min
Histogram: 1 1 1 0 1 1 0 0 0 1

Total # of neighbors = 1254335
Ave neighs/atom = 63.8273
Neighbor list builds = 66172
Dangerous builds not checked
Setting up Verlet run ...
  Unit style    : metal
  Current step  : 1440007
  Time step     : 0.001
Per MPI rank memory allocation (min/avg/max) = 5.568 | 5.858 | 6.003 Mbytes
Step Temp Press TotEng PotEng Enthalpy 
 1440007    1398.2543    838.60932   -56739.994   -60291.687   -56533.987 
 1440502    1370.4742    873.07122   -56893.603   -60374.732   -56679.797 
Loop time of 18.4553 on 6 procs for 495 steps with 19652 atoms

Performance: 2.317 ns/day, 10.356 hours/ns, 26.822 timesteps/s
99.1% CPU use with 6 MPI tasks x no OpenMP threads

MPI task timing breakdown:
Section |  min time  |  avg time  |  max time  |%varavg| %total
---------------------------------------------------------------
Pair    | 10.212     | 10.454     | 10.87      |   6.7 | 56.65
Neigh   | 6.2563     | 6.6357     | 6.8158     |   7.8 | 35.96
Comm    | 0.7811     | 1.0601     | 1.4891     |  23.1 |  5.74
Output  | 0.00011611 | 0.00015883 | 0.00028086 |   0.0 |  0.00
Modify  | 0.22025    | 0.23917    | 0.25481    |   2.7 |  1.30
Other   |            | 0.06598    |            |       |  0.36

Nlocal:    3275.33 ave 3289 max 3267 min
Histogram: 2 0 1 0 1 1 0 0 0 1
Nghost:    6760.83 ave 6774 max 6746 min
Histogram: 1 0 0 2 0 0 1 1 0 1
Neighs:    209745 ave 213025 max 206889 min
Histogram: 1 1 0 1 0 0 2 0 0 1

Total # of neighbors = 1258470
Ave neighs/atom = 64.0378
Neighbor list builds = 495
Dangerous builds not checked
Setting up Verlet run ...
  Unit style    : metal
  Current step  : 1440502
  Time step     : 0.001
Per MPI rank memory allocation (min/avg/max) = 5.568 | 5.858 | 6.003 Mbytes
Step Temp Press TotEng PotEng Enthalpy 
 1440502    1370.4742    873.07122   -56893.603   -60374.732   -56679.797 
 1466674    1352.2809    648.53442   -57026.254    -60461.17   -56867.915 
 1506674    1353.1573   -608.01948   -56968.983   -60406.126   -57118.203 
Loop time of 2623.77 on 6 procs for 66172 steps with 19652 atoms

Performance: 2.179 ns/day, 11.014 hours/ns, 25.220 timesteps/s
98.6% CPU use with 6 MPI tasks x no OpenMP threads

MPI task timing breakdown:
Section |  min time  |  avg time  |  max time  |%varavg| %total
---------------------------------------------------------------
Pair    | 1454.6     | 1479.5     | 1501       |  38.6 | 56.39
Neigh   | 883.71     | 906.65     | 930.28     |  54.0 | 34.56
Comm    | 150.12     | 195.54     | 244.26     | 218.9 |  7.45
Output  | 0.019393   | 0.019426   | 0.019567   |   0.0 |  0.00
Modify  | 32.66      | 33.231     | 34.003     |   8.2 |  1.27
Other   |            | 8.791      |            |       |  0.34

Nlocal:    3275.33 ave 3300 max 3262 min
Histogram: 2 1 1 0 0 0 1 0 0 1
Nghost:    6738.17 ave 6783 max 6694 min
Histogram: 1 0 1 1 0 1 0 0 1 1
Neighs:    209258 ave 212756 max 206798 min
Histogram: 1 0 1 2 0 1 0 0 0 1

Total # of neighbors = 1255545
Ave neighs/atom = 63.8889
Neighbor list builds = 66172
Dangerous builds not checked
Setting up Verlet run ...
  Unit style    : metal
  Current step  : 1506674
  Time step     : 0.001
Per MPI rank memory allocation (min/avg/max) = 5.568 | 5.858 | 6.003 Mbytes
Step Temp Press TotEng PotEng Enthalpy 
 1506674    1353.1573   -608.01948   -56968.983   -60406.126   -57118.203 
 1507169    1305.2962   -46.437794   -57194.702   -60510.273   -57206.041 
Loop time of 17.5995 on 6 procs for 495 steps with 19652 atoms

Performance: 2.430 ns/day, 9.876 hours/ns, 28.126 timesteps/s
99.9% CPU use with 6 MPI tasks x no OpenMP threads

MPI task timing breakdown:
Section |  min time  |  avg time  |  max time  |%varavg| %total
---------------------------------------------------------------
Pair    | 9.5811     | 9.9158     | 10.427     |  10.5 | 56.34
Neigh   | 6.0513     | 6.3204     | 6.7147     |   8.4 | 35.91
Comm    | 0.65463    | 1.0735     | 1.533      |  32.9 |  6.10
Output  | 6.8903e-05 | 8.297e-05  | 0.00014186 |   0.0 |  0.00
Modify  | 0.21211    | 0.2226     | 0.23122    |   1.4 |  1.26
Other   |            | 0.0671     |            |       |  0.38

Nlocal:    3275.33 ave 3292 max 3265 min
Histogram: 3 0 0 0 0 1 1 0 0 1
Nghost:    6764.33 ave 6802 max 6743 min
Histogram: 2 0 1 1 0 1 0 0 0 1
Neighs:    210298 ave 212650 max 207278 min
Histogram: 1 0 0 0 1 1 1 0 1 1

Total # of neighbors = 1261787
Ave neighs/atom = 64.2065
Neighbor list builds = 495
Dangerous builds not checked
Setting up Verlet run ...
  Unit style    : metal
  Current step  : 1507169
  Time step     : 0.001
Per MPI rank memory allocation (min/avg/max) = 5.568 | 5.858 | 6.003 Mbytes
Step Temp Press TotEng PotEng Enthalpy 
 1507169    1305.2962   -46.437794   -57194.702   -60510.273   -57206.041 
 1533341    1307.0302    851.41019   -57268.678   -60588.654   -57061.767 
 1573341    1295.0347   -300.31124   -57285.936   -60575.442   -57359.138 
Loop time of 2655.36 on 6 procs for 66172 steps with 19652 atoms

Performance: 2.153 ns/day, 11.147 hours/ns, 24.920 timesteps/s
98.6% CPU use with 6 MPI tasks x no OpenMP threads

MPI task timing breakdown:
Section |  min time  |  avg time  |  max time  |%varavg| %total
---------------------------------------------------------------
Pair    | 1466.9     | 1503.6     | 1534.7     |  58.7 | 56.63
Neigh   | 900.02     | 919.01     | 938.73     |  46.3 | 34.61
Comm    | 144.96     | 190.76     | 247.75     | 267.5 |  7.18
Output  | 0.020654   | 0.020702   | 0.020858   |   0.1 |  0.00
Modify  | 32.23      | 32.916     | 33.502     |   7.4 |  1.24
Other   |            | 9.006      |            |       |  0.34

Nlocal:    3275.33 ave 3297 max 3263 min
Histogram: 3 0 0 1 0 0 0 1 0 1
Nghost:    6786.33 ave 6819 max 6756 min
Histogram: 1 0 0 2 0 1 1 0 0 1
Neighs:    210684 ave 214176 max 208476 min
Histogram: 1 1 1 0 1 1 0 0 0 1

Total # of neighbors = 1264103
Ave neighs/atom = 64.3244
Neighbor list builds = 66172
Dangerous builds not checked
Setting up Verlet run ...
  Unit style    : metal
  Current step  : 1573341
  Time step     : 0.001
Per MPI rank memory allocation (min/avg/max) = 5.568 | 5.858 | 6.003 Mbytes
Step Temp Press TotEng PotEng Enthalpy 
 1573341    1295.0347   -300.31124   -57285.936   -60575.442   -57359.138 
 1573836    1265.2663    451.94202   -57473.163   -60687.054   -57363.623 
Loop time of 18.7012 on 6 procs for 495 steps with 19652 atoms

Performance: 2.287 ns/day, 10.495 hours/ns, 26.469 timesteps/s
99.8% CPU use with 6 MPI tasks x no OpenMP threads

MPI task timing breakdown:
Section |  min time  |  avg time  |  max time  |%varavg| %total
---------------------------------------------------------------
Pair    | 10.203     | 10.41      | 10.778     |   6.9 | 55.66
Neigh   | 6.179      | 6.6999     | 6.926      |   9.8 | 35.83
Comm    | 0.77592    | 1.2975     | 2.0292     |  38.5 |  6.94
Output  | 7.2002e-05 | 9.5447e-05 | 0.00014281 |   0.0 |  0.00
Modify  | 0.21335    | 0.22585    | 0.23249    |   1.3 |  1.21
Other   |            | 0.06813    |            |       |  0.36

Nlocal:    3275.33 ave 3294 max 3249 min
Histogram: 1 0 0 0 1 1 0 2 0 1
Nghost:    6782.33 ave 6814 max 6754 min
Histogram: 2 0 0 0 0 2 0 1 0 1
Neighs:    211899 ave 215668 max 209343 min
Histogram: 3 0 0 0 0 0 2 0 0 1

Total # of neighbors = 1271394
Ave neighs/atom = 64.6954
Neighbor list builds = 495
Dangerous builds not checked
Setting up Verlet run ...
  Unit style    : metal
  Current step  : 1573836
  Time step     : 0.001
Per MPI rank memory allocation (min/avg/max) = 5.568 | 5.858 | 6.003 Mbytes
Step Temp Press TotEng PotEng Enthalpy 
 1573836    1265.2663    451.94202   -57473.163   -60687.054   -57363.623 
 1600008    1246.3604    302.59031   -57612.826   -60778.695   -57539.705 
 1640008    1245.1171   -616.21353   -57589.532   -60752.243   -57738.973 
Loop time of 2735.74 on 6 procs for 66172 steps with 19652 atoms

Performance: 2.090 ns/day, 11.484 hours/ns, 24.188 timesteps/s
97.2% CPU use with 6 MPI tasks x no OpenMP threads

MPI task timing breakdown:
Section |  min time  |  avg time  |  max time  |%varavg| %total
---------------------------------------------------------------
Pair    | 1500.1     | 1532.7     | 1557.8     |  55.7 | 56.03
Neigh   | 892        | 910.82     | 929.45     |  48.2 | 33.29
Comm    | 192.26     | 236.13     | 287.73     | 239.1 |  8.63
Output  | 0.02287    | 0.022921   | 0.023105   |   0.1 |  0.00
Modify  | 46.434     | 47.219     | 48.111     |   9.7 |  1.73
Other   |            | 8.809      |            |       |  0.32

Nlocal:    3275.33 ave 3291 max 3252 min
Histogram: 1 0 0 0 1 1 0 1 1 1
Nghost:    6771.83 ave 6818 max 6730 min
Histogram: 1 1 0 0 1 1 0 1 0 1
Neighs:    211858 ave 214891 max 208518 min
Histogram: 1 1 0 1 0 0 0 1 0 2

Total # of neighbors = 1271150
Ave neighs/atom = 64.683
Neighbor list builds = 66172
Dangerous builds not checked
Setting up Verlet run ...
  Unit style    : metal
  Current step  : 1640008
  Time step     : 0.001
Per MPI rank memory allocation (min/avg/max) = 5.568 | 5.858 | 6.003 Mbytes
Step Temp Press TotEng PotEng Enthalpy 
 1640008    1245.1171   -616.21353   -57589.532   -60752.243   -57738.973 
 1640503    1213.6893   -276.73159   -57781.979    -60864.86   -57848.757 
Loop time of 40.429 on 6 procs for 495 steps with 19652 atoms

Performance: 1.058 ns/day, 22.687 hours/ns, 12.244 timesteps/s
75.5% CPU use with 6 MPI tasks x no OpenMP threads

MPI task timing breakdown:
Section |  min time  |  avg time  |  max time  |%varavg| %total
---------------------------------------------------------------
Pair    | 19.789     | 19.977     | 20.317     |   4.7 | 49.41
Neigh   | 7.0837     | 7.3742     | 7.8031     |  10.5 | 18.24
Comm    | 8.5767     | 9.1608     | 9.5524     |  10.8 | 22.66
Output  | 0.00011301 | 0.000169   | 0.00028205 |   0.0 |  0.00
Modify  | 3.5085     | 3.858      | 4.1642     |  12.2 |  9.54
Other   |            | 0.0593     |            |       |  0.15

Nlocal:    3275.33 ave 3290 max 3259 min
Histogram: 2 0 1 0 0 0 0 0 1 2
Nghost:    6780.17 ave 6825 max 6730 min
Histogram: 1 0 0 1 0 2 0 1 0 1
Neighs:    212893 ave 215618 max 208418 min
Histogram: 1 0 0 0 0 1 1 2 0 1

Total # of neighbors = 1277360
Ave neighs/atom = 64.999
Neighbor list builds = 495
Dangerous builds not checked
Setting up Verlet run ...
  Unit style    : metal
  Current step  : 1640503
  Time step     : 0.001
Per MPI rank memory allocation (min/avg/max) = 5.568 | 5.858 | 6.003 Mbytes
Step Temp Press TotEng PotEng Enthalpy 
 1640503    1213.6893   -276.73159   -57781.979    -60864.86   -57848.757 
 1666675    1195.6499    120.78172    -57904.66    -60941.72   -57875.632 
 1706675    1200.2505   -1169.8706   -57855.082   -60903.827   -58137.435 
Loop time of 4677.81 on 6 procs for 66172 steps with 19652 atoms

Performance: 1.222 ns/day, 19.637 hours/ns, 14.146 timesteps/s
79.5% CPU use with 6 MPI tasks x no OpenMP threads

MPI task timing breakdown:
Section |  min time  |  avg time  |  max time  |%varavg| %total
---------------------------------------------------------------
Pair    | 2357.6     | 2367.9     | 2384.6     |  17.8 | 50.62
Neigh   | 958.47     | 965.94     | 974.14     |  15.5 | 20.65
Comm    | 909.77     | 930.93     | 948.37     |  43.8 | 19.90
Output  | 0.033745   | 0.033788   | 0.03393    |   0.0 |  0.00
Modify  | 398.04     | 405.42     | 412.82     |  27.0 |  8.67
Other   |            | 7.622      |            |       |  0.16

Nlocal:    3275.33 ave 3288 max 3258 min
Histogram: 1 0 0 2 0 0 0 0 1 2
Nghost:    6789.33 ave 6812 max 6773 min
Histogram: 1 0 3 0 0 0 0 0 1 1
Neighs:    212913 ave 217297 max 208227 min
Histogram: 1 0 0 1 0 1 2 0 0 1

Total # of neighbors = 1277479
Ave neighs/atom = 65.005
Neighbor list builds = 66172
Dangerous builds not checked
Setting up Verlet run ...
  Unit style    : metal
  Current step  : 1706675
  Time step     : 0.001
Per MPI rank memory allocation (min/avg/max) = 5.568 | 5.858 | 6.003 Mbytes
Step Temp Press TotEng PotEng Enthalpy 
 1706675    1200.2505   -1169.8706   -57855.082   -60903.827   -58137.435 
 1707170    1178.6993   -867.28277   -58063.631   -61057.634   -58271.966 
Loop time of 32.983 on 6 procs for 495 steps with 19652 atoms

Performance: 1.297 ns/day, 18.509 hours/ns, 15.008 timesteps/s
80.3% CPU use with 6 MPI tasks x no OpenMP threads

MPI task timing breakdown:
Section |  min time  |  avg time  |  max time  |%varavg| %total
---------------------------------------------------------------
Pair    | 16.246     | 16.338     | 16.495     |   2.0 | 49.53
Neigh   | 6.4718     | 6.8472     | 7.2034     |   8.5 | 20.76
Comm    | 6.3273     | 6.731      | 7.164      |  10.1 | 20.41
Output  | 0.017815   | 0.018665   | 0.019111   |   0.4 |  0.06
Modify  | 2.8811     | 2.9847     | 3.0577     |   3.4 |  9.05
Other   |            | 0.0634     |            |       |  0.19

Nlocal:    3275.33 ave 3288 max 3255 min
Histogram: 1 1 0 0 0 0 1 0 0 3
[...]
Loop time of 17.9455 on 6 procs for 495 steps with 19652 atoms

Performance: 2.383 ns/day, 10.070 hours/ns, 27.584 timesteps/s
100.0% CPU use with 6 MPI tasks x no OpenMP threads

MPI task timing breakdown:
Section |  min time  |  avg time  |  max time  |%varavg| %total
---------------------------------------------------------------
Pair    | 9.7121     | 10.11      | 10.431     |   7.5 | 56.34
Neigh   | 6.3955     | 6.5967     | 6.999      |   7.8 | 36.76
Comm    | 0.64453    | 0.9623     | 1.3086     |  24.3 |  5.36
Output  | 5.6028e-05 | 6.7552e-05 | 0.00011897 |   0.0 |  0.00
Modify  | 0.20337    | 0.2104     | 0.21685    |   1.1 |  1.17
Other   |            | 0.06604    |            |       |  0.37

Nlocal:    3275.33 ave 3290 max 3268 min
Histogram: 1 2 1 0 1 0 0 0 0 1
Nghost:    7111 ave 7138 max 7095 min
Histogram: 2 0 1 0 2 0 0 0 0 1
Neighs:    235038 ave 238345 max 231502 min
Histogram: 2 0 0 0 0 1 0 2 0 1

Total # of neighbors = 1410226
Ave neighs/atom = 71.7599
Neighbor list builds = 495
Dangerous builds not checked
Setting up Verlet run ...
  Unit style    : metal
  Current step  : 2707175
  Time step     : 0.001
Per MPI rank memory allocation (min/avg/max) = 5.57 | 5.859 | 6.004 Mbytes
Step Temp Press TotEng PotEng Enthalpy 
 2707175     425.4923   -94.062274   -62850.493   -63931.282    -62871.09 
 2733347     398.4171   -163.46954   -63022.841   -64034.857   -63058.511 
 2773347    396.30012     635.5761   -63045.381   -64052.019   -62906.877 
Loop time of 2613.07 on 6 procs for 66172 steps with 19652 atoms

Performance: 2.188 ns/day, 10.969 hours/ns, 25.324 timesteps/s
98.7% CPU use with 6 MPI tasks x no OpenMP threads

MPI task timing breakdown:
Section |  min time  |  avg time  |  max time  |%varavg| %total
---------------------------------------------------------------
Pair    | 1424.3     | 1454.3     | 1475.5     |  43.5 | 55.66
Neigh   | 910.65     | 933.4      | 956.3      |  57.0 | 35.72
Comm    | 153.55     | 183.55     | 234.62     | 192.3 |  7.02
Output  | 0.019697   | 0.019732   | 0.019881   |   0.0 |  0.00
Modify  | 32.533     | 32.818     | 33.075     |   3.1 |  1.26
Other   |            | 8.968      |            |       |  0.34

Nlocal:    3275.33 ave 3297 max 3264 min
Histogram: 1 1 1 2 0 0 0 0 0 1
Nghost:    7126.5 ave 7154 max 7098 min
Histogram: 1 1 0 0 1 1 0 0 0 2
Neighs:    236100 ave 241425 max 231892 min
Histogram: 1 1 0 1 1 0 0 1 0 1

Total # of neighbors = 1416602
Ave neighs/atom = 72.0844
Neighbor list builds = 66172
Dangerous builds not checked
Setting up Verlet run ...
  Unit style    : metal
  Current step  : 2773347
  Time step     : 0.001
Per MPI rank memory allocation (min/avg/max) = 5.57 | 5.859 | 6.004 Mbytes
Step Temp Press TotEng PotEng Enthalpy 
 2773347    396.30012     635.5761   -63045.381   -64052.019   -62906.877 
 2773842    373.21816    666.22722   -63184.493   -64132.501   -63039.636 
Loop time of 19.3592 on 6 procs for 495 steps with 19652 atoms

Performance: 2.209 ns/day, 10.864 hours/ns, 25.569 timesteps/s
98.3% CPU use with 6 MPI tasks x no OpenMP threads

MPI task timing breakdown:
Section |  min time  |  avg time  |  max time  |%varavg| %total
---------------------------------------------------------------
Pair    | 9.8439     | 10.38      | 10.901     |  12.7 | 53.62
Neigh   | 6.5629     | 6.8526     | 7.1802     |   8.5 | 35.40
Comm    | 1.439      | 1.838      | 2.6132     |  32.4 |  9.49
Output  | 0.00015497 | 0.00021684 | 0.00048304 |   0.0 |  0.00
Modify  | 0.21338    | 0.21992    | 0.224      |   0.7 |  1.14
Other   |            | 0.06825    |            |       |  0.35

Nlocal:    3275.33 ave 3283 max 3268 min
Histogram: 1 0 1 0 1 0 2 0 0 1
Nghost:    7134.33 ave 7156 max 7123 min
Histogram: 2 1 1 0 0 0 1 0 0 1
Neighs:    236604 ave 239655 max 232801 min
Histogram: 1 1 0 0 1 0 1 0 0 2

Total # of neighbors = 1419621
Ave neighs/atom = 72.238
Neighbor list builds = 495
Dangerous builds not checked
Setting up Verlet run ...
  Unit style    : metal
  Current step  : 2773842
  Time step     : 0.001
Per MPI rank memory allocation (min/avg/max) = 5.57 | 5.859 | 6.004 Mbytes
Step Temp Press TotEng PotEng Enthalpy 
 2773842    373.21816    666.22722   -63184.493   -64132.501   -63039.636 
 2800014    351.78742   -125.70891   -63331.537   -64225.109    -63358.84 
 2840014     351.4392     312.7885   -63349.723    -64242.41   -63281.865 
Loop time of 2597.09 on 6 procs for 66172 steps with 19652 atoms

Performance: 2.201 ns/day, 10.902 hours/ns, 25.479 timesteps/s
98.8% CPU use with 6 MPI tasks x no OpenMP threads

MPI task timing breakdown:
Section |  min time  |  avg time  |  max time  |%varavg| %total
---------------------------------------------------------------
Pair    | 1422       | 1450.6     | 1476.1     |  57.7 | 55.85
Neigh   | 919.08     | 936.74     | 952.16     |  42.9 | 36.07
Comm    | 135.78     | 167.59     | 214.41     | 241.7 |  6.45
Output  | 0.020593   | 0.020642   | 0.020793   |   0.0 |  0.00
Modify  | 32.596     | 32.936     | 33.433     |   5.6 |  1.27
Other   |            | 9.229      |            |       |  0.36

Nlocal:    3275.33 ave 3296 max 3264 min
Histogram: 1 0 2 2 0 0 0 0 0 1
Nghost:    7133.5 ave 7163 max 7119 min
Histogram: 2 1 0 1 1 0 0 0 0 1
Neighs:    237159 ave 239684 max 233529 min
Histogram: 1 0 0 0 1 2 0 0 0 2

Total # of neighbors = 1422954
Ave neighs/atom = 72.4076
Neighbor list builds = 66172
Dangerous builds not checked
Setting up Verlet run ...
  Unit style    : metal
  Current step  : 2840014
  Time step     : 0.001
Per MPI rank memory allocation (min/avg/max) = 5.57 | 5.859 | 6.004 Mbytes
Step Temp Press TotEng PotEng Enthalpy 
 2840014     351.4392     312.7885   -63349.723    -64242.41   -63281.865 
 2840509    322.12896    729.66595   -63497.166   -64315.403   -63339.247 
Loop time of 19.33 on 6 procs for 495 steps with 19652 atoms

Performance: 2.213 ns/day, 10.847 hours/ns, 25.608 timesteps/s
97.5% CPU use with 6 MPI tasks x no OpenMP threads

MPI task timing breakdown:
Section |  min time  |  avg time  |  max time  |%varavg| %total
---------------------------------------------------------------
Pair    | 10.222     | 10.405     | 10.582     |   4.6 | 53.83
Neigh   | 6.7898     | 6.9043     | 7.1068     |   4.0 | 35.72
Comm    | 1.4226     | 1.7158     | 2.0277     |  15.6 |  8.88
Output  | 5.6982e-05 | 7.1565e-05 | 0.00013494 |   0.0 |  0.00
Modify  | 0.22683    | 0.23888    | 0.24486    |   1.2 |  1.24
Other   |            | 0.06569    |            |       |  0.34

Nlocal:    3275.33 ave 3287 max 3264 min
Histogram: 2 0 0 0 0 1 1 1 0 1
Nghost:    7147.17 ave 7174 max 7121 min
Histogram: 1 1 0 1 0 1 0 0 1 1
Neighs:    237665 ave 240775 max 233702 min
Histogram: 1 1 0 0 0 1 0 1 0 2

Total # of neighbors = 1425990
Ave neighs/atom = 72.5621
Neighbor list builds = 495
Dangerous builds not checked
Setting up Verlet run ...
  Unit style    : metal
  Current step  : 2840509
  Time step     : 0.001
Per MPI rank memory allocation (min/avg/max) = 5.57 | 5.859 | 6.004 Mbytes
Step Temp Press TotEng PotEng Enthalpy 
 2840509    322.12896    729.66595   -63497.166   -64315.403   -63339.247 
 2866681    298.90553    462.25161   -63640.815   -64400.062   -63540.973 
 2906681    298.40123    261.90944   -63651.655   -64409.621   -63595.067 
Loop time of 2571.34 on 6 procs for 66172 steps with 19652 atoms

Performance: 2.223 ns/day, 10.794 hours/ns, 25.734 timesteps/s
98.8% CPU use with 6 MPI tasks x no OpenMP threads

MPI task timing breakdown:
Section |  min time  |  avg time  |  max time  |%varavg| %total
---------------------------------------------------------------
Pair    | 1416.2     | 1428.7     | 1456.4     |  36.8 | 55.56
Neigh   | 903.68     | 931.49     | 952.69     |  52.2 | 36.23
Comm    | 141.91     | 170.01     | 192.37     | 124.5 |  6.61
Output  | 0.020081   | 0.020138   | 0.02035    |   0.1 |  0.00
Modify  | 31.479     | 31.981     | 32.401     |   5.9 |  1.24
Other   |            | 9.127      |            |       |  0.35

Nlocal:    3275.33 ave 3290 max 3254 min
Histogram: 1 0 0 1 0 1 0 0 2 1
Nghost:    7158.33 ave 7181 max 7138 min
Histogram: 1 0 0 1 1 2 0 0 0 1
Neighs:    238080 ave 240977 max 235707 min
Histogram: 2 0 0 1 0 0 1 1 0 1

Total # of neighbors = 1428481
Ave neighs/atom = 72.6888
Neighbor list builds = 66172
Dangerous builds not checked
Setting up Verlet run ...
  Unit style    : metal
  Current step  : 2906681
  Time step     : 0.001
Per MPI rank memory allocation (min/avg/max) = 5.57 | 5.859 | 6.004 Mbytes
Step Temp Press TotEng PotEng Enthalpy 
 2906681    298.40123    261.90944   -63651.655   -64409.621   -63595.067 
 2907176    273.40359    192.85379   -63785.626   -64480.096   -63744.013 
Loop time of 19.1574 on 6 procs for 495 steps with 19652 atoms

Performance: 2.232 ns/day, 10.751 hours/ns, 25.839 timesteps/s
98.0% CPU use with 6 MPI tasks x no OpenMP threads

MPI task timing breakdown:
Section |  min time  |  avg time  |  max time  |%varavg| %total
---------------------------------------------------------------
Pair    | 10.671     | 10.998     | 11.451     |  10.0 | 57.41
Neigh   | 6.4123     | 6.8098     | 7.1113     |  10.0 | 35.55
Comm    | 0.87368    | 1.0504     | 1.3628     |  14.7 |  5.48
Output  | 0.00010204 | 0.00012195 | 0.0002079  |   0.0 |  0.00
Modify  | 0.22086    | 0.23045    | 0.238      |   1.3 |  1.20
Other   |            | 0.06826    |            |       |  0.36

Nlocal:    3275.33 ave 3293 max 3262 min
Histogram: 1 1 0 1 1 1 0 0 0 1
Nghost:    7179.67 ave 7202 max 7156 min
Histogram: 1 1 0 1 0 1 0 0 0 2
Neighs:    238334 ave 243037 max 234047 min
Histogram: 1 1 0 1 1 0 0 0 1 1

Total # of neighbors = 1430006
Ave neighs/atom = 72.7664
Neighbor list builds = 495
Dangerous builds not checked
Setting up Verlet run ...
  Unit style    : metal
  Current step  : 2907176
  Time step     : 0.001
Per MPI rank memory allocation (min/avg/max) = 5.57 | 5.859 | 6.004 Mbytes
Step Temp Press TotEng PotEng Enthalpy 
 2907176    273.40359    192.85379   -63785.626   -64480.096   -63744.013 
 2933348    249.09628   -359.19326   -63916.619   -64549.346   -63994.065 
 2973348     249.4397   -65.136559   -63919.575   -64553.174   -63933.608 
Loop time of 2952.77 on 6 procs for 66172 steps with 19652 atoms

Performance: 1.936 ns/day, 12.395 hours/ns, 22.410 timesteps/s
93.2% CPU use with 6 MPI tasks x no OpenMP threads

MPI task timing breakdown:
Section |  min time  |  avg time  |  max time  |%varavg| %total
---------------------------------------------------------------
Pair    | 1561.1     | 1593.4     | 1611.9     |  42.8 | 53.96
Neigh   | 928.19     | 942.74     | 956.04     |  29.5 | 31.93
Comm    | 281.66     | 306.55     | 344.89     | 123.4 | 10.38
Output  | 0.018806   | 0.01885    | 0.019034   |   0.1 |  0.00
Modify  | 99.25      | 101.16     | 102.84     |  13.5 |  3.43
Other   |            | 8.908      |            |       |  0.30

Nlocal:    3275.33 ave 3285 max 3263 min
Histogram: 1 0 1 0 1 0 0 1 0 2
Nghost:    7168 ave 7207 max 7146 min
Histogram: 3 0 0 0 1 0 0 1 0 1
Neighs:    238783 ave 242562 max 235631 min
Histogram: 2 0 1 0 0 1 0 0 0 2

Total # of neighbors = 1432696
Ave neighs/atom = 72.9033
Neighbor list builds = 66172
Dangerous builds not checked
Setting up Verlet run ...
  Unit style    : metal
  Current step  : 2973348
  Time step     : 0.001
Per MPI rank memory allocation (min/avg/max) = 5.57 | 5.859 | 6.004 Mbytes
Step Temp Press TotEng PotEng Enthalpy 
 2973348     249.4397   -65.136559   -63919.575   -64553.174   -63933.608 
 2973843    224.13532   -130.62342   -64055.097   -64624.422   -64083.198 
Loop time of 40.2924 on 6 procs for 495 steps with 19652 atoms

Performance: 1.061 ns/day, 22.611 hours/ns, 12.285 timesteps/s
75.8% CPU use with 6 MPI tasks x no OpenMP threads

MPI task timing breakdown:
Section |  min time  |  avg time  |  max time  |%varavg| %total
---------------------------------------------------------------
Pair    | 20.028     | 20.392     | 20.977     |   7.3 | 50.61
Neigh   | 7.2708     | 7.9291     | 8.4186     |  12.1 | 19.68
Comm    | 7.5542     | 7.9814     | 8.6533     |  12.8 | 19.81
Output  | 5.2214e-05 | 6.7433e-05 | 0.00011802 |   0.0 |  0.00
Modify  | 3.5334     | 3.9241     | 4.199      |  12.6 |  9.74
Other   |            | 0.06601    |            |       |  0.16

Nlocal:    3275.33 ave 3285 max 3265 min
Histogram: 1 0 1 1 0 0 0 0 2 1
Nghost:    7185.67 ave 7216 max 7167 min
Histogram: 2 0 1 1 0 0 1 0 0 1
Neighs:    239082 ave 243217 max 235422 min
Histogram: 2 0 0 1 0 1 0 0 0 2

Total # of neighbors = 1434494
Ave neighs/atom = 72.9948
Neighbor list builds = 495
Dangerous builds not checked
Setting up Verlet run ...
  Unit style    : metal
  Current step  : 2973843
  Time step     : 0.001
Per MPI rank memory allocation (min/avg/max) = 5.57 | 5.859 | 6.004 Mbytes
Step Temp Press TotEng PotEng Enthalpy 
 2973843    224.13532   -130.62342   -64055.097   -64624.422   -64083.198 
 3000015    200.32171   -219.52763   -64183.791   -64692.627   -64230.951 
 3040015    200.08445    186.02622   -64187.432   -64695.665   -64147.494 
Loop time of 4922.27 on 6 procs for 66172 steps with 19652 atoms

Performance: 1.162 ns/day, 20.663 hours/ns, 13.443 timesteps/s
78.4% CPU use with 6 MPI tasks x no OpenMP threads

MPI task timing breakdown:
Section |  min time  |  avg time  |  max time  |%varavg| %total
---------------------------------------------------------------
Pair    | 2437.8     | 2457.7     | 2473       |  29.6 | 49.93
Neigh   | 1001.5     | 1012.6     | 1023.3     |  23.3 | 20.57
Comm    | 988.54     | 998.92     | 1021.6     |  37.2 | 20.29
Output  | 0.032566   | 0.033233   | 0.036537   |   0.8 |  0.00
Modify  | 437.52     | 445.44     | 453.19     |  27.8 |  9.05
Other   |            | 7.582      |            |       |  0.15

Nlocal:    3275.33 ave 3284 max 3265 min
Histogram: 1 0 0 0 2 1 0 0 1 1
Nghost:    7184.33 ave 7208 max 7168 min
Histogram: 1 0 2 1 0 0 1 0 0 1
Neighs:    239544 ave 243256 max 236236 min
Histogram: 1 1 0 0 2 0 0 1 0 1

Total # of neighbors = 1437261
Ave neighs/atom = 73.1356
Neighbor list builds = 66172
Dangerous builds not checked
Setting up Verlet run ...
  Unit style    : metal
  Current step  : 3040015
  Time step     : 0.001
Per MPI rank memory allocation (min/avg/max) = 5.57 | 5.859 | 6.004 Mbytes
Step Temp Press TotEng PotEng Enthalpy 
 3040015    200.08445    186.02622   -64187.432   -64695.665   -64147.494 
 3040510    175.57775   -126.02208   -64316.198   -64762.182   -64343.229 
Loop time of 39.8687 on 6 procs for 495 steps with 19652 atoms

Performance: 1.073 ns/day, 22.373 hours/ns, 12.416 timesteps/s
75.9% CPU use with 6 MPI tasks x no OpenMP threads

MPI task timing breakdown:
Section |  min time  |  avg time  |  max time  |%varavg| %total
---------------------------------------------------------------
Pair    | 18.908     | 19.103     | 19.279     |   2.5 | 47.92
Neigh   | 7.6157     | 7.7688     | 7.9814     |   5.2 | 19.49
Comm    | 8.3658     | 8.6015     | 8.6905     |   3.9 | 21.57
Output  | 0.047952   | 0.051482   | 0.055044   |   1.5 |  0.13
Modify  | 4.1319     | 4.2629     | 4.4591     |   5.6 | 10.69
Other   |            | 0.08078    |            |       |  0.20

Nlocal:    3275.33 ave 3290 max 3256 min
Histogram: 1 0 0 0 1 2 0 1 0 1
Nghost:    7179.17 ave 7228 max 7151 min
Histogram: 1 0 2 2 0 0 0 0 0 1
Neighs:    239801 ave 244219 max 236282 min
Histogram: 2 0 1 0 1 0 0 0 1 1

Total # of neighbors = 1438808
Ave neighs/atom = 73.2143
Neighbor list builds = 495
Dangerous builds not checked
Setting up Verlet run ...
  Unit style    : metal
  Current step  : 3040510
  Time step     : 0.001
Per MPI rank memory allocation (min/avg/max) = 5.57 | 5.859 | 6.004 Mbytes
Step Temp Press TotEng PotEng Enthalpy 
 3040510    175.57775   -126.02208   -64316.198   -64762.182   -64343.229 
 3066682    150.46661   -516.66734   -64446.978   -64829.177   -64557.704 
 3106682    151.63829    181.29906   -64448.657   -64833.832   -64409.842 
Loop time of 3795.95 on 6 procs for 66172 steps with 19652 atoms

Performance: 1.506 ns/day, 15.935 hours/ns, 17.432 timesteps/s
85.1% CPU use with 6 MPI tasks x no OpenMP threads

MPI task timing breakdown:
Section |  min time  |  avg time  |  max time  |%varavg| %total
---------------------------------------------------------------
Pair    | 1953.6     | 1974.3     | 1991       |  33.6 | 52.01
Neigh   | 931.02     | 943.69     | 955.62     |  27.1 | 24.86
Comm    | 609.53     | 628.16     | 649.62     |  51.9 | 16.55
Output  | 0.019576   | 0.019613   | 0.01976    |   0.0 |  0.00
Modify  | 238.14     | 241.92     | 245.76     |  17.8 |  6.37
Other   |            | 7.843      |            |       |  0.21

Nlocal:    3275.33 ave 3288 max 3264 min
Histogram: 1 1 0 0 1 1 0 1 0 1
Nghost:    7197.67 ave 7218 max 7179 min
Histogram: 1 0 2 0 0 0 1 1 0 1
Neighs:    240206 ave 244183 max 236446 min
Histogram: 2 0 0 1 1 0 0 0 0 2

Total # of neighbors = 1441238
Ave neighs/atom = 73.338
Neighbor list builds = 66172
Dangerous builds not checked
Setting up Verlet run ...
  Unit style    : metal
  Current step  : 3106682
  Time step     : 0.001
Per MPI rank memory allocation (min/avg/max) = 5.57 | 5.859 | 6.004 Mbytes
Step Temp Press TotEng PotEng Enthalpy 
 3106682    151.63829    181.29906   -64448.657   -64833.832   -64409.842 
 3107177    127.29609   -287.40218   -64570.903   -64894.247   -64632.391 
Loop time of 23.1199 on 6 procs for 495 steps with 19652 atoms

Performance: 1.850 ns/day, 12.974 hours/ns, 21.410 timesteps/s
92.4% CPU use with 6 MPI tasks x no OpenMP threads

MPI task timing breakdown:
Section |  min time  |  avg time  |  max time  |%varavg| %total
---------------------------------------------------------------
Pair    | 12.61      | 12.795     | 12.905     |   3.0 | 55.34
Neigh   | 6.1501     | 6.6243     | 6.9931     |  10.4 | 28.65
Comm    | 2.5992     | 2.853      | 3.4822     |  17.3 | 12.34
Output  | 0.00010896 | 0.00012529 | 0.00019097 |   0.0 |  0.00
Modify  | 0.71142    | 0.78734    | 0.82009    |   4.1 |  3.41
Other   |            | 0.06042    |            |       |  0.26

Nlocal:    3275.33 ave 3284 max 3265 min
Histogram: 1 0 0 1 1 1 0 0 1 1
Nghost:    7200.83 ave 7242 max 7174 min
Histogram: 1 0 1 2 1 0 0 0 0 1
Neighs:    240368 ave 244447 max 237035 min
Histogram: 2 0 1 0 1 0 0 0 0 2

Total # of neighbors = 1442206
Ave neighs/atom = 73.3872
Neighbor list builds = 495
Dangerous builds not checked
Setting up Verlet run ...
  Unit style    : metal
  Current step  : 3107177
  Time step     : 0.001
Per MPI rank memory allocation (min/avg/max) = 5.57 | 5.859 | 6.004 Mbytes
Step Temp Press TotEng PotEng Enthalpy 
 3107177    127.29609   -287.40218   -64570.903   -64894.247   -64632.391 
 3133349    99.688413   -61.266197   -64714.442    -64967.66   -64727.529 
 3173349    99.864662    294.62216   -64710.819   -64964.484   -64647.925 
Loop time of 2553.13 on 6 procs for 66172 steps with 19652 atoms

Performance: 2.239 ns/day, 10.718 hours/ns, 25.918 timesteps/s
98.2% CPU use with 6 MPI tasks x no OpenMP threads

MPI task timing breakdown:
Section |  min time  |  avg time  |  max time  |%varavg| %total
---------------------------------------------------------------
Pair    | 1382.5     | 1406       | 1428.7     |  44.0 | 55.07
Neigh   | 884.54     | 903.59     | 919.76     |  34.2 | 35.39
Comm    | 168.45     | 194.24     | 217.31     | 142.2 |  7.61
Output  | 0.020969   | 0.021011   | 0.021185   |   0.1 |  0.00
Modify  | 39.898     | 40.246     | 40.446     |   2.8 |  1.58
Other   |            | 8.997      |            |       |  0.35

Nlocal:    3275.33 ave 3283 max 3271 min
Histogram: 3 1 0 0 0 0 0 0 0 2
Nghost:    7197.5 ave 7237 max 7174 min
Histogram: 1 2 0 0 1 1 0 0 0 1
Neighs:    240906 ave 244968 max 237174 min
Histogram: 1 1 0 1 1 0 0 0 1 1

Total # of neighbors = 1445439
Ave neighs/atom = 73.5518
Neighbor list builds = 66172
Dangerous builds not checked
Total wall time: 42:17:38
