LAMMPS (12 Dec 2018)
Lattice spacing in x,y,z = 4 4 4
Created orthogonal box = (0 0 0) to (68 68 68)
  1 by 1 by 2 MPI processor grid
Created 19652 atoms
  Time spent = 0.00752616 secs
Setting atom values ...
  19652 settings made for type/fraction
Neighbor list info ...
  update every 1 steps, delay 0 steps, check no
  max neighbors/atom: 2000, page size: 100000
  master list distance cutoff = 8.5
  ghost atom cutoff = 8.5
  binsize = 4.25, bins = 16 16 16
  1 neighbor lists, perpetual/occasional/extra = 1 0 0
  (1) pair eam/alloy, perpetual
      attributes: half, newton on
      pair build: half/bin/atomonly/newton
      stencil: half/bin/3d/newton
      bin: standard
Setting up Verlet run ...
  Unit style    : metal
  Current step  : 0
  Time step     : 0.001
Per MPI rank memory allocation (min/avg/max) = 11.15 | 11.15 | 11.15 Mbytes
Step Temp Press TotEng PotEng Enthalpy 
       0          300    646743.88   -38638.853    -39400.88    88286.597 
    1000    914.41613    639237.61   -38639.067   -40961.767    86813.254 
Loop time of 137.182 on 2 procs for 1000 steps with 19652 atoms

Performance: 0.630 ns/day, 38.106 hours/ns, 7.290 timesteps/s
82.1% CPU use with 2 MPI tasks x no OpenMP threads

MPI task timing breakdown:
Section |  min time  |  avg time  |  max time  |%varavg| %total
---------------------------------------------------------------
Pair    | 78.622     | 78.894     | 79.166     |   3.1 | 57.51
Neigh   | 48.087     | 48.49      | 48.893     |   5.8 | 35.35
Comm    | 8.9988     | 9.1531     | 9.3075     |   5.1 |  6.67
Output  | 0.00010204 | 0.00012803 | 0.00015402 |   0.0 |  0.00
Modify  | 0.31439    | 0.32263    | 0.33087    |   1.5 |  0.24
Other   |            | 0.3221     |            |       |  0.23

Nlocal:    9826 ave 9832 max 9820 min
Histogram: 1 0 0 0 0 0 0 0 0 1
Nghost:    13279.5 ave 13295 max 13264 min
Histogram: 1 0 0 0 0 0 0 0 0 1
Neighs:    791508 ave 792195 max 790821 min
Histogram: 1 0 0 0 0 0 0 0 0 1

Total # of neighbors = 1583016
Ave neighs/atom = 80.5524
Neighbor list builds = 1000
Dangerous builds not checked
Setting up Verlet run ...
  Unit style    : metal
  Current step  : 1000
  Time step     : 0.001
Per MPI rank memory allocation (min/avg/max) = 11.15 | 11.15 | 11.15 Mbytes
Step Temp Press TotEng PotEng Enthalpy 
    1000    914.41613    639237.61   -38639.067   -40961.767    86813.254 
    2000    353.03132   -126.64913   -81660.695   -82557.426   -81712.166 
Loop time of 90.1435 on 2 procs for 1000 steps with 19652 atoms

Performance: 0.958 ns/day, 25.040 hours/ns, 11.093 timesteps/s
86.7% CPU use with 2 MPI tasks x no OpenMP threads

MPI task timing breakdown:
Section |  min time  |  avg time  |  max time  |%varavg| %total
---------------------------------------------------------------
Pair    | 47.997     | 48.437     | 48.876     |   6.3 | 53.73
Neigh   | 34.305     | 34.421     | 34.538     |   2.0 | 38.18
Comm    | 5.1623     | 5.7522     | 6.3422     |  24.6 |  6.38
Output  | 9.203e-05  | 0.00013399 | 0.00017595 |   0.0 |  0.00
Modify  | 1.2301     | 1.2378     | 1.2455     |   0.7 |  1.37
Other   |            | 0.2956     |            |       |  0.33

Nlocal:    9826 ave 9833 max 9819 min
Histogram: 1 0 0 0 0 0 0 0 0 1
Nghost:    9802 ave 9805 max 9799 min
Histogram: 1 0 0 0 0 0 0 0 0 1
Neighs:    359782 ave 360527 max 359038 min
Histogram: 1 0 0 0 0 0 0 0 0 1

Total # of neighbors = 719565
Ave neighs/atom = 36.6154
Neighbor list builds = 1000
Dangerous builds not checked
Setting up Verlet run ...
  Unit style    : metal
  Current step  : 2000
  Time step     : 0.001
Per MPI rank memory allocation (min/avg/max) = 11.16 | 11.16 | 11.16 Mbytes
Step Temp Press TotEng PotEng Enthalpy 
    2000    353.03132   -126.64913   -81660.695   -82557.426   -81712.166 
   10000    2442.5109   -323.47445    -69547.62    -75751.82   -69690.287 
Loop time of 649.897 on 2 procs for 8000 steps with 19652 atoms

Performance: 1.064 ns/day, 22.566 hours/ns, 12.310 timesteps/s
79.4% CPU use with 2 MPI tasks x no OpenMP threads

MPI task timing breakdown:
Section |  min time  |  avg time  |  max time  |%varavg| %total
---------------------------------------------------------------
Pair    | 336.15     | 336.76     | 337.37     |   3.3 | 51.82
Neigh   | 248.36     | 249.71     | 251.05     |   8.5 | 38.42
Comm    | 47.679     | 49.728     | 51.777     |  29.1 |  7.65
Output  | 0.048482   | 0.048488   | 0.048494   |   0.0 |  0.01
Modify  | 11.198     | 11.293     | 11.388     |   2.8 |  1.74
Other   |            | 2.36       |            |       |  0.36

Nlocal:    9826 ave 9835 max 9817 min
Histogram: 1 0 0 0 0 0 0 0 0 1
Nghost:    9411.5 ave 9421 max 9402 min
Histogram: 1 0 0 0 0 0 0 0 0 1
Neighs:    341454 ave 342332 max 340577 min
Histogram: 1 0 0 0 0 0 0 0 0 1

Total # of neighbors = 682909
Ave neighs/atom = 34.7501
Neighbor list builds = 8000
Dangerous builds not checked
Setting up Verlet run ...
  Unit style    : metal
  Current step  : 10000
  Time step     : 0.001
Per MPI rank memory allocation (min/avg/max) = 11.18 | 11.18 | 11.18 Mbytes
Step Temp Press TotEng PotEng Enthalpy 
   10000    2442.5109   -323.47445    -69547.62    -75751.82   -69690.287 
   20000    2452.2482     194.7077   -69470.291   -75699.225   -69384.506 
   30000    2445.8474      739.144   -69488.517   -75701.192    -69163.54 
   40000    2430.7206    1033.4934    -69471.47   -75645.722    -69017.43 
Loop time of 1857.75 on 2 procs for 30000 steps with 19652 atoms

Performance: 1.395 ns/day, 17.201 hours/ns, 16.149 timesteps/s
98.7% CPU use with 2 MPI tasks x no OpenMP threads

MPI task timing breakdown:
Section |  min time  |  avg time  |  max time  |%varavg| %total
---------------------------------------------------------------
Pair    | 935.72     | 941.23     | 946.74     |  18.0 | 50.66
Neigh   | 806.86     | 812.6      | 818.34     |  20.1 | 43.74
Comm    | 64.278     | 64.572     | 64.867     |   3.7 |  3.48
Output  | 0.11405    | 0.11419    | 0.11433    |   0.0 |  0.01
Modify  | 31.044     | 31.079     | 31.115     |   0.6 |  1.67
Other   |            | 8.158      |            |       |  0.44

Nlocal:    9826 ave 9837 max 9815 min
Histogram: 1 0 0 0 0 0 0 0 0 1
Nghost:    9397 ave 9419 max 9375 min
Histogram: 1 0 0 0 0 0 0 0 0 1
Neighs:    343046 ave 343344 max 342748 min
Histogram: 1 0 0 0 0 0 0 0 0 1

Total # of neighbors = 686092
Ave neighs/atom = 34.9121
Neighbor list builds = 30000
Dangerous builds not checked
Setting up Verlet run ...
  Unit style    : metal
  Current step  : 40000
  Time step     : 0.001
Per MPI rank memory allocation (min/avg/max) = 11.22 | 11.22 | 11.22 Mbytes
Step Temp Press TotEng PotEng Enthalpy 
   40000    2430.7206    1033.4934    -69471.47   -75645.722    -69017.43 
   40495    2409.1216    330.04999   -69584.799   -75704.187   -69439.508 
Loop time of 28.7416 on 2 procs for 495 steps with 19652 atoms

Performance: 1.488 ns/day, 16.129 hours/ns, 17.222 timesteps/s
99.1% CPU use with 2 MPI tasks x no OpenMP threads

MPI task timing breakdown:
Section |  min time  |  avg time  |  max time  |%varavg| %total
---------------------------------------------------------------
Pair    | 14.235     | 14.331     | 14.428     |   2.5 | 49.86
Neigh   | 12.77      | 12.925     | 13.079     |   4.3 | 44.97
Comm    | 0.80589    | 0.86825    | 0.93062    |   6.7 |  3.02
Output  | 9.0837e-05 | 0.00024641 | 0.00040197 |   0.0 |  0.00
Modify  | 0.48027    | 0.48486    | 0.48945    |   0.7 |  1.69
Other   |            | 0.1322     |            |       |  0.46

Nlocal:    9826 ave 9853 max 9799 min
Histogram: 1 0 0 0 0 0 0 0 0 1
Nghost:    9419 ave 9428 max 9410 min
Histogram: 1 0 0 0 0 0 0 0 0 1
Neighs:    342224 ave 343428 max 341020 min
Histogram: 1 0 0 0 0 0 0 0 0 1

Total # of neighbors = 684448
Ave neighs/atom = 34.8284
Neighbor list builds = 495
Dangerous builds not checked
Setting up Verlet run ...
  Unit style    : metal
  Current step  : 40495
  Time step     : 0.001
Per MPI rank memory allocation (min/avg/max) = 11.22 | 11.22 | 11.22 Mbytes
Step Temp Press TotEng PotEng Enthalpy 
   40495    2409.1216    330.04999   -69584.799   -75704.187   -69439.508 
   50000    2410.7313   -165.63004   -69611.023     -75734.5   -69684.056 
Loop time of 569.4 on 2 procs for 9505 steps with 19652 atoms

Performance: 1.442 ns/day, 16.640 hours/ns, 16.693 timesteps/s
99.5% CPU use with 2 MPI tasks x no OpenMP threads

MPI task timing breakdown:
Section |  min time  |  avg time  |  max time  |%varavg| %total
---------------------------------------------------------------
Pair    | 282.87     | 285.25     | 287.62     |  14.1 | 50.10
Neigh   | 255.6      | 255.64     | 255.68     |   0.2 | 44.90
Comm    | 14.313     | 16.764     | 19.214     |  59.9 |  2.94
Output  | 0.039538   | 0.039612   | 0.039685   |   0.0 |  0.01
Modify  | 9.1675     | 9.193      | 9.2184     |   0.8 |  1.61
Other   |            | 2.515      |            |       |  0.44

Nlocal:    9826 ave 9847 max 9805 min
Histogram: 1 0 0 0 0 0 0 0 0 1
Nghost:    9397.5 ave 9409 max 9386 min
Histogram: 1 0 0 0 0 0 0 0 0 1
Neighs:    341894 ave 343125 max 340663 min
Histogram: 1 0 0 0 0 0 0 0 0 1

Total # of neighbors = 683788
Ave neighs/atom = 34.7948
Neighbor list builds = 9505
Dangerous builds not checked
Setting up Verlet run ...
  Unit style    : metal
  Current step  : 50000
  Time step     : 0.001
Per MPI rank memory allocation (min/avg/max) = 11.23 | 11.23 | 11.23 Mbytes
Step Temp Press TotEng PotEng Enthalpy 
   50000    2410.7313   -165.63004   -69611.023     -75734.5   -69684.056 
   50495    2367.4095    193.83036   -69889.488   -75902.924    -69804.29 
Loop time of 28.8613 on 2 procs for 495 steps with 19652 atoms

Performance: 1.482 ns/day, 16.196 hours/ns, 17.151 timesteps/s
99.5% CPU use with 2 MPI tasks x no OpenMP threads

MPI task timing breakdown:
Section |  min time  |  avg time  |  max time  |%varavg| %total
---------------------------------------------------------------
Pair    | 14.283     | 14.311     | 14.34      |   0.8 | 49.59
Neigh   | 13.225     | 13.267     | 13.308     |   1.1 | 45.97
Comm    | 0.58305    | 0.65427    | 0.72549    |   8.8 |  2.27
Output  | 8.7976e-05 | 0.00021851 | 0.00034904 |   0.0 |  0.00
Modify  | 0.49055    | 0.49227    | 0.49399    |   0.2 |  1.71
Other   |            | 0.1368     |            |       |  0.47

Nlocal:    9826 ave 9839 max 9813 min
Histogram: 1 0 0 0 0 0 0 0 0 1
Nghost:    9438.5 ave 9444 max 9433 min
Histogram: 1 0 0 0 0 0 0 0 0 1
Neighs:    342502 ave 343318 max 341686 min
Histogram: 1 0 0 0 0 0 0 0 0 1

Total # of neighbors = 685004
Ave neighs/atom = 34.8567
Neighbor list builds = 495
Dangerous builds not checked
Setting up Verlet run ...
  Unit style    : metal
  Current step  : 50495
  Time step     : 0.001
Per MPI rank memory allocation (min/avg/max) = 11.23 | 11.23 | 11.23 Mbytes
Step Temp Press TotEng PotEng Enthalpy 
   50495    2367.4095    193.83036   -69889.488   -75902.924    -69804.29 
   60000    2340.9576    119.07771   -70061.653   -76007.898   -70009.414 
Loop time of 558.54 on 2 procs for 9505 steps with 19652 atoms

Performance: 1.470 ns/day, 16.323 hours/ns, 17.018 timesteps/s
99.6% CPU use with 2 MPI tasks x no OpenMP threads

MPI task timing breakdown:
Section |  min time  |  avg time  |  max time  |%varavg| %total
---------------------------------------------------------------
Pair    | 277.12     | 279.05     | 280.98     |  11.5 | 49.96
Neigh   | 250.03     | 252.4      | 254.77     |  14.9 | 45.19
Comm    | 14.909     | 15.413     | 15.918     |  12.8 |  2.76
Output  | 0.037096   | 0.037138   | 0.037181   |   0.0 |  0.01
Modify  | 9.101      | 9.1542     | 9.2073     |   1.8 |  1.64
Other   |            | 2.485      |            |       |  0.44

Nlocal:    9826 ave 9834 max 9818 min
Histogram: 1 0 0 0 0 0 0 0 0 1
Nghost:    9453.5 ave 9463 max 9444 min
Histogram: 1 0 0 0 0 0 0 0 0 1
Neighs:    343208 ave 343901 max 342515 min
Histogram: 1 0 0 0 0 0 0 0 0 1

Total # of neighbors = 686416
Ave neighs/atom = 34.9286
Neighbor list builds = 9505
Dangerous builds not checked
Setting up Verlet run ...
  Unit style    : metal
  Current step  : 60000
  Time step     : 0.001
Per MPI rank memory allocation (min/avg/max) = 11.24 | 11.24 | 11.24 Mbytes
Step Temp Press TotEng PotEng Enthalpy 
   60000    2340.9576    119.07771   -70061.653   -76007.898   -70009.414 
   60495    2327.4885   -403.35915   -70170.248   -76082.281   -70347.457 
Loop time of 28.0903 on 2 procs for 495 steps with 19652 atoms

Performance: 1.523 ns/day, 15.763 hours/ns, 17.622 timesteps/s
98.9% CPU use with 2 MPI tasks x no OpenMP threads

MPI task timing breakdown:
Section |  min time  |  avg time  |  max time  |%varavg| %total
---------------------------------------------------------------
Pair    | 13.826     | 14.004     | 14.182     |   4.8 | 49.86
Neigh   | 12.46      | 12.545     | 12.63      |   2.4 | 44.66
Comm    | 0.66955    | 0.93838    | 1.2072     |  27.8 |  3.34
Output  | 9.5129e-05 | 0.00021255 | 0.00032997 |   0.0 |  0.00
Modify  | 0.46407    | 0.4716     | 0.47913    |   1.1 |  1.68
Other   |            | 0.1309     |            |       |  0.47

Nlocal:    9826 ave 9836 max 9816 min
Histogram: 1 0 0 0 0 0 0 0 0 1
Nghost:    9471.5 ave 9472 max 9471 min
Histogram: 1 0 0 0 0 0 0 0 0 1
Neighs:    342711 ave 343071 max 342351 min
Histogram: 1 0 0 0 0 0 0 0 0 1

Total # of neighbors = 685422
Ave neighs/atom = 34.878
Neighbor list builds = 495
Dangerous builds not checked
Setting up Verlet run ...
  Unit style    : metal
  Current step  : 60495
  Time step     : 0.001
Per MPI rank memory allocation (min/avg/max) = 11.24 | 11.24 | 11.24 Mbytes
Step Temp Press TotEng PotEng Enthalpy 
   60495    2327.4885   -403.35915   -70170.248   -76082.281   -70347.457 
   70000    2328.7261    339.99683   -70181.229   -76096.405   -70032.228 
Loop time of 573.036 on 2 procs for 9505 steps with 19652 atoms

Performance: 1.433 ns/day, 16.747 hours/ns, 16.587 timesteps/s
99.2% CPU use with 2 MPI tasks x no OpenMP threads

MPI task timing breakdown:
Section |  min time  |  avg time  |  max time  |%varavg| %total
---------------------------------------------------------------
Pair    | 287.13     | 289.28     | 291.44     |  12.7 | 50.48
Neigh   | 255.48     | 256.6      | 257.72     |   7.0 | 44.78
Comm    | 14.487     | 15.513     | 16.539     |  26.1 |  2.71
Output  | 0.038538   | 0.03863    | 0.038722   |   0.0 |  0.01
Modify  | 9.0653     | 9.0761     | 9.0868     |   0.4 |  1.58
Other   |            | 2.524      |            |       |  0.44

Nlocal:    9826 ave 9834 max 9818 min
Histogram: 1 0 0 0 0 0 0 0 0 1
Nghost:    9454 ave 9472 max 9436 min
Histogram: 1 0 0 0 0 0 0 0 0 1
Neighs:    343152 ave 343742 max 342562 min
Histogram: 1 0 0 0 0 0 0 0 0 1

Total # of neighbors = 686304
Ave neighs/atom = 34.9229
Neighbor list builds = 9505
Dangerous builds not checked
Setting up Verlet run ...
  Unit style    : metal
  Current step  : 70000
  Time step     : 0.001
Per MPI rank memory allocation (min/avg/max) = 11.24 | 11.24 | 11.24 Mbytes
Step Temp Press TotEng PotEng Enthalpy 
   70000    2328.7261    339.99683   -70181.229   -76096.405   -70032.228 
   70495    2245.9554    514.86758   -70528.773   -76233.704   -70303.806 
Loop time of 27.6826 on 2 procs for 495 steps with 19652 atoms

Performance: 1.545 ns/day, 15.535 hours/ns, 17.881 timesteps/s
99.9% CPU use with 2 MPI tasks x no OpenMP threads

MPI task timing breakdown:
Section |  min time  |  avg time  |  max time  |%varavg| %total
---------------------------------------------------------------
Pair    | 13.569     | 13.634     | 13.7       |   1.8 | 49.25
Neigh   | 12.334     | 12.659     | 12.985     |   9.1 | 45.73
Comm    | 0.53667    | 0.80723    | 1.0778     |  30.1 |  2.92
Output  | 0.00011396 | 0.00027204 | 0.00043011 |   0.0 |  0.00
Modify  | 0.44337    | 0.45524    | 0.46711    |   1.8 |  1.64
Other   |            | 0.126      |            |       |  0.46

Nlocal:    9826 ave 9852 max 9800 min
Histogram: 1 0 0 0 0 0 0 0 0 1
Nghost:    9463 ave 9469 max 9457 min
Histogram: 1 0 0 0 0 0 0 0 0 1
Neighs:    344229 ave 346134 max 342324 min
Histogram: 1 0 0 0 0 0 0 0 0 1

Total # of neighbors = 688458
Ave neighs/atom = 35.0325
Neighbor list builds = 495
Dangerous builds not checked
Setting up Verlet run ...
  Unit style    : metal
  Current step  : 70495
  Time step     : 0.001
Per MPI rank memory allocation (min/avg/max) = 11.24 | 11.24 | 11.24 Mbytes
Step Temp Press TotEng PotEng Enthalpy 
   70495    2245.9554    514.86758   -70528.773   -76233.704   -70303.806 
   80000    2265.0387    273.98662   -70474.749   -76228.154   -70354.868 
Loop time of 572.619 on 2 procs for 9505 steps with 19652 atoms

Performance: 1.434 ns/day, 16.734 hours/ns, 16.599 timesteps/s
99.4% CPU use with 2 MPI tasks x no OpenMP threads

MPI task timing breakdown:
Section |  min time  |  avg time  |  max time  |%varavg| %total
---------------------------------------------------------------
Pair    | 286.34     | 287.86     | 289.39     |   9.0 | 50.27
Neigh   | 255.94     | 256.09     | 256.25     |   1.0 | 44.72
Comm    | 15.311     | 16.724     | 18.137     |  34.6 |  2.92
Output  | 0.038945   | 0.038999   | 0.039054   |   0.0 |  0.01
Modify  | 9.3204     | 9.3543     | 9.3881     |   1.1 |  1.63
Other   |            | 2.547      |            |       |  0.44

Nlocal:    9826 ave 9855 max 9797 min
Histogram: 1 0 0 0 0 0 0 0 0 1
Nghost:    9439.5 ave 9461 max 9418 min
Histogram: 1 0 0 0 0 0 0 0 0 1
Neighs:    343787 ave 345250 max 342324 min
Histogram: 1 0 0 0 0 0 0 0 0 1

Total # of neighbors = 687574
Ave neighs/atom = 34.9875
Neighbor list builds = 9505
Dangerous builds not checked
Setting up Verlet run ...
  Unit style    : metal
  Current step  : 80000
  Time step     : 0.001
Per MPI rank memory allocation (min/avg/max) = 11.25 | 11.25 | 11.25 Mbytes
Step Temp Press TotEng PotEng Enthalpy 
   80000    2265.0387    273.98662   -70474.749   -76228.154   -70354.868 
   80495     2208.173     578.4213   -70815.106   -76424.066   -70562.812 
Loop time of 28.5699 on 2 procs for 495 steps with 19652 atoms

Performance: 1.497 ns/day, 16.032 hours/ns, 17.326 timesteps/s
99.9% CPU use with 2 MPI tasks x no OpenMP threads

MPI task timing breakdown:
Section |  min time  |  avg time  |  max time  |%varavg| %total
---------------------------------------------------------------
Pair    | 13.975     | 14.087     | 14.2       |   3.0 | 49.31
Neigh   | 13.098     | 13.104     | 13.109     |   0.1 | 45.86
Comm    | 0.65464    | 0.76821    | 0.88179    |  13.0 |  2.69
Output  | 0.00020409 | 0.00038004 | 0.00055599 |   0.0 |  0.00
Modify  | 0.4774     | 0.48121    | 0.48502    |   0.5 |  1.68
Other   |            | 0.1292     |            |       |  0.45

Nlocal:    9826 ave 9846 max 9806 min
Histogram: 1 0 0 0 0 0 0 0 0 1
Nghost:    9462.5 ave 9467 max 9458 min
Histogram: 1 0 0 0 0 0 0 0 0 1
Neighs:    344649 ave 345723 max 343575 min
Histogram: 1 0 0 0 0 0 0 0 0 1

Total # of neighbors = 689298
Ave neighs/atom = 35.0752
Neighbor list builds = 495
Dangerous builds not checked
Setting up Verlet run ...
  Unit style    : metal
  Current step  : 80495
  Time step     : 0.001
Per MPI rank memory allocation (min/avg/max) = 11.25 | 11.25 | 11.25 Mbytes
Step Temp Press TotEng PotEng Enthalpy 
   80495     2208.173     578.4213   -70815.106   -76424.066   -70562.812 
   90000    2196.5166   -690.19734   -70926.469   -76505.821   -71228.361 
Loop time of 573.351 on 2 procs for 9505 steps with 19652 atoms

Performance: 1.432 ns/day, 16.756 hours/ns, 16.578 timesteps/s
98.7% CPU use with 2 MPI tasks x no OpenMP threads

MPI task timing breakdown:
Section |  min time  |  avg time  |  max time  |%varavg| %total
---------------------------------------------------------------
Pair    | 283.15     | 284.14     | 285.14     |   5.9 | 49.56
Neigh   | 253.14     | 254.25     | 255.36     |   7.0 | 44.34
Comm    | 21.055     | 23.309     | 25.563     |  46.7 |  4.07
Output  | 0.038411   | 0.038532   | 0.038652   |   0.1 |  0.01
Modify  | 9.0253     | 9.1419     | 9.2584     |   3.9 |  1.59
Other   |            | 2.47       |            |       |  0.43

Nlocal:    9826 ave 9833 max 9819 min
Histogram: 1 0 0 0 0 0 0 0 0 1
Nghost:    9440.5 ave 9451 max 9430 min
Histogram: 1 0 0 0 0 0 0 0 0 1
Neighs:    343596 ave 344055 max 343136 min
Histogram: 1 0 0 0 0 0 0 0 0 1

Total # of neighbors = 687191
Ave neighs/atom = 34.968
Neighbor list builds = 9505
Dangerous builds not checked
Setting up Verlet run ...
  Unit style    : metal
  Current step  : 90000
  Time step     : 0.001
Per MPI rank memory allocation (min/avg/max) = 11.25 | 11.25 | 11.25 Mbytes
Step Temp Press TotEng PotEng Enthalpy 
   90000    2196.5166   -690.19734   -70926.469   -76505.821   -71228.361 
   90495    2135.2651   -509.52973   -71142.517   -76566.285   -71364.801 
Loop time of 29.101 on 2 procs for 495 steps with 19652 atoms

Performance: 1.470 ns/day, 16.331 hours/ns, 17.010 timesteps/s
98.5% CPU use with 2 MPI tasks x no OpenMP threads

MPI task timing breakdown:
Section |  min time  |  avg time  |  max time  |%varavg| %total
---------------------------------------------------------------
Pair    | 14.516     | 14.6       | 14.684     |   2.2 | 50.17
Neigh   | 13.03      | 13.051     | 13.071     |   0.6 | 44.85
Comm    | 0.71957    | 0.82982    | 0.94007    |  12.1 |  2.85
Output  | 0.00010014 | 0.00022304 | 0.00034595 |   0.0 |  0.00
Modify  | 0.4829     | 0.48797    | 0.49304    |   0.7 |  1.68
Other   |            | 0.132      |            |       |  0.45

Nlocal:    9826 ave 9841 max 9811 min
Histogram: 1 0 0 0 0 0 0 0 0 1
Nghost:    9441 ave 9447 max 9435 min
Histogram: 1 0 0 0 0 0 0 0 0 1
Neighs:    344347 ave 344861 max 343833 min
Histogram: 1 0 0 0 0 0 0 0 0 1

Total # of neighbors = 688694
Ave neighs/atom = 35.0445
Neighbor list builds = 495
Dangerous builds not checked
Setting up Verlet run ...
  Unit style    : metal
  Current step  : 90495
  Time step     : 0.001
Per MPI rank memory allocation (min/avg/max) = 11.25 | 11.25 | 11.25 Mbytes
Step Temp Press TotEng PotEng Enthalpy 
   90495    2135.2651   -509.52973   -71142.517   -76566.285   -71364.801 
  100000    2160.3753   -320.59911   -71184.857   -76672.407   -71324.568 
Loop time of 569.024 on 2 procs for 9505 steps with 19652 atoms

Performance: 1.443 ns/day, 16.629 hours/ns, 16.704 timesteps/s
99.6% CPU use with 2 MPI tasks x no OpenMP threads

MPI task timing breakdown:
Section |  min time  |  avg time  |  max time  |%varavg| %total
---------------------------------------------------------------
Pair    | 280.86     | 287.07     | 293.29     |  36.7 | 50.45
Neigh   | 247.79     | 249.54     | 251.3      |  11.1 | 43.85
Comm    | 16.157     | 20.761     | 25.364     | 101.0 |  3.65
Output  | 0.039597   | 0.039702   | 0.039807   |   0.1 |  0.01
Modify  | 9.0353     | 9.1604     | 9.2855     |   4.1 |  1.61
Other   |            | 2.446      |            |       |  0.43

Nlocal:    9826 ave 9830 max 9822 min
Histogram: 1 0 0 0 0 0 0 0 0 1
Nghost:    9489.5 ave 9493 max 9486 min
Histogram: 1 0 0 0 0 0 0 0 0 1
Neighs:    344530 ave 344621 max 344439 min
Histogram: 1 0 0 0 0 0 0 0 0 1

Total # of neighbors = 689060
Ave neighs/atom = 35.0631
Neighbor list builds = 9505
Dangerous builds not checked
Setting up Verlet run ...
  Unit style    : metal
  Current step  : 100000
  Time step     : 0.001
Per MPI rank memory allocation (min/avg/max) = 11.26 | 11.26 | 11.26 Mbytes
Step Temp Press TotEng PotEng Enthalpy 
  100000    2160.3753   -320.59911   -71184.857   -76672.407   -71324.568 
  100495     2111.297   -206.79533   -71447.972   -76810.858    -71537.96 
Loop time of 28.4312 on 2 procs for 495 steps with 19652 atoms

Performance: 1.504 ns/day, 15.955 hours/ns, 17.410 timesteps/s
99.4% CPU use with 2 MPI tasks x no OpenMP threads

MPI task timing breakdown:
Section |  min time  |  avg time  |  max time  |%varavg| %total
---------------------------------------------------------------
Pair    | 14.298     | 14.423     | 14.547     |   3.3 | 50.73
Neigh   | 12.232     | 12.58      | 12.929     |   9.8 | 44.25
Comm    | 0.5903     | 0.83008    | 1.0699     |  26.3 |  2.92
Output  | 0.00011492 | 0.00027204 | 0.00042915 |   0.0 |  0.00
Modify  | 0.45452    | 0.46801    | 0.4815     |   2.0 |  1.65
Other   |            | 0.13       |            |       |  0.46

Nlocal:    9826 ave 9845 max 9807 min
Histogram: 1 0 0 0 0 0 0 0 0 1
Nghost:    9472.5 ave 9476 max 9469 min
Histogram: 1 0 0 0 0 0 0 0 0 1
Neighs:    345087 ave 346987 max 343187 min
Histogram: 1 0 0 0 0 0 0 0 0 1

Total # of neighbors = 690174
Ave neighs/atom = 35.1198
Neighbor list builds = 495
Dangerous builds not checked
Setting up Verlet run ...
  Unit style    : metal
  Current step  : 100495
  Time step     : 0.001
Per MPI rank memory allocation (min/avg/max) = 11.26 | 11.26 | 11.26 Mbytes
Step Temp Press TotEng PotEng Enthalpy 
  100495     2111.297   -206.79533   -71447.972   -76810.858    -71537.96 
  110000    2110.6931    649.09747   -71472.612   -76833.965   -71191.233 
Loop time of 556.599 on 2 procs for 9505 steps with 19652 atoms

Performance: 1.475 ns/day, 16.266 hours/ns, 17.077 timesteps/s
99.3% CPU use with 2 MPI tasks x no OpenMP threads

MPI task timing breakdown:
Section |  min time  |  avg time  |  max time  |%varavg| %total
---------------------------------------------------------------
Pair    | 278.58     | 280.19     | 281.8      |   9.6 | 50.34
Neigh   | 246.83     | 248.33     | 249.83     |   9.5 | 44.62
Comm    | 16.495     | 16.511     | 16.527     |   0.4 |  2.97
Output  | 0.037361   | 0.037631   | 0.0379     |   0.1 |  0.01
Modify  | 8.9423     | 9.0541     | 9.1658     |   3.7 |  1.63
Other   |            | 2.475      |            |       |  0.44

Nlocal:    9826 ave 9836 max 9816 min
Histogram: 1 0 0 0 0 0 0 0 0 1
Nghost:    9498.5 ave 9522 max 9475 min
Histogram: 1 0 0 0 0 0 0 0 0 1
Neighs:    346006 ave 346036 max 345976 min
Histogram: 1 0 0 0 0 0 0 0 0 1

Total # of neighbors = 692012
Ave neighs/atom = 35.2133
Neighbor list builds = 9505
Dangerous builds not checked
Setting up Verlet run ...
  Unit style    : metal
  Current step  : 110000
  Time step     : 0.001
Per MPI rank memory allocation (min/avg/max) = 11.26 | 11.26 | 11.26 Mbytes
Step Temp Press TotEng PotEng Enthalpy 
  110000    2110.6931    649.09747   -71472.612   -76833.965   -71191.233 
  110495    2063.8505    449.31182   -71712.781   -76955.149   -71518.013 
Loop time of 27.4422 on 2 procs for 495 steps with 19652 atoms

Performance: 1.558 ns/day, 15.400 hours/ns, 18.038 timesteps/s
99.9% CPU use with 2 MPI tasks x no OpenMP threads

MPI task timing breakdown:
Section |  min time  |  avg time  |  max time  |%varavg| %total
---------------------------------------------------------------
Pair    | 13.627     | 13.798     | 13.97      |   4.6 | 50.28
Neigh   | 11.731     | 12.226     | 12.721     |  14.2 | 44.55
Comm    | 0.50079    | 0.8541     | 1.2074     |  38.2 |  3.11
Output  | 7.8201e-05 | 0.00011706 | 0.00015593 |   0.0 |  0.00
Modify  | 0.41547    | 0.44246    | 0.46945    |   4.1 |  1.61
Other   |            | 0.1212     |            |       |  0.44

Nlocal:    9826 ave 9835 max 9817 min
Histogram: 1 0 0 0 0 0 0 0 0 1
Nghost:    9468.5 ave 9475 max 9462 min
Histogram: 1 0 0 0 0 0 0 0 0 1
Neighs:    346024 ave 346638 max 345410 min
Histogram: 1 0 0 0 0 0 0 0 0 1

Total # of neighbors = 692048
Ave neighs/atom = 35.2151
Neighbor list builds = 495
Dangerous builds not checked
Setting up Verlet run ...
  Unit style    : metal
  Current step  : 110495
  Time step     : 0.001
Per MPI rank memory allocation (min/avg/max) = 11.26 | 11.26 | 11.26 Mbytes
Step Temp Press TotEng PotEng Enthalpy 
  110495    2063.8505    449.31182   -71712.781   -76955.149   -71518.013 
  120000    2045.9861     227.1878   -71764.218   -76961.209   -71665.727 
Loop time of 564.363 on 2 procs for 9505 steps with 19652 atoms

Performance: 1.455 ns/day, 16.493 hours/ns, 16.842 timesteps/s
99.5% CPU use with 2 MPI tasks x no OpenMP threads

MPI task timing breakdown:
Section |  min time  |  avg time  |  max time  |%varavg| %total
---------------------------------------------------------------
Pair    | 279.9      | 284.13     | 288.37     |  25.1 | 50.35
Neigh   | 246.79     | 251.1      | 255.42     |  27.2 | 44.49
Comm    | 17.25      | 17.486     | 17.721     |   5.6 |  3.10
Output  | 0.037495   | 0.037518   | 0.037541   |   0.0 |  0.01
Modify  | 9.0124     | 9.1243     | 9.2362     |   3.7 |  1.62
Other   |            | 2.479      |            |       |  0.44

Nlocal:    9826 ave 9830 max 9822 min
Histogram: 1 0 0 0 0 0 0 0 0 1
Nghost:    9480.5 ave 9498 max 9463 min
Histogram: 1 0 0 0 0 0 0 0 0 1
Neighs:    345979 ave 346168 max 345790 min
Histogram: 1 0 0 0 0 0 0 0 0 1

Total # of neighbors = 691958
Ave neighs/atom = 35.2106
Neighbor list builds = 9505
Dangerous builds not checked
Setting up Verlet run ...
  Unit style    : metal
  Current step  : 120000
  Time step     : 0.001
Per MPI rank memory allocation (min/avg/max) = 11.26 | 11.26 | 11.26 Mbytes
Step Temp Press TotEng PotEng Enthalpy 
  120000    2045.9861     227.1878   -71764.218   -76961.209   -71665.727 
  120495    2034.5045    471.05348   -72062.352   -77230.178   -71858.724 
Loop time of 28.0836 on 2 procs for 495 steps with 19652 atoms

Performance: 1.523 ns/day, 15.760 hours/ns, 17.626 timesteps/s
99.9% CPU use with 2 MPI tasks x no OpenMP threads

MPI task timing breakdown:
Section |  min time  |  avg time  |  max time  |%varavg| %total
---------------------------------------------------------------
Pair    | 13.942     | 13.991     | 14.041     |   1.3 | 49.82
Neigh   | 12.295     | 12.645     | 12.995     |   9.8 | 45.03
Comm    | 0.53739    | 0.86853    | 1.1997     |  35.5 |  3.09
Output  | 8.893e-05  | 0.00022757 | 0.00036621 |   0.0 |  0.00
Modify  | 0.42802    | 0.4535     | 0.47898    |   3.8 |  1.61
Other   |            | 0.1254     |            |       |  0.45

Nlocal:    9826 ave 9833 max 9819 min
Histogram: 1 0 0 0 0 0 0 0 0 1
Nghost:    9514 ave 9540 max 9488 min
Histogram: 1 0 0 0 0 0 0 0 0 1
Neighs:    346521 ave 346608 max 346434 min
Histogram: 1 0 0 0 0 0 0 0 0 1

Total # of neighbors = 693042
Ave neighs/atom = 35.2657
Neighbor list builds = 495
Dangerous builds not checked
Setting up Verlet run ...
  Unit style    : metal
  Current step  : 120495
  Time step     : 0.001
Per MPI rank memory allocation (min/avg/max) = 11.26 | 11.26 | 11.26 Mbytes
Step Temp Press TotEng PotEng Enthalpy 
  120495    2034.5045    471.05348   -72062.352   -77230.178   -71858.724 
  130000     2018.745    496.04948   -72125.246   -77253.042   -71911.075 
Loop time of 547.488 on 2 procs for 9505 steps with 19652 atoms

Performance: 1.500 ns/day, 16.000 hours/ns, 17.361 timesteps/s
99.5% CPU use with 2 MPI tasks x no OpenMP threads

MPI task timing breakdown:
Section |  min time  |  avg time  |  max time  |%varavg| %total
---------------------------------------------------------------
Pair    | 272.69     | 274.47     | 276.25     |  10.7 | 50.13
Neigh   | 244.32     | 247.03     | 249.73     |  17.2 | 45.12
Comm    | 13.45      | 14.53      | 15.61      |  28.3 |  2.65
Output  | 0.037879   | 0.037994   | 0.038109   |   0.1 |  0.01
Modify  | 8.8718     | 8.9998     | 9.1279     |   4.3 |  1.64
Other   |            | 2.421      |            |       |  0.44

Nlocal:    9826 ave 9835 max 9817 min
Histogram: 1 0 0 0 0 0 0 0 0 1
Nghost:    9499 ave 9527 max 9471 min
Histogram: 1 0 0 0 0 0 0 0 0 1
Neighs:    346932 ave 347241 max 346624 min
Histogram: 1 0 0 0 0 0 0 0 0 1

Total # of neighbors = 693865
Ave neighs/atom = 35.3076
Neighbor list builds = 9505
Dangerous builds not checked
Setting up Verlet run ...
  Unit style    : metal
  Current step  : 130000
  Time step     : 0.001
Per MPI rank memory allocation (min/avg/max) = 11.27 | 11.27 | 11.27 Mbytes
Step Temp Press TotEng PotEng Enthalpy 
  130000     2018.745    496.04948   -72125.246   -77253.042   -71911.075 
  130495    1965.0666    424.15983   -72360.391   -77351.839   -72177.469 
Loop time of 27.8838 on 2 procs for 495 steps with 19652 atoms

Performance: 1.534 ns/day, 15.647 hours/ns, 17.752 timesteps/s
99.6% CPU use with 2 MPI tasks x no OpenMP threads

MPI task timing breakdown:
Section |  min time  |  avg time  |  max time  |%varavg| %total
---------------------------------------------------------------
Pair    | 13.803     | 13.861     | 13.918     |   1.6 | 49.71
Neigh   | 12.488     | 12.598     | 12.707     |   3.1 | 45.18
Comm    | 0.65507    | 0.8391     | 1.0231     |  20.1 |  3.01
Output  | 9.3937e-05 | 0.00021088 | 0.00032783 |   0.0 |  0.00
Modify  | 0.44611    | 0.45962    | 0.47313    |   2.0 |  1.65
Other   |            | 0.1266     |            |       |  0.45

Nlocal:    9826 ave 9835 max 9817 min
Histogram: 1 0 0 0 0 0 0 0 0 1
Nghost:    9513 ave 9514 max 9512 min
Histogram: 1 0 0 0 0 0 0 0 0 1
Neighs:    347442 ave 347863 max 347021 min
Histogram: 1 0 0 0 0 0 0 0 0 1

Total # of neighbors = 694884
Ave neighs/atom = 35.3595
Neighbor list builds = 495
Dangerous builds not checked
Setting up Verlet run ...
  Unit style    : metal
  Current step  : 130495
  Time step     : 0.001
Per MPI rank memory allocation (min/avg/max) = 11.27 | 11.27 | 11.27 Mbytes
Step Temp Press TotEng PotEng Enthalpy 
  130495    1965.0666    424.15983   -72360.391   -77351.839   -72177.469 
  140000    1935.9527     76.58529    -72511.03   -77428.526   -72477.996 
Loop time of 556.631 on 2 procs for 9505 steps with 19652 atoms

Performance: 1.475 ns/day, 16.267 hours/ns, 17.076 timesteps/s
99.4% CPU use with 2 MPI tasks x no OpenMP threads

MPI task timing breakdown:
Section |  min time  |  avg time  |  max time  |%varavg| %total
---------------------------------------------------------------
Pair    | 277.51     | 277.99     | 278.47     |   2.9 | 49.94
Neigh   | 250.37     | 250.64     | 250.91     |   1.7 | 45.03
Comm    | 15.764     | 16.433     | 17.101     |  16.5 |  2.95
Output  | 0.039918   | 0.039963   | 0.040007   |   0.0 |  0.01
Modify  | 9.0078     | 9.0767     | 9.1457     |   2.3 |  1.63
Other   |            | 2.452      |            |       |  0.44

Nlocal:    9826 ave 9827 max 9825 min
Histogram: 1 0 0 0 0 0 0 0 0 1
Nghost:    9532 ave 9546 max 9518 min
Histogram: 1 0 0 0 0 0 0 0 0 1
Neighs:    347122 ave 347331 max 346912 min
Histogram: 1 0 0 0 0 0 0 0 0 1

Total # of neighbors = 694243
Ave neighs/atom = 35.3268
Neighbor list builds = 9505
Dangerous builds not checked
Setting up Verlet run ...
  Unit style    : metal
  Current step  : 140000
  Time step     : 0.001
Per MPI rank memory allocation (min/avg/max) = 11.27 | 11.27 | 11.27 Mbytes
Step Temp Press TotEng PotEng Enthalpy 
  140000    1935.9527     76.58529    -72511.03   -77428.526   -72477.996 
  140495    1897.5642   -57.066369   -72698.425   -77518.411   -72723.021 
Loop time of 27.4937 on 2 procs for 495 steps with 19652 atoms

Performance: 1.556 ns/day, 15.429 hours/ns, 18.004 timesteps/s
100.0% CPU use with 2 MPI tasks x no OpenMP threads

MPI task timing breakdown:
Section |  min time  |  avg time  |  max time  |%varavg| %total
---------------------------------------------------------------
Pair    | 13.927     | 13.964     | 14         |   1.0 | 50.79
Neigh   | 12.293     | 12.357     | 12.421     |   1.8 | 44.94
Comm    | 0.53531    | 0.566      | 0.59668    |   4.1 |  2.06
Output  | 8.7023e-05 | 0.00021648 | 0.00034595 |   0.0 |  0.00
Modify  | 0.47631    | 0.47915    | 0.48198    |   0.4 |  1.74
Other   |            | 0.128      |            |       |  0.47

Nlocal:    9826 ave 9836 max 9816 min
Histogram: 1 0 0 0 0 0 0 0 0 1
Nghost:    9539 ave 9547 max 9531 min
Histogram: 1 0 0 0 0 0 0 0 0 1
Neighs:    347149 ave 347521 max 346777 min
Histogram: 1 0 0 0 0 0 0 0 0 1

Total # of neighbors = 694298
Ave neighs/atom = 35.3296
Neighbor list builds = 495
Dangerous builds not checked
Setting up Verlet run ...
  Unit style    : metal
  Current step  : 140495
  Time step     : 0.001
Per MPI rank memory allocation (min/avg/max) = 11.27 | 11.27 | 11.27 Mbytes
Step Temp Press TotEng PotEng Enthalpy 
  140495    1897.5642   -57.066369   -72698.425   -77518.411   -72723.021 
  150000    1910.3415    1060.9526   -72733.115   -77585.556    -72277.76 
Loop time of 536.903 on 2 procs for 9505 steps with 19652 atoms

Performance: 1.530 ns/day, 15.691 hours/ns, 17.703 timesteps/s
99.7% CPU use with 2 MPI tasks x no OpenMP threads

MPI task timing breakdown:
Section |  min time  |  avg time  |  max time  |%varavg| %total
---------------------------------------------------------------
Pair    | 265.83     | 267.66     | 269.5      |  11.2 | 49.85
Neigh   | 241.96     | 244.3      | 246.64     |  15.0 | 45.50
Comm    | 12.976     | 13.56      | 14.145     |  15.9 |  2.53
Output  | 0.036926   | 0.036952   | 0.036978   |   0.0 |  0.01
Modify  | 8.8636     | 8.9276     | 8.9916     |   2.1 |  1.66
Other   |            | 2.414      |            |       |  0.45

Nlocal:    9826 ave 9845 max 9807 min
Histogram: 1 0 0 0 0 0 0 0 0 1
Nghost:    9508 ave 9514 max 9502 min
Histogram: 1 0 0 0 0 0 0 0 0 1
Neighs:    348706 ave 349520 max 347891 min
Histogram: 1 0 0 0 0 0 0 0 0 1

Total # of neighbors = 697411
Ave neighs/atom = 35.488
Neighbor list builds = 9505
Dangerous builds not checked
Setting up Verlet run ...
  Unit style    : metal
  Current step  : 150000
  Time step     : 0.001
Per MPI rank memory allocation (min/avg/max) = 11.27 | 11.27 | 11.27 Mbytes
Step Temp Press TotEng PotEng Enthalpy 
  150000    1910.3415    1060.9526   -72733.115   -77585.556    -72277.76 
  150495    1875.0878    705.34682   -72990.404   -77753.298   -72687.862 
Loop time of 26.5037 on 2 procs for 495 steps with 19652 atoms

Performance: 1.614 ns/day, 14.873 hours/ns, 18.677 timesteps/s
100.0% CPU use with 2 MPI tasks x no OpenMP threads

MPI task timing breakdown:
Section |  min time  |  avg time  |  max time  |%varavg| %total
---------------------------------------------------------------
Pair    | 12.914     | 12.947     | 12.98      |   0.9 | 48.85
Neigh   | 12.113     | 12.258     | 12.403     |   4.1 | 46.25
Comm    | 0.61369    | 0.73012    | 0.84654    |  13.6 |  2.75
Output  | 9.5129e-05 | 0.00021315 | 0.00033116 |   0.0 |  0.00
Modify  | 0.44582    | 0.45129    | 0.45676    |   0.8 |  1.70
Other   |            | 0.1176     |            |       |  0.44

Nlocal:    9826 ave 9847 max 9805 min
Histogram: 1 0 0 0 0 0 0 0 0 1
Nghost:    9504 ave 9529 max 9479 min
Histogram: 1 0 0 0 0 0 0 0 0 1
Neighs:    348568 ave 349308 max 347829 min
Histogram: 1 0 0 0 0 0 0 0 0 1

Total # of neighbors = 697137
Ave neighs/atom = 35.4741
Neighbor list builds = 495
Dangerous builds not checked
Setting up Verlet run ...
  Unit style    : metal
  Current step  : 150495
  Time step     : 0.001
Per MPI rank memory allocation (min/avg/max) = 11.27 | 11.27 | 11.27 Mbytes
Step Temp Press TotEng PotEng Enthalpy 
  150495    1875.0878    705.34682   -72990.404   -77753.298   -72687.862 
  160000     1869.333   -250.74498   -73120.337   -77868.613   -73228.102 
Loop time of 524.727 on 2 procs for 9505 steps with 19652 atoms

Performance: 1.565 ns/day, 15.335 hours/ns, 18.114 timesteps/s
99.3% CPU use with 2 MPI tasks x no OpenMP threads

MPI task timing breakdown:
Section |  min time  |  avg time  |  max time  |%varavg| %total
---------------------------------------------------------------
Pair    | 258.06     | 259.52     | 260.97     |   9.0 | 49.46
Neigh   | 236.6      | 238.48     | 240.36     |  12.2 | 45.45
Comm    | 15.454     | 16.052     | 16.651     |  14.9 |  3.06
Output  | 0.036631   | 0.036661   | 0.036691   |   0.0 |  0.01
Modify  | 8.2402     | 8.3778     | 8.5153     |   4.8 |  1.60
Other   |            | 2.263      |            |       |  0.43

Nlocal:    9826 ave 9828 max 9824 min
Histogram: 1 0 0 0 0 0 0 0 0 1
Nghost:    9550.5 ave 9556 max 9545 min
Histogram: 1 0 0 0 0 0 0 0 0 1
Neighs:    347685 ave 347703 max 347667 min
Histogram: 1 0 0 0 0 0 0 0 0 1

Total # of neighbors = 695370
Ave neighs/atom = 35.3842
Neighbor list builds = 9505
Dangerous builds not checked
Setting up Verlet run ...
  Unit style    : metal
  Current step  : 160000
  Time step     : 0.001
Per MPI rank memory allocation (min/avg/max) = 11.27 | 11.27 | 11.27 Mbytes
Step Temp Press TotEng PotEng Enthalpy 
  160000     1869.333   -250.74498   -73120.337   -77868.613   -73228.102 
  160495    1816.3786   -171.07578    -73297.17   -77910.937   -73370.622 
Loop time of 27.3313 on 2 procs for 495 steps with 19652 atoms

Performance: 1.565 ns/day, 15.337 hours/ns, 18.111 timesteps/s
99.9% CPU use with 2 MPI tasks x no OpenMP threads

MPI task timing breakdown:
Section |  min time  |  avg time  |  max time  |%varavg| %total
---------------------------------------------------------------
Pair    | 13.461     | 13.473     | 13.486     |   0.3 | 49.30
Neigh   | 12.693     | 12.71      | 12.727     |   0.5 | 46.50
Comm    | 0.52162    | 0.55165    | 0.58168    |   4.0 |  2.02
Output  | 9.203e-05  | 0.00013649 | 0.00018096 |   0.0 |  0.00
Modify  | 0.46662    | 0.46679    | 0.46696    |   0.0 |  1.71
Other   |            | 0.1292     |            |       |  0.47

Nlocal:    9826 ave 9840 max 9812 min
Histogram: 1 0 0 0 0 0 0 0 0 1
Nghost:    9499.5 ave 9505 max 9494 min
Histogram: 1 0 0 0 0 0 0 0 0 1
Neighs:    347975 ave 348424 max 347526 min
Histogram: 1 0 0 0 0 0 0 0 0 1

Total # of neighbors = 695950
Ave neighs/atom = 35.4137
Neighbor list builds = 495
Dangerous builds not checked
Setting up Verlet run ...
  Unit style    : metal
  Current step  : 160495
  Time step     : 0.001
Per MPI rank memory allocation (min/avg/max) = 11.27 | 11.27 | 11.27 Mbytes
Step Temp Press TotEng PotEng Enthalpy 
  160495    1816.3786   -171.07578    -73297.17   -77910.937   -73370.622 
  170000    1789.0322    -1268.214   -73422.209   -77966.514   -73968.128 
Loop time of 531.151 on 2 procs for 9505 steps with 19652 atoms

Performance: 1.546 ns/day, 15.523 hours/ns, 17.895 timesteps/s
99.5% CPU use with 2 MPI tasks x no OpenMP threads

MPI task timing breakdown:
Section |  min time  |  avg time  |  max time  |%varavg| %total
---------------------------------------------------------------
Pair    | 262.01     | 262.75     | 263.49     |   4.6 | 49.47
Neigh   | 244.31     | 244.54     | 244.78     |   1.5 | 46.04
Comm    | 12.095     | 12.59      | 13.085     |  14.0 |  2.37
Output  | 0.037209   | 0.03723    | 0.037251   |   0.0 |  0.01
Modify  | 8.8162     | 8.8372     | 8.8582     |   0.7 |  1.66
Other   |            | 2.398      |            |       |  0.45

Nlocal:    9826 ave 9829 max 9823 min
Histogram: 1 0 0 0 0 0 0 0 0 1
Nghost:    9521.5 ave 9529 max 9514 min
Histogram: 1 0 0 0 0 0 0 0 0 1
Neighs:    347117 ave 347266 max 346968 min
Histogram: 1 0 0 0 0 0 0 0 0 1

Total # of neighbors = 694234
Ave neighs/atom = 35.3264
Neighbor list builds = 9505
Dangerous builds not checked
Setting up Verlet run ...
  Unit style    : metal
  Current step  : 170000
  Time step     : 0.001
Per MPI rank memory allocation (min/avg/max) = 11.28 | 11.28 | 11.28 Mbytes
Step Temp Press TotEng PotEng Enthalpy 
  170000    1789.0322    -1268.214   -73422.209   -77966.514   -73968.128 
  170495    1766.7093   -917.20998   -73638.688    -78126.29     -74032.4 
Loop time of 27.5808 on 2 procs for 495 steps with 19652 atoms

Performance: 1.551 ns/day, 15.477 hours/ns, 17.947 timesteps/s
99.3% CPU use with 2 MPI tasks x no OpenMP threads

MPI task timing breakdown:
Section |  min time  |  avg time  |  max time  |%varavg| %total
---------------------------------------------------------------
Pair    | 13.39      | 13.61      | 13.83      |   6.0 | 49.35
Neigh   | 12.392     | 12.566     | 12.74      |   4.9 | 45.56
Comm    | 0.78478    | 0.83258    | 0.88039    |   5.2 |  3.02
Output  | 0.00010896 | 0.00025105 | 0.00039315 |   0.0 |  0.00
Modify  | 0.4528     | 0.45286    | 0.45292    |   0.0 |  1.64
Other   |            | 0.119      |            |       |  0.43

Nlocal:    9826 ave 9826 max 9826 min
Histogram: 2 0 0 0 0 0 0 0 0 0
Nghost:    9542.5 ave 9573 max 9512 min
Histogram: 1 0 0 0 0 0 0 0 0 1
Neighs:    347466 ave 347680 max 347251 min
Histogram: 1 0 0 0 0 0 0 0 0 1

Total # of neighbors = 694931
Ave neighs/atom = 35.3618
Neighbor list builds = 495
Dangerous builds not checked
Setting up Verlet run ...
  Unit style    : metal
  Current step  : 170495
  Time step     : 0.001
Per MPI rank memory allocation (min/avg/max) = 11.28 | 11.28 | 11.28 Mbytes
Step Temp Press TotEng PotEng Enthalpy 
  170495    1766.7093   -917.20998   -73638.688    -78126.29     -74032.4 
  180000    1742.1791    -28.35646   -73778.015   -78203.308   -73790.144 
Loop time of 532.216 on 2 procs for 9505 steps with 19652 atoms

Performance: 1.543 ns/day, 15.554 hours/ns, 17.859 timesteps/s
99.6% CPU use with 2 MPI tasks x no OpenMP threads

MPI task timing breakdown:
Section |  min time  |  avg time  |  max time  |%varavg| %total
---------------------------------------------------------------
Pair    | 263.26     | 264.95     | 266.64     |  10.4 | 49.78
Neigh   | 240.21     | 240.86     | 241.5      |   4.1 | 45.26
Comm    | 13.055     | 15.319     | 17.584     |  57.8 |  2.88
Output  | 0.037347   | 0.037377   | 0.037406   |   0.0 |  0.01
Modify  | 8.6427     | 8.712      | 8.7813     |   2.3 |  1.64
Other   |            | 2.338      |            |       |  0.44

Nlocal:    9826 ave 9829 max 9823 min
Histogram: 1 0 0 0 0 0 0 0 0 1
Nghost:    9555.5 ave 9569 max 9542 min
Histogram: 1 0 0 0 0 0 0 0 0 1
Neighs:    348819 ave 348991 max 348647 min
Histogram: 1 0 0 0 0 0 0 0 0 1

Total # of neighbors = 697638
Ave neighs/atom = 35.4996
Neighbor list builds = 9505
Dangerous builds not checked
Setting up Verlet run ...
  Unit style    : metal
  Current step  : 180000
  Time step     : 0.001
Per MPI rank memory allocation (min/avg/max) = 11.28 | 11.28 | 11.28 Mbytes
Step Temp Press TotEng PotEng Enthalpy 
  180000    1742.1791    -28.35646   -73778.015   -78203.308   -73790.144 
  180495    1709.6984   -16.285445   -73988.485   -78331.275   -73995.441 
Loop time of 27.9446 on 2 procs for 495 steps with 19652 atoms

Performance: 1.530 ns/day, 15.682 hours/ns, 17.714 timesteps/s
99.8% CPU use with 2 MPI tasks x no OpenMP threads

MPI task timing breakdown:
Section |  min time  |  avg time  |  max time  |%varavg| %total
---------------------------------------------------------------
Pair    | 13.781     | 13.831     | 13.88      |   1.3 | 49.49
Neigh   | 12.711     | 12.759     | 12.807     |   1.3 | 45.66
Comm    | 0.73505    | 0.74374    | 0.75244    |   1.0 |  2.66
Output  | 7.7009e-05 | 0.00020146 | 0.00032592 |   0.0 |  0.00
Modify  | 0.47829    | 0.48284    | 0.48738    |   0.7 |  1.73
Other   |            | 0.1279     |            |       |  0.46

Nlocal:    9826 ave 9848 max 9804 min
Histogram: 1 0 0 0 0 0 0 0 0 1
Nghost:    9595 ave 9597 max 9593 min
Histogram: 1 0 0 0 0 0 0 0 0 1
Neighs:    349264 ave 350138 max 348389 min
Histogram: 1 0 0 0 0 0 0 0 0 1

Total # of neighbors = 698527
Ave neighs/atom = 35.5448
Neighbor list builds = 495
Dangerous builds not checked
Setting up Verlet run ...
  Unit style    : metal
  Current step  : 180495
  Time step     : 0.001
Per MPI rank memory allocation (min/avg/max) = 11.28 | 11.28 | 11.28 Mbytes
Step Temp Press TotEng PotEng Enthalpy 
  180495    1709.6984   -16.285445   -73988.485   -78331.275   -73995.441 
  190000    1697.8507    33.609571   -74079.853   -78392.548   -74065.509 
Loop time of 547.285 on 2 procs for 9505 steps with 19652 atoms

Performance: 1.501 ns/day, 15.994 hours/ns, 17.368 timesteps/s
99.0% CPU use with 2 MPI tasks x no OpenMP threads

MPI task timing breakdown:
Section |  min time  |  avg time  |  max time  |%varavg| %total
---------------------------------------------------------------
Pair    | 272.89     | 273.73     | 274.58     |   5.1 | 50.02
Neigh   | 244.18     | 244.49     | 244.79     |   2.0 | 44.67
Comm    | 16.993     | 17.525     | 18.057     |  12.7 |  3.20
Output  | 0.03707    | 0.037153   | 0.037236   |   0.0 |  0.01
Modify  | 9.1157     | 9.1173     | 9.1189     |   0.1 |  1.67
Other   |            | 2.384      |            |       |  0.44

Nlocal:    9826 ave 9828 max 9824 min
Histogram: 1 0 0 0 0 0 0 0 0 1
Nghost:    9588 ave 9614 max 9562 min
Histogram: 1 0 0 0 0 0 0 0 0 1
Neighs:    349142 ave 349143 max 349141 min
Histogram: 1 0 0 0 0 0 0 0 0 1

Total # of neighbors = 698284
Ave neighs/atom = 35.5325
Neighbor list builds = 9505
Dangerous builds not checked
Setting up Verlet run ...
  Unit style    : metal
  Current step  : 190000
  Time step     : 0.001
Per MPI rank memory allocation (min/avg/max) = 11.28 | 11.28 | 11.28 Mbytes
Step Temp Press TotEng PotEng Enthalpy 
  190000    1697.8507    33.609571   -74079.853   -78392.548   -74065.509 
  190495    1668.5901    259.93108    -74255.06   -78493.431   -74144.354 
Loop time of 28.2432 on 2 procs for 495 steps with 19652 atoms

Performance: 1.514 ns/day, 15.849 hours/ns, 17.526 timesteps/s
97.9% CPU use with 2 MPI tasks x no OpenMP threads

MPI task timing breakdown:
Section |  min time  |  avg time  |  max time  |%varavg| %total
---------------------------------------------------------------
Pair    | 13.593     | 13.6       | 13.606     |   0.2 | 48.15
Neigh   | 12.564     | 12.61      | 12.656     |   1.3 | 44.65
Comm    | 1.3934     | 1.4339     | 1.4744     |   3.4 |  5.08
Output  | 8.0109e-05 | 0.00020158 | 0.00032306 |   0.0 |  0.00
Modify  | 0.4736     | 0.47409    | 0.47458    |   0.1 |  1.68
Other   |            | 0.1253     |            |       |  0.44

Nlocal:    9826 ave 9835 max 9817 min
Histogram: 1 0 0 0 0 0 0 0 0 1
Nghost:    9573.5 ave 9600 max 9547 min
Histogram: 1 0 0 0 0 0 0 0 0 1
Neighs:    349833 ave 350399 max 349267 min
Histogram: 1 0 0 0 0 0 0 0 0 1

Total # of neighbors = 699666
Ave neighs/atom = 35.6028
Neighbor list builds = 495
Dangerous builds not checked
Setting up Verlet run ...
  Unit style    : metal
  Current step  : 190495
  Time step     : 0.001
Per MPI rank memory allocation (min/avg/max) = 11.28 | 11.28 | 11.28 Mbytes
Step Temp Press TotEng PotEng Enthalpy 
  190495    1668.5901    259.93108    -74255.06   -78493.431   -74144.354 
  200000    1647.0441    256.63552   -74428.991   -78612.633   -74319.862 
Loop time of 556.08 on 2 procs for 9505 steps with 19652 atoms

Performance: 1.477 ns/day, 16.251 hours/ns, 17.093 timesteps/s
98.5% CPU use with 2 MPI tasks x no OpenMP threads

MPI task timing breakdown:
Section |  min time  |  avg time  |  max time  |%varavg| %total
---------------------------------------------------------------
Pair    | 278.55     | 279.04     | 279.52     |   2.9 | 50.18
Neigh   | 244.59     | 245.17     | 245.74     |   3.7 | 44.09
Comm    | 18.631     | 19.69      | 20.749     |  23.9 |  3.54
Output  | 0.03673    | 0.036784   | 0.036838   |   0.0 |  0.01
Modify  | 9.729      | 9.7429     | 9.7568     |   0.4 |  1.75
Other   |            | 2.408      |            |       |  0.43

Nlocal:    9826 ave 9848 max 9804 min
Histogram: 1 0 0 0 0 0 0 0 0 1
Nghost:    9524.5 ave 9539 max 9510 min
Histogram: 1 0 0 0 0 0 0 0 0 1
Neighs:    350200 ave 351569 max 348830 min
Histogram: 1 0 0 0 0 0 0 0 0 1

Total # of neighbors = 700399
Ave neighs/atom = 35.6401
Neighbor list builds = 9505
Dangerous builds not checked
Setting up Verlet run ...
  Unit style    : metal
  Current step  : 200000
  Time step     : 0.001
Per MPI rank memory allocation (min/avg/max) = 11.28 | 11.28 | 11.28 Mbytes
Step Temp Press TotEng PotEng Enthalpy 
  200000    1647.0441    256.63552   -74428.991   -78612.633   -74319.862 
  200495    1608.4826    562.59791   -74593.617   -78679.309   -74354.664 
Loop time of 28.6945 on 2 procs for 495 steps with 19652 atoms

Performance: 1.490 ns/day, 16.102 hours/ns, 17.251 timesteps/s
99.0% CPU use with 2 MPI tasks x no OpenMP threads

MPI task timing breakdown:
Section |  min time  |  avg time  |  max time  |%varavg| %total
---------------------------------------------------------------
Pair    | 14.107     | 14.585     | 15.063     |  12.5 | 50.83
Neigh   | 12.206     | 12.471     | 12.736     |   7.5 | 43.46
Comm    | 0.82814    | 1.0268     | 1.2255     |  19.6 |  3.58
Output  | 0.00010419 | 0.0082811  | 0.016458   |   9.0 |  0.03
Modify  | 0.45839    | 0.46875    | 0.47911    |   1.5 |  1.63
Other   |            | 0.1345     |            |       |  0.47

Nlocal:    9826 ave 9850 max 9802 min
Histogram: 1 0 0 0 0 0 0 0 0 1
Nghost:    9568.5 ave 9605 max 9532 min
Histogram: 1 0 0 0 0 0 0 0 0 1
Neighs:    350382 ave 351840 max 348925 min
Histogram: 1 0 0 0 0 0 0 0 0 1

Total # of neighbors = 700765
Ave neighs/atom = 35.6587
Neighbor list builds = 495
Dangerous builds not checked
Setting up Verlet run ...
  Unit style    : metal
  Current step  : 200495
  Time step     : 0.001
Per MPI rank memory allocation (min/avg/max) = 11.28 | 11.28 | 11.28 Mbytes
Step Temp Press TotEng PotEng Enthalpy 
  200495    1608.4826    562.59791   -74593.617   -78679.309   -74354.664 
  210000     1611.191   -1111.3905   -74687.444   -78780.016   -75161.264 
Loop time of 549.357 on 2 procs for 9505 steps with 19652 atoms

Performance: 1.495 ns/day, 16.055 hours/ns, 17.302 timesteps/s
99.5% CPU use with 2 MPI tasks x no OpenMP threads

MPI task timing breakdown:
Section |  min time  |  avg time  |  max time  |%varavg| %total
---------------------------------------------------------------
Pair    | 275.76     | 276.53     | 277.3      |   4.6 | 50.34
Neigh   | 240.54     | 241.48     | 242.42     |   6.0 | 43.96
Comm    | 19.954     | 20.037     | 20.12      |   1.9 |  3.65
Output  | 0.038021   | 0.038062   | 0.038103   |   0.0 |  0.01
Modify  | 8.8061     | 8.8882     | 8.9702     |   2.8 |  1.62
Other   |            | 2.39       |            |       |  0.44

Nlocal:    9826 ave 9839 max 9813 min
Histogram: 1 0 0 0 0 0 0 0 0 1
Nghost:    9572 ave 9572 max 9572 min
Histogram: 2 0 0 0 0 0 0 0 0 0
Neighs:    348757 ave 349527 max 347987 min
Histogram: 1 0 0 0 0 0 0 0 0 1

Total # of neighbors = 697514
Ave neighs/atom = 35.4933
Neighbor list builds = 9505
Dangerous builds not checked
Setting up Verlet run ...
  Unit style    : metal
  Current step  : 210000
  Time step     : 0.001
Per MPI rank memory allocation (min/avg/max) = 11.28 | 11.28 | 11.28 Mbytes
Step Temp Press TotEng PotEng Enthalpy 
  210000     1611.191   -1111.3905   -74687.444   -78780.016   -75161.264 
  210495    1555.8748    -617.0947   -74919.628   -78871.692   -75182.023 
Loop time of 29.0028 on 2 procs for 495 steps with 19652 atoms

Performance: 1.475 ns/day, 16.275 hours/ns, 17.067 timesteps/s
98.4% CPU use with 2 MPI tasks x no OpenMP threads

MPI task timing breakdown:
Section |  min time  |  avg time  |  max time  |%varavg| %total
---------------------------------------------------------------
Pair    | 14.729     | 14.765     | 14.802     |   1.0 | 50.91
Neigh   | 12.291     | 12.455     | 12.619     |   4.6 | 42.94
Comm    | 1.0434     | 1.1799     | 1.3164     |  12.6 |  4.07
Output  | 9.7036e-05 | 0.00018454 | 0.00027204 |   0.0 |  0.00
Modify  | 0.46574    | 0.47204    | 0.47833    |   0.9 |  1.63
Other   |            | 0.13       |            |       |  0.45

Nlocal:    9826 ave 9836 max 9816 min
Histogram: 1 0 0 0 0 0 0 0 0 1
Nghost:    9599 ave 9607 max 9591 min
Histogram: 1 0 0 0 0 0 0 0 0 1
Neighs:    349598 ave 350633 max 348564 min
Histogram: 1 0 0 0 0 0 0 0 0 1

Total # of neighbors = 699197
Ave neighs/atom = 35.5789
Neighbor list builds = 495
Dangerous builds not checked
Setting up Verlet run ...
  Unit style    : metal
  Current step  : 210495
  Time step     : 0.001
Per MPI rank memory allocation (min/avg/max) = 11.28 | 11.28 | 11.28 Mbytes
Step Temp Press TotEng PotEng Enthalpy 
  210495    1555.8748    -617.0947   -74919.628   -78871.692   -75182.023 
  220000    1549.6642   -582.51014   -75067.275   -79003.563   -75314.712 
Loop time of 555.539 on 2 procs for 9505 steps with 19652 atoms

Performance: 1.478 ns/day, 16.235 hours/ns, 17.110 timesteps/s
99.7% CPU use with 2 MPI tasks x no OpenMP threads

MPI task timing breakdown:
Section |  min time  |  avg time  |  max time  |%varavg| %total
---------------------------------------------------------------
Pair    | 280.62     | 281.63     | 282.63     |   6.0 | 50.69
Neigh   | 239.81     | 239.85     | 239.88     |   0.2 | 43.17
Comm    | 21.739     | 22.742     | 23.745     |  21.0 |  4.09
Output  | 0.039332   | 0.039382   | 0.039431   |   0.0 |  0.01
Modify  | 8.8259     | 8.8559     | 8.8859     |   1.0 |  1.59
Other   |            | 2.431      |            |       |  0.44

Nlocal:    9826 ave 9852 max 9800 min
Histogram: 1 0 0 0 0 0 0 0 0 1
Nghost:    9548.5 ave 9574 max 9523 min
Histogram: 1 0 0 0 0 0 0 0 0 1
Neighs:    349626 ave 351245 max 348006 min
Histogram: 1 0 0 0 0 0 0 0 0 1

Total # of neighbors = 699251
Ave neighs/atom = 35.5817
Neighbor list builds = 9505
Dangerous builds not checked
Setting up Verlet run ...
  Unit style    : metal
  Current step  : 220000
  Time step     : 0.001
Per MPI rank memory allocation (min/avg/max) = 11.28 | 11.28 | 11.28 Mbytes
Step Temp Press TotEng PotEng Enthalpy 
  220000    1549.6642   -582.51014   -75067.275   -79003.563   -75314.712 
  220495    1500.8111   -606.67072   -75279.114   -79091.311   -75536.415 
Loop time of 28.0984 on 2 procs for 495 steps with 19652 atoms

Performance: 1.522 ns/day, 15.768 hours/ns, 17.617 timesteps/s
99.9% CPU use with 2 MPI tasks x no OpenMP threads

MPI task timing breakdown:
Section |  min time  |  avg time  |  max time  |%varavg| %total
---------------------------------------------------------------
Pair    | 14.123     | 14.134     | 14.144     |   0.3 | 50.30
Neigh   | 12.219     | 12.241     | 12.262     |   0.6 | 43.56
Comm    | 1.1045     | 1.1372     | 1.1699     |   3.1 |  4.05
Output  | 0.00011802 | 0.00029004 | 0.00046206 |   0.0 |  0.00
Modify  | 0.45831    | 0.45949    | 0.46068    |   0.2 |  1.64
Other   |            | 0.1271     |            |       |  0.45

Nlocal:    9826 ave 9846 max 9806 min
Histogram: 1 0 0 0 0 0 0 0 0 1
Nghost:    9583 ave 9608 max 9558 min
Histogram: 1 0 0 0 0 0 0 0 0 1
Neighs:    350078 ave 351642 max 348515 min
Histogram: 1 0 0 0 0 0 0 0 0 1

Total # of neighbors = 700157
Ave neighs/atom = 35.6278
Neighbor list builds = 495
Dangerous builds not checked
Setting up Verlet run ...
  Unit style    : metal
  Current step  : 220495
  Time step     : 0.001
Per MPI rank memory allocation (min/avg/max) = 11.28 | 11.28 | 11.28 Mbytes
Step Temp Press TotEng PotEng Enthalpy 
  220495    1500.8111   -606.67072   -75279.114   -79091.311   -75536.415 
  230000    1500.6084    509.49723   -75414.034   -79225.716   -75198.851 
Loop time of 558.963 on 2 procs for 9505 steps with 19652 atoms

Performance: 1.469 ns/day, 16.335 hours/ns, 17.005 timesteps/s
98.8% CPU use with 2 MPI tasks x no OpenMP threads

MPI task timing breakdown:
Section |  min time  |  avg time  |  max time  |%varavg| %total
---------------------------------------------------------------
Pair    | 283.16     | 284.38     | 285.61     |   7.3 | 50.88
Neigh   | 236.99     | 237.65     | 238.32     |   4.3 | 42.52
Comm    | 23.702     | 25.651     | 27.599     |  38.5 |  4.59
Output  | 0.075095   | 0.075127   | 0.07516    |   0.0 |  0.01
Modify  | 8.7498     | 8.8021     | 8.8544     |   1.8 |  1.57
Other   |            | 2.398      |            |       |  0.43

Nlocal:    9826 ave 9827 max 9825 min
Histogram: 1 0 0 0 0 0 0 0 0 1
Nghost:    9618.5 ave 9629 max 9608 min
Histogram: 1 0 0 0 0 0 0 0 0 1
Neighs:    351220 ave 351274 max 351167 min
Histogram: 1 0 0 0 0 0 0 0 0 1

Total # of neighbors = 702441
Ave neighs/atom = 35.744
Neighbor list builds = 9505
Dangerous builds not checked
Setting up Verlet run ...
  Unit style    : metal
  Current step  : 230000
  Time step     : 0.001
Per MPI rank memory allocation (min/avg/max) = 11.28 | 11.28 | 11.28 Mbytes
Step Temp Press TotEng PotEng Enthalpy 
  230000    1500.6084    509.49723   -75414.034   -79225.716   -75198.851 
  230495    1476.9037    651.15776   -75588.236   -79339.706   -75313.795 
Loop time of 28.7215 on 2 procs for 495 steps with 19652 atoms

Performance: 1.489 ns/day, 16.118 hours/ns, 17.234 timesteps/s
97.6% CPU use with 2 MPI tasks x no OpenMP threads

MPI task timing breakdown:
Section |  min time  |  avg time  |  max time  |%varavg| %total
---------------------------------------------------------------
Pair    | 14.388     | 14.572     | 14.757     |   4.8 | 50.74
Neigh   | 11.834     | 12.443     | 13.052     |  17.3 | 43.32
Comm    | 0.68677    | 1.1363     | 1.5858     |  42.2 |  3.96
Output  | 0.00012708 | 0.00028861 | 0.00045013 |   0.0 |  0.00
Modify  | 0.42758    | 0.4465     | 0.46542    |   2.8 |  1.55
Other   |            | 0.1231     |            |       |  0.43

Nlocal:    9826 ave 9838 max 9814 min
Histogram: 1 0 0 0 0 0 0 0 0 1
Nghost:    9589.5 ave 9601 max 9578 min
Histogram: 1 0 0 0 0 0 0 0 0 1
Neighs:    351746 ave 352376 max 351116 min
Histogram: 1 0 0 0 0 0 0 0 0 1

Total # of neighbors = 703492
Ave neighs/atom = 35.7975
Neighbor list builds = 495
Dangerous builds not checked
Setting up Verlet run ...
  Unit style    : metal
  Current step  : 230495
  Time step     : 0.001
Per MPI rank memory allocation (min/avg/max) = 11.28 | 11.28 | 11.28 Mbytes
Step Temp Press TotEng PotEng Enthalpy 
  230495    1476.9037    651.15776   -75588.236   -79339.706   -75313.795 
  240000    1447.4594   -173.32895   -75814.127   -79490.805   -75887.244 
Loop time of 591.085 on 2 procs for 9505 steps with 19652 atoms

Performance: 1.389 ns/day, 17.274 hours/ns, 16.081 timesteps/s
98.9% CPU use with 2 MPI tasks x no OpenMP threads

MPI task timing breakdown:
Section |  min time  |  avg time  |  max time  |%varavg| %total
---------------------------------------------------------------
Pair    | 302.25     | 303.35     | 304.45     |   6.3 | 51.32
Neigh   | 253.81     | 254.22     | 254.63     |   2.6 | 43.01
Comm    | 20.471     | 21.165     | 21.859     |  15.1 |  3.58
Output  | 0.040759   | 0.040853   | 0.040948   |   0.0 |  0.01
Modify  | 9.6738     | 9.6964     | 9.7191     |   0.7 |  1.64
Other   |            | 2.62       |            |       |  0.44

Nlocal:    9826 ave 9830 max 9822 min
Histogram: 1 0 0 0 0 0 0 0 0 1
Nghost:    9600.5 ave 9611 max 9590 min
Histogram: 1 0 0 0 0 0 0 0 0 1
Neighs:    350962 ave 350964 max 350961 min
Histogram: 1 0 0 0 0 0 0 0 0 1

Total # of neighbors = 701925
Ave neighs/atom = 35.7177
Neighbor list builds = 9505
Dangerous builds not checked
Setting up Verlet run ...
  Unit style    : metal
  Current step  : 240000
  Time step     : 0.001
Per MPI rank memory allocation (min/avg/max) = 11.28 | 11.28 | 11.28 Mbytes
Step Temp Press TotEng PotEng Enthalpy 
  240000    1447.4594   -173.32895   -75814.127   -79490.805   -75887.244 
  240495    1422.6082   -124.25581   -75950.162   -79563.716   -76002.544 
Loop time of 29.9805 on 2 procs for 495 steps with 19652 atoms

Performance: 1.427 ns/day, 16.824 hours/ns, 16.511 timesteps/s
99.6% CPU use with 2 MPI tasks x no OpenMP threads

MPI task timing breakdown:
Section |  min time  |  avg time  |  max time  |%varavg| %total
---------------------------------------------------------------
Pair    | 15.097     | 15.297     | 15.497     |   5.1 | 51.02
Neigh   | 12.632     | 12.685     | 12.738     |   1.5 | 42.31
Comm    | 1.0894     | 1.3466     | 1.6038     |  22.2 |  4.49
Output  | 9.0122e-05 | 0.00022054 | 0.00035095 |   0.0 |  0.00
Modify  | 0.51612    | 0.51658    | 0.51703    |   0.1 |  1.72
Other   |            | 0.1351     |            |       |  0.45

Nlocal:    9826 ave 9826 max 9826 min
Histogram: 2 0 0 0 0 0 0 0 0 0
Nghost:    9600 ave 9612 max 9588 min
Histogram: 1 0 0 0 0 0 0 0 0 1
Neighs:    351162 ave 351171 max 351153 min
Histogram: 1 0 0 0 0 0 0 0 0 1

Total # of neighbors = 702324
Ave neighs/atom = 35.738
Neighbor list builds = 495
Dangerous builds not checked
Setting up Verlet run ...
  Unit style    : metal
  Current step  : 240495
  Time step     : 0.001
Per MPI rank memory allocation (min/avg/max) = 11.28 | 11.28 | 11.28 Mbytes
Step Temp Press TotEng PotEng Enthalpy 
  240495    1422.6082   -124.25581   -75950.162   -79563.716   -76002.544 
  250000    1391.4019    863.37405   -76073.147   -79607.434   -75710.524 
Loop time of 589.372 on 2 procs for 9505 steps with 19652 atoms

Performance: 1.393 ns/day, 17.224 hours/ns, 16.127 timesteps/s
99.4% CPU use with 2 MPI tasks x no OpenMP threads

MPI task timing breakdown:
Section |  min time  |  avg time  |  max time  |%varavg| %total
---------------------------------------------------------------
Pair    | 301.53     | 302.61     | 303.69     |   6.2 | 51.34
Neigh   | 252.8      | 254.65     | 256.5      |  11.6 | 43.21
Comm    | 19.073     | 19.881     | 20.689     |  18.1 |  3.37
Output  | 0.038555   | 0.03856    | 0.038565   |   0.0 |  0.01
Modify  | 9.5457     | 9.583      | 9.6203     |   1.2 |  1.63
Other   |            | 2.61       |            |       |  0.44

Nlocal:    9826 ave 9832 max 9820 min
Histogram: 1 0 0 0 0 0 0 0 0 1
Nghost:    9584.5 ave 9598 max 9571 min
Histogram: 1 0 0 0 0 0 0 0 0 1
Neighs:    352388 ave 353061 max 351715 min
Histogram: 1 0 0 0 0 0 0 0 0 1

Total # of neighbors = 704776
Ave neighs/atom = 35.8628
Neighbor list builds = 9505
Dangerous builds not checked
Setting up Verlet run ...
  Unit style    : metal
  Current step  : 250000
  Time step     : 0.001
Per MPI rank memory allocation (min/avg/max) = 11.28 | 11.28 | 11.28 Mbytes
Step Temp Press TotEng PotEng Enthalpy 
  250000    1391.4019    863.37405   -76073.147   -79607.434   -75710.524 
  250495    1366.6373    716.12735   -76253.074   -79724.457   -75952.474 
Loop time of 32.0301 on 2 procs for 495 steps with 19652 atoms

Performance: 1.335 ns/day, 17.974 hours/ns, 15.454 timesteps/s
94.1% CPU use with 2 MPI tasks x no OpenMP threads

MPI task timing breakdown:
Section |  min time  |  avg time  |  max time  |%varavg| %total
---------------------------------------------------------------
Pair    | 16.473     | 16.652     | 16.831     |   4.4 | 51.99
Neigh   | 12.887     | 13.269     | 13.651     |  10.5 | 41.43
Comm    | 1.2007     | 1.4172     | 1.6337     |  18.2 |  4.42
Output  | 9.0837e-05 | 0.00024033 | 0.00038981 |   0.0 |  0.00
Modify  | 0.54498    | 0.5559     | 0.56683    |   1.5 |  1.74
Other   |            | 0.1363     |            |       |  0.43

Nlocal:    9826 ave 9838 max 9814 min
Histogram: 1 0 0 0 0 0 0 0 0 1
Nghost:    9633 ave 9652 max 9614 min
Histogram: 1 0 0 0 0 0 0 0 0 1
Neighs:    352300 ave 352730 max 351869 min
Histogram: 1 0 0 0 0 0 0 0 0 1

Total # of neighbors = 704599
Ave neighs/atom = 35.8538
Neighbor list builds = 495
Dangerous builds not checked
Setting up Verlet run ...
  Unit style    : metal
  Current step  : 250495
  Time step     : 0.001
Per MPI rank memory allocation (min/avg/max) = 11.28 | 11.28 | 11.28 Mbytes
Step Temp Press TotEng PotEng Enthalpy 
  250495    1366.6373    716.12735   -76253.074   -79724.457   -75952.474 
  260000    1354.2843    924.27667   -76399.996   -79840.002   -76012.834 
Loop time of 610.923 on 2 procs for 9505 steps with 19652 atoms

Performance: 1.344 ns/day, 17.854 hours/ns, 15.558 timesteps/s
97.6% CPU use with 2 MPI tasks x no OpenMP threads

MPI task timing breakdown:
Section |  min time  |  avg time  |  max time  |%varavg| %total
---------------------------------------------------------------
Pair    | 314.59     | 315.26     | 315.92     |   3.8 | 51.60
Neigh   | 256.22     | 256.52     | 256.82     |   1.9 | 41.99
Comm    | 25.604     | 26.533     | 27.462     |  18.0 |  4.34
Output  | 0.038267   | 0.038289   | 0.03831    |   0.0 |  0.01
Modify  | 9.9209     | 9.9348     | 9.9488     |   0.4 |  1.63
Other   |            | 2.641      |            |       |  0.43

Nlocal:    9826 ave 9838 max 9814 min
Histogram: 1 0 0 0 0 0 0 0 0 1
Nghost:    9612 ave 9640 max 9584 min
Histogram: 1 0 0 0 0 0 0 0 0 1
Neighs:    352737 ave 353144 max 352330 min
Histogram: 1 0 0 0 0 0 0 0 0 1

Total # of neighbors = 705474
Ave neighs/atom = 35.8983
Neighbor list builds = 9505
Dangerous builds not checked
Setting up Verlet run ...
  Unit style    : metal
  Current step  : 260000
  Time step     : 0.001
Per MPI rank memory allocation (min/avg/max) = 11.29 | 11.29 | 11.29 Mbytes
Step Temp Press TotEng PotEng Enthalpy 
  260000    1354.2843    924.27667   -76399.996   -79840.002   -76012.834 
  260495    1314.8127    687.00841   -76590.398   -79930.142   -76302.761 
Loop time of 30.3871 on 2 procs for 495 steps with 19652 atoms

Performance: 1.407 ns/day, 17.052 hours/ns, 16.290 timesteps/s
99.9% CPU use with 2 MPI tasks x no OpenMP threads

MPI task timing breakdown:
Section |  min time  |  avg time  |  max time  |%varavg| %total
---------------------------------------------------------------
Pair    | 15.358     | 15.587     | 15.815     |   5.8 | 51.29
Neigh   | 12.503     | 12.974     | 13.445     |  13.1 | 42.70
Comm    | 0.89451    | 1.1498     | 1.4051     |  23.8 |  3.78
Output  | 0.00010705 | 0.00024843 | 0.00038981 |   0.0 |  0.00
Modify  | 0.52092    | 0.5303     | 0.53968    |   1.3 |  1.75
Other   |            | 0.1459     |            |       |  0.48

Nlocal:    9826 ave 9830 max 9822 min
Histogram: 1 0 0 0 0 0 0 0 0 1
Nghost:    9617.5 ave 9627 max 9608 min
Histogram: 1 0 0 0 0 0 0 0 0 1
Neighs:    352704 ave 352729 max 352678 min
Histogram: 1 0 0 0 0 0 0 0 0 1

Total # of neighbors = 705407
Ave neighs/atom = 35.8949
Neighbor list builds = 495
Dangerous builds not checked
Setting up Verlet run ...
  Unit style    : metal
  Current step  : 260495
  Time step     : 0.001
Per MPI rank memory allocation (min/avg/max) = 11.29 | 11.29 | 11.29 Mbytes
Step Temp Press TotEng PotEng Enthalpy 
  260495    1314.8127    687.00841   -76590.398   -79930.142   -76302.761 
  270000    1300.1187    -705.1541   -76679.232   -79981.652   -76975.545 
Loop time of 612.647 on 2 procs for 9505 steps with 19652 atoms

Performance: 1.340 ns/day, 17.904 hours/ns, 15.515 timesteps/s
98.8% CPU use with 2 MPI tasks x no OpenMP threads

MPI task timing breakdown:
Section |  min time  |  avg time  |  max time  |%varavg| %total
---------------------------------------------------------------
Pair    | 314.26     | 318.13     | 321.99     |  21.7 | 51.93
Neigh   | 258.24     | 259        | 259.76     |   4.7 | 42.28
Comm    | 19.276     | 22.495     | 25.714     |  67.9 |  3.67
Output  | 0.039003   | 0.03904    | 0.039076   |   0.0 |  0.01
Modify  | 10.104     | 10.226     | 10.348     |   3.8 |  1.67
Other   |            | 2.761      |            |       |  0.45

Nlocal:    9826 ave 9835 max 9817 min
Histogram: 1 0 0 0 0 0 0 0 0 1
Nghost:    9632.5 ave 9633 max 9632 min
Histogram: 1 0 0 0 0 0 0 0 0 1
Neighs:    351060 ave 351706 max 350415 min
Histogram: 1 0 0 0 0 0 0 0 0 1

Total # of neighbors = 702121
Ave neighs/atom = 35.7277
Neighbor list builds = 9505
Dangerous builds not checked
Setting up Verlet run ...
  Unit style    : metal
  Current step  : 270000
  Time step     : 0.001
Per MPI rank memory allocation (min/avg/max) = 11.29 | 11.29 | 11.29 Mbytes
Step Temp Press TotEng PotEng Enthalpy 
  270000    1300.1187    -705.1541   -76679.232   -79981.652   -76975.545 
  270495    1265.2436   -475.75861   -76914.393   -80128.227   -77113.804 
Loop time of 29.2608 on 2 procs for 495 steps with 19652 atoms

Performance: 1.462 ns/day, 16.420 hours/ns, 16.917 timesteps/s
99.9% CPU use with 2 MPI tasks x no OpenMP threads

MPI task timing breakdown:
Section |  min time  |  avg time  |  max time  |%varavg| %total
---------------------------------------------------------------
Pair    | 15.119     | 15.178     | 15.236     |   1.5 | 51.87
Neigh   | 12.519     | 12.656     | 12.794     |   3.9 | 43.25
Comm    | 0.68974    | 0.78268    | 0.87562    |  10.5 |  2.67
Output  | 8.7976e-05 | 0.0002054  | 0.00032282 |   0.0 |  0.00
Modify  | 0.48971    | 0.50079    | 0.51188    |   1.6 |  1.71
Other   |            | 0.1433     |            |       |  0.49

Nlocal:    9826 ave 9850 max 9802 min
Histogram: 1 0 0 0 0 0 0 0 0 1
Nghost:    9606.5 ave 9615 max 9598 min
Histogram: 1 0 0 0 0 0 0 0 0 1
Neighs:    352026 ave 353318 max 350733 min
Histogram: 1 0 0 0 0 0 0 0 0 1

Total # of neighbors = 704051
Ave neighs/atom = 35.8259
Neighbor list builds = 495
Dangerous builds not checked
Setting up Verlet run ...
  Unit style    : metal
  Current step  : 270495
  Time step     : 0.001
Per MPI rank memory allocation (min/avg/max) = 11.29 | 11.29 | 11.29 Mbytes
Step Temp Press TotEng PotEng Enthalpy 
  270495    1265.2436   -475.75861   -76914.393   -80128.227   -77113.804 
  280000    1266.7156   -84.620527   -77015.657    -80233.23   -77051.057 
Loop time of 617.894 on 2 procs for 9505 steps with 19652 atoms

Performance: 1.329 ns/day, 18.058 hours/ns, 15.383 timesteps/s
96.6% CPU use with 2 MPI tasks x no OpenMP threads

MPI task timing breakdown:
Section |  min time  |  avg time  |  max time  |%varavg| %total
---------------------------------------------------------------
Pair    | 319.33     | 320.27     | 321.21     |   5.2 | 51.83
Neigh   | 257.21     | 257.4      | 257.59     |   1.2 | 41.66
Comm    | 26.12      | 27.233     | 28.346     |  21.3 |  4.41
Output  | 0.039866   | 0.039872   | 0.039879   |   0.0 |  0.01
Modify  | 10.156     | 10.189     | 10.223     |   1.0 |  1.65
Other   |            | 2.768      |            |       |  0.45

Nlocal:    9826 ave 9833 max 9819 min
Histogram: 1 0 0 0 0 0 0 0 0 1
Nghost:    9642.5 ave 9654 max 9631 min
Histogram: 1 0 0 0 0 0 0 0 0 1
Neighs:    352058 ave 352085 max 352030 min
Histogram: 1 0 0 0 0 0 0 0 0 1

Total # of neighbors = 704115
Ave neighs/atom = 35.8292
Neighbor list builds = 9505
Dangerous builds not checked
Setting up Verlet run ...
  Unit style    : metal
  Current step  : 280000
  Time step     : 0.001
Per MPI rank memory allocation (min/avg/max) = 11.29 | 11.29 | 11.29 Mbytes
Step Temp Press TotEng PotEng Enthalpy 
  280000    1266.7156   -84.620527   -77015.657    -80233.23   -77051.057 
  280495    1214.6505    43.715496   -77283.314   -80368.637   -77265.064 
Loop time of 31.3567 on 2 procs for 495 steps with 19652 atoms

Performance: 1.364 ns/day, 17.596 hours/ns, 15.786 timesteps/s
98.7% CPU use with 2 MPI tasks x no OpenMP threads

MPI task timing breakdown:
Section |  min time  |  avg time  |  max time  |%varavg| %total
---------------------------------------------------------------
Pair    | 15.627     | 16.171     | 16.714     |  13.5 | 51.57
Neigh   | 12.953     | 13.12      | 13.287     |   4.6 | 41.84
Comm    | 1.0026     | 1.3891     | 1.7756     |  32.8 |  4.43
Output  | 0.00011611 | 0.00027096 | 0.00042582 |   0.0 |  0.00
Modify  | 0.52414    | 0.53334    | 0.54255    |   1.3 |  1.70
Other   |            | 0.1431     |            |       |  0.46

Nlocal:    9826 ave 9838 max 9814 min
Histogram: 1 0 0 0 0 0 0 0 0 1
Nghost:    9657.5 ave 9703 max 9612 min
Histogram: 1 0 0 0 0 0 0 0 0 1
Neighs:    352518 ave 352834 max 352202 min
Histogram: 1 0 0 0 0 0 0 0 0 1

Total # of neighbors = 705036
Ave neighs/atom = 35.876
Neighbor list builds = 495
Dangerous builds not checked
Setting up Verlet run ...
  Unit style    : metal
  Current step  : 280495
  Time step     : 0.001
Per MPI rank memory allocation (min/avg/max) = 11.29 | 11.29 | 11.29 Mbytes
Step Temp Press TotEng PotEng Enthalpy 
  280495    1214.6505    43.715496   -77283.314   -80368.637   -77265.064 
  290000    1210.4373    399.36815   -77456.661   -80531.281    -77290.27 
Loop time of 607.459 on 2 procs for 9505 steps with 19652 atoms

Performance: 1.352 ns/day, 17.753 hours/ns, 15.647 timesteps/s
97.1% CPU use with 2 MPI tasks x no OpenMP threads

MPI task timing breakdown:
Section |  min time  |  avg time  |  max time  |%varavg| %total
---------------------------------------------------------------
Pair    | 310.84     | 313.8      | 316.77     |  16.7 | 51.66
Neigh   | 251.95     | 254.43     | 256.91     |  15.5 | 41.88
Comm    | 26.076     | 26.49      | 26.905     |   8.0 |  4.36
Output  | 0.040483   | 0.040544   | 0.040605   |   0.0 |  0.01
Modify  | 9.9373     | 9.9864     | 10.035     |   1.6 |  1.64
Other   |            | 2.712      |            |       |  0.45

Nlocal:    9826 ave 9829 max 9823 min
Histogram: 1 0 0 0 0 0 0 0 0 1
Nghost:    9617.5 ave 9618 max 9617 min
Histogram: 1 0 0 0 0 0 0 0 0 1
Neighs:    352830 ave 353010 max 352650 min
Histogram: 1 0 0 0 0 0 0 0 0 1

Total # of neighbors = 705660
Ave neighs/atom = 35.9078
Neighbor list builds = 9505
Dangerous builds not checked
Setting up Verlet run ...
  Unit style    : metal
  Current step  : 290000
  Time step     : 0.001
Per MPI rank memory allocation (min/avg/max) = 11.29 | 11.29 | 11.29 Mbytes
Step Temp Press TotEng PotEng Enthalpy 
  290000    1210.4373    399.36815   -77456.661   -80531.281    -77290.27 
  290495    1167.7696    208.57682   -77640.514   -80606.755   -77553.663 
Loop time of 31.0591 on 2 procs for 495 steps with 19652 atoms

Performance: 1.377 ns/day, 17.429 hours/ns, 15.937 timesteps/s
98.0% CPU use with 2 MPI tasks x no OpenMP threads

MPI task timing breakdown:
Section |  min time  |  avg time  |  max time  |%varavg| %total
---------------------------------------------------------------
Pair    | 15.37      | 16.001     | 16.633     |  15.8 | 51.52
Neigh   | 12.666     | 12.759     | 12.852     |   2.6 | 41.08
Comm    | 0.89025    | 1.6542     | 2.4182     |  59.4 |  5.33
Output  | 0.000108   | 0.00016797 | 0.00022793 |   0.0 |  0.00
Modify  | 0.47587    | 0.5069     | 0.53794    |   4.4 |  1.63
Other   |            | 0.1371     |            |       |  0.44

Nlocal:    9826 ave 9827 max 9825 min
Histogram: 1 0 0 0 0 0 0 0 0 1
Nghost:    9618 ave 9621 max 9615 min
Histogram: 1 0 0 0 0 0 0 0 0 1
Neighs:    352671 ave 352819 max 352523 min
Histogram: 1 0 0 0 0 0 0 0 0 1

Total # of neighbors = 705342
Ave neighs/atom = 35.8916
Neighbor list builds = 495
Dangerous builds not checked
Setting up Verlet run ...
  Unit style    : metal
  Current step  : 290495
  Time step     : 0.001
Per MPI rank memory allocation (min/avg/max) = 11.29 | 11.29 | 11.29 Mbytes
Step Temp Press TotEng PotEng Enthalpy 
  290495    1167.7696    208.57682   -77640.514   -80606.755   -77553.663 
  300000    1163.8908    437.31388   -77752.403   -80708.792   -77570.537 
Loop time of 616.173 on 2 procs for 9505 steps with 19652 atoms

Performance: 1.333 ns/day, 18.007 hours/ns, 15.426 timesteps/s
96.1% CPU use with 2 MPI tasks x no OpenMP threads

MPI task timing breakdown:
Section |  min time  |  avg time  |  max time  |%varavg| %total
---------------------------------------------------------------
Pair    | 317.8      | 318.94     | 320.08     |   6.4 | 51.76
Neigh   | 252.66     | 253.29     | 253.91     |   3.9 | 41.11
Comm    | 30.354     | 30.892     | 31.43      |   9.7 |  5.01
Output  | 0.038662   | 0.038685   | 0.038709   |   0.0 |  0.01
Modify  | 10.29      | 10.333     | 10.376     |   1.3 |  1.68
Other   |            | 2.682      |            |       |  0.44

Nlocal:    9826 ave 9846 max 9806 min
Histogram: 1 0 0 0 0 0 0 0 0 1
Nghost:    9685 ave 9720 max 9650 min
Histogram: 1 0 0 0 0 0 0 0 0 1
Neighs:    353090 ave 353780 max 352401 min
Histogram: 1 0 0 0 0 0 0 0 0 1

Total # of neighbors = 706181
Ave neighs/atom = 35.9343
Neighbor list builds = 9505
Dangerous builds not checked
Setting up Verlet run ...
  Unit style    : metal
  Current step  : 300000
  Time step     : 0.001
Per MPI rank memory allocation (min/avg/max) = 11.29 | 11.29 | 11.29 Mbytes
Step Temp Press TotEng PotEng Enthalpy 
  300000    1163.8908    437.31388   -77752.403   -80708.792   -77570.537 
  300495    1116.1937   -2.5840661    -77964.09   -80799.323   -77965.164 
Loop time of 30.8324 on 2 procs for 495 steps with 19652 atoms

[...]
Nghost:    9810.5 ave 9823 max 9798 min
Histogram: 1 0 0 0 0 0 0 0 0 1
Neighs:    346972 ave 347278 max 346666 min
Histogram: 1 0 0 0 0 0 0 0 0 1

Total # of neighbors = 693944
Ave neighs/atom = 35.3116
Neighbor list builds = 9505
Dangerous builds not checked
Setting up Verlet run ...
  Unit style    : metal
  Current step  : 440000
  Time step     : 0.001
Per MPI rank memory allocation (min/avg/max) = 11.29 | 11.29 | 11.29 Mbytes
Step Temp Press TotEng PotEng Enthalpy 
  440000     447.9185   -502.28602   -83046.777   -84184.531   -83247.006 
  440495    421.14974   -380.43811   -83199.143   -84268.902   -83350.566 
Loop time of 27.1312 on 2 procs for 495 steps with 19652 atoms

Performance: 1.576 ns/day, 15.225 hours/ns, 18.245 timesteps/s
99.9% CPU use with 2 MPI tasks x no OpenMP threads

MPI task timing breakdown:
Section |  min time  |  avg time  |  max time  |%varavg| %total
---------------------------------------------------------------
Pair    | 13.62      | 13.718     | 13.816     |   2.6 | 50.56
Neigh   | 11.928     | 11.941     | 11.953     |   0.4 | 44.01
Comm    | 0.77899    | 0.87209    | 0.96519    |  10.0 |  3.21
Output  | 9.7036e-05 | 0.00016105 | 0.00022507 |   0.0 |  0.00
Modify  | 0.46115    | 0.46822    | 0.47528    |   1.0 |  1.73
Other   |            | 0.1324     |            |       |  0.49

Nlocal:    9826 ave 9828 max 9824 min
Histogram: 1 0 0 0 0 0 0 0 0 1
Nghost:    9833 ave 9857 max 9809 min
Histogram: 1 0 0 0 0 0 0 0 0 1
Neighs:    347076 ave 347216 max 346937 min
Histogram: 1 0 0 0 0 0 0 0 0 1

Total # of neighbors = 694153
Ave neighs/atom = 35.3223
Neighbor list builds = 495
Dangerous builds not checked
Setting up Verlet run ...
  Unit style    : metal
  Current step  : 440495
  Time step     : 0.001
Per MPI rank memory allocation (min/avg/max) = 11.29 | 11.29 | 11.29 Mbytes
Step Temp Press TotEng PotEng Enthalpy 
  440495    421.14974   -380.43811   -83199.143   -84268.902   -83350.566 
  450000    398.93965    -189.3638   -83317.494   -84330.837   -83392.741 
Loop time of 530.675 on 2 procs for 9505 steps with 19652 atoms

Performance: 1.548 ns/day, 15.509 hours/ns, 17.911 timesteps/s
99.2% CPU use with 2 MPI tasks x no OpenMP threads

MPI task timing breakdown:
Section |  min time  |  avg time  |  max time  |%varavg| %total
---------------------------------------------------------------
Pair    | 267.18     | 268.58     | 269.98     |   8.5 | 50.61
Neigh   | 229.29     | 231.3      | 233.32     |  13.2 | 43.59
Comm    | 18.508     | 19.174     | 19.841     |  15.2 |  3.61
Output  | 0.039355   | 0.039443   | 0.03953    |   0.0 |  0.01
Modify  | 9.0211     | 9.0555     | 9.0899     |   1.1 |  1.71
Other   |            | 2.523      |            |       |  0.48

Nlocal:    9826 ave 9841 max 9811 min
Histogram: 1 0 0 0 0 0 0 0 0 1
Nghost:    9853.5 ave 9858 max 9849 min
Histogram: 1 0 0 0 0 0 0 0 0 1
Neighs:    347406 ave 348256 max 346557 min
Histogram: 1 0 0 0 0 0 0 0 0 1

Total # of neighbors = 694813
Ave neighs/atom = 35.3558
Neighbor list builds = 9505
Dangerous builds not checked
Setting up Verlet run ...
  Unit style    : metal
  Current step  : 450000
  Time step     : 0.001
Per MPI rank memory allocation (min/avg/max) = 11.29 | 11.29 | 11.29 Mbytes
Step Temp Press TotEng PotEng Enthalpy 
  450000    398.93965    -189.3638   -83317.494   -84330.837   -83392.741 
  450495    371.29137   -108.63485   -83470.691   -84413.805   -83513.789 
Loop time of 26.9897 on 2 procs for 495 steps with 19652 atoms

Performance: 1.585 ns/day, 15.146 hours/ns, 18.340 timesteps/s
99.9% CPU use with 2 MPI tasks x no OpenMP threads

MPI task timing breakdown:
Section |  min time  |  avg time  |  max time  |%varavg| %total
---------------------------------------------------------------
Pair    | 13.645     | 13.651     | 13.658     |   0.2 | 50.58
Neigh   | 11.851     | 11.908     | 11.966     |   1.7 | 44.12
Comm    | 0.80723    | 0.8538     | 0.90036    |   5.0 |  3.16
Output  | 8.3923e-05 | 0.00024354 | 0.00040317 |   0.0 |  0.00
Modify  | 0.44358    | 0.44747    | 0.45136    |   0.6 |  1.66
Other   |            | 0.1286     |            |       |  0.48

Nlocal:    9826 ave 9829 max 9823 min
Histogram: 1 0 0 0 0 0 0 0 0 1
Nghost:    9835.5 ave 9880 max 9791 min
Histogram: 1 0 0 0 0 0 0 0 0 1
Neighs:    347268 ave 347342 max 347193 min
Histogram: 1 0 0 0 0 0 0 0 0 1

Total # of neighbors = 694535
Ave neighs/atom = 35.3417
Neighbor list builds = 495
Dangerous builds not checked
Setting up Verlet run ...
  Unit style    : metal
  Current step  : 450495
  Time step     : 0.001
Per MPI rank memory allocation (min/avg/max) = 11.29 | 11.29 | 11.29 Mbytes
Step Temp Press TotEng PotEng Enthalpy 
  450495    371.29137   -108.63485   -83470.691   -84413.805   -83513.789 
  460000    349.64805 -0.0057737169   -83593.148   -84481.286    -83593.15 
Loop time of 532.339 on 2 procs for 9505 steps with 19652 atoms

Performance: 1.543 ns/day, 15.557 hours/ns, 17.855 timesteps/s
99.0% CPU use with 2 MPI tasks x no OpenMP threads

MPI task timing breakdown:
Section |  min time  |  avg time  |  max time  |%varavg| %total
---------------------------------------------------------------
Pair    | 269.99     | 270.87     | 271.75     |   5.3 | 50.88
Neigh   | 229.64     | 230.04     | 230.43     |   2.6 | 43.21
Comm    | 19.327     | 19.801     | 20.276     |  10.7 |  3.72
Output  | 0.036108   | 0.03618    | 0.036253   |   0.0 |  0.01
Modify  | 9.0647     | 9.0683     | 9.0719     |   0.1 |  1.70
Other   |            | 2.525      |            |       |  0.47

Nlocal:    9826 ave 9834 max 9818 min
Histogram: 1 0 0 0 0 0 0 0 0 1
Nghost:    9858 ave 9882 max 9834 min
Histogram: 1 0 0 0 0 0 0 0 0 1
Neighs:    347336 ave 347880 max 346791 min
Histogram: 1 0 0 0 0 0 0 0 0 1

Total # of neighbors = 694671
Ave neighs/atom = 35.3486
Neighbor list builds = 9505
Dangerous builds not checked
Setting up Verlet run ...
  Unit style    : metal
  Current step  : 460000
  Time step     : 0.001
Per MPI rank memory allocation (min/avg/max) = 11.29 | 11.29 | 11.29 Mbytes
Step Temp Press TotEng PotEng Enthalpy 
  460000    349.64805 -0.0057737169   -83593.148   -84481.286    -83593.15 
  460495    321.03036    46.602683   -83735.994   -84551.441   -83717.547 
Loop time of 26.4543 on 2 procs for 495 steps with 19652 atoms

Performance: 1.617 ns/day, 14.845 hours/ns, 18.712 timesteps/s
99.9% CPU use with 2 MPI tasks x no OpenMP threads

MPI task timing breakdown:
Section |  min time  |  avg time  |  max time  |%varavg| %total
---------------------------------------------------------------
Pair    | 13.282     | 13.292     | 13.301     |   0.3 | 50.24
Neigh   | 11.623     | 11.661     | 11.699     |   1.1 | 44.08
Comm    | 0.87227    | 0.92399    | 0.97571    |   5.4 |  3.49
Output  | 8.6069e-05 | 0.00012648 | 0.00016689 |   0.0 |  0.00
Modify  | 0.45004    | 0.45234    | 0.45464    |   0.3 |  1.71
Other   |            | 0.1252     |            |       |  0.47

Nlocal:    9826 ave 9833 max 9819 min
Histogram: 1 0 0 0 0 0 0 0 0 1
Nghost:    9862.5 ave 9876 max 9849 min
Histogram: 1 0 0 0 0 0 0 0 0 1
Neighs:    347408 ave 347494 max 347322 min
Histogram: 1 0 0 0 0 0 0 0 0 1

Total # of neighbors = 694816
Ave neighs/atom = 35.356
Neighbor list builds = 495
Dangerous builds not checked
Setting up Verlet run ...
  Unit style    : metal
  Current step  : 460495
  Time step     : 0.001
Per MPI rank memory allocation (min/avg/max) = 11.29 | 11.29 | 11.29 Mbytes
Step Temp Press TotEng PotEng Enthalpy 
  460495    321.03036    46.602683   -83735.994   -84551.441   -83717.547 
  470000      299.197   -218.30239   -83857.819   -84617.806   -83944.166 
Loop time of 530.843 on 2 procs for 9505 steps with 19652 atoms

Performance: 1.547 ns/day, 15.514 hours/ns, 17.905 timesteps/s
99.1% CPU use with 2 MPI tasks x no OpenMP threads

MPI task timing breakdown:
Section |  min time  |  avg time  |  max time  |%varavg| %total
---------------------------------------------------------------
Pair    | 267.15     | 268.52     | 269.89     |   8.4 | 50.58
Neigh   | 226.33     | 226.7      | 227.07     |   2.5 | 42.71
Comm    | 22.264     | 23.291     | 24.318     |  21.3 |  4.39
Output  | 0.038833   | 0.038932   | 0.039031   |   0.1 |  0.01
Modify  | 9.7478     | 9.7805     | 9.8132     |   1.0 |  1.84
Other   |            | 2.514      |            |       |  0.47

Nlocal:    9826 ave 9836 max 9816 min
Histogram: 1 0 0 0 0 0 0 0 0 1
Nghost:    9843 ave 9851 max 9835 min
Histogram: 1 0 0 0 0 0 0 0 0 1
Neighs:    346857 ave 347111 max 346603 min
Histogram: 1 0 0 0 0 0 0 0 0 1

Total # of neighbors = 693714
Ave neighs/atom = 35.2999
Neighbor list builds = 9505
Dangerous builds not checked
Setting up Verlet run ...
  Unit style    : metal
  Current step  : 470000
  Time step     : 0.001
Per MPI rank memory allocation (min/avg/max) = 11.29 | 11.29 | 11.29 Mbytes
Step Temp Press TotEng PotEng Enthalpy 
  470000      299.197   -218.30239   -83857.819   -84617.806   -83944.166 
  470495    273.17376    192.64403   -83998.441   -84692.328   -83922.401 
Loop time of 27.3063 on 2 procs for 495 steps with 19652 atoms

Performance: 1.566 ns/day, 15.323 hours/ns, 18.128 timesteps/s
99.6% CPU use with 2 MPI tasks x no OpenMP threads

MPI task timing breakdown:
Section |  min time  |  avg time  |  max time  |%varavg| %total
---------------------------------------------------------------
Pair    | 13.753     | 13.759     | 13.766     |   0.2 | 50.39
Neigh   | 11.611     | 11.743     | 11.875     |   3.9 | 43.00
Comm    | 1.0671     | 1.1928     | 1.3186     |  11.5 |  4.37
Output  | 8.7023e-05 | 0.00020456 | 0.0003221  |   0.0 |  0.00
Modify  | 0.47627    | 0.47847    | 0.48067    |   0.3 |  1.75
Other   |            | 0.1326     |            |       |  0.49

Nlocal:    9826 ave 9839 max 9813 min
Histogram: 1 0 0 0 0 0 0 0 0 1
Nghost:    9879 ave 9880 max 9878 min
Histogram: 1 0 0 0 0 0 0 0 0 1
Neighs:    347286 ave 347513 max 347060 min
Histogram: 1 0 0 0 0 0 0 0 0 1

Total # of neighbors = 694573
Ave neighs/atom = 35.3436
Neighbor list builds = 495
Dangerous builds not checked
Setting up Verlet run ...
  Unit style    : metal
  Current step  : 470495
  Time step     : 0.001
Per MPI rank memory allocation (min/avg/max) = 11.29 | 11.29 | 11.29 Mbytes
Step Temp Press TotEng PotEng Enthalpy 
  470495    273.17376    192.64403   -83998.441   -84692.328   -83922.401 
  480000    249.31446    92.421512   -84128.839   -84762.121   -84092.385 
Loop time of 523.893 on 2 procs for 9505 steps with 19652 atoms

Performance: 1.568 ns/day, 15.310 hours/ns, 18.143 timesteps/s
99.2% CPU use with 2 MPI tasks x no OpenMP threads

MPI task timing breakdown:
Section |  min time  |  avg time  |  max time  |%varavg| %total
---------------------------------------------------------------
Pair    | 265.5      | 265.77     | 266.05     |   1.7 | 50.73
Neigh   | 224.38     | 225.16     | 225.94     |   5.2 | 42.98
Comm    | 20.938     | 21.452     | 21.965     |  11.1 |  4.09
Output  | 0.0372     | 0.037215   | 0.03723    |   0.0 |  0.01
Modify  | 8.9916     | 8.9945     | 8.9973     |   0.1 |  1.72
Other   |            | 2.48       |            |       |  0.47

Nlocal:    9826 ave 9831 max 9821 min
Histogram: 1 0 0 0 0 0 0 0 0 1
Nghost:    9893 ave 9909 max 9877 min
Histogram: 1 0 0 0 0 0 0 0 0 1
Neighs:    347148 ave 347291 max 347005 min
Histogram: 1 0 0 0 0 0 0 0 0 1

Total # of neighbors = 694296
Ave neighs/atom = 35.3295
Neighbor list builds = 9505
Dangerous builds not checked
Setting up Verlet run ...
  Unit style    : metal
  Current step  : 480000
  Time step     : 0.001
Per MPI rank memory allocation (min/avg/max) = 11.29 | 11.29 | 11.29 Mbytes
Step Temp Press TotEng PotEng Enthalpy 
  480000    249.31446    92.421512   -84128.839   -84762.121   -84092.385 
  480495     223.5559   -32.544205   -84257.078    -84824.93   -84269.904 
Loop time of 26.9936 on 2 procs for 495 steps with 19652 atoms

Performance: 1.584 ns/day, 15.148 hours/ns, 18.338 timesteps/s
99.7% CPU use with 2 MPI tasks x no OpenMP threads

MPI task timing breakdown:
Section |  min time  |  avg time  |  max time  |%varavg| %total
---------------------------------------------------------------
Pair    | 13.547     | 13.655     | 13.762     |   2.9 | 50.58
Neigh   | 11.559     | 11.763     | 11.966     |   5.9 | 43.58
Comm    | 0.87301    | 0.9781     | 1.0832     |  10.6 |  3.62
Output  | 0.00010204 | 0.00016451 | 0.00022697 |   0.0 |  0.00
Modify  | 0.45861    | 0.46677    | 0.47494    |   1.2 |  1.73
Other   |            | 0.1313     |            |       |  0.49

Nlocal:    9826 ave 9831 max 9821 min
Histogram: 1 0 0 0 0 0 0 0 0 1
Nghost:    9898 ave 9916 max 9880 min
Histogram: 1 0 0 0 0 0 0 0 0 1
Neighs:    346710 ave 346780 max 346639 min
Histogram: 1 0 0 0 0 0 0 0 0 1

Total # of neighbors = 693419
Ave neighs/atom = 35.2849
Neighbor list builds = 495
Dangerous builds not checked
Setting up Verlet run ...
  Unit style    : metal
  Current step  : 480495
  Time step     : 0.001
Per MPI rank memory allocation (min/avg/max) = 11.29 | 11.29 | 11.29 Mbytes
Step Temp Press TotEng PotEng Enthalpy 
  480495     223.5559   -32.544205   -84257.078    -84824.93   -84269.904 
  490000    200.32845     7.241793   -84381.266   -84890.119   -84378.416 
Loop time of 523.894 on 2 procs for 9505 steps with 19652 atoms

Performance: 1.568 ns/day, 15.310 hours/ns, 18.143 timesteps/s
98.9% CPU use with 2 MPI tasks x no OpenMP threads

MPI task timing breakdown:
Section |  min time  |  avg time  |  max time  |%varavg| %total
---------------------------------------------------------------
Pair    | 264.48     | 265.01     | 265.55     |   3.3 | 50.59
Neigh   | 224.05     | 224.47     | 224.88     |   2.8 | 42.85
Comm    | 21.2       | 21.857     | 22.513     |  14.0 |  4.17
Output  | 0.037436   | 0.037465   | 0.037494   |   0.0 |  0.01
Modify  | 9.7434     | 10.036     | 10.328     |   9.2 |  1.92
Other   |            | 2.48       |            |       |  0.47

Nlocal:    9826 ave 9835 max 9817 min
Histogram: 1 0 0 0 0 0 0 0 0 1
Nghost:    9892.5 ave 9921 max 9864 min
Histogram: 1 0 0 0 0 0 0 0 0 1
Neighs:    346728 ave 347102 max 346354 min
Histogram: 1 0 0 0 0 0 0 0 0 1

Total # of neighbors = 693456
Ave neighs/atom = 35.2868
Neighbor list builds = 9505
Dangerous builds not checked
Setting up Verlet run ...
  Unit style    : metal
  Current step  : 490000
  Time step     : 0.001
Per MPI rank memory allocation (min/avg/max) = 11.29 | 11.29 | 11.29 Mbytes
Step Temp Press TotEng PotEng Enthalpy 
  490000    200.32845     7.241793   -84381.266   -84890.119   -84378.416 
  490495    175.82103    42.941894   -84508.475   -84955.076    -84491.59 
Loop time of 26.8288 on 2 procs for 495 steps with 19652 atoms

Performance: 1.594 ns/day, 15.055 hours/ns, 18.450 timesteps/s
98.7% CPU use with 2 MPI tasks x no OpenMP threads

MPI task timing breakdown:
Section |  min time  |  avg time  |  max time  |%varavg| %total
---------------------------------------------------------------
Pair    | 13.639     | 13.692     | 13.746     |   1.4 | 51.04
Neigh   | 11.623     | 11.629     | 11.634     |   0.2 | 43.34
Comm    | 0.86359    | 0.91359    | 0.96359    |   5.2 |  3.41
Output  | 0.0001111  | 0.00021815 | 0.0003252  |   0.0 |  0.00
Modify  | 0.46239    | 0.4644     | 0.46642    |   0.3 |  1.73
Other   |            | 0.1296     |            |       |  0.48

Nlocal:    9826 ave 9833 max 9819 min
Histogram: 1 0 0 0 0 0 0 0 0 1
Nghost:    9876 ave 9888 max 9864 min
Histogram: 1 0 0 0 0 0 0 0 0 1
Neighs:    346804 ave 346811 max 346797 min
Histogram: 1 0 0 0 0 0 0 0 0 1

Total # of neighbors = 693608
Ave neighs/atom = 35.2945
Neighbor list builds = 495
Dangerous builds not checked
Setting up Verlet run ...
  Unit style    : metal
  Current step  : 490495
  Time step     : 0.001
Per MPI rank memory allocation (min/avg/max) = 11.29 | 11.29 | 11.29 Mbytes
Step Temp Press TotEng PotEng Enthalpy 
  490495    175.82103    42.941894   -84508.475   -84955.076    -84491.59 
  500000    150.60194     -49.3218   -84641.347    -85023.89   -84660.717 
Loop time of 521.538 on 2 procs for 9505 steps with 19652 atoms

Performance: 1.575 ns/day, 15.242 hours/ns, 18.225 timesteps/s
98.1% CPU use with 2 MPI tasks x no OpenMP threads

MPI task timing breakdown:
Section |  min time  |  avg time  |  max time  |%varavg| %total
---------------------------------------------------------------
Pair    | 262.42     | 263.33     | 264.25     |   5.6 | 50.49
Neigh   | 224.26     | 224.39     | 224.52     |   0.9 | 43.03
Comm    | 21.521     | 22.348     | 23.175     |  17.5 |  4.29
Output  | 0.035862   | 0.035887   | 0.035911   |   0.0 |  0.01
Modify  | 8.9379     | 8.992      | 9.0461     |   1.8 |  1.72
Other   |            | 2.437      |            |       |  0.47

Nlocal:    9826 ave 9829 max 9823 min
Histogram: 1 0 0 0 0 0 0 0 0 1
Nghost:    9888.5 ave 9903 max 9874 min
Histogram: 1 0 0 0 0 0 0 0 0 1
Neighs:    346380 ave 346593 max 346166 min
Histogram: 1 0 0 0 0 0 0 0 0 1

Total # of neighbors = 692759
Ave neighs/atom = 35.2513
Neighbor list builds = 9505
Dangerous builds not checked
Setting up Verlet run ...
  Unit style    : metal
  Current step  : 500000
  Time step     : 0.001
Per MPI rank memory allocation (min/avg/max) = 11.29 | 11.29 | 11.29 Mbytes
Step Temp Press TotEng PotEng Enthalpy 
  500000    150.60194     -49.3218   -84641.347    -85023.89   -84660.717 
  500495    126.56433    20.062057   -84759.787   -85081.272   -84751.917 
Loop time of 26.4977 on 2 procs for 495 steps with 19652 atoms

Performance: 1.614 ns/day, 14.870 hours/ns, 18.681 timesteps/s
98.4% CPU use with 2 MPI tasks x no OpenMP threads

MPI task timing breakdown:
Section |  min time  |  avg time  |  max time  |%varavg| %total
---------------------------------------------------------------
Pair    | 13.316     | 13.359     | 13.402     |   1.2 | 50.42
Neigh   | 11.214     | 11.301     | 11.388     |   2.6 | 42.65
Comm    | 1.2229     | 1.2671     | 1.3112     |   3.9 |  4.78
Output  | 9.5844e-05 | 0.00019991 | 0.00030398 |   0.0 |  0.00
Modify  | 0.44847    | 0.44863    | 0.4488     |   0.0 |  1.69
Other   |            | 0.1216     |            |       |  0.46

Nlocal:    9826 ave 9834 max 9818 min
Histogram: 1 0 0 0 0 0 0 0 0 1
Nghost:    9883.5 ave 9899 max 9868 min
Histogram: 1 0 0 0 0 0 0 0 0 1
Neighs:    346426 ave 346460 max 346391 min
Histogram: 1 0 0 0 0 0 0 0 0 1

Total # of neighbors = 692851
Ave neighs/atom = 35.256
Neighbor list builds = 495
Dangerous builds not checked
Setting up Verlet run ...
  Unit style    : metal
  Current step  : 500495
  Time step     : 0.001
Per MPI rank memory allocation (min/avg/max) = 11.29 | 11.29 | 11.29 Mbytes
Step Temp Press TotEng PotEng Enthalpy 
  500495    126.56433    20.062057   -84759.787   -85081.272   -84751.917 
  510000    99.980849    52.730004   -84901.119   -85155.079   -84880.463 
Loop time of 510.196 on 2 procs for 9505 steps with 19652 atoms

Performance: 1.610 ns/day, 14.910 hours/ns, 18.630 timesteps/s
96.3% CPU use with 2 MPI tasks x no OpenMP threads

MPI task timing breakdown:
Section |  min time  |  avg time  |  max time  |%varavg| %total
---------------------------------------------------------------
Pair    | 254.99     | 255.03     | 255.07     |   0.2 | 49.99
Neigh   | 219.12     | 219.17     | 219.22     |   0.3 | 42.96
Comm    | 24.424     | 24.455     | 24.486     |   0.6 |  4.79
Output  | 0.071895   | 0.071907   | 0.071918   |   0.0 |  0.01
Modify  | 9.1331     | 9.1992     | 9.2654     |   2.2 |  1.80
Other   |            | 2.275      |            |       |  0.45

Nlocal:    9826 ave 9828 max 9824 min
Histogram: 1 0 0 0 0 0 0 0 0 1
Nghost:    9881.5 ave 9900 max 9863 min
Histogram: 1 0 0 0 0 0 0 0 0 1
Neighs:    346324 ave 346744 max 345905 min
Histogram: 1 0 0 0 0 0 0 0 0 1

Total # of neighbors = 692649
Ave neighs/atom = 35.2457
Neighbor list builds = 9505
Dangerous builds not checked
Total wall time: 8:34:44
