LAMMPS (12 Dec 2018)
Lattice spacing in x,y,z = 4 4 4
Created orthogonal box = (0 0 0) to (68 68 68)
  1 by 1 by 2 MPI processor grid
Created 19652 atoms
  Time spent = 0.00152302 secs
Setting atom values ...
  417 settings made for type/fraction
Neighbor list info ...
  update every 1 steps, delay 0 steps, check no
  max neighbors/atom: 2000, page size: 100000
  master list distance cutoff = 8.5
  ghost atom cutoff = 8.5
  binsize = 4.25, bins = 16 16 16
  1 neighbor lists, perpetual/occasional/extra = 1 0 0
  (1) pair eam/alloy, perpetual
      attributes: half, newton on
      pair build: half/bin/atomonly/newton
      stencil: half/bin/3d/newton
      bin: standard
Setting up Verlet run ...
  Unit style    : metal
  Current step  : 0
  Time step     : 0.001
Per MPI rank memory allocation (min/avg/max) = 11.15 | 11.15 | 11.15 Mbytes
Step Temp Press TotEng PotEng Enthalpy 
       0          300    625888.74   -102533.85   -103295.88     20298.71 
    1000    215.67914    567153.43    -102533.8   -103081.65    8771.7811 
Loop time of 94.1147 on 2 procs for 1000 steps with 19652 atoms

Performance: 0.918 ns/day, 26.143 hours/ns, 10.625 timesteps/s
98.7% CPU use with 2 MPI tasks x no OpenMP threads

MPI task timing breakdown:
Section |  min time  |  avg time  |  max time  |%varavg| %total
---------------------------------------------------------------
Pair    | 54.47      | 54.551     | 54.632     |   1.1 | 57.96
Neigh   | 34.621     | 34.622     | 34.624     |   0.0 | 36.79
Comm    | 4.3809     | 4.4619     | 4.543      |   3.8 |  4.74
Output  | 0.00016689 | 0.00028193 | 0.00039697 |   0.0 |  0.00
Modify  | 0.24325    | 0.24462    | 0.24598    |   0.3 |  0.26
Other   |            | 0.2347     |            |       |  0.25

Nlocal:    9826 ave 9833 max 9819 min
Histogram: 1 0 0 0 0 0 0 0 0 1
Nghost:    14112 ave 14144 max 14080 min
Histogram: 1 0 0 0 0 0 0 0 0 1
Neighs:    782680 ave 783437 max 781924 min
Histogram: 1 0 0 0 0 0 0 0 0 1

Total # of neighbors = 1565361
Ave neighs/atom = 79.654
Neighbor list builds = 1000
Dangerous builds not checked
Setting up Verlet run ...
  Unit style    : metal
  Current step  : 1000
  Time step     : 0.001
Per MPI rank memory allocation (min/avg/max) = 11.15 | 11.15 | 11.15 Mbytes
Step Temp Press TotEng PotEng Enthalpy 
    1000    215.67914    567153.43    -102533.8   -103081.65    8771.7811 
    2000    301.86685   -5.6956399   -121197.48   -121964.25    -121199.1 
Loop time of 78.1645 on 2 procs for 1000 steps with 19652 atoms

Performance: 1.105 ns/day, 21.712 hours/ns, 12.794 timesteps/s
99.9% CPU use with 2 MPI tasks x no OpenMP threads

MPI task timing breakdown:
Section |  min time  |  avg time  |  max time  |%varavg| %total
---------------------------------------------------------------
Pair    | 43.351     | 43.507     | 43.663     |   2.4 | 55.66
Neigh   | 28.441     | 29.774     | 31.108     |  24.4 | 38.09
Comm    | 2.3373     | 3.8544     | 5.3716     |  77.3 |  4.93
Output  | 0.00010991 | 0.00016546 | 0.00022101 |   0.0 |  0.00
Modify  | 0.7868     | 0.80747    | 0.82815    |   2.3 |  1.03
Other   |            | 0.2207     |            |       |  0.28

Nlocal:    9826 ave 9862 max 9790 min
Histogram: 1 0 0 0 0 0 0 0 0 1
Nghost:    10349.5 ave 10387 max 10312 min
Histogram: 1 0 0 0 0 0 0 0 0 1
Neighs:    555757 ave 557815 max 553699 min
Histogram: 1 0 0 0 0 0 0 0 0 1

Total # of neighbors = 1111514
Ave neighs/atom = 56.5598
Neighbor list builds = 1000
Dangerous builds not checked
Setting up Verlet run ...
  Unit style    : metal
  Current step  : 2000
  Time step     : 0.001
Per MPI rank memory allocation (min/avg/max) = 11.15 | 11.15 | 11.15 Mbytes
Step Temp Press TotEng PotEng Enthalpy 
    2000    301.86685   -5.6956399   -121197.48   -121964.25    -121199.1 
   10000    2441.7384    486.13535   -105979.59   -112181.82    -105832.3 
Loop time of 593.732 on 2 procs for 8000 steps with 19652 atoms

Performance: 1.164 ns/day, 20.616 hours/ns, 13.474 timesteps/s
97.5% CPU use with 2 MPI tasks x no OpenMP threads

MPI task timing breakdown:
Section |  min time  |  avg time  |  max time  |%varavg| %total
---------------------------------------------------------------
Pair    | 328.39     | 329.08     | 329.78     |   3.8 | 55.43
Neigh   | 223.99     | 224.08     | 224.17     |   0.6 | 37.74
Comm    | 30.767     | 31.566     | 32.365     |  14.2 |  5.32
Output  | 0.033494   | 0.033515   | 0.033536   |   0.0 |  0.01
Modify  | 7.156      | 7.172      | 7.1881     |   0.6 |  1.21
Other   |            | 1.795      |            |       |  0.30

Nlocal:    9826 ave 9835 max 9817 min
Histogram: 1 0 0 0 0 0 0 0 0 1
Nghost:    11008 ave 11033 max 10983 min
Histogram: 1 0 0 0 0 0 0 0 0 1
Neighs:    506354 ave 507032 max 505677 min
Histogram: 1 0 0 0 0 0 0 0 0 1

Total # of neighbors = 1012709
Ave neighs/atom = 51.5321
Neighbor list builds = 8000
Dangerous builds not checked
Setting up Verlet run ...
  Unit style    : metal
  Current step  : 10000
  Time step     : 0.001
Per MPI rank memory allocation (min/avg/max) = 11.17 | 11.17 | 11.17 Mbytes
Step Temp Press TotEng PotEng Enthalpy 
   10000    2441.7384    486.13535   -105979.59   -112181.82    -105832.3 
   20000    2438.4194   -883.72825   -105934.13   -112127.93   -106202.47 
   30000    2449.5884   -184.60722   -105951.26   -112173.44   -106007.23 
   40000    2449.5905    971.21329   -105822.73   -112044.92    -105528.4 
Loop time of 2336.34 on 2 procs for 30000 steps with 19652 atoms

Performance: 1.109 ns/day, 21.633 hours/ns, 12.841 timesteps/s
99.3% CPU use with 2 MPI tasks x no OpenMP threads

MPI task timing breakdown:
Section |  min time  |  avg time  |  max time  |%varavg| %total
---------------------------------------------------------------
Pair    | 1282.4     | 1283.8     | 1285.3     |   4.1 | 54.95
Neigh   | 906.04     | 911.69     | 917.34     |  18.7 | 39.02
Comm    | 100.95     | 108.41     | 115.87     |  71.7 |  4.64
Output  | 0.10448    | 0.10462    | 0.10477    |   0.0 |  0.00
Modify  | 25.053     | 25.354     | 25.656     |   6.0 |  1.09
Other   |            | 6.942      |            |       |  0.30

Nlocal:    9826 ave 9832 max 9820 min
Histogram: 1 0 0 0 0 0 0 0 0 1
Nghost:    10926 ave 10929 max 10923 min
Histogram: 1 0 0 0 0 0 0 0 0 1
Neighs:    506154 ave 506277 max 506030 min
Histogram: 1 0 0 0 0 0 0 0 0 1

Total # of neighbors = 1012307
Ave neighs/atom = 51.5117
Neighbor list builds = 30000
Dangerous builds not checked
Setting up Verlet run ...
  Unit style    : metal
  Current step  : 40000
  Time step     : 0.001
Per MPI rank memory allocation (min/avg/max) = 11.22 | 11.22 | 11.22 Mbytes
Step Temp Press TotEng PotEng Enthalpy 
   40000    2449.5905    971.21329   -105822.73   -112044.92    -105528.4 
   40495     2406.783    1248.3114   -106069.81   -112183.26   -105692.44 
Loop time of 35.959 on 2 procs for 495 steps with 19652 atoms

Performance: 1.189 ns/day, 20.179 hours/ns, 13.766 timesteps/s
99.9% CPU use with 2 MPI tasks x no OpenMP threads

MPI task timing breakdown:
Section |  min time  |  avg time  |  max time  |%varavg| %total
---------------------------------------------------------------
Pair    | 19.521     | 19.547     | 19.574     |   0.6 | 54.36
Neigh   | 14.093     | 14.224     | 14.355     |   3.5 | 39.55
Comm    | 1.5124     | 1.6728     | 1.8333     |  12.4 |  4.65
Output  | 8.7976e-05 | 0.00013292 | 0.00017786 |   0.0 |  0.00
Modify  | 0.40063    | 0.40213    | 0.40362    |   0.2 |  1.12
Other   |            | 0.1133     |            |       |  0.32

Nlocal:    9826 ave 9829 max 9823 min
Histogram: 1 0 0 0 0 0 0 0 0 1
Nghost:    10999.5 ave 11002 max 10997 min
Histogram: 1 0 0 0 0 0 0 0 0 1
Neighs:    507419 ave 507557 max 507281 min
Histogram: 1 0 0 0 0 0 0 0 0 1

Total # of neighbors = 1014838
Ave neighs/atom = 51.6404
Neighbor list builds = 495
Dangerous builds not checked
Setting up Verlet run ...
  Unit style    : metal
  Current step  : 40495
  Time step     : 0.001
Per MPI rank memory allocation (min/avg/max) = 11.22 | 11.22 | 11.22 Mbytes
Step Temp Press TotEng PotEng Enthalpy 
   40495     2406.783    1248.3114   -106069.81   -112183.26   -105692.44 
   50000    2389.0298    172.22881   -106291.86   -112360.21   -106239.76 
Loop time of 758.455 on 2 procs for 9505 steps with 19652 atoms

Performance: 1.083 ns/day, 22.165 hours/ns, 12.532 timesteps/s
98.0% CPU use with 2 MPI tasks x no OpenMP threads

MPI task timing breakdown:
Section |  min time  |  avg time  |  max time  |%varavg| %total
---------------------------------------------------------------
Pair    | 417.25     | 418.08     | 418.9      |   4.1 | 55.12
Neigh   | 290.51     | 291.69     | 292.87     |   6.9 | 38.46
Comm    | 37.326     | 37.672     | 38.019     |   5.6 |  4.97
Output  | 0.037404   | 0.037423   | 0.037441   |   0.0 |  0.00
Modify  | 8.7346     | 8.746      | 8.7575     |   0.4 |  1.15
Other   |            | 2.234      |            |       |  0.29

Nlocal:    9826 ave 9839 max 9813 min
Histogram: 1 0 0 0 0 0 0 0 0 1
Nghost:    10985.5 ave 10996 max 10975 min
Histogram: 1 0 0 0 0 0 0 0 0 1
Neighs:    507212 ave 508238 max 506185 min
Histogram: 1 0 0 0 0 0 0 0 0 1

Total # of neighbors = 1014423
Ave neighs/atom = 51.6193
Neighbor list builds = 9505
Dangerous builds not checked
Setting up Verlet run ...
  Unit style    : metal
  Current step  : 50000
  Time step     : 0.001
Per MPI rank memory allocation (min/avg/max) = 11.23 | 11.23 | 11.23 Mbytes
Step Temp Press TotEng PotEng Enthalpy 
   50000    2389.0298    172.22881   -106291.86   -112360.21   -106239.76 
   50495    2362.8791   -480.06883   -106410.15   -112412.08   -106555.33 
Loop time of 37.8041 on 2 procs for 495 steps with 19652 atoms

Performance: 1.131 ns/day, 21.214 hours/ns, 13.094 timesteps/s
98.7% CPU use with 2 MPI tasks x no OpenMP threads

MPI task timing breakdown:
Section |  min time  |  avg time  |  max time  |%varavg| %total
---------------------------------------------------------------
Pair    | 20.371     | 20.413     | 20.455     |   0.9 | 54.00
Neigh   | 14.645     | 14.874     | 15.103     |   5.9 | 39.35
Comm    | 1.3779     | 1.5712     | 1.7644     |  15.4 |  4.16
Output  | 8.0109e-05 | 0.00012565 | 0.00017118 |   0.0 |  0.00
Modify  | 0.82388    | 0.82831    | 0.83275    |   0.5 |  2.19
Other   |            | 0.1177     |            |       |  0.31

Nlocal:    9826 ave 9832 max 9820 min
Histogram: 1 0 0 0 0 0 0 0 0 1
Nghost:    11055.5 ave 11094 max 11017 min
Histogram: 1 0 0 0 0 0 0 0 0 1
Neighs:    507273 ave 507784 max 506762 min
Histogram: 1 0 0 0 0 0 0 0 0 1

Total # of neighbors = 1014546
Ave neighs/atom = 51.6256
Neighbor list builds = 495
Dangerous builds not checked
Setting up Verlet run ...
  Unit style    : metal
  Current step  : 50495
  Time step     : 0.001
Per MPI rank memory allocation (min/avg/max) = 11.23 | 11.23 | 11.23 Mbytes
Step Temp Press TotEng PotEng Enthalpy 
   50495    2362.8791   -480.06883   -106410.15   -112412.08   -106555.33 
   60000    2351.4226   -426.42286   -106407.64   -112380.47   -106536.59 
Loop time of 740.976 on 2 procs for 9505 steps with 19652 atoms

Performance: 1.108 ns/day, 21.655 hours/ns, 12.828 timesteps/s
99.5% CPU use with 2 MPI tasks x no OpenMP threads

MPI task timing breakdown:
Section |  min time  |  avg time  |  max time  |%varavg| %total
---------------------------------------------------------------
Pair    | 407.5      | 408.81     | 410.11     |   6.5 | 55.17
Neigh   | 288.83     | 289.18     | 289.53     |   2.1 | 39.03
Comm    | 31.069     | 32.755     | 34.44      |  29.4 |  4.42
Output  | 0.032293   | 0.032311   | 0.03233    |   0.0 |  0.00
Modify  | 7.9543     | 7.9851     | 8.016      |   1.1 |  1.08
Other   |            | 2.219      |            |       |  0.30

Nlocal:    9826 ave 9856 max 9796 min
Histogram: 1 0 0 0 0 0 0 0 0 1
Nghost:    11005 ave 11062 max 10948 min
Histogram: 1 0 0 0 0 0 0 0 0 1
Neighs:    507228 ave 508833 max 505624 min
Histogram: 1 0 0 0 0 0 0 0 0 1

Total # of neighbors = 1014457
Ave neighs/atom = 51.6211
Neighbor list builds = 9505
Dangerous builds not checked
Setting up Verlet run ...
  Unit style    : metal
  Current step  : 60000
  Time step     : 0.001
Per MPI rank memory allocation (min/avg/max) = 11.24 | 11.24 | 11.24 Mbytes
Step Temp Press TotEng PotEng Enthalpy 
   60000    2351.4226   -426.42286   -106407.64   -112380.47   -106536.59 
   60495    2315.3337   -123.73264   -106679.16   -112560.32    -106716.5 
Loop time of 36.9343 on 2 procs for 495 steps with 19652 atoms

Performance: 1.158 ns/day, 20.726 hours/ns, 13.402 timesteps/s
99.9% CPU use with 2 MPI tasks x no OpenMP threads

MPI task timing breakdown:
Section |  min time  |  avg time  |  max time  |%varavg| %total
---------------------------------------------------------------
Pair    | 20.169     | 20.17      | 20.171     |   0.0 | 54.61
Neigh   | 14.378     | 14.633     | 14.888     |   6.7 | 39.62
Comm    | 1.3361     | 1.5923     | 1.8485     |  20.3 |  4.31
Output  | 7.4148e-05 | 0.00016165 | 0.00024915 |   0.0 |  0.00
Modify  | 0.4221     | 0.42388    | 0.42565    |   0.3 |  1.15
Other   |            | 0.1151     |            |       |  0.31

Nlocal:    9826 ave 9827 max 9825 min
Histogram: 1 0 0 0 0 0 0 0 0 1
Nghost:    11050 ave 11057 max 11043 min
Histogram: 1 0 0 0 0 0 0 0 0 1
Neighs:    508348 ave 508834 max 507863 min
Histogram: 1 0 0 0 0 0 0 0 0 1

Total # of neighbors = 1016697
Ave neighs/atom = 51.735
Neighbor list builds = 495
Dangerous builds not checked
Setting up Verlet run ...
  Unit style    : metal
  Current step  : 60495
  Time step     : 0.001
Per MPI rank memory allocation (min/avg/max) = 11.24 | 11.24 | 11.24 Mbytes
Step Temp Press TotEng PotEng Enthalpy 
   60495    2315.3337   -123.73264   -106679.16   -112560.32    -106716.5 
   70000    2249.6854   -1142.5805   -106911.19    -112625.6   -107256.25 
Loop time of 742.168 on 2 procs for 9505 steps with 19652 atoms

Performance: 1.107 ns/day, 21.689 hours/ns, 12.807 timesteps/s
99.4% CPU use with 2 MPI tasks x no OpenMP threads

MPI task timing breakdown:
Section |  min time  |  avg time  |  max time  |%varavg| %total
---------------------------------------------------------------
Pair    | 408.08     | 410.09     | 412.1      |   9.9 | 55.26
Neigh   | 288.75     | 288.81     | 288.87     |   0.4 | 38.91
Comm    | 31.043     | 33.025     | 35.008     |  34.5 |  4.45
Output  | 0.029266   | 0.029311   | 0.029356   |   0.0 |  0.00
Modify  | 7.9472     | 7.9861     | 8.025      |   1.4 |  1.08
Other   |            | 2.224      |            |       |  0.30

Nlocal:    9826 ave 9846 max 9806 min
Histogram: 1 0 0 0 0 0 0 0 0 1
Nghost:    11004 ave 11013 max 10995 min
Histogram: 1 0 0 0 0 0 0 0 0 1
Neighs:    508005 ave 510031 max 505979 min
Histogram: 1 0 0 0 0 0 0 0 0 1

Total # of neighbors = 1016010
Ave neighs/atom = 51.7001
Neighbor list builds = 9505
Dangerous builds not checked
Setting up Verlet run ...
  Unit style    : metal
  Current step  : 70000
  Time step     : 0.001
Per MPI rank memory allocation (min/avg/max) = 11.24 | 11.24 | 11.24 Mbytes
Step Temp Press TotEng PotEng Enthalpy 
   70000    2249.6854   -1142.5805   -106911.19    -112625.6   -107256.25 
   70495    2256.9136   -1889.9377   -106991.82   -112724.59   -107562.76 
Loop time of 35.0635 on 2 procs for 495 steps with 19652 atoms

Performance: 1.220 ns/day, 19.676 hours/ns, 14.117 timesteps/s
100.0% CPU use with 2 MPI tasks x no OpenMP threads

MPI task timing breakdown:
Section |  min time  |  avg time  |  max time  |%varavg| %total
---------------------------------------------------------------
Pair    | 18.884     | 18.949     | 19.015     |   1.5 | 54.04
Neigh   | 13.831     | 13.906     | 13.981     |   2.0 | 39.66
Comm    | 1.5633     | 1.7066     | 1.85       |  11.0 |  4.87
Output  | 7.4863e-05 | 0.00010252 | 0.00013018 |   0.0 |  0.00
Modify  | 0.39087    | 0.39248    | 0.39409    |   0.3 |  1.12
Other   |            | 0.1086     |            |       |  0.31

Nlocal:    9826 ave 9860 max 9792 min
Histogram: 1 0 0 0 0 0 0 0 0 1
Nghost:    10999 ave 11015 max 10983 min
Histogram: 1 0 0 0 0 0 0 0 0 1
Neighs:    508092 ave 510363 max 505820 min
Histogram: 1 0 0 0 0 0 0 0 0 1

Total # of neighbors = 1016183
Ave neighs/atom = 51.7089
Neighbor list builds = 495
Dangerous builds not checked
Setting up Verlet run ...
  Unit style    : metal
  Current step  : 70495
  Time step     : 0.001
Per MPI rank memory allocation (min/avg/max) = 11.24 | 11.24 | 11.24 Mbytes
Step Temp Press TotEng PotEng Enthalpy 
   70495    2256.9136   -1889.9377   -106991.82   -112724.59   -107562.76 
   80000    2255.9163    1458.3791   -107120.74   -112850.97   -106682.86 
Loop time of 810.468 on 2 procs for 9505 steps with 19652 atoms

Performance: 1.013 ns/day, 23.685 hours/ns, 11.728 timesteps/s
96.2% CPU use with 2 MPI tasks x no OpenMP threads

MPI task timing breakdown:
Section |  min time  |  avg time  |  max time  |%varavg| %total
---------------------------------------------------------------
Pair    | 446.61     | 449.02     | 451.42     |  11.3 | 55.40
Neigh   | 312.03     | 312.95     | 313.87     |   5.2 | 38.61
Comm    | 35.028     | 36.56      | 38.092     |  25.3 |  4.51
Output  | 0.03934    | 0.039376   | 0.039413   |   0.0 |  0.00
Modify  | 9.4574     | 9.5267     | 9.5959     |   2.2 |  1.18
Other   |            | 2.377      |            |       |  0.29

Nlocal:    9826 ave 9833 max 9819 min
Histogram: 1 0 0 0 0 0 0 0 0 1
Nghost:    11016.5 ave 11021 max 11012 min
Histogram: 1 0 0 0 0 0 0 0 0 1
Neighs:    511342 ave 512877 max 509808 min
Histogram: 1 0 0 0 0 0 0 0 0 1

Total # of neighbors = 1022685
Ave neighs/atom = 52.0397
Neighbor list builds = 9505
Dangerous builds not checked
Setting up Verlet run ...
  Unit style    : metal
  Current step  : 80000
  Time step     : 0.001
Per MPI rank memory allocation (min/avg/max) = 11.25 | 11.25 | 11.25 Mbytes
Step Temp Press TotEng PotEng Enthalpy 
   80000    2255.9163    1458.3791   -107120.74   -112850.97   -106682.86 
   80495    2199.4772    736.94385   -107327.06   -112913.93   -107105.78 
Loop time of 45.9586 on 2 procs for 495 steps with 19652 atoms

Performance: 0.931 ns/day, 25.790 hours/ns, 10.771 timesteps/s
91.1% CPU use with 2 MPI tasks x no OpenMP threads

MPI task timing breakdown:
Section |  min time  |  avg time  |  max time  |%varavg| %total
---------------------------------------------------------------
Pair    | 25.124     | 25.573     | 26.022     |   8.9 | 55.64
Neigh   | 17.237     | 17.262     | 17.287     |   0.6 | 37.56
Comm    | 2.0208     | 2.4387     | 2.8566     |  26.8 |  5.31
Output  | 0.00010109 | 0.00016212 | 0.00022316 |   0.0 |  0.00
Modify  | 0.53959    | 0.5445     | 0.5494     |   0.7 |  1.18
Other   |            | 0.1401     |            |       |  0.30

Nlocal:    9826 ave 9844 max 9808 min
Histogram: 1 0 0 0 0 0 0 0 0 1
Nghost:    10997.5 ave 11008 max 10987 min
Histogram: 1 0 0 0 0 0 0 0 0 1
Neighs:    511300 ave 513180 max 509421 min
Histogram: 1 0 0 0 0 0 0 0 0 1

Total # of neighbors = 1022601
Ave neighs/atom = 52.0355
Neighbor list builds = 495
Dangerous builds not checked
Setting up Verlet run ...
  Unit style    : metal
  Current step  : 80495
  Time step     : 0.001
Per MPI rank memory allocation (min/avg/max) = 11.25 | 11.25 | 11.25 Mbytes
Step Temp Press TotEng PotEng Enthalpy 
   80495    2199.4772    736.94385   -107327.06   -112913.93   -107105.78 
   90000    2190.0675    288.51678    -107455.1   -113018.07    -107368.5 
Loop time of 905.728 on 2 procs for 9505 steps with 19652 atoms

Performance: 0.907 ns/day, 26.469 hours/ns, 10.494 timesteps/s
90.8% CPU use with 2 MPI tasks x no OpenMP threads

MPI task timing breakdown:
Section |  min time  |  avg time  |  max time  |%varavg| %total
---------------------------------------------------------------
Pair    | 503.88     | 504.35     | 504.81     |   2.1 | 55.68
Neigh   | 338.5      | 339.01     | 339.52     |   2.8 | 37.43
Comm    | 47.697     | 48.715     | 49.732     |  14.6 |  5.38
Output  | 0.037652   | 0.037746   | 0.03784    |   0.0 |  0.00
Modify  | 10.92      | 10.971     | 11.023     |   1.6 |  1.21
Other   |            | 2.647      |            |       |  0.29

Nlocal:    9826 ave 9860 max 9792 min
Histogram: 1 0 0 0 0 0 0 0 0 1
Nghost:    11038 ave 11056 max 11020 min
Histogram: 1 0 0 0 0 0 0 0 0 1
Neighs:    511384 ave 513643 max 509124 min
Histogram: 1 0 0 0 0 0 0 0 0 1

Total # of neighbors = 1022767
Ave neighs/atom = 52.0439
Neighbor list builds = 9505
Dangerous builds not checked
Setting up Verlet run ...
  Unit style    : metal
  Current step  : 90000
  Time step     : 0.001
Per MPI rank memory allocation (min/avg/max) = 11.26 | 11.26 | 11.26 Mbytes
Step Temp Press TotEng PotEng Enthalpy 
   90000    2190.0675    288.51678    -107455.1   -113018.07    -107368.5 
   90495    2167.5564    400.09758   -107643.39   -113149.18   -107523.43 
Loop time of 46.1977 on 2 procs for 495 steps with 19652 atoms

Performance: 0.926 ns/day, 25.925 hours/ns, 10.715 timesteps/s
89.2% CPU use with 2 MPI tasks x no OpenMP threads

MPI task timing breakdown:
Section |  min time  |  avg time  |  max time  |%varavg| %total
---------------------------------------------------------------
Pair    | 25.25      | 25.378     | 25.507     |   2.6 | 54.93
Neigh   | 17.348     | 17.488     | 17.628     |   3.3 | 37.85
Comm    | 2.2976     | 2.5735     | 2.8493     |  17.2 |  5.57
Output  | 8.7023e-05 | 0.00013208 | 0.00017715 |   0.0 |  0.00
Modify  | 0.60869    | 0.61814    | 0.62759    |   1.2 |  1.34
Other   |            | 0.1398     |            |       |  0.30

Nlocal:    9826 ave 9834 max 9818 min
Histogram: 1 0 0 0 0 0 0 0 0 1
Nghost:    11015 ave 11032 max 10998 min
Histogram: 1 0 0 0 0 0 0 0 0 1
Neighs:    512144 ave 513237 max 511051 min
Histogram: 1 0 0 0 0 0 0 0 0 1

Total # of neighbors = 1024288
Ave neighs/atom = 52.1213
Neighbor list builds = 495
Dangerous builds not checked
Setting up Verlet run ...
  Unit style    : metal
  Current step  : 90495
  Time step     : 0.001
Per MPI rank memory allocation (min/avg/max) = 11.26 | 11.26 | 11.26 Mbytes
Step Temp Press TotEng PotEng Enthalpy 
   90495    2167.5564    400.09758   -107643.39   -113149.18   -107523.43 
  100000    2170.3715    171.21628   -107684.73   -113197.67   -107633.38 
Loop time of 959.16 on 2 procs for 9505 steps with 19652 atoms

Performance: 0.856 ns/day, 28.031 hours/ns, 9.910 timesteps/s
87.6% CPU use with 2 MPI tasks x no OpenMP threads

MPI task timing breakdown:
Section |  min time  |  avg time  |  max time  |%varavg| %total
---------------------------------------------------------------
Pair    | 531.16     | 531.82     | 532.47     |   2.8 | 55.45
Neigh   | 352.16     | 352.61     | 353.06     |   2.4 | 36.76
Comm    | 59.525     | 59.542     | 59.56      |   0.2 |  6.21
Output  | 0.055534   | 0.055569   | 0.055604   |   0.0 |  0.01
Modify  | 12.277     | 12.428     | 12.579     |   4.3 |  1.30
Other   |            | 2.708      |            |       |  0.28

Nlocal:    9826 ave 9835 max 9817 min
Histogram: 1 0 0 0 0 0 0 0 0 1
Nghost:    11047 ave 11065 max 11029 min
Histogram: 1 0 0 0 0 0 0 0 0 1
Neighs:    512046 ave 512754 max 511337 min
Histogram: 1 0 0 0 0 0 0 0 0 1

Total # of neighbors = 1024091
Ave neighs/atom = 52.1113
Neighbor list builds = 9505
Dangerous builds not checked
Setting up Verlet run ...
  Unit style    : metal
  Current step  : 100000
  Time step     : 0.001
Per MPI rank memory allocation (min/avg/max) = 11.26 | 11.26 | 11.26 Mbytes
Step Temp Press TotEng PotEng Enthalpy 
  100000    2170.3715    171.21628   -107684.73   -113197.67   -107633.38 
  100495    2116.3607    305.75208   -107941.74   -113317.49    -107850.2 
Loop time of 48.984 on 2 procs for 495 steps with 19652 atoms

Performance: 0.873 ns/day, 27.488 hours/ns, 10.105 timesteps/s
86.4% CPU use with 2 MPI tasks x no OpenMP threads

MPI task timing breakdown:
Section |  min time  |  avg time  |  max time  |%varavg| %total
---------------------------------------------------------------
Pair    | 26.371     | 26.515     | 26.659     |   2.8 | 54.13
Neigh   | 17.678     | 17.817     | 17.955     |   3.3 | 36.37
Comm    | 3.8406     | 3.8467     | 3.8528     |   0.3 |  7.85
Output  | 0.00011206 | 0.00017762 | 0.00024319 |   0.0 |  0.00
Modify  | 0.655      | 0.65702    | 0.65904    |   0.2 |  1.34
Other   |            | 0.1481     |            |       |  0.30

Nlocal:    9826 ave 9829 max 9823 min
Histogram: 1 0 0 0 0 0 0 0 0 1
Nghost:    11009 ave 11016 max 11002 min
Histogram: 1 0 0 0 0 0 0 0 0 1
Neighs:    512726 ave 512776 max 512675 min
Histogram: 1 0 0 0 0 0 0 0 0 1

Total # of neighbors = 1025451
Ave neighs/atom = 52.1805
Neighbor list builds = 495
Dangerous builds not checked
Setting up Verlet run ...
  Unit style    : metal
  Current step  : 100495
  Time step     : 0.001
Per MPI rank memory allocation (min/avg/max) = 11.26 | 11.26 | 11.26 Mbytes
Step Temp Press TotEng PotEng Enthalpy 
  100495    2116.3607    305.75208   -107941.74   -113317.49    -107850.2 
  110000     2107.931    780.28768   -108041.91   -113396.24   -107808.83 
Loop time of 938.926 on 2 procs for 9505 steps with 19652 atoms

Performance: 0.875 ns/day, 27.440 hours/ns, 10.123 timesteps/s
89.4% CPU use with 2 MPI tasks x no OpenMP threads

MPI task timing breakdown:
Section |  min time  |  avg time  |  max time  |%varavg| %total
---------------------------------------------------------------
Pair    | 522.71     | 523.44     | 524.17     |   3.2 | 55.75
Neigh   | 345.02     | 346        | 346.99     |   5.3 | 36.85
Comm    | 52.985     | 54.758     | 56.53      |  24.0 |  5.83
Output  | 0.10501    | 0.10505    | 0.10509    |   0.0 |  0.01
Modify  | 11.852     | 11.854     | 11.857     |   0.1 |  1.26
Other   |            | 2.767      |            |       |  0.29

Nlocal:    9826 ave 9830 max 9822 min
Histogram: 1 0 0 0 0 0 0 0 0 1
Nghost:    11060.5 ave 11061 max 11060 min
Histogram: 1 0 0 0 0 0 0 0 0 1
Neighs:    513859 ave 514742 max 512976 min
Histogram: 1 0 0 0 0 0 0 0 0 1

Total # of neighbors = 1027718
Ave neighs/atom = 52.2958
Neighbor list builds = 9505
Dangerous builds not checked
Setting up Verlet run ...
  Unit style    : metal
  Current step  : 110000
  Time step     : 0.001
Per MPI rank memory allocation (min/avg/max) = 11.27 | 11.27 | 11.27 Mbytes
Step Temp Press TotEng PotEng Enthalpy 
  110000     2107.931    780.28768   -108041.91   -113396.24   -107808.83 
  110495     2067.308    1027.7678   -108286.71   -113537.87   -107979.98 
Loop time of 49.7543 on 2 procs for 495 steps with 19652 atoms

Performance: 0.860 ns/day, 27.920 hours/ns, 9.949 timesteps/s
85.5% CPU use with 2 MPI tasks x no OpenMP threads

MPI task timing breakdown:
Section |  min time  |  avg time  |  max time  |%varavg| %total
---------------------------------------------------------------
Pair    | 27.418     | 27.601     | 27.784     |   3.5 | 55.47
Neigh   | 18.215     | 18.369     | 18.524     |   3.6 | 36.92
Comm    | 2.9248     | 2.967      | 3.0093     |   2.5 |  5.96
Output  | 9.3937e-05 | 0.00015748 | 0.00022101 |   0.0 |  0.00
Modify  | 0.65994    | 0.66607    | 0.67219    |   0.8 |  1.34
Other   |            | 0.1507     |            |       |  0.30

Nlocal:    9826 ave 9844 max 9808 min
Histogram: 1 0 0 0 0 0 0 0 0 1
Nghost:    11057.5 ave 11059 max 11056 min
Histogram: 1 0 0 0 0 0 0 0 0 1
Neighs:    514477 ave 515744 max 513210 min
Histogram: 1 0 0 0 0 0 0 0 0 1

Total # of neighbors = 1028954
Ave neighs/atom = 52.3587
Neighbor list builds = 495
Dangerous builds not checked
Setting up Verlet run ...
  Unit style    : metal
  Current step  : 110495
  Time step     : 0.001
Per MPI rank memory allocation (min/avg/max) = 11.27 | 11.27 | 11.27 Mbytes
Step Temp Press TotEng PotEng Enthalpy 
  110495     2067.308    1027.7678   -108286.71   -113537.87   -107979.98 
  120000    2052.8462   -33.632446   -108373.11   -113587.53   -108383.16 
Loop time of 879.912 on 2 procs for 9505 steps with 19652 atoms

Performance: 0.933 ns/day, 25.715 hours/ns, 10.802 timesteps/s
92.5% CPU use with 2 MPI tasks x no OpenMP threads

MPI task timing breakdown:
Section |  min time  |  avg time  |  max time  |%varavg| %total
---------------------------------------------------------------
Pair    | 489.02     | 489.05     | 489.08     |   0.1 | 55.58
Neigh   | 331.51     | 332.13     | 332.75     |   3.4 | 37.75
Comm    | 45.248     | 45.927     | 46.606     |  10.0 |  5.22
Output  | 0.037385   | 0.037423   | 0.037462   |   0.0 |  0.00
Modify  | 10.037     | 10.066     | 10.096     |   0.9 |  1.14
Other   |            | 2.702      |            |       |  0.31

Nlocal:    9826 ave 9844 max 9808 min
Histogram: 1 0 0 0 0 0 0 0 0 1
Nghost:    11070.5 ave 11075 max 11066 min
Histogram: 1 0 0 0 0 0 0 0 0 1
Neighs:    514232 ave 516434 max 512031 min
Histogram: 1 0 0 0 0 0 0 0 0 1

Total # of neighbors = 1028465
Ave neighs/atom = 52.3339
Neighbor list builds = 9505
Dangerous builds not checked
Setting up Verlet run ...
  Unit style    : metal
  Current step  : 120000
  Time step     : 0.001
Per MPI rank memory allocation (min/avg/max) = 11.27 | 11.27 | 11.27 Mbytes
Step Temp Press TotEng PotEng Enthalpy 
  120000    2052.8462   -33.632446   -108373.11   -113587.53   -108383.16 
  120495     2008.394    191.77597   -108601.06   -113702.56   -108543.88 
Loop time of 37.7838 on 2 procs for 495 steps with 19652 atoms

Performance: 1.132 ns/day, 21.203 hours/ns, 13.101 timesteps/s
99.9% CPU use with 2 MPI tasks x no OpenMP threads

MPI task timing breakdown:
Section |  min time  |  avg time  |  max time  |%varavg| %total
---------------------------------------------------------------
Pair    | 20.632     | 20.641     | 20.649     |   0.2 | 54.63
Neigh   | 15.318     | 15.391     | 15.465     |   1.9 | 40.73
Comm    | 1.1175     | 1.1833     | 1.2492     |   6.1 |  3.13
Output  | 0.00014091 | 0.00026143 | 0.00038195 |   0.0 |  0.00
Modify  | 0.44302    | 0.44302    | 0.44302    |   0.0 |  1.17
Other   |            | 0.1255     |            |       |  0.33

Nlocal:    9826 ave 9835 max 9817 min
Histogram: 1 0 0 0 0 0 0 0 0 1
Nghost:    11054 ave 11073 max 11035 min
Histogram: 1 0 0 0 0 0 0 0 0 1
Neighs:    515051 ave 515576 max 514526 min
Histogram: 1 0 0 0 0 0 0 0 0 1

Total # of neighbors = 1030102
Ave neighs/atom = 52.4172
Neighbor list builds = 495
Dangerous builds not checked
Setting up Verlet run ...
  Unit style    : metal
  Current step  : 120495
  Time step     : 0.001
Per MPI rank memory allocation (min/avg/max) = 11.27 | 11.27 | 11.27 Mbytes
Step Temp Press TotEng PotEng Enthalpy 
  120495     2008.394    191.77597   -108601.06   -113702.56   -108543.88 
  130000    1994.5621    -1347.926   -108731.26   -113797.63    -109133.8 
Loop time of 761.849 on 2 procs for 9505 steps with 19652 atoms

Performance: 1.078 ns/day, 22.265 hours/ns, 12.476 timesteps/s
99.1% CPU use with 2 MPI tasks x no OpenMP threads

MPI task timing breakdown:
Section |  min time  |  avg time  |  max time  |%varavg| %total
---------------------------------------------------------------
Pair    | 417.47     | 418.17     | 418.86     |   3.4 | 54.89
Neigh   | 301.57     | 302.91     | 304.26     |   7.7 | 39.76
Comm    | 29.304     | 29.952     | 30.599     |  11.8 |  3.93
Output  | 0.040394   | 0.04051    | 0.040626   |   0.1 |  0.01
Modify  | 8.4073     | 8.4114     | 8.4155     |   0.1 |  1.10
Other   |            | 2.361      |            |       |  0.31

Nlocal:    9826 ave 9836 max 9816 min
Histogram: 1 0 0 0 0 0 0 0 0 1
Nghost:    11082 ave 11082 max 11082 min
Histogram: 2 0 0 0 0 0 0 0 0 0
Neighs:    514529 ave 515475 max 513583 min
Histogram: 1 0 0 0 0 0 0 0 0 1

Total # of neighbors = 1029058
Ave neighs/atom = 52.364
Neighbor list builds = 9505
Dangerous builds not checked
Setting up Verlet run ...
  Unit style    : metal
  Current step  : 130000
  Time step     : 0.001
Per MPI rank memory allocation (min/avg/max) = 11.27 | 11.27 | 11.27 Mbytes
Step Temp Press TotEng PotEng Enthalpy 
  130000    1994.5621    -1347.926   -108731.26   -113797.63    -109133.8 
  130495     1971.219   -1249.4427   -108919.64   -113926.72   -109292.34 
Loop time of 37.1564 on 2 procs for 495 steps with 19652 atoms

Performance: 1.151 ns/day, 20.851 hours/ns, 13.322 timesteps/s
99.9% CPU use with 2 MPI tasks x no OpenMP threads

MPI task timing breakdown:
Section |  min time  |  avg time  |  max time  |%varavg| %total
---------------------------------------------------------------
Pair    | 20.229     | 20.276     | 20.323     |   1.0 | 54.57
Neigh   | 14.989     | 15.076     | 15.163     |   2.2 | 40.57
Comm    | 1.2161     | 1.2566     | 1.2971     |   3.6 |  3.38
Output  | 0.00011301 | 0.00019145 | 0.00026989 |   0.0 |  0.00
Modify  | 0.42617    | 0.42657    | 0.42697    |   0.1 |  1.15
Other   |            | 0.121      |            |       |  0.33

Nlocal:    9826 ave 9826 max 9826 min
Histogram: 2 0 0 0 0 0 0 0 0 0
Nghost:    11057.5 ave 11082 max 11033 min
Histogram: 1 0 0 0 0 0 0 0 0 1
Neighs:    515305 ave 515475 max 515135 min
Histogram: 1 0 0 0 0 0 0 0 0 1

Total # of neighbors = 1030610
Ave neighs/atom = 52.443
Neighbor list builds = 495
Dangerous builds not checked
Setting up Verlet run ...
  Unit style    : metal
  Current step  : 130495
  Time step     : 0.001
Per MPI rank memory allocation (min/avg/max) = 11.27 | 11.27 | 11.27 Mbytes
Step Temp Press TotEng PotEng Enthalpy 
  130495     1971.219   -1249.4427   -108919.64   -113926.72   -109292.34 
  140000    1943.9065   -719.56297   -109085.69   -114023.39   -109299.99 
Loop time of 755.635 on 2 procs for 9505 steps with 19652 atoms

Performance: 1.087 ns/day, 22.083 hours/ns, 12.579 timesteps/s
99.5% CPU use with 2 MPI tasks x no OpenMP threads

MPI task timing breakdown:
Section |  min time  |  avg time  |  max time  |%varavg| %total
---------------------------------------------------------------
Pair    | 412.24     | 413.72     | 415.21     |   7.3 | 54.75
Neigh   | 301.83     | 302.1      | 302.37     |   1.6 | 39.98
Comm    | 27.233     | 28.467     | 29.701     |  23.1 |  3.77
Output  | 0.036059   | 0.036087   | 0.036115   |   0.0 |  0.00
Modify  | 8.9441     | 8.9754     | 9.0068     |   1.0 |  1.19
Other   |            | 2.333      |            |       |  0.31

Nlocal:    9826 ave 9837 max 9815 min
Histogram: 1 0 0 0 0 0 0 0 0 1
Nghost:    11055 ave 11084 max 11026 min
Histogram: 1 0 0 0 0 0 0 0 0 1
Neighs:    516250 ave 516281 max 516219 min
Histogram: 1 0 0 0 0 0 0 0 0 1

Total # of neighbors = 1032500
Ave neighs/atom = 52.5392
Neighbor list builds = 9505
Dangerous builds not checked
Setting up Verlet run ...
  Unit style    : metal
  Current step  : 140000
  Time step     : 0.001
Per MPI rank memory allocation (min/avg/max) = 11.27 | 11.27 | 11.27 Mbytes
Step Temp Press TotEng PotEng Enthalpy 
  140000    1943.9065   -719.56297   -109085.69   -114023.39   -109299.99 
  140495    1908.7429    23.901424   -109229.97   -114078.35   -109222.86 
Loop time of 39.5567 on 2 procs for 495 steps with 19652 atoms

Performance: 1.081 ns/day, 22.198 hours/ns, 12.514 timesteps/s
96.3% CPU use with 2 MPI tasks x no OpenMP threads

MPI task timing breakdown:
Section |  min time  |  avg time  |  max time  |%varavg| %total
---------------------------------------------------------------
Pair    | 20.912     | 21.054     | 21.195     |   3.1 | 53.22
Neigh   | 15.371     | 15.522     | 15.673     |   3.8 | 39.24
Comm    | 2.4092     | 2.421      | 2.4329     |   0.8 |  6.12
Output  | 0.0001061  | 0.00016153 | 0.00021696 |   0.0 |  0.00
Modify  | 0.43495    | 0.43679    | 0.43863    |   0.3 |  1.10
Other   |            | 0.123      |            |       |  0.31

Nlocal:    9826 ave 9840 max 9812 min
Histogram: 1 0 0 0 0 0 0 0 0 1
Nghost:    11079.5 ave 11086 max 11073 min
Histogram: 1 0 0 0 0 0 0 0 0 1
Neighs:    517370 ave 518148 max 516592 min
Histogram: 1 0 0 0 0 0 0 0 0 1

Total # of neighbors = 1034740
Ave neighs/atom = 52.6532
Neighbor list builds = 495
Dangerous builds not checked
Setting up Verlet run ...
  Unit style    : metal
  Current step  : 140495
  Time step     : 0.001
Per MPI rank memory allocation (min/avg/max) = 11.27 | 11.27 | 11.27 Mbytes
Step Temp Press TotEng PotEng Enthalpy 
  140495    1908.7429    23.901424   -109229.97   -114078.35   -109222.86 
  150000    1894.2399   -694.08439   -109319.24   -114130.78   -109525.68 
Loop time of 749.242 on 2 procs for 9505 steps with 19652 atoms

Performance: 1.096 ns/day, 21.896 hours/ns, 12.686 timesteps/s
99.8% CPU use with 2 MPI tasks x no OpenMP threads

MPI task timing breakdown:
Section |  min time  |  avg time  |  max time  |%varavg| %total
---------------------------------------------------------------
Pair    | 409.79     | 411.63     | 413.46     |   9.1 | 54.94
Neigh   | 300.02     | 301.32     | 302.61     |   7.5 | 40.22
Comm    | 25.029     | 25.581     | 26.133     |  10.9 |  3.41
Output  | 0.037183   | 0.037229   | 0.037275   |   0.0 |  0.00
Modify  | 8.329      | 8.3482     | 8.3674     |   0.7 |  1.11
Other   |            | 2.334      |            |       |  0.31

Nlocal:    9826 ave 9828 max 9824 min
Histogram: 1 0 0 0 0 0 0 0 0 1
Nghost:    11117.5 ave 11121 max 11114 min
Histogram: 1 0 0 0 0 0 0 0 0 1
Neighs:    516766 ave 516828 max 516704 min
Histogram: 1 0 0 0 0 0 0 0 0 1

Total # of neighbors = 1033532
Ave neighs/atom = 52.5917
Neighbor list builds = 9505
Dangerous builds not checked
Setting up Verlet run ...
  Unit style    : metal
  Current step  : 150000
  Time step     : 0.001
Per MPI rank memory allocation (min/avg/max) = 11.28 | 11.28 | 11.28 Mbytes
Step Temp Press TotEng PotEng Enthalpy 
  150000    1894.2399   -694.08439   -109319.24   -114130.78   -109525.68 
  150495    1870.5667    91.502849   -109562.47   -114313.88   -109535.31 
Loop time of 37.8463 on 2 procs for 495 steps with 19652 atoms

Performance: 1.130 ns/day, 21.238 hours/ns, 13.079 timesteps/s
99.9% CPU use with 2 MPI tasks x no OpenMP threads

MPI task timing breakdown:
Section |  min time  |  avg time  |  max time  |%varavg| %total
---------------------------------------------------------------
Pair    | 20.405     | 20.622     | 20.838     |   4.8 | 54.49
Neigh   | 15.114     | 15.346     | 15.578     |   5.9 | 40.55
Comm    | 1.3034     | 1.319      | 1.3346     |   1.4 |  3.49
Output  | 0.00010085 | 0.00020993 | 0.000319   |   0.0 |  0.00
Modify  | 0.43762    | 0.43835    | 0.43908    |   0.1 |  1.16
Other   |            | 0.1216     |            |       |  0.32

Nlocal:    9826 ave 9844 max 9808 min
Histogram: 1 0 0 0 0 0 0 0 0 1
Nghost:    11104 ave 11138 max 11070 min
Histogram: 1 0 0 0 0 0 0 0 0 1
Neighs:    517920 ave 519275 max 516566 min
Histogram: 1 0 0 0 0 0 0 0 0 1

Total # of neighbors = 1035841
Ave neighs/atom = 52.7092
Neighbor list builds = 495
Dangerous builds not checked
Setting up Verlet run ...
  Unit style    : metal
  Current step  : 150495
  Time step     : 0.001
Per MPI rank memory allocation (min/avg/max) = 11.28 | 11.28 | 11.28 Mbytes
Step Temp Press TotEng PotEng Enthalpy 
  150495    1870.5667    91.502849   -109562.47   -114313.88   -109535.31 
  160000    1845.4557    1198.1243   -109695.68   -114383.31   -109340.95 
Loop time of 749.695 on 2 procs for 9505 steps with 19652 atoms

Performance: 1.095 ns/day, 21.909 hours/ns, 12.678 timesteps/s
99.5% CPU use with 2 MPI tasks x no OpenMP threads

MPI task timing breakdown:
Section |  min time  |  avg time  |  max time  |%varavg| %total
---------------------------------------------------------------
Pair    | 408.52     | 409.67     | 410.82     |   5.7 | 54.64
Neigh   | 300.82     | 301.04     | 301.25     |   1.3 | 40.15
Comm    | 26.834     | 27.783     | 28.732     |  18.0 |  3.71
Output  | 0.036216   | 0.036256   | 0.036296   |   0.0 |  0.00
Modify  | 8.8444     | 8.8653     | 8.8862     |   0.7 |  1.18
Other   |            | 2.304      |            |       |  0.31

Nlocal:    9826 ave 9833 max 9819 min
Histogram: 1 0 0 0 0 0 0 0 0 1
Nghost:    11087 ave 11088 max 11086 min
Histogram: 1 0 0 0 0 0 0 0 0 1
Neighs:    519632 ave 521118 max 518147 min
Histogram: 1 0 0 0 0 0 0 0 0 1

Total # of neighbors = 1039265
Ave neighs/atom = 52.8834
Neighbor list builds = 9505
Dangerous builds not checked
Setting up Verlet run ...
  Unit style    : metal
  Current step  : 160000
  Time step     : 0.001
Per MPI rank memory allocation (min/avg/max) = 11.28 | 11.28 | 11.28 Mbytes
Step Temp Press TotEng PotEng Enthalpy 
  160000    1845.4557    1198.1243   -109695.68   -114383.31   -109340.95 
  160495     1833.044    1040.7175   -109841.75   -114497.85    -109533.9 
Loop time of 38.6757 on 2 procs for 495 steps with 19652 atoms

Performance: 1.106 ns/day, 21.704 hours/ns, 12.799 timesteps/s
99.4% CPU use with 2 MPI tasks x no OpenMP threads

MPI task timing breakdown:
Section |  min time  |  avg time  |  max time  |%varavg| %total
---------------------------------------------------------------
Pair    | 21.282     | 21.307     | 21.331     |   0.5 | 55.09
Neigh   | 15.503     | 15.558     | 15.614     |   1.4 | 40.23
Comm    | 1.2088     | 1.2401     | 1.2714     |   2.8 |  3.21
Output  | 0.00011086 | 0.00016344 | 0.00021601 |   0.0 |  0.00
Modify  | 0.44446    | 0.44449    | 0.44452    |   0.0 |  1.15
Other   |            | 0.1259     |            |       |  0.33

Nlocal:    9826 ave 9833 max 9819 min
Histogram: 1 0 0 0 0 0 0 0 0 1
Nghost:    11086 ave 11115 max 11057 min
Histogram: 1 0 0 0 0 0 0 0 0 1
Neighs:    519902 ave 520617 max 519187 min
Histogram: 1 0 0 0 0 0 0 0 0 1

Total # of neighbors = 1039804
Ave neighs/atom = 52.9108
Neighbor list builds = 495
Dangerous builds not checked
Setting up Verlet run ...
  Unit style    : metal
  Current step  : 160495
  Time step     : 0.001
Per MPI rank memory allocation (min/avg/max) = 11.28 | 11.28 | 11.28 Mbytes
Step Temp Press TotEng PotEng Enthalpy 
  160495     1833.044    1040.7175   -109841.75   -114497.85    -109533.9 
  170000    1795.6795   -609.80769   -110032.72   -114593.91   -110213.37 
Loop time of 759.191 on 2 procs for 9505 steps with 19652 atoms

Performance: 1.082 ns/day, 22.187 hours/ns, 12.520 timesteps/s
99.5% CPU use with 2 MPI tasks x no OpenMP threads

MPI task timing breakdown:
Section |  min time  |  avg time  |  max time  |%varavg| %total
---------------------------------------------------------------
Pair    | 416.83     | 418.5      | 420.17     |   8.2 | 55.12
Neigh   | 302.11     | 303.28     | 304.46     |   6.7 | 39.95
Comm    | 25.994     | 26.515     | 27.036     |  10.1 |  3.49
Output  | 0.035892   | 0.035912   | 0.035933   |   0.0 |  0.00
Modify  | 8.4534     | 8.4822     | 8.511      |   1.0 |  1.12
Other   |            | 2.376      |            |       |  0.31

Nlocal:    9826 ave 9859 max 9793 min
Histogram: 1 0 0 0 0 0 0 0 0 1
Nghost:    11084.5 ave 11128 max 11041 min
Histogram: 1 0 0 0 0 0 0 0 0 1
Neighs:    519180 ave 521868 max 516491 min
Histogram: 1 0 0 0 0 0 0 0 0 1

Total # of neighbors = 1038359
Ave neighs/atom = 52.8373
Neighbor list builds = 9505
Dangerous builds not checked
Setting up Verlet run ...
  Unit style    : metal
  Current step  : 170000
  Time step     : 0.001
Per MPI rank memory allocation (min/avg/max) = 11.28 | 11.28 | 11.28 Mbytes
Step Temp Press TotEng PotEng Enthalpy 
  170000    1795.6795   -609.80769   -110032.72   -114593.91   -110213.37 
  170495    1759.9573    287.42641   -110254.76   -114725.22    -110169.8 
Loop time of 37.7594 on 2 procs for 495 steps with 19652 atoms

Performance: 1.133 ns/day, 21.189 hours/ns, 13.109 timesteps/s
99.9% CPU use with 2 MPI tasks x no OpenMP threads

MPI task timing breakdown:
Section |  min time  |  avg time  |  max time  |%varavg| %total
---------------------------------------------------------------
Pair    | 20.422     | 20.584     | 20.747     |   3.6 | 54.51
Neigh   | 15.35      | 15.363     | 15.377     |   0.4 | 40.69
Comm    | 1.1069     | 1.258      | 1.409      |  13.5 |  3.33
Output  | 0.00010204 | 0.00021648 | 0.00033092 |   0.0 |  0.00
Modify  | 0.43151    | 0.4341     | 0.43668    |   0.4 |  1.15
Other   |            | 0.1196     |            |       |  0.32

Nlocal:    9826 ave 9844 max 9808 min
Histogram: 1 0 0 0 0 0 0 0 0 1
Nghost:    11134.5 ave 11148 max 11121 min
Histogram: 1 0 0 0 0 0 0 0 0 1
Neighs:    520568 ave 521787 max 519350 min
Histogram: 1 0 0 0 0 0 0 0 0 1

Total # of neighbors = 1041137
Ave neighs/atom = 52.9787
Neighbor list builds = 495
Dangerous builds not checked
Setting up Verlet run ...
  Unit style    : metal
  Current step  : 170495
  Time step     : 0.001
Per MPI rank memory allocation (min/avg/max) = 11.28 | 11.28 | 11.28 Mbytes
Step Temp Press TotEng PotEng Enthalpy 
  170495    1759.9573    287.42641   -110254.76   -114725.22    -110169.8 
  180000    1742.9103    690.27387   -110349.16   -114776.31   -110145.39 
Loop time of 768.949 on 2 procs for 9505 steps with 19652 atoms

Performance: 1.068 ns/day, 22.472 hours/ns, 12.361 timesteps/s
98.6% CPU use with 2 MPI tasks x no OpenMP threads

MPI task timing breakdown:
Section |  min time  |  avg time  |  max time  |%varavg| %total
---------------------------------------------------------------
Pair    | 419.02     | 419.64     | 420.27     |   3.1 | 54.57
Neigh   | 303.63     | 304.19     | 304.75     |   3.2 | 39.56
Comm    | 32.238     | 33.486     | 34.734     |  21.6 |  4.35
Output  | 0.037745   | 0.037809   | 0.037874   |   0.0 |  0.00
Modify  | 9.1699     | 9.2275     | 9.2851     |   1.9 |  1.20
Other   |            | 2.366      |            |       |  0.31

Nlocal:    9826 ave 9843 max 9809 min
Histogram: 1 0 0 0 0 0 0 0 0 1
Nghost:    11162.5 ave 11170 max 11155 min
Histogram: 1 0 0 0 0 0 0 0 0 1
Neighs:    521248 ave 522784 max 519713 min
Histogram: 1 0 0 0 0 0 0 0 0 1

Total # of neighbors = 1042497
Ave neighs/atom = 53.0479
Neighbor list builds = 9505
Dangerous builds not checked
Setting up Verlet run ...
  Unit style    : metal
  Current step  : 180000
  Time step     : 0.001
Per MPI rank memory allocation (min/avg/max) = 11.28 | 11.28 | 11.28 Mbytes
Step Temp Press TotEng PotEng Enthalpy 
  180000    1742.9103    690.27387   -110349.16   -114776.31   -110145.39 
  180495    1716.4095    107.61944   -110540.63   -114900.47   -110508.88 
Loop time of 38.2651 on 2 procs for 495 steps with 19652 atoms

Performance: 1.118 ns/day, 21.473 hours/ns, 12.936 timesteps/s
98.9% CPU use with 2 MPI tasks x no OpenMP threads

MPI task timing breakdown:
Section |  min time  |  avg time  |  max time  |%varavg| %total
---------------------------------------------------------------
Pair    | 20.913     | 21.031     | 21.148     |   2.6 | 54.96
Neigh   | 15.56      | 15.599     | 15.638     |   1.0 | 40.77
Comm    | 0.89461    | 1.0665     | 1.2383     |  16.6 |  2.79
Output  | 7.7009e-05 | 0.00020397 | 0.00033092 |   0.0 |  0.00
Modify  | 0.4258     | 0.44041    | 0.45502    |   2.2 |  1.15
Other   |            | 0.128      |            |       |  0.33

Nlocal:    9826 ave 9826 max 9826 min
Histogram: 2 0 0 0 0 0 0 0 0 0
Nghost:    11141 ave 11149 max 11133 min
Histogram: 1 0 0 0 0 0 0 0 0 1
Neighs:    521700 ave 522447 max 520953 min
Histogram: 1 0 0 0 0 0 0 0 0 1

Total # of neighbors = 1043400
Ave neighs/atom = 53.0938
Neighbor list builds = 495
Dangerous builds not checked
Setting up Verlet run ...
  Unit style    : metal
  Current step  : 180495
  Time step     : 0.001
Per MPI rank memory allocation (min/avg/max) = 11.28 | 11.28 | 11.28 Mbytes
Step Temp Press TotEng PotEng Enthalpy 
  180495    1716.4095    107.61944   -110540.63   -114900.47   -110508.88 
  190000    1697.5527    161.56876   -110616.84   -114928.78   -110569.16 
Loop time of 751.586 on 2 procs for 9505 steps with 19652 atoms

Performance: 1.093 ns/day, 21.965 hours/ns, 12.647 timesteps/s
99.9% CPU use with 2 MPI tasks x no OpenMP threads

MPI task timing breakdown:
Section |  min time  |  avg time  |  max time  |%varavg| %total
---------------------------------------------------------------
Pair    | 410.96     | 413.44     | 415.92     |  12.2 | 55.01
Neigh   | 302.3      | 302.6      | 302.9      |   1.7 | 40.26
Comm    | 21.903     | 24.739     | 27.575     |  57.0 |  3.29
Output  | 0.037755   | 0.0378     | 0.037846   |   0.0 |  0.01
Modify  | 8.3662     | 8.423      | 8.4797     |   2.0 |  1.12
Other   |            | 2.348      |            |       |  0.31

Nlocal:    9826 ave 9844 max 9808 min
Histogram: 1 0 0 0 0 0 0 0 0 1
Nghost:    11121 ave 11133 max 11109 min
Histogram: 1 0 0 0 0 0 0 0 0 1
Neighs:    521786 ave 522907 max 520665 min
Histogram: 1 0 0 0 0 0 0 0 0 1

Total # of neighbors = 1043572
Ave neighs/atom = 53.1026
Neighbor list builds = 9505
Dangerous builds not checked
Setting up Verlet run ...
  Unit style    : metal
  Current step  : 190000
  Time step     : 0.001
Per MPI rank memory allocation (min/avg/max) = 11.28 | 11.29 | 11.29 Mbytes
Step Temp Press TotEng PotEng Enthalpy 
  190000    1697.5527    161.56876   -110616.84   -114928.78   -110569.16 
  190495    1658.7144   -77.518171   -110860.77   -115074.06   -110883.63 
Loop time of 38.2542 on 2 procs for 495 steps with 19652 atoms

Performance: 1.118 ns/day, 21.467 hours/ns, 12.940 timesteps/s
99.9% CPU use with 2 MPI tasks x no OpenMP threads

MPI task timing breakdown:
Section |  min time  |  avg time  |  max time  |%varavg| %total
---------------------------------------------------------------
Pair    | 20.705     | 20.988     | 21.27      |   6.2 | 54.86
Neigh   | 15.17      | 15.399     | 15.627     |   5.8 | 40.25
Comm    | 1.2465     | 1.2961     | 1.3457     |   4.4 |  3.39
Output  | 9.0837e-05 | 0.00024199 | 0.00039315 |   0.0 |  0.00
Modify  | 0.44361    | 0.44671    | 0.44981    |   0.5 |  1.17
Other   |            | 0.1249     |            |       |  0.33

Nlocal:    9826 ave 9852 max 9800 min
Histogram: 1 0 0 0 0 0 0 0 0 1
Nghost:    11135.5 ave 11181 max 11090 min
Histogram: 1 0 0 0 0 0 0 0 0 1
Neighs:    522087 ave 523359 max 520815 min
Histogram: 1 0 0 0 0 0 0 0 0 1

Total # of neighbors = 1044174
Ave neighs/atom = 53.1332
Neighbor list builds = 495
Dangerous builds not checked
Setting up Verlet run ...
  Unit style    : metal
  Current step  : 190495
  Time step     : 0.001
Per MPI rank memory allocation (min/avg/max) = 11.28 | 11.29 | 11.29 Mbytes
Step Temp Press TotEng PotEng Enthalpy 
  190495    1658.7144   -77.518171   -110860.77   -115074.06   -110883.63 
  200000    1644.4822   -165.72691   -110996.43   -115173.56   -111045.24 
Loop time of 764.506 on 2 procs for 9505 steps with 19652 atoms

Performance: 1.074 ns/day, 22.342 hours/ns, 12.433 timesteps/s
99.4% CPU use with 2 MPI tasks x no OpenMP threads

MPI task timing breakdown:
Section |  min time  |  avg time  |  max time  |%varavg| %total
---------------------------------------------------------------
Pair    | 418.83     | 419.86     | 420.9      |   5.1 | 54.92
Neigh   | 301.9      | 302.94     | 303.97     |   6.0 | 39.63
Comm    | 30.793     | 30.799     | 30.804     |   0.1 |  4.03
Output  | 0.039389   | 0.039409   | 0.039428   |   0.0 |  0.01
Modify  | 8.474      | 8.4909     | 8.5078     |   0.6 |  1.11
Other   |            | 2.378      |            |       |  0.31

Nlocal:    9826 ave 9836 max 9816 min
Histogram: 1 0 0 0 0 0 0 0 0 1
Nghost:    11087 ave 11088 max 11086 min
Histogram: 1 0 0 0 0 0 0 0 0 1
Neighs:    522988 ave 523941 max 522036 min
Histogram: 1 0 0 0 0 0 0 0 0 1

Total # of neighbors = 1045977
Ave neighs/atom = 53.225
Neighbor list builds = 9505
Dangerous builds not checked
Setting up Verlet run ...
  Unit style    : metal
  Current step  : 200000
  Time step     : 0.001
Per MPI rank memory allocation (min/avg/max) = 11.29 | 11.29 | 11.29 Mbytes
Step Temp Press TotEng PotEng Enthalpy 
  200000    1644.4822   -165.72691   -110996.43   -115173.56   -111045.24 
  200495    1615.1171    52.258084   -111196.98   -115299.52    -111181.6 
Loop time of 40.2795 on 2 procs for 495 steps with 19652 atoms

Performance: 1.062 ns/day, 22.604 hours/ns, 12.289 timesteps/s
95.9% CPU use with 2 MPI tasks x no OpenMP threads

MPI task timing breakdown:
Section |  min time  |  avg time  |  max time  |%varavg| %total
---------------------------------------------------------------
Pair    | 22.01      | 22.013     | 22.017     |   0.1 | 54.65
Neigh   | 15.324     | 15.435     | 15.545     |   2.8 | 38.32
Comm    | 2.1659     | 2.2717     | 2.3776     |   7.0 |  5.64
Output  | 0.00011086 | 0.00030196 | 0.00049305 |   0.0 |  0.00
Modify  | 0.43471    | 0.43615    | 0.43758    |   0.2 |  1.08
Other   |            | 0.1236     |            |       |  0.31

Nlocal:    9826 ave 9838 max 9814 min
Histogram: 1 0 0 0 0 0 0 0 0 1
Nghost:    11113.5 ave 11114 max 11113 min
Histogram: 1 0 0 0 0 0 0 0 0 1
Neighs:    523264 ave 524813 max 521716 min
Histogram: 1 0 0 0 0 0 0 0 0 1

Total # of neighbors = 1046529
Ave neighs/atom = 53.2531
Neighbor list builds = 495
Dangerous builds not checked
Setting up Verlet run ...
  Unit style    : metal
  Current step  : 200495
  Time step     : 0.001
Per MPI rank memory allocation (min/avg/max) = 11.29 | 11.29 | 11.29 Mbytes
Step Temp Press TotEng PotEng Enthalpy 
  200495    1615.1171    52.258084   -111196.98   -115299.52    -111181.6 
  210000    1599.8604    1259.6763   -111321.38   -115385.18   -110951.69 
Loop time of 757.836 on 2 procs for 9505 steps with 19652 atoms

Performance: 1.084 ns/day, 22.147 hours/ns, 12.542 timesteps/s
99.3% CPU use with 2 MPI tasks x no OpenMP threads

MPI task timing breakdown:
Section |  min time  |  avg time  |  max time  |%varavg| %total
---------------------------------------------------------------
Pair    | 415.64     | 415.83     | 416.01     |   0.9 | 54.87
Neigh   | 302.73     | 303.29     | 303.84     |   3.2 | 40.02
Comm    | 26.066     | 26.876     | 27.686     |  15.6 |  3.55
Output  | 0.037552   | 0.037585   | 0.037618   |   0.0 |  0.00
Modify  | 9.3702     | 9.4416     | 9.5131     |   2.3 |  1.25
Other   |            | 2.368      |            |       |  0.31

Nlocal:    9826 ave 9828 max 9824 min
Histogram: 1 0 0 0 0 0 0 0 0 1
Nghost:    11118.5 ave 11119 max 11118 min
Histogram: 1 0 0 0 0 0 0 0 0 1
Neighs:    524814 ave 524819 max 524810 min
Histogram: 1 0 0 0 0 0 0 0 0 1

Total # of neighbors = 1049629
Ave neighs/atom = 53.4108
Neighbor list builds = 9505
Dangerous builds not checked
Setting up Verlet run ...
  Unit style    : metal
  Current step  : 210000
  Time step     : 0.001
Per MPI rank memory allocation (min/avg/max) = 11.29 | 11.29 | 11.29 Mbytes
Step Temp Press TotEng PotEng Enthalpy 
  210000    1599.8604    1259.6763   -111321.38   -115385.18   -110951.69 
  210495      1577.23    -1.162531   -111531.22   -115537.53   -111531.56 
Loop time of 37.1697 on 2 procs for 495 steps with 19652 atoms

Performance: 1.151 ns/day, 20.858 hours/ns, 13.317 timesteps/s
99.9% CPU use with 2 MPI tasks x no OpenMP threads

MPI task timing breakdown:
Section |  min time  |  avg time  |  max time  |%varavg| %total
---------------------------------------------------------------
Pair    | 20.244     | 20.249     | 20.254     |   0.1 | 54.48
Neigh   | 15.144     | 15.161     | 15.177     |   0.4 | 40.79
Comm    | 1.1965     | 1.208      | 1.2195     |   1.0 |  3.25
Output  | 8.7023e-05 | 0.00012946 | 0.0001719  |   0.0 |  0.00
Modify  | 0.43125    | 0.43221    | 0.43317    |   0.1 |  1.16
Other   |            | 0.1189     |            |       |  0.32

Nlocal:    9826 ave 9826 max 9826 min
Histogram: 2 0 0 0 0 0 0 0 0 0
Nghost:    11142 ave 11169 max 11115 min
Histogram: 1 0 0 0 0 0 0 0 0 1
Neighs:    524976 ave 525333 max 524618 min
Histogram: 1 0 0 0 0 0 0 0 0 1

Total # of neighbors = 1049951
Ave neighs/atom = 53.4272
Neighbor list builds = 495
Dangerous builds not checked
Setting up Verlet run ...
  Unit style    : metal
  Current step  : 210495
  Time step     : 0.001
Per MPI rank memory allocation (min/avg/max) = 11.29 | 11.29 | 11.29 Mbytes
Step Temp Press TotEng PotEng Enthalpy 
  210495      1577.23    -1.162531   -111531.22   -115537.53   -111531.56 
  220000    1537.6258   -128.39283   -111654.25   -115559.96   -111691.95 
Loop time of 745.004 on 2 procs for 9505 steps with 19652 atoms

Performance: 1.102 ns/day, 21.772 hours/ns, 12.758 timesteps/s
98.9% CPU use with 2 MPI tasks x no OpenMP threads

MPI task timing breakdown:
Section |  min time  |  avg time  |  max time  |%varavg| %total
---------------------------------------------------------------
Pair    | 408.49     | 409.44     | 410.39     |   4.7 | 54.96
Neigh   | 294.15     | 296.28     | 298.41     |  12.4 | 39.77
Comm    | 25.564     | 28.684     | 31.804     |  58.3 |  3.85
Output  | 0.033571   | 0.033589   | 0.033607   |   0.0 |  0.00
Modify  | 8.2657     | 8.2938     | 8.322      |   1.0 |  1.11
Other   |            | 2.275      |            |       |  0.31

Nlocal:    9826 ave 9853 max 9799 min
Histogram: 1 0 0 0 0 0 0 0 0 1
Nghost:    11119 ave 11140 max 11098 min
Histogram: 1 0 0 0 0 0 0 0 0 1
Neighs:    525164 ave 527634 max 522695 min
Histogram: 1 0 0 0 0 0 0 0 0 1

Total # of neighbors = 1050329
Ave neighs/atom = 53.4464
Neighbor list builds = 9505
Dangerous builds not checked
Setting up Verlet run ...
  Unit style    : metal
  Current step  : 220000
  Time step     : 0.001
Per MPI rank memory allocation (min/avg/max) = 11.29 | 11.29 | 11.29 Mbytes
Step Temp Press TotEng PotEng Enthalpy 
  220000    1537.6258   -128.39283   -111654.25   -115559.96   -111691.95 
  220495    1516.5823    648.35572   -111850.83   -115703.09   -111660.83 
Loop time of 38.5928 on 2 procs for 495 steps with 19652 atoms

Performance: 1.108 ns/day, 21.657 hours/ns, 12.826 timesteps/s
98.2% CPU use with 2 MPI tasks x no OpenMP threads

MPI task timing breakdown:
Section |  min time  |  avg time  |  max time  |%varavg| %total
---------------------------------------------------------------
Pair    | 20.673     | 20.762     | 20.851     |   2.0 | 53.80
Neigh   | 15.226     | 15.281     | 15.336     |   1.4 | 39.60
Comm    | 1.9591     | 1.9921     | 2.0252     |   2.3 |  5.16
Output  | 0.00012016 | 0.00018311 | 0.00024605 |   0.0 |  0.00
Modify  | 0.43999    | 0.44067    | 0.44136    |   0.1 |  1.14
Other   |            | 0.1168     |            |       |  0.30

Nlocal:    9826 ave 9831 max 9821 min
Histogram: 1 0 0 0 0 0 0 0 0 1
Nghost:    11145.5 ave 11158 max 11133 min
Histogram: 1 0 0 0 0 0 0 0 0 1
Neighs:    526386 ave 526458 max 526314 min
Histogram: 1 0 0 0 0 0 0 0 0 1

Total # of neighbors = 1052772
Ave neighs/atom = 53.5707
Neighbor list builds = 495
Dangerous builds not checked
Setting up Verlet run ...
  Unit style    : metal
  Current step  : 220495
  Time step     : 0.001
Per MPI rank memory allocation (min/avg/max) = 11.29 | 11.29 | 11.29 Mbytes
Step Temp Press TotEng PotEng Enthalpy 
  220495    1516.5823    648.35572   -111850.83   -115703.09   -111660.83 
  230000    1498.9617    994.27013   -112021.73   -115829.22   -111730.86 
Loop time of 735.568 on 2 procs for 9505 steps with 19652 atoms

Performance: 1.116 ns/day, 21.497 hours/ns, 12.922 timesteps/s
99.0% CPU use with 2 MPI tasks x no OpenMP threads

MPI task timing breakdown:
Section |  min time  |  avg time  |  max time  |%varavg| %total
---------------------------------------------------------------
Pair    | 403.19     | 404.3      | 405.41     |   5.5 | 54.96
Neigh   | 290.49     | 291.48     | 292.47     |   5.8 | 39.63
Comm    | 27.234     | 29.373     | 31.512     |  39.5 |  3.99
Output  | 0.036376   | 0.036414   | 0.036452   |   0.0 |  0.00
Modify  | 8.0967     | 8.1477     | 8.1987     |   1.8 |  1.11
Other   |            | 2.229      |            |       |  0.30

Nlocal:    9826 ave 9842 max 9810 min
Histogram: 1 0 0 0 0 0 0 0 0 1
Nghost:    11154 ave 11163 max 11145 min
Histogram: 1 0 0 0 0 0 0 0 0 1
Neighs:    527288 ave 528324 max 526252 min
Histogram: 1 0 0 0 0 0 0 0 0 1

Total # of neighbors = 1054576
Ave neighs/atom = 53.6625
Neighbor list builds = 9505
Dangerous builds not checked
Setting up Verlet run ...
  Unit style    : metal
  Current step  : 230000
  Time step     : 0.001
Per MPI rank memory allocation (min/avg/max) = 11.29 | 11.29 | 11.29 Mbytes
Step Temp Press TotEng PotEng Enthalpy 
  230000    1498.9617    994.27013   -112021.73   -115829.22   -111730.86 
  230495    1470.1378   -674.14164   -112189.06   -115923.35    -112386.6 
Loop time of 36.1451 on 2 procs for 495 steps with 19652 atoms

Performance: 1.183 ns/day, 20.283 hours/ns, 13.695 timesteps/s
99.9% CPU use with 2 MPI tasks x no OpenMP threads

MPI task timing breakdown:
Section |  min time  |  avg time  |  max time  |%varavg| %total
---------------------------------------------------------------
Pair    | 19.594     | 19.641     | 19.687     |   1.0 | 54.34
Neigh   | 13.915     | 14.488     | 15.06      |  15.0 | 40.08
Comm    | 0.96063    | 1.5013     | 2.0419     |  44.1 |  4.15
Output  | 7.4148e-05 | 0.0001266  | 0.00017905 |   0.0 |  0.00
Modify  | 0.39568    | 0.40677    | 0.41785    |   1.7 |  1.13
Other   |            | 0.1086     |            |       |  0.30

Nlocal:    9826 ave 9826 max 9826 min
Histogram: 2 0 0 0 0 0 0 0 0 0
Nghost:    11161 ave 11179 max 11143 min
Histogram: 1 0 0 0 0 0 0 0 0 1
Neighs:    526274 ave 526712 max 525836 min
Histogram: 1 0 0 0 0 0 0 0 0 1

Total # of neighbors = 1052548
Ave neighs/atom = 53.5593
Neighbor list builds = 495
Dangerous builds not checked
Setting up Verlet run ...
  Unit style    : metal
  Current step  : 230495
  Time step     : 0.001
Per MPI rank memory allocation (min/avg/max) = 11.29 | 11.29 | 11.29 Mbytes
Step Temp Press TotEng PotEng Enthalpy 
  230495    1470.1378   -674.14164   -112189.06   -115923.35    -112386.6 
  240000    1464.0334   -9.9151002   -112310.31   -116029.09   -112313.21 
Loop time of 712.225 on 2 procs for 9505 steps with 19652 atoms

Performance: 1.153 ns/day, 20.814 hours/ns, 13.346 timesteps/s
99.6% CPU use with 2 MPI tasks x no OpenMP threads

MPI task timing breakdown:
Section |  min time  |  avg time  |  max time  |%varavg| %total
---------------------------------------------------------------
Pair    | 387.41     | 388.23     | 389.05     |   4.2 | 54.51
Neigh   | 279.46     | 282.84     | 286.22     |  20.1 | 39.71
Comm    | 26.822     | 31.129     | 35.436     |  77.2 |  4.37
Output  | 0.037673   | 0.037703   | 0.037734   |   0.0 |  0.01
Modify  | 7.7896     | 7.8776     | 7.9656     |   3.1 |  1.11
Other   |            | 2.105      |            |       |  0.30

Nlocal:    9826 ave 9844 max 9808 min
Histogram: 1 0 0 0 0 0 0 0 0 1
Nghost:    11162.5 ave 11192 max 11133 min
Histogram: 1 0 0 0 0 0 0 0 0 1
Neighs:    527352 ave 528534 max 526171 min
Histogram: 1 0 0 0 0 0 0 0 0 1

Total # of neighbors = 1054705
Ave neighs/atom = 53.6691
Neighbor list builds = 9505
Dangerous builds not checked
Setting up Verlet run ...
  Unit style    : metal
  Current step  : 240000
  Time step     : 0.001
Per MPI rank memory allocation (min/avg/max) = 11.29 | 11.29 | 11.29 Mbytes
Step Temp Press TotEng PotEng Enthalpy 
  240000    1464.0334   -9.9151002   -112310.31   -116029.09   -112313.21 
  240495     1413.886   -511.71473   -112523.97   -116115.37   -112673.65 
Loop time of 36.7622 on 2 procs for 495 steps with 19652 atoms

Performance: 1.163 ns/day, 20.630 hours/ns, 13.465 timesteps/s
99.7% CPU use with 2 MPI tasks x no OpenMP threads

MPI task timing breakdown:
Section |  min time  |  avg time  |  max time  |%varavg| %total
---------------------------------------------------------------
Pair    | 19.818     | 19.878     | 19.938     |   1.3 | 54.07
Neigh   | 14.686     | 14.782     | 14.878     |   2.5 | 40.21
Comm    | 1.5354     | 1.5705     | 1.6056     |   2.8 |  4.27
Output  | 9.5129e-05 | 0.00012207 | 0.00014901 |   0.0 |  0.00
Modify  | 0.41837    | 0.41962    | 0.42087    |   0.2 |  1.14
Other   |            | 0.112      |            |       |  0.30

Nlocal:    9826 ave 9843 max 9809 min
Histogram: 1 0 0 0 0 0 0 0 0 1
Nghost:    11128 ave 11162 max 11094 min
Histogram: 1 0 0 0 0 0 0 0 0 1
Neighs:    527598 ave 528769 max 526428 min
Histogram: 1 0 0 0 0 0 0 0 0 1

Total # of neighbors = 1055197
Ave neighs/atom = 53.6941
Neighbor list builds = 495
Dangerous builds not checked
Setting up Verlet run ...
  Unit style    : metal
  Current step  : 240495
  Time step     : 0.001
Per MPI rank memory allocation (min/avg/max) = 11.29 | 11.29 | 11.29 Mbytes
Step Temp Press TotEng PotEng Enthalpy 
  240495     1413.886   -511.71473   -112523.97   -116115.37   -112673.65 
  250000    1402.2561    1276.5036    -112675.9   -116237.76   -112303.72 
Loop time of 707.12 on 2 procs for 9505 steps with 19652 atoms

Performance: 1.161 ns/day, 20.665 hours/ns, 13.442 timesteps/s
98.6% CPU use with 2 MPI tasks x no OpenMP threads

MPI task timing breakdown:
Section |  min time  |  avg time  |  max time  |%varavg| %total
---------------------------------------------------------------
Pair    | 378.52     | 379.92     | 381.33     |   7.2 | 53.73
Neigh   | 277.92     | 279.04     | 280.17     |   6.7 | 39.46
Comm    | 38.061     | 38.329     | 38.596     |   4.3 |  5.42
Output  | 0.029592   | 0.029634   | 0.029677   |   0.0 |  0.00
Modify  | 7.7365     | 7.7389     | 7.7412     |   0.1 |  1.09
Other   |            | 2.058      |            |       |  0.29

Nlocal:    9826 ave 9827 max 9825 min
Histogram: 1 0 0 0 0 0 0 0 0 1
Nghost:    11170 ave 11173 max 11167 min
Histogram: 1 0 0 0 0 0 0 0 0 1
Neighs:    529696 ave 530076 max 529317 min
Histogram: 1 0 0 0 0 0 0 0 0 1

Total # of neighbors = 1059393
Ave neighs/atom = 53.9076
Neighbor list builds = 9505
Dangerous builds not checked
Setting up Verlet run ...
  Unit style    : metal
  Current step  : 250000
  Time step     : 0.001
Per MPI rank memory allocation (min/avg/max) = 11.29 | 11.29 | 11.29 Mbytes
Step Temp Press TotEng PotEng Enthalpy 
  250000    1402.2561    1276.5036    -112675.9   -116237.76   -112303.72 
  250495    1363.1787   -67.231254   -112866.78   -116329.38    -112886.4 
Loop time of 37.7377 on 2 procs for 495 steps with 19652 atoms

Performance: 1.133 ns/day, 21.177 hours/ns, 13.117 timesteps/s
98.2% CPU use with 2 MPI tasks x no OpenMP threads

MPI task timing breakdown:
Section |  min time  |  avg time  |  max time  |%varavg| %total
---------------------------------------------------------------
Pair    | 20.859     | 21.06      | 21.262     |   4.4 | 55.81
Neigh   | 14.261     | 14.647     | 15.033     |  10.1 | 38.81
Comm    | 1.3139     | 1.5065     | 1.6992     |  15.7 |  3.99
Output  | 0.00011396 | 0.00015545 | 0.00019693 |   0.0 |  0.00
Modify  | 0.40715    | 0.41375    | 0.42036    |   1.0 |  1.10
Other   |            | 0.11       |            |       |  0.29

Nlocal:    9826 ave 9832 max 9820 min
Histogram: 1 0 0 0 0 0 0 0 0 1
Nghost:    11173 ave 11213 max 11133 min
Histogram: 1 0 0 0 0 0 0 0 0 1
Neighs:    529335 ave 529382 max 529288 min
Histogram: 1 0 0 0 0 0 0 0 0 1

Total # of neighbors = 1058670
Ave neighs/atom = 53.8709
Neighbor list builds = 495
Dangerous builds not checked
Setting up Verlet run ...
  Unit style    : metal
  Current step  : 250495
  Time step     : 0.001
Per MPI rank memory allocation (min/avg/max) = 11.29 | 11.29 | 11.29 Mbytes
Step Temp Press TotEng PotEng Enthalpy 
  250495    1363.1787   -67.231254   -112866.78   -116329.38    -112886.4 
  260000    1367.1223    717.69642   -112961.93   -116434.55   -112752.84 
Loop time of 671.36 on 2 procs for 9505 steps with 19652 atoms

Performance: 1.223 ns/day, 19.620 hours/ns, 14.158 timesteps/s
99.7% CPU use with 2 MPI tasks x no OpenMP threads

MPI task timing breakdown:
Section |  min time  |  avg time  |  max time  |%varavg| %total
---------------------------------------------------------------
Pair    | 358.96     | 359.54     | 360.11     |   3.0 | 53.55
Neigh   | 261.04     | 268.08     | 275.13     |  43.0 | 39.93
Comm    | 27.127     | 33.76      | 40.392     | 114.1 |  5.03
Output  | 0.43786    | 0.43789    | 0.43792    |   0.0 |  0.07
Modify  | 7.4514     | 7.5531     | 7.6547     |   3.7 |  1.13
Other   |            | 1.989      |            |       |  0.30

Nlocal:    9826 ave 9836 max 9816 min
Histogram: 1 0 0 0 0 0 0 0 0 1
Nghost:    11175.5 ave 11184 max 11167 min
Histogram: 1 0 0 0 0 0 0 0 0 1
Neighs:    530504 ave 531370 max 529637 min
Histogram: 1 0 0 0 0 0 0 0 0 1

Total # of neighbors = 1061007
Ave neighs/atom = 53.9898
Neighbor list builds = 9505
Dangerous builds not checked
Setting up Verlet run ...
  Unit style    : metal
  Current step  : 260000
  Time step     : 0.001
Per MPI rank memory allocation (min/avg/max) = 11.29 | 11.29 | 11.29 Mbytes
Step Temp Press TotEng PotEng Enthalpy 
  260000    1367.1223    717.69642   -112961.93   -116434.55   -112752.84 
  260495    1302.0256   -119.43586    -113203.6   -116510.86    -113238.4 
Loop time of 36.2112 on 2 procs for 495 steps with 19652 atoms

Performance: 1.181 ns/day, 20.321 hours/ns, 13.670 timesteps/s
95.1% CPU use with 2 MPI tasks x no OpenMP threads

MPI task timing breakdown:
Section |  min time  |  avg time  |  max time  |%varavg| %total
---------------------------------------------------------------
Pair    | 18.875     | 19.003     | 19.131     |   2.9 | 52.48
Neigh   | 13.493     | 13.737     | 13.982     |   6.6 | 37.94
Comm    | 2.8524     | 2.973      | 3.0935     |   7.0 |  8.21
Output  | 9.6083e-05 | 0.00012064 | 0.0001452  |   0.0 |  0.00
Modify  | 0.39265    | 0.39538    | 0.39812    |   0.4 |  1.09
Other   |            | 0.1026     |            |       |  0.28

Nlocal:    9826 ave 9844 max 9808 min
Histogram: 1 0 0 0 0 0 0 0 0 1
Nghost:    11183 ave 11184 max 11182 min
Histogram: 1 0 0 0 0 0 0 0 0 1
Neighs:    530345 ave 531789 max 528901 min
Histogram: 1 0 0 0 0 0 0 0 0 1

Total # of neighbors = 1060690
Ave neighs/atom = 53.9736
Neighbor list builds = 495
Dangerous builds not checked
Setting up Verlet run ...
  Unit style    : metal
  Current step  : 260495
  Time step     : 0.001
Per MPI rank memory allocation (min/avg/max) = 11.29 | 11.29 | 11.29 Mbytes
Step Temp Press TotEng PotEng Enthalpy 
  260495    1302.0256   -119.43586    -113203.6   -116510.86    -113238.4 
  270000    1305.9793   -1020.3718    -113329.2   -116646.51   -113626.68 
Loop time of 682.041 on 2 procs for 9505 steps with 19652 atoms

Performance: 1.204 ns/day, 19.932 hours/ns, 13.936 timesteps/s
99.0% CPU use with 2 MPI tasks x no OpenMP threads

MPI task timing breakdown:
Section |  min time  |  avg time  |  max time  |%varavg| %total
---------------------------------------------------------------
Pair    | 364.54     | 365.36     | 366.18     |   4.3 | 53.57
Neigh   | 271.33     | 271.93     | 272.52     |   3.6 | 39.87
Comm    | 34.941     | 35.169     | 35.397     |   3.8 |  5.16
Output  | 0.033573   | 0.033592   | 0.033612   |   0.0 |  0.00
Modify  | 7.5512     | 7.5618     | 7.5723     |   0.4 |  1.11
Other   |            | 1.992      |            |       |  0.29

Nlocal:    9826 ave 9833 max 9819 min
Histogram: 1 0 0 0 0 0 0 0 0 1
Nghost:    11136.5 ave 11149 max 11124 min
Histogram: 1 0 0 0 0 0 0 0 0 1
Neighs:    530226 ave 530603 max 529850 min
Histogram: 1 0 0 0 0 0 0 0 0 1

Total # of neighbors = 1060453
Ave neighs/atom = 53.9616
Neighbor list builds = 9505
Dangerous builds not checked
Setting up Verlet run ...
  Unit style    : metal
  Current step  : 270000
  Time step     : 0.001
Per MPI rank memory allocation (min/avg/max) = 11.29 | 11.29 | 11.29 Mbytes
Step Temp Press TotEng PotEng Enthalpy 
  270000    1305.9793   -1020.3718    -113329.2   -116646.51   -113626.68 
  270495    1265.1608     -76.7901   -113535.45   -116749.07   -113557.78 
Loop time of 37.7384 on 2 procs for 495 steps with 19652 atoms

Performance: 1.133 ns/day, 21.178 hours/ns, 13.117 timesteps/s
97.6% CPU use with 2 MPI tasks x no OpenMP threads

MPI task timing breakdown:
Section |  min time  |  avg time  |  max time  |%varavg| %total
---------------------------------------------------------------
Pair    | 19.679     | 19.706     | 19.733     |   0.6 | 52.22
Neigh   | 14.326     | 14.466     | 14.606     |   3.7 | 38.33
Comm    | 2.9367     | 3.0514     | 3.166      |   6.6 |  8.09
Output  | 8.3923e-05 | 0.00010943 | 0.00013494 |   0.0 |  0.00
Modify  | 0.40902    | 0.40932    | 0.40962    |   0.0 |  1.08
Other   |            | 0.1056     |            |       |  0.28

Nlocal:    9826 ave 9845 max 9807 min
Histogram: 1 0 0 0 0 0 0 0 0 1
Nghost:    11183 ave 11190 max 11176 min
Histogram: 1 0 0 0 0 0 0 0 0 1
Neighs:    531665 ave 532771 max 530559 min
Histogram: 1 0 0 0 0 0 0 0 0 1

Total # of neighbors = 1063330
Ave neighs/atom = 54.108
Neighbor list builds = 495
Dangerous builds not checked
Setting up Verlet run ...
  Unit style    : metal
  Current step  : 270495
  Time step     : 0.001
Per MPI rank memory allocation (min/avg/max) = 11.29 | 11.29 | 11.29 Mbytes
Step Temp Press TotEng PotEng Enthalpy 
  270495    1265.1608     -76.7901   -113535.45   -116749.07   -113557.78 
  280000    1249.6733    662.05239   -113650.86   -116825.14   -113458.52 
Loop time of 706.653 on 2 procs for 9505 steps with 19652 atoms

Performance: 1.162 ns/day, 20.651 hours/ns, 13.451 timesteps/s
99.2% CPU use with 2 MPI tasks x no OpenMP threads

MPI task timing breakdown:
Section |  min time  |  avg time  |  max time  |%varavg| %total
---------------------------------------------------------------
Pair    | 382.58     | 384.07     | 385.56     |   7.6 | 54.35
Neigh   | 278.81     | 280.53     | 282.25     |  10.3 | 39.70
Comm    | 31.001     | 31.245     | 31.488     |   4.4 |  4.42
Output  | 0.037507   | 0.037546   | 0.037585   |   0.0 |  0.01
Modify  | 8.6749     | 8.6788     | 8.6826     |   0.1 |  1.23
Other   |            | 2.099      |            |       |  0.30

Nlocal:    9826 ave 9830 max 9822 min
Histogram: 1 0 0 0 0 0 0 0 0 1
Nghost:    11164 ave 11165 max 11163 min
Histogram: 1 0 0 0 0 0 0 0 0 1
Neighs:    532663 ave 533223 max 532103 min
Histogram: 1 0 0 0 0 0 0 0 0 1

Total # of neighbors = 1065326
Ave neighs/atom = 54.2095
Neighbor list builds = 9505
Dangerous builds not checked
Setting up Verlet run ...
  Unit style    : metal
  Current step  : 280000
  Time step     : 0.001
Per MPI rank memory allocation (min/avg/max) = 11.29 | 11.29 | 11.29 Mbytes
Step Temp Press TotEng PotEng Enthalpy 
  280000    1249.6733    662.05239   -113650.86   -116825.14   -113458.52 
  280495    1211.8312   -291.88323   -113899.02   -116977.18   -113983.83 
Loop time of 35.727 on 2 procs for 495 steps with 19652 atoms

Performance: 1.197 ns/day, 20.049 hours/ns, 13.855 timesteps/s
99.7% CPU use with 2 MPI tasks x no OpenMP threads

MPI task timing breakdown:
Section |  min time  |  avg time  |  max time  |%varavg| %total
---------------------------------------------------------------
Pair    | 19.262     | 19.37      | 19.477     |   2.4 | 54.22
Neigh   | 13.898     | 14.255     | 14.612     |   9.5 | 39.90
Comm    | 1.1137     | 1.5899     | 2.0661     |  37.8 |  4.45
Output  | 9.203e-05  | 0.00014055 | 0.00018907 |   0.0 |  0.00
Modify  | 0.39645    | 0.40454    | 0.41263    |   1.3 |  1.13
Other   |            | 0.1075     |            |       |  0.30

Nlocal:    9826 ave 9850 max 9802 min
Histogram: 1 0 0 0 0 0 0 0 0 1
Nghost:    11191 ave 11197 max 11185 min
Histogram: 1 0 0 0 0 0 0 0 0 1
Neighs:    532862 ave 534394 max 531329 min
Histogram: 1 0 0 0 0 0 0 0 0 1

Total # of neighbors = 1065723
Ave neighs/atom = 54.2297
Neighbor list builds = 495
Dangerous builds not checked
Setting up Verlet run ...
  Unit style    : metal
  Current step  : 280495
  Time step     : 0.001
Per MPI rank memory allocation (min/avg/max) = 11.29 | 11.29 | 11.29 Mbytes
Step Temp Press TotEng PotEng Enthalpy 
  280495    1211.8312   -291.88323   -113899.02   -116977.18   -113983.83 
  290000    1202.9847    1539.9044   -114037.56   -117093.25   -113591.51 
Loop time of 715.724 on 2 procs for 9505 steps with 19652 atoms

Performance: 1.147 ns/day, 20.917 hours/ns, 13.280 timesteps/s
98.5% CPU use with 2 MPI tasks x no OpenMP threads

MPI task timing breakdown:
Section |  min time  |  avg time  |  max time  |%varavg| %total
---------------------------------------------------------------
Pair    | 388.11     | 389.13     | 390.15     |   5.2 | 54.37
Neigh   | 279.98     | 281.82     | 283.65     |  10.9 | 39.38
Comm    | 32.586     | 33.433     | 34.279     |  14.6 |  4.67
Output  | 0.036378   | 0.036417   | 0.036456   |   0.0 |  0.01
Modify  | 9.1697     | 9.1718     | 9.1739     |   0.1 |  1.28
Other   |            | 2.133      |            |       |  0.30

Nlocal:    9826 ave 9831 max 9821 min
Histogram: 1 0 0 0 0 0 0 0 0 1
Nghost:    11230.5 ave 11246 max 11215 min
Histogram: 1 0 0 0 0 0 0 0 0 1
Neighs:    534714 ave 534769 max 534658 min
Histogram: 1 0 0 0 0 0 0 0 0 1

Total # of neighbors = 1069427
Ave neighs/atom = 54.4182
Neighbor list builds = 9505
Dangerous builds not checked
Setting up Verlet run ...
  Unit style    : metal
  Current step  : 290000
  Time step     : 0.001
Per MPI rank memory allocation (min/avg/max) = 11.29 | 11.29 | 11.29 Mbytes
Step Temp Press TotEng PotEng Enthalpy 
  290000    1202.9847    1539.9044   -114037.56   -117093.25   -113591.51 
  290495    1163.9402   -878.06422   -114249.29    -117205.8   -114504.17 
Loop time of 36.3671 on 2 procs for 495 steps with 19652 atoms

Performance: 1.176 ns/day, 20.408 hours/ns, 13.611 timesteps/s
99.7% CPU use with 2 MPI tasks x no OpenMP threads

MPI task timing breakdown:
Section |  min time  |  avg time  |  max time  |%varavg| %total
---------------------------------------------------------------
Pair    | 19.597     | 19.659     | 19.722     |   1.4 | 54.06
Neigh   | 14.718     | 14.818     | 14.917     |   2.6 | 40.74
Comm    | 1.1985     | 1.3607     | 1.5229     |  13.9 |  3.74
Output  | 9.0837e-05 | 0.00011396 | 0.00013709 |   0.0 |  0.00
Modify  | 0.4165     | 0.41691    | 0.41731    |   0.1 |  1.15
Other   |            | 0.1125     |            |       |  0.31

Nlocal:    9826 ave 9828 max 9824 min
Histogram: 1 0 0 0 0 0 0 0 0 1
Nghost:    11198.5 ave 11207 max 11190 min
Histogram: 1 0 0 0 0 0 0 0 0 1
Neighs:    533738 ave 533958 max 533518 min
Histogram: 1 0 0 0 0 0 0 0 0 1

Total # of neighbors = 1067476
Ave neighs/atom = 54.3189
Neighbor list builds = 495
Dangerous builds not checked
Setting up Verlet run ...
  Unit style    : metal
  Current step  : 290495
  Time step     : 0.001
Per MPI rank memory allocation (min/avg/max) = 11.29 | 11.29 | 11.29 Mbytes
Step Temp Press TotEng PotEng Enthalpy 
  290495    1163.9402   -878.06422   -114249.29    -117205.8   -114504.17 
  300000    1156.3987    347.43381   -114409.39   -117346.74    -114308.8 
Loop time of 733.182 on 2 procs for 9505 steps with 19652 atoms

Performance: 1.120 ns/day, 21.427 hours/ns, 12.964 timesteps/s
97.3% CPU use with 2 MPI tasks x no OpenMP threads

MPI task timing breakdown:
Section |  min time  |  avg time  |  max time  |%varavg| %total
---------------------------------------------------------------
Pair    | 394.59     | 396.61     | 398.63     |  10.2 | 54.09
Neigh   | 288.03     | 289.34     | 290.64     |   7.7 | 39.46
Comm    | 33.938     | 34.675     | 35.412     |  12.5 |  4.73
Output  | 0.036917   | 0.036965   | 0.037014   |   0.0 |  0.01
Modify  | 10.328     | 10.355     | 10.381     |   0.8 |  1.41
Other   |            | 2.165      |            |       |  0.30

Nlocal:    9826 ave 9834 max 9818 min
Histogram: 1 0 0 0 0 0 0 0 0 1
Nghost:    11228.5 ave 11239 max 11218 min
Histogram: 1 0 0 0 0 0 0 0 0 1
Neighs:    535366 ave 535473 max 535259 min
Histogram: 1 0 0 0 0 0 0 0 0 1

Total # of neighbors = 1070732
Ave neighs/atom = 54.4846
Neighbor list builds = 9505
Dangerous builds not checked
Setting up Verlet run ...
  Unit style    : metal
  Current step  : 300000
  Time step     : 0.001
Per MPI rank memory allocation (min/avg/max) = 11.29 | 11.29 | 11.29 Mbytes
Step Temp Press TotEng PotEng Enthalpy 
[...]
Nghost:    11328 ave 11334 max 11322 min
Histogram: 1 0 0 0 0 0 0 0 0 1
Neighs:    552632 ave 552818 max 552445 min
Histogram: 1 0 0 0 0 0 0 0 0 1

Total # of neighbors = 1105263
Ave neighs/atom = 56.2418
Neighbor list builds = 9505
Dangerous builds not checked
Setting up Verlet run ...
  Unit style    : metal
  Current step  : 440000
  Time step     : 0.001
Per MPI rank memory allocation (min/avg/max) = 11.3 | 11.3 | 11.3 Mbytes
Step Temp Press TotEng PotEng Enthalpy 
  440000    447.09278   -939.15489   -119520.47   -120656.12   -119787.07 
  440495    415.11235    792.05541   -119667.38    -120721.8   -119443.14 
Loop time of 33.976 on 2 procs for 495 steps with 19652 atoms

Performance: 1.259 ns/day, 19.066 hours/ns, 14.569 timesteps/s
99.9% CPU use with 2 MPI tasks x no OpenMP threads

MPI task timing breakdown:
Section |  min time  |  avg time  |  max time  |%varavg| %total
---------------------------------------------------------------
Pair    | 18.375     | 18.484     | 18.594     |   2.5 | 54.40
Neigh   | 13.317     | 13.437     | 13.556     |   3.3 | 39.55
Comm    | 1.5338     | 1.5481     | 1.5624     |   1.1 |  4.56
Output  | 0.000108   | 0.00015748 | 0.00020695 |   0.0 |  0.00
Modify  | 0.39532    | 0.3982     | 0.40108    |   0.5 |  1.17
Other   |            | 0.1086     |            |       |  0.32

Nlocal:    9826 ave 9831 max 9821 min
Histogram: 1 0 0 0 0 0 0 0 0 1
Nghost:    11362.5 ave 11368 max 11357 min
Histogram: 1 0 0 0 0 0 0 0 0 1
Neighs:    554396 ave 554867 max 553924 min
Histogram: 1 0 0 0 0 0 0 0 0 1

Total # of neighbors = 1108791
Ave neighs/atom = 56.4213
Neighbor list builds = 495
Dangerous builds not checked
Setting up Verlet run ...
  Unit style    : metal
  Current step  : 440495
  Time step     : 0.001
Per MPI rank memory allocation (min/avg/max) = 11.3 | 11.3 | 11.3 Mbytes
Step Temp Press TotEng PotEng Enthalpy 
  440495    415.11235    792.05541   -119667.38    -120721.8   -119443.14 
  450000     398.9887   -136.60291   -119788.96   -120802.43   -119827.66 
Loop time of 667.328 on 2 procs for 9505 steps with 19652 atoms

Performance: 1.231 ns/day, 19.502 hours/ns, 14.243 timesteps/s
98.5% CPU use with 2 MPI tasks x no OpenMP threads

MPI task timing breakdown:
Section |  min time  |  avg time  |  max time  |%varavg| %total
---------------------------------------------------------------
Pair    | 360.57     | 362.15     | 363.73     |   8.3 | 54.27
Neigh   | 260.23     | 261.47     | 262.72     |   7.7 | 39.18
Comm    | 30.482     | 33.373     | 36.264     |  50.0 |  5.00
Output  | 0.035703   | 0.035785   | 0.035867   |   0.0 |  0.01
Modify  | 8.1673     | 8.2213     | 8.2754     |   1.9 |  1.23
Other   |            | 2.077      |            |       |  0.31

Nlocal:    9826 ave 9837 max 9815 min
Histogram: 1 0 0 0 0 0 0 0 0 1
Nghost:    11346 ave 11361 max 11331 min
Histogram: 1 0 0 0 0 0 0 0 0 1
Neighs:    553804 ave 555043 max 552566 min
Histogram: 1 0 0 0 0 0 0 0 0 1

Total # of neighbors = 1107609
Ave neighs/atom = 56.3611
Neighbor list builds = 9505
Dangerous builds not checked
Setting up Verlet run ...
  Unit style    : metal
  Current step  : 450000
  Time step     : 0.001
Per MPI rank memory allocation (min/avg/max) = 11.3 | 11.3 | 11.3 Mbytes
Step Temp Press TotEng PotEng Enthalpy 
  450000     398.9887   -136.60291   -119788.96   -120802.43   -119827.66 
  450495     370.8147     323.7931   -119937.24   -120879.15   -119845.61 
Loop time of 33.9594 on 2 procs for 495 steps with 19652 atoms

Performance: 1.259 ns/day, 19.057 hours/ns, 14.576 timesteps/s
99.9% CPU use with 2 MPI tasks x no OpenMP threads

MPI task timing breakdown:
Section |  min time  |  avg time  |  max time  |%varavg| %total
---------------------------------------------------------------
Pair    | 18.443     | 18.481     | 18.52      |   0.9 | 54.42
Neigh   | 13.865     | 13.897     | 13.93      |   0.9 | 40.92
Comm    | 1.0716     | 1.0752     | 1.0787     |   0.3 |  3.17
Output  | 0.00015712 | 0.00021815 | 0.00027919 |   0.0 |  0.00
Modify  | 0.39513    | 0.39623    | 0.39732    |   0.2 |  1.17
Other   |            | 0.109      |            |       |  0.32

Nlocal:    9826 ave 9828 max 9824 min
Histogram: 1 0 0 0 0 0 0 0 0 1
Nghost:    11350 ave 11375 max 11325 min
Histogram: 1 0 0 0 0 0 0 0 0 1
Neighs:    554694 ave 554714 max 554674 min
Histogram: 1 0 0 0 0 0 0 0 0 1

Total # of neighbors = 1109388
Ave neighs/atom = 56.4517
Neighbor list builds = 495
Dangerous builds not checked
Setting up Verlet run ...
  Unit style    : metal
  Current step  : 450495
  Time step     : 0.001
Per MPI rank memory allocation (min/avg/max) = 11.3 | 11.3 | 11.3 Mbytes
Step Temp Press TotEng PotEng Enthalpy 
  450495     370.8147     323.7931   -119937.24   -120879.15   -119845.61 
  460000    349.75587   -620.36614   -120046.95   -120935.37   -120222.65 
Loop time of 660.522 on 2 procs for 9505 steps with 19652 atoms

Performance: 1.243 ns/day, 19.303 hours/ns, 14.390 timesteps/s
99.2% CPU use with 2 MPI tasks x no OpenMP threads

MPI task timing breakdown:
Section |  min time  |  avg time  |  max time  |%varavg| %total
---------------------------------------------------------------
Pair    | 359.22     | 360.14     | 361.06     |   4.8 | 54.52
Neigh   | 268.57     | 269.44     | 270.3      |   5.3 | 40.79
Comm    | 21.092     | 21.155     | 21.217     |   1.4 |  3.20
Output  | 0.036842   | 0.036869   | 0.036896   |   0.0 |  0.01
Modify  | 7.6253     | 7.6368     | 7.6483     |   0.4 |  1.16
Other   |            | 2.113      |            |       |  0.32

Nlocal:    9826 ave 9830 max 9822 min
Histogram: 1 0 0 0 0 0 0 0 0 1
Nghost:    11344.5 ave 11347 max 11342 min
Histogram: 1 0 0 0 0 0 0 0 0 1
Neighs:    554415 ave 555106 max 553724 min
Histogram: 1 0 0 0 0 0 0 0 0 1

Total # of neighbors = 1108830
Ave neighs/atom = 56.4233
Neighbor list builds = 9505
Dangerous builds not checked
Setting up Verlet run ...
  Unit style    : metal
  Current step  : 460000
  Time step     : 0.001
Per MPI rank memory allocation (min/avg/max) = 11.3 | 11.3 | 11.3 Mbytes
Step Temp Press TotEng PotEng Enthalpy 
  460000    349.75587   -620.36614   -120046.95   -120935.37   -120222.65 
  460495    322.23257   -170.89158   -120199.48   -121017.98   -120247.82 
Loop time of 34.6342 on 2 procs for 495 steps with 19652 atoms

Performance: 1.235 ns/day, 19.436 hours/ns, 14.292 timesteps/s
99.9% CPU use with 2 MPI tasks x no OpenMP threads

MPI task timing breakdown:
Section |  min time  |  avg time  |  max time  |%varavg| %total
---------------------------------------------------------------
Pair    | 18.933     | 18.944     | 18.956     |   0.3 | 54.70
Neigh   | 14.146     | 14.155     | 14.165     |   0.3 | 40.87
Comm    | 0.99484    | 1.0144     | 1.0339     |   1.9 |  2.93
Output  | 8.297e-05  | 0.00018406 | 0.00028515 |   0.0 |  0.00
Modify  | 0.40544    | 0.40725    | 0.40905    |   0.3 |  1.18
Other   |            | 0.1127     |            |       |  0.33

Nlocal:    9826 ave 9827 max 9825 min
Histogram: 1 0 0 0 0 0 0 0 0 1
Nghost:    11339 ave 11348 max 11330 min
Histogram: 1 0 0 0 0 0 0 0 0 1
Neighs:    554962 ave 555018 max 554907 min
Histogram: 1 0 0 0 0 0 0 0 0 1

Total # of neighbors = 1109925
Ave neighs/atom = 56.479
Neighbor list builds = 495
Dangerous builds not checked
Setting up Verlet run ...
  Unit style    : metal
  Current step  : 460495
  Time step     : 0.001
Per MPI rank memory allocation (min/avg/max) = 11.3 | 11.3 | 11.3 Mbytes
Step Temp Press TotEng PotEng Enthalpy 
  460495    322.23257   -170.89158   -120199.48   -121017.98   -120247.82 
  470000    301.83897   -780.54427   -120321.13   -121087.83   -120542.01 
Loop time of 680.24 on 2 procs for 9505 steps with 19652 atoms

Performance: 1.207 ns/day, 19.880 hours/ns, 13.973 timesteps/s
97.5% CPU use with 2 MPI tasks x no OpenMP threads

MPI task timing breakdown:
Section |  min time  |  avg time  |  max time  |%varavg| %total
---------------------------------------------------------------
Pair    | 372.88     | 373.8      | 374.72     |   4.8 | 54.95
Neigh   | 269.26     | 269.52     | 269.77     |   1.6 | 39.62
Comm    | 25.721     | 26.831     | 27.941     |  21.4 |  3.94
Output  | 0.033171   | 0.03319    | 0.033209   |   0.0 |  0.00
Modify  | 7.8197     | 7.8821     | 7.9445     |   2.2 |  1.16
Other   |            | 2.178      |            |       |  0.32

Nlocal:    9826 ave 9835 max 9817 min
Histogram: 1 0 0 0 0 0 0 0 0 1
Nghost:    11343 ave 11345 max 11341 min
Histogram: 1 0 0 0 0 0 0 0 0 1
Neighs:    554711 ave 555172 max 554250 min
Histogram: 1 0 0 0 0 0 0 0 0 1

Total # of neighbors = 1109422
Ave neighs/atom = 56.4534
Neighbor list builds = 9505
Dangerous builds not checked
Setting up Verlet run ...
  Unit style    : metal
  Current step  : 470000
  Time step     : 0.001
Per MPI rank memory allocation (min/avg/max) = 11.3 | 11.3 | 11.3 Mbytes
Step Temp Press TotEng PotEng Enthalpy 
  470000    301.83897   -780.54427   -120321.13   -121087.83   -120542.01 
  470495    275.18505   -639.16426   -120462.47   -121161.47   -120643.22 
Loop time of 36.031 on 2 procs for 495 steps with 19652 atoms

Performance: 1.187 ns/day, 20.219 hours/ns, 13.738 timesteps/s
97.4% CPU use with 2 MPI tasks x no OpenMP threads

MPI task timing breakdown:
Section |  min time  |  avg time  |  max time  |%varavg| %total
---------------------------------------------------------------
Pair    | 20.083     | 20.142     | 20.201     |   1.3 | 55.90
Neigh   | 14.097     | 14.188     | 14.28      |   2.4 | 39.38
Comm    | 1.1351     | 1.1707     | 1.2063     |   3.3 |  3.25
Output  | 8.1062e-05 | 0.00017202 | 0.00026298 |   0.0 |  0.00
Modify  | 0.41334    | 0.41431    | 0.41528    |   0.2 |  1.15
Other   |            | 0.1159     |            |       |  0.32

Nlocal:    9826 ave 9828 max 9824 min
Histogram: 1 0 0 0 0 0 0 0 0 1
Nghost:    11359.5 ave 11363 max 11356 min
Histogram: 1 0 0 0 0 0 0 0 0 1
Neighs:    555088 ave 555192 max 554985 min
Histogram: 1 0 0 0 0 0 0 0 0 1

Total # of neighbors = 1110177
Ave neighs/atom = 56.4918
Neighbor list builds = 495
Dangerous builds not checked
Setting up Verlet run ...
  Unit style    : metal
  Current step  : 470495
  Time step     : 0.001
Per MPI rank memory allocation (min/avg/max) = 11.3 | 11.3 | 11.3 Mbytes
Step Temp Press TotEng PotEng Enthalpy 
  470495    275.18505   -639.16426   -120462.47   -121161.47   -120643.22 
  480000     252.4657    941.43974   -120582.23   -121223.51   -120316.57 
Loop time of 666.885 on 2 procs for 9505 steps with 19652 atoms

Performance: 1.231 ns/day, 19.489 hours/ns, 14.253 timesteps/s
98.3% CPU use with 2 MPI tasks x no OpenMP threads

MPI task timing breakdown:
Section |  min time  |  avg time  |  max time  |%varavg| %total
---------------------------------------------------------------
Pair    | 357.58     | 358.24     | 358.9      |   3.5 | 53.72
Neigh   | 267.74     | 267.75     | 267.76     |   0.1 | 40.15
Comm    | 28.188     | 28.877     | 29.566     |  12.8 |  4.33
Output  | 0.052876   | 0.052904   | 0.052933   |   0.0 |  0.01
Modify  | 9.8115     | 9.8452     | 9.8788     |   1.1 |  1.48
Other   |            | 2.121      |            |       |  0.32

Nlocal:    9826 ave 9828 max 9824 min
Histogram: 1 0 0 0 0 0 0 0 0 1
Nghost:    11373 ave 11378 max 11368 min
Histogram: 1 0 0 0 0 0 0 0 0 1
Neighs:    556526 ave 556577 max 556474 min
Histogram: 1 0 0 0 0 0 0 0 0 1

Total # of neighbors = 1113051
Ave neighs/atom = 56.6381
Neighbor list builds = 9505
Dangerous builds not checked
Setting up Verlet run ...
  Unit style    : metal
  Current step  : 480000
  Time step     : 0.001
Per MPI rank memory allocation (min/avg/max) = 11.3 | 11.3 | 11.3 Mbytes
Step Temp Press TotEng PotEng Enthalpy 
  480000     252.4657    941.43974   -120582.23   -121223.51   -120316.57 
  480495    224.92101   -342.95734   -120721.76   -121293.08   -120818.61 
Loop time of 34.4411 on 2 procs for 495 steps with 19652 atoms

Performance: 1.242 ns/day, 19.327 hours/ns, 14.372 timesteps/s
98.4% CPU use with 2 MPI tasks x no OpenMP threads

MPI task timing breakdown:
Section |  min time  |  avg time  |  max time  |%varavg| %total
---------------------------------------------------------------
Pair    | 18.373     | 18.379     | 18.386     |   0.1 | 53.36
Neigh   | 13.632     | 13.819     | 14.006     |   5.0 | 40.12
Comm    | 1.5443     | 1.7341     | 1.9239     |  14.4 |  5.04
Output  | 0.00016785 | 0.00017941 | 0.00019097 |   0.0 |  0.00
Modify  | 0.39287    | 0.39979    | 0.40671    |   1.1 |  1.16
Other   |            | 0.1087     |            |       |  0.32

Nlocal:    9826 ave 9833 max 9819 min
Histogram: 1 0 0 0 0 0 0 0 0 1
Nghost:    11382.5 ave 11401 max 11364 min
Histogram: 1 0 0 0 0 0 0 0 0 1
Neighs:    555981 ave 556411 max 555551 min
Histogram: 1 0 0 0 0 0 0 0 0 1

Total # of neighbors = 1111962
Ave neighs/atom = 56.5826
Neighbor list builds = 495
Dangerous builds not checked
Setting up Verlet run ...
  Unit style    : metal
  Current step  : 480495
  Time step     : 0.001
Per MPI rank memory allocation (min/avg/max) = 11.3 | 11.3 | 11.3 Mbytes
Step Temp Press TotEng PotEng Enthalpy 
  480495    224.92101   -342.95734   -120721.76   -121293.08   -120818.61 
  490000    200.14764   -303.61624   -120848.15   -121356.55   -120933.87 
Loop time of 654.849 on 2 procs for 9505 steps with 19652 atoms

Performance: 1.254 ns/day, 19.138 hours/ns, 14.515 timesteps/s
98.7% CPU use with 2 MPI tasks x no OpenMP threads

MPI task timing breakdown:
Section |  min time  |  avg time  |  max time  |%varavg| %total
---------------------------------------------------------------
Pair    | 352.04     | 352.89     | 353.73     |   4.5 | 53.89
Neigh   | 264.61     | 265.26     | 265.91     |   4.0 | 40.51
Comm    | 26.542     | 26.733     | 26.924     |   3.7 |  4.08
Output  | 0.035904   | 0.035956   | 0.036008   |   0.0 |  0.01
Modify  | 7.8374     | 7.8443     | 7.8513     |   0.2 |  1.20
Other   |            | 2.089      |            |       |  0.32

Nlocal:    9826 ave 9830 max 9822 min
Histogram: 1 0 0 0 0 0 0 0 0 1
Nghost:    11362.5 ave 11382 max 11343 min
Histogram: 1 0 0 0 0 0 0 0 0 1
Neighs:    556384 ave 556715 max 556053 min
Histogram: 1 0 0 0 0 0 0 0 0 1

Total # of neighbors = 1112768
Ave neighs/atom = 56.6237
Neighbor list builds = 9505
Dangerous builds not checked
Setting up Verlet run ...
  Unit style    : metal
  Current step  : 490000
  Time step     : 0.001
Per MPI rank memory allocation (min/avg/max) = 11.3 | 11.3 | 11.3 Mbytes
Step Temp Press TotEng PotEng Enthalpy 
  490000    200.14764   -303.61624   -120848.15   -121356.55   -120933.87 
  490495    176.64962    25.116951   -120976.16   -121424.86   -120969.07 
Loop time of 32.7516 on 2 procs for 495 steps with 19652 atoms

Performance: 1.306 ns/day, 18.379 hours/ns, 15.114 timesteps/s
99.9% CPU use with 2 MPI tasks x no OpenMP threads

MPI task timing breakdown:
Section |  min time  |  avg time  |  max time  |%varavg| %total
---------------------------------------------------------------
Pair    | 17.679     | 17.763     | 17.847     |   2.0 | 54.24
Neigh   | 13.732     | 13.781     | 13.83      |   1.3 | 42.08
Comm    | 0.67565    | 0.71268    | 0.74971    |   4.4 |  2.18
Output  | 9.0122e-05 | 0.00019753 | 0.00030494 |   0.0 |  0.00
Modify  | 0.38363    | 0.38631    | 0.38899    |   0.4 |  1.18
Other   |            | 0.1085     |            |       |  0.33

Nlocal:    9826 ave 9837 max 9815 min
Histogram: 1 0 0 0 0 0 0 0 0 1
Nghost:    11370 ave 11385 max 11355 min
Histogram: 1 0 0 0 0 0 0 0 0 1
Neighs:    556923 ave 557487 max 556359 min
Histogram: 1 0 0 0 0 0 0 0 0 1

Total # of neighbors = 1113846
Ave neighs/atom = 56.6785
Neighbor list builds = 495
Dangerous builds not checked
Setting up Verlet run ...
  Unit style    : metal
  Current step  : 490495
  Time step     : 0.001
Per MPI rank memory allocation (min/avg/max) = 11.3 | 11.3 | 11.3 Mbytes
Step Temp Press TotEng PotEng Enthalpy 
  490495    176.64962    25.116951   -120976.16   -121424.86   -120969.07 
  500000    148.86795    149.47715    -121114.4   -121492.54   -121072.26 
Loop time of 649.218 on 2 procs for 9505 steps with 19652 atoms

Performance: 1.265 ns/day, 18.973 hours/ns, 14.641 timesteps/s
99.0% CPU use with 2 MPI tasks x no OpenMP threads

MPI task timing breakdown:
Section |  min time  |  avg time  |  max time  |%varavg| %total
---------------------------------------------------------------
Pair    | 348.31     | 349.73     | 351.15     |   7.6 | 53.87
Neigh   | 264.04     | 264.11     | 264.18     |   0.4 | 40.68
Comm    | 23.339     | 24.716     | 26.093     |  27.7 |  3.81
Output  | 0.036136   | 0.036157   | 0.036178   |   0.0 |  0.01
Modify  | 8.5087     | 8.5381     | 8.5675     |   1.0 |  1.32
Other   |            | 2.09       |            |       |  0.32

Nlocal:    9826 ave 9827 max 9825 min
Histogram: 1 0 0 0 0 0 0 0 0 1
Nghost:    11389 ave 11413 max 11365 min
Histogram: 1 0 0 0 0 0 0 0 0 1
Neighs:    557338 ave 557461 max 557216 min
Histogram: 1 0 0 0 0 0 0 0 0 1

Total # of neighbors = 1114677
Ave neighs/atom = 56.7208
Neighbor list builds = 9505
Dangerous builds not checked
Setting up Verlet run ...
  Unit style    : metal
  Current step  : 500000
  Time step     : 0.001
Per MPI rank memory allocation (min/avg/max) = 11.3 | 11.3 | 11.3 Mbytes
Step Temp Press TotEng PotEng Enthalpy 
  500000    148.86795    149.47715    -121114.4   -121492.54   -121072.26 
  500495    126.34802   -29.060773   -121229.81   -121550.75      -121238 
Loop time of 33.333 on 2 procs for 495 steps with 19652 atoms

Performance: 1.283 ns/day, 18.705 hours/ns, 14.850 timesteps/s
99.7% CPU use with 2 MPI tasks x no OpenMP threads

MPI task timing breakdown:
Section |  min time  |  avg time  |  max time  |%varavg| %total
---------------------------------------------------------------
Pair    | 17.9       | 18.01      | 18.12      |   2.6 | 54.03
Neigh   | 13.813     | 13.839     | 13.864     |   0.7 | 41.52
Comm    | 0.89367    | 0.97884    | 1.064      |   8.6 |  2.94
Output  | 9.2983e-05 | 0.00014043 | 0.00018787 |   0.0 |  0.00
Modify  | 0.39456    | 0.39586    | 0.39717    |   0.2 |  1.19
Other   |            | 0.1094     |            |       |  0.33

Nlocal:    9826 ave 9834 max 9818 min
Histogram: 1 0 0 0 0 0 0 0 0 1
Nghost:    11376 ave 11384 max 11368 min
Histogram: 1 0 0 0 0 0 0 0 0 1
Neighs:    557533 ave 557789 max 557277 min
Histogram: 1 0 0 0 0 0 0 0 0 1

Total # of neighbors = 1115066
Ave neighs/atom = 56.7406
Neighbor list builds = 495
Dangerous builds not checked
Setting up Verlet run ...
  Unit style    : metal
  Current step  : 500495
  Time step     : 0.001
Per MPI rank memory allocation (min/avg/max) = 11.3 | 11.3 | 11.3 Mbytes
Step Temp Press TotEng PotEng Enthalpy 
  500495    126.34802   -29.060773   -121229.81   -121550.75      -121238 
  510000    100.23934   -330.21714    -121367.1   -121621.72   -121460.16 
Loop time of 641.864 on 2 procs for 9505 steps with 19652 atoms

Performance: 1.279 ns/day, 18.758 hours/ns, 14.808 timesteps/s
99.2% CPU use with 2 MPI tasks x no OpenMP threads

MPI task timing breakdown:
Section |  min time  |  avg time  |  max time  |%varavg| %total
---------------------------------------------------------------
Pair    | 346.68     | 347.17     | 347.67     |   2.6 | 54.09
Neigh   | 263.82     | 264.09     | 264.36     |   1.6 | 41.14
Comm    | 20.5       | 20.74      | 20.98      |   5.3 |  3.23
Output  | 0.036197   | 0.036224   | 0.03625    |   0.0 |  0.01
Modify  | 7.7182     | 7.7366     | 7.7551     |   0.7 |  1.21
Other   |            | 2.087      |            |       |  0.33

Nlocal:    9826 ave 9830 max 9822 min
Histogram: 1 0 0 0 0 0 0 0 0 1
Nghost:    11371.5 ave 11385 max 11358 min
Histogram: 1 0 0 0 0 0 0 0 0 1
Neighs:    557584 ave 557798 max 557370 min
Histogram: 1 0 0 0 0 0 0 0 0 1

Total # of neighbors = 1115168
Ave neighs/atom = 56.7458
Neighbor list builds = 9505
Dangerous builds not checked
Total wall time: 11:08:50
