LAMMPS (12 Dec 2018)
Lattice spacing in x,y,z = 4 4 4
Created orthogonal box = (0 0 0) to (68 68 68)
  1 by 1 by 1 MPI processor grid
Created 19652 atoms
  Time spent = 0.00292706 secs
Setting atom values ...
  206 settings made for type/fraction
Neighbor list info ...
  update every 1 steps, delay 0 steps, check no
  max neighbors/atom: 2000, page size: 100000
  master list distance cutoff = 8.5
  ghost atom cutoff = 8.5
  binsize = 4.25, bins = 16 16 16
  1 neighbor lists, perpetual/occasional/extra = 1 0 0
  (1) pair eam/alloy, perpetual
      attributes: half, newton on
      pair build: half/bin/atomonly/newton
      stencil: half/bin/3d/newton
      bin: standard
Setting up Verlet run ...
  Unit style    : metal
  Current step  : 0
  Time step     : 0.001
Per MPI rank memory allocation (min/avg/max) = 18.19 | 18.19 | 18.19 Mbytes
Step Temp Press TotEng PotEng Enthalpy 
       0          300    647872.02   -100670.87    -101432.9    26475.981 
    1000    272.74208    563595.25   -100670.81    -101363.6    9936.4708 
Loop time of 144.85 on 1 procs for 1000 steps with 19652 atoms

Performance: 0.596 ns/day, 40.236 hours/ns, 6.904 timesteps/s
99.6% CPU use with 1 MPI tasks x no OpenMP threads

MPI task timing breakdown:
Section |  min time  |  avg time  |  max time  |%varavg| %total
---------------------------------------------------------------
Pair    | 81.387     | 81.387     | 81.387     |   0.0 | 56.19
Neigh   | 61.621     | 61.621     | 61.621     |   0.0 | 42.54
Comm    | 1.1004     | 1.1004     | 1.1004     |   0.0 |  0.76
Output  | 0.00013304 | 0.00013304 | 0.00013304 |   0.0 |  0.00
Modify  | 0.38546    | 0.38546    | 0.38546    |   0.0 |  0.27
Other   |            | 0.3554     |            |       |  0.25

Nlocal:    19652 ave 19652 max 19652 min
Histogram: 1 0 0 0 0 0 0 0 0 0
Nghost:    19430 ave 19430 max 19430 min
Histogram: 1 0 0 0 0 0 0 0 0 0
Neighs:    1.58008e+06 ave 1.58008e+06 max 1.58008e+06 min
Histogram: 1 0 0 0 0 0 0 0 0 0

Total # of neighbors = 1580085
Ave neighs/atom = 80.4033
Neighbor list builds = 1000
Dangerous builds not checked
Setting up Verlet run ...
  Unit style    : metal
  Current step  : 1000
  Time step     : 0.001
Per MPI rank memory allocation (min/avg/max) = 18.19 | 18.19 | 18.19 Mbytes
Step Temp Press TotEng PotEng Enthalpy 
    1000    272.74208    563595.25   -100670.81    -101363.6    9936.4708 
    2000    295.44216    3.2882718   -122420.42   -123170.87   -122419.48 
Loop time of 133.06 on 1 procs for 1000 steps with 19652 atoms

Performance: 0.649 ns/day, 36.961 hours/ns, 7.515 timesteps/s
99.0% CPU use with 1 MPI tasks x no OpenMP threads

MPI task timing breakdown:
Section |  min time  |  avg time  |  max time  |%varavg| %total
---------------------------------------------------------------
Pair    | 71.527     | 71.527     | 71.527     |   0.0 | 53.76
Neigh   | 58.543     | 58.543     | 58.543     |   0.0 | 44.00
Comm    | 1.0978     | 1.0978     | 1.0978     |   0.0 |  0.83
Output  | 0.00013399 | 0.00013399 | 0.00013399 |   0.0 |  0.00
Modify  | 1.4963     | 1.4963     | 1.4963     |   0.0 |  1.12
Other   |            | 0.3963     |            |       |  0.30

Nlocal:    19652 ave 19652 max 19652 min
Histogram: 1 0 0 0 0 0 0 0 0 0
Nghost:    14812 ave 14812 max 14812 min
Histogram: 1 0 0 0 0 0 0 0 0 0
Neighs:    1.07204e+06 ave 1.07204e+06 max 1.07204e+06 min
Histogram: 1 0 0 0 0 0 0 0 0 0

Total # of neighbors = 1072039
Ave neighs/atom = 54.5511
Neighbor list builds = 1000
Dangerous builds not checked
Setting up Verlet run ...
  Unit style    : metal
  Current step  : 2000
  Time step     : 0.001
Per MPI rank memory allocation (min/avg/max) = 18.19 | 18.19 | 18.19 Mbytes
Step Temp Press TotEng PotEng Enthalpy 
    2000    295.44216    3.2882718   -122420.42   -123170.87   -122419.48 
    5000    1117.7193    892.54538   -117925.82   -120764.93   -117665.87 
   10000    2413.1652    2007.8736   -107451.21   -113580.87   -106840.64 
Loop time of 1007.75 on 1 procs for 8000 steps with 19652 atoms

Performance: 0.686 ns/day, 34.991 hours/ns, 7.938 timesteps/s
99.0% CPU use with 1 MPI tasks x no OpenMP threads

MPI task timing breakdown:
Section |  min time  |  avg time  |  max time  |%varavg| %total
---------------------------------------------------------------
Pair    | 544.22     | 544.22     | 544.22     |   0.0 | 54.00
Neigh   | 438.62     | 438.62     | 438.62     |   0.0 | 43.53
Comm    | 8.9174     | 8.9174     | 8.9174     |   0.0 |  0.88
Output  | 0.14408    | 0.14408    | 0.14408    |   0.0 |  0.01
Modify  | 12.422     | 12.422     | 12.422     |   0.0 |  1.23
Other   |            | 3.42       |            |       |  0.34

Nlocal:    19652 ave 19652 max 19652 min
Histogram: 1 0 0 0 0 0 0 0 0 0
Nghost:    15521 ave 15521 max 15521 min
Histogram: 1 0 0 0 0 0 0 0 0 0
Neighs:    1.01071e+06 ave 1.01071e+06 max 1.01071e+06 min
Histogram: 1 0 0 0 0 0 0 0 0 0

Total # of neighbors = 1010714
Ave neighs/atom = 51.4306
Neighbor list builds = 8000
Dangerous builds not checked
Setting up Verlet run ...
  Unit style    : metal
  Current step  : 10000
  Time step     : 0.001
Per MPI rank memory allocation (min/avg/max) = 18.19 | 18.19 | 18.19 Mbytes
Step Temp Press TotEng PotEng Enthalpy 
   10000    2413.1652    2007.8736   -107451.21   -113580.87   -106840.64 
   15000    2471.6698    395.91474   -106073.02   -112351.29   -105951.21 
   20000    2438.8548    218.22473   -106135.86   -112330.77   -106068.73 
   25000     2428.934   -655.66514   -106197.15   -112366.86   -106399.17 
   30000    2425.6195   -1308.6603   -106166.45   -112327.75   -106570.06 
   35000    2463.9846    444.02691   -106107.86   -112366.61   -105971.34 
   40000    2459.6308   -902.52759   -106044.94   -112292.63   -106323.44 
Loop time of 4026.92 on 1 procs for 30000 steps with 19652 atoms

Performance: 0.644 ns/day, 37.286 hours/ns, 7.450 timesteps/s
98.8% CPU use with 1 MPI tasks x no OpenMP threads

MPI task timing breakdown:
Section |  min time  |  avg time  |  max time  |%varavg| %total
---------------------------------------------------------------
Pair    | 2147.5     | 2147.5     | 2147.5     |   0.0 | 53.33
Neigh   | 1784.2     | 1784.2     | 1784.2     |   0.0 | 44.31
Comm    | 34.609     | 34.609     | 34.609     |   0.0 |  0.86
Output  | 0.54802    | 0.54802    | 0.54802    |   0.0 |  0.01
Modify  | 47.223     | 47.223     | 47.223     |   0.0 |  1.17
Other   |            | 12.87      |            |       |  0.32

Nlocal:    19652 ave 19652 max 19652 min
Histogram: 1 0 0 0 0 0 0 0 0 0
Nghost:    15605 ave 15605 max 15605 min
Histogram: 1 0 0 0 0 0 0 0 0 0
Neighs:    997193 ave 997193 max 997193 min
Histogram: 1 0 0 0 0 0 0 0 0 0

Total # of neighbors = 997193
Ave neighs/atom = 50.7426
Neighbor list builds = 30000
Dangerous builds not checked
Setting up Verlet run ...
  Unit style    : metal
  Current step  : 40000
  Time step     : 0.001
Per MPI rank memory allocation (min/avg/max) = 18.19 | 18.19 | 18.19 Mbytes
Step Temp Press TotEng PotEng Enthalpy 
   40000    2459.6308   -902.52759   -106044.94   -112292.63   -106323.44 
   40495     2393.813   -603.59796   -106362.66   -112443.16   -106548.34 
Loop time of 65.4191 on 1 procs for 495 steps with 19652 atoms

Performance: 0.654 ns/day, 36.711 hours/ns, 7.567 timesteps/s
99.2% CPU use with 1 MPI tasks x no OpenMP threads

MPI task timing breakdown:
Section |  min time  |  avg time  |  max time  |%varavg| %total
---------------------------------------------------------------
Pair    | 34.687     | 34.687     | 34.687     |   0.0 | 53.02
Neigh   | 29.165     | 29.165     | 29.165     |   0.0 | 44.58
Comm    | 0.57539    | 0.57539    | 0.57539    |   0.0 |  0.88
Output  | 0.00017095 | 0.00017095 | 0.00017095 |   0.0 |  0.00
Modify  | 0.77714    | 0.77714    | 0.77714    |   0.0 |  1.19
Other   |            | 0.2143     |            |       |  0.33

Nlocal:    19652 ave 19652 max 19652 min
Histogram: 1 0 0 0 0 0 0 0 0 0
Nghost:    15560 ave 15560 max 15560 min
Histogram: 1 0 0 0 0 0 0 0 0 0
Neighs:    999482 ave 999482 max 999482 min
Histogram: 1 0 0 0 0 0 0 0 0 0

Total # of neighbors = 999482
Ave neighs/atom = 50.859
Neighbor list builds = 495
Dangerous builds not checked
Setting up Verlet run ...
  Unit style    : metal
  Current step  : 40495
  Time step     : 0.001
Per MPI rank memory allocation (min/avg/max) = 18.19 | 18.19 | 18.19 Mbytes
Step Temp Press TotEng PotEng Enthalpy 
   40495     2393.813   -603.59796   -106362.66   -112443.16   -106548.34 
   45000    2400.5426     102.2205    -106378.3   -112475.89   -106346.89 
Loop time of 586.403 on 1 procs for 4505 steps with 19652 atoms

Performance: 0.664 ns/day, 36.158 hours/ns, 7.682 timesteps/s
98.8% CPU use with 1 MPI tasks x no OpenMP threads

MPI task timing breakdown:
Section |  min time  |  avg time  |  max time  |%varavg| %total
---------------------------------------------------------------
Pair    | 308.53     | 308.53     | 308.53     |   0.0 | 52.61
Neigh   | 263.91     | 263.91     | 263.91     |   0.0 | 45.00
Comm    | 5.0407     | 5.0407     | 5.0407     |   0.0 |  0.86
Output  | 0.083505   | 0.083505   | 0.083505   |   0.0 |  0.01
Modify  | 6.9555     | 6.9555     | 6.9555     |   0.0 |  1.19
Other   |            | 1.885      |            |       |  0.32

Nlocal:    19652 ave 19652 max 19652 min
Histogram: 1 0 0 0 0 0 0 0 0 0
Nghost:    15583 ave 15583 max 15583 min
Histogram: 1 0 0 0 0 0 0 0 0 0
Neighs:    1.0009e+06 ave 1.0009e+06 max 1.0009e+06 min
Histogram: 1 0 0 0 0 0 0 0 0 0

Total # of neighbors = 1000905
Ave neighs/atom = 50.9315
Neighbor list builds = 4505
Dangerous builds not checked
Setting up Verlet run ...
  Unit style    : metal
  Current step  : 45000
  Time step     : 0.001
Per MPI rank memory allocation (min/avg/max) = 18.19 | 18.19 | 18.19 Mbytes
Step Temp Press TotEng PotEng Enthalpy 
   45000    2400.5426     102.2205    -106378.3   -112475.89   -106346.89 
   45495    2351.8344    411.87334   -106659.74   -112633.61    -106533.4 
Loop time of 62.6029 on 1 procs for 495 steps with 19652 atoms

Performance: 0.683 ns/day, 35.131 hours/ns, 7.907 timesteps/s
98.5% CPU use with 1 MPI tasks x no OpenMP threads

MPI task timing breakdown:
Section |  min time  |  avg time  |  max time  |%varavg| %total
---------------------------------------------------------------
Pair    | 32.631     | 32.631     | 32.631     |   0.0 | 52.12
Neigh   | 28.445     | 28.445     | 28.445     |   0.0 | 45.44
Comm    | 0.54025    | 0.54025    | 0.54025    |   0.0 |  0.86
Output  | 0.00013399 | 0.00013399 | 0.00013399 |   0.0 |  0.00
Modify  | 0.78254    | 0.78254    | 0.78254    |   0.0 |  1.25
Other   |            | 0.2033     |            |       |  0.32

Nlocal:    19652 ave 19652 max 19652 min
Histogram: 1 0 0 0 0 0 0 0 0 0
Nghost:    15596 ave 15596 max 15596 min
Histogram: 1 0 0 0 0 0 0 0 0 0
Neighs:    1.00305e+06 ave 1.00305e+06 max 1.00305e+06 min
Histogram: 1 0 0 0 0 0 0 0 0 0

Total # of neighbors = 1003047
Ave neighs/atom = 51.0405
Neighbor list builds = 495
Dangerous builds not checked
Setting up Verlet run ...
  Unit style    : metal
  Current step  : 45495
  Time step     : 0.001
Per MPI rank memory allocation (min/avg/max) = 18.19 | 18.19 | 18.19 Mbytes
Step Temp Press TotEng PotEng Enthalpy 
   45495    2351.8344    411.87334   -106659.74   -112633.61    -106533.4 
   50000    2360.3712    730.94148   -106741.68   -112737.24   -106517.79 
Loop time of 563.534 on 1 procs for 4505 steps with 19652 atoms

Performance: 0.691 ns/day, 34.747 hours/ns, 7.994 timesteps/s
98.5% CPU use with 1 MPI tasks x no OpenMP threads

MPI task timing breakdown:
Section |  min time  |  avg time  |  max time  |%varavg| %total
---------------------------------------------------------------
Pair    | 294.03     | 294.03     | 294.03     |   0.0 | 52.18
Neigh   | 255.91     | 255.91     | 255.91     |   0.0 | 45.41
Comm    | 4.8926     | 4.8926     | 4.8926     |   0.0 |  0.87
Output  | 0.075701   | 0.075701   | 0.075701   |   0.0 |  0.01
Modify  | 6.8323     | 6.8323     | 6.8323     |   0.0 |  1.21
Other   |            | 1.796      |            |       |  0.32

Nlocal:    19652 ave 19652 max 19652 min
Histogram: 1 0 0 0 0 0 0 0 0 0
Nghost:    15672 ave 15672 max 15672 min
Histogram: 1 0 0 0 0 0 0 0 0 0
Neighs:    1.00422e+06 ave 1.00422e+06 max 1.00422e+06 min
Histogram: 1 0 0 0 0 0 0 0 0 0

Total # of neighbors = 1004217
Ave neighs/atom = 51.1
Neighbor list builds = 4505
Dangerous builds not checked
Setting up Verlet run ...
  Unit style    : metal
  Current step  : 50000
  Time step     : 0.001
Per MPI rank memory allocation (min/avg/max) = 18.19 | 18.19 | 18.19 Mbytes
Step Temp Press TotEng PotEng Enthalpy 
   50000    2360.3712    730.94148   -106741.68   -112737.24   -106517.79 
   50495    2312.4821    325.67771   -106981.05   -112854.97   -106881.39 
Loop time of 62.1634 on 1 procs for 495 steps with 19652 atoms

Performance: 0.688 ns/day, 34.884 hours/ns, 7.963 timesteps/s
96.3% CPU use with 1 MPI tasks x no OpenMP threads

MPI task timing breakdown:
Section |  min time  |  avg time  |  max time  |%varavg| %total
---------------------------------------------------------------
Pair    | 32.402     | 32.402     | 32.402     |   0.0 | 52.12
Neigh   | 28.253     | 28.253     | 28.253     |   0.0 | 45.45
Comm    | 0.5455     | 0.5455     | 0.5455     |   0.0 |  0.88
Output  | 0.0001719  | 0.0001719  | 0.0001719  |   0.0 |  0.00
Modify  | 0.75435    | 0.75435    | 0.75435    |   0.0 |  1.21
Other   |            | 0.2086     |            |       |  0.34

Nlocal:    19652 ave 19652 max 19652 min
Histogram: 1 0 0 0 0 0 0 0 0 0
Nghost:    15574 ave 15574 max 15574 min
Histogram: 1 0 0 0 0 0 0 0 0 0
Neighs:    1.00539e+06 ave 1.00539e+06 max 1.00539e+06 min
Histogram: 1 0 0 0 0 0 0 0 0 0

Total # of neighbors = 1005391
Ave neighs/atom = 51.1597
Neighbor list builds = 495
Dangerous builds not checked
Setting up Verlet run ...
  Unit style    : metal
  Current step  : 50495
  Time step     : 0.001
Per MPI rank memory allocation (min/avg/max) = 18.19 | 18.19 | 18.19 Mbytes
Step Temp Press TotEng PotEng Enthalpy 
   50495    2312.4821    325.67771   -106981.05   -112854.97   -106881.39 
   55000    2288.9793    49.307411   -107147.55   -112961.76   -107132.46 
Loop time of 592.085 on 1 procs for 4505 steps with 19652 atoms

Performance: 0.657 ns/day, 36.508 hours/ns, 7.609 timesteps/s
98.8% CPU use with 1 MPI tasks x no OpenMP threads

MPI task timing breakdown:
Section |  min time  |  avg time  |  max time  |%varavg| %total
---------------------------------------------------------------
Pair    | 312.09     | 312.09     | 312.09     |   0.0 | 52.71
Neigh   | 265.86     | 265.86     | 265.86     |   0.0 | 44.90
Comm    | 5.0718     | 5.0718     | 5.0718     |   0.0 |  0.86
Output  | 0.084282   | 0.084282   | 0.084282   |   0.0 |  0.01
Modify  | 7.0432     | 7.0432     | 7.0432     |   0.0 |  1.19
Other   |            | 1.938      |            |       |  0.33

Nlocal:    19652 ave 19652 max 19652 min
Histogram: 1 0 0 0 0 0 0 0 0 0
Nghost:    15619 ave 15619 max 15619 min
Histogram: 1 0 0 0 0 0 0 0 0 0
Neighs:    1.00631e+06 ave 1.00631e+06 max 1.00631e+06 min
Histogram: 1 0 0 0 0 0 0 0 0 0

Total # of neighbors = 1006309
Ave neighs/atom = 51.2064
Neighbor list builds = 4505
Dangerous builds not checked
Setting up Verlet run ...
  Unit style    : metal
  Current step  : 55000
  Time step     : 0.001
Per MPI rank memory allocation (min/avg/max) = 18.19 | 18.19 | 18.19 Mbytes
Step Temp Press TotEng PotEng Enthalpy 
   55000    2288.9793    49.307411   -107147.55   -112961.76   -107132.46 
   55495    2276.6762    72.034632    -107309.5   -113092.46   -107287.49 
Loop time of 65.818 on 1 procs for 495 steps with 19652 atoms

Performance: 0.650 ns/day, 36.935 hours/ns, 7.521 timesteps/s
99.0% CPU use with 1 MPI tasks x no OpenMP threads

MPI task timing breakdown:
Section |  min time  |  avg time  |  max time  |%varavg| %total
---------------------------------------------------------------
Pair    | 34.831     | 34.831     | 34.831     |   0.0 | 52.92
Neigh   | 29.47      | 29.47      | 29.47      |   0.0 | 44.77
Comm    | 0.56917    | 0.56917    | 0.56917    |   0.0 |  0.86
Output  | 0.00017595 | 0.00017595 | 0.00017595 |   0.0 |  0.00
Modify  | 0.73706    | 0.73706    | 0.73706    |   0.0 |  1.12
Other   |            | 0.2111     |            |       |  0.32

Nlocal:    19652 ave 19652 max 19652 min
Histogram: 1 0 0 0 0 0 0 0 0 0
Nghost:    15655 ave 15655 max 15655 min
Histogram: 1 0 0 0 0 0 0 0 0 0
Neighs:    1.00702e+06 ave 1.00702e+06 max 1.00702e+06 min
Histogram: 1 0 0 0 0 0 0 0 0 0

Total # of neighbors = 1007025
Ave neighs/atom = 51.2429
Neighbor list builds = 495
Dangerous builds not checked
Setting up Verlet run ...
  Unit style    : metal
  Current step  : 55495
  Time step     : 0.001
Per MPI rank memory allocation (min/avg/max) = 18.19 | 18.19 | 18.19 Mbytes
Step Temp Press TotEng PotEng Enthalpy 
   55495    2276.6762    72.034632    -107309.5   -113092.46   -107287.49 
   60000    2245.4967    449.86145   -107382.49   -113086.26   -107245.05 
Loop time of 603.456 on 1 procs for 4505 steps with 19652 atoms

Performance: 0.645 ns/day, 37.209 hours/ns, 7.465 timesteps/s
98.0% CPU use with 1 MPI tasks x no OpenMP threads

MPI task timing breakdown:
Section |  min time  |  avg time  |  max time  |%varavg| %total
---------------------------------------------------------------
Pair    | 318.88     | 318.88     | 318.88     |   0.0 | 52.84
Neigh   | 270.19     | 270.19     | 270.19     |   0.0 | 44.77
Comm    | 5.3033     | 5.3033     | 5.3033     |   0.0 |  0.88
Output  | 0.079834   | 0.079834   | 0.079834   |   0.0 |  0.01
Modify  | 7.0444     | 7.0444     | 7.0444     |   0.0 |  1.17
Other   |            | 1.964      |            |       |  0.33

Nlocal:    19652 ave 19652 max 19652 min
Histogram: 1 0 0 0 0 0 0 0 0 0
Nghost:    15650 ave 15650 max 15650 min
Histogram: 1 0 0 0 0 0 0 0 0 0
Neighs:    1.00773e+06 ave 1.00773e+06 max 1.00773e+06 min
Histogram: 1 0 0 0 0 0 0 0 0 0

Total # of neighbors = 1007726
Ave neighs/atom = 51.2785
Neighbor list builds = 4505
Dangerous builds not checked
Setting up Verlet run ...
  Unit style    : metal
  Current step  : 60000
  Time step     : 0.001
Per MPI rank memory allocation (min/avg/max) = 18.19 | 18.19 | 18.19 Mbytes
Step Temp Press TotEng PotEng Enthalpy 
   60000    2245.4967    449.86145   -107382.49   -113086.26   -107245.05 
   60495    2209.8315    286.45538   -107583.43   -113196.61   -107496.07 
Loop time of 66.163 on 1 procs for 495 steps with 19652 atoms

Performance: 0.646 ns/day, 37.129 hours/ns, 7.482 timesteps/s
99.1% CPU use with 1 MPI tasks x no OpenMP threads

MPI task timing breakdown:
Section |  min time  |  avg time  |  max time  |%varavg| %total
---------------------------------------------------------------
Pair    | 34.966     | 34.966     | 34.966     |   0.0 | 52.85
Neigh   | 29.576     | 29.576     | 29.576     |   0.0 | 44.70
Comm    | 0.57095    | 0.57095    | 0.57095    |   0.0 |  0.86
Output  | 0.00019407 | 0.00019407 | 0.00019407 |   0.0 |  0.00
Modify  | 0.81499    | 0.81499    | 0.81499    |   0.0 |  1.23
Other   |            | 0.2344     |            |       |  0.35

Nlocal:    19652 ave 19652 max 19652 min
Histogram: 1 0 0 0 0 0 0 0 0 0
Nghost:    15686 ave 15686 max 15686 min
Histogram: 1 0 0 0 0 0 0 0 0 0
Neighs:    1.00926e+06 ave 1.00926e+06 max 1.00926e+06 min
Histogram: 1 0 0 0 0 0 0 0 0 0

Total # of neighbors = 1009257
Ave neighs/atom = 51.3565
Neighbor list builds = 495
Dangerous builds not checked
Setting up Verlet run ...
  Unit style    : metal
  Current step  : 60495
  Time step     : 0.001
Per MPI rank memory allocation (min/avg/max) = 18.19 | 18.19 | 18.19 Mbytes
Step Temp Press TotEng PotEng Enthalpy 
   60495    2209.8315    286.45538   -107583.43   -113196.61   -107496.07 
   65000    2211.8914   -659.80143   -107612.52   -113230.93    -107814.1 
Loop time of 539.056 on 1 procs for 4505 steps with 19652 atoms

Performance: 0.722 ns/day, 33.238 hours/ns, 8.357 timesteps/s
99.2% CPU use with 1 MPI tasks x no OpenMP threads

MPI task timing breakdown:
Section |  min time  |  avg time  |  max time  |%varavg| %total
---------------------------------------------------------------
Pair    | 279.62     | 279.62     | 279.62     |   0.0 | 51.87
Neigh   | 246.48     | 246.48     | 246.48     |   0.0 | 45.72
Comm    | 4.6403     | 4.6403     | 4.6403     |   0.0 |  0.86
Output  | 0.076762   | 0.076762   | 0.076762   |   0.0 |  0.01
Modify  | 6.5098     | 6.5098     | 6.5098     |   0.0 |  1.21
Other   |            | 1.727      |            |       |  0.32

Nlocal:    19652 ave 19652 max 19652 min
Histogram: 1 0 0 0 0 0 0 0 0 0
Nghost:    15654 ave 15654 max 15654 min
Histogram: 1 0 0 0 0 0 0 0 0 0
Neighs:    1.00753e+06 ave 1.00753e+06 max 1.00753e+06 min
Histogram: 1 0 0 0 0 0 0 0 0 0

Total # of neighbors = 1007533
Ave neighs/atom = 51.2687
Neighbor list builds = 4505
Dangerous builds not checked
Setting up Verlet run ...
  Unit style    : metal
  Current step  : 65000
  Time step     : 0.001
Per MPI rank memory allocation (min/avg/max) = 18.19 | 18.19 | 18.19 Mbytes
Step Temp Press TotEng PotEng Enthalpy 
   65000    2211.8914   -659.80143   -107612.52   -113230.93    -107814.1 
   65495    2145.9916   -705.09785   -107909.29   -113360.31   -108124.28 
Loop time of 55.8664 on 1 procs for 495 steps with 19652 atoms

Performance: 0.766 ns/day, 31.350 hours/ns, 8.860 timesteps/s
99.9% CPU use with 1 MPI tasks x no OpenMP threads

MPI task timing breakdown:
Section |  min time  |  avg time  |  max time  |%varavg| %total
---------------------------------------------------------------
Pair    | 28.793     | 28.793     | 28.793     |   0.0 | 51.54
Neigh   | 25.74      | 25.74      | 25.74      |   0.0 | 46.07
Comm    | 0.47749    | 0.47749    | 0.47749    |   0.0 |  0.85
Output  | 0.00013494 | 0.00013494 | 0.00013494 |   0.0 |  0.00
Modify  | 0.67539    | 0.67539    | 0.67539    |   0.0 |  1.21
Other   |            | 0.1805     |            |       |  0.32

Nlocal:    19652 ave 19652 max 19652 min
Histogram: 1 0 0 0 0 0 0 0 0 0
Nghost:    15691 ave 15691 max 15691 min
Histogram: 1 0 0 0 0 0 0 0 0 0
Neighs:    1.00972e+06 ave 1.00972e+06 max 1.00972e+06 min
Histogram: 1 0 0 0 0 0 0 0 0 0

Total # of neighbors = 1009724
Ave neighs/atom = 51.3802
Neighbor list builds = 495
Dangerous builds not checked
Setting up Verlet run ...
  Unit style    : metal
  Current step  : 65495
  Time step     : 0.001
Per MPI rank memory allocation (min/avg/max) = 18.19 | 18.19 | 18.19 Mbytes
Step Temp Press TotEng PotEng Enthalpy 
   65495    2145.9916   -705.09785   -107909.29   -113360.31   -108124.28 
   70000     2141.981    -1814.244   -108039.51   -113480.33   -108593.23 
Loop time of 585.682 on 1 procs for 4505 steps with 19652 atoms

Performance: 0.665 ns/day, 36.113 hours/ns, 7.692 timesteps/s
99.5% CPU use with 1 MPI tasks x no OpenMP threads

MPI task timing breakdown:
Section |  min time  |  avg time  |  max time  |%varavg| %total
---------------------------------------------------------------
Pair    | 310.2      | 310.2      | 310.2      |   0.0 | 52.96
Neigh   | 261.63     | 261.63     | 261.63     |   0.0 | 44.67
Comm    | 4.9948     | 4.9948     | 4.9948     |   0.0 |  0.85
Output  | 0.078045   | 0.078045   | 0.078045   |   0.0 |  0.01
Modify  | 6.9043     | 6.9043     | 6.9043     |   0.0 |  1.18
Other   |            | 1.878      |            |       |  0.32

Nlocal:    19652 ave 19652 max 19652 min
Histogram: 1 0 0 0 0 0 0 0 0 0
Nghost:    15654 ave 15654 max 15654 min
Histogram: 1 0 0 0 0 0 0 0 0 0
Neighs:    1.00869e+06 ave 1.00869e+06 max 1.00869e+06 min
Histogram: 1 0 0 0 0 0 0 0 0 0

Total # of neighbors = 1008693
Ave neighs/atom = 51.3278
Neighbor list builds = 4505
Dangerous builds not checked
Setting up Verlet run ...
  Unit style    : metal
  Current step  : 70000
  Time step     : 0.001
Per MPI rank memory allocation (min/avg/max) = 18.19 | 18.19 | 18.19 Mbytes
Step Temp Press TotEng PotEng Enthalpy 
   70000     2141.981    -1814.244   -108039.51   -113480.33   -108593.23 
   70495    2092.8614   -1138.3468   -108206.07   -113522.13   -108552.98 
Loop time of 65.7255 on 1 procs for 495 steps with 19652 atoms

Performance: 0.651 ns/day, 36.883 hours/ns, 7.531 timesteps/s
98.3% CPU use with 1 MPI tasks x no OpenMP threads

MPI task timing breakdown:
Section |  min time  |  avg time  |  max time  |%varavg| %total
---------------------------------------------------------------
Pair    | 35.022     | 35.022     | 35.022     |   0.0 | 53.29
Neigh   | 29.07      | 29.07      | 29.07      |   0.0 | 44.23
Comm    | 0.59459    | 0.59459    | 0.59459    |   0.0 |  0.90
Output  | 0.00016904 | 0.00016904 | 0.00016904 |   0.0 |  0.00
Modify  | 0.81709    | 0.81709    | 0.81709    |   0.0 |  1.24
Other   |            | 0.2218     |            |       |  0.34

Nlocal:    19652 ave 19652 max 19652 min
Histogram: 1 0 0 0 0 0 0 0 0 0
Nghost:    15670 ave 15670 max 15670 min
Histogram: 1 0 0 0 0 0 0 0 0 0
Neighs:    1.01039e+06 ave 1.01039e+06 max 1.01039e+06 min
Histogram: 1 0 0 0 0 0 0 0 0 0

Total # of neighbors = 1010393
Ave neighs/atom = 51.4143
Neighbor list builds = 495
Dangerous builds not checked
Setting up Verlet run ...
  Unit style    : metal
  Current step  : 70495
  Time step     : 0.001
Per MPI rank memory allocation (min/avg/max) = 18.19 | 18.19 | 18.19 Mbytes
Step Temp Press TotEng PotEng Enthalpy 
   70495    2092.8614   -1138.3468   -108206.07   -113522.13   -108552.98 
   75000    2107.8512    1059.9668   -108359.03   -113713.16   -108037.56 
Loop time of 581.801 on 1 procs for 4505 steps with 19652 atoms

Performance: 0.669 ns/day, 35.874 hours/ns, 7.743 timesteps/s
99.3% CPU use with 1 MPI tasks x no OpenMP threads

MPI task timing breakdown:
Section |  min time  |  avg time  |  max time  |%varavg| %total
---------------------------------------------------------------
Pair    | 309.5      | 309.5      | 309.5      |   0.0 | 53.20
Neigh   | 258.47     | 258.47     | 258.47     |   0.0 | 44.43
Comm    | 4.995      | 4.995      | 4.995      |   0.0 |  0.86
Output  | 0.082303   | 0.082303   | 0.082303   |   0.0 |  0.01
Modify  | 6.8601     | 6.8601     | 6.8601     |   0.0 |  1.18
Other   |            | 1.902      |            |       |  0.33

Nlocal:    19652 ave 19652 max 19652 min
Histogram: 1 0 0 0 0 0 0 0 0 0
Nghost:    15709 ave 15709 max 15709 min
Histogram: 1 0 0 0 0 0 0 0 0 0
Neighs:    1.01569e+06 ave 1.01569e+06 max 1.01569e+06 min
Histogram: 1 0 0 0 0 0 0 0 0 0

Total # of neighbors = 1015694
Ave neighs/atom = 51.684
Neighbor list builds = 4505
Dangerous builds not checked
Setting up Verlet run ...
  Unit style    : metal
  Current step  : 75000
  Time step     : 0.001
Per MPI rank memory allocation (min/avg/max) = 18.19 | 18.19 | 18.19 Mbytes
Step Temp Press TotEng PotEng Enthalpy 
   75000    2107.8512    1059.9668   -108359.03   -113713.16   -108037.56 
   75495    2058.6796    1374.9655   -108567.57    -113796.8   -108150.87 
Loop time of 64.95 on 1 procs for 495 steps with 19652 atoms

Performance: 0.658 ns/day, 36.448 hours/ns, 7.621 timesteps/s
99.5% CPU use with 1 MPI tasks x no OpenMP threads

MPI task timing breakdown:
Section |  min time  |  avg time  |  max time  |%varavg| %total
---------------------------------------------------------------
Pair    | 34.475     | 34.475     | 34.475     |   0.0 | 53.08
Neigh   | 28.867     | 28.867     | 28.867     |   0.0 | 44.44
Comm    | 0.58191    | 0.58191    | 0.58191    |   0.0 |  0.90
Output  | 0.00017905 | 0.00017905 | 0.00017905 |   0.0 |  0.00
Modify  | 0.80341    | 0.80341    | 0.80341    |   0.0 |  1.24
Other   |            | 0.2231     |            |       |  0.34

Nlocal:    19652 ave 19652 max 19652 min
Histogram: 1 0 0 0 0 0 0 0 0 0
Nghost:    15688 ave 15688 max 15688 min
Histogram: 1 0 0 0 0 0 0 0 0 0
Neighs:    1.01665e+06 ave 1.01665e+06 max 1.01665e+06 min
Histogram: 1 0 0 0 0 0 0 0 0 0

Total # of neighbors = 1016650
Ave neighs/atom = 51.7326
Neighbor list builds = 495
Dangerous builds not checked
Setting up Verlet run ...
  Unit style    : metal
  Current step  : 75495
  Time step     : 0.001
Per MPI rank memory allocation (min/avg/max) = 18.19 | 18.19 | 18.19 Mbytes
Step Temp Press TotEng PotEng Enthalpy 
   75495    2058.6796    1374.9655   -108567.57    -113796.8   -108150.87 
   80000    2037.8699    1949.5604   -108689.79   -113866.16   -108100.05 
Loop time of 579.707 on 1 procs for 4505 steps with 19652 atoms

Performance: 0.671 ns/day, 35.745 hours/ns, 7.771 timesteps/s
99.0% CPU use with 1 MPI tasks x no OpenMP threads

MPI task timing breakdown:
Section |  min time  |  avg time  |  max time  |%varavg| %total
---------------------------------------------------------------
Pair    | 305.77     | 305.77     | 305.77     |   0.0 | 52.74
Neigh   | 260.15     | 260.15     | 260.15     |   0.0 | 44.88
Comm    | 4.9516     | 4.9516     | 4.9516     |   0.0 |  0.85
Output  | 0.080032   | 0.080032   | 0.080032   |   0.0 |  0.01
Modify  | 6.8907     | 6.8907     | 6.8907     |   0.0 |  1.19
Other   |            | 1.87       |            |       |  0.32

Nlocal:    19652 ave 19652 max 19652 min
Histogram: 1 0 0 0 0 0 0 0 0 0
Nghost:    15679 ave 15679 max 15679 min
Histogram: 1 0 0 0 0 0 0 0 0 0
Neighs:    1.01905e+06 ave 1.01905e+06 max 1.01905e+06 min
Histogram: 1 0 0 0 0 0 0 0 0 0

Total # of neighbors = 1019050
Ave neighs/atom = 51.8548
Neighbor list builds = 4505
Dangerous builds not checked
Setting up Verlet run ...
  Unit style    : metal
  Current step  : 80000
  Time step     : 0.001
Per MPI rank memory allocation (min/avg/max) = 18.19 | 18.19 | 18.19 Mbytes
Step Temp Press TotEng PotEng Enthalpy 
   80000    2037.8699    1949.5604   -108689.79   -113866.16   -108100.05 
   80495     2015.126    1431.2832    -108911.7    -114030.3   -108479.24 
Loop time of 64.7619 on 1 procs for 495 steps with 19652 atoms

Performance: 0.660 ns/day, 36.342 hours/ns, 7.643 timesteps/s
100.0% CPU use with 1 MPI tasks x no OpenMP threads

MPI task timing breakdown:
Section |  min time  |  avg time  |  max time  |%varavg| %total
---------------------------------------------------------------
Pair    | 34.379     | 34.379     | 34.379     |   0.0 | 53.09
Neigh   | 28.932     | 28.932     | 28.932     |   0.0 | 44.67
Comm    | 0.54557    | 0.54557    | 0.54557    |   0.0 |  0.84
Output  | 0.00018191 | 0.00018191 | 0.00018191 |   0.0 |  0.00
Modify  | 0.70073    | 0.70073    | 0.70073    |   0.0 |  1.08
Other   |            | 0.2042     |            |       |  0.32

Nlocal:    19652 ave 19652 max 19652 min
Histogram: 1 0 0 0 0 0 0 0 0 0
Nghost:    15714 ave 15714 max 15714 min
Histogram: 1 0 0 0 0 0 0 0 0 0
Neighs:    1.01984e+06 ave 1.01984e+06 max 1.01984e+06 min
Histogram: 1 0 0 0 0 0 0 0 0 0

Total # of neighbors = 1019839
Ave neighs/atom = 51.8949
Neighbor list builds = 495
Dangerous builds not checked
Setting up Verlet run ...
  Unit style    : metal
  Current step  : 80495
  Time step     : 0.001
Per MPI rank memory allocation (min/avg/max) = 18.19 | 18.19 | 18.19 Mbytes
Step Temp Press TotEng PotEng Enthalpy 
   80495     2015.126    1431.2832    -108911.7    -114030.3   -108479.24 
   85000    1999.8566   -1101.3904   -108987.77   -114067.59   -109321.83 
Loop time of 588.49 on 1 procs for 4505 steps with 19652 atoms

Performance: 0.661 ns/day, 36.286 hours/ns, 7.655 timesteps/s
99.6% CPU use with 1 MPI tasks x no OpenMP threads

MPI task timing breakdown:
Section |  min time  |  avg time  |  max time  |%varavg| %total
---------------------------------------------------------------
Pair    | 312.74     | 312.74     | 312.74     |   0.0 | 53.14
Neigh   | 261.71     | 261.71     | 261.71     |   0.0 | 44.47
Comm    | 5.1026     | 5.1026     | 5.1026     |   0.0 |  0.87
Output  | 0.076296   | 0.076296   | 0.076296   |   0.0 |  0.01
Modify  | 6.9077     | 6.9077     | 6.9077     |   0.0 |  1.17
Other   |            | 1.945      |            |       |  0.33

Nlocal:    19652 ave 19652 max 19652 min
Histogram: 1 0 0 0 0 0 0 0 0 0
Nghost:    15685 ave 15685 max 15685 min
Histogram: 1 0 0 0 0 0 0 0 0 0
Neighs:    1.01595e+06 ave 1.01595e+06 max 1.01595e+06 min
Histogram: 1 0 0 0 0 0 0 0 0 0

Total # of neighbors = 1015951
Ave neighs/atom = 51.6971
Neighbor list builds = 4505
Dangerous builds not checked
Setting up Verlet run ...
  Unit style    : metal
  Current step  : 85000
  Time step     : 0.001
Per MPI rank memory allocation (min/avg/max) = 18.19 | 18.19 | 18.19 Mbytes
Step Temp Press TotEng PotEng Enthalpy 
   85000    1999.8566   -1101.3904   -108987.77   -114067.59   -109321.83 
   85495     1950.122   -25.554773    -109231.4   -114184.89   -109239.13 
Loop time of 59.0342 on 1 procs for 495 steps with 19652 atoms

Performance: 0.724 ns/day, 33.128 hours/ns, 8.385 timesteps/s
100.0% CPU use with 1 MPI tasks x no OpenMP threads

MPI task timing breakdown:
Section |  min time  |  avg time  |  max time  |%varavg| %total
---------------------------------------------------------------
Pair    | 30.768     | 30.768     | 30.768     |   0.0 | 52.12
Neigh   | 26.859     | 26.859     | 26.859     |   0.0 | 45.50
Comm    | 0.50063    | 0.50063    | 0.50063    |   0.0 |  0.85
Output  | 0.00014687 | 0.00014687 | 0.00014687 |   0.0 |  0.00
Modify  | 0.71875    | 0.71875    | 0.71875    |   0.0 |  1.22
Other   |            | 0.1871     |            |       |  0.32

Nlocal:    19652 ave 19652 max 19652 min
Histogram: 1 0 0 0 0 0 0 0 0 0
Nghost:    15680 ave 15680 max 15680 min
Histogram: 1 0 0 0 0 0 0 0 0 0
Neighs:    1.01918e+06 ave 1.01918e+06 max 1.01918e+06 min
Histogram: 1 0 0 0 0 0 0 0 0 0

Total # of neighbors = 1019175
Ave neighs/atom = 51.8611
Neighbor list builds = 495
Dangerous builds not checked
Setting up Verlet run ...
  Unit style    : metal
  Current step  : 85495
  Time step     : 0.001
Per MPI rank memory allocation (min/avg/max) = 18.19 | 18.19 | 18.19 Mbytes
Step Temp Press TotEng PotEng Enthalpy 
   85495     1950.122   -25.554773    -109231.4   -114184.89   -109239.13 
   90000    1951.5388    -909.9322    -109330.6   -114287.69   -109606.07 
Loop time of 546.958 on 1 procs for 4505 steps with 19652 atoms

Performance: 0.712 ns/day, 33.725 hours/ns, 8.236 timesteps/s
99.2% CPU use with 1 MPI tasks x no OpenMP threads

MPI task timing breakdown:
Section |  min time  |  avg time  |  max time  |%varavg| %total
---------------------------------------------------------------
Pair    | 284.75     | 284.75     | 284.75     |   0.0 | 52.06
Neigh   | 249.24     | 249.24     | 249.24     |   0.0 | 45.57
Comm    | 4.6409     | 4.6409     | 4.6409     |   0.0 |  0.85
Output  | 0.1024     | 0.1024     | 0.1024     |   0.0 |  0.02
Modify  | 6.5226     | 6.5226     | 6.5226     |   0.0 |  1.19
Other   |            | 1.696      |            |       |  0.31

Nlocal:    19652 ave 19652 max 19652 min
Histogram: 1 0 0 0 0 0 0 0 0 0
Nghost:    15703 ave 15703 max 15703 min
Histogram: 1 0 0 0 0 0 0 0 0 0
Neighs:    1.01864e+06 ave 1.01864e+06 max 1.01864e+06 min
Histogram: 1 0 0 0 0 0 0 0 0 0

Total # of neighbors = 1018638
Ave neighs/atom = 51.8338
Neighbor list builds = 4505
Dangerous builds not checked
Setting up Verlet run ...
  Unit style    : metal
  Current step  : 90000
  Time step     : 0.001
Per MPI rank memory allocation (min/avg/max) = 18.19 | 18.19 | 18.19 Mbytes
Step Temp Press TotEng PotEng Enthalpy 
   90000    1951.5388    -909.9322    -109330.6   -114287.69   -109606.07 
   90495    1896.0504   -59.998752   -109517.78   -114333.92   -109535.91 
Loop time of 56.4552 on 1 procs for 495 steps with 19652 atoms

Performance: 0.758 ns/day, 31.681 hours/ns, 8.768 timesteps/s
99.5% CPU use with 1 MPI tasks x no OpenMP threads

MPI task timing breakdown:
Section |  min time  |  avg time  |  max time  |%varavg| %total
---------------------------------------------------------------
Pair    | 29.257     | 29.257     | 29.257     |   0.0 | 51.82
Neigh   | 25.872     | 25.872     | 25.872     |   0.0 | 45.83
Comm    | 0.47786    | 0.47786    | 0.47786    |   0.0 |  0.85
Output  | 0.00017405 | 0.00017405 | 0.00017405 |   0.0 |  0.00
Modify  | 0.6702     | 0.6702     | 0.6702     |   0.0 |  1.19
Other   |            | 0.1773     |            |       |  0.31

Nlocal:    19652 ave 19652 max 19652 min
Histogram: 1 0 0 0 0 0 0 0 0 0
Nghost:    15723 ave 15723 max 15723 min
Histogram: 1 0 0 0 0 0 0 0 0 0
Neighs:    1.02041e+06 ave 1.02041e+06 max 1.02041e+06 min
Histogram: 1 0 0 0 0 0 0 0 0 0

Total # of neighbors = 1020408
Ave neighs/atom = 51.9239
Neighbor list builds = 495
Dangerous builds not checked
Setting up Verlet run ...
  Unit style    : metal
  Current step  : 90495
  Time step     : 0.001
Per MPI rank memory allocation (min/avg/max) = 18.19 | 18.19 | 18.19 Mbytes
Step Temp Press TotEng PotEng Enthalpy 
   90495    1896.0504   -59.998752   -109517.78   -114333.92   -109535.91 
   95000    1892.1873   -98.317728   -109668.06   -114474.39   -109697.72 
Loop time of 539.611 on 1 procs for 4505 steps with 19652 atoms

Performance: 0.721 ns/day, 33.272 hours/ns, 8.349 timesteps/s
98.6% CPU use with 1 MPI tasks x no OpenMP threads

MPI task timing breakdown:
Section |  min time  |  avg time  |  max time  |%varavg| %total
---------------------------------------------------------------
Pair    | 280.43     | 280.43     | 280.43     |   0.0 | 51.97
Neigh   | 246.54     | 246.54     | 246.54     |   0.0 | 45.69
Comm    | 4.5756     | 4.5756     | 4.5756     |   0.0 |  0.85
Output  | 0.058834   | 0.058834   | 0.058834   |   0.0 |  0.01
Modify  | 6.3497     | 6.3497     | 6.3497     |   0.0 |  1.18
Other   |            | 1.661      |            |       |  0.31

Nlocal:    19652 ave 19652 max 19652 min
Histogram: 1 0 0 0 0 0 0 0 0 0
Nghost:    15795 ave 15795 max 15795 min
Histogram: 1 0 0 0 0 0 0 0 0 0
Neighs:    1.0225e+06 ave 1.0225e+06 max 1.0225e+06 min
Histogram: 1 0 0 0 0 0 0 0 0 0

Total # of neighbors = 1022498
Ave neighs/atom = 52.0302
Neighbor list builds = 4505
Dangerous builds not checked
Setting up Verlet run ...
  Unit style    : metal
  Current step  : 95000
  Time step     : 0.001
Per MPI rank memory allocation (min/avg/max) = 18.19 | 18.19 | 18.19 Mbytes
Step Temp Press TotEng PotEng Enthalpy 
   95000    1892.1873   -98.317728   -109668.06   -114474.39   -109697.72 
   95495     1866.028    30.338992   -109847.75   -114587.63   -109838.61 
Loop time of 56.9244 on 1 procs for 495 steps with 19652 atoms

Performance: 0.751 ns/day, 31.944 hours/ns, 8.696 timesteps/s
99.6% CPU use with 1 MPI tasks x no OpenMP threads

MPI task timing breakdown:
Section |  min time  |  avg time  |  max time  |%varavg| %total
---------------------------------------------------------------
Pair    | 29.374     | 29.374     | 29.374     |   0.0 | 51.60
Neigh   | 26.188     | 26.188     | 26.188     |   0.0 | 46.01
Comm    | 0.49508    | 0.49508    | 0.49508    |   0.0 |  0.87
Output  | 0.00013089 | 0.00013089 | 0.00013089 |   0.0 |  0.00
Modify  | 0.68868    | 0.68868    | 0.68868    |   0.0 |  1.21
Other   |            | 0.1779     |            |       |  0.31

Nlocal:    19652 ave 19652 max 19652 min
Histogram: 1 0 0 0 0 0 0 0 0 0
Nghost:    15716 ave 15716 max 15716 min
Histogram: 1 0 0 0 0 0 0 0 0 0
Neighs:    1.02383e+06 ave 1.02383e+06 max 1.02383e+06 min
Histogram: 1 0 0 0 0 0 0 0 0 0

Total # of neighbors = 1023830
Ave neighs/atom = 52.098
Neighbor list builds = 495
Dangerous builds not checked
Setting up Verlet run ...
  Unit style    : metal
  Current step  : 95495
  Time step     : 0.001
Per MPI rank memory allocation (min/avg/max) = 18.19 | 18.19 | 18.19 Mbytes
Step Temp Press TotEng PotEng Enthalpy 
   95495     1866.028    30.338992   -109847.75   -114587.63   -109838.61 
  100000    1847.8672    843.04431   -109986.25      -114680   -109732.57 
Loop time of 574.498 on 1 procs for 4505 steps with 19652 atoms

Performance: 0.678 ns/day, 35.423 hours/ns, 7.842 timesteps/s
99.0% CPU use with 1 MPI tasks x no OpenMP threads

MPI task timing breakdown:
Section |  min time  |  avg time  |  max time  |%varavg| %total
---------------------------------------------------------------
Pair    | 302.93     | 302.93     | 302.93     |   0.0 | 52.73
Neigh   | 258        | 258        | 258        |   0.0 | 44.91
Comm    | 4.8677     | 4.8677     | 4.8677     |   0.0 |  0.85
Output  | 0.06274    | 0.06274    | 0.06274    |   0.0 |  0.01
Modify  | 6.7931     | 6.7931     | 6.7931     |   0.0 |  1.18
Other   |            | 1.835      |            |       |  0.32

Nlocal:    19652 ave 19652 max 19652 min
Histogram: 1 0 0 0 0 0 0 0 0 0
Nghost:    15747 ave 15747 max 15747 min
Histogram: 1 0 0 0 0 0 0 0 0 0
Neighs:    1.02601e+06 ave 1.02601e+06 max 1.02601e+06 min
Histogram: 1 0 0 0 0 0 0 0 0 0

Total # of neighbors = 1026009
Ave neighs/atom = 52.2089
Neighbor list builds = 4505
Dangerous builds not checked
Setting up Verlet run ...
  Unit style    : metal
  Current step  : 100000
  Time step     : 0.001
Per MPI rank memory allocation (min/avg/max) = 18.19 | 18.19 | 18.19 Mbytes
Step Temp Press TotEng PotEng Enthalpy 
  100000    1847.8672    843.04431   -109986.25      -114680   -109732.57 
  100495    1813.7768     831.2916   -110209.65   -114816.81   -109959.76 
Loop time of 64.7116 on 1 procs for 495 steps with 19652 atoms

Performance: 0.661 ns/day, 36.314 hours/ns, 7.649 timesteps/s
99.9% CPU use with 1 MPI tasks x no OpenMP threads

MPI task timing breakdown:
Section |  min time  |  avg time  |  max time  |%varavg| %total
---------------------------------------------------------------
Pair    | 34.475     | 34.475     | 34.475     |   0.0 | 53.27
Neigh   | 28.674     | 28.674     | 28.674     |   0.0 | 44.31
Comm    | 0.56299    | 0.56299    | 0.56299    |   0.0 |  0.87
Output  | 0.00019312 | 0.00019312 | 0.00019312 |   0.0 |  0.00
Modify  | 0.78151    | 0.78151    | 0.78151    |   0.0 |  1.21
Other   |            | 0.2176     |            |       |  0.34

Nlocal:    19652 ave 19652 max 19652 min
Histogram: 1 0 0 0 0 0 0 0 0 0
Nghost:    15788 ave 15788 max 15788 min
Histogram: 1 0 0 0 0 0 0 0 0 0
Neighs:    1.02687e+06 ave 1.02687e+06 max 1.02687e+06 min
Histogram: 1 0 0 0 0 0 0 0 0 0

Total # of neighbors = 1026871
Ave neighs/atom = 52.2527
Neighbor list builds = 495
Dangerous builds not checked
Setting up Verlet run ...
  Unit style    : metal
  Current step  : 100495
  Time step     : 0.001
Per MPI rank memory allocation (min/avg/max) = 18.19 | 18.19 | 18.19 Mbytes
Step Temp Press TotEng PotEng Enthalpy 
  100495    1813.7768     831.2916   -110209.65   -114816.81   -109959.76 
  105000    1780.8297    1373.5491   -110424.48   -114947.95   -110012.45 
Loop time of 565.671 on 1 procs for 4505 steps with 19652 atoms

Performance: 0.688 ns/day, 34.879 hours/ns, 7.964 timesteps/s
99.0% CPU use with 1 MPI tasks x no OpenMP threads

MPI task timing breakdown:
Section |  min time  |  avg time  |  max time  |%varavg| %total
---------------------------------------------------------------
Pair    | 297.66     | 297.66     | 297.66     |   0.0 | 52.62
Neigh   | 254.6      | 254.6      | 254.6      |   0.0 | 45.01
Comm    | 4.7998     | 4.7998     | 4.7998     |   0.0 |  0.85
Output  | 0.077336   | 0.077336   | 0.077336   |   0.0 |  0.01
Modify  | 6.7037     | 6.7037     | 6.7037     |   0.0 |  1.19
Other   |            | 1.832      |            |       |  0.32

Nlocal:    19652 ave 19652 max 19652 min
Histogram: 1 0 0 0 0 0 0 0 0 0
Nghost:    15767 ave 15767 max 15767 min
Histogram: 1 0 0 0 0 0 0 0 0 0
Neighs:    1.02956e+06 ave 1.02956e+06 max 1.02956e+06 min
Histogram: 1 0 0 0 0 0 0 0 0 0

Total # of neighbors = 1029557
Ave neighs/atom = 52.3894
Neighbor list builds = 4505
Dangerous builds not checked
Setting up Verlet run ...
  Unit style    : metal
  Current step  : 105000
  Time step     : 0.001
Per MPI rank memory allocation (min/avg/max) = 18.19 | 18.19 | 18.19 Mbytes
Step Temp Press TotEng PotEng Enthalpy 
  105000    1780.8297    1373.5491   -110424.48   -114947.95   -110012.45 
  105495    1765.8597    1171.3342   -110495.42   -114980.86    -110144.1 
Loop time of 63.3715 on 1 procs for 495 steps with 19652 atoms

Performance: 0.675 ns/day, 35.562 hours/ns, 7.811 timesteps/s
98.9% CPU use with 1 MPI tasks x no OpenMP threads

MPI task timing breakdown:
Section |  min time  |  avg time  |  max time  |%varavg| %total
---------------------------------------------------------------
Pair    | 33.614     | 33.614     | 33.614     |   0.0 | 53.04
Neigh   | 28.227     | 28.227     | 28.227     |   0.0 | 44.54
Comm    | 0.55623    | 0.55623    | 0.55623    |   0.0 |  0.88
Output  | 0.00018001 | 0.00018001 | 0.00018001 |   0.0 |  0.00
Modify  | 0.7525     | 0.7525     | 0.7525     |   0.0 |  1.19
Other   |            | 0.2218     |            |       |  0.35

Nlocal:    19652 ave 19652 max 19652 min
Histogram: 1 0 0 0 0 0 0 0 0 0
Nghost:    15818 ave 15818 max 15818 min
Histogram: 1 0 0 0 0 0 0 0 0 0
Neighs:    1.02972e+06 ave 1.02972e+06 max 1.02972e+06 min
Histogram: 1 0 0 0 0 0 0 0 0 0

Total # of neighbors = 1029719
Ave neighs/atom = 52.3977
Neighbor list builds = 495
Dangerous builds not checked
Setting up Verlet run ...
  Unit style    : metal
  Current step  : 105495
  Time step     : 0.001
Per MPI rank memory allocation (min/avg/max) = 18.19 | 18.19 | 18.19 Mbytes
Step Temp Press TotEng PotEng Enthalpy 
  105495    1765.8597    1171.3342   -110495.42   -114980.86    -110144.1 
  110000    1738.6465   -309.27004   -110664.16   -115080.48   -110757.03 
Loop time of 582.828 on 1 procs for 4505 steps with 19652 atoms

Performance: 0.668 ns/day, 35.937 hours/ns, 7.730 timesteps/s
99.1% CPU use with 1 MPI tasks x no OpenMP threads

MPI task timing breakdown:
Section |  min time  |  avg time  |  max time  |%varavg| %total
---------------------------------------------------------------
Pair    | 308.53     | 308.53     | 308.53     |   0.0 | 52.94
Neigh   | 260.54     | 260.54     | 260.54     |   0.0 | 44.70
Comm    | 4.9984     | 4.9984     | 4.9984     |   0.0 |  0.86
Output  | 0.071433   | 0.071433   | 0.071433   |   0.0 |  0.01
Modify  | 6.7866     | 6.7866     | 6.7866     |   0.0 |  1.16
Other   |            | 1.898      |            |       |  0.33

Nlocal:    19652 ave 19652 max 19652 min
Histogram: 1 0 0 0 0 0 0 0 0 0
Nghost:    15689 ave 15689 max 15689 min
Histogram: 1 0 0 0 0 0 0 0 0 0
Neighs:    1.02842e+06 ave 1.02842e+06 max 1.02842e+06 min
Histogram: 1 0 0 0 0 0 0 0 0 0

Total # of neighbors = 1028423
Ave neighs/atom = 52.3317
Neighbor list builds = 4505
Dangerous builds not checked
Setting up Verlet run ...
  Unit style    : metal
  Current step  : 110000
  Time step     : 0.001
Per MPI rank memory allocation (min/avg/max) = 18.19 | 18.19 | 18.19 Mbytes
Step Temp Press TotEng PotEng Enthalpy 
  110000    1738.6465   -309.27004   -110664.16   -115080.48   -110757.03 
  110495    1713.1207   -621.24958   -110884.03   -115235.52   -111070.53 
Loop time of 56.2659 on 1 procs for 495 steps with 19652 atoms

Performance: 0.760 ns/day, 31.575 hours/ns, 8.798 timesteps/s
99.7% CPU use with 1 MPI tasks x no OpenMP threads

MPI task timing breakdown:
Section |  min time  |  avg time  |  max time  |%varavg| %total
---------------------------------------------------------------
Pair    | 29.094     | 29.094     | 29.094     |   0.0 | 51.71
Neigh   | 25.836     | 25.836     | 25.836     |   0.0 | 45.92
Comm    | 0.47518    | 0.47518    | 0.47518    |   0.0 |  0.84
Output  | 0.00016999 | 0.00016999 | 0.00016999 |   0.0 |  0.00
Modify  | 0.68402    | 0.68402    | 0.68402    |   0.0 |  1.22
Other   |            | 0.1767     |            |       |  0.31

Nlocal:    19652 ave 19652 max 19652 min
Histogram: 1 0 0 0 0 0 0 0 0 0
Nghost:    15764 ave 15764 max 15764 min
Histogram: 1 0 0 0 0 0 0 0 0 0
Neighs:    1.02881e+06 ave 1.02881e+06 max 1.02881e+06 min
Histogram: 1 0 0 0 0 0 0 0 0 0

Total # of neighbors = 1028814
Ave neighs/atom = 52.3516
Neighbor list builds = 495
Dangerous builds not checked
Setting up Verlet run ...
  Unit style    : metal
  Current step  : 110495
  Time step     : 0.001
Per MPI rank memory allocation (min/avg/max) = 18.19 | 18.19 | 18.19 Mbytes
Step Temp Press TotEng PotEng Enthalpy 
  110495    1713.1207   -621.24958   -110884.03   -115235.52   -111070.53 
  115000    1697.1267    681.97466   -111035.44   -115346.29   -110831.31 
Loop time of 567.801 on 1 procs for 4505 steps with 19652 atoms

Performance: 0.686 ns/day, 35.011 hours/ns, 7.934 timesteps/s
99.6% CPU use with 1 MPI tasks x no OpenMP threads

MPI task timing breakdown:
Section |  min time  |  avg time  |  max time  |%varavg| %total
---------------------------------------------------------------
Pair    | 301.11     | 301.11     | 301.11     |   0.0 | 53.03
Neigh   | 253.09     | 253.09     | 253.09     |   0.0 | 44.57
Comm    | 4.9063     | 4.9063     | 4.9063     |   0.0 |  0.86
Output  | 0.079519   | 0.079519   | 0.079519   |   0.0 |  0.01
Modify  | 6.7689     | 6.7689     | 6.7689     |   0.0 |  1.19
Other   |            | 1.845      |            |       |  0.32

Nlocal:    19652 ave 19652 max 19652 min
Histogram: 1 0 0 0 0 0 0 0 0 0
Nghost:    15780 ave 15780 max 15780 min
Histogram: 1 0 0 0 0 0 0 0 0 0
Neighs:    1.03237e+06 ave 1.03237e+06 max 1.03237e+06 min
Histogram: 1 0 0 0 0 0 0 0 0 0

Total # of neighbors = 1032366
Ave neighs/atom = 52.5324
Neighbor list builds = 4505
Dangerous builds not checked
Setting up Verlet run ...
  Unit style    : metal
  Current step  : 115000
  Time step     : 0.001
Per MPI rank memory allocation (min/avg/max) = 18.19 | 18.19 | 18.19 Mbytes
Step Temp Press TotEng PotEng Enthalpy 
  115000    1697.1267    681.97466   -111035.44   -115346.29   -110831.31 
  115495    1664.8567    225.25169   -111222.66   -115451.55   -111155.23 
Loop time of 64.6738 on 1 procs for 495 steps with 19652 atoms

Performance: 0.661 ns/day, 36.293 hours/ns, 7.654 timesteps/s
99.3% CPU use with 1 MPI tasks x no OpenMP threads

MPI task timing breakdown:
Section |  min time  |  avg time  |  max time  |%varavg| %total
---------------------------------------------------------------
Pair    | 34.469     | 34.469     | 34.469     |   0.0 | 53.30
Neigh   | 28.647     | 28.647     | 28.647     |   0.0 | 44.29
Comm    | 0.56403    | 0.56403    | 0.56403    |   0.0 |  0.87
Output  | 0.00016999 | 0.00016999 | 0.00016999 |   0.0 |  0.00
Modify  | 0.77828    | 0.77828    | 0.77828    |   0.0 |  1.20
Other   |            | 0.2157     |            |       |  0.33

Nlocal:    19652 ave 19652 max 19652 min
Histogram: 1 0 0 0 0 0 0 0 0 0
Nghost:    15814 ave 15814 max 15814 min
Histogram: 1 0 0 0 0 0 0 0 0 0
Neighs:    1.03301e+06 ave 1.03301e+06 max 1.03301e+06 min
Histogram: 1 0 0 0 0 0 0 0 0 0

Total # of neighbors = 1033014
Ave neighs/atom = 52.5653
Neighbor list builds = 495
Dangerous builds not checked
Setting up Verlet run ...
  Unit style    : metal
  Current step  : 115495
  Time step     : 0.001
Per MPI rank memory allocation (min/avg/max) = 18.19 | 18.19 | 18.19 Mbytes
Step Temp Press TotEng PotEng Enthalpy 
  115495    1664.8567    225.25169   -111222.66   -115451.55   -111155.23 
  120000    1663.3462    34.902785   -111318.39   -115543.44   -111307.95 
Loop time of 584.533 on 1 procs for 4505 steps with 19652 atoms

Performance: 0.666 ns/day, 36.042 hours/ns, 7.707 timesteps/s
98.7% CPU use with 1 MPI tasks x no OpenMP threads

MPI task timing breakdown:
Section |  min time  |  avg time  |  max time  |%varavg| %total
---------------------------------------------------------------
Pair    | 308.93     | 308.93     | 308.93     |   0.0 | 52.85
Neigh   | 261.58     | 261.58     | 261.58     |   0.0 | 44.75
Comm    | 5.1386     | 5.1386     | 5.1386     |   0.0 |  0.88
Output  | 0.083162   | 0.083162   | 0.083162   |   0.0 |  0.01
Modify  | 6.9662     | 6.9662     | 6.9662     |   0.0 |  1.19
Other   |            | 1.834      |            |       |  0.31

Nlocal:    19652 ave 19652 max 19652 min
Histogram: 1 0 0 0 0 0 0 0 0 0
Nghost:    15747 ave 15747 max 15747 min
Histogram: 1 0 0 0 0 0 0 0 0 0
Neighs:    1.03342e+06 ave 1.03342e+06 max 1.03342e+06 min
Histogram: 1 0 0 0 0 0 0 0 0 0

Total # of neighbors = 1033423
Ave neighs/atom = 52.5861
Neighbor list builds = 4505
Dangerous builds not checked
Setting up Verlet run ...
  Unit style    : metal
  Current step  : 120000
  Time step     : 0.001
Per MPI rank memory allocation (min/avg/max) = 18.19 | 18.19 | 18.19 Mbytes
Step Temp Press TotEng PotEng Enthalpy 
  120000    1663.3462    34.902785   -111318.39   -115543.44   -111307.95 
  120495    1609.3461    226.39259   -111556.23   -115644.12   -111488.59 
Loop time of 56.5872 on 1 procs for 495 steps with 19652 atoms

Performance: 0.756 ns/day, 31.755 hours/ns, 8.748 timesteps/s
99.6% CPU use with 1 MPI tasks x no OpenMP threads

MPI task timing breakdown:
Section |  min time  |  avg time  |  max time  |%varavg| %total
---------------------------------------------------------------
Pair    | 29.374     | 29.374     | 29.374     |   0.0 | 51.91
Neigh   | 25.88      | 25.88      | 25.88      |   0.0 | 45.74
Comm    | 0.47199    | 0.47199    | 0.47199    |   0.0 |  0.83
Output  | 0.00011897 | 0.00011897 | 0.00011897 |   0.0 |  0.00
Modify  | 0.6839     | 0.6839     | 0.6839     |   0.0 |  1.21
Other   |            | 0.177      |            |       |  0.31

Nlocal:    19652 ave 19652 max 19652 min
Histogram: 1 0 0 0 0 0 0 0 0 0
Nghost:    15850 ave 15850 max 15850 min
Histogram: 1 0 0 0 0 0 0 0 0 0
Neighs:    1.03518e+06 ave 1.03518e+06 max 1.03518e+06 min
Histogram: 1 0 0 0 0 0 0 0 0 0

Total # of neighbors = 1035184
Ave neighs/atom = 52.6758
Neighbor list builds = 495
Dangerous builds not checked
Setting up Verlet run ...
  Unit style    : metal
  Current step  : 120495
  Time step     : 0.001
Per MPI rank memory allocation (min/avg/max) = 18.19 | 18.19 | 18.19 Mbytes
Step Temp Press TotEng PotEng Enthalpy 
  120495    1609.3461    226.39259   -111556.23   -115644.12   -111488.59 
  125000    1595.5722    422.89387   -111743.91   -115796.81   -111617.72 
Loop time of 550.549 on 1 procs for 4505 steps with 19652 atoms

Performance: 0.707 ns/day, 33.947 hours/ns, 8.183 timesteps/s
98.8% CPU use with 1 MPI tasks x no OpenMP threads

MPI task timing breakdown:
Section |  min time  |  avg time  |  max time  |%varavg| %total
---------------------------------------------------------------
Pair    | 287.87     | 287.87     | 287.87     |   0.0 | 52.29
Neigh   | 249.61     | 249.61     | 249.61     |   0.0 | 45.34
Comm    | 4.6281     | 4.6281     | 4.6281     |   0.0 |  0.84
Output  | 0.075512   | 0.075512   | 0.075512   |   0.0 |  0.01
Modify  | 6.6421     | 6.6421     | 6.6421     |   0.0 |  1.21
Other   |            | 1.723      |            |       |  0.31

Nlocal:    19652 ave 19652 max 19652 min
Histogram: 1 0 0 0 0 0 0 0 0 0
Nghost:    15871 ave 15871 max 15871 min
Histogram: 1 0 0 0 0 0 0 0 0 0
Neighs:    1.03686e+06 ave 1.03686e+06 max 1.03686e+06 min
Histogram: 1 0 0 0 0 0 0 0 0 0

Total # of neighbors = 1036865
Ave neighs/atom = 52.7613
Neighbor list builds = 4505
Dangerous builds not checked
Setting up Verlet run ...
  Unit style    : metal
  Current step  : 125000
  Time step     : 0.001
Per MPI rank memory allocation (min/avg/max) = 18.19 | 18.19 | 18.19 Mbytes
Step Temp Press TotEng PotEng Enthalpy 
  125000    1595.5722    422.89387   -111743.91   -115796.81   -111617.72 
  125495    1567.5245   -158.48766   -111937.59   -115919.24   -111984.86 
Loop time of 65.9866 on 1 procs for 495 steps with 19652 atoms

Performance: 0.648 ns/day, 37.030 hours/ns, 7.502 timesteps/s
100.0% CPU use with 1 MPI tasks x no OpenMP threads

MPI task timing breakdown:
Section |  min time  |  avg time  |  max time  |%varavg| %total
---------------------------------------------------------------
Pair    | 35.265     | 35.265     | 35.265     |   0.0 | 53.44
Neigh   | 29.115     | 29.115     | 29.115     |   0.0 | 44.12
Comm    | 0.5746     | 0.5746     | 0.5746     |   0.0 |  0.87
Output  | 0.00013995 | 0.00013995 | 0.00013995 |   0.0 |  0.00
Modify  | 0.80823    | 0.80823    | 0.80823    |   0.0 |  1.22
Other   |            | 0.2234     |            |       |  0.34

Nlocal:    19652 ave 19652 max 19652 min
Histogram: 1 0 0 0 0 0 0 0 0 0
Nghost:    15784 ave 15784 max 15784 min
Histogram: 1 0 0 0 0 0 0 0 0 0
Neighs:    1.03747e+06 ave 1.03747e+06 max 1.03747e+06 min
Histogram: 1 0 0 0 0 0 0 0 0 0

Total # of neighbors = 1037469
Ave neighs/atom = 52.792
Neighbor list builds = 495
Dangerous builds not checked
Setting up Verlet run ...
  Unit style    : metal
  Current step  : 125495
  Time step     : 0.001
Per MPI rank memory allocation (min/avg/max) = 18.19 | 18.19 | 18.19 Mbytes
Step Temp Press TotEng PotEng Enthalpy 
  125495    1567.5245   -158.48766   -111937.59   -115919.24   -111984.86 
  130000    1549.6255   -953.33775   -112017.81      -115954   -112302.51 
Loop time of 604.832 on 1 procs for 4505 steps with 19652 atoms

Performance: 0.644 ns/day, 37.294 hours/ns, 7.448 timesteps/s
98.1% CPU use with 1 MPI tasks x no OpenMP threads

MPI task timing breakdown:
Section |  min time  |  avg time  |  max time  |%varavg| %total
---------------------------------------------------------------
Pair    | 323.02     | 323.02     | 323.02     |   0.0 | 53.41
Neigh   | 267.34     | 267.34     | 267.34     |   0.0 | 44.20
Comm    | 5.2042     | 5.2042     | 5.2042     |   0.0 |  0.86
Output  | 0.11215    | 0.11215    | 0.11215    |   0.0 |  0.02
Modify  | 7.2005     | 7.2005     | 7.2005     |   0.0 |  1.19
Other   |            | 1.954      |            |       |  0.32

Nlocal:    19652 ave 19652 max 19652 min
Histogram: 1 0 0 0 0 0 0 0 0 0
Nghost:    15816 ave 15816 max 15816 min
Histogram: 1 0 0 0 0 0 0 0 0 0
Neighs:    1.03656e+06 ave 1.03656e+06 max 1.03656e+06 min
Histogram: 1 0 0 0 0 0 0 0 0 0

Total # of neighbors = 1036560
Ave neighs/atom = 52.7458
Neighbor list builds = 4505
Dangerous builds not checked
Setting up Verlet run ...
  Unit style    : metal
  Current step  : 130000
  Time step     : 0.001
Per MPI rank memory allocation (min/avg/max) = 18.19 | 18.19 | 18.19 Mbytes
Step Temp Press TotEng PotEng Enthalpy 
  130000    1549.6255   -953.33775   -112017.81      -115954   -112302.51 
  130495    1517.6083    41.728996   -112257.88   -116112.74   -112245.45 
Loop time of 63.6726 on 1 procs for 495 steps with 19652 atoms

Performance: 0.672 ns/day, 35.731 hours/ns, 7.774 timesteps/s
98.8% CPU use with 1 MPI tasks x no OpenMP threads

MPI task timing breakdown:
Section |  min time  |  avg time  |  max time  |%varavg| %total
---------------------------------------------------------------
Pair    | 33.701     | 33.701     | 33.701     |   0.0 | 52.93
Neigh   | 28.442     | 28.442     | 28.442     |   0.0 | 44.67
Comm    | 0.54841    | 0.54841    | 0.54841    |   0.0 |  0.86
Output  | 0.00015807 | 0.00015807 | 0.00015807 |   0.0 |  0.00
Modify  | 0.76482    | 0.76482    | 0.76482    |   0.0 |  1.20
Other   |            | 0.2159     |            |       |  0.34

Nlocal:    19652 ave 19652 max 19652 min
Histogram: 1 0 0 0 0 0 0 0 0 0
Nghost:    15807 ave 15807 max 15807 min
Histogram: 1 0 0 0 0 0 0 0 0 0
Neighs:    1.03894e+06 ave 1.03894e+06 max 1.03894e+06 min
Histogram: 1 0 0 0 0 0 0 0 0 0

Total # of neighbors = 1038941
Ave neighs/atom = 52.8669
Neighbor list builds = 495
Dangerous builds not checked
Setting up Verlet run ...
  Unit style    : metal
  Current step  : 130495
  Time step     : 0.001
Per MPI rank memory allocation (min/avg/max) = 18.19 | 18.19 | 18.19 Mbytes
Step Temp Press TotEng PotEng Enthalpy 
  130495    1517.6083    41.728996   -112257.88   -116112.74   -112245.45 
  135000    1496.8746   -1803.0947   -112401.17   -116203.36   -112939.12 
Loop time of 576.845 on 1 procs for 4505 steps with 19652 atoms

Performance: 0.675 ns/day, 35.568 hours/ns, 7.810 timesteps/s
99.1% CPU use with 1 MPI tasks x no OpenMP threads

MPI task timing breakdown:
Section |  min time  |  avg time  |  max time  |%varavg| %total
---------------------------------------------------------------
Pair    | 306.48     | 306.48     | 306.48     |   0.0 | 53.13
Neigh   | 256.31     | 256.31     | 256.31     |   0.0 | 44.43
Comm    | 5.0411     | 5.0411     | 5.0411     |   0.0 |  0.87
Output  | 0.28556    | 0.28556    | 0.28556    |   0.0 |  0.05
Modify  | 6.8186     | 6.8186     | 6.8186     |   0.0 |  1.18
Other   |            | 1.91       |            |       |  0.33

Nlocal:    19652 ave 19652 max 19652 min
Histogram: 1 0 0 0 0 0 0 0 0 0
Nghost:    15808 ave 15808 max 15808 min
Histogram: 1 0 0 0 0 0 0 0 0 0
Neighs:    1.03748e+06 ave 1.03748e+06 max 1.03748e+06 min
Histogram: 1 0 0 0 0 0 0 0 0 0

Total # of neighbors = 1037479
Ave neighs/atom = 52.7925
Neighbor list builds = 4505
Dangerous builds not checked
Setting up Verlet run ...
  Unit style    : metal
  Current step  : 135000
  Time step     : 0.001
Per MPI rank memory allocation (min/avg/max) = 18.19 | 18.19 | 18.19 Mbytes
Step Temp Press TotEng PotEng Enthalpy 
  135000    1496.8746   -1803.0947   -112401.17   -116203.36   -112939.12 
  135495    1463.3946   -80.796592   -112606.68   -116323.84   -112630.72 
Loop time of 61.6418 on 1 procs for 495 steps with 19652 atoms

Performance: 0.694 ns/day, 34.591 hours/ns, 8.030 timesteps/s
98.5% CPU use with 1 MPI tasks x no OpenMP threads

MPI task timing breakdown:
Section |  min time  |  avg time  |  max time  |%varavg| %total
---------------------------------------------------------------
Pair    | 32.586     | 32.586     | 32.586     |   0.0 | 52.86
Neigh   | 27.566     | 27.566     | 27.566     |   0.0 | 44.72
Comm    | 0.53094    | 0.53094    | 0.53094    |   0.0 |  0.86
Output  | 0.00020003 | 0.00020003 | 0.00020003 |   0.0 |  0.00
Modify  | 0.7494     | 0.7494     | 0.7494     |   0.0 |  1.22
Other   |            | 0.2088     |            |       |  0.34

Nlocal:    19652 ave 19652 max 19652 min
Histogram: 1 0 0 0 0 0 0 0 0 0
Nghost:    15860 ave 15860 max 15860 min
Histogram: 1 0 0 0 0 0 0 0 0 0
Neighs:    1.04186e+06 ave 1.04186e+06 max 1.04186e+06 min
Histogram: 1 0 0 0 0 0 0 0 0 0

Total # of neighbors = 1041858
Ave neighs/atom = 53.0154
Neighbor list builds = 495
Dangerous builds not checked
Setting up Verlet run ...
  Unit style    : metal
  Current step  : 135495
  Time step     : 0.001
Per MPI rank memory allocation (min/avg/max) = 18.19 | 18.19 | 18.19 Mbytes
Step Temp Press TotEng PotEng Enthalpy 
  135495    1463.3946   -80.796592   -112606.68   -116323.84   -112630.72 
  140000    1438.9694   -834.98991   -112763.07   -116418.18   -113011.37 
Loop time of 602.044 on 1 procs for 4505 steps with 19652 atoms

Performance: 0.647 ns/day, 37.122 hours/ns, 7.483 timesteps/s
99.6% CPU use with 1 MPI tasks x no OpenMP threads

MPI task timing breakdown:
Section |  min time  |  avg time  |  max time  |%varavg| %total
---------------------------------------------------------------
Pair    | 322.16     | 322.16     | 322.16     |   0.0 | 53.51
Neigh   | 265.66     | 265.66     | 265.66     |   0.0 | 44.13
Comm    | 5.2262     | 5.2262     | 5.2262     |   0.0 |  0.87
Output  | 0.077523   | 0.077523   | 0.077523   |   0.0 |  0.01
Modify  | 6.9888     | 6.9888     | 6.9888     |   0.0 |  1.16
Other   |            | 1.936      |            |       |  0.32

Nlocal:    19652 ave 19652 max 19652 min
Histogram: 1 0 0 0 0 0 0 0 0 0
Nghost:    15865 ave 15865 max 15865 min
Histogram: 1 0 0 0 0 0 0 0 0 0
Neighs:    1.04178e+06 ave 1.04178e+06 max 1.04178e+06 min
Histogram: 1 0 0 0 0 0 0 0 0 0

Total # of neighbors = 1041782
Ave neighs/atom = 53.0115
Neighbor list builds = 4505
Dangerous builds not checked
Setting up Verlet run ...
  Unit style    : metal
  Current step  : 140000
  Time step     : 0.001
Per MPI rank memory allocation (min/avg/max) = 18.19 | 18.19 | 18.19 Mbytes
Step Temp Press TotEng PotEng Enthalpy 
  140000    1438.9694   -834.98991   -112763.07   -116418.18   -113011.37 
  140495    1406.9056    1068.7971   -112940.82   -116514.49   -112623.88 
Loop time of 60.6275 on 1 procs for 495 steps with 19652 atoms

Performance: 0.705 ns/day, 34.022 hours/ns, 8.165 timesteps/s
99.4% CPU use with 1 MPI tasks x no OpenMP threads

MPI task timing breakdown:
Section |  min time  |  avg time  |  max time  |%varavg| %total
---------------------------------------------------------------
Pair    | 31.937     | 31.937     | 31.937     |   0.0 | 52.68
Neigh   | 27.224     | 27.224     | 27.224     |   0.0 | 44.90
Comm    | 0.53173    | 0.53173    | 0.53173    |   0.0 |  0.88
Output  | 0.00018692 | 0.00018692 | 0.00018692 |   0.0 |  0.00
Modify  | 0.72832    | 0.72832    | 0.72832    |   0.0 |  1.20
Other   |            | 0.206      |            |       |  0.34

Nlocal:    19652 ave 19652 max 19652 min
Histogram: 1 0 0 0 0 0 0 0 0 0
Nghost:    15859 ave 15859 max 15859 min
Histogram: 1 0 0 0 0 0 0 0 0 0
Neighs:    1.04566e+06 ave 1.04566e+06 max 1.04566e+06 min
Histogram: 1 0 0 0 0 0 0 0 0 0

Total # of neighbors = 1045657
Ave neighs/atom = 53.2087
Neighbor list builds = 495
Dangerous builds not checked
Setting up Verlet run ...
  Unit style    : metal
  Current step  : 140495
  Time step     : 0.001
Per MPI rank memory allocation (min/avg/max) = 18.19 | 18.19 | 18.19 Mbytes
Step Temp Press TotEng PotEng Enthalpy 
  140495    1406.9056    1068.7971   -112940.82   -116514.49   -112623.88 
  145000    1395.9879    1248.0164   -113122.31   -116668.25   -112752.52 
Loop time of 565.711 on 1 procs for 4505 steps with 19652 atoms

Performance: 0.688 ns/day, 34.882 hours/ns, 7.963 timesteps/s
98.8% CPU use with 1 MPI tasks x no OpenMP threads

MPI task timing breakdown:
Section |  min time  |  avg time  |  max time  |%varavg| %total
---------------------------------------------------------------
Pair    | 300.98     | 300.98     | 300.98     |   0.0 | 53.20
Neigh   | 251.3      | 251.3      | 251.3      |   0.0 | 44.42
Comm    | 4.9516     | 4.9516     | 4.9516     |   0.0 |  0.88
Output  | 0.080081   | 0.080081   | 0.080081   |   0.0 |  0.01
Modify  | 6.5402     | 6.5402     | 6.5402     |   0.0 |  1.16
Other   |            | 1.857      |            |       |  0.33

Nlocal:    19652 ave 19652 max 19652 min
Histogram: 1 0 0 0 0 0 0 0 0 0
Nghost:    15793 ave 15793 max 15793 min
Histogram: 1 0 0 0 0 0 0 0 0 0
Neighs:    1.04734e+06 ave 1.04734e+06 max 1.04734e+06 min
Histogram: 1 0 0 0 0 0 0 0 0 0

Total # of neighbors = 1047344
Ave neighs/atom = 53.2945
Neighbor list builds = 4505
Dangerous builds not checked
Setting up Verlet run ...
  Unit style    : metal
  Current step  : 145000
  Time step     : 0.001
Per MPI rank memory allocation (min/avg/max) = 18.19 | 18.19 | 18.19 Mbytes
Step Temp Press TotEng PotEng Enthalpy 
  145000    1395.9879    1248.0164   -113122.31   -116668.25   -112752.52 
  145495    1365.5117    -471.2773   -113317.53   -116786.06   -113457.34 
Loop time of 64.0337 on 1 procs for 495 steps with 19652 atoms

Performance: 0.668 ns/day, 35.934 hours/ns, 7.730 timesteps/s
97.8% CPU use with 1 MPI tasks x no OpenMP threads

MPI task timing breakdown:
Section |  min time  |  avg time  |  max time  |%varavg| %total
---------------------------------------------------------------
Pair    | 34.172     | 34.172     | 34.172     |   0.0 | 53.36
Neigh   | 28.312     | 28.312     | 28.312     |   0.0 | 44.21
Comm    | 0.57212    | 0.57212    | 0.57212    |   0.0 |  0.89
Output  | 0.00018692 | 0.00018692 | 0.00018692 |   0.0 |  0.00
Modify  | 0.76521    | 0.76521    | 0.76521    |   0.0 |  1.20
Other   |            | 0.2124     |            |       |  0.33

Nlocal:    19652 ave 19652 max 19652 min
Histogram: 1 0 0 0 0 0 0 0 0 0
Nghost:    15791 ave 15791 max 15791 min
Histogram: 1 0 0 0 0 0 0 0 0 0
Neighs:    1.04602e+06 ave 1.04602e+06 max 1.04602e+06 min
Histogram: 1 0 0 0 0 0 0 0 0 0

Total # of neighbors = 1046020
Ave neighs/atom = 53.2272
Neighbor list builds = 495
Dangerous builds not checked
Setting up Verlet run ...
  Unit style    : metal
  Current step  : 145495
  Time step     : 0.001
Per MPI rank memory allocation (min/avg/max) = 18.19 | 18.19 | 18.19 Mbytes
Step Temp Press TotEng PotEng Enthalpy 
  145495    1365.5117    -471.2773   -113317.53   -116786.06   -113457.34 
  150000     1354.747    478.70114   -113417.44   -116858.62   -113275.65 
Loop time of 532.866 on 1 procs for 4505 steps with 19652 atoms

Performance: 0.730 ns/day, 32.856 hours/ns, 8.454 timesteps/s
99.2% CPU use with 1 MPI tasks x no OpenMP threads

MPI task timing breakdown:
Section |  min time  |  avg time  |  max time  |%varavg| %total
---------------------------------------------------------------
Pair    | 281.48     | 281.48     | 281.48     |   0.0 | 52.82
Neigh   | 238.78     | 238.78     | 238.78     |   0.0 | 44.81
Comm    | 4.5178     | 4.5178     | 4.5178     |   0.0 |  0.85
Output  | 0.061454   | 0.061454   | 0.061454   |   0.0 |  0.01
Modify  | 6.3279     | 6.3279     | 6.3279     |   0.0 |  1.19
Other   |            | 1.703      |            |       |  0.32

Nlocal:    19652 ave 19652 max 19652 min
Histogram: 1 0 0 0 0 0 0 0 0 0
Nghost:    15877 ave 15877 max 15877 min
Histogram: 1 0 0 0 0 0 0 0 0 0
Neighs:    1.0483e+06 ave 1.0483e+06 max 1.0483e+06 min
Histogram: 1 0 0 0 0 0 0 0 0 0

Total # of neighbors = 1048298
Ave neighs/atom = 53.3431
Neighbor list builds = 4505
Dangerous builds not checked
Setting up Verlet run ...
  Unit style    : metal
  Current step  : 150000
  Time step     : 0.001
Per MPI rank memory allocation (min/avg/max) = 18.19 | 18.19 | 18.19 Mbytes
Step Temp Press TotEng PotEng Enthalpy 
  150000     1354.747    478.70114   -113417.44   -116858.62   -113275.65 
  150495    1321.8468   -250.07027   -113635.87   -116993.48   -113709.95 
Loop time of 58.6887 on 1 procs for 495 steps with 19652 atoms

Performance: 0.729 ns/day, 32.934 hours/ns, 8.434 timesteps/s
97.0% CPU use with 1 MPI tasks x no OpenMP threads

MPI task timing breakdown:
Section |  min time  |  avg time  |  max time  |%varavg| %total
---------------------------------------------------------------
Pair    | 30.932     | 30.932     | 30.932     |   0.0 | 52.70
Neigh   | 26.368     | 26.368     | 26.368     |   0.0 | 44.93
Comm    | 0.49484    | 0.49484    | 0.49484    |   0.0 |  0.84
Output  | 0.00013494 | 0.00013494 | 0.00013494 |   0.0 |  0.00
Modify  | 0.70996    | 0.70996    | 0.70996    |   0.0 |  1.21
Other   |            | 0.1843     |            |       |  0.31

Nlocal:    19652 ave 19652 max 19652 min
Histogram: 1 0 0 0 0 0 0 0 0 0
Nghost:    15910 ave 15910 max 15910 min
Histogram: 1 0 0 0 0 0 0 0 0 0
Neighs:    1.04843e+06 ave 1.04843e+06 max 1.04843e+06 min
Histogram: 1 0 0 0 0 0 0 0 0 0

Total # of neighbors = 1048433
Ave neighs/atom = 53.3499
Neighbor list builds = 495
Dangerous builds not checked
Setting up Verlet run ...
  Unit style    : metal
  Current step  : 150495
  Time step     : 0.001
Per MPI rank memory allocation (min/avg/max) = 18.19 | 18.19 | 18.19 Mbytes
Step Temp Press TotEng PotEng Enthalpy 
  150495    1321.8468   -250.07027   -113635.87   -116993.48   -113709.95 
  155000    1312.7997   -46.713979   -113800.25   -117134.88   -113814.06 
Loop time of 521.395 on 1 procs for 4505 steps with 19652 atoms

Performance: 0.747 ns/day, 32.149 hours/ns, 8.640 timesteps/s
99.4% CPU use with 1 MPI tasks x no OpenMP threads

MPI task timing breakdown:
Section |  min time  |  avg time  |  max time  |%varavg| %total
---------------------------------------------------------------
Pair    | 275.08     | 275.08     | 275.08     |   0.0 | 52.76
Neigh   | 233.93     | 233.93     | 233.93     |   0.0 | 44.87
Comm    | 4.4452     | 4.4452     | 4.4452     |   0.0 |  0.85
Output  | 0.081848   | 0.081848   | 0.081848   |   0.0 |  0.02
Modify  | 6.2192     | 6.2192     | 6.2192     |   0.0 |  1.19
Other   |            | 1.635      |            |       |  0.31

Nlocal:    19652 ave 19652 max 19652 min
Histogram: 1 0 0 0 0 0 0 0 0 0
Nghost:    15860 ave 15860 max 15860 min
Histogram: 1 0 0 0 0 0 0 0 0 0
Neighs:    1.05027e+06 ave 1.05027e+06 max 1.05027e+06 min
Histogram: 1 0 0 0 0 0 0 0 0 0

Total # of neighbors = 1050270
Ave neighs/atom = 53.4434
Neighbor list builds = 4505
Dangerous builds not checked
Setting up Verlet run ...
  Unit style    : metal
  Current step  : 155000
  Time step     : 0.001
Per MPI rank memory allocation (min/avg/max) = 18.19 | 18.19 | 18.19 Mbytes
Step Temp Press TotEng PotEng Enthalpy 
  155000    1312.7997   -46.713979   -113800.25   -117134.88   -113814.06 
  155495    1270.5349    77.553309   -113989.44   -117216.72   -113966.52 
Loop time of 59.2738 on 1 procs for 495 steps with 19652 atoms

Performance: 0.722 ns/day, 33.263 hours/ns, 8.351 timesteps/s
99.6% CPU use with 1 MPI tasks x no OpenMP threads

MPI task timing breakdown:
Section |  min time  |  avg time  |  max time  |%varavg| %total
---------------------------------------------------------------
Pair    | 31.458     | 31.458     | 31.458     |   0.0 | 53.07
Neigh   | 26.399     | 26.399     | 26.399     |   0.0 | 44.54
Comm    | 0.50551    | 0.50551    | 0.50551    |   0.0 |  0.85
Output  | 0.00020695 | 0.00020695 | 0.00020695 |   0.0 |  0.00
Modify  | 0.71772    | 0.71772    | 0.71772    |   0.0 |  1.21
Other   |            | 0.1938     |            |       |  0.33

Nlocal:    19652 ave 19652 max 19652 min
Histogram: 1 0 0 0 0 0 0 0 0 0
Nghost:    15872 ave 15872 max 15872 min
Histogram: 1 0 0 0 0 0 0 0 0 0
Neighs:    1.05183e+06 ave 1.05183e+06 max 1.05183e+06 min
Histogram: 1 0 0 0 0 0 0 0 0 0

Total # of neighbors = 1051833
Ave neighs/atom = 53.5229
Neighbor list builds = 495
Dangerous builds not checked
Setting up Verlet run ...
  Unit style    : metal
  Current step  : 155495
  Time step     : 0.001
Per MPI rank memory allocation (min/avg/max) = 18.19 | 18.19 | 18.19 Mbytes
Step Temp Press TotEng PotEng Enthalpy 
  155495    1270.5349    77.553309   -113989.44   -117216.72   -113966.52 
  160000     1248.346    743.41343   -114158.08      -117329   -113938.73 
Loop time of 522.527 on 1 procs for 4505 steps with 19652 atoms

Performance: 0.745 ns/day, 32.219 hours/ns, 8.622 timesteps/s
99.4% CPU use with 1 MPI tasks x no OpenMP threads

MPI task timing breakdown:
Section |  min time  |  avg time  |  max time  |%varavg| %total
---------------------------------------------------------------
Pair    | 275.4      | 275.4      | 275.4      |   0.0 | 52.71
Neigh   | 234.69     | 234.69     | 234.69     |   0.0 | 44.91
Comm    | 4.4973     | 4.4973     | 4.4973     |   0.0 |  0.86
Output  | 0.055854   | 0.055854   | 0.055854   |   0.0 |  0.01
Modify  | 6.1951     | 6.1951     | 6.1951     |   0.0 |  1.19
Other   |            | 1.691      |            |       |  0.32

Nlocal:    19652 ave 19652 max 19652 min
Histogram: 1 0 0 0 0 0 0 0 0 0
Nghost:    15934 ave 15934 max 15934 min
Histogram: 1 0 0 0 0 0 0 0 0 0
Neighs:    1.05369e+06 ave 1.05369e+06 max 1.05369e+06 min
Histogram: 1 0 0 0 0 0 0 0 0 0

Total # of neighbors = 1053693
Ave neighs/atom = 53.6176
Neighbor list builds = 4505
Dangerous builds not checked
Setting up Verlet run ...
  Unit style    : metal
  Current step  : 160000
  Time step     : 0.001
Per MPI rank memory allocation (min/avg/max) = 18.19 | 18.19 | 18.19 Mbytes
Step Temp Press TotEng PotEng Enthalpy 
  160000     1248.346    743.41343   -114158.08      -117329   -113938.73 
  160495    1212.3803   -566.15685   -114360.14    -117439.7   -114527.36 
Loop time of 58.1326 on 1 procs for 495 steps with 19652 atoms

Performance: 0.736 ns/day, 32.622 hours/ns, 8.515 timesteps/s
99.0% CPU use with 1 MPI tasks x no OpenMP threads

MPI task timing breakdown:
Section |  min time  |  avg time  |  max time  |%varavg| %total
---------------------------------------------------------------
Pair    | 30.629     | 30.629     | 30.629     |   0.0 | 52.69
Neigh   | 26.121     | 26.121     | 26.121     |   0.0 | 44.93
Comm    | 0.49857    | 0.49857    | 0.49857    |   0.0 |  0.86
Output  | 0.000175   | 0.000175   | 0.000175   |   0.0 |  0.00
Modify  | 0.69342    | 0.69342    | 0.69342    |   0.0 |  1.19
Other   |            | 0.19       |            |       |  0.33

Nlocal:    19652 ave 19652 max 19652 min
Histogram: 1 0 0 0 0 0 0 0 0 0
Nghost:    15910 ave 15910 max 15910 min
Histogram: 1 0 0 0 0 0 0 0 0 0
Neighs:    1.05305e+06 ave 1.05305e+06 max 1.05305e+06 min
Histogram: 1 0 0 0 0 0 0 0 0 0

Total # of neighbors = 1053053
Ave neighs/atom = 53.585
Neighbor list builds = 495
Dangerous builds not checked
Setting up Verlet run ...
  Unit style    : metal
  Current step  : 160495
  Time step     : 0.001
Per MPI rank memory allocation (min/avg/max) = 18.19 | 18.19 | 18.19 Mbytes
Step Temp Press TotEng PotEng Enthalpy 
  160495    1212.3803   -566.15685   -114360.14    -117439.7   -114527.36 
  165000    1191.3852   -917.07926   -114516.97    -117543.2   -114787.84 
Loop time of 525.623 on 1 procs for 4505 steps with 19652 atoms

Performance: 0.741 ns/day, 32.410 hours/ns, 8.571 timesteps/s
99.6% CPU use with 1 MPI tasks x no OpenMP threads

MPI task timing breakdown:
Section |  min time  |  avg time  |  max time  |%varavg| %total
---------------------------------------------------------------
Pair    | 277.53     | 277.53     | 277.53     |   0.0 | 52.80
Neigh   | 235.53     | 235.53     | 235.53     |   0.0 | 44.81
Comm    | 4.5272     | 4.5272     | 4.5272     |   0.0 |  0.86
Output  | 0.075154   | 0.075154   | 0.075154   |   0.0 |  0.01
Modify  | 6.2381     | 6.2381     | 6.2381     |   0.0 |  1.19
Other   |            | 1.715      |            |       |  0.33

Nlocal:    19652 ave 19652 max 19652 min
Histogram: 1 0 0 0 0 0 0 0 0 0
Nghost:    15866 ave 15866 max 15866 min
Histogram: 1 0 0 0 0 0 0 0 0 0
Neighs:    1.05338e+06 ave 1.05338e+06 max 1.05338e+06 min
Histogram: 1 0 0 0 0 0 0 0 0 0

Total # of neighbors = 1053377
Ave neighs/atom = 53.6015
Neighbor list builds = 4505
Dangerous builds not checked
Setting up Verlet run ...
  Unit style    : metal
  Current step  : 165000
  Time step     : 0.001
Per MPI rank memory allocation (min/avg/max) = 18.19 | 18.19 | 18.19 Mbytes
Step Temp Press TotEng PotEng Enthalpy 
  165000    1191.3852   -917.07926   -114516.97    -117543.2   -114787.84 
  165495    1159.1229    681.38065    -114684.5   -117628.78   -114483.88 
Loop time of 59.1119 on 1 procs for 495 steps with 19652 atoms

Performance: 0.724 ns/day, 33.172 hours/ns, 8.374 timesteps/s
99.4% CPU use with 1 MPI tasks x no OpenMP threads

MPI task timing breakdown:
Section |  min time  |  avg time  |  max time  |%varavg| %total
---------------------------------------------------------------
Pair    | 31.461     | 31.461     | 31.461     |   0.0 | 53.22
Neigh   | 26.245     | 26.245     | 26.245     |   0.0 | 44.40
Comm    | 0.50654    | 0.50654    | 0.50654    |   0.0 |  0.86
Output  | 0.00022101 | 0.00022101 | 0.00022101 |   0.0 |  0.00
Modify  | 0.71075    | 0.71075    | 0.71075    |   0.0 |  1.20
Other   |            | 0.1885     |            |       |  0.32

Nlocal:    19652 ave 19652 max 19652 min
Histogram: 1 0 0 0 0 0 0 0 0 0
Nghost:    15895 ave 15895 max 15895 min
Histogram: 1 0 0 0 0 0 0 0 0 0
Neighs:    1.05718e+06 ave 1.05718e+06 max 1.05718e+06 min
Histogram: 1 0 0 0 0 0 0 0 0 0

Total # of neighbors = 1057182
Ave neighs/atom = 53.7951
Neighbor list builds = 495
Dangerous builds not checked
Setting up Verlet run ...
  Unit style    : metal
  Current step  : 165495
  Time step     : 0.001
Per MPI rank memory allocation (min/avg/max) = 18.19 | 18.19 | 18.19 Mbytes
Step Temp Press TotEng PotEng Enthalpy 
  165495    1159.1229    681.38065    -114684.5   -117628.78   -114483.88 
  170000    1158.5523    -816.1249   -114868.19   -117811.02   -115108.78 
Loop time of 551.574 on 1 procs for 4505 steps with 19652 atoms

Performance: 0.706 ns/day, 34.010 hours/ns, 8.168 timesteps/s
[...]
Setting up Verlet run ...
  Unit style    : metal
  Current step  : 240000
  Time step     : 0.001
Per MPI rank memory allocation (min/avg/max) = 18.19 | 18.19 | 18.19 Mbytes
Step Temp Press TotEng PotEng Enthalpy 
  240000    447.48356   -376.40531   -119567.34   -120703.99   -119676.15 
  240495    420.83759    440.91558   -119722.27   -120791.24   -119595.01 
Loop time of 64.4629 on 1 procs for 495 steps with 19652 atoms

Performance: 0.663 ns/day, 36.174 hours/ns, 7.679 timesteps/s
100.0% CPU use with 1 MPI tasks x no OpenMP threads

MPI task timing breakdown:
Section |  min time  |  avg time  |  max time  |%varavg| %total
---------------------------------------------------------------
Pair    | 34.887     | 34.887     | 34.887     |   0.0 | 54.12
Neigh   | 27.953     | 27.953     | 27.953     |   0.0 | 43.36
Comm    | 0.57967    | 0.57967    | 0.57967    |   0.0 |  0.90
Output  | 0.00016999 | 0.00016999 | 0.00016999 |   0.0 |  0.00
Modify  | 0.81373    | 0.81373    | 0.81373    |   0.0 |  1.26
Other   |            | 0.2294     |            |       |  0.36

Nlocal:    19652 ave 19652 max 19652 min
Histogram: 1 0 0 0 0 0 0 0 0 0
Nghost:    15992 ave 15992 max 15992 min
Histogram: 1 0 0 0 0 0 0 0 0 0
Neighs:    1.08657e+06 ave 1.08657e+06 max 1.08657e+06 min
Histogram: 1 0 0 0 0 0 0 0 0 0

Total # of neighbors = 1086567
Ave neighs/atom = 55.2904
Neighbor list builds = 495
Dangerous builds not checked
Setting up Verlet run ...
  Unit style    : metal
  Current step  : 240495
  Time step     : 0.001
Per MPI rank memory allocation (min/avg/max) = 18.19 | 18.19 | 18.19 Mbytes
Step Temp Press TotEng PotEng Enthalpy 
  240495    420.83759    440.91558   -119722.27   -120791.24   -119595.01 
  245000    400.97873    508.81021   -119840.05   -120858.57   -119693.26 
Loop time of 593.103 on 1 procs for 4505 steps with 19652 atoms

Performance: 0.656 ns/day, 36.571 hours/ns, 7.596 timesteps/s
99.2% CPU use with 1 MPI tasks x no OpenMP threads

MPI task timing breakdown:
Section |  min time  |  avg time  |  max time  |%varavg| %total
---------------------------------------------------------------
Pair    | 321.26     | 321.26     | 321.26     |   0.0 | 54.17
Neigh   | 256.84     | 256.84     | 256.84     |   0.0 | 43.31
Comm    | 5.407      | 5.407      | 5.407      |   0.0 |  0.91
Output  | 0.21516    | 0.21516    | 0.21516    |   0.0 |  0.04
Modify  | 7.3151     | 7.3151     | 7.3151     |   0.0 |  1.23
Other   |            | 2.062      |            |       |  0.35

Nlocal:    19652 ave 19652 max 19652 min
Histogram: 1 0 0 0 0 0 0 0 0 0
Nghost:    16014 ave 16014 max 16014 min
Histogram: 1 0 0 0 0 0 0 0 0 0
Neighs:    1.08748e+06 ave 1.08748e+06 max 1.08748e+06 min
Histogram: 1 0 0 0 0 0 0 0 0 0

Total # of neighbors = 1087481
Ave neighs/atom = 55.3369
Neighbor list builds = 4505
Dangerous builds not checked
Setting up Verlet run ...
  Unit style    : metal
  Current step  : 245000
  Time step     : 0.001
Per MPI rank memory allocation (min/avg/max) = 18.19 | 18.19 | 18.19 Mbytes
Step Temp Press TotEng PotEng Enthalpy 
  245000    400.97873    508.81021   -119840.05   -120858.57   -119693.26 
  245495     373.5569    -388.6836   -119996.79   -120945.66   -120108.99 
Loop time of 67.7299 on 1 procs for 495 steps with 19652 atoms

Performance: 0.631 ns/day, 38.008 hours/ns, 7.308 timesteps/s
99.9% CPU use with 1 MPI tasks x no OpenMP threads

MPI task timing breakdown:
Section |  min time  |  avg time  |  max time  |%varavg| %total
---------------------------------------------------------------
Pair    | 36.868     | 36.868     | 36.868     |   0.0 | 54.43
Neigh   | 29.213     | 29.213     | 29.213     |   0.0 | 43.13
Comm    | 0.59314    | 0.59314    | 0.59314    |   0.0 |  0.88
Output  | 0.00022888 | 0.00022888 | 0.00022888 |   0.0 |  0.00
Modify  | 0.82467    | 0.82467    | 0.82467    |   0.0 |  1.22
Other   |            | 0.2312     |            |       |  0.34

Nlocal:    19652 ave 19652 max 19652 min
Histogram: 1 0 0 0 0 0 0 0 0 0
Nghost:    16038 ave 16038 max 16038 min
Histogram: 1 0 0 0 0 0 0 0 0 0
Neighs:    1.08705e+06 ave 1.08705e+06 max 1.08705e+06 min
Histogram: 1 0 0 0 0 0 0 0 0 0

Total # of neighbors = 1087052
Ave neighs/atom = 55.3151
Neighbor list builds = 495
Dangerous builds not checked
Setting up Verlet run ...
  Unit style    : metal
  Current step  : 245495
  Time step     : 0.001
Per MPI rank memory allocation (min/avg/max) = 18.19 | 18.19 | 18.19 Mbytes
Step Temp Press TotEng PotEng Enthalpy 
  245495     373.5569    -388.6836   -119996.79   -120945.66   -120108.99 
  250000    348.44339   -385.10091   -120135.23   -121020.31   -120246.35 
Loop time of 618.47 on 1 procs for 4505 steps with 19652 atoms

Performance: 0.629 ns/day, 38.135 hours/ns, 7.284 timesteps/s
99.7% CPU use with 1 MPI tasks x no OpenMP threads

MPI task timing breakdown:
Section |  min time  |  avg time  |  max time  |%varavg| %total
---------------------------------------------------------------
Pair    | 339.6      | 339.6      | 339.6      |   0.0 | 54.91
Neigh   | 263.27     | 263.27     | 263.27     |   0.0 | 42.57
Comm    | 5.6274     | 5.6274     | 5.6274     |   0.0 |  0.91
Output  | 0.24609    | 0.24609    | 0.24609    |   0.0 |  0.04
Modify  | 7.6335     | 7.6335     | 7.6335     |   0.0 |  1.23
Other   |            | 2.099      |            |       |  0.34

Nlocal:    19652 ave 19652 max 19652 min
Histogram: 1 0 0 0 0 0 0 0 0 0
Nghost:    16036 ave 16036 max 16036 min
Histogram: 1 0 0 0 0 0 0 0 0 0
Neighs:    1.08746e+06 ave 1.08746e+06 max 1.08746e+06 min
Histogram: 1 0 0 0 0 0 0 0 0 0

Total # of neighbors = 1087459
Ave neighs/atom = 55.3358
Neighbor list builds = 4505
Dangerous builds not checked
Setting up Verlet run ...
  Unit style    : metal
  Current step  : 250000
  Time step     : 0.001
Per MPI rank memory allocation (min/avg/max) = 18.19 | 18.19 | 18.19 Mbytes
Step Temp Press TotEng PotEng Enthalpy 
  250000    348.44339   -385.10091   -120135.23   -121020.31   -120246.35 
  250495    322.76842    -162.7957   -120276.03    -121095.9   -120322.97 
Loop time of 64.4039 on 1 procs for 495 steps with 19652 atoms

Performance: 0.664 ns/day, 36.141 hours/ns, 7.686 timesteps/s
96.1% CPU use with 1 MPI tasks x no OpenMP threads

MPI task timing breakdown:
Section |  min time  |  avg time  |  max time  |%varavg| %total
---------------------------------------------------------------
Pair    | 34.579     | 34.579     | 34.579     |   0.0 | 53.69
Neigh   | 28.266     | 28.266     | 28.266     |   0.0 | 43.89
Comm    | 0.5672     | 0.5672     | 0.5672     |   0.0 |  0.88
Output  | 0.00016189 | 0.00016189 | 0.00016189 |   0.0 |  0.00
Modify  | 0.76892    | 0.76892    | 0.76892    |   0.0 |  1.19
Other   |            | 0.2217     |            |       |  0.34

Nlocal:    19652 ave 19652 max 19652 min
Histogram: 1 0 0 0 0 0 0 0 0 0
Nghost:    16019 ave 16019 max 16019 min
Histogram: 1 0 0 0 0 0 0 0 0 0
Neighs:    1.08826e+06 ave 1.08826e+06 max 1.08826e+06 min
Histogram: 1 0 0 0 0 0 0 0 0 0

Total # of neighbors = 1088261
Ave neighs/atom = 55.3766
Neighbor list builds = 495
Dangerous builds not checked
Setting up Verlet run ...
  Unit style    : metal
  Current step  : 250495
  Time step     : 0.001
Per MPI rank memory allocation (min/avg/max) = 18.19 | 18.19 | 18.19 Mbytes
Step Temp Press TotEng PotEng Enthalpy 
  250495    322.76842    -162.7957   -120276.03    -121095.9   -120322.97 
  255000    297.65476   -659.97343   -120406.55   -121162.62   -120596.87 
Loop time of 598.787 on 1 procs for 4505 steps with 19652 atoms

Performance: 0.650 ns/day, 36.921 hours/ns, 7.524 timesteps/s
99.4% CPU use with 1 MPI tasks x no OpenMP threads

MPI task timing breakdown:
Section |  min time  |  avg time  |  max time  |%varavg| %total
---------------------------------------------------------------
Pair    | 329.13     | 329.13     | 329.13     |   0.0 | 54.97
Neigh   | 254.37     | 254.37     | 254.37     |   0.0 | 42.48
Comm    | 5.6419     | 5.6419     | 5.6419     |   0.0 |  0.94
Output  | 0.071707   | 0.071707   | 0.071707   |   0.0 |  0.01
Modify  | 7.523      | 7.523      | 7.523      |   0.0 |  1.26
Other   |            | 2.053      |            |       |  0.34

Nlocal:    19652 ave 19652 max 19652 min
Histogram: 1 0 0 0 0 0 0 0 0 0
Nghost:    16052 ave 16052 max 16052 min
Histogram: 1 0 0 0 0 0 0 0 0 0
Neighs:    1.08853e+06 ave 1.08853e+06 max 1.08853e+06 min
Histogram: 1 0 0 0 0 0 0 0 0 0

Total # of neighbors = 1088526
Ave neighs/atom = 55.3901
Neighbor list builds = 4505
Dangerous builds not checked
Setting up Verlet run ...
  Unit style    : metal
  Current step  : 255000
  Time step     : 0.001
Per MPI rank memory allocation (min/avg/max) = 18.19 | 18.19 | 18.19 Mbytes
Step Temp Press TotEng PotEng Enthalpy 
  255000    297.65476   -659.97343   -120406.55   -121162.62   -120596.87 
  255495    273.28411   -543.78982   -120548.95   -121243.12   -120705.66 
Loop time of 66.5018 on 1 procs for 495 steps with 19652 atoms

Performance: 0.643 ns/day, 37.319 hours/ns, 7.443 timesteps/s
95.5% CPU use with 1 MPI tasks x no OpenMP threads

MPI task timing breakdown:
Section |  min time  |  avg time  |  max time  |%varavg| %total
---------------------------------------------------------------
Pair    | 36.186     | 36.186     | 36.186     |   0.0 | 54.41
Neigh   | 28.618     | 28.618     | 28.618     |   0.0 | 43.03
Comm    | 0.61923    | 0.61923    | 0.61923    |   0.0 |  0.93
Output  | 0.00019598 | 0.00019598 | 0.00019598 |   0.0 |  0.00
Modify  | 0.83597    | 0.83597    | 0.83597    |   0.0 |  1.26
Other   |            | 0.2425     |            |       |  0.36

Nlocal:    19652 ave 19652 max 19652 min
Histogram: 1 0 0 0 0 0 0 0 0 0
Nghost:    16061 ave 16061 max 16061 min
Histogram: 1 0 0 0 0 0 0 0 0 0
Neighs:    1.08906e+06 ave 1.08906e+06 max 1.08906e+06 min
Histogram: 1 0 0 0 0 0 0 0 0 0

Total # of neighbors = 1089063
Ave neighs/atom = 55.4174
Neighbor list builds = 495
Dangerous builds not checked
Setting up Verlet run ...
  Unit style    : metal
  Current step  : 255495
  Time step     : 0.001
Per MPI rank memory allocation (min/avg/max) = 18.19 | 18.19 | 18.19 Mbytes
Step Temp Press TotEng PotEng Enthalpy 
  255495    273.28411   -543.78982   -120548.95   -121243.12   -120705.66 
  260000     248.5649    471.24855   -120684.01   -121315.38    -120548.4 
Loop time of 599.72 on 1 procs for 4505 steps with 19652 atoms

Performance: 0.649 ns/day, 36.979 hours/ns, 7.512 timesteps/s
99.1% CPU use with 1 MPI tasks x no OpenMP threads

MPI task timing breakdown:
Section |  min time  |  avg time  |  max time  |%varavg| %total
---------------------------------------------------------------
Pair    | 330.42     | 330.42     | 330.42     |   0.0 | 55.10
Neigh   | 253.65     | 253.65     | 253.65     |   0.0 | 42.30
Comm    | 5.7602     | 5.7602     | 5.7602     |   0.0 |  0.96
Output  | 0.14794    | 0.14794    | 0.14794    |   0.0 |  0.02
Modify  | 7.6795     | 7.6795     | 7.6795     |   0.0 |  1.28
Other   |            | 2.063      |            |       |  0.34

Nlocal:    19652 ave 19652 max 19652 min
Histogram: 1 0 0 0 0 0 0 0 0 0
Nghost:    16050 ave 16050 max 16050 min
Histogram: 1 0 0 0 0 0 0 0 0 0
Neighs:    1.09156e+06 ave 1.09156e+06 max 1.09156e+06 min
Histogram: 1 0 0 0 0 0 0 0 0 0

Total # of neighbors = 1091556
Ave neighs/atom = 55.5443
Neighbor list builds = 4505
Dangerous builds not checked
Setting up Verlet run ...
  Unit style    : metal
  Current step  : 260000
  Time step     : 0.001
Per MPI rank memory allocation (min/avg/max) = 18.19 | 18.19 | 18.19 Mbytes
Step Temp Press TotEng PotEng Enthalpy 
  260000     248.5649    471.24855   -120684.01   -121315.38    -120548.4 
  260495    223.26713   -310.36997   -120813.24   -121380.36   -120902.59 
Loop time of 67.6606 on 1 procs for 495 steps with 19652 atoms

Performance: 0.632 ns/day, 37.969 hours/ns, 7.316 timesteps/s
99.4% CPU use with 1 MPI tasks x no OpenMP threads

MPI task timing breakdown:
Section |  min time  |  avg time  |  max time  |%varavg| %total
---------------------------------------------------------------
Pair    | 37.428     | 37.428     | 37.428     |   0.0 | 55.32
Neigh   | 28.364     | 28.364     | 28.364     |   0.0 | 41.92
Comm    | 0.73687    | 0.73687    | 0.73687    |   0.0 |  1.09
Output  | 0.00019717 | 0.00019717 | 0.00019717 |   0.0 |  0.00
Modify  | 0.90135    | 0.90135    | 0.90135    |   0.0 |  1.33
Other   |            | 0.2299     |            |       |  0.34

Nlocal:    19652 ave 19652 max 19652 min
Histogram: 1 0 0 0 0 0 0 0 0 0
Nghost:    16033 ave 16033 max 16033 min
Histogram: 1 0 0 0 0 0 0 0 0 0
Neighs:    1.0909e+06 ave 1.0909e+06 max 1.0909e+06 min
Histogram: 1 0 0 0 0 0 0 0 0 0

Total # of neighbors = 1090900
Ave neighs/atom = 55.5109
Neighbor list builds = 495
Dangerous builds not checked
Setting up Verlet run ...
  Unit style    : metal
  Current step  : 260495
  Time step     : 0.001
Per MPI rank memory allocation (min/avg/max) = 18.19 | 18.19 | 18.19 Mbytes
Step Temp Press TotEng PotEng Enthalpy 
  260495    223.26713   -310.36997   -120813.24   -121380.36   -120902.59 
  265000    200.67995    236.81251   -120940.41   -121450.15    -120872.3 
Loop time of 594.867 on 1 procs for 4505 steps with 19652 atoms

Performance: 0.654 ns/day, 36.679 hours/ns, 7.573 timesteps/s
98.5% CPU use with 1 MPI tasks x no OpenMP threads

MPI task timing breakdown:
Section |  min time  |  avg time  |  max time  |%varavg| %total
---------------------------------------------------------------
Pair    | 323.98     | 323.98     | 323.98     |   0.0 | 54.46
Neigh   | 255.89     | 255.89     | 255.89     |   0.0 | 43.02
Comm    | 5.4124     | 5.4124     | 5.4124     |   0.0 |  0.91
Output  | 0.080628   | 0.080628   | 0.080628   |   0.0 |  0.01
Modify  | 7.4436     | 7.4436     | 7.4436     |   0.0 |  1.25
Other   |            | 2.067      |            |       |  0.35

Nlocal:    19652 ave 19652 max 19652 min
Histogram: 1 0 0 0 0 0 0 0 0 0
Nghost:    16068 ave 16068 max 16068 min
Histogram: 1 0 0 0 0 0 0 0 0 0
Neighs:    1.0923e+06 ave 1.0923e+06 max 1.0923e+06 min
Histogram: 1 0 0 0 0 0 0 0 0 0

Total # of neighbors = 1092305
Ave neighs/atom = 55.5824
Neighbor list builds = 4505
Dangerous builds not checked
Setting up Verlet run ...
  Unit style    : metal
  Current step  : 265000
  Time step     : 0.001
Per MPI rank memory allocation (min/avg/max) = 18.19 | 18.19 | 18.19 Mbytes
Step Temp Press TotEng PotEng Enthalpy 
  265000    200.67995    236.81251   -120940.41   -121450.15    -120872.3 
  265495    174.49079   -54.336824   -121068.42   -121511.64   -121084.04 
Loop time of 66.2271 on 1 procs for 495 steps with 19652 atoms

Performance: 0.646 ns/day, 37.165 hours/ns, 7.474 timesteps/s
99.7% CPU use with 1 MPI tasks x no OpenMP threads

MPI task timing breakdown:
Section |  min time  |  avg time  |  max time  |%varavg| %total
---------------------------------------------------------------
Pair    | 36.308     | 36.308     | 36.308     |   0.0 | 54.82
Neigh   | 28.203     | 28.203     | 28.203     |   0.0 | 42.58
Comm    | 0.63437    | 0.63437    | 0.63437    |   0.0 |  0.96
Output  | 0.0001719  | 0.0001719  | 0.0001719  |   0.0 |  0.00
Modify  | 0.85458    | 0.85458    | 0.85458    |   0.0 |  1.29
Other   |            | 0.2273     |            |       |  0.34

Nlocal:    19652 ave 19652 max 19652 min
Histogram: 1 0 0 0 0 0 0 0 0 0
Nghost:    16054 ave 16054 max 16054 min
Histogram: 1 0 0 0 0 0 0 0 0 0
Neighs:    1.09257e+06 ave 1.09257e+06 max 1.09257e+06 min
Histogram: 1 0 0 0 0 0 0 0 0 0

Total # of neighbors = 1092572
Ave neighs/atom = 55.596
Neighbor list builds = 495
Dangerous builds not checked
Setting up Verlet run ...
  Unit style    : metal
  Current step  : 265495
  Time step     : 0.001
Per MPI rank memory allocation (min/avg/max) = 18.19 | 18.19 | 18.19 Mbytes
Step Temp Press TotEng PotEng Enthalpy 
  265495    174.49079   -54.336824   -121068.42   -121511.64   -121084.04 
  270000    149.50306    353.78077   -121205.73   -121585.48   -121104.06 
Loop time of 566.247 on 1 procs for 4505 steps with 19652 atoms

Performance: 0.687 ns/day, 34.915 hours/ns, 7.956 timesteps/s
99.1% CPU use with 1 MPI tasks x no OpenMP threads

MPI task timing breakdown:
Section |  min time  |  avg time  |  max time  |%varavg| %total
---------------------------------------------------------------
Pair    | 306.45     | 306.45     | 306.45     |   0.0 | 54.12
Neigh   | 245.45     | 245.45     | 245.45     |   0.0 | 43.35
Comm    | 5.2066     | 5.2066     | 5.2066     |   0.0 |  0.92
Output  | 0.061894   | 0.061894   | 0.061894   |   0.0 |  0.01
Modify  | 7.1214     | 7.1214     | 7.1214     |   0.0 |  1.26
Other   |            | 1.958      |            |       |  0.35

Nlocal:    19652 ave 19652 max 19652 min
Histogram: 1 0 0 0 0 0 0 0 0 0
Nghost:    16056 ave 16056 max 16056 min
Histogram: 1 0 0 0 0 0 0 0 0 0
Neighs:    1.09398e+06 ave 1.09398e+06 max 1.09398e+06 min
Histogram: 1 0 0 0 0 0 0 0 0 0

Total # of neighbors = 1093982
Ave neighs/atom = 55.6677
Neighbor list builds = 4505
Dangerous builds not checked
Setting up Verlet run ...
  Unit style    : metal
  Current step  : 270000
  Time step     : 0.001
Per MPI rank memory allocation (min/avg/max) = 18.19 | 18.19 | 18.19 Mbytes
Step Temp Press TotEng PotEng Enthalpy 
  270000    149.50306    353.78077   -121205.73   -121585.48   -121104.06 
  270495    126.38014   -257.29084   -121321.18    -121642.2   -121395.14 
Loop time of 54.4099 on 1 procs for 495 steps with 19652 atoms

Performance: 0.786 ns/day, 30.533 hours/ns, 9.098 timesteps/s
99.8% CPU use with 1 MPI tasks x no OpenMP threads

MPI task timing breakdown:
Section |  min time  |  avg time  |  max time  |%varavg| %total
---------------------------------------------------------------
Pair    | 28.573     | 28.573     | 28.573     |   0.0 | 52.51
Neigh   | 24.536     | 24.536     | 24.536     |   0.0 | 45.10
Comm    | 0.4531     | 0.4531     | 0.4531     |   0.0 |  0.83
Output  | 0.0001502  | 0.0001502  | 0.0001502  |   0.0 |  0.00
Modify  | 0.66622    | 0.66622    | 0.66622    |   0.0 |  1.22
Other   |            | 0.1813     |            |       |  0.33

Nlocal:    19652 ave 19652 max 19652 min
Histogram: 1 0 0 0 0 0 0 0 0 0
Nghost:    16042 ave 16042 max 16042 min
Histogram: 1 0 0 0 0 0 0 0 0 0
Neighs:    1.09326e+06 ave 1.09326e+06 max 1.09326e+06 min
Histogram: 1 0 0 0 0 0 0 0 0 0

Total # of neighbors = 1093257
Ave neighs/atom = 55.6308
Neighbor list builds = 495
Dangerous builds not checked
Setting up Verlet run ...
  Unit style    : metal
  Current step  : 270495
  Time step     : 0.001
Per MPI rank memory allocation (min/avg/max) = 18.19 | 18.19 | 18.19 Mbytes
Step Temp Press TotEng PotEng Enthalpy 
  270495    126.38014   -257.29084   -121321.18    -121642.2   -121395.14 
  275000     101.1486     359.7867   -121457.57    -121714.5   -121354.25 
Loop time of 573.251 on 1 procs for 4505 steps with 19652 atoms

Performance: 0.679 ns/day, 35.347 hours/ns, 7.859 timesteps/s
99.0% CPU use with 1 MPI tasks x no OpenMP threads

MPI task timing breakdown:
Section |  min time  |  avg time  |  max time  |%varavg| %total
---------------------------------------------------------------
Pair    | 311.64     | 311.64     | 311.64     |   0.0 | 54.36
Neigh   | 247.03     | 247.03     | 247.03     |   0.0 | 43.09
Comm    | 5.2694     | 5.2694     | 5.2694     |   0.0 |  0.92
Output  | 0.083446   | 0.083446   | 0.083446   |   0.0 |  0.01
Modify  | 7.2541     | 7.2541     | 7.2541     |   0.0 |  1.27
Other   |            | 1.977      |            |       |  0.34

Nlocal:    19652 ave 19652 max 19652 min
Histogram: 1 0 0 0 0 0 0 0 0 0
Nghost:    16077 ave 16077 max 16077 min
Histogram: 1 0 0 0 0 0 0 0 0 0
Neighs:    1.09522e+06 ave 1.09522e+06 max 1.09522e+06 min
Histogram: 1 0 0 0 0 0 0 0 0 0

Total # of neighbors = 1095220
Ave neighs/atom = 55.7307
Neighbor list builds = 4505
Dangerous builds not checked
Total wall time: 9:49:19
